Protein in INSANE! Membrane UpperLeaflet>POPC=1.0 LowerLeaflet>POPC=1.0
249030
    1AU     AUC    1  24.958  38.789   7.498
    1AU     AUC    2  25.229  38.795   7.331
    1AU     AUC    3  25.233  38.792   7.658
    1AU     AUC    4  24.684  38.788   7.334
    1AU     AUC    5  24.687  38.786   7.665
    1AU     AUC    6  24.784  39.048   7.502
    1AU     AUC    7  25.116  39.052   7.497
    1AU     AUC    8  24.798  38.523   7.498
    1AU     AUC    9  25.132  38.526   7.493
    1AU     AUC   10  24.966  38.626   7.760
    1AU     AUC   11  24.958  38.950   7.768
    1AU     AUC   12  24.961  38.630   7.232
    1AU     AUC   13  24.952  38.954   7.231
    1AU     AUC   14  25.495  38.822   7.169
    1AU     AUC   15  25.527  38.800   7.487
    1AU     AUC   16  25.501  38.808   7.810
    1AU     AUC   17  24.423  38.772   7.163
    1AU     AUC   18  24.405  38.775   7.499
    1AU     AUC   19  24.426  38.768   7.833
    1AU     AUC   20  24.613  39.287   7.507
    1AU     AUC   21  24.953  39.321   7.503
    1AU     AUC   22  25.250  39.315   7.494
    1AU     AUC   23  24.655  38.246   7.499
    1AU     AUC   24  24.967  38.244   7.494
    1AU     AUC   25  25.305  38.272   7.486
    1AU     AUC   26  24.987  38.477   8.018
    1AU     AUC   27  24.974  38.783   8.042
    1AU     AUC   28  24.970  39.120   8.023
    1AU     AUC   29  24.978  38.487   6.965
    1AU     AUC   30  24.955  38.785   6.961
    1AU     AUC   31  24.949  39.130   6.982
    1AU     AUC   32  25.236  38.625   7.933
    1AU     AUC   33  25.244  38.961   7.946
    1AU     AUC   34  25.228  38.644   7.041
    1AU     AUC   35  25.239  38.976   7.063
    1AU     AUC   36  24.685  38.629   7.941
    1AU     AUC   37  24.674  38.953   7.940
    1AU     AUC   38  24.680  38.632   7.057
    1AU     AUC   39  24.664  38.956   7.059
    1AU     AUC   40  25.397  39.058   7.332
    1AU     AUC   41  25.405  39.048   7.661
    1AU     AUC   42  24.504  39.055   7.322
    1AU     AUC   43  24.504  39.051   7.675
    1AU     AUC   44  25.413  38.525   7.327
    1AU     AUC   45  25.417  38.520   7.635
    1AU     AUC   46  24.518  38.516   7.323
    1AU     AUC   47  24.525  38.509   7.677
    1AU     AUC   48  24.780  39.221   7.787
    1AU     AUC   49  25.110  39.226   7.776
    1AU     AUC   50  24.808  38.344   7.751
    1AU     AUC   51  25.156  38.360   7.764
    1AU     AUC   52  24.772  39.216   7.213
    1AU     AUC   53  25.100  39.237   7.217
    1AU     AUC   54  24.796  38.353   7.243
    1AU     AUC   55  25.147  38.366   7.221
    1AU    AUSL   56  25.423  38.767   8.131
    1AU    AUSL   57  25.305  38.326   8.073
    1AU     AUL   58  25.670  38.504   8.186
    1AU       S   59  25.631  37.994   8.267
    1AU     LIG   60  25.715  37.656   8.573
    1AU     LIG   61  25.800  37.558   9.016
    1AU       S   62  25.476  38.593   8.651
    1AU     LIG   63  25.748  38.710   9.012
    1AU     LIG   64  25.962  38.808   9.421
    1AU    AUSL   65  25.130  38.596   8.244
    1AU    AUSL   66  24.814  38.937   8.175
    1AU     AUL   67  24.950  38.817   8.516
    1AU       S   68  25.242  38.387   8.610
    1AU     LIG   69  25.273  38.495   9.097
    1AU     LIG   70  25.574  38.448   9.457
    1AU       S   71  24.220  38.505   8.774
    1AU     LIG   72  24.294  38.819   9.135
    1AU     LIG   73  24.243  38.921   9.595
    1AU    AUSL   74  25.149  38.990   8.249
    1AU    AUSL   75  25.555  39.074   7.974
    1AU     AUL   76  25.520  39.001   8.350
    1AU       S   77  25.138  39.303   8.597
    1AU     LIG   78  25.442  39.150   8.936
    1AU     LIG   79  25.451  38.948   9.359
    1AU       S   80  25.835  39.389   8.269
    1AU     LIG   81  26.202  39.448   8.565
    1AU     LIG   82  26.559  39.683   8.758
    1AU    AUSL   83  25.439  38.848   6.840
    1AU    AUSL   84  25.253  39.255   6.898
    1AU     AUL   85  25.272  39.111   6.551
    1AU       S   86  25.711  38.855   6.424
    1AU     LIG   87  26.058  38.925   6.067
    1AU     LIG   88  26.106  38.719   5.642
    1AU       S   89  25.675  39.424   6.637
    1AU     LIG   90  25.940  39.622   6.285
    1AU     LIG   91  26.286  39.921   6.152
    1AU    AUSL   92  25.166  38.617   6.730
    1AU    AUSL   93  25.452  38.575   7.076
    1AU     AUL   94  25.550  38.503   6.758
    1AU       S   95  25.787  37.753   6.723
    1AU     LIG   96  26.172  38.043   6.592
    1AU     LIG   97  26.522  38.075   6.259
    1AU       S   98  25.402  38.625   6.291
    1AU     LIG   99  25.369  38.339   5.919
    1AU     LIG  100  25.572  38.352   5.502
    1AU    AUSL  101  25.102  38.954   6.825
    1AU    AUSL  102  24.804  38.616   6.728
    1AU     AUL  103  24.970  38.860   6.493
    1AU       S  104  24.539  38.619   6.292
    1AU     LIG  105  24.753  38.417   5.925
    1AU     LIG  106  24.597  38.403   5.486
    1AU       S  107  25.722  38.586   6.214
    1AU     LIG  108  25.609  38.786   5.802
    1AU     LIG  109  25.533  38.829   5.319
    1AU    AUSL  110  24.485  38.761   8.152
    1AU    AUSL  111  24.673  39.251   8.090
    1AU     AUL  112  24.619  39.053   8.418
    1AU       S  113  24.212  38.723   8.507
    1AU     LIG  114  23.870  38.849   8.847
    1AU     LIG  115  23.822  38.707   9.318
    1AU       S  116  24.293  39.456   8.322
    1AU     LIG  117  24.104  39.786   8.576
    1AU     LIG  118  23.783  40.053   8.767
    1AU    AUSL  119  24.782  38.590   8.261
    1AU    AUSL  120  24.368  38.475   7.960
    1AU     AUL  121  24.509  38.353   8.273
    1AU       S  122  24.039  38.154   8.182
    1AU     LIG  123  23.636  38.007   8.414
    1AU     LIG  124  23.296  37.923   8.745
    1AU       S  125  24.510  38.603   8.707
    1AU     LIG  126  24.569  38.394   9.135
    1AU     LIG  127  24.268  38.410   9.502
    1AU    AUSL  128  24.479  38.734   6.848
    1AU    AUSL  129  24.697  38.401   6.988
    1AU     AUL  130  24.568  38.334   6.704
    1AU       S  131  24.215  38.651   6.482
    1AU     LIG  132  23.958  38.827   6.102
    1AU     LIG  133  23.913  38.786   5.616
    1AU       S  134  24.132  37.938   6.655
    1AU     LIG  135  23.964  37.589   6.414
    1AU     LIG  136  24.034  37.410   5.963
    1AU    AUSL  137  24.764  38.964   6.822
    1AU    AUSL  138  24.380  39.057   6.993
    1AU     AUL  139  24.523  39.050   6.616
    1AU       S  140  24.069  39.276   6.704
    1AU     LIG  141  23.761  39.659   6.599
    1AU     LIG  142  23.414  39.869   6.316
    1AU       S  143  24.287  38.460   6.193
    1AU     LIG  144  24.384  38.754   5.818
    1AU     LIG  145  24.392  38.899   5.366
    1AU    AUSL  146  25.569  39.247   7.473
    1AU    AUSL  147  25.549  39.113   7.060
    1AU     AUL  148  25.666  39.485   7.224
    1AU       S  149  25.854  39.208   6.795
    1AU     LIG  150  26.200  39.163   6.502
    1AU     LIG  151  26.371  39.388   6.155
    1AU       S  152  26.301  39.407   7.386
    1AU     LIG  153  26.310  39.801   7.578
    1AU     LIG  154  26.609  39.960   7.862
    1AU    AUSL  155  25.735  38.971   7.316
    1AU    AUSL  156  25.733  38.634   7.645
    1AU     AUL  157  26.011  38.784   7.501
    1AU       S  158  26.139  39.199   7.227
    1AU     LIG  159  26.565  39.315   6.973
    1AU     LIG  160  27.036  39.403   7.137
    1AU       S  161  26.184  38.307   7.544
    1AU     LIG  162  26.355  38.029   7.829
    1AU     LIG  163  26.303  37.637   8.039
    1AU    AUSL  164  25.728  38.994   7.679
    1AU    AUSL  165  25.357  39.283   7.738
    1AU     AUL  166  25.714  39.367   7.771
    1AU       S  167  25.837  39.710   8.299
    1AU     LIG  168  26.280  39.914   8.357
    1AU     LIG  169  26.488  40.201   8.680
    1AU       S  170  26.205  39.230   7.629
    1AU     LIG  171  26.637  39.058   7.908
    1AU     LIG  172  27.079  38.816   7.928
    1AU    AUSL  173  24.317  39.250   7.511
    1AU    AUSL  174  24.368  39.051   7.969
    1AU     AUL  175  24.051  39.240   7.759
    1AU       S  176  24.106  39.181   8.285
    1AU     LIG  177  23.736  39.454   8.419
    1AU     LIG  178  23.394  39.695   8.660
    1AU       S  179  24.151  39.703   7.503
    1AU     LIG  180  23.706  39.882   7.408
    1AU     LIG  181  23.383  39.810   7.736
    1AU    AUSL  182  24.239  38.943   7.287
    1AU    AUSL  183  24.458  39.352   7.212
    1AU     AUL  184  24.092  39.242   7.221
    1AU       S  185  23.877  38.822   6.939
    1AU     LIG  186  23.425  38.992   6.944
    1AU     LIG  187  23.292  39.437   6.850
    1AU       S  188  24.171  39.693   6.976
    1AU     LIG  189  23.889  40.079   6.886
    1AU     LIG  190  23.638  40.338   6.589
    1AU    AUSL  191  24.216  38.926   7.685
    1AU    AUSL  192  24.176  38.616   7.336
    1AU     AUL  193  23.940  38.956   7.459
    1AU       S  194  23.693  38.512   7.351
    1AU     LIG  195  23.267  38.435   7.094
    1AU     LIG  196  22.896  38.179   7.111
    1AU       S  197  23.837  38.835   8.014
    1AU     LIG  198  23.439  39.136   8.138
    1AU     LIG  199  23.264  39.585   8.184
    1AU    AUSL  200  25.619  38.327   7.474
    1AU    AUSL  201  25.484  38.548   7.868
    1AU     AUL  202  25.788  38.371   7.853
    1AU       S  203  25.965  38.078   7.445
    1AU     LIG  204  26.081  37.660   7.568
    1AU     LIG  205  26.308  37.350   7.357
    1AU       S  206  25.905  37.911   8.149
    1AU     LIG  207  26.178  37.882   8.490
    1AU     LIG  208  26.298  37.707   8.888
    1AU    AUSL  209  25.727  38.622   7.288
    1AU    AUSL  210  25.433  38.208   7.195
    1AU     AUL  211  25.727  38.368   7.062
    1AU       S  212  26.167  38.313   7.288
    1AU     LIG  213  26.534  38.138   7.036
    1AU     LIG  214  26.998  37.982   7.027
    1AU       S  215  25.693  37.859   7.032
    1AU     LIG  216  26.160  37.748   7.040
    1AU     LIG  217  26.304  37.554   6.617
    1AU    AUSL  218  24.417  38.366   7.492
    1AU    AUSL  219  24.352  38.482   7.061
    1AU     AUL  220  24.138  38.253   7.313
    1AU       S  221  24.054  38.218   6.801
    1AU     LIG  222  23.629  37.954   6.638
    1AU     LIG  223  23.328  37.641   6.377
    1AU       S  224  23.513  38.395   7.527
    1AU     LIG  225  23.667  37.974   7.639
    1AU     LIG  226  23.506  37.593   7.576
    1AU    AUSL  227  24.200  38.588   7.683
    1AU    AUSL  228  24.505  38.184   7.785
    1AU     AUL  229  24.165  38.241   7.693
    1AU       S  230  24.205  37.871   8.032
    1AU     LIG  231  23.755  37.631   8.045
    1AU     LIG  232  23.448  37.530   8.407
    1AU       S  233  23.721  38.509   7.654
    1AU     LIG  234  23.493  38.280   8.010
    1AU     LIG  235  23.280  37.863   8.036
    1AU    AUSL  236  24.980  39.431   7.978
    1AU    AUSL  237  24.477  39.355   7.802
    1AU     AUL  238  24.665  39.628   7.989
    1AU       S  239  24.156  39.644   8.062
    1AU     LIG  240  23.751  39.919   8.200
    1AU     LIG  241  23.419  40.174   8.438
    1AU       S  242  25.077  39.813   8.236
    1AU     LIG  243  25.011  40.173   8.562
    1AU     LIG  244  25.099  40.641   8.536
    1AU    AUSL  245  24.772  39.483   7.669
    1AU    AUSL  246  25.100  39.577   7.324
    1AU     AUL  247  24.785  39.789   7.466
    1AU       S  248  25.252  40.079   8.140
    1AU     LIG  249  24.896  40.417   8.125
    1AU     LIG  250  24.599  40.488   8.484
    1AU       S  251  25.124  40.033   7.149
    1AU     LIG  252  25.367  40.478   7.129
    1AU     LIG  253  25.291  40.962   7.098
    1AU    AUSL  254  25.124  39.546   7.670
    1AU    AUSL  255  25.265  39.264   8.076
    1AU     AUL  256  25.384  39.567   7.897
    1AU       S  257  25.532  39.530   8.382
    1AU     LIG  258  25.747  39.595   8.783
    1AU     LIG  259  26.103  39.884   8.870
    1AU       S  260  25.093  39.983   7.875
    1AU     LIG  261  25.277  40.408   7.775
    1AU     LIG  262  25.261  40.815   7.992
    1AU    AUSL  263  24.998  38.205   7.955
    1AU    AUSL  264  25.447  38.195   7.762
    1AU     AUL  265  25.210  37.943   7.993
    1AU       S  266  24.679  37.472   8.075
    1AU     LIG  267  24.616  37.217   8.448
    1AU     LIG  268  25.021  37.077   8.642
    1AU       S  269  25.719  37.853   7.912
    1AU     LIG  270  25.860  37.413   8.126
    1AU     LIG  271  26.130  37.344   8.524
    1AU    AUSL  272  24.791  38.020   7.683
    1AU    AUSL  273  24.716  38.389   7.986
    1AU     AUL  274  24.715  38.031   8.072
    1AU       S  275  24.585  37.593   7.780
    1AU     LIG  276  24.211  37.356   8.027
    1AU     LIG  277  24.158  36.952   8.278
    1AU       S  278  24.113  37.848   8.320
    1AU     LIG  279  23.980  37.413   8.479
    1AU     LIG  280  24.216  37.128   8.789
    1AU    AUSL  281  25.141  38.083   7.659
    1AU    AUSL  282  24.789  38.018   7.325
    1AU     AUL  283  25.026  37.763   7.516
    1AU       S  284  24.560  37.604   7.238
    1AU     LIG  285  24.399  37.092   7.124
    1AU     LIG  286  24.495  36.640   6.828
    1AU       S  287  24.708  37.263   7.906
    1AU     LIG  288  25.150  37.037   7.955
    1AU     LIG  289  25.561  36.822   8.135
    1AU    AUSL  290  24.969  39.441   7.012
    1AU    AUSL  291  25.327  39.324   7.244
    1AU     AUL  292  25.335  39.587   7.018
    1AU       S  293  24.984  39.896   6.790
    1AU     LIG  294  24.685  40.258   6.553
    1AU     LIG  295  24.579  40.748   6.517
    1AU       S  296  25.965  39.524   6.768
    1AU     LIG  297  26.076  39.991   6.640
    1AU     LIG  298  26.527  40.166   6.688
    1AU    AUSL  299  24.776  39.431   7.330
    1AU    AUSL  300  24.663  39.284   6.927
    1AU     AUL  301  24.666  39.644   7.096
    1AU       S  302  25.006  40.193   6.925
    1AU     LIG  303  24.860  40.630   6.941
    1AU     LIG  304  24.851  41.088   6.820
    1AU       S  305  24.326  39.535   6.704
    1AU     LIG  306  24.206  39.939   6.503
    1AU     LIG  307  23.873  40.097   6.202
    1AU    AUSL  308  24.970  38.220   7.068
    1AU    AUSL  309  24.509  38.188   7.205
    1AU     AUL  310  24.728  38.027   6.931
    1AU       S  311  24.211  37.915   6.941
    1AU     LIG  312  23.825  37.616   6.967
    1AU     LIG  313  23.581  37.315   6.676
    1AU       S  314  24.541  37.504   6.893
    1AU     LIG  315  24.947  37.359   6.634
    1AU     LIG  316  25.035  36.944   6.468
    1AU    AUSL  317  25.150  38.070   7.325
    1AU    AUSL  318  25.254  38.318   6.903
    1AU     AUL  319  25.174  37.947   6.997
    1AU       S  320  24.764  37.452   7.077
    1AU     LIG  321  25.212  37.261   7.102
    1AU     LIG  322  25.349  36.845   6.926
    1AU       S  323  25.573  37.988   6.682
    1AU     LIG  324  25.780  37.970   6.255
    1AU     LIG  325  26.145  37.695   6.131
    2AU     AUC  326  26.623  11.053   7.496
    2AU     AUC  327  26.892  11.055   7.326
    2AU     AUC  328  26.899  11.058   7.653
    2AU     AUC  329  26.349  11.048   7.335
    2AU     AUC  330  26.356  11.052   7.666
    2AU     AUC  331  26.448  11.313   7.498
    2AU     AUC  332  26.778  11.314   7.491
    2AU     AUC  333  26.466  10.787   7.500
    2AU     AUC  334  26.799  10.790   7.492
    2AU     AUC  335  26.635  10.895   7.759
    2AU     AUC  336  26.625  11.218   7.764
    2AU     AUC  337  26.623  10.888   7.231
    2AU     AUC  338  26.613  11.212   7.227
    2AU     AUC  339  27.156  11.078   7.162
    2AU     AUC  340  27.192  11.063   7.482
    2AU     AUC  341  27.169  11.076   7.803
    2AU     AUC  342  26.087  11.031   7.168
    2AU     AUC  343  26.075  11.039   7.505
    2AU     AUC  344  26.100  11.036   7.838
    2AU     AUC  345  26.277  11.552   7.500
    2AU     AUC  346  26.616  11.586   7.492
    2AU     AUC  347  26.910  11.579   7.483
    2AU     AUC  348  26.325  10.509   7.506
    2AU     AUC  349  26.636  10.510   7.501
    2AU     AUC  350  26.974  10.539   7.489
    2AU     AUC  351  26.660  10.751   8.020
    2AU     AUC  352  26.642  11.056   8.041
    2AU     AUC  353  26.638  11.393   8.017
    2AU     AUC  354  26.636  10.738   6.966
    2AU     AUC  355  26.612  11.037   6.960
    2AU     AUC  356  26.607  11.384   6.977
    2AU     AUC  357  26.906  10.897   7.929
    2AU     AUC  358  26.910  11.230   7.940
    2AU     AUC  359  26.888  10.898   7.037
    2AU     AUC  360  26.897  11.229   7.058
    2AU     AUC  361  26.357  10.899   7.944
    2AU     AUC  362  26.343  11.225   7.940
    2AU     AUC  363  26.340  10.886   7.060
    2AU     AUC  364  26.324  11.212   7.059
    2AU     AUC  365  27.058  11.317   7.325
    2AU     AUC  366  27.067  11.314   7.655
    2AU     AUC  367  26.168  11.318   7.321
    2AU     AUC  368  26.172  11.319   7.675
    2AU     AUC  369  27.076  10.785   7.323
    2AU     AUC  370  27.089  10.788   7.632
    2AU     AUC  371  26.184  10.775   7.329
    2AU     AUC  372  26.198  10.774   7.684
    2AU     AUC  373  26.447  11.491   7.781
    2AU     AUC  374  26.772  11.495   7.767
    2AU     AUC  375  26.481  10.614   7.755
    2AU     AUC  376  26.831  10.630   7.763
    2AU     AUC  377  26.432  11.478   7.207
    2AU     AUC  378  26.759  11.495   7.209
    2AU     AUC  379  26.461  10.610   7.244
    2AU     AUC  380  26.809  10.626   7.218
    2AU    AUSL  381  27.088  11.035   8.127
    2AU    AUSL  382  26.982  10.608   8.076
    2AU     AUL  383  27.349  10.793   8.185
    2AU       S  384  27.289  10.288   8.298
    2AU     LIG  385  27.414  10.083   8.712
    2AU     LIG  386  27.701   9.733   8.812
    2AU       S  387  27.132  10.825   8.647
    2AU     LIG  388  27.264  11.028   9.036
    2AU     LIG  389  27.364  10.956   9.484
    2AU    AUSL  390  26.796  10.870   8.243
    2AU    AUSL  391  26.481  11.214   8.174
    2AU     AUL  392  26.626  11.098   8.518
    2AU       S  393  26.887  10.639   8.601
    2AU     LIG  394  26.852  10.708   9.077
    2AU     LIG  395  26.930  10.652   9.540
    2AU       S  396  25.886  10.804   8.787
    2AU     LIG  397  25.992  11.089   9.159
    2AU     LIG  398  25.897  11.202   9.606
    2AU    AUSL  399  26.816  11.265   8.243
    2AU    AUSL  400  27.218  11.336   7.971
    2AU     AUL  401  27.176  11.254   8.362
    2AU       S  402  26.796  11.600   8.574
    2AU     LIG  403  27.126  11.563   8.906
    2AU     LIG  404  27.150  11.421   9.356
    2AU       S  405  27.546  11.576   8.221
    2AU     LIG  406  28.005  11.646   8.367
    2AU     LIG  407  28.165  11.861   8.759
    2AU    AUSL  408  27.092  11.103   6.829
    2AU    AUSL  409  26.910  11.504   6.892
    2AU     AUL  410  26.905  11.379   6.548
    2AU       S  411  27.321  11.112   6.406
    2AU     LIG  412  27.634  11.091   6.040
    2AU     LIG  413  27.585  10.912   5.611
    2AU       S  414  27.333  11.670   6.632
    2AU     LIG  415  27.485  12.042   6.385
    2AU     LIG  416  27.748  12.430   6.289
    2AU    AUSL  417  26.820  10.864   6.729
    2AU    AUSL  418  27.116  10.830   7.066
    2AU     AUL  419  27.212  10.753   6.749
    2AU       S  420  27.315   9.923   6.764
    2AU     LIG  421  27.725   9.901   6.507
    2AU     LIG  422  27.942   9.672   6.147
    2AU       S  423  27.021  10.850   6.292
    2AU     LIG  424  27.183  10.584   5.929
    2AU     LIG  425  27.217  10.567   5.453
    2AU    AUSL  426  26.755  11.203   6.822
    2AU    AUSL  427  26.457  10.867   6.731
    2AU     AUL  428  26.613  11.110   6.494
    2AU       S  429  26.173  10.869   6.295
    2AU     LIG  430  26.244  10.666   5.862
    2AU     LIG  431  25.932  10.626   5.515
    2AU       S  432  27.152  11.062   6.132
    2AU     LIG  433  27.083  11.029   5.689
    2AU     LIG  434  27.243  11.122   5.265
    2AU    AUSL  435  26.156  11.034   8.153
    2AU    AUSL  436  26.344  11.529   8.085
    2AU     AUL  437  26.289  11.335   8.414
    2AU       S  438  25.883  10.999   8.494
    2AU     LIG  439  25.620  11.232   8.816
    2AU     LIG  440  25.489  11.075   9.254
    2AU       S  441  25.975  11.754   8.319
    2AU     LIG  442  25.829  12.107   8.622
    2AU     LIG  443  25.619  12.139   9.044
    2AU    AUSL  444  26.452  10.870   8.264
    2AU    AUSL  445  26.046  10.739   7.970
    2AU     AUL  446  26.195  10.626   8.288
    2AU       S  447  25.738  10.418   8.190
    2AU     LIG  448  25.380  10.397   8.452
    2AU     LIG  449  25.050  10.148   8.620
    2AU       S  450  26.172  10.900   8.706
    2AU     LIG  451  26.317  10.701   9.108
    2AU     LIG  452  26.161  10.732   9.552
    2AU    AUSL  453  26.136  10.989   6.852
    2AU    AUSL  454  26.353  10.650   6.990
    2AU     AUL  455  26.226  10.586   6.705
    2AU       S  456  25.854  10.912   6.508
    2AU     LIG  457  25.492  10.982   6.168
    2AU     LIG  458  25.465  10.844   5.692
    2AU       S  459  25.746  10.206   6.623
    2AU     LIG  460  25.596   9.755   6.452
    2AU     LIG  461  25.293   9.396   6.301
    2AU    AUSL  462  26.419  11.216   6.824
    2AU    AUSL  463  26.040  11.314   6.994
    2AU     AUL  464  26.183  11.305   6.615
    2AU       S  465  25.723  11.515   6.710
    2AU     LIG  466  25.405  11.885   6.677
    2AU     LIG  467  25.269  12.226   6.370
    2AU       S  468  25.895  10.706   6.241
    2AU     LIG  469  25.909  11.037   5.882
    2AU     LIG  470  26.138  11.100   5.486
    2AU    AUSL  471  27.227  11.511   7.463
    2AU    AUSL  472  27.209  11.364   7.052
    2AU     AUL  473  27.317  11.741   7.201
    2AU       S  474  27.515  11.450   6.777
    2AU     LIG  475  27.730  11.533   6.342
    2AU     LIG  476  27.986  11.936   6.297
    2AU       S  477  27.864  11.753   7.514
    2AU     LIG  478  28.056  11.955   7.159
    2AU     LIG  479  28.514  12.033   7.101
    2AU    AUSL  480  27.397  11.233   7.313
    2AU    AUSL  481  27.415  10.905   7.636
    2AU     AUL  482  27.699  11.028   7.424
    2AU       S  483  27.792  11.519   7.314
    2AU     LIG  484  28.297  11.532   7.369
    2AU     LIG  485  28.637  11.225   7.228
    2AU       S  486  27.849  10.544   7.568
    2AU     LIG  487  28.289  10.423   7.734
    2AU     LIG  488  28.707  10.488   7.923
    2AU    AUSL  489  27.387  11.263   7.674
    2AU    AUSL  490  27.010  11.546   7.726
    2AU     AUL  491  27.343  11.647   7.761
    2AU       S  492  27.527  11.813   8.390
    2AU     LIG  493  27.429  12.236   8.218
    2AU     LIG  494  27.622  12.589   8.394
    2AU       S  495  27.815  11.472   7.679
    2AU     LIG  496  28.209  11.631   7.880
    2AU     LIG  497  28.634  11.472   7.842
    2AU    AUSL  498  25.982  11.513   7.511
    2AU    AUSL  499  26.040  11.326   7.973
    2AU     AUL  500  25.715  11.500   7.767
    2AU       S  501  25.785  11.467   8.290
    2AU     LIG  502  25.474  11.738   8.512
    2AU     LIG  503  25.204  11.879   8.855
    2AU       S  504  25.813  11.965   7.512
    2AU     LIG  505  25.397  12.131   7.350
    2AU     LIG  506  25.066  12.204   7.028
    2AU    AUSL  507  25.906  11.204   7.292
    2AU    AUSL  508  26.118  11.615   7.208
    2AU     AUL  509  25.756  11.503   7.224
    2AU       S  510  25.539  11.075   6.957
    2AU     LIG  511  25.111  11.271   7.037
    2AU     LIG  512  24.937  11.712   6.988
    2AU       S  513  25.825  11.952   6.978
    2AU     LIG  514  25.558  12.347   6.883
    2AU     LIG  515  25.485  12.674   6.565
    2AU    AUSL  516  25.890  11.191   7.694
    2AU    AUSL  517  25.845  10.878   7.349
    2AU     AUL  518  25.617  11.234   7.470
    2AU       S  519  25.384  10.788   7.396
    2AU     LIG  520  25.166  10.717   7.039
    2AU     LIG  521  24.772  10.608   7.074
    2AU       S  522  25.535  11.085   8.038
    2AU     LIG  523  25.077  11.210   7.920
    2AU     LIG  524  24.808  11.607   7.974
    2AU    AUSL  525  27.285  10.593   7.477
    2AU    AUSL  526  27.161  10.824   7.861
    2AU     AUL  527  27.459  10.648   7.859
    2AU       S  528  27.600  10.328   7.457
    2AU     LIG  529  27.841   9.977   7.406
    2AU     LIG  530  28.160   9.931   7.688
    2AU       S  531  27.366   9.973   8.223
    2AU     LIG  532  27.795  10.076   8.369
    2AU     LIG  533  28.088  10.085   8.730
    2AU    AUSL  534  27.386  10.880   7.281
    2AU    AUSL  535  27.101  10.465   7.199
    2AU     AUL  536  27.395  10.622   7.060
    2AU       S  537  27.821  10.528   7.305
    2AU     LIG  538  28.238  10.278   7.246
    2AU     LIG  539  28.643  10.188   7.015
    2AU       S  540  27.366  10.103   7.028
    2AU     LIG  541  27.700   9.703   6.979
    2AU     LIG  542  27.736   9.403   6.619
    2AU    AUSL  543  26.087  10.628   7.502
    2AU    AUSL  544  26.013  10.741   7.072
    2AU     AUL  545  25.807  10.508   7.327
    2AU       S  546  25.710  10.505   6.814
    2AU     LIG  547  25.281  10.277   6.793
    2AU     LIG  548  25.116   9.889   6.587
    2AU       S  549  25.146  10.858   7.527
    2AU     LIG  550  25.081  10.390   7.550
    2AU     LIG  551  24.921   9.984   7.708
    2AU    AUSL  552  25.876  10.854   7.694
    2AU    AUSL  553  26.185  10.449   7.794
    2AU     AUL  554  25.836  10.509   7.702
    2AU       S  555  25.921  10.138   8.034
    2AU     LIG  556  25.781   9.688   8.006
    2AU     LIG  557  25.561   9.478   8.317
    2AU       S  558  25.396  10.791   7.665
    2AU     LIG  559  25.117  10.683   8.002
    2AU     LIG  560  25.019  10.279   8.099
    2AU    AUSL  561  26.648  11.703   7.968
    2AU    AUSL  562  26.147  11.626   7.796
    2AU     AUL  563  26.341  11.905   7.971
    2AU       S  564  25.837  11.919   8.045
    2AU     LIG  565  25.496  12.182   8.240
    2AU     LIG  566  25.338  12.359   8.658
    2AU       S  567  26.746  12.094   8.225
    2AU     LIG  568  26.489  12.422   8.472
    2AU     LIG  569  26.489  12.872   8.621
    2AU    AUSL  570  26.440  11.748   7.657
    2AU    AUSL  571  26.763  11.837   7.310
    2AU     AUL  572  26.455  12.058   7.458
    2AU       S  573  26.889  12.388   8.153
    2AU     LIG  574  26.582  12.773   8.102
    2AU     LIG  575  26.491  13.204   8.228
    2AU       S  576  26.788  12.283   7.123
    2AU     LIG  577  26.906  12.724   7.254
    2AU     LIG  578  26.780  13.126   7.091
    2AU    AUSL  579  26.789  11.817   7.656
    2AU    AUSL  580  26.934  11.534   8.066
    2AU     AUL  581  27.042  11.840   7.891
    2AU       S  582  27.222  11.770   8.363
    2AU     LIG  583  27.265  12.099   8.696
    2AU     LIG  584  27.677  12.292   8.817
    2AU       S  585  26.771  12.269   7.860
    2AU     LIG  586  26.967  12.718   7.781
    2AU     LIG  587  27.103  12.977   8.163
    2AU    AUSL  588  26.680  10.486   7.945
    2AU    AUSL  589  27.119  10.469   7.771
    2AU     AUL  590  26.879  10.225   8.009
    2AU       S  591  26.281   9.757   8.083
    2AU     LIG  592  26.418   9.425   8.360
    2AU     LIG  593  26.525   9.029   8.580
    2AU       S  594  27.391  10.144   7.944
    2AU     LIG  595  27.729   9.810   7.926
    2AU     LIG  596  27.799   9.566   8.318
    2AU    AUSL  597  26.473  10.286   7.690
    2AU    AUSL  598  26.394  10.658   7.996
    2AU     AUL  599  26.416  10.304   8.082
    2AU       S  600  26.279   9.864   7.794
    2AU     LIG  601  26.173   9.341   7.846
    2AU     LIG  602  26.396   8.965   8.073
    2AU       S  603  25.800  10.123   8.285
    2AU     LIG  604  25.972   9.745   8.485
    2AU     LIG  605  25.900   9.685   8.923
    2AU    AUSL  606  26.825  10.338   7.661
    2AU    AUSL  607  26.452  10.281   7.334
    2AU     AUL  608  26.708  10.033   7.501
    2AU       S  609  26.222   9.876   7.295
    2AU     LIG  610  25.890   9.534   7.105
    2AU     LIG  611  25.968   9.191   6.800
    2AU       S  612  26.525   9.671   7.913
    2AU     LIG  613  26.783   9.270   7.888
    2AU     LIG  614  27.123   8.926   7.938
    2AU    AUSL  615  26.629  11.696   7.000
    2AU    AUSL  616  26.983  11.576   7.234
    2AU     AUL  617  26.996  11.834   7.004
    2AU       S  618  26.666  12.157   6.775
    2AU     LIG  619  26.606  12.533   6.445
    2AU     LIG  620  26.710  13.007   6.526
    2AU       S  621  27.665  11.754   6.776
    2AU     LIG  622  27.846  12.188   6.736
    2AU     LIG  623  28.195  12.449   6.576
    2AU    AUSL  624  26.435  11.701   7.317
    2AU    AUSL  625  26.320  11.539   6.921
    2AU     AUL  626  26.327  11.903   7.069
    2AU       S  627  26.893  12.411   6.846
    2AU     LIG  628  26.536  12.709   6.905
    2AU     LIG  629  26.317  13.142   6.869
    2AU       S  630  25.962  11.787   6.699
    2AU     LIG  631  25.788  12.178   6.453
    2AU     LIG  632  25.660  12.501   6.104
    2AU    AUSL  633  26.626  10.465   7.054
    2AU    AUSL  634  26.169  10.446   7.215
    2AU     AUL  635  26.372  10.263   6.945
    2AU       S  636  25.849  10.197   6.926
    2AU     LIG  637  25.523   9.846   6.944
    2AU     LIG  638  25.284   9.462   6.811
    2AU       S  639  26.365   9.660   7.120
    2AU     LIG  640  26.492   9.386   6.775
    2AU     LIG  641  26.794   9.165   6.484
    2AU    AUSL  642  26.807  10.355   7.328
    2AU    AUSL  643  26.917  10.569   6.906
    2AU     AUL  644  26.843  10.196   7.022
    2AU       S  645  26.313   9.546   7.394
    2AU     LIG  646  26.770   9.429   7.290
    2AU     LIG  647  27.027   9.467   6.897
    2AU       S  648  27.224  10.229   6.683
    2AU     LIG  649  27.275   9.972   6.269
    2AU     LIG  650  27.442   9.528   6.214
    3AU     AUC  651  11.216  18.006   7.504
    3AU     AUC  652  11.485  18.010   7.336
    3AU     AUC  653  11.491  18.011   7.664
    3AU     AUC  654  10.943  17.999   7.341
    3AU     AUC  655  10.946  18.002   7.672
    3AU     AUC  656  11.039  18.263   7.507
    3AU     AUC  657  11.370  18.268   7.502
    3AU     AUC  658  11.059  17.739   7.506
    3AU     AUC  659  11.392  17.744   7.500
    3AU     AUC  660  11.227  17.848   7.767
    3AU     AUC  661  11.215  18.170   7.774
    3AU     AUC  662  11.219  17.842   7.238
    3AU     AUC  663  11.207  18.167   7.236
    3AU     AUC  664  11.745  18.034   7.171
    3AU     AUC  665  11.782  18.016   7.494
    3AU     AUC  666  11.762  18.031   7.815
    3AU     AUC  667  10.684  17.981   7.169
    3AU     AUC  668  10.666  17.986   7.506
    3AU     AUC  669  10.688  17.982   7.840
    3AU     AUC  670  10.865  18.500   7.512
    3AU     AUC  671  11.206  18.536   7.507
    3AU     AUC  672  11.501  18.533   7.498
    3AU     AUC  673  10.920  17.461   7.513
    3AU     AUC  674  11.231  17.464   7.506
    3AU     AUC  675  11.569  17.492   7.495
    3AU     AUC  676  11.251  17.704   8.027
    3AU     AUC  677  11.232  18.007   8.049
    3AU     AUC  678  11.225  18.342   8.028
    3AU     AUC  679  11.234  17.696   6.972
    3AU     AUC  680  11.212  17.996   6.967
    3AU     AUC  681  11.204  18.343   6.988
    3AU     AUC  682  11.499  17.850   7.938
    3AU     AUC  683  11.501  18.183   7.953
    3AU     AUC  684  11.483  17.856   7.045
    3AU     AUC  685  11.492  18.189   7.067
    3AU     AUC  686  10.947  17.851   7.949
    3AU     AUC  687  10.931  18.173   7.947
    3AU     AUC  688  10.939  17.840   7.064
    3AU     AUC  689  10.921  18.165   7.066
    3AU     AUC  690  11.648  18.273   7.337
    3AU     AUC  691  11.658  18.267   7.667
    3AU     AUC  692  10.760  18.266   7.328
    3AU     AUC  693  10.760  18.265   7.681
    3AU     AUC  694  11.666  17.738   7.332
    3AU     AUC  695  11.685  17.741   7.642
    3AU     AUC  696  10.779  17.725   7.332
    3AU     AUC  697  10.788  17.724   7.686
    3AU     AUC  698  11.035  18.439   7.792
    3AU     AUC  699  11.364  18.445   7.781
    3AU     AUC  700  11.074  17.567   7.762
    3AU     AUC  701  11.423  17.585   7.774
    3AU     AUC  702  11.025  18.428   7.218
    3AU     AUC  703  11.352  18.452   7.222
    3AU     AUC  704  11.057  17.565   7.251
    3AU     AUC  705  11.406  17.580   7.227
    3AU    AUSL  706  11.681  17.990   8.138
    3AU    AUSL  707  11.576  17.560   8.081
    3AU     AUL  708  11.938  17.742   8.197
    3AU       S  709  11.884  17.233   8.299
    3AU     LIG  710  12.010  17.048   8.717
    3AU     LIG  711  12.217  16.645   8.817
    3AU       S  712  11.723  17.799   8.658
    3AU     LIG  713  11.919  17.922   9.055
    3AU     LIG  714  12.135  17.988   9.464
    3AU    AUSL  715  11.388  17.820   8.250
    3AU    AUSL  716  11.069  18.162   8.183
    3AU     AUL  717  11.208  18.040   8.526
    3AU       S  718  11.488  17.593   8.608
    3AU     LIG  719  11.457  17.678   9.084
    3AU     LIG  720  11.702  17.684   9.489
    3AU       S  721  10.454  17.757   8.778
    3AU     LIG  722  10.574  18.073   9.131
    3AU     LIG  723  10.499  18.178   9.588
    3AU    AUSL  724  11.403  18.213   8.256
    3AU    AUSL  725  11.810  18.297   7.983
    3AU     AUL  726  11.766  18.224   8.368
    3AU       S  727  11.376  18.534   8.598
    3AU     LIG  728  11.639  18.369   8.963
    3AU     LIG  729  11.658  18.204   9.401
    3AU       S  730  12.102  18.586   8.257
    3AU     LIG  731  12.554  18.771   8.302
    3AU     LIG  732  12.671  19.152   8.566
    3AU    AUSL  733  11.690  18.060   6.838
    3AU    AUSL  734  11.507  18.471   6.906
    3AU     AUL  735  11.535  18.341   6.561
    3AU       S  736  11.853  18.003   6.345
    3AU     LIG  737  12.158  18.087   5.972
    3AU     LIG  738  12.139  17.894   5.526
    3AU       S  739  11.948  18.647   6.666
    3AU     LIG  740  12.152  18.929   6.355
    3AU     LIG  741  12.370  19.079   5.977
    3AU    AUSL  742  11.420  17.826   6.738
    3AU    AUSL  743  11.708  17.782   7.069
    3AU     AUL  744  11.825  17.724   6.763
    3AU       S  745  11.879  16.905   6.734
    3AU     LIG  746  12.317  16.907   6.561
    3AU     LIG  747  12.657  16.703   6.281
    3AU       S  748  11.563  17.736   6.313
    3AU     LIG  749  11.435  17.595   5.856
    3AU     LIG  750  11.630  17.647   5.414
    3AU    AUSL  751  11.356  18.169   6.827
    3AU    AUSL  752  11.061  17.827   6.734
    3AU     AUL  753  11.222  18.084   6.503
    3AU       S  754  10.806  17.820   6.288
    3AU     LIG  755  10.897  17.609   5.848
    3AU     LIG  756  10.583  17.582   5.489
    3AU       S  757  11.825  17.752   6.141
    3AU     LIG  758  11.692  18.029   5.771
    3AU     LIG  759  11.739  18.153   5.305
    3AU    AUSL  760  10.745  17.981   8.158
    3AU    AUSL  761  10.928  18.474   8.093
    3AU     AUL  762  10.871  18.280   8.423
    3AU       S  763  10.465  17.939   8.490
    3AU     LIG  764  10.194  18.188   8.804
    3AU     LIG  765  10.082  18.082   9.273
    3AU       S  766  10.552  18.692   8.320
    3AU     LIG  767  10.414  19.115   8.511
    3AU     LIG  768  10.270  19.329   8.891
    3AU    AUSL  769  11.042  17.816   8.270
    3AU    AUSL  770  10.631  17.695   7.971
    3AU     AUL  771  10.786  17.570   8.283
    3AU       S  772  10.289  17.452   8.208
    3AU     LIG  773   9.831  17.325   8.329
    3AU     LIG  774   9.498  17.095   8.562
    3AU       S  775  10.754  17.835   8.706
    3AU     LIG  776  10.817  17.630   9.125
    3AU     LIG  777  10.496  17.669   9.472
    3AU    AUSL  778  10.737  17.941   6.853
    3AU    AUSL  779  10.955  17.604   6.990
    3AU     AUL  780  10.835  17.541   6.704
    3AU       S  781  10.473  17.859   6.492
    3AU     LIG  782  10.145  17.959   6.136
    3AU     LIG  783  10.122  17.808   5.671
    3AU       S  784  10.379  17.177   6.640
    3AU     LIG  785  10.389  16.715   6.551
    3AU     LIG  786  10.015  16.508   6.403
    3AU    AUSL  787  11.019  18.174   6.835
    3AU    AUSL  788  10.639  18.265   6.996
    3AU     AUL  789  10.788  18.255   6.618
    3AU       S  790  10.334  18.473   6.709
    3AU     LIG  791  10.070  18.856   6.613
    3AU     LIG  792   9.956  19.084   6.238
    3AU       S  793  10.536  17.666   6.214
    3AU     LIG  794  10.571  17.992   5.854
    3AU     LIG  795  10.486  18.085   5.401
    3AU    AUSL  796  11.819  18.464   7.477
    3AU    AUSL  797  11.801  18.324   7.065
    3AU     AUL  798  11.911  18.700   7.225
    3AU       S  799  12.123  18.414   6.805
    3AU     LIG  800  12.432  18.486   6.425
    3AU     LIG  801  12.681  18.891   6.369
    3AU       S  802  12.663  18.395   7.496
    3AU     LIG  803  12.959  18.764   7.536
    3AU     LIG  804  13.036  19.134   7.848
    3AU    AUSL  805  11.983  18.186   7.325
    3AU    AUSL  806  12.017  17.860   7.643
    3AU     AUL  807  12.281  17.971   7.352
    3AU       S  808  12.388  18.464   7.337
    3AU     LIG  809  12.795  18.517   7.031
    3AU     LIG  810  13.271  18.516   6.955
    3AU       S  811  12.454  17.552   7.606
    3AU     LIG  812  12.840  17.504   7.838
    3AU     LIG  813  13.221  17.365   7.734
    3AU    AUSL  814  11.977  18.211   7.687
    3AU    AUSL  815  11.608  18.500   7.743
    3AU     AUL  816  11.959  18.595   7.768
    3AU       S  817  12.075  18.849   8.407
    3AU     LIG  818  12.278  19.244   8.242
    3AU     LIG  819  12.559  19.637   8.303
    3AU       S  820  12.409  18.339   7.705
    3AU     LIG  821  12.806  18.384   7.970
    3AU     LIG  822  13.239  18.478   7.887
    3AU    AUSL  823  10.566  18.456   7.519
    3AU    AUSL  824  10.625  18.269   7.976
    3AU     AUL  825  10.294  18.431   7.773
    3AU       S  826  10.363  18.405   8.295
    3AU     LIG  827  10.119  18.686   8.597
    3AU     LIG  828   9.902  18.941   8.930
    3AU       S  829  10.373  18.896   7.520
    3AU     LIG  830   9.898  19.027   7.515
    3AU     LIG  831   9.533  19.252   7.749
    3AU    AUSL  832  10.500  18.153   7.291
    3AU    AUSL  833  10.709  18.562   7.220
    3AU     AUL  834  10.349  18.449   7.223
    3AU       S  835  10.139  18.033   6.943
    3AU     LIG  836   9.758  18.328   6.969
    3AU     LIG  837   9.476  18.632   7.210
    3AU       S  838  10.425  18.900   6.984
    3AU     LIG  839  10.259  19.321   6.830
    3AU     LIG  840  10.157  19.535   6.425
    3AU    AUSL  841  10.479  18.129   7.697
    3AU    AUSL  842  10.441  17.826   7.341
    3AU     AUL  843  10.212  18.178   7.468
    3AU       S  844   9.981  17.739   7.340
    3AU     LIG  845   9.667  17.645   7.017
    3AU     LIG  846   9.244  17.550   7.171
    3AU       S  847  10.122  18.003   8.036
    3AU     LIG  848   9.642  18.054   8.121
    3AU     LIG  849   9.298  18.389   8.170
    3AU    AUSL  850  11.879  17.541   7.487
    3AU    AUSL  851  11.756  17.781   7.869
    3AU     AUL  852  12.037  17.592   7.872
    3AU       S  853  12.219  17.284   7.491
    3AU     LIG  854  12.438  16.886   7.412
    3AU     LIG  855  12.736  16.755   7.066
    3AU       S  856  11.932  16.904   8.227
    3AU     LIG  857  12.353  16.950   8.359
    3AU     LIG  858  12.591  16.989   8.743
    3AU    AUSL  859  11.961  17.831   7.297
    3AU    AUSL  860  11.697  17.424   7.199
    3AU     AUL  861  12.004  17.578   7.079
    3AU       S  862  12.420  17.476   7.350
    3AU     LIG  863  12.896  17.398   7.287
    3AU     LIG  864  13.181  17.035   7.169
    3AU       S  865  11.945  17.074   6.992
    3AU     LIG  866  12.213  16.652   7.009
    3AU     LIG  867  12.497  16.447   6.705
    3AU    AUSL  868  10.681  17.570   7.505
    3AU    AUSL  869  10.614  17.689   7.070
    3AU     AUL  870  10.407  17.454   7.330
    3AU       S  871  10.318  17.456   6.816
    3AU     LIG  872   9.886  17.226   6.761
    3AU     LIG  873   9.642  16.798   6.690
    3AU       S  874   9.746  17.832   7.483
    3AU     LIG  875   9.644  17.371   7.444
    3AU     LIG  876   9.512  17.100   7.091
    3AU    AUSL  877  10.465  17.791   7.686
    3AU    AUSL  878  10.772  17.406   7.807
    3AU     AUL  879  10.428  17.436   7.712
    3AU       S  880  10.478  17.121   8.105
    3AU     LIG  881  10.316  16.645   8.162
    3AU     LIG  882   9.950  16.357   8.291
    3AU       S  883   9.997  17.725   7.632
    3AU     LIG  884   9.712  17.593   7.907
    3AU     LIG  885   9.300  17.629   7.706
    3AU    AUSL  886  11.235  18.652   7.982
    3AU    AUSL  887  10.732  18.572   7.803
    3AU     AUL  888  10.924  18.849   7.987
    3AU       S  889  10.417  18.856   8.042
    3AU     LIG  890  10.011  19.041   8.212
    3AU     LIG  891   9.866  19.312   8.564
    3AU       S  892  11.335  19.042   8.235
    3AU     LIG  893  11.327  19.389   8.580
    3AU     LIG  894  11.428  19.843   8.539
    3AU    AUSL  895  11.028  18.697   7.672
    3AU    AUSL  896  11.348  18.793   7.329
    3AU     AUL  897  11.026  19.002   7.470
    3AU       S  898  11.495  19.311   8.122
    3AU     LIG  899  11.133  19.606   8.154
    3AU     LIG  900  11.033  20.032   8.287
    3AU       S  901  11.364  19.251   7.160
    3AU     LIG  902  11.562  19.701   7.221
    3AU     LIG  903  11.649  19.875   6.813
    3AU    AUSL  904  11.379  18.765   7.673
    3AU    AUSL  905  11.520  18.486   8.083
    3AU     AUL  906  11.640  18.786   7.902
    3AU       S  907  11.775  18.762   8.390
    3AU     LIG  908  11.837  19.260   8.528
    3AU     LIG  909  12.251  19.438   8.731
    3AU       S  910  11.348  19.199   7.865
    3AU     LIG  911  11.413  19.632   7.718
    3AU     LIG  912  11.485  19.958   8.018
    3AU    AUSL  913  11.268  17.436   7.968
    3AU    AUSL  914  11.711  17.418   7.777
    3AU     AUL  915  11.474  17.173   8.007
    3AU       S  916  10.812  16.703   8.090
    3AU     LIG  917  10.852  16.353   8.394
    3AU     LIG  918  11.231  16.079   8.436
    3AU       S  919  11.989  17.083   7.952
    3AU     LIG  920  12.258  16.667   7.924
    3AU     LIG  921  12.309  16.430   8.311
    3AU    AUSL  922  11.059  17.245   7.701
    3AU    AUSL  923  10.984  17.616   7.994
    3AU     AUL  924  10.995  17.261   8.095
    3AU       S  925  10.839  16.864   7.791
    3AU     LIG  926  10.560  16.543   7.691
    3AU     LIG  927  10.771  16.193   7.927
    3AU       S  928  10.325  17.164   8.358
    3AU     LIG  929  10.467  16.790   8.620
    3AU     LIG  930  10.513  16.616   9.046
    3AU    AUSL  931  11.407  17.309   7.672
    3AU    AUSL  932  11.055  17.233   7.344
    3AU     AUL  933  11.305  16.988   7.536
    3AU       S  934  10.841  16.824   7.297
    3AU     LIG  935  10.546  16.533   7.047
    3AU     LIG  936  10.633  16.277   6.687
    3AU       S  937  11.027  16.614   7.889
    3AU     LIG  938  11.286  16.214   7.904
    3AU     LIG  939  11.342  15.773   8.030
    3AU    AUSL  940  11.220  18.655   7.017
    3AU    AUSL  941  11.576  18.540   7.249
    3AU     AUL  942  11.584  18.805   7.024
    3AU       S  943  11.232  19.115   6.805
    3AU     LIG  944  10.960  19.481   6.592
    3AU     LIG  945  11.164  19.889   6.456
    3AU       S  946  12.274  18.723   6.819
    3AU     LIG  947  12.408  19.171   6.730
    3AU     LIG  948  12.507  19.423   6.352
    3AU    AUSL  949  11.027  18.642   7.334
    3AU    AUSL  950  10.916  18.495   6.933
    3AU     AUL  951  10.916  18.854   7.102
    3AU       S  952  11.374  19.408   6.868
    3AU     LIG  953  11.131  19.814   6.970
    3AU     LIG  954  10.909  20.192   6.783
    3AU       S  955  10.581  18.744   6.703
    3AU     LIG  956  10.477  19.117   6.403
    3AU     LIG  957  10.339  19.329   5.987
    3AU    AUSL  958  11.228  17.428   7.078
    3AU    AUSL  959  10.773  17.396   7.217
    3AU     AUL  960  10.984  17.220   6.950
    3AU       S  961  10.460  17.139   6.933
    3AU     LIG  962  10.101  16.805   6.954
    3AU     LIG  963  10.095  16.329   6.888
    3AU       S  964  11.022  16.651   7.132
    3AU     LIG  965  11.022  16.599   6.680
    3AU     LIG  966  11.105  16.196   6.454
    3AU    AUSL  967  11.415  17.292   7.338
    3AU    AUSL  968  11.509  17.527   6.907
    3AU     AUL  969  11.432  17.156   7.020
    3AU       S  970  10.962  16.469   7.345
    3AU     LIG  971  11.229  16.230   6.963
    3AU     LIG  972  11.396  15.807   6.839
    3AU       S  973  11.790  17.210   6.654
    3AU     LIG  974  11.917  16.954   6.240
    3AU     LIG  975  12.169  16.538   6.183
    4AU     AUC  976  41.078  14.680   7.501
    4AU     AUC  977  41.344  14.687   7.330
    4AU     AUC  978  41.354  14.682   7.658
    4AU     AUC  979  40.803  14.675   7.342
    4AU     AUC  980  40.812  14.673   7.673
    4AU     AUC  981  40.901  14.937   7.510
    4AU     AUC  982  41.230  14.942   7.501
    4AU     AUC  983  40.924  14.413   7.502
    4AU     AUC  984  41.255  14.419   7.491
    4AU     AUC  985  41.093  14.516   7.763
    4AU     AUC  986  41.081  14.839   7.774
    4AU     AUC  987  41.079  14.521   7.233
    4AU     AUC  988  41.065  14.845   7.235
    4AU     AUC  989  41.605  14.716   7.165
    4AU     AUC  990  41.642  14.691   7.486
    4AU     AUC  991  41.624  14.697   7.807
    4AU     AUC  992  40.540  14.656   7.176
    4AU     AUC  993  40.529  14.656   7.512
    4AU     AUC  994  40.558  14.651   7.845
    4AU     AUC  995  40.728  15.174   7.519
    4AU     AUC  996  41.067  15.212   7.508
    4AU     AUC  997  41.361  15.206   7.497
    4AU     AUC  998  40.787  14.132   7.504
    4AU     AUC  999  41.094  14.140   7.490
    4AU     AUC 1000  41.432  14.170   7.477
    4AU     AUC 1001  41.121  14.363   8.020
    4AU     AUC 1002  41.102  14.670   8.047
    4AU     AUC 1003  41.094  15.008   8.031
    4AU     AUC 1004  41.092  14.379   6.964
    4AU     AUC 1005  41.066  14.677   6.963
    4AU     AUC 1006  41.056  15.022   6.988
    4AU     AUC 1007  41.365  14.514   7.931
    4AU     AUC 1008  41.367  14.847   7.950
    4AU     AUC 1009  41.340  14.538   7.035
    4AU     AUC 1010  41.348  14.869   7.063
    4AU     AUC 1011  40.818  14.516   7.948
    4AU     AUC 1012  40.802  14.839   7.951
    4AU     AUC 1013  40.796  14.520   7.062
    4AU     AUC 1014  40.774  14.844   7.070
    4AU     AUC 1015  41.506  14.950   7.334
    4AU     AUC 1016  41.518  14.939   7.664
    4AU     AUC 1017  40.618  14.939   7.336
    4AU     AUC 1018  40.627  14.935   7.689
    4AU     AUC 1019  41.529  14.419   7.318
    4AU     AUC 1020  41.546  14.412   7.629
    4AU     AUC 1021  40.643  14.400   7.330
    4AU     AUC 1022  40.657  14.394   7.686
    4AU     AUC 1023  40.902  15.111   7.796
    4AU     AUC 1024  41.226  15.116   7.782
    4AU     AUC 1025  40.941  14.232   7.757
    4AU     AUC 1026  41.286  14.256   7.766
    4AU     AUC 1027  40.880  15.105   7.222
    4AU     AUC 1028  41.207  15.129   7.221
    4AU     AUC 1029  40.920  14.243   7.244
    4AU     AUC 1030  41.269  14.259   7.216
    4AU    AUSL 1031  41.551  14.647   8.128
    4AU    AUSL 1032  41.442  14.216   8.063
    4AU     AUL 1033  41.809  14.396   8.176
    4AU       S 1034  41.709  13.900   8.306
    4AU     LIG 1035  41.771  13.565   8.647
    4AU     LIG 1036  42.045  13.301   8.895
    4AU       S 1037  41.600  14.431   8.644
    4AU     LIG 1038  41.727  14.636   9.041
    4AU     LIG 1039  41.984  14.658   9.438
    4AU    AUSL 1040  41.260  14.476   8.243
    4AU    AUSL 1041  40.943  14.825   8.187
    4AU     AUL 1042  41.088  14.695   8.525
    4AU       S 1043  41.358  14.238   8.589
    4AU     LIG 1044  41.304  14.314   9.056
    4AU     LIG 1045  41.547  14.360   9.453
    4AU       S 1046  40.360  14.367   8.768
    4AU     LIG 1047  40.372  14.673   9.116
    4AU     LIG 1048  40.403  14.789   9.567
    4AU    AUSL 1049  41.279  14.869   8.255
    4AU    AUSL 1050  41.672  14.960   7.982
    4AU     AUL 1051  41.646  14.863   8.365
    4AU       S 1052  41.273  15.184   8.603
    4AU     LIG 1053  41.606  15.154   8.932
    4AU     LIG 1054  41.609  15.013   9.382
    4AU       S 1055  41.994  15.221   8.249
    4AU     LIG 1056  42.349  15.325   8.565
    4AU     LIG 1057  42.645  15.654   8.746
    4AU    AUSL 1058  41.544  14.748   6.832
    4AU    AUSL 1059  41.361  15.148   6.904
    4AU     AUL 1060  41.378  15.030   6.556
    4AU       S 1061  41.762  14.738   6.381
    4AU     LIG 1062  42.048  14.845   6.008
    4AU     LIG 1063  42.085  14.623   5.580
    4AU       S 1064  41.821  15.304   6.658
    4AU     LIG 1065  42.134  15.499   6.331
    4AU     LIG 1066  42.430  15.699   6.000
    4AU    AUSL 1067  41.271  14.513   6.726
    4AU    AUSL 1068  41.565  14.470   7.060
    4AU     AUL 1069  41.665  14.404   6.747
    4AU       S 1070  41.757  13.549   6.710
    4AU     LIG 1071  42.151  13.631   6.463
    4AU     LIG 1072  42.560  13.706   6.210
    4AU       S 1073  41.458  14.486   6.287
    4AU     LIG 1074  41.426  14.200   5.897
    4AU     LIG 1075  41.640  14.220   5.473
    4AU    AUSL 1076  41.208  14.851   6.821
    4AU    AUSL 1077  40.910  14.511   6.729
    4AU     AUL 1078  41.067  14.766   6.497
    4AU       S 1079  40.627  14.527   6.304
    4AU     LIG 1080  40.803  14.410   5.890
    4AU     LIG 1081  40.665  14.477   5.451
    4AU       S 1082  41.754  14.475   6.175
    4AU     LIG 1083  41.605  14.668   5.776
    4AU     LIG 1084  41.636  14.723   5.299
    4AU    AUSL 1085  40.619  14.644   8.162
    4AU    AUSL 1086  40.800  15.138   8.102
    4AU     AUL 1087  40.745  14.939   8.429
    4AU       S 1088  40.344  14.587   8.496
    4AU     LIG 1089  39.976  14.693   8.754
    4AU     LIG 1090  39.846  14.659   9.193
    4AU       S 1091  40.420  15.344   8.338
    4AU     LIG 1092  40.254  15.683   8.606
    4AU     LIG 1093  39.857  15.914   8.726
    4AU    AUSL 1094  40.915  14.477   8.267
    4AU    AUSL 1095  40.507  14.362   7.971
    4AU     AUL 1096  40.664  14.226   8.282
    4AU       S 1097  40.153  14.192   8.184
    4AU     LIG 1098  39.923  14.197   8.578
    4AU     LIG 1099  39.819  13.921   8.936
    4AU       S 1100  40.636  14.491   8.706
    4AU     LIG 1101  40.749  14.317   9.124
    4AU     LIG 1102  40.485  14.272   9.506
    4AU    AUSL 1103  40.588  14.625   6.859
    4AU    AUSL 1104  40.817  14.286   6.984
    4AU     AUL 1105  40.674  14.227   6.703
    4AU       S 1106  40.306  14.558   6.513
    4AU     LIG 1107  39.924  14.580   6.212
    4AU     LIG 1108  39.921  14.470   5.745
    4AU       S 1109  40.046  13.846   6.766
    4AU     LIG 1110  40.204  13.441   6.550
    4AU     LIG 1111  40.292  13.132   6.203
    4AU    AUSL 1112  40.871  14.854   6.836
    4AU    AUSL 1113  40.486  14.940   7.011
    4AU     AUL 1114  40.633  14.949   6.632
    4AU       S 1115  40.162  15.127   6.734
    4AU     LIG 1116  39.832  15.451   6.623
    4AU     LIG 1117  39.557  15.567   6.235
    4AU       S 1118  40.373  14.369   6.221
    4AU     LIG 1119  40.368  14.695   5.880
    4AU     LIG 1120  40.313  14.866   5.442
    4AU    AUSL 1121  41.674  15.144   7.474
    4AU    AUSL 1122  41.658  15.005   7.063
    4AU     AUL 1123  41.754  15.388   7.212
    4AU       S 1124  41.992  15.077   6.815
    4AU     LIG 1125  42.375  15.060   6.507
    4AU     LIG 1126  42.643  15.395   6.350
    4AU       S 1127  42.444  15.192   7.529
    4AU     LIG 1128  42.340  15.607   7.730
    4AU     LIG 1129  42.630  15.931   7.921
    4AU    AUSL 1130  41.841  14.864   7.323
    4AU    AUSL 1131  41.873  14.531   7.632
    4AU     AUL 1132  42.148  14.650   7.389
    4AU       S 1133  42.207  15.153   7.344
    4AU     LIG 1134  42.479  14.989   7.045
    4AU     LIG 1135  42.834  14.812   7.241
    4AU       S 1136  42.309  14.184   7.558
    4AU     LIG 1137  42.677  14.082   7.850
    4AU     LIG 1138  42.630  13.867   8.265
    4AU    AUSL 1139  41.835  14.886   7.682
    4AU    AUSL 1140  41.467  15.168   7.746
    4AU     AUL 1141  41.802  15.272   7.774
    4AU       S 1142  41.982  15.539   8.261
    4AU     LIG 1143  42.365  15.772   8.319
    4AU     LIG 1144  42.604  16.151   8.416
    4AU       S 1145  42.254  15.043   7.712
    4AU     LIG 1146  42.661  14.850   7.810
    4AU     LIG 1147  42.957  14.954   8.097
    4AU    AUSL 1148  40.433  15.128   7.531
    4AU    AUSL 1149  40.497  14.937   7.985
    4AU     AUL 1150  40.169  15.108   7.784
    4AU       S 1151  40.229  15.071   8.313
    4AU     LIG 1152  39.865  15.367   8.488
    4AU     LIG 1153  39.462  15.494   8.740
    4AU       S 1154  40.256  15.576   7.529
    4AU     LIG 1155  39.821  15.628   7.317
    4AU     LIG 1156  39.381  15.558   7.476
    4AU    AUSL 1157  40.354  14.819   7.307
    4AU    AUSL 1158  40.562  15.235   7.228
    4AU     AUL 1159  40.201  15.115   7.250
    4AU       S 1160  39.978  14.690   6.972
    4AU     LIG 1161  39.640  15.023   6.897
    4AU     LIG 1162  39.435  15.442   6.978
    4AU       S 1163  40.255  15.562   6.996
    4AU     LIG 1164  39.967  15.935   6.888
    4AU     LIG 1165  39.818  16.278   6.584
    4AU    AUSL 1166  40.344  14.798   7.708
    4AU    AUSL 1167  40.301  14.490   7.353
    4AU     AUL 1168  40.063  14.825   7.490
    4AU       S 1169  39.847  14.367   7.425
    4AU     LIG 1170  39.614  14.202   7.103
    4AU     LIG 1171  39.217  14.239   7.286
    4AU       S 1172  40.005  14.687   8.065
    4AU     LIG 1173  39.681  15.021   8.160
    4AU     LIG 1174  39.409  15.417   8.046
    4AU    AUSL 1175  41.740  14.220   7.464
    4AU    AUSL 1176  41.620  14.442   7.857
    4AU     AUL 1177  41.910  14.258   7.846
    4AU       S 1178  42.046  13.952   7.440
    4AU     LIG 1179  42.282  13.614   7.375
    4AU     LIG 1180  42.665  13.749   7.469
    4AU       S 1181  41.997  13.780   8.251
    4AU     LIG 1182  42.301  13.571   8.530
    4AU     LIG 1183  42.724  13.630   8.741
    4AU    AUSL 1184  41.830  14.513   7.279
    4AU    AUSL 1185  41.556  14.107   7.178
    4AU     AUL 1186  41.852  14.265   7.048
    4AU       S 1187  42.269  14.151   7.301
    4AU     LIG 1188  42.734  14.204   7.257
    4AU     LIG 1189  43.057  13.896   7.132
    4AU       S 1190  41.815  13.747   6.981
    4AU     LIG 1191  42.194  13.398   6.922
    4AU     LIG 1192  42.530  13.299   6.569
    4AU    AUSL 1193  40.554  14.248   7.499
    4AU    AUSL 1194  40.474  14.367   7.073
    4AU     AUL 1195  40.280  14.119   7.325
    4AU       S 1196  40.157  14.162   6.825
    4AU     LIG 1197  39.731  14.209   6.597
    4AU     LIG 1198  39.558  13.790   6.448
    4AU       S 1199  39.632  14.369   7.600
    4AU     LIG 1200  39.541  13.935   7.531
    4AU     LIG 1201  39.637  13.652   7.171
    4AU    AUSL 1202  40.335  14.459   7.696
    4AU    AUSL 1203  40.640  14.075   7.799
    4AU     AUL 1204  40.317  14.095   7.694
    4AU       S 1205  40.306  13.844   8.125
    4AU     LIG 1206  40.042  13.433   8.089
    4AU     LIG 1207  39.664  13.349   8.347
    4AU       S 1208  39.879  14.362   7.718
    4AU     LIG 1209  39.583  14.245   8.076
    4AU     LIG 1210  39.196  14.065   7.917
    4AU    AUSL 1211  41.101  15.326   7.982
    4AU    AUSL 1212  40.602  15.242   7.815
    4AU     AUL 1213  40.792  15.513   8.007
    4AU       S 1214  40.284  15.524   8.073
    4AU     LIG 1215  39.971  15.880   8.218
    4AU     LIG 1216  39.802  16.330   8.360
    4AU       S 1217  41.190  15.804   8.145
    4AU     LIG 1218  41.162  16.263   8.402
    4AU     LIG 1219  41.301  16.651   8.641
    4AU    AUSL 1220  40.893  15.376   7.677
    4AU    AUSL 1221  41.206  15.468   7.329
    4AU     AUL 1222  40.879  15.677   7.465
    4AU       S 1223  41.396  16.009   8.035
    4AU     LIG 1224  40.952  16.201   7.942
    4AU     LIG 1225  40.706  16.412   8.202
    4AU       S 1226  41.260  15.929   7.204
    4AU     LIG 1227  41.462  16.417   7.221
    4AU     LIG 1228  41.433  16.909   7.102
    4AU    AUSL 1229  41.250  15.437   7.670
    4AU    AUSL 1230  41.382  15.147   8.086
    4AU     AUL 1231  41.492  15.449   7.935
    4AU       S 1232  41.701  15.381   8.397
    4AU     LIG 1233  41.942  15.592   8.754
    4AU     LIG 1234  42.240  15.966   8.787
    4AU       S 1235  41.287  15.885   7.759
    4AU     LIG 1236  41.364  16.391   7.733
    4AU     LIG 1237  41.436  16.701   8.095
    4AU    AUSL 1238  41.132  14.083   7.971
    4AU    AUSL 1239  41.580  14.085   7.754
    4AU     AUL 1240  41.351  13.823   7.953
    4AU       S 1241  40.801  13.307   7.988
    4AU     LIG 1242  40.784  12.983   8.345
    4AU     LIG 1243  40.866  12.659   8.700
    4AU       S 1244  41.864  13.753   7.965
    4AU     LIG 1245  42.181  13.361   8.053
    4AU     LIG 1246  42.139  13.091   8.424
    4AU    AUSL 1247  40.921  13.912   7.684
    4AU    AUSL 1248  40.857  14.275   7.991
    4AU     AUL 1249  40.846  13.902   8.071
    4AU       S 1250  40.684  13.507   7.737
    4AU     LIG 1251  40.390  13.097   7.818
    4AU     LIG 1252  40.663  12.742   7.919
    4AU       S 1253  40.002  13.937   8.149
    4AU     LIG 1254  40.037  13.674   8.541
    4AU     LIG 1255  39.909  13.363   8.870
    4AU    AUSL 1256  41.261  14.015   7.653
    4AU    AUSL 1257  40.930  13.906   7.328
    4AU     AUL 1258  41.189  13.677   7.555
    4AU       S 1259  40.798  13.503   7.246
    4AU     LIG 1260  40.546  13.171   7.317
    4AU     LIG 1261  40.716  12.858   7.009
    4AU       S 1262  40.864  13.222   7.711
    4AU     LIG 1263  41.152  12.924   7.938
    4AU     LIG 1264  41.182  12.634   8.304
    4AU    AUSL 1265  41.071  15.333   7.019
    4AU    AUSL 1266  41.430  15.215   7.246
    4AU     AUL 1267  41.434  15.478   7.010
    4AU       S 1268  41.090  15.824   6.852
    4AU     LIG 1269  40.913  16.179   6.553
    4AU     LIG 1270  41.073  16.456   6.205
    4AU       S 1271  42.154  15.365   6.823
    4AU     LIG 1272  42.450  15.721   6.698
    4AU     LIG 1273  42.631  16.007   6.360
    4AU    AUSL 1274  40.881  15.322   7.337
    4AU    AUSL 1275  40.764  15.171   6.938
    4AU     AUL 1276  40.758  15.527   7.094
    4AU       S 1277  41.285  16.052   6.918
    4AU     LIG 1278  40.979  16.372   7.022
    4AU     LIG 1279  41.033  16.713   6.738
    4AU       S 1280  40.396  15.417   6.719
    4AU     LIG 1281  40.295  15.859   6.494
    4AU     LIG 1282  40.096  16.176   6.161
    4AU    AUSL 1283  41.093  14.113   7.074
    4AU    AUSL 1284  40.642  14.071   7.209
    4AU     AUL 1285  40.853  13.916   6.927
    4AU       S 1286  40.331  13.824   6.918
    4AU     LIG 1287  40.094  13.418   7.051
    4AU     LIG 1288  39.731  13.357   6.768
    4AU       S 1289  40.877  13.335   6.970
    4AU     LIG 1290  40.649  13.155   6.606
    4AU     LIG 1291  40.641  12.758   6.365
    4AU    AUSL 1292  41.288  13.957   7.323
    4AU    AUSL 1293  41.366  14.213   6.891
    4AU     AUL 1294  41.293  13.842   6.994
    4AU       S 1295  41.033  13.241   7.198
    4AU     LIG 1296  41.253  12.885   6.968
    4AU     LIG 1297  41.531  12.545   6.729
    4AU       S 1298  41.675  13.885   6.660
    4AU     LIG 1299  41.691  13.730   6.229
    4AU     LIG 1300  41.841  13.312   6.191
    5AU     AUC 1301   8.099  40.515   7.492
    5AU     AUC 1302   8.366  40.517   7.322
    5AU     AUC 1303   8.374  40.514   7.650
    5AU     AUC 1304   7.824  40.513   7.330
    5AU     AUC 1305   7.831  40.515   7.661
    5AU     AUC 1306   7.929  40.775   7.498
    5AU     AUC 1307   8.259  40.775   7.491
    5AU     AUC 1308   7.936  40.250   7.494
    5AU     AUC 1309   8.268  40.250   7.485
    5AU     AUC 1310   8.108  40.354   7.754
    5AU     AUC 1311   8.104  40.677   7.764
    5AU     AUC 1312   8.096  40.352   7.226
    5AU     AUC 1313   8.092  40.677   7.225
    5AU     AUC 1314   8.627  40.539   7.156
    5AU     AUC 1315   8.664  40.516   7.478
    5AU     AUC 1316   8.645  40.526   7.799
    5AU     AUC 1317   7.562  40.499   7.161
    5AU     AUC 1318   7.548  40.507   7.497
    5AU     AUC 1319   7.574  40.502   7.831
    5AU     AUC 1320   7.761  41.014   7.504
    5AU     AUC 1321   8.101  41.045   7.497
    5AU     AUC 1322   8.396  41.037   7.488
    5AU     AUC 1323   7.790  39.975   7.500
    5AU     AUC 1324   8.101  39.972   7.488
    5AU     AUC 1325   8.437  39.996   7.475
    5AU     AUC 1326   8.131  40.206   8.012
    5AU     AUC 1327   8.120  40.509   8.037
    5AU     AUC 1328   8.120  40.846   8.019
    5AU     AUC 1329   8.108  40.205   6.959
    5AU     AUC 1330   8.092  40.506   6.956
    5AU     AUC 1331   8.090  40.853   6.977
    5AU     AUC 1332   8.380  40.349   7.923
    5AU     AUC 1333   8.390  40.683   7.940
    5AU     AUC 1334   8.357  40.365   7.030
    5AU     AUC 1335   8.375  40.697   7.053
    5AU     AUC 1336   7.830  40.362   7.937
    5AU     AUC 1337   7.823  40.683   7.939
    5AU     AUC 1338   7.815  40.352   7.054
    5AU     AUC 1339   7.803  40.678   7.058
    5AU     AUC 1340   8.536  40.776   7.324
    5AU     AUC 1341   8.546  40.769   7.655
    5AU     AUC 1342   7.648  40.783   7.320
    5AU     AUC 1343   7.652  40.782   7.674
    5AU     AUC 1344   8.541  40.244   7.314
    5AU     AUC 1345   8.558  40.241   7.623
    5AU     AUC 1346   7.655  40.242   7.321
    5AU     AUC 1347   7.665  40.242   7.674
    5AU     AUC 1348   7.932  40.949   7.785
    5AU     AUC 1349   8.259  40.951   7.771
    5AU     AUC 1350   7.948  40.075   7.749
    5AU     AUC 1351   8.295  40.088   7.758
    5AU     AUC 1352   7.915  40.940   7.208
    5AU     AUC 1353   8.242  40.960   7.211
    5AU     AUC 1354   7.931  40.074   7.238
    5AU     AUC 1355   8.279  40.085   7.210
    5AU    AUSL 1356   8.566  40.482   8.120
    5AU    AUSL 1357   8.453  40.054   8.060
    5AU     AUL 1358   8.822  40.233   8.173
    5AU       S 1359   8.766  39.723   8.258
    5AU     LIG 1360   8.883  39.498   8.644
    5AU     LIG 1361   9.227  39.291   8.859
    5AU       S 1362   8.615  40.274   8.640
    5AU     LIG 1363   8.743  40.490   9.032
    5AU     LIG 1364   8.912  40.448   9.466
    5AU    AUSL 1365   8.274  40.317   8.236
    5AU    AUSL 1366   7.962  40.664   8.175
    5AU     AUL 1367   8.101  40.536   8.516
    5AU       S 1368   8.374  40.084   8.589
    5AU     LIG 1369   8.366  40.125   9.069
    5AU     LIG 1370   8.563  40.055   9.494
    5AU       S 1371   7.351  40.226   8.751
    5AU     LIG 1372   7.445  40.567   9.098
    5AU     LIG 1373   7.385  40.681   9.557
    5AU    AUSL 1374   8.296  40.710   8.245
    5AU    AUSL 1375   8.699  40.790   7.970
    5AU     AUL 1376   8.656  40.701   8.356
    5AU       S 1377   8.281  41.028   8.589
    5AU     LIG 1378   8.632  41.016   8.897
    5AU     LIG 1379   8.688  40.906   9.349
    5AU       S 1380   9.006  41.046   8.239
    5AU     LIG 1381   9.431  41.225   8.273
    5AU     LIG 1382   9.445  41.544   8.614
    5AU    AUSL 1383   8.566  40.570   6.822
    5AU    AUSL 1384   8.395  40.979   6.895
    5AU     AUL 1385   8.423  40.853   6.547
    5AU       S 1386   8.718  40.498   6.317
    5AU     LIG 1387   9.053  40.515   5.964
    5AU     LIG 1388   9.038  40.234   5.571
    5AU       S 1389   8.842  41.155   6.658
    5AU     LIG 1390   8.989  41.548   6.426
    5AU     LIG 1391   9.158  41.875   6.093
    5AU    AUSL 1392   8.293  40.338   6.724
    5AU    AUSL 1393   8.576  40.294   7.057
    5AU     AUL 1394   8.698  40.243   6.748
    5AU       S 1395   8.819  39.462   6.682
    5AU     LIG 1396   9.210  39.697   6.532
    5AU     LIG 1397   9.457  39.653   6.140
    5AU       S 1398   8.431  40.240   6.302
    5AU     LIG 1399   8.306  40.040   5.883
    5AU     LIG 1400   8.529  40.022   5.465
    5AU    AUSL 1401   8.236  40.684   6.810
    5AU    AUSL 1402   7.935  40.335   6.723
    5AU     AUL 1403   8.095  40.597   6.491
    5AU       S 1404   7.685  40.327   6.279
    5AU     LIG 1405   7.761  40.158   5.820
    5AU     LIG 1406   7.497  40.244   5.427
    5AU       S 1407   8.711  40.200   6.156
    5AU     LIG 1408   8.590  40.449   5.769
    5AU     LIG 1409   8.681  40.515   5.307
    5AU    AUSL 1410   7.634  40.494   8.150
    5AU    AUSL 1411   7.829  40.979   8.091
    5AU     AUL 1412   7.769  40.781   8.419
    5AU       S 1413   7.350  40.446   8.483
    5AU     LIG 1414   7.016  40.582   8.806
    5AU     LIG 1415   6.982  40.453   9.275
    5AU       S 1416   7.464  41.203   8.331
    5AU     LIG 1417   7.356  41.601   8.587
    5AU     LIG 1418   7.184  42.032   8.729
    5AU    AUSL 1419   7.927  40.319   8.257
    5AU    AUSL 1420   7.510  40.218   7.957
    5AU     AUL 1421   7.666  40.079   8.265
    5AU       S 1422   7.155  40.031   8.189
    5AU     LIG 1423   6.813  40.163   8.478
    5AU     LIG 1424   6.393  40.092   8.692
    5AU       S 1425   7.642  40.335   8.692
    5AU     LIG 1426   7.734  40.148   9.109
    5AU     LIG 1427   7.439  40.169   9.471
    5AU    AUSL 1428   7.613  40.454   6.845
    5AU    AUSL 1429   7.830  40.114   6.982
    5AU     AUL 1430   7.701  40.052   6.698
    5AU       S 1431   7.350  40.380   6.483
    5AU     LIG 1432   7.032  40.523   6.137
    5AU     LIG 1433   7.032  40.437   5.658
    5AU       S 1434   7.237  39.622   6.664
    5AU     LIG 1435   7.166  39.167   6.511
    5AU     LIG 1436   6.844  38.918   6.244
    5AU    AUSL 1437   7.900  40.679   6.833
    5AU    AUSL 1438   7.523  40.780   6.988
    5AU     AUL 1439   7.681  40.762   6.608
    5AU       S 1440   7.221  40.969   6.701
    5AU     LIG 1441   6.940  41.310   6.550
    5AU     LIG 1442   6.747  41.592   6.218
    5AU       S 1443   7.409  40.203   6.194
    5AU     LIG 1444   7.474  40.571   5.884
    5AU     LIG 1445   7.426  40.767   5.468
    5AU    AUSL 1446   8.710  40.962   7.465
    5AU    AUSL 1447   8.688  40.826   7.051
    5AU     AUL 1448   8.804  41.200   7.208
    5AU       S 1449   8.999  40.905   6.767
    5AU     LIG 1450   9.244  41.099   6.344
    5AU     LIG 1451   9.494  41.522   6.315
    5AU       S 1452   9.433  41.035   7.540
    5AU     LIG 1453   9.790  41.250   7.568
    5AU     LIG 1454  10.109  41.522   7.628
    5AU    AUSL 1455   8.872  40.682   7.309
    5AU    AUSL 1456   8.891  40.350   7.624
    5AU     AUL 1457   9.172  40.449   7.366
    5AU       S 1458   9.266  40.944   7.318
    5AU     LIG 1459   9.699  41.062   7.102
    5AU     LIG 1460  10.165  41.123   7.239
    5AU       S 1461   9.295  39.974   7.544
    5AU     LIG 1462   9.605  39.912   7.857
    5AU     LIG 1463  10.023  39.808   7.743
    5AU    AUSL 1464   8.863  40.705   7.673
    5AU    AUSL 1465   8.505  41.008   7.736
    5AU     AUL 1466   8.848  41.094   7.758
    5AU       S 1467   8.990  41.195   8.521
    5AU     LIG 1468   9.059  41.578   8.237
    5AU     LIG 1469   9.188  41.941   8.426
    5AU       S 1470   9.289  40.828   7.708
    5AU     LIG 1471   9.712  40.879   7.937
    5AU     LIG 1472  10.155  41.013   7.846
    5AU    AUSL 1473   7.465  40.983   7.513
    5AU    AUSL 1474   7.519  40.788   7.973
    5AU     AUL 1475   7.197  40.968   7.769
    5AU       S 1476   7.264  40.925   8.293
    5AU     LIG 1477   6.967  41.286   8.421
    5AU     LIG 1478   6.814  41.698   8.599
    5AU       S 1479   7.311  41.435   7.510
    5AU     LIG 1480   6.941  41.590   7.254
    5AU     LIG 1481   6.538  41.728   7.387
    5AU    AUSL 1482   7.384  40.681   7.288
    5AU    AUSL 1483   7.602  41.076   7.207
    5AU     AUL 1484   7.244  40.983   7.221
    5AU       S 1485   6.995  40.587   6.959
    5AU     LIG 1486   6.702  40.992   6.934
    5AU     LIG 1487   6.413  41.366   7.033
    5AU       S 1488   7.312  41.414   6.940
    5AU     LIG 1489   7.007  41.775   6.749
    5AU     LIG 1490   6.660  42.013   6.493
    5AU    AUSL 1491   7.368  40.657   7.692
    5AU    AUSL 1492   7.316  40.354   7.331
    5AU     AUL 1493   7.100  40.705   7.471
    5AU       S 1494   6.833  40.280   7.352
    5AU     LIG 1495   6.468  40.107   7.073
    5AU     LIG 1496   6.115  39.772   7.073
    5AU       S 1497   7.012  40.542   8.037
    5AU     LIG 1498   6.530  40.604   7.969
    5AU     LIG 1499   6.271  41.005   7.931
    5AU    AUSL 1500   8.746  40.043   7.463
    5AU    AUSL 1501   8.634  40.273   7.850
    5AU     AUL 1502   8.919  40.084   7.845
    5AU       S 1503   9.036  39.751   7.437
    5AU     LIG 1504   9.299  39.405   7.378
    5AU     LIG 1505   9.648  39.540   7.522
    5AU       S 1506   9.007  39.544   8.151
    5AU     LIG 1507   9.347  39.620   8.421
    5AU     LIG 1508   9.684  39.385   8.620
    5AU    AUSL 1509   8.842  40.331   7.275
    5AU    AUSL 1510   8.565  39.931   7.177
    5AU     AUL 1511   8.863  40.094   7.049
    5AU       S 1512   9.260  39.934   7.299
    5AU     LIG 1513   9.669  39.856   7.121
    5AU     LIG 1514  10.089  39.696   7.214
    5AU       S 1515   8.838  39.591   6.968
    5AU     LIG 1516   9.260  39.327   6.864
    5AU     LIG 1517   9.393  39.210   6.421
    5AU    AUSL 1518   7.551  40.093   7.492
    5AU    AUSL 1519   7.488  40.205   7.062
    5AU     AUL 1520   7.264  39.993   7.319
    5AU       S 1521   7.200  39.939   6.812
    5AU     LIG 1522   6.773  39.731   6.828
    5AU     LIG 1523   6.714  39.404   6.503
    5AU       S 1524   6.615  40.326   7.530
    5AU     LIG 1525   6.607  39.842   7.495
    5AU     LIG 1526   6.479  39.414   7.530
    5AU    AUSL 1527   7.342  40.320   7.676
    5AU    AUSL 1528   7.639  39.925   7.793
    5AU     AUL 1529   7.300  39.966   7.695
    5AU       S 1530   7.317  39.690   8.113
    5AU     LIG 1531   7.153  39.267   8.053
    5AU     LIG 1532   6.985  38.932   8.322
    5AU       S 1533   6.868  40.264   7.650
    5AU     LIG 1534   6.608  40.087   7.980
    5AU     LIG 1535   6.288  39.775   7.900
    5AU    AUSL 1536   8.136  41.162   7.972
    5AU    AUSL 1537   7.633  41.085   7.801
    5AU     AUL 1538   7.832  41.344   7.992
    5AU       S 1539   7.333  41.378   8.054
    5AU     LIG 1540   7.107  41.766   8.176
    5AU     LIG 1541   6.900  42.162   8.303
    5AU       S 1542   8.225  41.638   8.150
    5AU     LIG 1543   8.231  42.102   8.361
    5AU     LIG 1544   8.442  42.519   8.509
    5AU    AUSL 1545   7.929  41.206   7.664
    5AU    AUSL 1546   8.243  41.299   7.319
    5AU     AUL 1547   7.913  41.500   7.457
    5AU       S 1548   8.037  41.841   7.968
    5AU     LIG 1549   7.882  42.225   7.991
    5AU     LIG 1550   8.138  42.555   8.106
    5AU       S 1551   8.279  41.756   7.178
    5AU     LIG 1552   8.434  42.165   6.934
    5AU     LIG 1553   8.244  42.597   6.841
    5AU    AUSL 1554   8.283  41.272   7.661
    5AU    AUSL 1555   8.415  40.983   8.075
    5AU     AUL 1556   8.530  41.293   7.918
    5AU       S 1557   8.704  41.225   8.393
    5AU     LIG 1558   8.794  41.644   8.662
    5AU     LIG 1559   9.101  41.888   8.940
    5AU       S 1560   8.276  41.721   7.787
    5AU     LIG 1561   8.384  42.172   7.833
    5AU     LIG 1562   8.627  42.482   8.006
    5AU    AUSL 1563   8.139  39.934   7.961
    5AU    AUSL 1564   8.581  39.915   7.751
    5AU     AUL 1565   8.345  39.668   7.981
    5AU       S 1566   7.661  39.214   8.083
    5AU     LIG 1567   7.801  38.833   8.334
    5AU     LIG 1568   7.820  38.347   8.330
    5AU       S 1569   8.849  39.568   7.898
    5AU     LIG 1570   8.947  39.075   7.968
    5AU     LIG 1571   8.947  38.745   8.324
    5AU    AUSL 1572   7.920  39.755   7.686
    5AU    AUSL 1573   7.862  40.126   7.976
    5AU     AUL 1574   7.853  39.765   8.074
    5AU       S 1575   7.670  39.366   7.774
    5AU     LIG 1576   7.444  38.935   7.736
    5AU     LIG 1577   7.751  38.622   7.877
    5AU       S 1578   7.081  39.748   8.314
    5AU     LIG 1579   7.114  39.365   8.568
    5AU     LIG 1580   7.080  38.973   8.851
    5AU    AUSL 1581   8.267  39.824   7.654
    5AU    AUSL 1582   7.926  39.742   7.329
    5AU     AUL 1583   8.166  39.497   7.537
    5AU       S 1584   7.722  39.331   7.276
    5AU     LIG 1585   7.439  39.006   7.058
    5AU     LIG 1586   7.683  38.598   7.008
    5AU       S 1587   7.882  39.128   7.898
    5AU     LIG 1588   8.222  38.794   7.845
    5AU     LIG 1589   8.274  38.387   8.090
    5AU    AUSL 1590   8.110  41.167   7.007
    5AU    AUSL 1591   8.469  41.046   7.236
    5AU     AUL 1592   8.472  41.312   7.007
    5AU       S 1593   8.136  41.669   6.836
    5AU     LIG 1594   7.993  42.132   6.622
    5AU     LIG 1595   7.983  42.569   6.390
    5AU       S 1596   9.191  41.146   6.824
    5AU     LIG 1597   9.362  41.565   6.825
    5AU     LIG 1598   9.271  41.947   6.592
    5AU    AUSL 1599   7.919  41.153   7.324
    5AU    AUSL 1600   7.806  41.004   6.919
    5AU     AUL 1601   7.804  41.361   7.078
    5AU       S 1602   8.032  41.891   7.063
    5AU     LIG 1603   7.940  42.298   7.121
    5AU     LIG 1604   7.732  42.550   6.849
    5AU       S 1605   7.463  41.237   6.689
    5AU     LIG 1606   7.383  41.606   6.440
    5AU     LIG 1607   7.141  41.941   6.262
    5AU    AUSL 1608   8.103  39.932   7.061
    5AU    AUSL 1609   7.642  39.909   7.210
    5AU     AUL 1610   7.851  39.731   6.938
    5AU       S 1611   7.332  39.631   6.962
    5AU     LIG 1612   6.976  39.280   6.983
    5AU     LIG 1613   6.734  38.935   6.742
    5AU       S 1614   7.926  39.089   7.161
    5AU     LIG 1615   7.835  38.980   6.716
    5AU     LIG 1616   7.833  38.642   6.395
    5AU    AUSL 1617   8.289  39.789   7.320
    5AU    AUSL 1618   8.381  40.038   6.888
    5AU     AUL 1619   8.315  39.663   6.992
    5AU       S 1620   7.815  39.000   7.406
    5AU     LIG 1621   8.083  38.612   7.342
    5AU     LIG 1622   8.162  38.368   6.945
    5AU       S 1623   8.675  39.735   6.628
    5AU     LIG 1624   8.865  39.575   6.183
    5AU     LIG 1625   9.166  39.268   5.947
    6AU     AUC 1626  20.765  44.626   7.503
    6AU     AUC 1627  21.033  44.633   7.337
    6AU     AUC 1628  21.036  44.636   7.665
    6AU     AUC 1629  20.494  44.614   7.338
    6AU     AUC 1630  20.495  44.621   7.669
    6AU     AUC 1631  20.587  44.881   7.499
    6AU     AUC 1632  20.917  44.892   7.500
    6AU     AUC 1633  20.612  44.357   7.509
    6AU     AUC 1634  20.941  44.365   7.505
    6AU     AUC 1635  20.773  44.469   7.770
    6AU     AUC 1636  20.760  44.792   7.771
    6AU     AUC 1637  20.771  44.460   7.240
    6AU     AUC 1638  20.757  44.786   7.233
    6AU     AUC 1639  21.292  44.659   7.175
    6AU     AUC 1640  21.326  44.644   7.498
    6AU     AUC 1641  21.305  44.659   7.817
    6AU     AUC 1642  20.237  44.588   7.165
    6AU     AUC 1643  20.216  44.599   7.501
    6AU     AUC 1644  20.234  44.605   7.834
    6AU     AUC 1645  20.411   0.114   7.493
    6AU     AUC 1646  20.752   0.156   7.494
    6AU     AUC 1647  21.047   0.158   7.496
    6AU     AUC 1648  20.476  44.076   7.517
    6AU     AUC 1649  20.784  44.081   7.511
    6AU     AUC 1650  21.119  44.114   7.503
    6AU     AUC 1651  20.795  44.327   8.031
    6AU     AUC 1652  20.773  44.633   8.049
    6AU     AUC 1653  20.767  44.967   8.024
    6AU     AUC 1654  20.790  44.311   6.975
    6AU     AUC 1655  20.768  44.610   6.966
    6AU     AUC 1656  20.754  44.958   6.982
    6AU     AUC 1657  21.040  44.477   7.940
    6AU     AUC 1658  21.043  44.810   7.952
    6AU     AUC 1659  21.033  44.477   7.048
    6AU     AUC 1660  21.041  44.811   7.065
    6AU     AUC 1661  20.493  44.472   7.949
    6AU     AUC 1662  20.475  44.797   7.940
    6AU     AUC 1663  20.495  44.449   7.063
    6AU     AUC 1664  20.472  44.775   7.062
    6AU     AUC 1665  21.195  44.899   7.337
    6AU     AUC 1666  21.201  44.896   7.669
    6AU     AUC 1667  20.309  44.876   7.317
    6AU     AUC 1668  20.306  44.883   7.669
    6AU     AUC 1669  21.212  44.362   7.337
    6AU     AUC 1670  21.230  44.367   7.645
    6AU     AUC 1671  20.336  44.339   7.332
    6AU     AUC 1672  20.341  44.343   7.689
    6AU     AUC 1673  20.579   0.056   7.782
    6AU     AUC 1674  20.909   0.071   7.777
    6AU     AUC 1675  20.624  44.184   7.770
    6AU     AUC 1676  20.970  44.208   7.781
    6AU     AUC 1677  20.572   0.046   7.208
    6AU     AUC 1678  20.899   0.073   7.217
    6AU     AUC 1679  20.613  44.181   7.255
    6AU     AUC 1680  20.960  44.198   7.233
    6AU    AUSL 1681  21.216  44.616   8.137
    6AU    AUSL 1682  21.122  44.195   8.088
    6AU     AUL 1683  21.490  44.400   8.191
    6AU       S 1684  21.398  43.914   8.354
    6AU     LIG 1685  21.481  43.528   8.641
    6AU     LIG 1686  21.567  43.089   8.794
    6AU       S 1687  21.269  44.401   8.653
    6AU     LIG 1688  21.420  44.568   9.071
    6AU     LIG 1689  21.645  44.583   9.490
    6AU    AUSL 1690  20.925  44.449   8.256
    6AU    AUSL 1691  20.609  44.794   8.181
    6AU     AUL 1692  20.743  44.673   8.529
    6AU       S 1693  21.019  44.221   8.609
    6AU     LIG 1694  21.089  44.163   9.076
    6AU     LIG 1695  21.397  44.124   9.429
    6AU       S 1696  19.955  44.404   8.744
    6AU     LIG 1697  20.029  44.723   9.102
    6AU     LIG 1698  19.928  44.872   9.539
    6AU    AUSL 1699  20.944  44.840   8.257
    6AU    AUSL 1700  21.352  44.921   7.987
    6AU     AUL 1701  21.309  44.835   8.371
    6AU       S 1702  20.932   0.169   8.590
    6AU     LIG 1703  21.286   0.127   8.905
    6AU     LIG 1704  21.382   0.014   9.348
    6AU       S 1705  21.670   0.183   8.261
    6AU     LIG 1706  22.141   0.292   8.375
    6AU     LIG 1707  22.426   0.583   8.643
    6AU    AUSL 1708  21.240  44.684   6.842
    6AU    AUSL 1709  21.055   0.092   6.903
    6AU     AUL 1710  21.084  44.961   6.555
    6AU       S 1711  21.423  44.624   6.369
    6AU     LIG 1712  21.731  44.736   6.040
    6AU     LIG 1713  21.752  44.504   5.632
    6AU       S 1714  21.489   0.274   6.667
    6AU     LIG 1715  21.651   0.693   6.538
    6AU     LIG 1716  21.825   1.009   6.239
    6AU    AUSL 1717  20.980  44.444   6.741
    6AU    AUSL 1718  21.251  44.406   7.077
    6AU     AUL 1719  21.396  44.360   6.792
    6AU       S 1720  21.448  43.596   6.625
    6AU     LIG 1721  21.876  43.764   6.515
    6AU     LIG 1722  22.172  43.832   6.174
    6AU       S 1723  21.157  44.344   6.333
    6AU     LIG 1724  21.125  44.095   5.926
    6AU     LIG 1725  21.335  44.168   5.509
    6AU    AUSL 1726  20.908  44.790   6.816
    6AU    AUSL 1727  20.618  44.433   6.731
    6AU     AUL 1728  20.778  44.680   6.493
    6AU       S 1729  20.318  44.442   6.304
    6AU     LIG 1730  20.461  44.243   5.915
    6AU     LIG 1731  20.258  44.219   5.503
    6AU       S 1732  21.464  44.333   6.215
    6AU     LIG 1733  21.280  44.576   5.855
    6AU     LIG 1734  21.313  44.688   5.403
    6AU    AUSL 1735  20.285  44.613   8.151
    6AU    AUSL 1736  20.467   0.103   8.077
    6AU     AUL 1737  20.405  44.920   8.411
    6AU       S 1738  19.990  44.584   8.464
    6AU     LIG 1739  19.678  44.826   8.741
    6AU     LIG 1740  19.530  44.789   9.208
    6AU       S 1741  20.094   0.331   8.285
    6AU     LIG 1742  19.991   0.466   8.698
    6AU     LIG 1743  19.662   0.708   8.881
    6AU    AUSL 1744  20.579  44.450   8.270
    6AU    AUSL 1745  20.183  44.320   7.969
    6AU     AUL 1746  20.324  44.204   8.294
    6AU       S 1747  19.815  44.146   8.189
    6AU     LIG 1748  19.389  44.121   8.440
    6AU     LIG 1749  19.122  43.778   8.627
    6AU       S 1750  20.264  44.491   8.698
    6AU     LIG 1751  20.298  44.293   9.126
    6AU     LIG 1752  20.041  44.354   9.515
    6AU    AUSL 1753  20.294  44.544   6.852
    6AU    AUSL 1754  20.514  44.212   6.987
    6AU     AUL 1755  20.391  44.143   6.698
    6AU       S 1756  20.016  44.481   6.536
    6AU     LIG 1757  19.681  44.701   6.338
    6AU     LIG 1758  19.608  44.550   5.933
    6AU       S 1759  19.712  43.794   6.904
    6AU     LIG 1760  19.838  43.632   6.485
    6AU     LIG 1761  19.714  43.422   6.080
    6AU    AUSL 1762  20.573  44.773   6.841
    6AU    AUSL 1763  20.189  44.864   6.985
    6AU     AUL 1764  20.364  44.863   6.614
    6AU       S 1765  19.876   0.017   6.685
    6AU     LIG 1766  19.475   0.204   6.492
    6AU     LIG 1767  19.333   0.607   6.261
    6AU       S 1768  20.019  44.335   6.229
    6AU     LIG 1769  20.110  44.615   5.857
    6AU     LIG 1770  20.113  44.706   5.400
    6AU    AUSL 1771  21.364   0.093   7.479
    6AU    AUSL 1772  21.350  44.946   7.064
    6AU     AUL 1773  21.464   0.319   7.216
    6AU       S 1774  21.655   0.027   6.774
    6AU     LIG 1775  21.878   0.199   6.346
    6AU     LIG 1776  22.135   0.610   6.391
    6AU       S 1777  22.201   0.003   7.532
    6AU     LIG 1778  22.397   0.396   7.575
    6AU     LIG 1779  22.552   0.698   7.265
    6AU    AUSL 1780  21.529  44.813   7.330
    6AU    AUSL 1781  21.565  44.493   7.644
    6AU     AUL 1782  21.826  44.595   7.324
    6AU       S 1783  21.931   0.090   7.387
    6AU     LIG 1784  22.277   0.278   7.092
    6AU     LIG 1785  22.748   0.308   7.002
    6AU       S 1786  21.993  44.196   7.607
    6AU     LIG 1787  22.242  44.188   7.978
    6AU     LIG 1788  22.498  44.287   8.314
    6AU    AUSL 1789  21.518  44.840   7.692
    6AU    AUSL 1790  21.156   0.135   7.745
    6AU     AUL 1791  21.503   0.223   7.776
    6AU       S 1792  21.686   0.515   8.269
    6AU     LIG 1793  22.093   0.799   8.268
    6AU     LIG 1794  22.461   1.061   8.436
    6AU       S 1795  21.944  44.933   7.734
    6AU     LIG 1796  22.343  44.916   8.004
    6AU     LIG 1797  22.756   0.071   7.900
    6AU    AUSL 1798  20.115   0.070   7.497
    6AU    AUSL 1799  20.167  44.896   7.960
    6AU     AUL 1800  19.846   0.059   7.743
    6AU       S 1801  19.895   0.053   8.270
    6AU     LIG 1802  19.542   0.273   8.521
    6AU     LIG 1803  19.429   0.233   8.961
    6AU       S 1804  19.938   0.518   7.471
    6AU     LIG 1805  19.522   0.553   7.236
    6AU     LIG 1806  19.183   0.827   7.121
    6AU    AUSL 1807  20.049  44.757   7.282
    6AU    AUSL 1808  20.253   0.163   7.194
    6AU     AUL 1809  19.893   0.045   7.207
    6AU       S 1810  19.687  44.612   6.935
    6AU     LIG 1811  19.340  44.939   6.924
    6AU     LIG 1812  19.090   0.346   6.940
    6AU       S 1813  19.942   0.461   6.915
    6AU     LIG 1814  19.538   0.678   6.731
    6AU     LIG 1815  19.463   1.093   6.487
    6AU    AUSL 1816  20.023  44.748   7.684
    6AU    AUSL 1817  19.993  44.430   7.340
    6AU     AUL 1818  19.753  44.774   7.454
    6AU       S 1819  19.539  44.323   7.342
    6AU     LIG 1820  19.303  44.117   7.007
    6AU     LIG 1821  18.923  43.844   7.098
    6AU       S 1822  19.659  44.651   8.017
    6AU     LIG 1823  19.261  44.881   7.835
    6AU     LIG 1824  18.790  44.969   7.863
    6AU    AUSL 1825  21.423  44.167   7.496
    6AU    AUSL 1826  21.298  44.412   7.867
    6AU     AUL 1827  21.581  44.235   7.875
    6AU       S 1828  21.765  43.898   7.520
    6AU     LIG 1829  22.131  43.730   7.795
    6AU     LIG 1830  22.582  43.557   7.640
    6AU       S 1831  21.691  43.825   8.286
    6AU     LIG 1832  22.126  43.773   8.333
    6AU     LIG 1833  22.383  43.601   8.683
    6AU    AUSL 1834  21.501  44.458   7.306
    6AU    AUSL 1835  21.250  44.050   7.199
    6AU     AUL 1836  21.557  44.211   7.097
    6AU       S 1837  21.938  44.081   7.388
    6AU     LIG 1838  22.147  43.948   7.005
    6AU     LIG 1839  22.551  44.177   6.955
    6AU       S 1840  21.493  43.747   6.903
    6AU     LIG 1841  21.843  43.455   6.909
    6AU     LIG 1842  21.975  43.242   6.493
    6AU    AUSL 1843  20.244  44.192   7.507
    6AU    AUSL 1844  20.173  44.296   7.072
    6AU     AUL 1845  19.976  44.060   7.337
    6AU       S 1846  19.874  44.074   6.831
    6AU     LIG 1847  19.527  44.053   6.512
    6AU     LIG 1848  19.325  43.625   6.379
    6AU       S 1849  19.331  44.334   7.490
    6AU     LIG 1850  19.334  43.864   7.462
    6AU     LIG 1851  19.076  43.488   7.455
    6AU    AUSL 1852  20.015  44.408   7.685
    6AU    AUSL 1853  20.324  44.025   7.811
    6AU     AUL 1854  19.996  44.051   7.705
    6AU       S 1855  19.992  43.796   8.135
    6AU     LIG 1856  19.782  43.364   8.051
    6AU     LIG 1857  19.389  43.182   8.256
    6AU       S 1858  19.552  44.321   7.657
    6AU     LIG 1859  19.254  44.117   7.939
    6AU     LIG 1860  18.937  43.868   7.781
    6AU    AUSL 1861  20.774   0.276   7.978
    6AU    AUSL 1862  20.275   0.193   7.780
    6AU     AUL 1863  20.466   0.476   7.943
    6AU       S 1864  19.961   0.489   8.006
    6AU     LIG 1865  19.720   0.713   8.338
    6AU     LIG 1866  19.503   1.070   8.528
    6AU       S 1867  20.830   0.660   8.249
    6AU     LIG 1868  20.556   1.037   8.520
    6AU     LIG 1869  20.515   1.530   8.536
    6AU    AUSL 1870  20.584   0.293   7.657
    6AU    AUSL 1871  20.889   0.411   7.323
    6AU     AUL 1872  20.582   0.614   7.490
    6AU       S 1873  20.847   0.926   8.141
    6AU     LIG 1874  20.566   1.239   8.053
    6AU     LIG 1875  20.493   1.661   8.047
    6AU       S 1876  20.868   0.870   7.135
    6AU     LIG 1877  21.013   1.323   7.007
    6AU     LIG 1878  21.172   1.765   6.885
    6AU    AUSL 1879  20.926   0.393   7.669
    6AU    AUSL 1880  21.062   0.110   8.081
    6AU     AUL 1881  21.170   0.419   7.926
    6AU       S 1882  21.378   0.352   8.390
    6AU     LIG 1883  21.626   0.534   8.759
    6AU     LIG 1884  21.986   0.852   8.770
    6AU       S 1885  20.902   0.838   7.862
    6AU     LIG 1886  21.209   1.204   7.976
    6AU     LIG 1887  20.985   1.541   8.213
    6AU    AUSL 1888  20.818  44.051   7.981
    6AU    AUSL 1889  21.260  44.047   7.789
    6AU     AUL 1890  21.040  43.795   8.014
    6AU       S 1891  20.482  43.257   8.000
    6AU     LIG 1892  20.521  42.857   8.271
    6AU     LIG 1893  20.619  42.621   8.680
    6AU       S 1894  21.557  43.747   8.019
    6AU     LIG 1895  21.819  43.363   8.125
    6AU     LIG 1896  21.593  42.998   8.279
    6AU    AUSL 1897  20.608  43.859   7.704
    6AU    AUSL 1898  20.532  44.227   8.009
    6AU     AUL 1899  20.535  43.859   8.089
    6AU       S 1900  20.364  43.445   7.779
    6AU     LIG 1901  20.111  42.977   7.847
    6AU     LIG 1902  20.424  42.618   7.828
    6AU       S 1903  19.681  43.869   8.124
    6AU     LIG 1904  19.589  43.610   8.475
    6AU     LIG 1905  19.381  43.292   8.760
    6AU    AUSL 1906  20.957  43.931   7.682
    6AU    AUSL 1907  20.615  43.847   7.347
    6AU     AUL 1908  20.854  43.604   7.549
    6AU       S 1909  20.387  43.454   7.284
    6AU     LIG 1910  20.064  43.084   7.343
    6AU     LIG 1911  20.097  42.763   6.994
    6AU       S 1912  20.542  43.150   7.706
    6AU     LIG 1913  20.901  42.986   7.955
    6AU     LIG 1914  21.039  42.739   8.334
    6AU    AUSL 1915  20.763   0.273   7.008
    6AU    AUSL 1916  21.125   0.165   7.245
    6AU     AUL 1917  21.123   0.432   7.021
    6AU       S 1918  20.774   0.750   6.804
    6AU     LIG 1919  20.761   1.217   6.570
    6AU     LIG 1920  20.907   1.678   6.434
    6AU       S 1921  21.836   0.288   6.819
    6AU     LIG 1922  21.980   0.706   6.944
    6AU     LIG 1923  21.944   1.131   6.744
    6AU    AUSL 1924  20.558   0.277   7.316
    6AU    AUSL 1925  20.466   0.097   6.915
    6AU     AUL 1926  20.438   0.453   7.055
    6AU       S 1927  20.591   0.971   6.978
    6AU     LIG 1928  20.316   1.298   6.843
    6AU     LIG 1929  20.621   1.636   6.852
    6AU       S 1930  20.096   0.311   6.670
    6AU     LIG 1931  19.857   0.531   6.326
    6AU     LIG 1932  19.857   0.646   5.857
    6AU    AUSL 1933  20.789  44.045   7.091
    6AU    AUSL 1934  20.335  44.009   7.220
    6AU     AUL 1935  20.556  43.836   6.951
    6AU       S 1936  20.033  43.743   6.947
    6AU     LIG 1937  19.826  43.293   6.901
    6AU     LIG 1938  19.586  43.174   6.519
    6AU       S 1939  20.342  43.298   6.997
    6AU     LIG 1940  20.485  42.958   6.723
    6AU     LIG 1941  20.705  42.564   6.661
    6AU    AUSL 1942  20.979  43.905   7.348
    6AU    AUSL 1943  21.059  44.147   6.908
    6AU     AUL 1944  20.997  43.772   7.027
    6AU       S 1945  20.542  43.173   7.191
    6AU     LIG 1946  20.895  42.893   7.033
    6AU     LIG 1947  21.225  42.674   6.769
    6AU       S 1948  21.294  43.885   6.605
    6AU     LIG 1949  21.509  43.795   6.164
    6AU     LIG 1950  21.842  43.451   6.027
    7AU     AUC 1951  38.456   7.140   7.495
    7AU     AUC 1952  38.722   7.152   7.320
    7AU     AUC 1953  38.735   7.143   7.649
    7AU     AUC 1954  38.178   7.136   7.339
    7AU     AUC 1955  38.191   7.131   7.669
    7AU     AUC 1956  38.280   7.396   7.506
    7AU     AUC 1957  38.611   7.403   7.495
    7AU     AUC 1958  38.299   6.873   7.496
    7AU     AUC 1959  38.634   6.883   7.481
    7AU     AUC 1960  38.473   6.975   7.755
    7AU     AUC 1961  38.463   7.297   7.768
    7AU     AUC 1962  38.453   6.984   7.226
    7AU     AUC 1963  38.440   7.307   7.230
    7AU     AUC 1964  38.979   7.185   7.151
    7AU     AUC 1965  39.022   7.157   7.474
    7AU     AUC 1966  39.008   7.158   7.797
    7AU     AUC 1967  37.911   7.117   7.176
    7AU     AUC 1968  37.904   7.120   7.513
    7AU     AUC 1969  37.937   7.109   7.844
    7AU     AUC 1970  38.107   7.633   7.515
    7AU     AUC 1971  38.447   7.669   7.505
    7AU     AUC 1972  38.742   7.666   7.493
    7AU     AUC 1973  38.162   6.594   7.500
    7AU     AUC 1974  38.473   6.604   7.480
    7AU     AUC 1975  38.813   6.636   7.463
    7AU     AUC 1976  38.501   6.822   8.010
    7AU     AUC 1977  38.486   7.124   8.039
    7AU     AUC 1978  38.479   7.462   8.026
    7AU     AUC 1979  38.461   6.844   6.956
    7AU     AUC 1980  38.437   7.140   6.958
    7AU     AUC 1981  38.428   7.485   6.983
    7AU     AUC 1982  38.749   6.973   7.920
    7AU     AUC 1983  38.750   7.305   7.943
    7AU     AUC 1984  38.712   7.005   7.025
    7AU     AUC 1985  38.721   7.334   7.053
    7AU     AUC 1986  38.197   6.970   7.942
    7AU     AUC 1987  38.185   7.294   7.945
    7AU     AUC 1988  38.167   6.979   7.061
    7AU     AUC 1989  38.147   7.303   7.067
    7AU     AUC 1990  38.887   7.415   7.324
    7AU     AUC 1991  38.901   7.400   7.656
    7AU     AUC 1992  37.995   7.400   7.332
    7AU     AUC 1993  38.007   7.396   7.687
    7AU     AUC 1994  38.904   6.886   7.306
    7AU     AUC 1995  38.928   6.876   7.616
    7AU     AUC 1996  38.015   6.862   7.332
    7AU     AUC 1997  38.031   6.852   7.683
    7AU     AUC 1998  38.284   7.566   7.793
    7AU     AUC 1999  38.610   7.573   7.777
    7AU     AUC 2000  38.320   6.692   7.747
    7AU     AUC 2001  38.669   6.718   7.752
    7AU     AUC 2002  38.258   7.566   7.218
    7AU     AUC 2003  38.585   7.591   7.216
    7AU     AUC 2004  38.293   6.706   7.237
    7AU     AUC 2005  38.644   6.727   7.203
    7AU    AUSL 2006  38.935   7.103   8.119
    7AU    AUSL 2007  38.824   6.678   8.052
    7AU     AUL 2008  39.196   6.852   8.159
    7AU       S 2009  39.069   6.369   8.306
    7AU     LIG 2010  39.129   6.144   8.717
    7AU     LIG 2011  39.346   5.732   8.793
    7AU       S 2012  38.995   6.891   8.630
    7AU     LIG 2013  39.083   7.139   9.023
    7AU     LIG 2014  39.196   7.052   9.470
    7AU    AUSL 2015  38.643   6.932   8.235
    7AU    AUSL 2016  38.330   7.272   8.172
    7AU     AUL 2017  38.460   7.133   8.522
    7AU       S 2018  38.759   6.696   8.588
    7AU     LIG 2019  38.828   6.686   9.080
    7AU     LIG 2020  38.886   6.633   9.561
    7AU       S 2021  37.721   7.205   8.755
    7AU     LIG 2022  37.670   7.244   9.205
    7AU     LIG 2023  37.712   7.232   9.677
    7AU    AUSL 2024  38.661   7.322   8.253
    7AU    AUSL 2025  39.056   7.420   7.974
    7AU     AUL 2026  39.029   7.321   8.354
    7AU       S 2027  38.634   7.623   8.606
    7AU     LIG 2028  38.963   7.667   8.926
    7AU     LIG 2029  39.065   7.549   9.367
    7AU       S 2030  39.335   7.715   8.265
    7AU     LIG 2031  39.768   7.870   8.382
    7AU     LIG 2032  39.855   8.209   8.689
    7AU    AUSL 2033  38.910   7.219   6.816
    7AU    AUSL 2034  38.729   7.613   6.896
    7AU     AUL 2035  38.722   7.493   6.543
    7AU       S 2036  39.117   7.220   6.364
    7AU     LIG 2037  39.403   7.278   5.961
    7AU     LIG 2038  39.369   7.121   5.511
    7AU       S 2039  39.134   7.805   6.624
    7AU     LIG 2040  39.245   8.193   6.359
    7AU     LIG 2041  39.501   8.562   6.186
    7AU    AUSL 2042  38.639   6.979   6.716
    7AU    AUSL 2043  38.937   6.941   7.045
    7AU     AUL 2044  39.038   6.880   6.730
    7AU       S 2045  39.173   6.066   6.722
    7AU     LIG 2046  39.554   6.101   6.464
    7AU     LIG 2047  39.880   5.870   6.194
    7AU       S 2048  38.807   6.936   6.282
    7AU     LIG 2049  38.949   6.617   5.939
    7AU     LIG 2050  39.138   6.648   5.504
    7AU    AUSL 2051  38.572   7.316   6.815
    7AU    AUSL 2052  38.280   6.974   6.728
    7AU     AUL 2053  38.420   7.226   6.490
    7AU       S 2054  37.957   6.980   6.297
    7AU     LIG 2055  38.140   6.828   5.891
    7AU     LIG 2056  37.983   6.771   5.449
    7AU       S 2057  38.970   7.102   6.111
    7AU     LIG 2058  38.863   7.060   5.676
    7AU     LIG 2059  38.918   7.028   5.214
    7AU    AUSL 2060  38.000   7.097   8.155
    7AU    AUSL 2061  38.190   7.589   8.102
    7AU     AUL 2062  38.153   7.371   8.423
    7AU       S 2063  37.697   7.050   8.463
    7AU     LIG 2064  37.363   6.856   8.746
    7AU     LIG 2065  37.282   6.903   9.213
    7AU       S 2066  37.859   7.786   8.370
    7AU     LIG 2067  37.940   8.022   8.812
    7AU     LIG 2068  37.531   8.394   8.878
    7AU    AUSL 2069  38.296   6.931   8.259
    7AU    AUSL 2070  37.885   6.811   7.972
    7AU     AUL 2071  38.046   6.689   8.287
    7AU       S 2072  37.544   6.555   8.215
    7AU     LIG 2073  37.169   6.340   8.482
    7AU     LIG 2074  36.965   6.050   8.804
    7AU       S 2075  37.952   6.970   8.693
    7AU     LIG 2076  37.758   6.740   9.045
    7AU     LIG 2077  37.701   6.738   9.500
    7AU    AUSL 2078  37.960   7.073   6.858
    7AU    AUSL 2079  38.177   6.745   6.980
    7AU     AUL 2080  38.089   6.680   6.677
    7AU       S 2081  37.674   6.979   6.536
    7AU     LIG 2082  37.466   7.262   6.244
    7AU     LIG 2083  37.375   7.471   5.835
    7AU       S 2084  37.664   6.193   6.745
    7AU     LIG 2085  37.798   5.786   6.552
    7AU     LIG 2086  37.526   5.623   6.191
    7AU    AUSL 2087  38.236   7.313   6.835
    7AU    AUSL 2088  37.862   7.398   7.004
    7AU     AUL 2089  37.999   7.391   6.625
    7AU       S 2090  37.536   7.598   6.713
    7AU     LIG 2091  37.322   7.754   6.295
    7AU     LIG 2092  37.000   7.823   5.932
    7AU       S 2093  37.680   6.809   6.231
    7AU     LIG 2094  37.688   7.053   5.819
    7AU     LIG 2095  37.774   7.250   5.395
    7AU    AUSL 2096  39.057   7.610   7.469
    7AU    AUSL 2097  39.034   7.471   7.043
    7AU     AUL 2098  39.151   7.837   7.198
    7AU       S 2099  39.325   7.581   6.748
    7AU     LIG 2100  39.512   7.686   6.300
    7AU     LIG 2101  39.743   8.098   6.210
    7AU       S 2102  39.894   7.553   7.483
    7AU     LIG 2103  39.992   8.016   7.480
    7AU     LIG 2104  40.385   8.260   7.397
    7AU    AUSL 2105  39.220   7.336   7.306
    7AU    AUSL 2106  39.259   6.995   7.615
    7AU     AUL 2107  39.525   7.116   7.342
    7AU       S 2108  39.609   7.617   7.357
    7AU     LIG 2109  39.900   7.777   7.030
    7AU     LIG 2110  40.349   7.798   7.162
    7AU       S 2111  39.695   6.660   7.532
    7AU     LIG 2112  40.120   6.459   7.638
    7AU     LIG 2113  40.592   6.500   7.729
    7AU    AUSL 2114  39.218   7.347   7.671
    7AU    AUSL 2115  38.853   7.629   7.743
    7AU     AUL 2116  39.199   7.727   7.770
    7AU       S 2117  39.303   7.827   8.569
    7AU     LIG 2118  39.420   8.247   8.383
    7AU     LIG 2119  39.676   8.651   8.453
    7AU       S 2120  39.649   7.483   7.706
    7AU     LIG 2121  39.997   7.741   7.926
    7AU     LIG 2122  40.414   7.849   7.726
    7AU    AUSL 2123  37.814   7.593   7.527
    7AU    AUSL 2124  37.885   7.395   7.988
    7AU     AUL 2125  37.570   7.582   7.793
    7AU       S 2126  37.638   7.533   8.332
    7AU     LIG 2127  37.328   7.541   8.712
    7AU     LIG 2128  37.081   7.876   8.954
    7AU       S 2129  37.620   8.029   7.520
    7AU     LIG 2130  37.119   8.065   7.529
    7AU     LIG 2131  36.780   8.418   7.574
    7AU    AUSL 2132  37.730   7.290   7.305
    7AU    AUSL 2133  37.942   7.696   7.222
    7AU     AUL 2134  37.586   7.586   7.239
    7AU       S 2135  37.326   7.208   6.984
    7AU     LIG 2136  37.001   7.622   7.062
    7AU     LIG 2137  36.524   7.636   6.966
    7AU       S 2138  37.638   8.030   6.979
    7AU     LIG 2139  37.448   8.404   6.736
    7AU     LIG 2140  37.191   8.729   6.508
    7AU    AUSL 2141  37.724   7.268   7.710
    7AU    AUSL 2142  37.671   6.963   7.361
    7AU     AUL 2143  37.445   7.294   7.492
    7AU       S 2144  37.195   6.839   7.523
    7AU     LIG 2145  36.914   6.771   7.217
    7AU     LIG 2146  36.461   6.797   7.113
    7AU       S 2147  37.367   7.196   8.075
    7AU     LIG 2148  37.097   7.621   8.112
    7AU     LIG 2149  36.752   7.838   7.844
    7AU    AUSL 2150  39.120   6.686   7.448
    7AU    AUSL 2151  39.006   6.903   7.843
    7AU     AUL 2152  39.297   6.717   7.825
    7AU       S 2153  39.442   6.417   7.415
    7AU     LIG 2154  39.762   6.107   7.504
    7AU     LIG 2155  40.216   5.979   7.428
    7AU       S 2156  39.130   6.050   8.226
    7AU     LIG 2157  39.539   6.025   8.413
    7AU     LIG 2158  39.866   5.801   8.661
    7AU    AUSL 2159  39.200   6.983   7.267
    7AU    AUSL 2160  38.936   6.580   7.163
    7AU     AUL 2161  39.231   6.753   7.032
    7AU       S 2162  39.634   6.607   7.282
    7AU     LIG 2163  39.985   6.376   7.136
    7AU     LIG 2164  40.424   6.437   7.215
    7AU       S 2165  39.191   6.244   6.982
    7AU     LIG 2166  39.617   6.016   6.984
    7AU     LIG 2167  39.780   5.680   6.668
    7AU    AUSL 2168  37.913   6.709   7.500
    7AU    AUSL 2169  37.841   6.825   7.080
    7AU     AUL 2170  37.614   6.618   7.324
    7AU       S 2171  37.606   6.517   6.814
    7AU     LIG 2172  37.374   6.406   6.406
    7AU     LIG 2173  37.147   6.030   6.198
    7AU       S 2174  37.116   6.621   7.743
    7AU     LIG 2175  37.051   6.193   7.546
    7AU     LIG 2176  36.582   5.988   7.465
    7AU    AUSL 2177  37.707   6.930   7.707
    7AU    AUSL 2178  38.020   6.527   7.787
    7AU     AUL 2179  37.675   6.575   7.701
    7AU       S 2180  37.716   6.275   8.095
    7AU     LIG 2181  37.327   6.013   8.043
    7AU     LIG 2182  37.048   5.857   8.348
    7AU       S 2183  37.224   6.863   7.752
    7AU     LIG 2184  36.704   6.929   7.660
    7AU     LIG 2185  36.267   6.590   7.903
    7AU    AUSL 2186  38.487   7.779   7.980
    7AU    AUSL 2187  37.982   7.698   7.816
    7AU     AUL 2188  38.176   7.959   7.998
    7AU       S 2189  37.668   7.976   8.104
    7AU     LIG 2190  37.422   8.409   8.335
    7AU     LIG 2191  37.209   8.755   8.449
    7AU       S 2192  38.572   8.232   8.169
    7AU     LIG 2193  38.348   8.500   8.492
    7AU     LIG 2194  38.236   8.914   8.693
    7AU    AUSL 2195  38.275   7.826   7.674
    7AU    AUSL 2196  38.585   7.926   7.330
    7AU     AUL 2197  38.252   8.129   7.468
    7AU       S 2198  38.490   8.499   7.995
    7AU     LIG 2199  38.202   8.814   7.905
    7AU     LIG 2200  38.246   9.126   8.246
    7AU       S 2201  38.636   8.379   7.210
    7AU     LIG 2202  38.884   8.789   7.097
    7AU     LIG 2203  38.948   9.155   6.770
    7AU    AUSL 2204  38.630   7.894   7.671
    7AU    AUSL 2205  38.765   7.603   8.083
    7AU     AUL 2206  38.885   7.909   7.922
    7AU       S 2207  39.026   7.847   8.405
    7AU     LIG 2208  39.007   8.214   8.694
    7AU     LIG 2209  39.393   8.420   8.873
    7AU       S 2210  38.630   8.331   7.800
    7AU     LIG 2211  39.002   8.643   7.842
    7AU     LIG 2212  39.155   9.124   7.856
    7AU    AUSL 2213  38.516   6.551   7.948
    7AU    AUSL 2214  38.962   6.549   7.741
    7AU     AUL 2215  38.722   6.288   7.937
    7AU       S 2216  38.285   5.794   8.035
    7AU     LIG 2217  38.370   5.656   8.462
    7AU     LIG 2218  38.222   5.307   8.766
    7AU       S 2219  39.230   6.228   7.982
    7AU     LIG 2220  39.503   5.827   7.945
    7AU     LIG 2221  39.737   5.523   8.235
    7AU    AUSL 2222  38.311   6.370   7.676
    7AU    AUSL 2223  38.232   6.729   7.985
    7AU     AUL 2224  38.239   6.370   8.068
    7AU       S 2225  38.160   5.945   7.762
    7AU     LIG 2226  37.965   5.518   7.718
    7AU     LIG 2227  38.129   5.310   8.047
    7AU       S 2228  37.646   6.250   8.385
    7AU     LIG 2229  37.521   6.278   8.842
    7AU     LIG 2230  37.161   6.422   9.095
    7AU    AUSL 2231  38.649   6.468   7.633
    7AU    AUSL 2232  38.304   6.371   7.320
    7AU     AUL 2233  38.575   6.138   7.498
    7AU       S 2234  38.101   5.953   7.260
    7AU     LIG 2235  37.885   5.533   7.008
    7AU     LIG 2236  37.825   5.067   6.872
    7AU       S 2237  38.413   5.702   7.827
    7AU     LIG 2238  38.767   5.573   8.109
    7AU     LIG 2239  39.207   5.559   8.312
    7AU    AUSL 2240  38.447   7.797   7.018
    7AU    AUSL 2241  38.813   7.676   7.239
    7AU     AUL 2242  38.813   7.939   7.018
    7AU       S 2243  38.482   8.294   6.865
    7AU     LIG 2244  38.229   8.482   6.516
    7AU     LIG 2245  37.996   8.548   6.124
    7AU       S 2246  39.461   7.914   6.732
    7AU     LIG 2247  39.624   8.380   6.661
    7AU     LIG 2248  39.635   8.864   6.593
    7AU    AUSL 2249  38.260   7.781   7.334
    7AU    AUSL 2250  38.141   7.633   6.932
    7AU     AUL 2251  38.137   7.989   7.089
    7AU       S 2252  38.407   8.536   7.059
    7AU     LIG 2253  37.955   8.599   6.928
    7AU     LIG 2254  37.760   8.719   6.525
    7AU       S 2255  37.778   7.866   6.712
    7AU     LIG 2256  37.700   8.164   6.366
    7AU     LIG 2257  37.464   8.489   6.131
    7AU    AUSL 2258  38.463   6.582   7.056
    7AU    AUSL 2259  38.013   6.531   7.217
    7AU     AUL 2260  38.228   6.370   6.929
    7AU       S 2261  37.738   6.230   7.022
    7AU     LIG 2262  37.471   5.851   7.054
    7AU     LIG 2263  37.306   5.782   6.634
    7AU       S 2264  38.285   5.805   7.062
    7AU     LIG 2265  38.287   5.537   6.687
    7AU     LIG 2266  38.059   5.370   6.301
    7AU    AUSL 2267  38.662   6.436   7.301
    7AU    AUSL 2268  38.740   6.682   6.880
    7AU     AUL 2269  38.669   6.312   6.977
    7AU       S 2270  38.252   5.667   7.321
    7AU     LIG 2271  38.665   5.496   7.138
    7AU     LIG 2272  38.747   5.203   6.779
    7AU       S 2273  39.053   6.363   6.645
    7AU     LIG 2274  39.103   6.164   6.218
    7AU     LIG 2275  39.382   5.818   6.048
    8AU     AUC 2276  39.663   0.307   7.521
    8AU     AUC 2277  39.932   0.319   7.356
    8AU     AUC 2278  39.936   0.316   7.683
    8AU     AUC 2279  39.391   0.296   7.356
    8AU     AUC 2280  39.393   0.297   7.686
    8AU     AUC 2281  39.484   0.561   7.523
    8AU     AUC 2282  39.814   0.573   7.522
    8AU     AUC 2283  39.512   0.037   7.520
    8AU     AUC 2284  39.844   0.049   7.516
    8AU     AUC 2285  39.674   0.146   7.783
    8AU     AUC 2286  39.658   0.468   7.792
    8AU     AUC 2287  39.671   0.144   7.255
    8AU     AUC 2288  39.654   0.469   7.254
    8AU     AUC 2289  40.192   0.351   7.195
    8AU     AUC 2290  40.226   0.332   7.519
    8AU     AUC 2291  40.203   0.334   7.837
    8AU     AUC 2292  39.130   0.271   7.186
    8AU     AUC 2293  39.113   0.275   7.521
    8AU     AUC 2294  39.136   0.274   7.854
    8AU     AUC 2295  39.308   0.794   7.524
    8AU     AUC 2296  39.649   0.838   7.523
    8AU     AUC 2297  39.943   0.840   7.521
    8AU     AUC 2298  39.378  44.754   7.521
    8AU     AUC 2299  39.687  44.768   7.512
    8AU     AUC 2300  40.028  44.804   7.508
    8AU     AUC 2301  39.699  44.998   8.041
    8AU     AUC 2302  39.674   0.301   8.066
    8AU     AUC 2303  39.664   0.638   8.048
    8AU     AUC 2304  39.691  44.998   6.988
    8AU     AUC 2305  39.658   0.298   6.984
    8AU     AUC 2306  39.648   0.644   7.006
    8AU     AUC 2307  39.944   0.150   7.954
    8AU     AUC 2308  39.939   0.480   7.975
    8AU     AUC 2309  39.933   0.164   7.063
    8AU     AUC 2310  39.938   0.496   7.086
    8AU     AUC 2311  39.395   0.143   7.963
    8AU     AUC 2312  39.375   0.466   7.962
    8AU     AUC 2313  39.390   0.139   7.080
    8AU     AUC 2314  39.366   0.462   7.083
    8AU     AUC 2315  40.094   0.588   7.361
    8AU     AUC 2316  40.096   0.577   7.694
    8AU     AUC 2317  39.204   0.557   7.342
    8AU     AUC 2318  39.205   0.557   7.694
    8AU     AUC 2319  40.120   0.053   7.351
    8AU     AUC 2320  40.136   0.050   7.657
    8AU     AUC 2321  39.233   0.019   7.345
    8AU     AUC 2322  39.241   0.016   7.700
    8AU     AUC 2323  39.476   0.735   7.808
    8AU     AUC 2324  39.801   0.748   7.803
    8AU     AUC 2325  39.528  44.860   7.776
    8AU     AUC 2326  39.874  44.891   7.791
    8AU     AUC 2327  39.470   0.727   7.234
    8AU     AUC 2328  39.800   0.756   7.240
    8AU     AUC 2329  39.518  44.861   7.264
    8AU     AUC 2330  39.864  44.884   7.240
    8AU    AUSL 2331  40.120   0.275   8.155
    8AU    AUSL 2332  40.030  44.868   8.092
    8AU     AUL 2333  40.407   0.063   8.188
    8AU       S 2334  40.297  44.584   8.375
    8AU     LIG 2335  40.483  44.297   8.745
    8AU     LIG 2336  40.431  43.862   8.866
    8AU       S 2337  40.184   0.017   8.647
    8AU     LIG 2338  40.562  44.805   8.847
    8AU     LIG 2339  40.778  44.859   9.268
    8AU    AUSL 2340  39.827   0.112   8.268
    8AU    AUSL 2341  39.509   0.455   8.202
    8AU     AUL 2342  39.648   0.328   8.548
    8AU       S 2343  39.912  44.863   8.611
    8AU     LIG 2344  40.105  44.586   8.940
    8AU     LIG 2345  40.463  44.439   9.226
    8AU       S 2346  38.863  45.000   8.738
    8AU     LIG 2347  38.984   0.229   9.166
    8AU     LIG 2348  38.927   0.342   9.616
    8AU    AUSL 2349  39.843   0.503   8.277
    8AU    AUSL 2350  40.240   0.589   8.020
    8AU     AUL 2351  40.191   0.482   8.410
    8AU       S 2352  39.827   0.832   8.616
    8AU     LIG 2353  40.180   0.829   8.924
    8AU     LIG 2354  40.291   0.619   9.329
    8AU       S 2355  40.575   0.795   8.272
    8AU     LIG 2356  40.820   0.841   8.654
    8AU     LIG 2357  41.004   1.203   8.853
    8AU    AUSL 2358  40.130   0.369   6.856
    8AU    AUSL 2359  39.953   0.774   6.923
    8AU     AUL 2360  39.963   0.640   6.574
    8AU       S 2361  40.340   0.337   6.389
    8AU     LIG 2362  40.710   0.239   6.062
    8AU     LIG 2363  40.707   0.221   5.581
    8AU       S 2364  40.371   0.956   6.659
    8AU     LIG 2365  40.615   1.295   6.387
    8AU     LIG 2366  40.812   1.492   5.997
    8AU    AUSL 2367  39.866   0.134   6.753
    8AU    AUSL 2368  40.158   0.103   7.096
    8AU     AUL 2369  40.265   0.037   6.786
    8AU       S 2370  40.661  44.510   6.781
    8AU     LIG 2371  40.973  44.569   6.456
    8AU     LIG 2372  41.256  44.522   6.088
    8AU       S 2373  40.028   0.089   6.333
    8AU     LIG 2374  39.866  44.954   5.899
    8AU     LIG 2375  40.141   0.132   5.573
    8AU    AUSL 2376  39.797   0.475   6.847
    8AU    AUSL 2377  39.509   0.121   6.751
    8AU     AUL 2378  39.650   0.389   6.524
    8AU       S 2379  39.270   0.072   6.303
    8AU     LIG 2380  39.334  44.740   5.934
    8AU     LIG 2381  38.926  44.548   5.773
    8AU       S 2382  40.228   0.183   6.135
    8AU     LIG 2383  40.337   0.525   5.863
    8AU     LIG 2384  40.426   0.624   5.418
    8AU    AUSL 2385  39.188   0.273   8.170
    8AU    AUSL 2386  39.367   0.767   8.110
    8AU     AUL 2387  39.312   0.569   8.441
    8AU       S 2388  38.900   0.226   8.490
    8AU     LIG 2389  38.652   0.445   8.842
    8AU     LIG 2390  38.497   0.360   9.280
    8AU       S 2391  38.998   0.986   8.334
    8AU     LIG 2392  38.977   1.243   8.728
    8AU     LIG 2393  38.656   1.438   9.029
    8AU    AUSL 2394  39.482   0.109   8.283
    8AU    AUSL 2395  39.086  44.983   7.983
    8AU     AUL 2396  39.236  44.857   8.293
    8AU       S 2397  38.715  44.784   8.194
    8AU     LIG 2398  38.311  44.562   8.436
    8AU     LIG 2399  38.236  44.447   8.900
    8AU       S 2400  39.172   0.120   8.710
    8AU     LIG 2401  39.201  44.781   9.056
    8AU     LIG 2402  39.010  44.799   9.487
    8AU    AUSL 2403  39.184   0.233   6.870
    8AU    AUSL 2404  39.419  44.908   7.018
    8AU     AUL 2405  39.282  44.835   6.746
    8AU       S 2406  38.932   0.124   6.486
    8AU     LIG 2407  38.539   0.018   6.196
    8AU     LIG 2408  38.501  44.896   5.736
    8AU       S 2409  38.796  44.533   6.615
    8AU     LIG 2410  38.746  44.318   6.221
    8AU     LIG 2411  38.823  43.952   5.946
    8AU    AUSL 2412  39.460   0.470   6.852
    8AU    AUSL 2413  39.082   0.553   7.013
    8AU     AUL 2414  39.226   0.534   6.628
    8AU       S 2415  38.771   0.746   6.728
    8AU     LIG 2416  38.484   1.097   6.582
    8AU     LIG 2417  38.404   1.274   6.142
    8AU       S 2418  38.997  44.868   6.272
    8AU     LIG 2419  38.961   0.091   5.864
    8AU     LIG 2420  38.829   0.188   5.415
    8AU    AUSL 2421  40.258   0.794   7.515
    8AU    AUSL 2422  40.251   0.622   7.077
    8AU     AUL 2423  40.408   0.963   7.230
    8AU       S 2424  40.535   0.696   6.764
    8AU     LIG 2425  40.693   0.747   6.301
    8AU     LIG 2426  41.041   1.061   6.202
    8AU       S 2427  40.969   0.914   7.849
    8AU     LIG 2428  41.195   1.175   7.513
    8AU     LIG 2429  41.135   1.521   7.162
    8AU    AUSL 2430  40.421   0.520   7.365
    8AU    AUSL 2431  40.472   0.183   7.663
    8AU     AUL 2432  40.722   0.344   7.345
    8AU       S 2433  40.852   0.788   7.548
    8AU     LIG 2434  41.330   0.664   7.441
    8AU     LIG 2435  41.641   0.414   7.150
    8AU       S 2436  40.914  44.961   7.632
    8AU     LIG 2437  41.295   0.013   7.898
    8AU     LIG 2438  41.681  44.720   7.875
    8AU    AUSL 2439  40.406   0.526   7.724
    8AU    AUSL 2440  40.039   0.808   7.775
    8AU     AUL 2441  40.374   0.909   7.817
    8AU       S 2442  40.618   1.118   8.280
    8AU     LIG 2443  40.845   1.521   8.307
    8AU     LIG 2444  41.187   1.605   8.588
    8AU       S 2445  40.816   0.607   7.836
    8AU     LIG 2446  41.279   0.524   7.932
    8AU     LIG 2447  41.689   0.715   7.877
    8AU    AUSL 2448  39.010   0.744   7.531
    8AU    AUSL 2449  39.070   0.562   7.987
    8AU     AUL 2450  38.738   0.717   7.777
    8AU       S 2451  38.816   0.709   8.303
    8AU     LIG 2452  38.408   0.669   8.459
    8AU     LIG 2453  38.089   0.743   8.801
    8AU       S 2454  38.809   1.178   7.521
    8AU     LIG 2455  38.388   1.165   7.240
    8AU     LIG 2456  38.106   1.353   6.923
    8AU    AUSL 2457  38.940   0.433   7.307
    8AU    AUSL 2458  39.151   0.853   7.232
    8AU     AUL 2459  38.790   0.724   7.242
    8AU       S 2460  38.569   0.313   6.970
    8AU     LIG 2461  38.100   0.518   7.010
    8AU     LIG 2462  37.598   0.541   6.928
    8AU       S 2463  38.859   1.170   6.992
    8AU     LIG 2464  38.713   1.528   6.747
    8AU     LIG 2465  38.349   1.622   6.505
    8AU    AUSL 2466  38.924   0.417   7.710
    8AU    AUSL 2467  38.887   0.105   7.362
    8AU     AUL 2468  38.642   0.436   7.487
    8AU       S 2469  38.432  44.972   7.446
    8AU     LIG 2470  38.219  44.925   7.073
    8AU     LIG 2471  37.824   0.091   7.043
    8AU       S 2472  38.581   0.314   8.073
    8AU     LIG 2473  38.145   0.520   8.037
    8AU     LIG 2474  37.837   0.838   7.908
    8AU    AUSL 2475  40.338  44.862   7.500
    8AU    AUSL 2476  40.210   0.083   7.877
    8AU     AUL 2477  40.489  44.875   7.875
    8AU       S 2478  40.719  44.641   7.467
    8AU     LIG 2479  41.023  44.312   7.298
    8AU     LIG 2480  41.236  44.072   7.616
    8AU       S 2481  40.600  44.482   8.294
    8AU     LIG 2482  40.912  44.510   8.589
    8AU     LIG 2483  41.020  44.480   9.035
    8AU    AUSL 2484  40.414   0.164   7.320
    8AU    AUSL 2485  40.164  44.741   7.215
    8AU     AUL 2486  40.458  44.922   7.096
    8AU       S 2487  40.873  44.852   7.380
    8AU     LIG 2488  41.081  44.731   6.998
    8AU     LIG 2489  41.375  44.480   6.828
    8AU       S 2490  40.451  44.405   7.022
    8AU     LIG 2491  40.570  44.042   6.693
    8AU     LIG 2492  40.833  43.680   6.491
    8AU    AUSL 2493  39.142  44.869   7.514
    8AU    AUSL 2494  39.068  44.983   7.087
    8AU     AUL 2495  38.874  44.733   7.333
    8AU       S 2496  38.747  44.792   6.828
    8AU     LIG 2497  38.329  44.720   6.592
    8AU     LIG 2498  38.238  44.342   6.329
    8AU       S 2499  38.346  44.781   7.578
    8AU     LIG 2500  38.254  44.515   7.894
    8AU     LIG 2501  37.838  44.437   7.857
    8AU    AUSL 2502  38.917   0.078   7.706
    8AU    AUSL 2503  39.227  44.697   7.814
    8AU     AUL 2504  38.908  44.714   7.707
    8AU       S 2505  38.879  44.452   8.128
    8AU     LIG 2506  38.471  44.133   8.163
    8AU     LIG 2507  38.125  43.726   8.229
    8AU       S 2508  38.468  44.978   7.736
    8AU     LIG 2509  38.049  44.991   7.934
    8AU     LIG 2510  37.803   0.019   7.585
    8AU    AUSL 2511  39.668   0.951   8.003
    8AU    AUSL 2512  39.174   0.864   7.813
    8AU     AUL 2513  39.360   1.142   7.990
    8AU       S 2514  38.860   1.145   8.046
    8AU     LIG 2515  39.005   1.533   8.292
    8AU     LIG 2516  38.902   1.756   8.674
    8AU       S 2517  39.729   1.378   8.241
    8AU     LIG 2518  39.464   1.703   8.491
    8AU     LIG 2519  39.575   2.159   8.461
    8AU    AUSL 2520  39.471   0.991   7.683
    8AU    AUSL 2521  39.794   1.092   7.348
    8AU     AUL 2522  39.468   1.300   7.481
    8AU       S 2523  39.827   1.678   8.137
    8AU     LIG 2524  39.421   1.892   8.021
    8AU     LIG 2525  39.090   2.063   8.304
    8AU       S 2526  39.819   1.550   7.180
    8AU     LIG 2527  40.073   1.983   7.215
    8AU     LIG 2528  40.143   2.295   6.821
    8AU    AUSL 2529  39.819   1.072   7.695
    8AU    AUSL 2530  39.953   0.782   8.111
    8AU     AUL 2531  40.057   1.097   7.962
    8AU       S 2532  40.299   0.992   8.406
    8AU     LIG 2533  40.485   1.225   8.756
    8AU     LIG 2534  40.693   1.621   8.785
    8AU       S 2535  39.788   1.521   7.864
    8AU     LIG 2536  40.005   1.968   7.765
    8AU     LIG 2537  40.107   2.372   7.996
    8AU    AUSL 2538  39.720  44.723   7.996
    8AU    AUSL 2539  40.168  44.721   7.787
    8AU     AUL 2540  39.946  44.480   7.998
    8AU       S 2541  39.454  43.959   8.000
    8AU     LIG 2542  39.586  43.942   8.497
    8AU     LIG 2543  39.327  43.554   8.810
    8AU       S 2544  40.438  44.384   8.086
    8AU     LIG 2545  40.693  43.994   8.384
    8AU     LIG 2546  41.089  43.673   8.512
    8AU    AUSL 2547  39.513  44.539   7.702
    8AU    AUSL 2548  39.437  44.902   8.008
    8AU     AUL 2549  39.432  44.530   8.086
    8AU       S 2550  39.285  44.125   7.731
    8AU     LIG 2551  38.996  43.664   7.700
    8AU     LIG 2552  38.885  43.396   8.104
    8AU       S 2553  38.791  44.548   8.380
    8AU     LIG 2554  38.773  44.165   8.555
    8AU     LIG 2555  38.707  44.209   8.949
    8AU    AUSL 2556  39.853  44.645   7.680
    8AU    AUSL 2557  39.528  44.528   7.345
    8AU     AUL 2558  39.788  44.312   7.578
    8AU       S 2559  39.448  44.090   7.235
    8AU     LIG 2560  39.224  43.688   7.228
    8AU     LIG 2561  39.280  43.272   7.060
    8AU       S 2562  39.438  43.870   7.699
    8AU     LIG 2563  39.825  43.678   7.708
    8AU     LIG 2564  39.974  43.445   8.048
    8AU    AUSL 2565  39.667   0.956   7.034
    8AU    AUSL 2566  40.033   0.847   7.265
    8AU     AUL 2567  40.039   1.105   7.049
    8AU       S 2568  39.690   1.415   6.825
    8AU     LIG 2569  39.473   1.814   6.589
    8AU     LIG 2570  39.621   2.242   6.441
    8AU       S 2571  40.716   0.951   6.754
    8AU     LIG 2572  41.038   1.263   6.698
    8AU     LIG 2573  41.136   1.577   6.381
    8AU    AUSL 2574  39.468   0.945   7.344
    8AU    AUSL 2575  39.361   0.791   6.948
    8AU     AUL 2576  39.355   1.152   7.106
    8AU       S 2577  39.851   1.696   6.887
    8AU     LIG 2578  39.658   2.150   6.958
    8AU     LIG 2579  39.363   2.494   6.809
    8AU       S 2580  39.013   1.017   6.719
    8AU     LIG 2581  38.907   1.271   6.342
    8AU     LIG 2582  38.752   1.670   6.166
    8AU    AUSL 2583  39.693  44.720   7.079
    8AU    AUSL 2584  39.233  44.688   7.228
    8AU     AUL 2585  39.431  44.530   6.953
    8AU       S 2586  38.885  44.472   6.902
    8AU     LIG 2587  38.418  44.284   6.851
    8AU     LIG 2588  38.154  43.944   6.625
    8AU       S 2589  39.589  43.918   6.964
    8AU     LIG 2590  39.384  43.616   6.650
    8AU     LIG 2591  39.561  43.352   6.289
    8AU    AUSL 2592  39.885  44.595   7.348
    8AU    AUSL 2593  39.975  44.840   6.925
    8AU     AUL 2594  39.924  44.467   7.023
    8AU       S 2595  39.701  43.864   7.239
    8AU     LIG 2596  39.746  43.452   7.115
    8AU     LIG 2597  39.672  43.194   6.756
    8AU       S 2598  40.329  44.518   6.711
    8AU     LIG 2599  40.509  44.330   6.297
    8AU     LIG 2600  40.761  44.441   5.945
    9AU     AUC 2601  23.394  17.851   7.489
    9AU     AUC 2602  23.662  17.869   7.322
    9AU     AUC 2603  23.667  17.866   7.650
    9AU     AUC 2604  23.121  17.835   7.325
    9AU     AUC 2605  23.125  17.832   7.655
    9AU     AUC 2606  23.207  18.101   7.494
    9AU     AUC 2607  23.538  18.121   7.491
    9AU     AUC 2608  23.248  17.577   7.487
    9AU     AUC 2609  23.579  17.597   7.483
    9AU     AUC 2610  23.411  17.688   7.751
    9AU     AUC 2611  23.387  18.011   7.761
    9AU     AUC 2612  23.402  17.691   7.221
    9AU     AUC 2613  23.379  18.016   7.224
    9AU     AUC 2614  23.924  17.905   7.159
    9AU     AUC 2615  23.959  17.884   7.479
    9AU     AUC 2616  23.935  17.893   7.800
    9AU     AUC 2617  22.861  17.809   7.155
    9AU     AUC 2618  22.844  17.805   7.489
    9AU     AUC 2619  22.867  17.798   7.822
    9AU     AUC 2620  23.025  18.329   7.500
    9AU     AUC 2621  23.364  18.383   7.498
    9AU     AUC 2622  23.659  18.391   7.491
    9AU     AUC 2623  23.120  17.291   7.485
    9AU     AUC 2624  23.427  17.310   7.480
    9AU     AUC 2625  23.763  17.354   7.475
    9AU     AUC 2626  23.441  17.538   8.011
    9AU     AUC 2627  23.409  17.843   8.034
    9AU     AUC 2628  23.389  18.180   8.016
    9AU     AUC 2629  23.423  17.548   6.952
    9AU     AUC 2630  23.389  17.847   6.952
    9AU     AUC 2631  23.369  18.193   6.977
    9AU     AUC 2632  23.680  17.701   7.927
    9AU     AUC 2633  23.671  18.035   7.939
    9AU     AUC 2634  23.665  17.718   7.028
    9AU     AUC 2635  23.664  18.050   7.055
    9AU     AUC 2636  23.132  17.675   7.930
    9AU     AUC 2637  23.102  17.997   7.931
    9AU     AUC 2638  23.121  17.680   7.046
    9AU     AUC 2639  23.091  18.004   7.054
    9AU     AUC 2640  23.817  18.138   7.326
    9AU     AUC 2641  23.824  18.131   7.655
    9AU     AUC 2642  22.927  18.094   7.315
    9AU     AUC 2643  22.928  18.086   7.667
    9AU     AUC 2644  23.853  17.606   7.315
    9AU     AUC 2645  23.866  17.603   7.627
    9AU     AUC 2646  22.969  17.554   7.311
    9AU     AUC 2647  22.979  17.547   7.667
    9AU     AUC 2648  23.196  18.272   7.781
    9AU     AUC 2649  23.525  18.295   7.772
    9AU     AUC 2650  23.270  17.398   7.741
    9AU     AUC 2651  23.613  17.434   7.757
    9AU     AUC 2652  23.187  18.270   7.207
    9AU     AUC 2653  23.514  18.306   7.213
    9AU     AUC 2654  23.252  17.405   7.227
    9AU     AUC 2655  23.598  17.436   7.205
    9AU    AUSL 2656  23.861  17.854   8.128
    9AU    AUSL 2657  23.763  17.405   8.066
    9AU     AUL 2658  24.113  17.593   8.187
    9AU       S 2659  24.087  17.083   8.285
    9AU     LIG 2660  24.196  16.790   8.686
    9AU     LIG 2661  24.491  16.404   8.764
    9AU       S 2662  23.927  17.716   8.647
    9AU     LIG 2663  24.250  17.767   8.979
    9AU     LIG 2664  24.593  17.650   9.279
    9AU    AUSL 2665  23.576  17.667   8.239
    9AU    AUSL 2666  23.236  17.986   8.165
    9AU     AUL 2667  23.371  17.872   8.512
    9AU       S 2668  23.715  17.481   8.608
    9AU     LIG 2669  23.772  17.573   9.096
    9AU     LIG 2670  24.093  17.546   9.443
    9AU       S 2671  22.603  17.511   8.708
    9AU     LIG 2672  22.646  17.848   9.057
    9AU     LIG 2673  22.579  17.996   9.498
    9AU    AUSL 2674  23.563  18.060   8.243
    9AU    AUSL 2675  23.979  18.156   7.961
    9AU     AUL 2676  23.913  18.119   8.338
    9AU       S 2677  23.527  18.379   8.589
    9AU     LIG 2678  23.841  18.189   8.913
    9AU     LIG 2679  23.956  18.029   9.325
    9AU       S 2680  24.356  18.344   8.192
    9AU     LIG 2681  24.596  18.414   8.606
    9AU     LIG 2682  24.771  18.802   8.810
    9AU    AUSL 2683  23.868  17.932   6.826
    9AU    AUSL 2684  23.669  18.334   6.897
    9AU     AUL 2685  23.696  18.208   6.549
    9AU       S 2686  24.093  17.926   6.382
    9AU     LIG 2687  24.486  17.939   6.101
    9AU     LIG 2688  24.551  17.693   5.699
    9AU       S 2689  24.106  18.523   6.657
    9AU     LIG 2690  24.298  18.916   6.449
    9AU     LIG 2691  24.712  19.034   6.293
    9AU    AUSL 2692  23.600  17.690   6.719
    9AU    AUSL 2693  23.891  17.657   7.058
    9AU     AUL 2694  23.995  17.588   6.743
    9AU       S 2695  24.117  16.775   6.762
    9AU     LIG 2696  24.545  16.724   6.600
    9AU     LIG 2697  24.821  16.546   6.259
    9AU       S 2698  23.790  17.680   6.284
    9AU     LIG 2699  23.714  17.537   5.834
    9AU     LIG 2700  23.973  17.593   5.444
    9AU    AUSL 2701  23.529  18.029   6.814
    9AU    AUSL 2702  23.239  17.672   6.715
    9AU     AUL 2703  23.388  17.940   6.491
    9AU       S 2704  22.976  17.673   6.275
    9AU     LIG 2705  23.071  17.493   5.834
    9AU     LIG 2706  22.757  17.460   5.472
    9AU       S 2707  24.082  17.655   6.175
    9AU     LIG 2708  24.020  17.956   5.838
    9AU     LIG 2709  23.885  18.117   5.416
    9AU    AUSL 2710  22.925  17.792   8.139
    9AU    AUSL 2711  23.086  18.295   8.084
    9AU     AUL 2712  23.037  18.088   8.411
    9AU       S 2713  22.634  17.727   8.454
    9AU     LIG 2714  22.257  17.885   8.701
    9AU     LIG 2715  22.145  17.785   9.159
    9AU       S 2716  22.707  18.484   8.314
    9AU     LIG 2717  22.627  18.902   8.498
    9AU     LIG 2718  22.348  19.179   8.727
    9AU    AUSL 2719  23.228  17.639   8.251
    9AU    AUSL 2720  22.825  17.506   7.949
    9AU     AUL 2721  22.989  17.377   8.260
    9AU       S 2722  22.484  17.296   8.174
    9AU     LIG 2723  22.139  17.335   8.478
    9AU     LIG 2724  22.100  16.987   8.801
    9AU       S 2725  22.910  17.640   8.675
    9AU     LIG 2726  22.968  17.451   9.090
    9AU     LIG 2727  22.716  17.491   9.474
    9AU    AUSL 2728  22.913  17.780   6.839
    9AU    AUSL 2729  23.147  17.446   6.968
    9AU     AUL 2730  23.000  17.386   6.689
    9AU       S 2731  22.642  17.709   6.480
    9AU     LIG 2732  22.297  17.792   6.135
    9AU     LIG 2733  22.270  17.696   5.659
    9AU       S 2734  22.300  17.043   6.889
    9AU     LIG 2735  22.386  16.758   6.514
    9AU     LIG 2736  22.293  16.395   6.239
    9AU    AUSL 2737  23.191  18.016   6.826
    9AU    AUSL 2738  22.805  18.093   6.988
    9AU     AUL 2739  22.963  18.099   6.610
    9AU       S 2740  22.488  18.274   6.699
    9AU     LIG 2741  22.149  18.608   6.648
    9AU     LIG 2742  21.866  18.958   6.516
    9AU       S 2743  22.707  17.525   6.195
    9AU     LIG 2744  22.721  17.858   5.840
    9AU     LIG 2745  22.638  17.959   5.373
    9AU    AUSL 2746  23.979  18.332   7.468
    9AU    AUSL 2747  23.968  18.197   7.054
    9AU     AUL 2748  24.068  18.572   7.213
    9AU       S 2749  24.302  18.290   6.801
    9AU     LIG 2750  24.776  18.267   6.607
    9AU     LIG 2751  25.050  18.458   6.265
    9AU       S 2752  24.709  18.462   7.536
    9AU     LIG 2753  24.853  18.852   7.385
    9AU     LIG 2754  25.221  19.089   7.525
    9AU    AUSL 2755  24.158  18.062   7.310
    9AU    AUSL 2756  24.185  17.730   7.633
    9AU     AUL 2757  24.460  17.857   7.402
    9AU       S 2758  24.551  18.348   7.300
    9AU     LIG 2759  24.998  18.479   7.066
    9AU     LIG 2760  25.456  18.267   7.177
    9AU       S 2761  24.625  17.392   7.565
    9AU     LIG 2762  24.732  17.049   7.867
    9AU     LIG 2763  25.215  17.102   7.828
    9AU    AUSL 2764  24.150  18.086   7.670
    9AU    AUSL 2765  23.769  18.374   7.735
    9AU     AUL 2766  24.102  18.477   7.760
    9AU       S 2767  24.446  18.678   8.209
    9AU     LIG 2768  24.639  19.093   8.398
    9AU     LIG 2769  24.844  19.499   8.627
    9AU       S 2770  24.570  18.261   7.703
    9AU     LIG 2771  25.002  18.183   7.888
    9AU     LIG 2772  25.423  18.045   7.724
    9AU    AUSL 2773  22.729  18.272   7.506
    9AU    AUSL 2774  22.792  18.079   7.960
    9AU     AUL 2775  22.456  18.233   7.753
    9AU       S 2776  22.528  18.192   8.274
    9AU     LIG 2777  22.207  18.479   8.403
    9AU     LIG 2778  21.999  18.779   8.660
    9AU       S 2779  22.541  18.710   7.519
    9AU     LIG 2780  22.183  18.969   7.380
    9AU     LIG 2781  21.955  19.256   7.128
    9AU    AUSL 2782  22.668  17.967   7.278
    9AU    AUSL 2783  22.864  18.391   7.208
    9AU     AUL 2784  22.505  18.258   7.217
    9AU       S 2785  22.318  17.828   6.927
    9AU     LIG 2786  21.881  17.988   6.998
    9AU     LIG 2787  21.631  18.203   7.311
    9AU       S 2788  22.556  18.711   6.973
    9AU     LIG 2789  22.303  19.097   6.799
    9AU     LIG 2790  22.250  19.452   6.489
    9AU    AUSL 2791  22.651  17.937   7.679
    9AU    AUSL 2792  22.624  17.636   7.327
    9AU     AUL 2793  22.372  17.959   7.456
    9AU       S 2794  22.163  17.506   7.331
    9AU     LIG 2795  21.891  17.350   6.987
    9AU     LIG 2796  21.435  17.213   7.041
    9AU       S 2797  22.307  17.797   8.023
    9AU     LIG 2798  21.918  18.031   8.132
    9AU     LIG 2799  21.566  18.244   7.883
    9AU    AUSL 2800  24.069  17.417   7.467
    9AU    AUSL 2801  23.933  17.641   7.861
    9AU     AUL 2802  24.230  17.471   7.856
    9AU       S 2803  24.398  17.163   7.454
    9AU     LIG 2804  24.402  16.717   7.453
    9AU     LIG 2805  24.719  16.403   7.467
    9AU       S 2806  24.196  16.805   8.188
    9AU     LIG 2807  24.606  16.758   8.394
    9AU     LIG 2808  24.967  16.830   8.703
    9AU    AUSL 2809  24.153  17.709   7.278
    9AU    AUSL 2810  23.895  17.293   7.181
    9AU     AUL 2811  24.182  17.460   7.049
    9AU       S 2812  24.593  17.352   7.306
    9AU     LIG 2813  24.894  17.177   6.966
    9AU     LIG 2814  25.327  16.993   7.034
    9AU       S 2815  24.169  16.934   7.025
    9AU     LIG 2816  24.379  16.438   7.009
    9AU     LIG 2817  24.599  16.198   6.634
    9AU    AUSL 2818  22.883  17.398   7.484
    9AU    AUSL 2819  22.803  17.518   7.052
    9AU     AUL 2820  22.618  17.268   7.313
    9AU       S 2821  22.478  17.311   6.809
    9AU     LIG 2822  22.147  17.218   6.447
    9AU     LIG 2823  21.988  16.829   6.201
    9AU       S 2824  22.032  17.304   7.472
    9AU     LIG 2825  22.056  16.816   7.555
    9AU     LIG 2826  21.989  16.413   7.263
    9AU    AUSL 2827  22.650  17.598   7.670
    9AU    AUSL 2828  22.975  17.225   7.780
    9AU     AUL 2829  22.640  17.238   7.684
    9AU       S 2830  22.665  16.953   8.096
    9AU     LIG 2831  22.316  16.599   8.101
    9AU     LIG 2832  22.001  16.443   8.444
    9AU       S 2833  22.181  17.484   7.641
    9AU     LIG 2834  21.885  17.239   7.950
    9AU     LIG 2835  21.434  17.073   8.047
    9AU    AUSL 2836  23.383  18.490   7.979
    9AU    AUSL 2837  22.889  18.386   7.793
    9AU     AUL 2838  23.057  18.669   7.973
    9AU       S 2839  22.551  18.654   8.045
    9AU     LIG 2840  22.209  18.983   8.206
    9AU     LIG 2841  21.922  19.270   8.465
    9AU       S 2842  23.421  18.919   8.217
    9AU     LIG 2843  23.087  19.214   8.436
    9AU     LIG 2844  23.083  19.669   8.607
    9AU    AUSL 2845  23.177  18.532   7.661
    9AU    AUSL 2846  23.498  18.645   7.325
    9AU     AUL 2847  23.163  18.839   7.454
    9AU       S 2848  23.504  19.220   8.121
    9AU     LIG 2849  23.218  19.588   8.116
    9AU     LIG 2850  23.210  20.042   8.224
    9AU       S 2851  23.514  19.113   7.172
    9AU     LIG 2852  23.639  19.612   7.211
    9AU     LIG 2853  23.909  19.833   6.876
    9AU    AUSL 2854  23.524  18.619   7.671
    9AU    AUSL 2855  23.686  18.333   8.072
    9AU     AUL 2856  23.764  18.655   7.937
    9AU       S 2857  24.113  18.586   8.314
    9AU     LIG 2858  24.273  18.839   8.675
    9AU     LIG 2859  24.439  19.255   8.838
    9AU       S 2860  23.463  19.062   7.843
    9AU     LIG 2861  23.528  19.536   7.714
    9AU     LIG 2862  23.763  19.896   7.941
    9AU    AUSL 2863  23.464  17.263   7.952
    9AU    AUSL 2864  23.911  17.282   7.757
    9AU     AUL 2865  23.692  17.014   7.971
    9AU       S 2866  23.231  16.493   7.905
    9AU     LIG 2867  22.995  16.475   8.319
    9AU     LIG 2868  22.996  16.085   8.566
    9AU       S 2869  24.212  16.956   7.916
    9AU     LIG 2870  24.520  16.548   7.926
    9AU     LIG 2871  24.528  16.238   8.272
    9AU    AUSL 2872  23.266  17.077   7.664
    9AU    AUSL 2873  23.179  17.439   7.971
    9AU     AUL 2874  23.191  17.066   8.053
    9AU       S 2875  23.056  16.675   7.699
    9AU     LIG 2876  22.743  16.390   7.884
    9AU     LIG 2877  23.022  16.046   8.053
    9AU       S 2878  22.497  17.015   8.346
    9AU     LIG 2879  22.462  16.628   8.599
    9AU     LIG 2880  22.236  16.494   8.982
    9AU    AUSL 2881  23.609  17.171   7.646
    9AU    AUSL 2882  23.267  17.068   7.307
    9AU     AUL 2883  23.537  16.844   7.516
    9AU       S 2884  23.164  16.621   7.206
    9AU     LIG 2885  22.940  16.199   7.069
    9AU     LIG 2886  22.908  15.844   6.723
    9AU       S 2887  23.187  16.341   7.656
    9AU     LIG 2888  23.513  16.048   7.877
    9AU     LIG 2889  23.639  15.633   8.063
    9AU    AUSL 2890  23.376  18.506   7.009
    9AU    AUSL 2891  23.734  18.401   7.241
    9AU     AUL 2892  23.735  18.667   7.020
    9AU       S 2893  23.391  18.983   6.810
    9AU     LIG 2894  23.336  19.324   6.435
    9AU     LIG 2895  23.394  19.802   6.353
    9AU       S 2896  24.447  18.591   6.797
    9AU     LIG 2897  24.632  19.043   6.844
    9AU     LIG 2898  24.909  19.370   6.639
    9AU    AUSL 2899  23.179  18.486   7.321
    9AU    AUSL 2900  23.076  18.333   6.923
    9AU     AUL 2901  23.059  18.693   7.077
    9AU       S 2902  23.582  19.245   6.878
    9AU     LIG 2903  23.305  19.632   6.832
    9AU     LIG 2904  23.072  20.015   6.699
    9AU       S 2905  22.710  18.558   6.700
    9AU     LIG 2906  22.527  18.869   6.399
    9AU     LIG 2907  22.192  19.076   6.134
    9AU    AUSL 2908  23.426  17.274   7.045
    9AU    AUSL 2909  22.973  17.226   7.192
    9AU     AUL 2910  23.175  17.069   6.914
    9AU       S 2911  22.640  16.985   6.898
    9AU     LIG 2912  22.389  16.554   6.974
    9AU     LIG 2913  21.999  16.452   6.711
    9AU       S 2914  23.324  16.488   6.953
    9AU     LIG 2915  23.291  16.170   6.619
    9AU     LIG 2916  23.591  15.975   6.295
    9AU    AUSL 2917  23.617  17.150   7.311
    9AU    AUSL 2918  23.706  17.393   6.889
    9AU     AUL 2919  23.648  17.019   6.989
    9AU       S 2920  23.404  16.358   7.195
    9AU     LIG 2921  23.717  16.134   6.923
    9AU     LIG 2922  23.796  15.690   6.954
    9AU       S 2923  24.043  17.066   6.667
    9AU     LIG 2924  24.168  16.785   6.262
    9AU     LIG 2925  24.352  16.342   6.176
   10AU     AUC 2926  35.952  32.508   7.495
   10AU     AUC 2927  36.224  32.516   7.330
   10AU     AUC 2928  36.226  32.516   7.657
   10AU     AUC 2929  35.679  32.499   7.328
   10AU     AUC 2930  35.680  32.501   7.659
   10AU     AUC 2931  35.773  32.763   7.496
   10AU     AUC 2932  36.106  32.772   7.494
   10AU     AUC 2933  35.796  32.240   7.495
   10AU     AUC 2934  36.129  32.247   7.494
   10AU     AUC 2935  35.962  32.350   7.758
   10AU     AUC 2936  35.948  32.672   7.764
   10AU     AUC 2937  35.958  32.346   7.230
   10AU     AUC 2938  35.945  32.670   7.228
   10AU     AUC 2939  36.489  32.542   7.167
   10AU     AUC 2940  36.521  32.523   7.489
   10AU     AUC 2941  36.493  32.536   7.810
   10AU     AUC 2942  35.421  32.476   7.154
   10AU     AUC 2943  35.400  32.479   7.490
   10AU     AUC 2944  35.420  32.479   7.824
   10AU     AUC 2945  35.597  32.997   7.498
   10AU     AUC 2946  35.939  33.038   7.496
   10AU     AUC 2947  36.237  33.038   7.490
   10AU     AUC 2948  35.658  31.960   7.497
   10AU     AUC 2949  35.969  31.964   7.496
   10AU     AUC 2950  36.304  31.994   7.491
   10AU     AUC 2951  35.984  32.205   8.018
   10AU     AUC 2952  35.965  32.509   8.040
   10AU     AUC 2953  35.955  32.844   8.018
   10AU     AUC 2954  35.978  32.202   6.965
   10AU     AUC 2955  35.951  32.499   6.959
   10AU     AUC 2956  35.940  32.845   6.979
   10AU     AUC 2957  36.230  32.353   7.933
   10AU     AUC 2958  36.233  32.688   7.944
   10AU     AUC 2959  36.225  32.362   7.041
   10AU     AUC 2960  36.232  32.695   7.061
   10AU     AUC 2961  35.680  32.353   7.936
   10AU     AUC 2962  35.662  32.672   7.934
   10AU     AUC 2963  35.679  32.341   7.051
   10AU     AUC 2964  35.658  32.665   7.054
   10AU     AUC 2965  36.389  32.780   7.330
   10AU     AUC 2966  36.393  32.775   7.660
   10AU     AUC 2967  35.493  32.762   7.315
   10AU     AUC 2968  35.492  32.760   7.666
   10AU     AUC 2969  36.408  32.245   7.329
   10AU     AUC 2970  36.415  32.245   7.638
   10AU     AUC 2971  35.518  32.222   7.316
   10AU     AUC 2972  35.522  32.223   7.670
   10AU     AUC 2973  35.766  32.938   7.780
   10AU     AUC 2974  36.095  32.950   7.772
   10AU     AUC 2975  35.808  32.067   7.749
   10AU     AUC 2976  36.154  32.085   7.767
   10AU     AUC 2977  35.760  32.929   7.208
   10AU     AUC 2978  36.089  32.956   7.214
   10AU     AUC 2979  35.797  32.069   7.241
   10AU     AUC 2980  36.149  32.086   7.224
   10AU    AUSL 2981  36.412  32.496   8.131
   10AU    AUSL 2982  36.302  32.058   8.078
   10AU     AUL 2983  36.658  32.236   8.201
   10AU       S 2984  36.636  31.717   8.264
   10AU     LIG 2985  36.680  31.455   8.664
   10AU     LIG 2986  36.787  31.293   9.082
   10AU       S 2987  36.450  32.321   8.661
   10AU     LIG 2988  36.680  32.471   9.021
   10AU     LIG 2989  36.751  32.364   9.469
   10AU    AUSL 2990  36.122  32.325   8.246
   10AU    AUSL 2991  35.800  32.663   8.171
   10AU     AUL 2992  35.936  32.547   8.517
   10AU       S 2993  36.226  32.109   8.615
   10AU     LIG 2994  36.310  32.112   9.113
   10AU     LIG 2995  36.386  32.004   9.582
   10AU       S 2996  35.203  32.202   8.754
   10AU     LIG 2997  35.310  32.505   9.138
   10AU     LIG 2998  35.246  32.616   9.597
   10AU    AUSL 2999  36.134  32.718   8.247
   10AU    AUSL 3000  36.541  32.803   7.975
   10AU     AUL 3001  36.499  32.725   8.354
   10AU       S 3002  36.113  33.044   8.584
   10AU     LIG 3003  36.457  32.980   8.908
   10AU     LIG 3004  36.501  32.821   9.355
   10AU       S 3005  36.854  33.076   8.249
   10AU     LIG 3006  37.300  33.214   8.397
   10AU     LIG 3007  37.280  33.425   8.823
   10AU    AUSL 3008  36.428  32.568   6.833
   10AU    AUSL 3009  36.241  32.975   6.897
   10AU     AUL 3010  36.263  32.833   6.551
   10AU       S 3011  36.557  32.476   6.327
   10AU     LIG 3012  36.816  32.600   5.964
   10AU     LIG 3013  36.845  32.445   5.522
   10AU       S 3014  36.638  33.169   6.629
   10AU     LIG 3015  36.704  33.501   6.271
   10AU     LIG 3016  37.020  33.764   6.043
   10AU    AUSL 3017  36.167  32.329   6.735
   10AU    AUSL 3018  36.449  32.292   7.073
   10AU     AUL 3019  36.586  32.251   6.772
   10AU       S 3020  36.587  31.425   6.668
   10AU     LIG 3021  36.982  31.353   6.433
   10AU     LIG 3022  37.446  31.317   6.517
   10AU       S 3023  36.304  32.194   6.334
   10AU     LIG 3024  36.180  31.935   5.957
   10AU     LIG 3025  36.083  31.998   5.497
   10AU    AUSL 3026  36.094  32.670   6.824
   10AU    AUSL 3027  35.806  32.330   6.721
   10AU     AUL 3028  35.973  32.579   6.492
   10AU       S 3029  35.560  32.328   6.271
   10AU     LIG 3030  35.705  32.146   5.843
   10AU     LIG 3031  35.439  32.091   5.459
   10AU       S 3032  36.579  32.188   6.171
   10AU     LIG 3033  36.381  32.374   5.785
   10AU     LIG 3034  36.343  32.433   5.313
   10AU    AUSL 3035  35.478  32.479   8.145
   10AU    AUSL 3036  35.654  32.972   8.082
   10AU     AUL 3037  35.601  32.773   8.413
   10AU       S 3038  35.199  32.422   8.484
   10AU     LIG 3039  34.907  32.596   8.835
   10AU     LIG 3040  34.826  32.454   9.297
   10AU       S 3041  35.282  33.176   8.305
   10AU     LIG 3042  35.428  33.451   8.638
   10AU     LIG 3043  35.310  33.868   8.804
   10AU    AUSL 3044  35.776  32.317   8.259
   10AU    AUSL 3045  35.364  32.197   7.955
   10AU     AUL 3046  35.529  32.070   8.266
   10AU       S 3047  35.014  31.997   8.188
   10AU     LIG 3048  34.599  31.750   8.333
   10AU     LIG 3049  34.450  31.550   8.729
   10AU       S 3050  35.489  32.321   8.695
   10AU     LIG 3051  35.578  32.079   9.095
   10AU     LIG 3052  35.342  32.112   9.501
   10AU    AUSL 3053  35.478  32.440   6.838
   10AU    AUSL 3054  35.701  32.107   6.973
   10AU     AUL 3055  35.573  32.044   6.687
   10AU       S 3056  35.221  32.361   6.463
   10AU     LIG 3057  34.905  32.455   6.092
   10AU     LIG 3058  34.891  32.345   5.616
   10AU       S 3059  35.065  31.650   6.687
   10AU     LIG 3060  35.204  31.258   6.517
   10AU     LIG 3061  35.221  31.052   6.132
   10AU    AUSL 3062  35.758  32.674   6.823
   10AU    AUSL 3063  35.374  32.759   6.986
   10AU     AUL 3064  35.530  32.755   6.606
   10AU       S 3065  35.065  32.947   6.698
   10AU     LIG 3066  34.723  33.268   6.687
   10AU     LIG 3067  34.511  33.544   6.383
   10AU       S 3068  35.304  32.175   6.177
   10AU     LIG 3069  35.341  32.495   5.817
   10AU     LIG 3070  35.311  32.592   5.354
   10AU    AUSL 3071  36.558  32.974   7.471
   10AU    AUSL 3072  36.544  32.830   7.054
   10AU     AUL 3073  36.662  33.200   7.201
   10AU       S 3074  36.858  32.937   6.778
   10AU     LIG 3075  37.329  33.121   6.674
   10AU     LIG 3076  37.416  33.465   6.333
   10AU       S 3077  37.382  32.921   7.524
   10AU     LIG 3078  37.504  33.333   7.382
   10AU     LIG 3079  37.846  33.484   7.570
   10AU    AUSL 3080  36.727  32.693   7.319
   10AU    AUSL 3081  36.739  32.362   7.648
   10AU     AUL 3082  37.024  32.475   7.436
   10AU       S 3083  37.132  32.958   7.317
   10AU     LIG 3084  37.586  32.925   7.078
   10AU     LIG 3085  37.987  32.670   7.147
   10AU       S 3086  37.166  31.990   7.588
   10AU     LIG 3087  37.355  31.763   7.961
   10AU     LIG 3088  37.827  31.756   8.054
   10AU    AUSL 3089  36.714  32.722   7.682
   10AU    AUSL 3090  36.341  33.013   7.734
   10AU     AUL 3091  36.679  33.110   7.770
   10AU       S 3092  36.824  33.202   8.551
   10AU     LIG 3093  37.019  33.632   8.408
   10AU     LIG 3094  37.257  34.051   8.447
   10AU       S 3095  37.148  32.912   7.706
   10AU     LIG 3096  37.511  33.233   7.901
   10AU     LIG 3097  37.971  33.338   8.055
   10AU    AUSL 3098  35.298  32.949   7.505
   10AU    AUSL 3099  35.353  32.762   7.958
   10AU     AUL 3100  35.022  32.922   7.751
   10AU       S 3101  35.089  32.889   8.275
   10AU     LIG 3102  34.793  33.235   8.442
   10AU     LIG 3103  34.580  33.389   8.824
   10AU       S 3104  35.104  33.389   7.512
   10AU     LIG 3105  34.624  33.440   7.472
   10AU     LIG 3106  34.405  33.719   7.160
   10AU    AUSL 3107  35.231  32.641   7.278
   10AU    AUSL 3108  35.440  33.058   7.207
   10AU     AUL 3109  35.079  32.935   7.215
   10AU       S 3110  34.873  32.518   6.928
   10AU     LIG 3111  34.470  32.785   7.001
   10AU     LIG 3112  34.321  33.221   7.077
   10AU       S 3113  35.147  33.379   6.967
   10AU     LIG 3114  34.894  33.752   6.830
   10AU     LIG 3115  34.533  33.983   6.681
   10AU    AUSL 3116  35.209  32.620   7.678
   10AU    AUSL 3117  35.176  32.312   7.323
   10AU     AUL 3118  34.934  32.642   7.452
   10AU       S 3119  34.708  32.194   7.315
   10AU     LIG 3120  34.430  31.885   7.060
   10AU     LIG 3121  34.033  31.885   7.288
   10AU       S 3122  34.847  32.496   8.009
   10AU     LIG 3123  34.368  32.605   8.008
   10AU     LIG 3124  33.997  32.748   8.291
   10AU    AUSL 3125  36.613  32.048   7.484
   10AU    AUSL 3126  36.482  32.280   7.869
   10AU     AUL 3127  36.776  32.102   7.871
   10AU       S 3128  36.938  31.766   7.473
   10AU     LIG 3129  37.261  31.437   7.361
   10AU     LIG 3130  37.502  31.211   7.019
   10AU       S 3131  36.725  31.430   8.164
   10AU     LIG 3132  37.116  31.515   8.379
   10AU     LIG 3133  37.187  31.507   8.825
   10AU    AUSL 3134  36.713  32.340   7.293
   10AU    AUSL 3135  36.434  31.930   7.195
   10AU     AUL 3136  36.736  32.084   7.077
   10AU       S 3137  37.153  31.974   7.324
   10AU     LIG 3138  37.515  31.771   7.070
   10AU     LIG 3139  37.986  31.854   7.113
   10AU       S 3140  36.670  31.594   6.945
   10AU     LIG 3141  37.007  31.283   6.937
   10AU     LIG 3142  37.187  30.914   6.695
   10AU    AUSL 3143  35.420  32.065   7.487
   10AU    AUSL 3144  35.356  32.185   7.052
   10AU     AUL 3145  35.153  31.941   7.310
   10AU       S 3146  35.058  31.949   6.799
   10AU     LIG 3147  34.614  31.823   6.580
   10AU     LIG 3148  34.436  31.471   6.299
   10AU       S 3149  34.489  32.124   7.482
   10AU     LIG 3150  34.458  31.666   7.551
   10AU     LIG 3151  34.397  31.205   7.708
   10AU    AUSL 3152  35.198  32.281   7.668
   10AU    AUSL 3153  35.507  31.910   7.795
   10AU     AUL 3154  35.173  31.923   7.693
   10AU       S 3155  35.187  31.673   8.130
   10AU     LIG 3156  34.845  31.353   8.086
   10AU     LIG 3157  34.535  31.174   8.361
   10AU       S 3158  34.728  32.184   7.628
   10AU     LIG 3159  34.424  32.075   7.966
   10AU     LIG 3160  34.028  32.128   7.787
   10AU    AUSL 3161  35.959  33.153   7.975
   10AU    AUSL 3162  35.462  33.065   7.789
   10AU     AUL 3163  35.643  33.348   7.963
   10AU       S 3164  35.139  33.341   8.038
   10AU     LIG 3165  35.199  33.734   8.283
   10AU     LIG 3166  35.030  34.162   8.312
   10AU       S 3167  36.028  33.542   8.233
   10AU     LIG 3168  35.717  33.865   8.434
   10AU     LIG 3169  35.855  34.299   8.567
   10AU    AUSL 3170  35.758  33.193   7.658
   10AU    AUSL 3171  36.083  33.293   7.323
   10AU     AUL 3172  35.760  33.503   7.461
   10AU       S 3173  36.130  33.847   8.143
   10AU     LIG 3174  35.852  34.222   8.055
   10AU     LIG 3175  36.011  34.650   8.126
   10AU       S 3176  36.120  33.753   7.175
   10AU     LIG 3177  36.365  34.190   7.219
   10AU     LIG 3178  36.388  34.534   6.868
   10AU    AUSL 3179  36.107  33.271   7.668
   10AU    AUSL 3180  36.249  32.990   8.072
   10AU     AUL 3181  36.356  33.301   7.912
   10AU       S 3182  36.539  33.242   8.387
   10AU     LIG 3183  36.584  33.614   8.689
   10AU     LIG 3184  36.959  33.837   8.879
   10AU       S 3185  36.070  33.722   7.861
   10AU     LIG 3186  36.272  34.190   7.755
   10AU     LIG 3187  36.462  34.626   7.879
   10AU    AUSL 3188  35.997  31.935   7.957
   10AU    AUSL 3189  36.440  31.923   7.771
   10AU     AUL 3190  36.199  31.677   8.014
   10AU       S 3191  35.464  31.228   8.070
   10AU     LIG 3192  35.724  30.965   8.382
   10AU     LIG 3193  35.829  30.505   8.419
   10AU       S 3194  36.699  31.590   7.898
   10AU     LIG 3195  37.070  31.337   7.828
   10AU     LIG 3196  37.177  31.074   8.155
   10AU    AUSL 3197  35.788  31.744   7.682
   10AU    AUSL 3198  35.719  32.122   7.977
   10AU     AUL 3199  35.722  31.755   8.072
   10AU       S 3200  35.529  31.367   7.743
   10AU     LIG 3201  35.368  30.923   7.692
   10AU     LIG 3202  35.679  30.693   7.963
   10AU       S 3203  35.085  31.780   8.416
   10AU     LIG 3204  34.931  31.405   8.608
   10AU     LIG 3205  34.681  31.069   8.839
   10AU    AUSL 3206  36.140  31.800   7.669
   10AU    AUSL 3207  35.798  31.732   7.325
   10AU     AUL 3208  36.028  31.482   7.523
   10AU       S 3209  35.581  31.319   7.230
   10AU     LIG 3210  35.380  30.837   7.188
   10AU     LIG 3211  35.435  30.384   7.041
   10AU       S 3212  35.719  31.190   7.924
   10AU     LIG 3213  36.114  30.969   7.992
   10AU     LIG 3214  36.301  30.626   8.219
   10AU    AUSL 3215  35.955  33.158   7.009
   10AU    AUSL 3216  36.317  33.044   7.240
   10AU     AUL 3217  36.319  33.308   7.020
   10AU       S 3218  35.977  33.635   6.816
   10AU     LIG 3219  35.775  34.048   6.583
   10AU     LIG 3220  35.977  34.472   6.489
   10AU       S 3221  36.881  33.060   6.471
   10AU     LIG 3222  37.016  33.507   6.659
   10AU     LIG 3223  36.981  33.966   6.567
   10AU    AUSL 3224  35.757  33.148   7.320
   10AU    AUSL 3225  35.651  32.993   6.923
   10AU     AUL 3226  35.644  33.354   7.080
   10AU       S 3227  36.122  33.917   6.900
   10AU     LIG 3228  35.906  34.363   6.996
   10AU     LIG 3229  35.679  34.750   6.804
   10AU       S 3230  35.298  33.224   6.696
   10AU     LIG 3231  35.086  33.514   6.403
   10AU     LIG 3232  34.863  33.909   6.273
   10AU    AUSL 3233  35.976  31.945   7.083
   10AU    AUSL 3234  35.521  31.896   7.196
   10AU     AUL 3235  35.756  31.736   6.928
   10AU       S 3236  35.246  31.627   6.921
   10AU     LIG 3237  35.003  31.229   6.980
   10AU     LIG 3238  34.595  31.344   6.801
   10AU       S 3239  35.554  31.202   6.899
   10AU     LIG 3240  35.945  31.101   6.616
   10AU     LIG 3241  36.168  30.688   6.597
   10AU    AUSL 3242  36.159  31.790   7.336
   10AU    AUSL 3243  36.253  32.034   6.903
   10AU     AUL 3244  36.165  31.663   7.017
   10AU       S 3245  35.782  31.123   7.085
   10AU     LIG 3246  36.230  30.950   7.060
   10AU     LIG 3247  36.396  30.515   7.025
   10AU       S 3248  36.504  31.749   6.638
   10AU     LIG 3249  36.590  31.653   6.195
   10AU     LIG 3250  36.778  31.307   5.936
   11POPC   NC3 3251  10.943  21.909   9.286
   11POPC   PO4 3252  10.528  22.548   9.373
   11POPC   GL1 3253  10.649  22.281   9.053
   11POPC   GL2 3254  10.803  22.022   8.819
   11POPC   C1A 3255  10.502  22.386   8.661
   11POPC   D2A 3256  10.534  22.109   8.365
   11POPC   C3A 3257  10.280  22.173   8.080
   11POPC   C4A 3258  10.448  22.168   7.740
   11POPC   C1B 3259  10.534  21.680   8.611
   11POPC   C2B 3260  10.221  21.684   8.257
   11POPC   C3B 3261  10.328  21.677   7.788
   11POPC   C4B 3262  10.543  21.831   7.373
   12POPC   NC3 3263  13.594  39.714   9.552
   12POPC   PO4 3264  14.034  40.230   9.487
   12POPC   GL1 3265  13.730  40.062   9.192
   12POPC   GL2 3266  13.908  39.746   9.140
   12POPC   C1A 3267  13.453  39.847   8.843
   12POPC   D2A 3268  13.324  39.646   8.427
   12POPC   C3A 3269  13.432  39.868   8.043
   12POPC   C4A 3270  13.325  40.125   7.695
   12POPC   C1B 3271  13.940  39.963   8.739
   12POPC   C2B 3272  14.063  40.121   8.362
   12POPC   C3B 3273  13.843  40.171   7.965
   12POPC   C4B 3274  13.770  39.947   7.559
   13POPC   NC3 3275  21.618  31.386   9.494
   13POPC   PO4 3276  21.106  31.711   9.483
   13POPC   GL1 3277  21.226  31.508   9.110
   13POPC   GL2 3278  21.241  31.177   9.188
   13POPC   C1A 3279  21.069  31.418   8.694
   13POPC   D2A 3280  21.095  31.668   8.310
   13POPC   C3A 3281  21.489  31.712   8.037
   13POPC   C4A 3282  21.470  31.783   7.576
   13POPC   C1B 3283  21.476  31.139   8.796
   13POPC   C2B 3284  21.503  31.353   8.420
   13POPC   C3B 3285  21.447  31.209   7.985
   13POPC   C4B 3286  21.276  31.154   7.567
   14POPC   NC3 3287  16.264  30.097   9.345
   14POPC   PO4 3288  16.900  30.125   9.277
   14POPC   GL1 3289  16.830  29.730   9.070
   14POPC   GL2 3290  16.458  29.671   9.113
   14POPC   C1A 3291  16.812  29.728   8.623
   14POPC   D2A 3292  16.758  30.065   8.331
   14POPC   C3A 3293  16.934  29.985   7.939
   14POPC   C4A 3294  16.836  30.060   7.486
   14POPC   C1B 3295  16.306  29.661   8.674
   14POPC   C2B 3296  16.462  29.647   8.231
   14POPC   C3B 3297  16.574  29.650   7.775
   14POPC   C4B 3298  16.752  29.558   7.357
   15POPC   NC3 3299  36.737  42.452   9.428
   15POPC   PO4 3300  37.278  42.838   9.470
   15POPC   GL1 3301  37.095  42.574   9.089
   15POPC   GL2 3302  36.959  42.215   9.038
   15POPC   C1A 3303  36.760  42.606   8.758
   15POPC   D2A 3304  36.786  42.853   8.399
   15POPC   C3A 3305  36.949  42.590   8.109
   15POPC   C4A 3306  36.751  42.375   7.759
   15POPC   C1B 3307  36.867  42.115   8.603
   15POPC   C2B 3308  36.878  42.056   8.169
   15POPC   C3B 3309  37.173  42.043   7.823
   15POPC   C4B 3310  37.335  42.137   7.391
   16POPC   NC3 3311  30.494  11.353   9.615
   16POPC   PO4 3312  29.872  11.182   9.875
   16POPC   GL1 3313  29.949  11.260   9.368
   16POPC   GL2 3314  29.663  11.444   9.134
   16POPC   C1A 3315  30.009  11.171   8.906
   16POPC   D2A 3316  29.993  11.344   8.482
   16POPC   C3A 3317  29.960  11.113   8.118
   16POPC   C4A 3318  29.905  11.234   7.698
   16POPC   C1B 3319  29.525  11.497   8.690
   16POPC   C2B 3320  29.541  11.376   8.244
   16POPC   C3B 3321  29.482  11.501   7.814
   16POPC   C4B 3322  29.504  11.299   7.395
   17POPC   NC3 3323  34.423   7.752   9.517
   17POPC   PO4 3324  34.779   7.303   9.381
   17POPC   GL1 3325  34.595   7.569   9.051
   17POPC   GL2 3326  34.261   7.739   9.037
   17POPC   C1A 3327  34.624   7.440   8.634
   17POPC   D2A 3328  34.985   7.306   8.406
   17POPC   C3A 3329  34.849   7.182   8.007
   17POPC   C4A 3330  34.428   7.135   7.782
   17POPC   C1B 3331  34.266   7.794   8.588
   17POPC   C2B 3332  34.476   7.714   8.218
   17POPC   C3B 3333  34.309   7.614   7.862
   17POPC   C4B 3334  34.183   7.836   7.511
   18POPC   NC3 3335  28.731  16.513   9.523
   18POPC   PO4 3336  28.316  17.079   9.431
   18POPC   GL1 3337  28.525  16.810   9.141
   18POPC   GL2 3338  28.851  16.609   9.032
   18POPC   C1A 3339  28.425  16.647   8.742
   18POPC   D2A 3340  28.542  16.476   8.357
   18POPC   C3A 3341  28.260  16.621   8.039
   18POPC   C4A 3342  28.112  16.379   7.711
   18POPC   C1B 3343  28.820  16.991   8.784
   18POPC   C2B 3344  28.603  17.020   8.405
   18POPC   C3B 3345  28.717  16.847   8.058
   18POPC   C4B 3346  28.695  16.509   7.771
   19POPC   NC3 3347   4.721  17.357   9.582
   19POPC   PO4 3348   4.474  17.985   9.722
   19POPC   GL1 3349   4.318  17.578   9.332
   19POPC   GL2 3350   4.472  17.310   9.149
   19POPC   C1A 3351   4.278  17.592   8.811
   19POPC   D2A 3352   4.328  17.393   8.424
   19POPC   C3A 3353   4.211  17.589   8.059
   19POPC   C4A 3354   4.467  17.590   7.728
   19POPC   C1B 3355   4.694  17.248   8.781
   19POPC   C2B 3356   4.867  17.264   8.411
   19POPC   C3B 3357   4.682  17.272   8.056
   19POPC   C4B 3358   4.867  17.229   7.680
   20POPC   NC3 3359  33.117   9.664   9.605
   20POPC   PO4 3360  32.804  10.201   9.840
   20POPC   GL1 3361  32.838   9.950   9.311
   20POPC   GL2 3362  33.191   9.959   9.165
   20POPC   C1A 3363  32.789   9.808   8.829
   20POPC   D2A 3364  32.807   9.917   8.347
   20POPC   C3A 3365  32.740   9.575   8.030
   20POPC   C4A 3366  32.961   9.401   7.663
   20POPC   C1B 3367  33.219   9.546   8.949
   20POPC   C2B 3368  33.109   9.377   8.540
   20POPC   C3B 3369  33.251   9.520   8.128
   20POPC   C4B 3370  33.113   9.862   7.863
   21POPC   NC3 3371  15.581  42.485   9.429
   21POPC   PO4 3372  16.122  42.061   9.285
   21POPC   GL1 3373  16.049  42.404   9.047
   21POPC   GL2 3374  15.707  42.528   8.921
   21POPC   C1A 3375  15.985  42.232   8.652
   21POPC   D2A 3376  15.739  42.364   8.373
   21POPC   C3A 3377  15.824  42.027   8.137
   21POPC   C4A 3378  16.135  41.936   7.870
   21POPC   C1B 3379  15.321  42.457   8.643
   21POPC   C2B 3380  15.199  42.631   8.295
   21POPC   C3B 3381  15.562  42.760   8.088
   21POPC   C4B 3382  15.755  42.444   7.858
   22POPC   NC3 3383  16.137  11.426   9.674
   22POPC   PO4 3384  16.097  10.723   9.387
   22POPC   GL1 3385  15.942  10.998   9.079
   22POPC   GL2 3386  16.019  11.358   9.169
   22POPC   C1A 3387  15.796  11.245   8.722
   22POPC   D2A 3388  15.666  11.437   8.340
   22POPC   C3A 3389  15.597  11.171   7.973
   22POPC   C4A 3390  15.695  11.238   7.552
   22POPC   C1B 3391  16.274  11.405   8.770
   22POPC   C2B 3392  16.198  11.462   8.336
   22POPC   C3B 3393  16.170  11.288   7.900
   22POPC   C4B 3394  16.143  11.404   7.454
   23POPC   NC3 3395  28.828  12.938   9.416
   23POPC   PO4 3396  28.171  12.709   9.571
   23POPC   GL1 3397  28.373  12.751   9.195
   23POPC   GL2 3398  28.462  13.052   9.094
   23POPC   C1A 3399  28.437  12.681   8.762
   23POPC   D2A 3400  28.583  12.499   8.374
   23POPC   C3A 3401  28.533  12.743   8.062
   23POPC   C4A 3402  28.329  12.683   7.686
   23POPC   C1B 3403  28.259  13.173   8.715
   23POPC   C2B 3404  28.421  13.211   8.312
   23POPC   C3B 3405  28.178  13.112   7.966
   23POPC   C4B 3406  28.336  13.240   7.616
   24POPC   NC3 3407  39.482  38.727   9.497
   24POPC   PO4 3408  38.983  38.229   9.486
   24POPC   GL1 3409  39.322  38.295   9.180
   24POPC   GL2 3410  39.323  38.615   9.022
   24POPC   C1A 3411  39.479  38.173   8.786
   24POPC   D2A 3412  39.266  38.470   8.497
   24POPC   C3A 3413  39.268  38.384   8.045
   24POPC   C4A 3414  38.997  38.405   7.684
   24POPC   C1B 3415  38.971  38.792   8.815
   24POPC   C2B 3416  38.997  39.038   8.451
   24POPC   C3B 3417  39.023  38.837   8.077
   24POPC   C4B 3418  38.944  38.949   7.692
   25POPC   NC3 3419  15.996  27.028   9.651
   25POPC   PO4 3420  15.715  26.421   9.457
   25POPC   GL1 3421  15.877  26.680   9.107
   25POPC   GL2 3422  16.203  26.715   9.192
   25POPC   C1A 3423  15.944  26.912   8.688
   25POPC   D2A 3424  15.830  27.225   8.412
   25POPC   C3A 3425  15.863  27.003   8.040
   25POPC   C4A 3426  16.172  27.145   7.777
   25POPC   C1B 3427  16.233  26.508   8.752
   25POPC   C2B 3428  16.035  26.514   8.313
   25POPC   C3B 3429  16.174  26.598   7.858
   25POPC   C4B 3430  16.466  26.674   7.463
   26POPC   NC3 3431  27.534  14.161   9.298
   26POPC   PO4 3432  27.967  13.688   9.569
   26POPC   GL1 3433  27.737  13.521   9.203
   26POPC   GL2 3434  27.675  13.784   9.010
   26POPC   C1A 3435  27.771  13.379   8.733
   26POPC   D2A 3436  27.988  13.480   8.335
   26POPC   C3A 3437  27.814  13.462   7.936
   26POPC   C4A 3438  27.640  13.155   7.685
   26POPC   C1B 3439  27.522  13.948   8.629
   26POPC   C2B 3440  27.504  13.835   8.179
   26POPC   C3B 3441  27.546  13.817   7.704
   26POPC   C4B 3442  27.573  13.537   7.351
   27POPC   NC3 3443  24.580  15.569   9.433
   27POPC   PO4 3444  24.669  16.245   9.417
   27POPC   GL1 3445  24.659  15.960   9.056
   27POPC   GL2 3446  24.337  15.836   9.064
   27POPC   C1A 3447  24.791  15.925   8.613
   27POPC   D2A 3448  24.858  15.853   8.154
   27POPC   C3A 3449  24.568  15.972   7.839
   27POPC   C4A 3450  24.631  15.820   7.448
   27POPC   C1B 3451  24.285  15.931   8.622
   27POPC   C2B 3452  24.179  15.785   8.203
   27POPC   C3B 3453  24.061  15.812   7.760
   27POPC   C4B 3454  23.771  16.013   7.418
   28POPC   NC3 3455  26.451  20.467   9.569
   28POPC   PO4 3456  27.122  20.415   9.446
   28POPC   GL1 3457  26.913  20.601   9.104
   28POPC   GL2 3458  26.566  20.705   9.091
   28POPC   C1A 3459  26.744  20.369   8.736
   28POPC   D2A 3460  26.616  20.520   8.327
   28POPC   C3A 3461  26.970  20.713   8.115
   28POPC   C4A 3462  27.027  20.379   7.864
   28POPC   C1B 3463  26.745  20.874   8.690
   28POPC   C2B 3464  26.584  21.031   8.285
   28POPC   C3B 3465  26.519  20.880   7.844
   28POPC   C4B 3466  26.443  20.803   7.375
   29POPC   NC3 3467   6.343   5.756   9.482
   29POPC   PO4 3468   5.922   6.263   9.441
   29POPC   GL1 3469   5.811   6.040   9.080
   29POPC   GL2 3470   5.941   5.700   9.149
   29POPC   C1A 3471   5.916   5.944   8.651
   29POPC   D2A 3472   5.768   6.020   8.231
   29POPC   C3A 3473   6.015   5.895   7.860
   29POPC   C4A 3474   6.053   6.131   7.469
   29POPC   C1B 3475   5.592   5.597   8.883
   29POPC   C2B 3476   5.491   5.599   8.435
   29POPC   C3B 3477   5.613   5.545   8.017
   29POPC   C4B 3478   5.513   5.768   7.647
   30POPC   NC3 3479  16.685  38.909   9.326
   30POPC   PO4 3480  16.518  39.511   9.473
   30POPC   GL1 3481  16.831  39.429   9.111
   30POPC   GL2 3482  17.138  39.627   9.057
   30POPC   C1A 3483  16.949  39.191   8.750
   30POPC   D2A 3484  16.697  38.995   8.441
   30POPC   C3A 3485  16.829  38.857   8.019
   30POPC   C4A 3486  16.731  38.895   7.564
   30POPC   C1B 3487  17.018  39.718   8.663
   30POPC   C2B 3488  16.680  39.521   8.436
   30POPC   C3B 3489  16.682  39.368   8.009
   30POPC   C4B 3490  17.036  39.264   7.739
   31POPC   NC3 3491  36.993  13.284   9.615
   31POPC   PO4 3492  36.564  12.690   9.490
   31POPC   GL1 3493  36.820  12.690   9.106
   31POPC   GL2 3494  37.167  12.705   9.203
   31POPC   C1A 3495  36.828  12.531   8.667
   31POPC   D2A 3496  36.732  12.392   8.231
   31POPC   C3A 3497  36.847  12.669   7.913
   31POPC   C4A 3498  36.778  12.773   7.492
   31POPC   C1B 3499  37.218  12.874   8.786
   31POPC   C2B 3500  37.107  12.819   8.333
   31POPC   C3B 3501  37.253  12.984   7.921
   31POPC   C4B 3502  37.356  13.047   7.462
   32POPC   NC3 3503  42.941  42.568   9.462
   32POPC   PO4 3504  43.132  41.955   9.586
   32POPC   GL1 3505  42.998  42.134   9.177
   32POPC   GL2 3506  43.267  42.163   8.933
   32POPC   C1A 3507  42.784  42.214   8.781
   32POPC   D2A 3508  43.021  42.259   8.401
   32POPC   C3A 3509  42.800  42.164   8.045
   32POPC   C4A 3510  42.883  42.317   7.676
   32POPC   C1B 3511  43.147  42.588   8.780
   32POPC   C2B 3512  43.240  42.747   8.377
   32POPC   C3B 3513  43.202  42.563   7.976
   32POPC   C4B 3514  43.307  42.587   7.541
   33POPC   NC3 3515  14.503  18.840   9.388
   33POPC   PO4 3516  14.783  19.405   9.492
   33POPC   GL1 3517  14.579  19.244   9.089
   33POPC   GL2 3518  14.235  19.195   9.127
   33POPC   C1A 3519  14.413  19.285   8.646
   33POPC   D2A 3520  14.347  19.332   8.206
   33POPC   C3A 3521  14.694  19.147   7.988
   33POPC   C4A 3522  14.534  18.896   7.662
   33POPC   C1B 3523  14.135  18.880   8.788
   33POPC   C2B 3524  14.000  18.728   8.395
   33POPC   C3B 3525  14.173  18.664   7.996
   33POPC   C4B 3526  13.957  18.615   7.627
   34POPC   NC3 3527   1.551  28.860   9.392
   34POPC   PO4 3528   1.177  29.370   9.469
   34POPC   GL1 3529   1.015  29.230   9.097
   34POPC   GL2 3530   1.324  29.118   9.006
   34POPC   C1A 3531   0.894  29.417   8.726
   34POPC   D2A 3532   0.893  29.191   8.364
   34POPC   C3A 3533   0.978  29.354   7.981
   34POPC   C4A 3534   1.048  28.991   7.733
   34POPC   C1B 3535   1.630  28.955   8.733
   34POPC   C2B 3536   1.654  28.853   8.324
   34POPC   C3B 3537   1.434  29.120   8.082
   34POPC   C4B 3538   1.525  29.093   7.679
   35POPC   NC3 3539   0.606  19.301   9.453
   35POPC   PO4 3540   0.089  18.878   9.391
   35POPC   GL1 3541   0.353  19.011   9.077
   35POPC   GL2 3542   0.646  18.858   9.184
   35POPC   C1A 3543   0.312  19.022   8.634
   35POPC   D2A 3544   0.437  19.263   8.282
   35POPC   C3A 3545   0.411  19.114   7.846
   35POPC   C4A 3546   0.444  19.182   7.377
   35POPC   C1B 3547   0.643  18.681   8.785
   35POPC   C2B 3548   0.705  18.778   8.336
   35POPC   C3B 3549   0.858  18.904   7.939
   35POPC   C4B 3550   0.696  18.783   7.511
   36POPC   NC3 3551  17.958  34.467   9.461
   36POPC   PO4 3552  18.554  34.339   9.714
   36POPC   GL1 3553  18.411  34.615   9.313
   36POPC   GL2 3554  18.587  34.887   9.176
   36POPC   C1A 3555  18.221  34.703   8.882
   36POPC   D2A 3556  18.253  34.784   8.431
   36POPC   C3A 3557  18.271  34.448   8.115
   36POPC   C4A 3558  18.139  34.500   7.677
   36POPC   C1B 3559  18.749  34.848   8.772
   36POPC   C2B 3560  18.746  34.717   8.353
   36POPC   C3B 3561  18.577  34.821   7.958
   36POPC   C4B 3562  18.773  34.836   7.555
   37POPC   NC3 3563  36.916   8.133   9.616
   37POPC   PO4 3564  36.631   8.677   9.631
   37POPC   GL1 3565  36.734   8.373   9.218
   37POPC   GL2 3566  37.125   8.355   9.194
   37POPC   C1A 3567  36.626   8.061   8.815
   37POPC   D2A 3568  36.554   7.903   8.359
   37POPC   C3A 3569  36.632   8.294   8.073
   37POPC   C4A 3570  36.979   8.636   7.996
   37POPC   C1B 3571  37.067   8.322   8.743
   37POPC   C2B 3572  37.023   8.024   8.448
   37POPC   C3B 3573  37.111   8.121   8.053
   37POPC   C4B 3574  37.399   8.315   7.854
   38POPC   NC3 3575  18.783  24.401   9.558
   38POPC   PO4 3576  19.234  24.751   9.344
   38POPC   GL1 3577  18.879  24.677   9.080
   38POPC   GL2 3578  18.837  24.316   9.067
   38POPC   C1A 3579  18.940  24.675   8.637
   38POPC   D2A 3580  19.331  24.762   8.328
   38POPC   C3A 3581  19.174  24.682   7.918
   38POPC   C4A 3582  18.750  24.785   7.842
   38POPC   C1B 3583  19.089  24.141   8.749
   38POPC   C2B 3584  19.113  24.303   8.336
   38POPC   C3B 3585  18.852  24.267   7.999
   38POPC   C4B 3586  18.918  23.914   7.736
   39POPC   NC3 3587  25.462  21.597   9.552
   39POPC   PO4 3588  25.103  21.020   9.713
   39POPC   GL1 3589  25.335  21.169   9.274
   39POPC   GL2 3590  25.194  21.481   9.145
   39POPC   C1A 3591  25.213  21.130   8.791
   39POPC   D2A 3592  25.423  21.208   8.430
   39POPC   C3A 3593  25.271  21.151   8.032
   39POPC   C4A 3594  25.462  21.308   7.653
   39POPC   C1B 3595  25.058  21.618   8.766
   39POPC   C2B 3596  25.035  21.525   8.332
   39POPC   C3B 3597  24.933  21.532   7.923
   39POPC   C4B 3598  24.973  21.372   7.506
   40POPC   NC3 3599  31.538  27.234   9.736
   40POPC   PO4 3600  31.810  26.707   9.598
   40POPC   GL1 3601  31.668  26.742   9.183
   40POPC   GL2 3602  31.504  27.005   9.240
   40POPC   C1A 3603  31.587  26.580   8.738
   40POPC   D2A 3604  31.412  26.689   8.312
   40POPC   C3A 3605  31.621  26.772   7.899
   40POPC   C4A 3606  31.799  27.175   7.783
   40POPC   C1B 3607  31.490  27.081   8.811
   40POPC   C2B 3608  31.377  27.338   8.482
   40POPC   C3B 3609  31.352  27.166   8.103
   40POPC   C4B 3610  31.234  27.116   7.704
   41POPC   NC3 3611  37.756  10.117   9.398
   41POPC   PO4 3612  37.356  10.482   9.773
   41POPC   GL1 3613  37.388  10.564   9.251
   41POPC   GL2 3614  37.533  10.274   8.989
   41POPC   C1A 3615  37.271  10.626   8.798
   41POPC   D2A 3616  37.497  10.448   8.432
   41POPC   C3A 3617  37.383  10.552   8.016
   41POPC   C4A 3618  37.568  10.483   7.645
   41POPC   C1B 3619  37.837  10.565   8.791
   41POPC   C2B 3620  38.009  10.653   8.353
   41POPC   C3B 3621  38.071  10.495   7.893
   41POPC   C4B 3622  38.002  10.603   7.408
   42POPC   NC3 3623  39.847  20.859   9.606
   42POPC   PO4 3624  40.249  20.285   9.510
   42POPC   GL1 3625  40.069  20.561   9.226
   42POPC   GL2 3626  40.273  20.890   9.278
   42POPC   C1A 3627  39.820  20.529   8.842
   42POPC   D2A 3628  39.989  20.560   8.442
   42POPC   C3A 3629  39.923  20.356   8.025
   42POPC   C4A 3630  39.713  20.405   7.609
   42POPC   C1B 3631  40.339  20.778   8.852
   42POPC   C2B 3632  40.371  20.935   8.450
   42POPC   C3B 3633  40.295  20.752   8.082
   42POPC   C4B 3634  40.204  20.629   7.706
   43POPC   NC3 3635  12.166  38.870   9.629
   43POPC   PO4 3636  12.185  38.264   9.476
   43POPC   GL1 3637  12.063  38.379   9.104
   43POPC   GL2 3638  11.844  38.608   9.261
   43POPC   C1A 3639  12.200  38.518   8.678
   43POPC   D2A 3640  12.141  38.329   8.290
   43POPC   C3A 3641  12.331  38.437   7.958
   43POPC   C4A 3642  12.182  38.654   7.666
   43POPC   C1B 3643  11.682  38.574   8.824
   43POPC   C2B 3644  11.633  38.428   8.405
   43POPC   C3B 3645  11.793  38.572   8.010
   43POPC   C4B 3646  11.684  38.538   7.589
   44POPC   NC3 3647  44.400  10.577   9.830
   44POPC   PO4 3648  43.732  10.724   9.724
   44POPC   GL1 3649  43.707  10.666   9.192
   44POPC   GL2 3650  44.008  10.443   9.047
   44POPC   C1A 3651  43.612  10.420   8.770
   44POPC   D2A 3652  43.874  10.452   8.397
   44POPC   C3A 3653  43.750  10.179   8.070
   44POPC   C4A 3654  43.850  10.325   7.644
   44POPC   C1B 3655  44.201  10.219   8.736
   44POPC   C2B 3656  44.375  10.194   8.360
   44POPC   C3B 3657  44.236  10.335   7.987
   44POPC   C4B 3658  44.312  10.109   7.630
   45POPC   NC3 3659   7.988   0.868   9.348
   45POPC   PO4 3660   8.460   1.363   9.531
   45POPC   GL1 3661   8.201   1.442   9.143
   45POPC   GL2 3662   7.935   1.211   8.966
   45POPC   C1A 3663   8.307   1.449   8.709
   45POPC   D2A 3664   8.101   1.328   8.334
   45POPC   C3A 3665   8.308   1.463   7.960
   45POPC   C4A 3666   8.136   1.720   7.681
   45POPC   C1B 3667   7.903   0.922   8.591
   45POPC   C2B 3668   8.113   0.834   8.206
   45POPC   C3B 3669   8.106   1.010   7.849
   45POPC   C4B 3670   7.843   1.288   7.722
   46POPC   NC3 3671  10.250  12.278   9.452
   46POPC   PO4 3672  10.746  11.916   9.730
   46POPC   GL1 3673  10.762  12.109   9.264
   46POPC   GL2 3674  10.699  12.485   9.225
   46POPC   C1A 3675  10.597  11.997   8.819
   46POPC   D2A 3676  10.405  11.795   8.437
   46POPC   C3A 3677  10.637  11.913   8.058
   46POPC   C4A 3678  10.405  12.148   7.745
   46POPC   C1B 3679  10.919  12.424   8.830
   46POPC   C2B 3680  10.882  12.209   8.420
   46POPC   C3B 3681  10.776  12.401   8.010
   46POPC   C4B 3682  10.874  12.302   7.624
   47POPC   NC3 3683   1.689  13.488   9.301
   47POPC   PO4 3684   2.142  13.961   9.288
   47POPC   GL1 3685   2.066  13.684   8.971
   47POPC   GL2 3686   2.144  13.313   9.066
   47POPC   C1A 3687   2.280  13.592   8.597
   47POPC   D2A 3688   2.352  13.260   8.313
   47POPC   C3A 3689   2.088  13.360   7.982
   47POPC   C4A 3690   1.937  13.784   7.910
   47POPC   C1B 3691   1.871  13.294   8.716
   47POPC   C2B 3692   1.763  13.551   8.371
   47POPC   C3B 3693   1.577  13.431   8.000
   47POPC   C4B 3694   1.747  13.464   7.553
   48POPC   NC3 3695  24.937  22.798   9.190
   48POPC   PO4 3696  25.453  23.053   9.552
   48POPC   GL1 3697  25.406  23.016   9.141
   48POPC   GL2 3698  25.577  22.704   9.133
   48POPC   C1A 3699  25.255  23.262   8.774
   48POPC   D2A 3700  25.351  23.309   8.340
   48POPC   C3A 3701  25.054  23.084   8.096
   48POPC   C4A 3702  24.930  23.115   7.688
   48POPC   C1B 3703  25.522  22.824   8.679
   48POPC   C2B 3704  25.511  22.841   8.218
   48POPC   C3B 3705  25.402  22.792   7.778
   48POPC   C4B 3706  25.125  22.726   7.429
   49POPC   NC3 3707  25.194  17.968   9.406
   49POPC   PO4 3708  25.267  18.520   9.149
   49POPC   GL1 3709  25.379  18.134   8.967
   49POPC   GL2 3710  25.062  17.932   8.887
   49POPC   C1A 3711  25.519  17.901   8.646
   49POPC   D2A 3712  25.502  17.986   8.236
   49POPC   C3A 3713  25.411  18.397   8.128
   49POPC   C4A 3714  25.646  18.519   7.813
   49POPC   C1B 3715  25.102  18.222   8.525
   49POPC   C2B 3716  24.981  18.634   8.331
   49POPC   C3B 3717  24.996  18.721   7.891
   49POPC   C4B 3718  25.215  18.527   7.551
   50POPC   NC3 3719  25.447  14.084   9.501
   50POPC   PO4 3720  24.955  14.492   9.437
   50POPC   GL1 3721  25.334  14.467   9.153
   50POPC   GL2 3722  25.693  14.523   9.248
   50POPC   C1A 3723  25.501  14.656   8.784
   50POPC   D2A 3724  25.413  14.516   8.389
   50POPC   C3A 3725  25.116  14.719   8.142
   50POPC   C4A 3726  25.265  14.525   7.780
   50POPC   C1B 3727  25.779  14.207   8.889
   50POPC   C2B 3728  25.640  14.043   8.457
   50POPC   C3B 3729  25.485  14.143   8.037
   50POPC   C4B 3730  25.624  13.912   7.683
   51POPC   NC3 3731   1.720  31.351   9.567
   51POPC   PO4 3732   2.208  31.110   9.368
   51POPC   GL1 3733   1.940  31.376   9.099
   51POPC   GL2 3734   2.178  31.626   9.020
   51POPC   C1A 3735   1.965  31.382   8.641
   51POPC   D2A 3736   2.356  31.368   8.419
   51POPC   C3A 3737   2.224  31.232   8.043
   51POPC   C4A 3738   2.200  31.129   7.648
   51POPC   C1B 3739   1.829  31.889   8.798
   51POPC   C2B 3740   1.649  31.830   8.372
   51POPC   C3B 3741   1.658  31.494   8.080
   51POPC   C4B 3742   1.963  31.578   7.767
   52POPC   NC3 3743  28.034  41.866   9.561
   52POPC   PO4 3744  28.479  41.392   9.500
   52POPC   GL1 3745  28.292  41.622   9.210
   52POPC   GL2 3746  28.454  41.948   9.193
   52POPC   C1A 3747  28.184  41.588   8.828
   52POPC   D2A 3748  28.366  41.370   8.499
   52POPC   C3A 3749  28.274  41.629   8.181
   52POPC   C4A 3750  28.164  41.753   7.803
   52POPC   C1B 3751  28.678  42.136   8.826
   52POPC   C2B 3752  28.763  42.053   8.360
   52POPC   C3B 3753  28.659  41.857   7.947
   52POPC   C4B 3754  28.593  41.400   7.867
   53POPC   NC3 3755  36.504  44.736   9.498
   53POPC   PO4 3756  37.088  44.515   9.621
   53POPC   GL1 3757  36.872  44.472   9.210
   53POPC   GL2 3758  36.879  44.823   9.129
   53POPC   C1A 3759  36.881  44.484   8.732
   53POPC   D2A 3760  37.047  44.711   8.381
   53POPC   C3A 3761  36.955  44.572   8.012
   53POPC   C4A 3762  36.635  44.462   7.810
   53POPC   C1B 3763  36.606  44.965   8.794
   53POPC   C2B 3764  36.563  44.842   8.360
   53POPC   C3B 3765  36.610  44.983   7.950
   53POPC   C4B 3766  36.613   0.080   7.537
   54POPC   NC3 3767  23.131  27.436   9.530
   54POPC   PO4 3768  22.602  27.805   9.440
   54POPC   GL1 3769  22.841  27.816   9.087
   54POPC   GL2 3770  22.924  27.446   9.071
   54POPC   C1A 3771  23.215  27.785   8.827
   54POPC   D2A 3772  23.206  27.511   8.473
   54POPC   C3A 3773  23.158  27.703   8.081
   54POPC   C4A 3774  23.031  27.853   7.688
   54POPC   C1B 3775  22.967  27.148   8.745
   54POPC   C2B 3776  22.786  27.088   8.375
   54POPC   C3B 3777  22.898  27.264   8.013
   54POPC   C4B 3778  22.807  27.415   7.600
   55POPC   NC3 3779  11.001  28.066   9.518
   55POPC   PO4 3780  10.450  28.479   9.610
   55POPC   GL1 3781  10.719  28.430   9.260
   55POPC   GL2 3782  10.582  28.117   9.179
   55POPC   C1A 3783  10.855  28.391   8.831
   55POPC   D2A 3784  10.552  28.225   8.546
   55POPC   C3A 3785  10.667  28.267   8.115
   55POPC   C4A 3786  10.857  28.364   7.725
   55POPC   C1B 3787  10.179  28.100   8.888
   55POPC   C2B 3788   9.976  28.017   8.458
   55POPC   C3B 3789  10.222  27.951   8.068
   55POPC   C4B 3790  10.370  28.176   7.702
   56POPC   NC3 3791  27.718  44.465   9.522
   56POPC   PO4 3792  27.132  44.620   9.429
   56POPC   GL1 3793  27.542  44.769   9.159
   56POPC   GL2 3794  27.801  44.521   9.032
   56POPC   C1A 3795  27.601  44.885   8.721
   56POPC   D2A 3796  27.631  44.671   8.298
   56POPC   C3A 3797  27.390  44.858   8.019
   56POPC   C4A 3798  27.519   0.196   7.813
   56POPC   C1B 3799  28.007  44.565   8.634
   56POPC   C2B 3800  28.145  44.425   8.247
   56POPC   C3B 3801  27.905  44.519   7.879
   56POPC   C4B 3802  27.463  44.406   7.828
   57POPC   NC3 3803  18.361   5.473   9.421
   57POPC   PO4 3804  18.416   4.821   9.518
   57POPC   GL1 3805  18.211   5.006   9.199
   57POPC   GL2 3806  18.419   4.858   8.959
   57POPC   C1A 3807  18.134   5.253   8.792
   57POPC   D2A 3808  18.331   5.246   8.367
   57POPC   C3A 3809  18.130   5.342   7.962
   57POPC   C4A 3810  17.952   4.987   7.744
   57POPC   C1B 3811  18.764   4.963   8.674
   57POPC   C2B 3812  18.740   4.941   8.233
   57POPC   C3B 3813  18.445   4.913   7.920
   57POPC   C4B 3814  18.263   4.575   7.674
   58POPC   NC3 3815  16.978  16.965   9.345
   58POPC   PO4 3816  16.512  16.557   9.564
   58POPC   GL1 3817  16.644  16.632   9.175
   58POPC   GL2 3818  16.712  16.301   9.132
   58POPC   C1A 3819  16.515  16.924   8.820
   58POPC   D2A 3820  16.419  17.141   8.413
   58POPC   C3A 3821  16.410  16.847   8.081
   58POPC   C4A 3822  16.699  16.845   7.744
   58POPC   C1B 3823  16.900  16.487   8.762
   58POPC   C2B 3824  16.760  16.652   8.401
   58POPC   C3B 3825  16.730  16.437   8.041
   58POPC   C4B 3826  16.934  16.352   7.669
   59POPC   NC3 3827  13.784  26.854   9.543
   59POPC   PO4 3828  13.190  26.494   9.462
   59POPC   GL1 3829  13.449  26.633   9.146
   59POPC   GL2 3830  13.443  27.003   9.124
   59POPC   C1A 3831  13.388  26.681   8.713
   59POPC   D2A 3832  13.376  26.861   8.304
   59POPC   C3A 3833  13.692  26.768   8.022
   59POPC   C4A 3834  13.775  26.554   7.681
   59POPC   C1B 3835  13.466  27.200   8.676
   59POPC   C2B 3836  13.791  27.193   8.346
   59POPC   C3B 3837  13.838  27.249   7.912
   59POPC   C4B 3838  13.748  27.068   7.505
   60POPC   NC3 3839  27.452  24.022   9.343
   60POPC   PO4 3840  27.584  23.377   9.480
   60POPC   GL1 3841  27.576  23.563   9.078
   60POPC   GL2 3842  27.226  23.658   9.044
   60POPC   C1A 3843  27.619  23.842   8.701
   60POPC   D2A 3844  27.759  24.028   8.298
   60POPC   C3A 3845  27.712  23.762   7.931
   60POPC   C4A 3846  27.363  23.851   7.673
   60POPC   C1B 3847  27.136  23.611   8.597
   60POPC   C2B 3848  27.232  23.646   8.144
   60POPC   C3B 3849  27.121  23.402   7.744
   60POPC   C4B 3850  27.203  23.492   7.290
   61POPC   NC3 3851  32.052  26.300   9.542
   61POPC   PO4 3852  32.638  25.980   9.492
   61POPC   GL1 3853  32.403  26.159   9.159
   61POPC   GL2 3854  32.634  26.341   8.962
   61POPC   C1A 3855  32.117  26.377   8.873
   61POPC   D2A 3856  31.926  26.275   8.496
   61POPC   C3A 3857  32.230  26.125   8.247
   61POPC   C4A 3858  32.181  26.025   7.885
   61POPC   C1B 3859  32.651  25.900   8.782
   61POPC   C2B 3860  32.498  25.733   8.432
   61POPC   C3B 3861  32.649  25.732   8.029
   61POPC   C4B 3862  32.624  26.006   7.691
   62POPC   NC3 3863   2.396  38.037   9.393
   62POPC   PO4 3864   2.815  38.521   9.681
   62POPC   GL1 3865   2.835  38.297   9.246
   62POPC   GL2 3866   2.827  38.552   8.999
   62POPC   C1A 3867   3.096  38.149   8.877
   62POPC   D2A 3868   3.038  38.436   8.524
   62POPC   C3A 3869   2.852  38.253   8.160
   62POPC   C4A 3870   2.976  38.456   7.790
   62POPC   C1B 3871   2.591  38.236   8.717
   62POPC   C2B 3872   2.357  38.350   8.344
   62POPC   C3B 3873   2.488  38.622   8.013
   62POPC   C4B 3874   2.642  38.796   7.652
   63POPC   NC3 3875  27.065  27.144   9.801
   63POPC   PO4 3876  26.594  27.654   9.722
   63POPC   GL1 3877  26.768  27.652   9.315
   63POPC   GL2 3878  27.128  27.560   9.275
   63POPC   C1A 3879  26.761  27.638   8.873
   63POPC   D2A 3880  26.601  27.488   8.486
   63POPC   C3A 3881  26.933  27.580   8.185
   63POPC   C4A 3882  27.032  27.704   7.782
   63POPC   C1B 3883  27.223  27.303   8.867
   63POPC   C2B 3884  27.345  27.339   8.403
   63POPC   C3B 3885  27.254  27.253   7.935
   63POPC   C4B 3886  27.254  27.425   7.419
   64POPC   NC3 3887  32.642  23.196   9.425
   64POPC   PO4 3888  32.130  23.785   9.497
   64POPC   GL1 3889  32.286  23.690   9.129
   64POPC   GL2 3890  32.501  23.968   9.042
   64POPC   C1A 3891  32.065  23.653   8.748
   64POPC   D2A 3892  32.123  23.872   8.364
   64POPC   C3A 3893  32.006  23.717   7.957
   64POPC   C4A 3894  32.192  23.766   7.514
   64POPC   C1B 3895  32.575  23.704   8.697
   64POPC   C2B 3896  32.652  23.738   8.283
   64POPC   C3B 3897  32.468  23.942   7.964
   64POPC   C4B 3898  32.394  24.204   7.650
   65POPC   NC3 3899  19.502   4.668   9.479
   65POPC   PO4 3900  19.715   5.309   9.394
   65POPC   GL1 3901  19.760   4.939   9.123
   65POPC   GL2 3902  20.118   4.894   9.040
   65POPC   C1A 3903  19.595   4.979   8.718
   65POPC   D2A 3904  19.656   5.313   8.416
   65POPC   C3A 3905  19.519   5.095   8.057
   65POPC   C4A 3906  19.535   5.089   7.626
   65POPC   C1B 3907  20.091   5.108   8.674
   65POPC   C2B 3908  20.016   4.969   8.272
   65POPC   C3B 3909  19.970   5.166   7.883
   65POPC   C4B 3910  20.073   4.938   7.501
   66POPC   NC3 3911  21.293  25.231   9.653
   66POPC   PO4 3912  21.756  25.583   9.355
   66POPC   GL1 3913  21.696  25.404   8.997
   66POPC   GL2 3914  21.466  25.151   9.105
   66POPC   C1A 3915  21.666  25.147   8.651
   66POPC   D2A 3916  21.491  24.983   8.294
   66POPC   C3A 3917  21.639  25.043   7.877
   66POPC   C4A 3918  21.536  25.438   7.740
   66POPC   C1B 3919  21.201  24.922   8.736
   66POPC   C2B 3920  20.994  25.048   8.351
   66POPC   C3B 3921  21.137  25.160   7.954
   66POPC   C4B 3922  21.217  25.071   7.546
   67POPC   NC3 3923  44.667  20.977   9.735
   67POPC   PO4 3924  44.828  20.391   9.501
   67POPC   GL1 3925  44.785  20.726   9.224
   67POPC   GL2 3926  44.459  20.736   9.091
   67POPC   C1A 3927   0.007  20.933   8.848
   67POPC   D2A 3928  44.983  20.801   8.418
   67POPC   C3A 3929  44.681  20.979   8.139
   67POPC   C4A 3930  44.618  20.855   7.738
   67POPC   C1B 3931  44.630  20.594   8.758
   67POPC   C2B 3932  44.515  20.541   8.375
   67POPC   C3B 3933  44.712  20.429   8.027
   67POPC   C4B 3934  44.451  20.363   7.722
   68POPC   NC3 3935   1.563  11.741   9.437
   68POPC   PO4 3936   2.210  11.856   9.413
   68POPC   GL1 3937   2.038  11.973   9.046
   68POPC   GL2 3938   1.721  12.073   9.070
   68POPC   C1A 3939   2.091  12.298   8.759
   68POPC   D2A 3940   2.288  12.217   8.388
   68POPC   C3A 3941   2.103  12.371   8.057
   68POPC   C4A 3942   2.273  12.201   7.718
   68POPC   C1B 3943   1.558  12.365   8.799
   68POPC   C2B 3944   1.670  12.395   8.370
   68POPC   C3B 3945   1.598  12.258   7.956
   68POPC   C4B 3946   1.830  11.903   7.759
   69POPC   NC3 3947  31.151  34.422   9.500
   69POPC   PO4 3948  31.778  34.754   9.675
   69POPC   GL1 3949  31.543  34.722   9.301
   69POPC   GL2 3950  31.740  34.404   9.254
   69POPC   C1A 3951  31.540  34.671   8.852
   69POPC   D2A 3952  31.762  34.636   8.466
   69POPC   C3A 3953  31.546  34.782   8.092
   69POPC   C4A 3954  31.479  34.743   7.654
   69POPC   C1B 3955  31.756  34.201   8.824
   69POPC   C2B 3956  31.580  34.152   8.396
   69POPC   C3B 3957  31.603  34.294   7.956
   69POPC   C4B 3958  31.793  34.138   7.557
   70POPC   NC3 3959  25.147  31.210   9.429
   70POPC   PO4 3960  25.805  31.486   9.559
   70POPC   GL1 3961  25.568  31.407   9.156
   70POPC   GL2 3962  25.478  31.092   9.057
   70POPC   C1A 3963  25.384  31.606   8.770
   70POPC   D2A 3964  25.086  31.592   8.406
   70POPC   C3A 3965  25.181  31.669   7.981
   70POPC   C4A 3966  25.155  31.433   7.612
   70POPC   C1B 3967  25.181  31.155   8.701
   70POPC   C2B 3968  24.812  31.156   8.435
   70POPC   C3B 3969  24.925  31.193   8.006
   70POPC   C4B 3970  24.855  31.019   7.580
   71POPC   NC3 3971   4.767  38.399   9.520
   71POPC   PO4 3972   5.380  38.615   9.588
   71POPC   GL1 3973   5.126  38.639   9.208
   71POPC   GL2 3974   5.047  38.288   9.115
   71POPC   C1A 3975   4.829  38.693   8.866
   71POPC   D2A 3976   4.738  38.673   8.408
   71POPC   C3A 3977   5.048  38.649   8.042
   71POPC   C4A 3978   5.068  38.653   7.581
   71POPC   C1B 3979   5.148  38.308   8.690
   71POPC   C2B 3980   5.546  38.312   8.473
   71POPC   C3B 3981   5.654  38.334   8.065
   71POPC   C4B 3982   5.315  38.234   7.781
   72POPC   NC3 3983  17.602  27.309   9.497
   72POPC   PO4 3984  17.411  27.934   9.617
   72POPC   GL1 3985  17.639  27.738   9.251
   72POPC   GL2 3986  17.869  27.887   9.110
   72POPC   C1A 3987  17.751  27.409   8.882
   72POPC   D2A 3988  17.518  27.316   8.489
   72POPC   C3A 3989  17.698  27.352   8.091
   72POPC   C4A 3990  17.520  27.389   7.697
   72POPC   C1B 3991  17.464  27.815   8.793
   72POPC   C2B 3992  17.314  27.831   8.391
   72POPC   C3B 3993  17.570  27.846   8.040
   72POPC   C4B 3994  17.667  27.869   7.608
   73POPC   NC3 3995  37.549   9.354   9.533
   73POPC   PO4 3996  37.316   8.776   9.696
   73POPC   GL1 3997  37.472   8.897   9.307
   73POPC   GL2 3998  37.760   9.089   9.139
   73POPC   C1A 3999  37.324   8.843   8.938
   73POPC   D2A 4000  37.638   8.879   8.687
   73POPC   C3A 4001  37.606   9.131   8.305
   73POPC   C4A 4002  37.851   9.179   7.900
   73POPC   C1B 4003  37.454   9.325   8.857
   73POPC   C2B 4004  37.261   9.461   8.463
   73POPC   C3B 4005  37.448   9.557   8.056
   73POPC   C4B 4006  37.460   9.368   7.628
   74POPC   NC3 4007   7.206  44.288   9.510
   74POPC   PO4 4008   7.707  43.740   9.488
   74POPC   GL1 4009   7.438  43.927   9.176
   74POPC   GL2 4010   7.067  43.886   9.199
   74POPC   C1A 4011   7.314  43.812   8.768
   74POPC   D2A 4012   7.500  43.797   8.390
   74POPC   C3A 4013   7.524  44.160   8.165
   74POPC   C4A 4014   7.412  43.931   7.820
   74POPC   C1B 4015   7.048  44.241   8.864
   74POPC   C2B 4016   7.049  44.288   8.374
   74POPC   C3B 4017   7.124  44.346   7.894
   74POPC   C4B 4018   7.176  44.161   7.448
   75POPC   NC3 4019  19.175  44.878   9.805
   75POPC   PO4 4020  18.795  44.442   9.605
   75POPC   GL1 4021  18.990  44.683   9.258
   75POPC   GL2 4022  18.704  44.801   9.035
   75POPC   C1A 4023  19.169  44.773   8.857
   75POPC   D2A 4024  18.895  44.703   8.549
   75POPC   C3A 4025  19.038  44.552   8.162
   75POPC   C4A 4026  18.921  44.493   7.732
   75POPC   C1B 4027  18.683  44.350   8.869
   75POPC   C2B 4028  18.784  44.159   8.467
   75POPC   C3B 4029  18.671  44.201   8.053
   75POPC   C4B 4030  18.551  44.161   7.592
   76POPC   NC3 4031   8.401  29.595   9.863
   76POPC   PO4 4032   7.933  29.851   9.421
   76POPC   GL1 4033   7.922  30.029   9.053
   76POPC   GL2 4034   8.250  30.150   8.979
   76POPC   C1A 4035   7.851  30.124   8.642
   76POPC   D2A 4036   7.915  29.907   8.307
   76POPC   C3A 4037   8.116  30.068   7.977
   76POPC   C4A 4038   8.097  29.823   7.599
   76POPC   C1B 4039   8.270  29.821   8.711
   76POPC   C2B 4040   8.435  29.847   8.327
   76POPC   C3B 4041   8.453  29.677   7.948
   76POPC   C4B 4042   8.577  29.664   7.507
   77POPC   NC3 4043  18.575   8.244   9.363
   77POPC   PO4 4044  18.016   8.457   9.674
   77POPC   GL1 4045  18.008   8.308   9.171
   77POPC   GL2 4046  18.025   7.936   9.095
   77POPC   C1A 4047  18.163   8.290   8.717
   77POPC   D2A 4048  17.931   8.078   8.363
   77POPC   C3A 4049  18.154   8.042   7.980
   77POPC   C4A 4050  18.376   8.379   7.745
   77POPC   C1B 4051  18.129   7.762   8.694
   77POPC   C2B 4052  18.492   7.810   8.399
   77POPC   C3B 4053  18.652   7.985   7.994
   77POPC   C4B 4054  18.457   7.882   7.564
   78POPC   NC3 4055  43.509  17.606   9.527
   78POPC   PO4 4056  42.887  17.695   9.552
   78POPC   GL1 4057  43.112  17.677   9.201
   78POPC   GL2 4058  43.158  17.323   9.236
   78POPC   C1A 4059  43.044  17.816   8.803
   78POPC   D2A 4060  42.747  17.764   8.492
   78POPC   C3A 4061  43.029  17.761   8.158
   78POPC   C4A 4062  43.060  17.589   7.758
   78POPC   C1B 4063  43.416  17.404   8.866
   78POPC   C2B 4064  43.414  17.541   8.448
   78POPC   C3B 4065  43.444  17.418   8.030
   78POPC   C4B 4066  43.517  17.460   7.560
   79POPC   NC3 4067  15.537  32.140   9.454
   79POPC   PO4 4068  14.882  32.102   9.415
   79POPC   GL1 4069  15.152  32.337   9.164
   79POPC   GL2 4070  14.939  32.427   8.930
   79POPC   C1A 4071  15.485  32.364   8.843
   79POPC   D2A 4072  15.570  32.559   8.451
   79POPC   C3A 4073  15.540  32.359   8.025
   79POPC   C4A 4074  15.359  32.010   7.833
   79POPC   C1B 4075  15.124  31.998   8.763
   79POPC   C2B 4076  15.092  31.927   8.302
   79POPC   C3B 4077  15.003  32.317   8.057
   79POPC   C4B 4078  15.149  32.524   7.686
   80POPC   NC3 4079  21.289   3.917   9.545
   80POPC   PO4 4080  21.136   3.221   9.622
   80POPC   GL1 4081  21.214   3.424   9.212
   80POPC   GL2 4082  21.450   3.708   9.101
   80POPC   C1A 4083  21.114   3.440   8.778
   80POPC   D2A 4084  21.334   3.620   8.452
   80POPC   C3A 4085  21.214   3.414   8.093
   80POPC   C4A 4086  21.075   3.568   7.712
   80POPC   C1B 4087  21.671   3.965   8.773
   80POPC   C2B 4088  21.622   4.038   8.332
   80POPC   C3B 4089  21.631   3.711   8.031
   80POPC   C4B 4090  21.574   3.540   7.620
   81POPC   NC3 4091  27.203   3.548   9.287
   81POPC   PO4 4092  26.745   3.680   9.742
   81POPC   GL1 4093  26.695   3.475   9.230
   81POPC   GL2 4094  26.933   3.298   8.957
   81POPC   C1A 4095  26.480   3.497   8.808
   81POPC   D2A 4096  26.312   3.454   8.370
   81POPC   C3A 4097  26.611   3.636   8.104
   81POPC   C4A 4098  26.754   3.800   7.729
   81POPC   C1B 4099  27.033   3.662   8.654
   81POPC   C2B 4100  27.141   3.649   8.204
   81POPC   C3B 4101  27.017   3.365   7.883
   81POPC   C4B 4102  26.922   3.369   7.463
   82POPC   NC3 4103  33.882  30.521   9.436
   82POPC   PO4 4104  34.311  31.039   9.467
   82POPC   GL1 4105  34.060  30.866   9.094
   82POPC   GL2 4106  33.715  30.736   8.995
   82POPC   C1A 4107  34.028  30.878   8.633
   82POPC   D2A 4108  34.014  30.984   8.189
   82POPC   C3A 4109  33.689  30.807   7.948
   82POPC   C4A 4110  33.859  30.702   7.566
   82POPC   C1B 4111  33.755  30.421   8.629
   82POPC   C2B 4112  33.749  30.334   8.178
   82POPC   C3B 4113  33.708  30.258   7.723
   82POPC   C4B 4114  33.486  30.439   7.332
   83POPC   NC3 4115  41.196  42.235   9.525
   83POPC   PO4 4116  41.796  42.508   9.514
   83POPC   GL1 4117  41.563  42.403   9.154
   83POPC   GL2 4118  41.280  42.179   9.034
   83POPC   C1A 4119  41.683  42.283   8.751
   83POPC   D2A 4120  41.363  42.239   8.475
   83POPC   C3A 4121  41.436  42.206   8.081
   83POPC   C4A 4122  41.475  42.451   7.765
   83POPC   C1B 4123  41.234  41.839   8.739
   83POPC   C2B 4124  41.315  41.753   8.310
   83POPC   C3B 4125  41.117  41.840   7.907
   83POPC   C4B 4126  41.146  42.149   7.548
   84POPC   NC3 4127  30.335  16.776   9.625
   84POPC   PO4 4128  29.836  16.445   9.323
   84POPC   GL1 4129  30.060  16.720   9.168
   84POPC   GL2 4130  29.762  16.881   9.041
   84POPC   C1A 4131  30.166  16.575   8.764
   84POPC   D2A 4132  30.036  16.720   8.394
   84POPC   C3A 4133  29.943  16.564   8.024
   84POPC   C4A 4134  29.764  16.709   7.649
   84POPC   C1B 4135  30.077  17.067   8.773
   84POPC   C2B 4136  30.391  17.073   8.459
   84POPC   C3B 4137  30.205  17.093   8.067
   84POPC   C4B 4138  30.249  16.882   7.708
   85POPC   NC3 4139  34.366  10.688   9.349
   85POPC   PO4 4140  35.069  10.578   9.383
   85POPC   GL1 4141  34.733  10.456   9.066
   85POPC   GL2 4142  34.482  10.182   9.054
   85POPC   C1A 4143  34.489  10.504   8.648
   85POPC   D2A 4144  34.424  10.797   8.268
   85POPC   C3A 4145  34.582  10.682   7.868
   85POPC   C4A 4146  34.726  10.581   7.490
   85POPC   C1B 4147  34.813  10.102   8.729
   85POPC   C2B 4148  34.872  10.306   8.349
   85POPC   C3B 4149  34.467  10.309   8.163
   85POPC   C4B 4150  34.362  10.210   7.764
   86POPC   NC3 4151   8.426  15.009   9.448
   86POPC   PO4 4152   7.881  15.185   9.512
   86POPC   GL1 4153   8.066  15.244   9.146
   86POPC   GL2 4154   8.111  14.912   9.064
   86POPC   C1A 4155   8.101  15.382   8.750
   86POPC   D2A 4156   8.032  15.689   8.461
   86POPC   C3A 4157   8.277  15.555   8.109
   86POPC   C4A 4158   8.030  15.496   7.739
   86POPC   C1B 4159   8.029  14.887   8.648
   86POPC   C2B 4160   8.168  14.918   8.245
   86POPC   C3B 4161   8.107  14.689   7.890
   86POPC   C4B 4162   8.125  14.912   7.524
   87POPC   NC3 4163  43.300  24.773   9.589
   87POPC   PO4 4164  42.937  24.246   9.537
   87POPC   GL1 4165  42.976  24.446   9.169
   87POPC   GL2 4166  43.306  24.436   9.199
   87POPC   C1A 4167  42.889  24.478   8.732
   87POPC   D2A 4168  43.099  24.808   8.504
   87POPC   C3A 4169  43.229  24.735   8.076
   87POPC   C4A 4170  42.957  24.425   7.863
   87POPC   C1B 4171  43.400  24.462   8.793
   87POPC   C2B 4172  43.284  24.320   8.381
   87POPC   C3B 4173  43.431  24.196   7.965
   87POPC   C4B 4174  43.483  24.237   7.476
   88POPC   NC3 4175   2.013   1.530   9.348
   88POPC   PO4 4176   2.003   0.849   9.464
   88POPC   GL1 4177   2.024   1.029   9.044
   88POPC   GL2 4178   2.182   1.299   8.920
   88POPC   C1A 4179   1.774   1.113   8.655
   88POPC   D2A 4180   1.848   1.313   8.280
   88POPC   C3A 4181   2.114   1.199   7.948
   88POPC   C4A 4182   1.825   1.263   7.602
   88POPC   C1B 4183   1.945   1.614   8.692
   88POPC   C2B 4184   2.082   1.884   8.374
   88POPC   C3B 4185   2.005   1.700   8.000
   88POPC   C4B 4186   2.215   1.603   7.639
   89POPC   NC3 4187  10.561  24.991   9.621
   89POPC   PO4 4188  11.096  25.288   9.843
   89POPC   GL1 4189  10.932  25.191   9.279
   89POPC   GL2 4190  10.595  25.021   9.126
   89POPC   C1A 4191  10.823  25.312   8.805
   89POPC   D2A 4192  10.613  25.380   8.388
   89POPC   C3A 4193  10.861  25.242   8.016
   89POPC   C4A 4194  10.749  25.169   7.575
   89POPC   C1B 4195  10.334  25.117   8.758
   89POPC   C2B 4196  10.126  25.134   8.346
   89POPC   C3B 4197  10.319  25.207   7.962
   89POPC   C4B 4198  10.236  24.975   7.595
   90POPC   NC3 4199  43.704  43.876   9.608
   90POPC   PO4 4200  44.401  44.010   9.480
   90POPC   GL1 4201  44.040  43.830   9.213
   90POPC   GL2 4202  43.686  43.672   9.155
   90POPC   C1A 4203  44.012  43.920   8.799
   90POPC   D2A 4204  44.068  43.745   8.403
   90POPC   C3A 4205  44.046  44.002   8.081
   90POPC   C4A 4206  43.928  43.735   7.775
   90POPC   C1B 4207  43.495  43.951   8.864
   90POPC   C2B 4208  43.627  44.050   8.454
   90POPC   C3B 4209  43.530  43.883   8.077
   90POPC   C4B 4210  43.665  44.186   7.812
   91POPC   NC3 4211  11.956  27.274   9.377
   91POPC   PO4 4212  12.028  27.841   9.596
   91POPC   GL1 4213  12.180  27.667   9.136
   91POPC   GL2 4214  12.154  27.275   8.932
   91POPC   C1A 4215  12.089  27.706   8.702
   91POPC   D2A 4216  11.971  27.347   8.440
   91POPC   C3A 4217  11.821  27.530   8.058
   91POPC   C4A 4218  12.096  27.814   7.788
   91POPC   C1B 4219  12.513  27.210   8.701
   91POPC   C2B 4220  12.600  27.353   8.342
   91POPC   C3B 4221  12.303  27.335   8.037
   91POPC   C4B 4222  12.380  27.345   7.641
   92POPC   NC3 4223  38.380  25.080   9.487
   92POPC   PO4 4224  38.874  25.567   9.621
   92POPC   GL1 4225  38.623  25.572   9.236
   92POPC   GL2 4226  38.558  25.271   9.062
   92POPC   C1A 4227  38.704  25.631   8.762
   92POPC   D2A 4228  38.584  25.406   8.395
   92POPC   C3A 4229  38.684  25.566   8.015
   92POPC   C4A 4230  38.700  25.456   7.613
   92POPC   C1B 4231  38.218  25.461   8.809
   92POPC   C2B 4232  38.073  25.330   8.411
   92POPC   C3B 4233  38.206  25.379   7.997
   92POPC   C4B 4234  38.170  25.322   7.559
   93POPC   NC3 4235  29.465   5.505   9.399
   93POPC   PO4 4236  28.951   5.892   9.673
   93POPC   GL1 4237  29.123   6.024   9.256
   93POPC   GL2 4238  29.108   5.715   9.076
   93POPC   C1A 4239  29.244   6.103   8.792
   93POPC   D2A 4240  29.357   5.904   8.390
   93POPC   C3A 4241  29.276   6.109   8.012
   93POPC   C4A 4242  28.932   6.051   7.749
   93POPC   C1B 4243  29.356   5.475   8.736
   93POPC   C2B 4244  29.635   5.460   8.374
   93POPC   C3B 4245  29.448   5.449   7.966
   93POPC   C4B 4246  29.369   5.763   7.666
   94POPC   NC3 4247  32.099   0.568   9.465
   94POPC   PO4 4248  32.355  44.988   9.478
   94POPC   GL1 4249  32.350   0.107   9.083
   94POPC   GL2 4250  32.505   0.400   9.137
   94POPC   C1A 4251  32.096   0.359   8.805
   94POPC   D2A 4252  31.904   0.571   8.465
   94POPC   C3A 4253  31.960   0.383   8.086
   94POPC   C4A 4254  32.144   0.368   7.693
   94POPC   C1B 4255  32.565   0.565   8.782
   94POPC   C2B 4256  32.416   0.624   8.399
   94POPC   C3B 4257  32.655   0.726   8.033
   94POPC   C4B 4258  32.593   0.662   7.647
   95POPC   NC3 4259   5.583  43.460   9.491
   95POPC   PO4 4260   6.206  43.655   9.655
   95POPC   GL1 4261   6.054  43.335   9.326
   95POPC   GL2 4262   6.270  43.232   9.118
   95POPC   C1A 4263   5.816  43.154   8.920
   95POPC   D2A 4264   5.675  43.362   8.526
   95POPC   C3A 4265   5.850  43.174   8.149
   95POPC   C4A 4266   5.726  43.008   7.734
   95POPC   C1B 4267   6.239  42.905   8.797
   95POPC   C2B 4268   6.300  43.030   8.387
   95POPC   C3B 4269   6.295  42.931   7.987
   95POPC   C4B 4270   6.195  42.822   7.576
   96POPC   NC3 4271   3.594  24.234   9.548
   96POPC   PO4 4272   3.212  24.713   9.556
   96POPC   GL1 4273   3.576  24.659   9.231
   96POPC   GL2 4274   3.557  24.301   9.057
   96POPC   C1A 4275   3.818  24.645   8.830
   96POPC   D2A 4276   3.627  24.458   8.458
   96POPC   C3A 4277   3.793  24.653   8.079
   96POPC   C4A 4278   3.652  24.711   7.652
   96POPC   C1B 4279   3.301  24.131   8.738
   96POPC   C2B 4280   3.184  24.167   8.334
   96POPC   C3B 4281   3.375  24.363   8.002
   96POPC   C4B 4282   3.486  24.226   7.611
   97POPC   NC3 4283  18.477  10.291   9.453
   97POPC   PO4 4284  18.389   9.659   9.722
   97POPC   GL1 4285  18.178   9.761   9.297
   97POPC   GL2 4286  18.482   9.857   9.186
   97POPC   C1A 4287  18.110   9.830   8.843
   97POPC   D2A 4288  18.293   9.857   8.419
   97POPC   C3A 4289  18.036   9.766   8.060
   97POPC   C4A 4290  17.972   9.593   7.647
   97POPC   C1B 4291  18.655   9.798   8.783
   97POPC   C2B 4292  18.694   9.527   8.422
   97POPC   C3B 4293  18.479   9.475   8.044
   97POPC   C4B 4294  18.673   9.547   7.655
   98POPC   NC3 4295   1.754   5.645   9.379
   98POPC   PO4 4296   2.075   5.042   9.536
   98POPC   GL1 4297   1.971   4.870   9.149
   98POPC   GL2 4298   1.609   4.862   9.162
   98POPC   C1A 4299   2.117   4.911   8.731
   98POPC   D2A 4300   1.905   4.936   8.358
   98POPC   C3A 4301   2.079   5.263   8.126
   98POPC   C4A 4302   2.207   4.959   7.851
   98POPC   C1B 4303   1.594   5.089   8.743
   98POPC   C2B 4304   1.454   5.168   8.267
   98POPC   C3B 4305   1.683   5.057   7.875
   98POPC   C4B 4306   1.921   5.339   7.644
   99POPC   NC3 4307  37.280   9.970   9.812
   99POPC   PO4 4308  37.887   9.671   9.531
   99POPC   GL1 4309  37.825   9.605   9.136
   99POPC   GL2 4310  37.499   9.713   9.166
   99POPC   C1A 4311  38.028   9.809   8.794
   99POPC   D2A 4312  37.904  10.131   8.505
   99POPC   C3A 4313  37.826  10.026   8.072
   99POPC   C4A 4314  37.843   9.675   7.771
   99POPC   C1B 4315  37.535   9.819   8.754
   99POPC   C2B 4316  37.429   9.945   8.398
   99POPC   C3B 4317  37.254  10.056   8.051
   99POPC   C4B 4318  37.433   9.966   7.697
  100POPC   NC3 4319   3.141  35.670   9.360
  100POPC   PO4 4320   2.832  35.214   9.684
  100POPC   GL1 4321   2.722  35.278   9.245
  100POPC   GL2 4322   2.625  35.608   9.148
  100POPC   C1A 4323   2.615  35.187   8.810
  100POPC   D2A 4324   2.810  35.378   8.439
  100POPC   C3A 4325   2.741  35.129   8.057
  100POPC   C4A 4326   2.664  35.220   7.637
  100POPC   C1B 4327   2.409  35.662   8.760
  100POPC   C2B 4328   2.486  35.806   8.341
  100POPC   C3B 4329   2.556  35.668   7.922
  100POPC   C4B 4330   2.311  35.783   7.564
  101POPC   NC3 4331  43.374  44.820   9.595
  101POPC   PO4 4332  42.706  44.848   9.760
  101POPC   GL1 4333  42.953  44.831   9.320
  101POPC   GL2 4334  42.745  44.917   9.047
  101POPC   C1A 4335  43.166  44.639   8.943
  101POPC   D2A 4336  43.340  44.461   8.552
  101POPC   C3A 4337  43.234  44.371   8.114
  101POPC   C4A 4338  43.306  44.501   7.676
  101POPC   C1B 4339  42.866  44.913   8.610
  101POPC   C2B 4340  42.854  44.740   8.185
  101POPC   C3B 4341  43.009  44.896   7.819
  101POPC   C4B 4342  43.021  44.789   7.377
  102POPC   NC3 4343  36.136  25.149   9.866
  102POPC   PO4 4344  36.147  25.621   9.445
  102POPC   GL1 4345  36.079  25.390   9.040
  102POPC   GL2 4346  36.093  25.052   9.053
  102POPC   C1A 4347  36.140  25.277   8.586
  102POPC   D2A 4348  36.401  25.528   8.346
  102POPC   C3A 4349  36.321  25.365   7.969
  102POPC   C4A 4350  36.480  25.051   7.750
  102POPC   C1B 4351  35.865  24.865   8.725
  102POPC   C2B 4352  35.722  24.911   8.316
  102POPC   C3B 4353  35.939  24.885   7.947
  102POPC   C4B 4354  35.999  25.133   7.611
  103POPC   NC3 4355  11.915  32.327   9.577
  103POPC   PO4 4356  12.510  32.106   9.582
  103POPC   GL1 4357  12.189  32.066   9.229
  103POPC   GL2 4358  11.802  31.993   9.205
  103POPC   C1A 4359  12.057  32.306   8.848
  103POPC   D2A 4360  12.352  32.516   8.557
  103POPC   C3A 4361  12.237  32.458   8.140
  103POPC   C4A 4362  12.188  32.230   7.781
  103POPC   C1B 4363  11.625  31.933   8.779
  103POPC   C2B 4364  11.820  31.920   8.361
  103POPC   C3B 4365  11.735  31.935   7.894
  103POPC   C4B 4366  11.745  32.268   7.563
  104POPC   NC3 4367  13.270   4.871   9.356
  104POPC   PO4 4368  13.827   5.253   9.509
  104POPC   GL1 4369  13.719   5.128   9.086
  104POPC   GL2 4370  13.599   4.794   8.999
  104POPC   C1A 4371  13.556   5.130   8.635
  104POPC   D2A 4372  13.517   5.347   8.244
  104POPC   C3A 4373  13.797   5.107   7.986
  104POPC   C4A 4374  13.940   5.163   7.570
  104POPC   C1B 4375  13.184   4.818   8.724
  104POPC   C2B 4376  13.142   5.005   8.313
  104POPC   C3B 4377  13.330   4.848   7.945
  104POPC   C4B 4378  13.542   4.836   7.551
  105POPC   NC3 4379   2.606   7.914   9.570
  105POPC   PO4 4380   2.945   7.318   9.515
  105POPC   GL1 4381   2.701   7.501   9.175
  105POPC   GL2 4382   2.619   7.175   9.036
  105POPC   C1A 4383   2.789   7.696   8.750
  105POPC   D2A 4384   2.967   7.838   8.350
  105POPC   C3A 4385   2.640   7.740   8.086
  105POPC   C4A 4386   2.346   7.531   7.823
  105POPC   C1B 4387   2.533   7.142   8.641
  105POPC   C2B 4388   2.756   7.322   8.355
  105POPC   C3B 4389   2.765   7.189   7.957
  105POPC   C4B 4390   2.779   7.218   7.557
  106POPC   NC3 4391  37.215  19.311   9.476
  106POPC   PO4 4392  36.730  18.873   9.457
  106POPC   GL1 4393  36.971  19.022   9.122
  106POPC   GL2 4394  36.903  19.404   9.072
  106POPC   C1A 4395  37.053  18.871   8.730
  106POPC   D2A 4396  36.886  19.063   8.357
  106POPC   C3A 4397  36.964  18.865   7.998
  106POPC   C4A 4398  36.922  19.050   7.595
  106POPC   C1B 4399  37.259  19.400   8.786
  106POPC   C2B 4400  37.321  19.566   8.374
  106POPC   C3B 4401  37.166  19.350   8.012
  106POPC   C4B 4402  36.818  19.504   7.779
  107POPC   NC3 4403  41.009  40.550   9.451
  107POPC   PO4 4404  41.674  40.884   9.471
  107POPC   GL1 4405  41.516  40.746   9.137
  107POPC   GL2 4406  41.265  40.920   9.030
  107POPC   C1A 4407  41.591  40.614   8.723
  107POPC   D2A 4408  41.618  40.822   8.343
  107POPC   C3A 4409  41.646  40.698   7.927
  107POPC   C4A 4410  41.903  40.838   7.601
  107POPC   C1B 4411  41.089  40.789   8.603
  107POPC   C2B 4412  41.182  40.623   8.159
  107POPC   C3B 4413  41.163  40.566   7.707
  107POPC   C4B 4414  41.178  40.434   7.244
  108POPC   NC3 4415   8.488  26.467   9.529
  108POPC   PO4 4416   9.121  26.871   9.476
  108POPC   GL1 4417   8.926  26.843   9.108
  108POPC   GL2 4418   8.976  26.491   9.008
  108POPC   C1A 4419   8.783  26.860   8.699
  108POPC   D2A 4420   8.958  26.612   8.378
  108POPC   C3A 4421   8.918  26.661   7.936
  108POPC   C4A 4422   8.821  26.845   7.544
  108POPC   C1B 4423   8.589  26.401   8.755
  108POPC   C2B 4424   8.437  26.546   8.320
  108POPC   C3B 4425   8.521  26.368   7.906
  108POPC   C4B 4426   8.604  26.359   7.443
  109POPC   NC3 4427  37.642  10.814   9.606
  109POPC   PO4 4428  37.669  11.470   9.473
  109POPC   GL1 4429  37.648  11.324   9.085
  109POPC   GL2 4430  37.786  10.978   9.122
  109POPC   C1A 4431  37.698  11.523   8.649
  109POPC   D2A 4432  37.855  11.375   8.272
  109POPC   C3A 4433  37.603  11.416   7.897
  109POPC   C4A 4434  37.678  11.420   7.433
  109POPC   C1B 4435  37.586  11.014   8.701
  109POPC   C2B 4436  37.579  10.939   8.288
  109POPC   C3B 4437  37.813  10.940   7.925
  109POPC   C4B 4438  37.518  10.986   7.620
  110POPC   NC3 4439  44.639  36.571   9.709
  110POPC   PO4 4440  44.404  35.966   9.589
  110POPC   GL1 4441  44.420  36.090   9.169
  110POPC   GL2 4442  44.454  36.448   9.220
  110POPC   C1A 4443  44.465  36.232   8.733
  110POPC   D2A 4444  44.749  36.075   8.416
  110POPC   C3A 4445  44.641  36.040   7.979
  110POPC   C4A 4446  44.995  36.094   7.749
  110POPC   C1B 4447  44.817  36.531   8.965
  110POPC   C2B 4448  44.799  36.579   8.519
  110POPC   C3B 4449  44.846  36.503   8.083
  110POPC   C4B 4450  44.777  36.550   7.638
  111POPC   NC3 4451  28.748  31.628   9.526
  111POPC   PO4 4452  28.297  31.205   9.337
  111POPC   GL1 4453  28.475  31.493   9.089
  111POPC   GL2 4454  28.464  31.890   9.166
  111POPC   C1A 4455  28.629  31.421   8.664
  111POPC   D2A 4456  28.550  31.525   8.206
  111POPC   C3A 4457  28.308  31.382   7.833
  111POPC   C4A 4458  28.401  31.182   7.431
  111POPC   C1B 4459  28.312  31.814   8.742
  111POPC   C2B 4460  28.302  31.965   8.334
  111POPC   C3B 4461  28.476  31.913   7.890
  111POPC   C4B 4462  28.517  31.700   7.483
  112POPC   NC3 4463  29.884  22.875   9.570
  112POPC   PO4 4464  29.501  23.317   9.303
  112POPC   GL1 4465  29.803  23.042   9.101
  112POPC   GL2 4466  29.972  22.684   9.117
  112POPC   C1A 4467  29.965  23.008   8.714
  112POPC   D2A 4468  29.848  23.171   8.307
  112POPC   C3A 4469  30.052  23.023   7.922
  112POPC   C4A 4470  29.899  23.122   7.453
  112POPC   C1B 4471  29.883  22.447   8.767
  112POPC   C2B 4472  29.978  22.606   8.388
  112POPC   C3B 4473  29.824  22.591   8.019
  112POPC   C4B 4474  30.014  22.616   7.611
  113POPC   NC3 4475  39.349  41.966   9.645
  113POPC   PO4 4476  39.262  41.313   9.464
  113POPC   GL1 4477  39.157  41.486   9.081
  113POPC   GL2 4478  39.393  41.804   9.096
  113POPC   C1A 4479  39.162  41.247   8.672
  113POPC   D2A 4480  39.483  41.215   8.352
  113POPC   C3A 4481  39.285  41.218   7.950
  113POPC   C4A 4482  38.977  41.468   7.765
  113POPC   C1B 4483  39.277  41.738   8.649
  113POPC   C2B 4484  38.983  41.623   8.317
  113POPC   C3B 4485  38.949  41.900   7.987
  113POPC   C4B 4486  39.364  41.803   7.810
  114POPC   NC3 4487  26.779  25.452   9.767
  114POPC   PO4 4488  26.595  24.960   9.398
  114POPC   GL1 4489  26.719  25.327   9.189
  114POPC   GL2 4490  26.423  25.312   8.991
  114POPC   C1A 4491  26.819  25.510   8.769
  114POPC   D2A 4492  26.686  25.419   8.383
  114POPC   C3A 4493  26.957  25.485   8.074
  114POPC   C4A 4494  27.063  25.170   7.800
  114POPC   C1B 4495  26.691  25.016   8.745
  114POPC   C2B 4496  26.550  24.930   8.341
  114POPC   C3B 4497  26.558  25.137   7.953
  114POPC   C4B 4498  26.531  24.795   7.697
  115POPC   NC3 4499   7.499  22.310   9.605
  115POPC   PO4 4500   7.520  21.672   9.338
  115POPC   GL1 4501   7.271  21.944   9.137
  115POPC   GL2 4502   7.241  22.302   9.183
  115POPC   C1A 4503   7.262  22.052   8.733
  115POPC   D2A 4504   7.364  21.839   8.412
  115POPC   C3A 4505   7.321  22.171   8.153
  115POPC   C4A 4506   7.331  22.161   7.723
  115POPC   C1B 4507   7.619  22.377   8.909
  115POPC   C2B 4508   7.640  22.462   8.447
  115POPC   C3B 4509   7.639  22.505   7.955
  115POPC   C4B 4510   7.607  22.536   7.461
  116POPC   NC3 4511  12.079  43.395   9.448
  116POPC   PO4 4512  11.727  42.914   9.284
  116POPC   GL1 4513  12.004  43.114   8.988
  116POPC   GL2 4514  12.192  43.432   8.966
  116POPC   C1A 4515  12.065  43.111   8.537
  116POPC   D2A 4516  12.358  43.033   8.197
  116POPC   C3A 4517  12.255  42.782   7.852
  116POPC   C4A 4518  12.057  43.014   7.471
  116POPC   C1B 4519  11.873  43.574   8.697
  116POPC   C2B 4520  11.779  43.454   8.256
  116POPC   C3B 4521  12.067  43.422   7.883
  116POPC   C4B 4522  11.966  43.514   7.440
  117POPC   NC3 4523  23.166  20.712   9.511
  117POPC   PO4 4524  22.517  20.958   9.439
  117POPC   GL1 4525  22.845  20.940   9.116
  117POPC   GL2 4526  22.860  20.583   9.121
  117POPC   C1A 4527  23.210  20.776   8.817
  117POPC   D2A 4528  23.250  20.516   8.422
  117POPC   C3A 4529  23.034  20.518   8.023
  117POPC   C4A 4530  22.848  20.869   7.795
  117POPC   C1B 4531  22.726  20.616   8.709
  117POPC   C2B 4532  22.688  20.782   8.299
  117POPC   C3B 4533  22.539  20.504   7.957
  117POPC   C4B 4534  22.621  20.454   7.490
  118POPC   NC3 4535  33.890  16.879   9.372
  118POPC   PO4 4536  33.644  16.274   9.437
  118POPC   GL1 4537  33.747  16.517   9.060
  118POPC   GL2 4538  33.578  16.901   8.986
  118POPC   C1A 4539  33.873  16.439   8.669
  118POPC   D2A 4540  33.944  16.253   8.308
  118POPC   C3A 4541  33.712  16.507   8.087
  118POPC   C4A 4542  33.849  16.714   7.768
  118POPC   C1B 4543  33.931  16.968   8.722
  118POPC   C2B 4544  34.011  16.855   8.315
  118POPC   C3B 4545  33.985  17.149   7.981
  118POPC   C4B 4546  33.558  17.203   7.848
  119POPC   NC3 4547  17.521  12.294   9.671
  119POPC   PO4 4548  17.436  11.659   9.680
  119POPC   GL1 4549  17.222  11.732   9.267
  119POPC   GL2 4550  17.435  12.019   9.190
  119POPC   C1A 4551  17.195  11.797   8.795
  119POPC   D2A 4552  17.492  11.837   8.441
  119POPC   C3A 4553  17.406  11.994   8.037
  119POPC   C4A 4554  17.282  11.964   7.658
  119POPC   C1B 4555  17.525  12.225   8.793
  119POPC   C2B 4556  17.540  12.357   8.360
  119POPC   C3B 4557  17.727  12.392   7.950
  119POPC   C4B 4558  17.706  12.207   7.552
  120POPC   NC3 4559  26.890  13.344   9.593
  120POPC   PO4 4560  27.159  14.019   9.562
  120POPC   GL1 4561  26.909  13.793   9.255
  120POPC   GL2 4562  27.166  13.856   9.041
  120POPC   C1A 4563  26.720  13.667   8.834
  120POPC   D2A 4564  26.566  13.821   8.415
  120POPC   C3A 4565  26.632  13.622   7.984
  120POPC   C4A 4566  26.819  13.226   7.819
  120POPC   C1B 4567  27.239  13.534   8.744
  120POPC   C2B 4568  27.094  13.482   8.321
  120POPC   C3B 4569  27.277  13.427   7.930
  120POPC   C4B 4570  27.112  13.608   7.571
  121POPC   NC3 4571  39.910  34.116  10.061
  121POPC   PO4 4572  40.014  33.743   9.498
  121POPC   GL1 4573  40.059  33.754   9.121
  121POPC   GL2 4574  40.351  33.531   9.111
  121POPC   C1A 4575  39.858  33.853   8.752
  121POPC   D2A 4576  39.746  33.656   8.399
  121POPC   C3A 4577  39.914  33.849   8.036
  121POPC   C4A 4578  39.955  33.594   7.650
  121POPC   C1B 4579  40.415  33.865   8.790
  121POPC   C2B 4580  40.371  34.029   8.354
  121POPC   C3B 4581  40.429  33.845   7.929
  121POPC   C4B 4582  40.433  33.649   7.478
  122POPC   NC3 4583   1.727   6.534   9.247
  122POPC   PO4 4584   2.097   6.958   9.602
  122POPC   GL1 4585   2.206   6.817   9.204
  122POPC   GL2 4586   2.213   6.466   9.141
  122POPC   C1A 4587   2.069   6.894   8.792
  122POPC   D2A 4588   1.742   6.723   8.492
  122POPC   C3A 4589   1.903   6.803   8.059
  122POPC   C4A 4590   1.790   6.814   7.615
  122POPC   C1B 4591   2.137   6.360   8.716
  122POPC   C2B 4592   2.339   6.123   8.412
  122POPC   C3B 4593   2.215   6.149   7.979
  122POPC   C4B 4594   2.204   6.514   7.764
  123POPC   NC3 4595  29.911  35.509   9.553
  123POPC   PO4 4596  29.806  34.878   9.650
  123POPC   GL1 4597  29.905  35.142   9.175
  123POPC   GL2 4598  29.814  35.512   9.033
  123POPC   C1A 4599  29.696  35.123   8.731
  123POPC   D2A 4600  29.594  35.209   8.320
  123POPC   C3A 4601  29.940  35.333   8.095
  123POPC   C4A 4602  30.041  35.159   7.712
  123POPC   C1B 4603  30.157  35.372   8.760
  123POPC   C2B 4604  30.402  35.427   8.379
  123POPC   C3B 4605  30.312  35.675   8.006
  123POPC   C4B 4606  30.039  35.656   7.682
  124POPC   NC3 4607  41.050  36.888   9.439
  124POPC   PO4 4608  40.415  37.047   9.428
  124POPC   GL1 4609  40.628  36.884   9.121
  124POPC   GL2 4610  40.852  37.140   9.058
  124POPC   C1A 4611  40.642  36.846   8.699
  124POPC   D2A 4612  40.535  37.067   8.359
  124POPC   C3A 4613  40.582  36.703   8.136
  124POPC   C4A 4614  40.931  36.529   7.927
  124POPC   C1B 4615  40.951  37.278   8.692
  124POPC   C2B 4616  40.863  37.480   8.349
  124POPC   C3B 4617  40.860  37.255   8.002
  124POPC   C4B 4618  40.726  36.963   7.733
  125POPC   NC3 4619  41.173   7.230   9.487
  125POPC   PO4 4620  41.565   6.656   9.479
  125POPC   GL1 4621  41.632   6.852   9.108
  125POPC   GL2 4622  41.288   6.919   9.068
  125POPC   C1A 4623  41.585   6.710   8.685
  125POPC   D2A 4624  41.599   6.861   8.292
  125POPC   C3A 4625  41.630   6.484   8.114
  125POPC   C4A 4626  41.675   6.499   7.714
  125POPC   C1B 4627  41.145   6.527   8.835
  125POPC   C2B 4628  41.179   6.523   8.374
  125POPC   C3B 4629  41.201   6.662   7.924
  125POPC   C4B 4630  41.193   6.364   7.590
  126POPC   NC3 4631  16.124   0.455   9.741
  126POPC   PO4 4632  15.604   0.049   9.529
  126POPC   GL1 4633  15.866   0.332   9.203
  126POPC   GL2 4634  16.203   0.287   9.265
  126POPC   C1A 4635  15.943   0.620   8.798
  126POPC   D2A 4636  15.811   0.594   8.345
  126POPC   C3A 4637  15.849   0.909   7.982
  126POPC   C4A 4638  15.867   0.894   7.529
  126POPC   C1B 4639  16.291   0.205   8.870
  126POPC   C2B 4640  16.227   0.312   8.469
  126POPC   C3B 4641  16.176   0.332   8.042
  126POPC   C4B 4642  16.286   0.573   7.691
  127POPC   NC3 4643  39.724   2.811   9.735
  127POPC   PO4 4644  39.090   3.088   9.677
  127POPC   GL1 4645  39.220   2.979   9.240
  127POPC   GL2 4646  39.256   2.615   9.173
  127POPC   C1A 4647  39.077   2.928   8.794
  127POPC   D2A 4648  38.750   2.923   8.433
  127POPC   C3A 4649  38.805   2.594   8.096
  127POPC   C4A 4650  39.130   2.510   7.763
  127POPC   C1B 4651  39.161   2.428   8.723
  127POPC   C2B 4652  39.281   2.534   8.282
  127POPC   C3B 4653  39.584   2.382   7.962
  127POPC   C4B 4654  39.648   2.233   7.503
  128POPC   NC3 4655  13.501  29.192   9.504
  128POPC   PO4 4656  13.985  28.833   9.232
  128POPC   GL1 4657  13.727  29.029   8.962
  128POPC   GL2 4658  13.605  29.357   9.047
  128POPC   C1A 4659  13.755  28.975   8.529
  128POPC   D2A 4660  13.711  28.625   8.263
  128POPC   C3A 4661  13.537  28.831   7.946
  128POPC   C4A 4662  13.678  28.855   7.522
  128POPC   C1B 4663  13.916  29.501   8.853
  128POPC   C2B 4664  13.943  29.654   8.442
  128POPC   C3B 4665  13.880  29.517   8.059
  128POPC   C4B 4666  13.640  29.297   7.785
  129POPC   NC3 4667   8.775  35.705   9.402
  129POPC   PO4 4668   9.169  35.141   9.524
  129POPC   GL1 4669   9.045  35.331   9.146
  129POPC   GL2 4670   9.203  35.648   9.053
  129POPC   C1A 4671   8.893  35.313   8.732
  129POPC   D2A 4672   8.927  35.512   8.344
  129POPC   C3A 4673   8.674  35.303   8.034
  129POPC   C4A 4674   8.633  35.447   7.618
  129POPC   C1B 4675   9.389  35.472   8.683
  129POPC   C2B 4676   9.434  35.482   8.242
  129POPC   C3B 4677   9.144  35.461   7.869
  129POPC   C4B 4678   9.089  35.154   7.559
  130POPC   NC3 4679   1.026   5.875   9.519
  130POPC   PO4 4680   1.642   6.129   9.470
  130POPC   GL1 4681   1.298   6.144   9.140
  130POPC   GL2 4682   0.930   6.239   9.179
  130POPC   C1A 4683   1.056   5.871   8.828
  130POPC   D2A 4684   0.979   5.602   8.468
  130POPC   C3A 4685   1.105   5.811   8.106
  130POPC   C4A 4686   1.090   5.757   7.688
  130POPC   C1B 4687   0.690   6.238   8.785
  130POPC   C2B 4688   0.899   6.227   8.368
  130POPC   C3B 4689   0.733   6.156   7.931
  130POPC   C4B 4690   0.890   6.204   7.496
  131POPC   NC3 4691  42.566  10.227   9.475
  131POPC   PO4 4692  41.919  10.603   9.521
  131POPC   GL1 4693  42.244  10.581   9.260
  131POPC   GL2 4694  42.150  10.273   9.113
  131POPC   C1A 4695  42.519  10.614   8.908
  131POPC   D2A 4696  42.636  10.492   8.485
  131POPC   C3A 4697  42.414  10.703   8.160
  131POPC   C4A 4698  42.550  10.680   7.770
  131POPC   C1B 4699  42.119  10.377   8.692
  131POPC   C2B 4700  42.216  10.238   8.298
  131POPC   C3B 4701  42.529  10.196   8.005
  131POPC   C4B 4702  42.230  10.293   7.730
  132POPC   NC3 4703  12.663  21.192   9.299
  132POPC   PO4 4704  13.071  21.809   9.444
  132POPC   GL1 4705  12.824  21.637   9.132
  132POPC   GL2 4706  12.517  21.695   9.059
  132POPC   C1A 4707  12.868  21.515   8.712
  132POPC   D2A 4708  12.982  21.251   8.364
  132POPC   C3A 4709  12.827  21.310   7.968
  132POPC   C4A 4710  12.960  21.181   7.575
  132POPC   C1B 4711  12.350  21.610   8.703
  132POPC   C2B 4712  12.523  21.575   8.317
  132POPC   C3B 4713  12.315  21.491   7.952
  132POPC   C4B 4714  12.435  21.180   7.645
  133POPC   NC3 4715   4.165   7.594   9.456
  133POPC   PO4 4716   4.683   7.130   9.314
  133POPC   GL1 4717   4.378   7.416   9.031
  133POPC   GL2 4718   4.041   7.631   8.982
  133POPC   C1A 4719   4.278   7.490   8.581
  133POPC   D2A 4720   4.466   7.350   8.271
  133POPC   C3A 4721   4.391   7.673   8.000
  133POPC   C4A 4722   4.401   7.465   7.636
  133POPC   C1B 4723   3.974   7.168   8.835
  133POPC   C2B 4724   4.052   7.031   8.404
  133POPC   C3B 4725   4.038   7.307   8.013
  133POPC   C4B 4726   3.977   7.177   7.608
  134POPC   NC3 4727   7.096  17.914   9.174
  134POPC   PO4 4728   7.547  18.242   9.548
  134POPC   GL1 4729   7.476  18.451   9.112
  134POPC   GL2 4730   7.703  18.461   8.904
  134POPC   C1A 4731   7.226  18.653   8.743
  134POPC   D2A 4732   6.966  18.515   8.405
  134POPC   C3A 4733   7.238  18.449   8.077
  134POPC   C4A 4734   7.316  18.468   7.647
  134POPC   C1B 4735   7.390  18.183   8.670
  134POPC   C2B 4736   7.372  17.989   8.281
  134POPC   C3B 4737   7.371  17.974   7.852
  134POPC   C4B 4738   7.618  18.088   7.487
  135POPC   NC3 4739   6.738   8.553   9.499
  135POPC   PO4 4740   6.373   8.016   9.364
  135POPC   GL1 4741   6.605   8.233   9.071
  135POPC   GL2 4742   6.937   8.067   9.084
  135POPC   C1A 4743   6.613   8.074   8.661
  135POPC   D2A 4744   6.724   8.022   8.250
  135POPC   C3A 4745   6.506   8.273   7.975
  135POPC   C4A 4746   6.386   8.044   7.649
  135POPC   C1B 4747   6.995   8.415   8.766
  135POPC   C2B 4748   6.899   8.519   8.326
  135POPC   C3B 4749   6.997   8.376   7.906
  135POPC   C4B 4750   6.924   7.950   7.778
  136POPC   NC3 4751  22.644  44.406   9.869
  136POPC   PO4 4752  23.190  44.637   9.498
  136POPC   GL1 4753  23.016  44.718   9.108
  136POPC   GL2 4754  22.689  44.533   9.168
  136POPC   C1A 4755  23.200  44.694   8.692
  136POPC   D2A 4756  23.167  44.477   8.283
  136POPC   C3A 4757  23.203  44.767   7.942
  136POPC   C4A 4758  23.215  44.674   7.488
  136POPC   C1B 4759  22.744  44.483   8.717
  136POPC   C2B 4760  22.751  44.745   8.324
  136POPC   C3B 4761  22.733  44.552   7.913
  136POPC   C4B 4762  22.383  44.532   7.619
  137POPC   NC3 4763   6.123  28.650   9.447
  137POPC   PO4 4764   5.551  28.309   9.270
  137POPC   GL1 4765   5.940  28.258   9.078
  137POPC   GL2 4766   5.899  28.602   9.004
  137POPC   C1A 4767   5.953  28.268   8.623
  137POPC   D2A 4768   5.636  28.363   8.336
  137POPC   C3A 4769   5.760  28.442   7.928
  137POPC   C4A 4770   5.942  28.242   7.594
  137POPC   C1B 4771   6.054  28.785   8.672
  137POPC   C2B 4772   6.119  28.608   8.270
  137POPC   C3B 4773   6.191  28.715   7.851
  137POPC   C4B 4774   6.008  28.742   7.459
  138POPC   NC3 4775   7.317  32.939   9.623
  138POPC   PO4 4776   7.141  33.596   9.497
  138POPC   GL1 4777   7.375  33.279   9.239
  138POPC   GL2 4778   7.212  32.962   9.132
  138POPC   C1A 4779   7.552  33.231   8.812
  138POPC   D2A 4780   7.444  33.015   8.423
  138POPC   C3A 4781   7.577  33.143   8.025
  138POPC   C4A 4782   7.272  33.267   7.723
  138POPC   C1B 4783   7.217  32.697   8.775
  138POPC   C2B 4784   7.034  32.712   8.323
  138POPC   C3B 4785   7.194  32.779   7.894
  138POPC   C4B 4786   7.132  32.730   7.398
  139POPC   NC3 4787   7.615  44.940   9.351
  139POPC   PO4 4788   7.574   0.542   9.745
  139POPC   GL1 4789   7.409   0.481   9.264
  139POPC   GL2 4790   7.204   0.202   9.158
  139POPC   C1A 4791   7.510   0.335   8.797
  139POPC   D2A 4792   7.338   0.499   8.447
  139POPC   C3A 4793   7.651   0.609   8.183
  139POPC   C4A 4794   7.766   0.658   7.764
  139POPC   C1B 4795   7.055   0.596   8.902
  139POPC   C2B 4796   6.865   0.723   8.508
  139POPC   C3B 4797   7.023   0.784   8.084
  139POPC   C4B 4798   7.272   0.534   7.802
  140POPC   NC3 4799  14.568   0.579   9.446
  140POPC   PO4 4800  14.078   0.099   9.502
  140POPC   GL1 4801  14.415   0.162   9.144
  140POPC   GL2 4802  14.363   0.488   8.989
  140POPC   C1A 4803  14.526   0.143   8.672
  140POPC   D2A 4804  14.333   0.011   8.278
  140POPC   C3A 4805  14.456   0.204   7.854
  140POPC   C4A 4806  14.547   0.613   7.637
  140POPC   C1B 4807  14.039   0.145   8.819
  140POPC   C2B 4808  13.918   0.254   8.445
  140POPC   C3B 4809  14.086   0.466   8.094
  140POPC   C4B 4810  14.048   0.484   7.655
  141POPC   NC3 4811   8.160  13.805   9.759
  141POPC   PO4 4812   8.472  13.308   9.479
  141POPC   GL1 4813   8.309  13.643   9.259
  141POPC   GL2 4814   8.080  13.416   9.091
  141POPC   C1A 4815   8.280  13.835   8.843
  141POPC   D2A 4816   8.439  13.737   8.431
  141POPC   C3A 4817   8.208  13.711   8.047
  141POPC   C4A 4818   8.301  13.710   7.615
  141POPC   C1B 4819   8.009  13.452   8.640
  141POPC   C2B 4820   7.899  13.369   8.225
  141POPC   C3B 4821   7.796  13.223   7.812
  141POPC   C4B 4822   7.723  13.315   7.355
  142POPC   NC3 4823  17.773  10.558   9.451
  142POPC   PO4 4824  17.266  10.092   9.491
  142POPC   GL1 4825  17.333  10.378   9.155
  142POPC   GL2 4826  17.263  10.093   8.972
  142POPC   C1A 4827  17.564  10.407   8.735
  142POPC   D2A 4828  17.405  10.503   8.321
  142POPC   C3A 4829  17.667  10.516   7.930
  142POPC   C4A 4830  17.846  10.840   7.690
  142POPC   C1B 4831  17.035  10.375   8.703
  142POPC   C2B 4832  16.906  10.373   8.273
  142POPC   C3B 4833  17.161  10.369   7.894
  142POPC   C4B 4834  17.325  10.342   7.463
  143POPC   NC3 4835   3.223  42.855   9.463
  143POPC   PO4 4836   3.636  43.362   9.463
  143POPC   GL1 4837   3.579  43.100   9.120
  143POPC   GL2 4838   3.891  42.906   9.110
  143POPC   C1A 4839   3.311  43.029   8.765
  143POPC   D2A 4840   3.203  42.853   8.362
  143POPC   C3A 4841   3.275  43.111   8.019
  143POPC   C4A 4842   3.390  42.945   7.643
  143POPC   C1B 4843   3.788  42.797   8.711
  143POPC   C2B 4844   3.680  43.035   8.354
  143POPC   C3B 4845   3.791  43.089   7.929
  143POPC   C4B 4846   3.968  43.085   7.480
  144POPC   NC3 4847   6.118  42.619   9.410
  144POPC   PO4 4848   5.655  42.144   9.578
  144POPC   GL1 4849   5.630  42.409   9.209
  144POPC   GL2 4850   5.928  42.219   9.145
  144POPC   C1A 4851   5.766  42.600   8.794
  144POPC   D2A 4852   6.059  42.574   8.426
  144POPC   C3A 4853   5.888  42.629   8.034
  144POPC   C4A 4854   5.917  42.417   7.684
  144POPC   C1B 4855   6.090  42.196   8.778
  144POPC   C2B 4856   6.109  42.010   8.416
  144POPC   C3B 4857   5.952  42.048   8.040
  144POPC   C4B 4858   6.176  41.960   7.680
  145POPC   NC3 4859  17.679  39.438   9.475
  145POPC   PO4 4860  17.100  39.092   9.458
  145POPC   GL1 4861  17.363  39.195   9.116
  145POPC   GL2 4862  17.675  39.119   9.053
  145POPC   C1A 4863  17.417  39.370   8.676
  145POPC   D2A 4864  17.189  39.458   8.261
  145POPC   C3A 4865  17.488  39.421   7.948
  145POPC   C4A 4866  17.581  39.207   7.596
  145POPC   C1B 4867  17.865  39.046   8.683
  145POPC   C2B 4868  17.733  39.150   8.292
  145POPC   C3B 4869  17.895  38.952   7.929
  145POPC   C4B 4870  18.033  38.972   7.487
  146POPC   NC3 4871  20.643  29.544   9.493
  146POPC   PO4 4872  20.605  30.189   9.452
  146POPC   GL1 4873  20.571  29.893   9.109
  146POPC   GL2 4874  20.899  29.733   9.095
  146POPC   C1A 4875  20.573  30.014   8.684
  146POPC   D2A 4876  20.615  30.269   8.327
  146POPC   C3A 4877  20.273  30.171   8.079
  146POPC   C4A 4878  20.429  29.858   7.810
  146POPC   C1B 4879  20.809  29.566   8.693
  146POPC   C2B 4880  20.726  29.730   8.269
  146POPC   C3B 4881  20.922  29.958   7.920
  146POPC   C4B 4882  20.847  29.785   7.506
  147POPC   NC3 4883  26.927   2.490   9.487
  147POPC   PO4 4884  26.828   3.142   9.595
  147POPC   GL1 4885  26.652   2.960   9.215
  147POPC   GL2 4886  26.578   2.644   9.163
  147POPC   C1A 4887  26.554   3.006   8.760
  147POPC   D2A 4888  26.785   3.264   8.446
  147POPC   C3A 4889  26.631   3.104   8.078
  147POPC   C4A 4890  26.684   2.904   7.673
  147POPC   C1B 4891  26.834   2.592   8.814
  147POPC   C2B 4892  26.859   2.770   8.405
  147POPC   C3B 4893  26.960   2.627   8.006
  147POPC   C4B 4894  26.753   2.380   7.721
  148POPC   NC3 4895  16.259   3.526   9.559
  148POPC   PO4 4896  15.608   3.665   9.622
  148POPC   GL1 4897  15.872   3.752   9.290
  148POPC   GL2 4898  15.903   3.432   9.116
  148POPC   C1A 4899  16.086   3.867   8.905
  148POPC   D2A 4900  16.017   3.603   8.543
  148POPC   C3A 4901  16.287   3.621   8.225
  148POPC   C4A 4902  16.268   3.640   7.808
  148POPC   C1B 4903  15.597   3.690   8.841
  148POPC   C2B 4904  15.503   3.555   8.406
  148POPC   C3B 4905  15.787   3.528   8.059
  148POPC   C4B 4906  15.808   3.706   7.667
  149POPC   NC3 4907  12.722   2.575   9.452
  149POPC   PO4 4908  12.816   3.185   9.565
  149POPC   GL1 4909  12.825   3.010   9.169
  149POPC   GL2 4910  13.106   2.827   9.206
  149POPC   C1A 4911  12.745   2.768   8.802
  149POPC   D2A 4912  12.493   2.925   8.427
  149POPC   C3A 4913  12.634   2.805   7.986
  149POPC   C4A 4914  12.812   2.573   7.600
  149POPC   C1B 4915  13.207   3.014   8.804
  149POPC   C2B 4916  13.015   2.920   8.408
  149POPC   C3B 4917  13.147   2.847   8.042
  149POPC   C4B 4918  13.142   2.936   7.675
  150POPC   NC3 4919  31.714  23.178  10.010
  150POPC   PO4 4920  31.345  22.810   9.642
  150POPC   GL1 4921  31.505  22.778   9.218
  150POPC   GL2 4922  31.556  23.114   9.158
  150POPC   C1A 4923  31.567  22.778   8.761
  150POPC   D2A 4924  31.414  22.703   8.368
  150POPC   C3A 4925  31.422  23.014   8.054
  150POPC   C4A 4926  31.642  22.972   7.639
  150POPC   C1B 4927  31.841  23.187   8.801
  150POPC   C2B 4928  31.907  23.008   8.396
  150POPC   C3B 4929  31.903  23.198   8.008
  150POPC   C4B 4930  31.993  23.331   7.619
  151POPC   NC3 4931  30.573   0.959   9.613
  151POPC   PO4 4932  31.109   1.237   9.324
  151POPC   GL1 4933  30.659   1.262   9.175
  151POPC   GL2 4934  30.476   1.603   9.122
  151POPC   C1A 4935  30.525   1.196   8.755
  151POPC   D2A 4936  30.841   1.173   8.434
  151POPC   C3A 4937  30.882   1.397   8.051
  151POPC   C4A 4938  30.811   1.118   7.693
  151POPC   C1B 4939  30.257   1.628   8.714
  151POPC   C2B 4940  30.400   1.451   8.302
  151POPC   C3B 4941  30.433   1.420   7.837
  151POPC   C4B 4942  30.412   1.480   7.373
  152POPC   NC3 4943  33.268   3.649   9.586
  152POPC   PO4 4944  32.633   3.383   9.626
  152POPC   GL1 4945  32.782   3.493   9.107
  152POPC   GL2 4946  33.142   3.454   9.125
  152POPC   C1A 4947  32.672   3.784   8.754
  152POPC   D2A 4948  32.761   3.889   8.334
  152POPC   C3A 4949  32.767   3.538   8.057
  152POPC   C4A 4950  32.935   3.583   7.681
  152POPC   C1B 4951  33.050   3.456   8.680
  152POPC   C2B 4952  33.208   3.617   8.309
  152POPC   C3B 4953  33.292   3.352   7.970
  152POPC   C4B 4954  33.309   3.311   7.508
  153POPC   NC3 4955  39.789  16.631   9.477
  153POPC   PO4 4956  39.632  17.252   9.613
  153POPC   GL1 4957  39.857  17.082   9.156
  153POPC   GL2 4958  40.271  17.127   9.095
  153POPC   C1A 4959  39.746  16.846   8.753
  153POPC   D2A 4960  39.951  16.887   8.347
  153POPC   C3A 4961  39.800  16.680   7.967
  153POPC   C4A 4962  39.778  16.742   7.522
  153POPC   C1B 4963  40.242  16.812   8.785
  153POPC   C2B 4964  40.296  16.546   8.444
  153POPC   C3B 4965  40.307  16.629   7.983
  153POPC   C4B 4966  40.100  16.365   7.657
  154POPC   NC3 4967   4.992  28.227   9.430
  154POPC   PO4 4968   5.071  28.907   9.587
  154POPC   GL1 4969   5.162  28.715   9.156
  154POPC   GL2 4970   4.884  28.503   9.010
  154POPC   C1A 4971   5.302  28.550   8.724
  154POPC   D2A 4972   5.065  28.531   8.377
  154POPC   C3A 4973   5.253  28.498   8.031
  154POPC   C4A 4974   5.370  28.076   7.871
  154POPC   C1B 4975   4.971  28.143   8.718
  154POPC   C2B 4976   4.823  28.072   8.301
  154POPC   C3B 4977   4.842  28.189   7.883
  154POPC   C4B 4978   4.520  27.964   7.624
  155POPC   NC3 4979  40.609  33.831   9.423
  155POPC   PO4 4980  40.897  33.618   9.952
  155POPC   GL1 4981  41.014  33.550   9.378
  155POPC   GL2 4982  40.958  33.864   9.071
  155POPC   C1A 4983  40.812  33.424   8.913
  155POPC   D2A 4984  40.823  33.729   8.530
  155POPC   C3A 4985  40.805  33.540   8.126
  155POPC   C4A 4986  40.706  33.312   7.751
  155POPC   C1B 4987  41.226  34.019   8.748
  155POPC   C2B 4988  41.168  34.207   8.347
  155POPC   C3B 4989  40.860  34.077   8.062
  155POPC   C4B 4990  40.877  33.819   7.681
  156POPC   NC3 4991  13.515  21.676   9.499
  156POPC   PO4 4992  13.051  21.233   9.617
  156POPC   GL1 4993  13.277  21.424   9.142
  156POPC   GL2 4994  13.661  21.438   9.080
  156POPC   C1A 4995  13.370  21.269   8.700
  156POPC   D2A 4996  13.477  21.419   8.301
  156POPC   C3A 4997  13.362  21.177   7.937
  156POPC   C4A 4998  13.427  21.368   7.542
  156POPC   C1B 4999  13.883  21.249   8.733
  156POPC   C2B 5000  14.015  21.341   8.314
  156POPC   C3B 5001  13.859  21.387   7.895
  156POPC   C4B 5002  13.866  21.043   7.611
  157POPC   NC3 5003   1.893   4.624   9.609
  157POPC   PO4 5004   2.287   4.079   9.700
  157POPC   GL1 5005   2.193   4.411   9.284
  157POPC   GL2 5006   1.855   4.360   9.161
  157POPC   C1A 5007   2.228   4.423   8.781
  157POPC   D2A 5008   2.349   4.522   8.339
  157POPC   C3A 5009   2.217   4.218   8.026
  157POPC   C4A 5010   1.914   4.065   7.756
  157POPC   C1B 5011   1.743   4.554   8.793
  157POPC   C2B 5012   1.830   4.410   8.371
  157POPC   C3B 5013   1.873   4.581   7.973
  157POPC   C4B 5014   1.709   4.586   7.577
  158POPC   NC3 5015  35.913   0.128   9.670
  158POPC   PO4 5016  36.104  44.480   9.444
  158POPC   GL1 5017  36.046  44.760   9.128
  158POPC   GL2 5018  35.761  44.998   9.186
  158POPC   C1A 5019  36.162  44.731   8.702
  158POPC   D2A 5020  35.970  44.816   8.327
  158POPC   C3A 5021  36.215  44.650   8.029
  158POPC   C4A 5022  36.241  44.726   7.614
  158POPC   C1B 5023  35.666  44.843   8.757
  158POPC   C2B 5024  35.612  44.468   8.430
  158POPC   C3B 5025  35.805  44.340   7.992
  158POPC   C4B 5026  35.782  44.334   7.511
  159POPC   NC3 5027  13.938  39.043   9.709
  159POPC   PO4 5028  13.350  39.373   9.738
  159POPC   GL1 5029  13.523  39.307   9.267
  159POPC   GL2 5030  13.868  39.212   9.170
  159POPC   C1A 5031  13.469  39.134   8.841
  159POPC   D2A 5032  13.599  39.199   8.417
  159POPC   C3A 5033  13.724  38.990   8.061
  159POPC   C4A 5034  13.448  39.165   7.758
  159POPC   C1B 5035  13.946  39.430   8.742
  159POPC   C2B 5036  13.840  39.649   8.325
  159POPC   C3B 5037  13.762  39.540   7.877
  159POPC   C4B 5038  13.715  39.452   7.414
  160POPC   NC3 5039  44.459  27.263   9.511
  160POPC   PO4 5040  44.837  26.773   9.748
  160POPC   GL1 5041  44.826  26.761   9.279
  160POPC   GL2 5042  44.723  27.080   9.118
  160POPC   C1A 5043  44.885  26.682   8.823
  160POPC   D2A 5044  44.772  26.864   8.410
  160POPC   C3A 5045  44.705  26.636   8.022
  160POPC   C4A 5046  44.810  26.730   7.607
  160POPC   C1B 5047  44.438  26.959   8.791
  160POPC   C2B 5048  44.313  27.117   8.427
  160POPC   C3B 5049  44.483  27.104   8.051
  160POPC   C4B 5050  44.313  26.893   7.749
  161POPC   NC3 5051  33.430   7.864   9.479
  161POPC   PO4 5052  33.708   7.280   9.577
  161POPC   GL1 5053  33.760   7.530   9.164
  161POPC   GL2 5054  33.766   7.892   9.091
  161POPC   C1A 5055  33.921   7.474   8.738
  161POPC   D2A 5056  34.152   7.309   8.363
  161POPC   C3A 5057  33.910   7.319   7.974
  161POPC   C4A 5058  34.014   7.341   7.513
  161POPC   C1B 5059  33.470   7.791   8.772
  161POPC   C2B 5060  33.250   7.685   8.415
  161POPC   C3B 5061  33.402   7.527   8.037
  161POPC   C4B 5062  33.521   7.424   7.650
  162POPC   NC3 5063  22.276  31.825   9.689
  162POPC   PO4 5064  22.024  31.167   9.572
  162POPC   GL1 5065  22.035  31.446   9.214
  162POPC   GL2 5066  22.238  31.719   9.183
  162POPC   C1A 5067  21.762  31.573   8.876
  162POPC   D2A 5068  21.839  31.724   8.465
  162POPC   C3A 5069  21.914  31.423   8.131
  162POPC   C4A 5070  21.878  31.552   7.733
  162POPC   C1B 5071  22.269  31.551   8.776
  162POPC   C2B 5072  22.350  31.457   8.383
  162POPC   C3B 5073  22.580  31.663   8.090
  162POPC   C4B 5074  22.363  31.498   7.805
  163POPC   NC3 5075  35.492  34.144   9.494
  163POPC   PO4 5076  35.808  34.706   9.540
  163POPC   GL1 5077  35.517  34.766   9.175
  163POPC   GL2 5078  35.177  34.885   9.234
  163POPC   C1A 5079  35.496  34.655   8.738
  163POPC   D2A 5080  35.447  34.492   8.332
  163POPC   C3A 5081  35.544  34.732   7.983
  163POPC   C4A 5082  35.632  34.497   7.603
  163POPC   C1B 5083  35.128  35.013   8.786
  163POPC   C2B 5084  35.033  34.809   8.375
  163POPC   C3B 5085  35.063  34.583   8.000
  163POPC   C4B 5086  35.187  34.776   7.607
  164POPC   NC3 5087  14.286  23.237   9.481
  164POPC   PO4 5088  14.246  22.594   9.487
  164POPC   GL1 5089  14.513  22.830   9.161
  164POPC   GL2 5090  14.550  23.211   9.055
  164POPC   C1A 5091  14.596  22.827   8.716
  164POPC   D2A 5092  14.337  22.807   8.340
  164POPC   C3A 5093  14.519  22.894   7.923
  164POPC   C4A 5094  14.640  22.627   7.616
  164POPC   C1B 5095  14.133  23.044   8.835
  164POPC   C2B 5096  13.904  23.059   8.422
  164POPC   C3B 5097  14.144  23.231   8.091
  164POPC   C4B 5098  14.348  23.310   7.710
  165POPC   NC3 5099  14.589  37.299   9.541
  165POPC   PO4 5100  14.234  36.658   9.488
  165POPC   GL1 5101  14.425  36.951   9.187
  165POPC   GL2 5102  14.185  37.230   9.114
  165POPC   C1A 5103  14.502  37.009   8.736
  165POPC   D2A 5104  14.234  37.237   8.458
  165POPC   C3A 5105  14.463  37.311   8.095
  165POPC   C4A 5106  14.680  37.027   7.824
  165POPC   C1B 5107  14.023  36.888   8.859
  165POPC   C2B 5108  14.118  36.714   8.466
  165POPC   C3B 5109  14.111  36.910   8.063
  165POPC   C4B 5110  14.205  36.672   7.715
  166POPC   NC3 5111  29.661  12.869   9.729
  166POPC   PO4 5112  30.233  13.136   9.552
  166POPC   GL1 5113  30.005  12.865   9.189
  166POPC   GL2 5114  29.682  12.673   9.201
  166POPC   C1A 5115  29.975  12.834   8.718
  166POPC   D2A 5116  29.844  13.174   8.395
  166POPC   C3A 5117  29.927  13.097   7.946
  166POPC   C4A 5118  29.970  12.712   7.709
  166POPC   C1B 5119  29.525  12.577   8.740
  166POPC   C2B 5120  29.687  12.697   8.297
  166POPC   C3B 5121  29.498  12.818   7.897
  166POPC   C4B 5122  29.451  12.635   7.490
  167POPC   NC3 5123  43.454  31.265   9.502
  167POPC   PO4 5124  42.938  31.694   9.673
  167POPC   GL1 5125  43.036  31.524   9.249
  167POPC   GL2 5126  43.321  31.742   9.198
  167POPC   C1A 5127  42.874  31.339   8.824
  167POPC   D2A 5128  42.848  31.125   8.412
  167POPC   C3A 5129  42.978  31.403   8.092
  167POPC   C4A 5130  43.191  31.301   7.759
  167POPC   C1B 5131  43.137  31.825   8.840
  167POPC   C2B 5132  43.176  31.717   8.442
  167POPC   C3B 5133  43.226  31.876   8.024
  167POPC   C4B 5134  43.116  31.794   7.622
  168POPC   NC3 5135  38.998  15.270   9.434
  168POPC   PO4 5136  39.027  14.716   9.034
  168POPC   GL1 5137  39.146  15.126   8.982
  168POPC   GL2 5138  39.467  15.135   9.162
  168POPC   C1A 5139  38.887  15.357   8.744
  168POPC   D2A 5140  38.729  15.067   8.433
  168POPC   C3A 5141  38.800  15.272   8.049
  168POPC   C4A 5142  39.016  15.300   7.704
  168POPC   C1B 5143  39.558  14.988   8.729
  168POPC   C2B 5144  39.249  15.106   8.438
  168POPC   C3B 5145  39.189  14.948   8.035
  168POPC   C4B 5146  39.461  15.033   7.668
  169POPC   NC3 5147  24.828  20.302   9.719
  169POPC   PO4 5148  24.287  19.919   9.731
  169POPC   GL1 5149  24.464  20.049   9.304
  169POPC   GL2 5150  24.169  20.171   9.113
  169POPC   C1A 5151  24.459  19.786   8.906
  169POPC   D2A 5152  24.395  19.666   8.465
  169POPC   C3A 5153  24.719  19.561   8.133
  169POPC   C4A 5154  24.550  19.631   7.743
  169POPC   C1B 5155  24.120  20.125   8.635
  169POPC   C2B 5156  24.300  20.116   8.201
  169POPC   C3B 5157  24.250  20.063   7.738
  169POPC   C4B 5158  24.020  19.973   7.353
  170POPC   NC3 5159  12.620  12.938   9.810
  170POPC   PO4 5160  12.751  13.168   9.217
  170POPC   GL1 5161  12.834  12.772   8.995
  170POPC   GL2 5162  13.225  12.674   8.941
  170POPC   C1A 5163  12.566  12.730   8.621
  170POPC   D2A 5164  12.621  13.134   8.406
  170POPC   C3A 5165  12.846  13.072   8.053
  170POPC   C4A 5166  12.628  12.830   7.784
  170POPC   C1B 5167  13.058  12.799   8.547
  170POPC   C2B 5168  12.886  12.583   8.214
  170POPC   C3B 5169  13.071  12.607   7.821
  170POPC   C4B 5170  13.028  12.775   7.448
  171POPC   NC3 5171  31.455  10.013   9.422
  171POPC   PO4 5172  31.713   9.416   9.631
  171POPC   GL1 5173  31.554   9.555   9.219
  171POPC   GL2 5174  31.173   9.549   9.283
  171POPC   C1A 5175  31.619   9.834   8.820
  171POPC   D2A 5176  31.852  10.094   8.521
  171POPC   C3A 5177  31.811   9.901   8.121
  171POPC   C4A 5178  31.590   9.957   7.754
  171POPC   C1B 5179  31.185   9.574   8.834
  171POPC   C2B 5180  31.407   9.530   8.429
  171POPC   C3B 5181  31.288   9.629   8.014
  171POPC   C4B 5182  31.436   9.465   7.623
  172POPC   NC3 5183  26.596  19.647   9.453
  172POPC   PO4 5184  27.279  19.582   9.605
  172POPC   GL1 5185  27.064  19.460   9.214
  172POPC   GL2 5186  26.748  19.342   9.061
  172POPC   C1A 5187  27.096  19.714   8.831
  172POPC   D2A 5188  26.799  19.885   8.510
  172POPC   C3A 5189  26.917  19.903   8.092
  172POPC   C4A 5190  26.852  19.948   7.663
  172POPC   C1B 5191  26.767  19.370   8.621
  172POPC   C2B 5192  26.860  19.408   8.193
  172POPC   C3B 5193  26.623  19.523   7.813
  172POPC   C4B 5194  26.663  19.528   7.361
  173POPC   NC3 5195  33.859  34.745   9.597
  173POPC   PO4 5196  33.443  34.964   9.146
  173POPC   GL1 5197  33.728  34.759   8.939
  173POPC   GL2 5198  33.961  34.935   9.117
  173POPC   C1A 5199  33.862  34.601   8.527
  173POPC   D2A 5200  34.023  34.328   8.206
  173POPC   C3A 5201  33.705  34.481   7.853
  173POPC   C4A 5202  33.461  34.901   7.838
  173POPC   C1B 5203  34.154  34.960   8.767
  173POPC   C2B 5204  34.147  35.053   8.371
  173POPC   C3B 5205  34.046  34.805   8.036
  173POPC   C4B 5206  34.221  34.496   7.777
  174POPC   NC3 5207  11.825   4.228   9.849
  174POPC   PO4 5208  12.157   4.701   9.505
  174POPC   GL1 5209  12.175   4.582   9.086
  174POPC   GL2 5210  12.154   4.202   9.151
  174POPC   C1A 5211  12.012   4.490   8.687
  174POPC   D2A 5212  11.921   4.332   8.293
  174POPC   C3A 5213  12.159   4.571   7.975
  174POPC   C4A 5214  12.292   4.487   7.534
  174POPC   C1B 5215  12.400   4.193   8.767
  174POPC   C2B 5216  12.420   4.301   8.346
  174POPC   C3B 5217  12.279   4.084   7.967
  174POPC   C4B 5218  12.165   3.932   7.593
  175POPC   NC3 5219  15.426   8.546   9.510
  175POPC   PO4 5220  15.155   9.138   9.719
  175POPC   GL1 5221  15.364   9.033   9.310
  175POPC   GL2 5222  15.094   8.859   9.207
  175POPC   C1A 5223  15.480   8.782   8.883
  175POPC   D2A 5224  15.689   8.705   8.475
  175POPC   C3A 5225  15.415   8.659   8.115
  175POPC   C4A 5226  15.321   8.913   7.737
  175POPC   C1B 5227  14.953   8.800   8.806
  175POPC   C2B 5228  14.901   8.682   8.385
  175POPC   C3B 5229  14.904   8.853   8.010
  175POPC   C4B 5230  14.756   8.755   7.618
  176POPC   NC3 5231  18.990  19.888   9.551
  176POPC   PO4 5232  19.585  20.131   9.438
  176POPC   GL1 5233  19.258  20.050   9.148
  176POPC   GL2 5234  19.243  19.693   9.122
  176POPC   C1A 5235  19.092  20.064   8.731
  176POPC   D2A 5236  19.190  19.803   8.341
  176POPC   C3A 5237  19.136  19.961   7.937
  176POPC   C4A 5238  19.417  20.260   7.737
  176POPC   C1B 5239  18.937  19.555   8.833
  176POPC   C2B 5240  18.739  19.607   8.427
  176POPC   C3B 5241  18.883  19.473   8.006
  176POPC   C4B 5242  19.288  19.471   7.817
  177POPC   NC3 5243  25.926   6.384   9.430
  177POPC   PO4 5244  25.620   7.038   9.467
  177POPC   GL1 5245  25.823   6.795   9.145
  177POPC   GL2 5246  26.144   6.788   9.103
  177POPC   C1A 5247  25.815   6.550   8.777
  177POPC   D2A 5248  25.715   6.672   8.373
  177POPC   C3A 5249  25.965   6.436   8.145
  177POPC   C4A 5250  25.931   6.302   7.737
  177POPC   C1B 5251  26.339   6.661   8.722
  177POPC   C2B 5252  26.469   6.558   8.302
  177POPC   C3B 5253  26.363   6.643   7.873
  177POPC   C4B 5254  26.499   6.824   7.506
  178POPC   NC3 5255  32.635  11.597   9.398
  178POPC   PO4 5256  33.320  11.503   9.417
  178POPC   GL1 5257  33.042  11.475   9.059
  178POPC   GL2 5258  32.734  11.223   9.049
  178POPC   C1A 5259  32.996  11.338   8.644
  178POPC   D2A 5260  33.130  11.348   8.265
  178POPC   C3A 5261  32.777  11.361   8.056
  178POPC   C4A 5262  32.924  11.288   7.696
  178POPC   C1B 5263  32.824  10.883   8.778
  178POPC   C2B 5264  32.826  10.936   8.363
  178POPC   C3B 5265  32.974  10.883   7.991
  178POPC   C4B 5266  32.916  10.806   7.574
  179POPC   NC3 5267   8.529   4.476   9.401
  179POPC   PO4 5268   8.030   4.006   9.603
  179POPC   GL1 5269   8.162   4.135   9.183
  179POPC   GL2 5270   8.124   4.477   8.998
  179POPC   C1A 5271   8.175   4.056   8.746
  179POPC   D2A 5272   8.105   4.359   8.451
  179POPC   C3A 5273   7.943   4.229   8.059
  179POPC   C4A 5274   7.914   4.501   7.725
  179POPC   C1B 5275   8.534   4.426   8.736
  179POPC   C2B 5276   8.683   4.460   8.329
  179POPC   C3B 5277   8.392   4.452   7.980
  179POPC   C4B 5278   8.387   4.661   7.570
  180POPC   NC3 5279  27.731  37.653   9.422
  180POPC   PO4 5280  27.043  37.875   9.482
  180POPC   GL1 5281  27.330  37.760   9.105
  180POPC   GL2 5282  27.659  37.916   8.982
  180POPC   C1A 5283  27.540  37.497   8.737
  180POPC   D2A 5284  27.757  37.475   8.322
  180POPC   C3A 5285  27.620  37.533   7.919
  180POPC   C4A 5286  27.528  37.471   7.453
  180POPC   C1B 5287  27.876  38.177   8.693
  180POPC   C2B 5288  27.786  38.261   8.275
  180POPC   C3B 5289  27.894  37.941   8.044
  180POPC   C4B 5290  28.090  38.034   7.677
  181POPC   NC3 5291  29.063  10.473   9.486
  181POPC   PO4 5292  28.692   9.903   9.567
  181POPC   GL1 5293  28.864  10.078   9.151
  181POPC   GL2 5294  29.251  10.185   9.077
  181POPC   C1A 5295  28.891  10.308   8.759
  181POPC   D2A 5296  29.160  10.355   8.416
  181POPC   C3A 5297  29.102  10.718   8.156
  181POPC   C4A 5298  29.145  10.644   7.711
  181POPC   C1B 5299  29.528  10.425   8.797
  181POPC   C2B 5300  29.583  10.700   8.425
  181POPC   C3B 5301  29.520  10.470   8.052
  181POPC   C4B 5302  29.576  10.361   7.655
  182POPC   NC3 5303  14.896  24.906   9.292
  182POPC   PO4 5304  15.259  25.354   9.647
  182POPC   GL1 5305  15.236  25.529   9.233
  182POPC   GL2 5306  15.113  25.289   9.044
  182POPC   C1A 5307  15.483  25.579   8.858
  182POPC   D2A 5308  15.526  25.379   8.469
  182POPC   C3A 5309  15.215  25.385   8.162
  182POPC   C4A 5310  15.375  25.312   7.772
  182POPC   C1B 5311  15.000  25.252   8.619
  182POPC   C2B 5312  14.961  24.931   8.308
  182POPC   C3B 5313  14.976  25.010   7.868
  182POPC   C4B 5314  14.843  25.086   7.436
  183POPC   NC3 5315  14.173  18.374   9.750
  183POPC   PO4 5316  13.914  17.789   9.554
  183POPC   GL1 5317  13.921  18.170   9.295
  183POPC   GL2 5318  13.590  18.144   9.162
  183POPC   C1A 5319  13.909  18.390   8.871
  183POPC   D2A 5320  13.935  18.220   8.420
  183POPC   C3A 5321  13.719  18.421   8.060
  183POPC   C4A 5322  13.625  18.219   7.651
  183POPC   C1B 5323  13.574  17.982   8.706
  183POPC   C2B 5324  13.421  18.037   8.247
  183POPC   C3B 5325  13.136  17.964   7.863
  183POPC   C4B 5326  12.870  17.869   7.484
  184POPC   NC3 5327  25.395  25.076   9.290
  184POPC   PO4 5328  25.310  24.530   9.715
  184POPC   GL1 5329  25.213  24.506   9.221
  184POPC   GL2 5330  25.193  24.755   8.952
  184POPC   C1A 5331  25.203  24.262   8.787
  184POPC   D2A 5332  25.067  24.198   8.330
  184POPC   C3A 5333  25.431  24.296   8.065
  184POPC   C4A 5334  25.487  24.480   7.656
  184POPC   C1B 5335  25.031  24.994   8.605
  184POPC   C2B 5336  25.092  24.737   8.247
  184POPC   C3B 5337  25.267  24.854   7.901
  184POPC   C4B 5338  25.106  24.836   7.504
  185POPC   NC3 5339  44.231  20.491   9.449
  185POPC   PO4 5340  43.595  21.003   9.348
  185POPC   GL1 5341  43.945  20.765   9.107
  185POPC   GL2 5342  44.013  20.455   9.027
  185POPC   C1A 5343  44.148  20.768   8.683
  185POPC   D2A 5344  43.924  20.702   8.325
  185POPC   C3A 5345  44.202  20.777   8.017
  185POPC   C4A 5346  44.086  20.676   7.618
  185POPC   C1B 5347  44.193  20.252   8.708
  185POPC   C2B 5348  43.860  20.207   8.445
  185POPC   C3B 5349  44.071  20.265   8.061
  185POPC   C4B 5350  43.903  20.192   7.674
  186POPC   NC3 5351  38.539  32.490   9.649
  186POPC   PO4 5352  38.165  31.986   9.670
  186POPC   GL1 5353  38.429  32.109   9.256
  186POPC   GL2 5354  38.599  32.460   9.156
  186POPC   C1A 5355  38.336  32.213   8.790
  186POPC   D2A 5356  38.407  32.438   8.387
  186POPC   C3A 5357  38.198  32.303   8.001
  186POPC   C4A 5358  38.202  32.471   7.568
  186POPC   C1B 5359  38.797  32.428   8.750
  186POPC   C2B 5360  38.898  32.314   8.343
  186POPC   C3B 5361  38.692  32.191   7.960
  186POPC   C4B 5362  38.694  31.876   7.635
  187POPC   NC3 5363  42.092   5.365   9.358
  187POPC   PO4 5364  42.594   5.437   9.790
  187POPC   GL1 5365  42.459   5.030   9.333
  187POPC   GL2 5366  42.124   4.914   9.127
  187POPC   C1A 5367  42.477   4.902   8.805
  187POPC   D2A 5368  42.460   5.183   8.413
  187POPC   C3A 5369  42.314   5.029   7.989
  187POPC   C4A 5370  42.462   5.235   7.614
  187POPC   C1B 5371  42.025   5.187   8.716
  187POPC   C2B 5372  42.011   5.386   8.257
  187POPC   C3B 5373  41.921   5.281   7.800
  187POPC   C4B 5374  42.056   5.404   7.392
  188POPC   NC3 5375   4.620  19.621   9.390
  188POPC   PO4 5376   4.263  20.200   9.330
  188POPC   GL1 5377   4.419  19.970   9.093
  188POPC   GL2 5378   4.210  19.692   9.125
  188POPC   C1A 5379   4.585  19.873   8.744
  188POPC   D2A 5380   4.467  19.751   8.350
  188POPC   C3A 5381   4.755  19.890   8.028
  188POPC   C4A 5382   4.408  19.922   7.815
  188POPC   C1B 5383   4.069  19.634   8.727
  188POPC   C2B 5384   4.057  19.395   8.373
  188POPC   C3B 5385   4.052  19.593   8.002
  188POPC   C4B 5386   4.142  19.521   7.590
  189POPC   NC3 5387   3.021  22.630   9.485
  189POPC   PO4 5388   2.376  22.886   9.412
  189POPC   GL1 5389   2.748  22.866   9.113
  189POPC   GL2 5390   2.776  22.477   9.063
  189POPC   C1A 5391   2.869  23.114   8.715
  189POPC   D2A 5392   2.719  23.201   8.259
  189POPC   C3A 5393   2.735  22.889   7.878
  189POPC   C4A 5394   2.687  22.794   7.399
  189POPC   C1B 5395   3.056  22.639   8.751
  189POPC   C2B 5396   2.979  22.758   8.328
  189POPC   C3B 5397   3.180  22.674   7.948
  189POPC   C4B 5398   3.174  22.826   7.508
  190POPC   NC3 5399  44.370  16.039   9.590
  190POPC   PO4 5400  44.770  15.532   9.527
  190POPC   GL1 5401  44.699  15.806   9.129
  190POPC   GL2 5402   0.015  15.988   8.997
  190POPC   C1A 5403  44.591  16.044   8.704
  190POPC   D2A 5404  44.378  16.048   8.268
  190POPC   C3A 5405  44.560  16.129   7.868
  190POPC   C4A 5406  44.947  16.228   7.709
  190POPC   C1B 5407  44.970  15.707   8.656
  190POPC   C2B 5408  44.877  15.867   8.247
  190POPC   C3B 5409  44.934  15.733   7.841
  190POPC   C4B 5410  44.825  15.774   7.440
  191POPC   NC3 5411  20.978  36.467   9.851
  191POPC   PO4 5412  20.366  36.474   9.612
  191POPC   GL1 5413  20.457  36.127   9.268
  191POPC   GL2 5414  20.794  35.927   9.215
  191POPC   C1A 5415  20.332  35.996   8.839
  191POPC   D2A 5416  20.235  36.132   8.416
  191POPC   C3A 5417  20.557  36.116   8.148
  191POPC   C4A 5418  20.563  36.191   7.726
  191POPC   C1B 5419  20.756  35.719   8.802
  191POPC   C2B 5420  20.911  35.834   8.382
  191POPC   C3B 5421  20.862  35.766   7.943
  191POPC   C4B 5422  20.936  35.888   7.517
  192POPC   NC3 5423  38.735   4.300   9.421
  192POPC   PO4 5424  38.101   4.037   9.446
  192POPC   GL1 5425  38.367   4.204   9.112
  192POPC   GL2 5426  38.289   4.480   9.045
  192POPC   C1A 5427  38.649   4.354   8.712
  192POPC   D2A 5428  38.653   4.686   8.370
  192POPC   C3A 5429  38.542   4.568   7.948
  192POPC   C4A 5430  38.715   4.201   7.803
  192POPC   C1B 5431  38.142   4.255   8.684
  192POPC   C2B 5432  38.259   4.350   8.310
  192POPC   C3B 5433  38.233   4.133   7.932
  192POPC   C4B 5434  38.228   4.358   7.565
  193POPC   NC3 5435   3.757  35.959  10.093
  193POPC   PO4 5436   3.610  36.377   9.584
  193POPC   GL1 5437   3.627  36.277   9.178
  193POPC   GL2 5438   3.598  35.907   9.235
  193POPC   C1A 5439   3.538  36.158   8.757
  193POPC   D2A 5440   3.806  35.975   8.454
  193POPC   C3A 5441   3.703  36.194   8.098
  193POPC   C4A 5442   3.628  36.048   7.714
  193POPC   C1B 5443   3.602  35.663   8.869
  193POPC   C2B 5444   3.324  35.577   8.517
  193POPC   C3B 5445   3.466  35.721   8.101
  193POPC   C4B 5446   3.543  35.540   7.701
  194POPC   NC3 5447  13.655  25.496   9.570
  194POPC   PO4 5448  13.623  24.783   9.528
  194POPC   GL1 5449  13.474  25.112   9.220
  194POPC   GL2 5450  13.738  25.339   9.081
  194POPC   C1A 5451  13.354  25.133   8.765
  194POPC   D2A 5452  13.272  25.453   8.430
  194POPC   C3A 5453  13.257  25.417   8.018
  194POPC   C4A 5454  13.405  25.255   7.638
  194POPC   C1B 5455  13.761  25.401   8.621
  194POPC   C2B 5456  13.620  25.135   8.279
  194POPC   C3B 5457  13.568  24.868   7.947
  194POPC   C4B 5458  13.836  24.992   7.626
  195POPC   NC3 5459  22.923  28.236   9.414
  195POPC   PO4 5460  22.370  28.652   9.535
  195POPC   GL1 5461  22.652  28.699   9.156
  195POPC   GL2 5462  23.037  28.723   9.098
  195POPC   C1A 5463  22.770  28.427   8.791
  195POPC   D2A 5464  22.939  28.072   8.505
  195POPC   C3A 5465  22.871  28.167   8.069
  195POPC   C4A 5466  22.618  28.551   7.951
  195POPC   C1B 5467  23.266  28.518   8.712
  195POPC   C2B 5468  23.279  28.412   8.249
  195POPC   C3B 5469  23.161  28.465   7.756
  195POPC   C4B 5470  23.231  28.604   7.294
  196POPC   NC3 5471  13.771  24.803   9.990
  196POPC   PO4 5472  13.968  24.251   9.629
  196POPC   GL1 5473  13.942  24.419   9.215
  196POPC   GL2 5474  13.612  24.396   9.143
  196POPC   C1A 5475  13.971  24.619   8.802
  196POPC   D2A 5476  13.759  24.644   8.388
  196POPC   C3A 5477  14.019  24.608   8.013
  196POPC   C4A 5478  13.954  24.245   7.755
  196POPC   C1B 5479  13.416  24.581   8.773
  196POPC   C2B 5480  13.276  24.401   8.368
  196POPC   C3B 5481  13.393  24.347   7.930
  196POPC   C4B 5482  13.378  24.104   7.487
  197POPC   NC3 5483  32.097  12.303   9.519
  197POPC   PO4 5484  31.858  11.642   9.420
  197POPC   GL1 5485  32.234  11.889   9.186
  197POPC   GL2 5486  32.185  12.255   9.019
  197POPC   C1A 5487  32.449  11.939   8.747
  197POPC   D2A 5488  32.458  12.207   8.348
  197POPC   C3A 5489  32.238  12.132   7.943
  197POPC   C4A 5490  32.241  12.202   7.484
  197POPC   C1B 5491  31.885  12.338   8.643
  197POPC   C2B 5492  31.832  12.327   8.179
  197POPC   C3B 5493  31.772  12.219   7.711
  197POPC   C4B 5494  31.844  12.462   7.293
  198POPC   NC3 5495  29.176  17.985   9.441
  198POPC   PO4 5496  29.280  18.664   9.431
  198POPC   GL1 5497  29.035  18.606   9.053
  198POPC   GL2 5498  29.088  18.293   9.068
  198POPC   C1A 5499  28.803  18.631   8.645
  198POPC   D2A 5500  28.832  18.401   8.234
  198POPC   C3A 5501  29.157  18.477   7.895
  198POPC   C4A 5502  28.881  18.649   7.626
  198POPC   C1B 5503  29.054  18.197   8.686
  198POPC   C2B 5504  29.234  18.110   8.331
  198POPC   C3B 5505  29.092  17.995   7.933
  198POPC   C4B 5506  29.467  18.092   7.633
  199POPC   NC3 5507  35.265  28.339   9.490
  199POPC   PO4 5508  35.752  28.795   9.421
  199POPC   GL1 5509  35.633  28.468   9.118
  199POPC   GL2 5510  35.272  28.431   8.998
  199POPC   C1A 5511  35.681  28.309   8.687
  199POPC   D2A 5512  35.300  28.353   8.427
  199POPC   C3A 5513  35.311  28.352   7.982
  199POPC   C4A 5514  35.460  28.267   7.542
  199POPC   C1B 5515  35.065  28.112   8.808
  199POPC   C2B 5516  34.874  28.059   8.383
  199POPC   C3B 5517  34.927  27.992   7.898
  199POPC   C4B 5518  34.960  28.105   7.390
  200POPC   NC3 5519  25.697  43.462   9.298
  200POPC   PO4 5520  26.098  42.921   9.459
  200POPC   GL1 5521  26.092  43.093   9.095
  200POPC   GL2 5522  26.194  43.445   9.143
  200POPC   C1A 5523  25.914  42.967   8.696
  200POPC   D2A 5524  25.716  43.128   8.336
  200POPC   C3A 5525  25.939  43.142   7.957
  200POPC   C4A 5526  25.853  42.903   7.596
  200POPC   C1B 5527  26.318  43.307   8.706
  200POPC   C2B 5528  26.294  43.069   8.322
  200POPC   C3B 5529  26.441  42.992   7.872
  200POPC   C4B 5530  26.241  43.230   7.529
  201POPC   NC3 5531  38.678   8.835   9.697
  201POPC   PO4 5532  38.038   8.905   9.531
  201POPC   GL1 5533  38.373   9.004   9.189
  201POPC   GL2 5534  38.229   9.304   9.021
  201POPC   C1A 5535  38.709   8.914   8.845
  201POPC   D2A 5536  38.699   8.848   8.368
  201POPC   C3A 5537  38.660   8.988   7.939
  201POPC   C4A 5538  38.582   8.759   7.538
  201POPC   C1B 5539  37.933   9.324   8.671
  201POPC   C2B 5540  37.918   9.544   8.278
  201POPC   C3B 5541  38.263   9.502   7.944
  201POPC   C4B 5542  38.347   9.219   7.602
  202POPC   NC3 5543  23.241   8.849   9.312
  202POPC   PO4 5544  22.844   9.290   9.587
  202POPC   GL1 5545  22.763   9.119   9.186
  202POPC   GL2 5546  22.718   8.758   9.231
  202POPC   C1A 5547  22.941   9.096   8.772
  202POPC   D2A 5548  23.190   8.834   8.541
  202POPC   C3A 5549  23.191   8.954   8.155
  202POPC   C4A 5550  23.171   8.913   7.713
  202POPC   C1B 5551  22.540   8.741   8.818
  202POPC   C2B 5552  22.708   8.692   8.400
  202POPC   C3B 5553  22.748   8.808   7.979
  202POPC   C4B 5554  22.696   8.830   7.514
  203POPC   NC3 5555   4.699  37.622   9.599
  203POPC   PO4 5556   4.052  37.273   9.767
  203POPC   GL1 5557   4.270  37.628   9.368
  203POPC   GL2 5558   4.111  37.875   9.147
  203POPC   C1A 5559   4.483  37.594   8.935
  203POPC   D2A 5560   4.599  37.595   8.476
  203POPC   C3A 5561   4.415  37.852   8.104
  203POPC   C4A 5562   4.356  37.692   7.665
  203POPC   C1B 5563   3.973  38.080   8.753
  203POPC   C2B 5564   3.907  37.943   8.302
  203POPC   C3B 5565   3.925  37.946   7.826
  203POPC   C4B 5566   3.996  38.008   7.345
  204POPC   NC3 5567  32.101  31.715   9.405
  204POPC   PO4 5568  32.601  31.203   9.391
  204POPC   GL1 5569  32.436  31.132   9.001
  204POPC   GL2 5570  32.221  31.426   8.995
  204POPC   C1A 5571  32.553  31.281   8.597
  204POPC   D2A 5572  32.232  31.580   8.457
  204POPC   C3A 5573  32.221  31.713   8.042
  204POPC   C4A 5574  32.282  31.482   7.661
  204POPC   C1B 5575  31.844  31.603   8.806
  204POPC   C2B 5576  31.773  31.813   8.441
  204POPC   C3B 5577  31.699  31.694   8.031
  204POPC   C4B 5578  31.894  31.824   7.641
  205POPC   NC3 5579  16.239   9.725   9.775
  205POPC   PO4 5580  15.642   9.842   9.516
  205POPC   GL1 5581  15.863   9.842   9.117
  205POPC   GL2 5582  16.072   9.598   9.245
  205POPC   C1A 5583  15.674   9.755   8.679
  205POPC   D2A 5584  15.533   9.955   8.290
  205POPC   C3A 5585  15.748   9.832   7.927
  205POPC   C4A 5586  16.173   9.924   7.837
  205POPC   C1B 5587  16.142   9.500   8.795
  205POPC   C2B 5588  16.097   9.635   8.348
  205POPC   C3B 5589  16.080   9.430   7.930
  205POPC   C4B 5590  16.311   9.528   7.530
  206POPC   NC3 5591   9.514  44.896   9.475
  206POPC   PO4 5592   9.911  44.395   9.544
  206POPC   GL1 5593   9.709  44.589   9.132
  206POPC   GL2 5594   9.421  44.812   8.997
  206POPC   C1A 5595   9.836  44.623   8.717
  206POPC   D2A 5596  10.129  44.598   8.407
  206POPC   C3A 5597   9.940  44.697   8.040
  206POPC   C4A 5598   9.982  44.603   7.692
  206POPC   C1B 5599   9.351  44.778   8.573
  206POPC   C2B 5600   9.527  44.527   8.263
  206POPC   C3B 5601   9.464  44.539   7.827
  206POPC   C4B 5602   9.595  44.687   7.410
  207POPC   NC3 5603  42.768  26.678   9.276
  207POPC   PO4 5604  43.353  26.936   9.541
  207POPC   GL1 5605  43.248  26.843   9.127
  207POPC   GL2 5606  43.436  27.090   8.969
  207POPC   C1A 5607  43.079  26.837   8.685
  207POPC   D2A 5608  42.843  27.065   8.363
  207POPC   C3A 5609  42.915  27.091   7.938
  207POPC   C4A 5610  42.814  26.799   7.613
  207POPC   C1B 5611  43.573  26.692   8.764
  207POPC   C2B 5612  43.447  26.645   8.328
  207POPC   C3B 5613  43.417  26.998   8.031
  207POPC   C4B 5614  43.262  27.051   7.572
  208POPC   NC3 5615   8.888  43.558   9.379
  208POPC   PO4 5616   9.275  43.057   9.638
  208POPC   GL1 5617   9.135  42.990   9.175
  208POPC   GL2 5618   8.805  42.884   9.126
  208POPC   C1A 5619   9.006  43.201   8.751
  208POPC   D2A 5620   9.221  43.363   8.361
  208POPC   C3A 5621   9.224  43.429   7.901
  208POPC   C4A 5622   8.901  43.297   7.625
  208POPC   C1B 5623   8.899  42.712   8.707
  208POPC   C2B 5624   8.765  42.884   8.342
  208POPC   C3B 5625   8.878  42.909   7.938
  208POPC   C4B 5626   8.602  42.819   7.574
  209POPC   NC3 5627  11.093  23.485   9.740
  209POPC   PO4 5628  11.405  23.010   9.502
  209POPC   GL1 5629  11.383  23.087   9.116
  209POPC   GL2 5630  11.099  23.303   9.166
  209POPC   C1A 5631  11.539  22.895   8.703
  209POPC   D2A 5632  11.794  22.832   8.302
  209POPC   C3A 5633  11.463  22.856   8.041
  209POPC   C4A 5634  11.328  23.131   7.743
  209POPC   C1B 5635  11.035  23.101   8.765
  209POPC   C2B 5636  11.105  22.863   8.415
  209POPC   C3B 5637  10.945  22.927   8.047
  209POPC   C4B 5638  10.818  23.098   7.690
  210POPC   NC3 5639  17.506  42.123   9.614
  210POPC   PO4 5640  17.883  42.754   9.452
  210POPC   GL1 5641  17.811  42.528   9.072
  210POPC   GL2 5642  17.691  42.248   9.138
  210POPC   C1A 5643  17.438  42.498   8.752
  210POPC   D2A 5644  17.229  42.608   8.374
  210POPC   C3A 5645  17.289  42.415   7.975
  210POPC   C4A 5646  17.198  42.571   7.565
  210POPC   C1B 5647  17.652  42.042   8.715
  210POPC   C2B 5648  17.744  42.337   8.370
  210POPC   C3B 5649  17.752  42.601   8.025
  210POPC   C4B 5650  17.769  42.329   7.646
  211POPC   NC3 5651  27.742  28.532   9.378
  211POPC   PO4 5652  27.227  28.290   9.688
  211POPC   GL1 5653  27.388  28.193   9.163
  211POPC   GL2 5654  27.743  28.227   8.976
  211POPC   C1A 5655  27.357  28.299   8.686
  211POPC   D2A 5656  27.754  28.288   8.430
  211POPC   C3A 5657  27.738  28.155   8.012
  211POPC   C4A 5658  27.429  28.463   7.860
  211POPC   C1B 5659  27.908  28.666   8.784
  211POPC   C2B 5660  28.035  28.823   8.382
  211POPC   C3B 5661  27.927  28.615   8.021
  211POPC   C4B 5662  27.863  28.571   7.567
  212POPC   NC3 5663   2.127  30.171   9.463
  212POPC   PO4 5664   1.825  29.549   9.490
  212POPC   GL1 5665   1.840  29.827   9.167
  212POPC   GL2 5666   2.176  29.784   9.064
  212POPC   C1A 5667   1.751  29.944   8.758
  212POPC   D2A 5668   1.734  29.932   8.336
  212POPC   C3A 5669   2.061  29.781   8.131
  212POPC   C4A 5670   1.885  29.842   7.719
  212POPC   C1B 5671   2.241  30.161   8.796
  212POPC   C2B 5672   2.224  30.271   8.372
  212POPC   C3B 5673   2.095  30.251   7.943
  212POPC   C4B 5674   2.282  30.132   7.574
  213POPC   NC3 5675  43.710  30.494   9.537
  213POPC   PO4 5676  43.768  31.172   9.827
  213POPC   GL1 5677  43.856  30.972   9.342
  213POPC   GL2 5678  43.599  30.952   9.065
  213POPC   C1A 5679  43.979  30.671   8.930
  213POPC   D2A 5680  43.711  30.552   8.542
  213POPC   C3A 5681  43.895  30.513   8.106
  213POPC   C4A 5682  43.973  30.369   7.684
  213POPC   C1B 5683  43.804  31.096   8.712
  213POPC   C2B 5684  43.964  30.968   8.322
  213POPC   C3B 5685  43.894  31.016   7.875
  213POPC   C4B 5686  43.869  30.817   7.456
  214POPC   NC3 5687  14.093  24.846   9.450
  214POPC   PO4 5688  14.736  24.514   9.506
  214POPC   GL1 5689  14.460  24.472   9.208
  214POPC   GL2 5690  14.432  24.783   9.074
  214POPC   C1A 5691  14.360  24.247   8.842
  214POPC   D2A 5692  14.173  24.292   8.450
  214POPC   C3A 5693  14.390  24.248   8.085
  214POPC   C4A 5694  14.460  24.417   7.692
  214POPC   C1B 5695  14.577  24.943   8.712
  214POPC   C2B 5696  14.487  24.703   8.382
  214POPC   C3B 5697  14.528  24.806   8.009
  214POPC   C4B 5698  14.393  24.964   7.665
  215POPC   NC3 5699  28.176  12.244   9.600
  215POPC   PO4 5700  28.397  11.732   9.500
  215POPC   GL1 5701  28.482  12.117   9.195
  215POPC   GL2 5702  28.182  12.307   9.053
  215POPC   C1A 5703  28.595  12.167   8.758
  215POPC   D2A 5704  28.455  11.999   8.338
  215POPC   C3A 5705  28.267  12.241   8.002
  215POPC   C4A 5706  28.319  12.043   7.592
  215POPC   C1B 5707  28.132  12.338   8.591
  215POPC   C2B 5708  27.909  12.143   8.355
  215POPC   C3B 5709  27.828  11.973   7.981
  215POPC   C4B 5710  27.864  12.248   7.649
  216POPC   NC3 5711  27.025  37.348   9.463
  216POPC   PO4 5712  26.342  37.564   9.534
  216POPC   GL1 5713  26.595  37.424   9.216
  216POPC   GL2 5714  26.800  37.694   9.082
  216POPC   C1A 5715  26.630  37.327   8.789
  216POPC   D2A 5716  26.592  37.588   8.470
  216POPC   C3A 5717  26.749  37.446   8.132
  216POPC   C4A 5718  26.643  37.418   7.729
  216POPC   C1B 5719  27.053  37.621   8.691
  216POPC   C2B 5720  27.228  37.497   8.273
  216POPC   C3B 5721  27.144  37.484   7.815
  216POPC   C4B 5722  27.137  37.791   7.464
  217POPC   NC3 5723  17.782  28.463   9.327
  217POPC   PO4 5724  18.254  28.009   9.496
  217POPC   GL1 5725  18.352  28.050   9.093
  217POPC   GL2 5726  18.250  28.421   9.094
  217POPC   C1A 5727  18.465  28.190   8.708
  217POPC   D2A 5728  18.375  28.473   8.406
  217POPC   C3A 5729  18.427  28.286   7.994
  217POPC   C4A 5730  18.309  28.467   7.622
  217POPC   C1B 5731  17.992  28.635   8.757
  217POPC   C2B 5732  17.911  28.721   8.376
  217POPC   C3B 5733  18.065  28.669   8.031
  217POPC   C4B 5734  17.902  28.796   7.656
  218POPC   NC3 5735   0.278  42.481   9.474
  218POPC   PO4 5736   0.819  42.063   9.570
  218POPC   GL1 5737   0.548  42.125   9.216
  218POPC   GL2 5738   0.675  42.440   9.129
  218POPC   C1A 5739   0.273  42.181   8.844
  218POPC   D2A 5740   0.226  42.349   8.424
  218POPC   C3A 5741   0.351  42.109   8.084
  218POPC   C4A 5742   0.489  42.185   7.690
  218POPC   C1B 5743   0.658  42.479   8.692
  218POPC   C2B 5744   0.573  42.729   8.336
  218POPC   C3B 5745   0.359  42.700   7.940
  218POPC   C4B 5746   0.717  42.721   7.708
  219POPC   NC3 5747   5.156   4.682   9.592
  219POPC   PO4 5748   5.297   5.234   9.395
  219POPC   GL1 5749   5.113   4.935   9.111
  219POPC   GL2 5750   4.775   4.827   9.257
  219POPC   C1A 5751   5.016   5.024   8.653
  219POPC   D2A 5752   4.984   5.336   8.303
  219POPC   C3A 5753   5.185   5.270   7.892
  219POPC   C4A 5754   5.222   5.379   7.476
  219POPC   C1B 5755   4.784   4.594   8.867
  219POPC   C2B 5756   4.896   4.567   8.436
  219POPC   C3B 5757   5.045   4.830   8.107
  219POPC   C4B 5758   4.973   4.806   7.672
  220POPC   NC3 5759  15.258  23.361   9.279
  220POPC   PO4 5760  14.873  22.892   9.526
  220POPC   GL1 5761  15.031  22.918   9.078
  220POPC   GL2 5762  15.027  23.202   8.855
  220POPC   C1A 5763  15.106  22.737   8.644
  220POPC   D2A 5764  14.866  22.790   8.267
  220POPC   C3A 5765  15.061  22.930   7.879
  220POPC   C4A 5766  15.485  23.033   7.812
  220POPC   C1B 5767  15.467  23.095   8.725
  220POPC   C2B 5768  15.499  23.187   8.312
  220POPC   C3B 5769  15.198  23.411   8.043
  220POPC   C4B 5770  15.249  23.494   7.624
  221POPC   NC3 5771  37.094  26.499   9.699
  221POPC   PO4 5772  36.876  27.177   9.610
  221POPC   GL1 5773  36.825  26.938   9.204
  221POPC   GL2 5774  37.159  26.884   9.158
  221POPC   C1A 5775  36.694  26.962   8.732
  221POPC   D2A 5776  36.537  27.091   8.276
  221POPC   C3A 5777  36.636  26.811   7.924
  221POPC   C4A 5778  36.836  26.677   7.510
  221POPC   C1B 5779  37.236  26.739   8.761
  221POPC   C2B 5780  37.083  26.678   8.360
  221POPC   C3B 5781  37.352  26.618   8.024
  221POPC   C4B 5782  37.286  26.837   7.667
  222POPC   NC3 5783  20.025   6.084   9.487
  222POPC   PO4 5784  19.571   5.757   9.740
  222POPC   GL1 5785  19.620   5.812   9.261
  222POPC   GL2 5786  19.981   5.697   9.154
  222POPC   C1A 5787  19.631   5.680   8.796
  222POPC   D2A 5788  19.894   5.796   8.428
  222POPC   C3A 5789  19.710   5.835   8.026
  222POPC   C4A 5790  19.570   5.603   7.677
  222POPC   C1B 5791  19.983   6.074   8.859
  222POPC   C2B 5792  20.060   6.308   8.509
  222POPC   C3B 5793  20.093   6.173   8.123
  222POPC   C4B 5794  20.060   6.304   7.739
  223POPC   NC3 5795  12.355  16.210   9.412
  223POPC   PO4 5796  11.949  15.709   9.460
  223POPC   GL1 5797  12.052  15.921   9.103
  223POPC   GL2 5798  12.349  15.805   9.061
  223POPC   C1A 5799  12.157  16.147   8.720
  223POPC   D2A 5800  11.833  16.218   8.410
  223POPC   C3A 5801  11.912  16.227   7.982
  223POPC   C4A 5802  11.831  15.930   7.673
  223POPC   C1B 5803  12.229  15.653   8.646
  223POPC   C2B 5804  12.284  15.903   8.260
  223POPC   C3B 5805  12.392  16.120   7.869
  223POPC   C4B 5806  12.221  16.219   7.440
  224POPC   NC3 5807  13.772  35.940   9.485
  224POPC   PO4 5808  13.356  36.492   9.500
  224POPC   GL1 5809  13.566  36.338   9.130
  224POPC   GL2 5810  13.775  36.070   8.975
  224POPC   C1A 5811  13.718  36.497   8.729
  224POPC   D2A 5812  13.662  36.315   8.345
  224POPC   C3A 5813  13.848  36.468   8.019
  224POPC   C4A 5814  13.730  36.482   7.588
  224POPC   C1B 5815  13.755  35.836   8.562
  224POPC   C2B 5816  13.831  35.875   8.133
  224POPC   C3B 5817  13.601  36.039   7.820
  224POPC   C4B 5818  13.751  36.014   7.405
  225POPC   NC3 5819   2.213  10.189   9.813
  225POPC   PO4 5820   2.027   9.556   9.634
  225POPC   GL1 5821   2.140   9.472   9.164
  225POPC   GL2 5822   2.199   9.816   9.009
  225POPC   C1A 5823   2.022   9.448   8.693
  225POPC   D2A 5824   2.159   9.810   8.455
  225POPC   C3A 5825   2.017   9.887   8.038
  225POPC   C4A 5826   2.143  10.013   7.637
  225POPC   C1B 5827   2.504   9.559   8.796
  225POPC   C2B 5828   2.527   9.382   8.391
  225POPC   C3B 5829   2.192   9.393   8.108
  225POPC   C4B 5830   2.082   9.322   7.688
  226POPC   NC3 5831  34.983   9.163   9.603
  226POPC   PO4 5832  34.317   9.304   9.365
  226POPC   GL1 5833  34.385   9.046   8.992
  226POPC   GL2 5834  34.293   8.735   9.134
  226POPC   C1A 5835  34.623   9.062   8.560
  226POPC   D2A 5836  34.821   9.230   8.179
  226POPC   C3A 5837  34.632   9.091   7.828
  226POPC   C4A 5838  34.202   9.071   7.806
  226POPC   C1B 5839  34.377   8.632   8.684
  226POPC   C2B 5840  34.353   8.756   8.234
  226POPC   C3B 5841  34.462   8.606   7.847
  226POPC   C4B 5842  34.559   8.767   7.450
  227POPC   NC3 5843  29.274  28.930   9.385
  227POPC   PO4 5844  28.826  29.505   9.621
  227POPC   GL1 5845  28.826  29.202   9.269
  227POPC   GL2 5846  29.092  29.410   9.126
  227POPC   C1A 5847  28.905  29.024   8.833
  227POPC   D2A 5848  29.035  29.287   8.465
  227POPC   C3A 5849  29.001  29.076   8.065
  227POPC   C4A 5850  29.156  28.851   7.667
  227POPC   C1B 5851  29.316  29.616   8.774
  227POPC   C2B 5852  29.434  29.749   8.352
  227POPC   C3B 5853  29.380  29.672   7.892
  227POPC   C4B 5854  29.081  29.400   7.680
  228POPC   NC3 5855   2.450   0.634   9.434
  228POPC   PO4 5856   2.844   0.035   9.513
  228POPC   GL1 5857   2.777   0.246   9.112
  228POPC   GL2 5858   2.427   0.227   9.103
  228POPC   C1A 5859   2.939   0.256   8.636
  228POPC   D2A 5860   3.171   0.510   8.276
  228POPC   C3A 5861   2.839   0.621   7.978
  228POPC   C4A 5862   2.565   0.243   7.901
  228POPC   C1B 5863   2.464   0.417   8.723
  228POPC   C2B 5864   2.414   0.568   8.310
  228POPC   C3B 5865   2.323   0.699   7.901
  228POPC   C4B 5866   2.415   0.965   7.590
  229POPC   NC3 5867   1.614  19.178   9.319
  229POPC   PO4 5868   2.050  18.676   9.434
  229POPC   GL1 5869   1.862  18.799   9.061
  229POPC   GL2 5870   1.545  18.685   9.031
  229POPC   C1A 5871   1.860  19.103   8.708
  229POPC   D2A 5872   2.009  19.404   8.402
  229POPC   C3A 5873   1.942  19.217   8.013
  229POPC   C4A 5874   1.788  19.229   7.610
  229POPC   C1B 5875   1.628  18.649   8.588
  229POPC   C2B 5876   1.791  18.776   8.207
  229POPC   C3B 5877   1.828  18.742   7.734
  229POPC   C4B 5878   1.647  18.769   7.299
  230POPC   NC3 5879  39.019  22.136   9.609
  230POPC   PO4 5880  39.645  22.295   9.483
  230POPC   GL1 5881  39.489  22.479   9.076
  230POPC   GL2 5882  39.268  22.194   9.069
  230POPC   C1A 5883  39.277  22.417   8.610
  230POPC   D2A 5884  39.149  22.036   8.331
  230POPC   C3A 5885  38.898  22.084   7.961
  230POPC   C4A 5886  39.045  22.433   7.749
  230POPC   C1B 5887  39.629  22.083   8.772
  230POPC   C2B 5888  39.657  21.959   8.318
  230POPC   C3B 5889  39.450  22.105   7.912
  230POPC   C4B 5890  39.403  22.173   7.432
  231POPC   NC3 5891  17.008   6.449   9.606
  231POPC   PO4 5892  16.382   6.209   9.476
  231POPC   GL1 5893  16.681   6.521   9.231
  231POPC   GL2 5894  16.910   6.257   9.122
  231POPC   C1A 5895  16.974   6.709   8.876
  231POPC   D2A 5896  16.925   6.573   8.415
  231POPC   C3A 5897  16.941   6.828   8.051
  231POPC   C4A 5898  16.528   6.845   7.772
  231POPC   C1B 5899  16.667   6.330   8.764
  231POPC   C2B 5900  16.343   6.324   8.527
  231POPC   C3B 5901  16.448   6.515   8.160
  231POPC   C4B 5902  16.769   6.404   7.853
  232POPC   NC3 5903   6.814  33.868   9.257
  232POPC   PO4 5904   6.288  33.365   9.381
  232POPC   GL1 5905   6.536  33.495   9.037
  232POPC   GL2 5906   6.924  33.434   9.027
  232POPC   C1A 5907   6.364  33.749   8.705
  232POPC   D2A 5908   6.139  33.906   8.372
  232POPC   C3A 5909   6.386  33.722   8.074
  232POPC   C4A 5910   6.581  33.766   7.693
  232POPC   C1B 5911   6.883  33.684   8.642
  232POPC   C2B 5912   6.861  33.666   8.214
  232POPC   C3B 5913   7.063  33.735   7.863
  232POPC   C4B 5914   7.007  34.024   7.561
  233POPC   NC3 5915  28.836  25.142   9.347
  233POPC   PO4 5916  29.375  25.504   9.478
  233POPC   GL1 5917  29.272  25.317   9.088
  233POPC   GL2 5918  29.045  25.586   9.008
  233POPC   C1A 5919  29.098  25.052   8.737
  233POPC   D2A 5920  28.801  24.990   8.390
  233POPC   C3A 5921  29.002  25.211   8.048
  233POPC   C4A 5922  29.036  25.475   7.706
  233POPC   C1B 5923  29.324  25.577   8.629
  233POPC   C2B 5924  29.330  25.603   8.174
  233POPC   C3B 5925  29.543  25.443   7.824
  233POPC   C4B 5926  29.534  25.456   7.363
  234POPC   NC3 5927  43.394  28.925   9.460
  234POPC   PO4 5928  42.918  29.300   9.759
  234POPC   GL1 5929  42.936  29.176   9.276
  234POPC   GL2 5930  43.274  29.279   9.106
  234POPC   C1A 5931  42.895  29.169   8.794
  234POPC   D2A 5932  43.190  29.219   8.437
  234POPC   C3A 5933  43.028  29.397   8.096
  234POPC   C4A 5934  43.004  29.264   7.688
  234POPC   C1B 5935  43.360  28.906   8.801
  234POPC   C2B 5936  43.536  28.825   8.381
  234POPC   C3B 5937  43.442  28.996   7.967
  234POPC   C4B 5938  43.441  29.104   7.513
  235POPC   NC3 5939  24.919  24.244   9.574
  235POPC   PO4 5940  24.374  24.537   9.360
  235POPC   GL1 5941  24.702  24.613   9.087
  235POPC   GL2 5942  24.757  24.263   9.056
  235POPC   C1A 5943  24.797  24.548   8.650
  235POPC   D2A 5944  24.564  24.397   8.342
  235POPC   C3A 5945  24.687  24.508   7.982
  235POPC   C4A 5946  25.008  24.407   7.779
  235POPC   C1B 5947  24.328  24.311   8.780
  235POPC   C2B 5948  24.044  24.329   8.416
  235POPC   C3B 5949  24.201  24.340   7.985
  235POPC   C4B 5950  24.160  24.613   7.639
  236POPC   NC3 5951  11.769  35.025   9.820
  236POPC   PO4 5952  12.327  35.174   9.570
  236POPC   GL1 5953  12.053  35.174   9.264
  236POPC   GL2 5954  12.314  35.197   9.051
  236POPC   C1A 5955  11.845  35.316   8.873
  236POPC   D2A 5956  11.855  35.151   8.441
  236POPC   C3A 5957  12.018  35.395   8.111
  236POPC   C4A 5958  12.051  35.221   7.712
  236POPC   C1B 5959  12.577  35.084   8.748
  236POPC   C2B 5960  12.391  35.130   8.354
  236POPC   C3B 5961  12.195  34.869   8.074
  236POPC   C4B 5962  12.489  34.836   7.742
  237POPC   NC3 5963  28.998  38.149   9.590
  237POPC   PO4 5964  29.464  38.539   9.500
  237POPC   GL1 5965  29.226  38.404   9.157
  237POPC   GL2 5966  28.876  38.375   9.136
  237POPC   C1A 5967  29.279  38.567   8.764
  237POPC   D2A 5968  29.123  38.636   8.356
  237POPC   C3A 5969  29.388  38.544   8.015
  237POPC   C4A 5970  29.219  38.655   7.636
  237POPC   C1B 5971  28.898  38.231   8.679
  237POPC   C2B 5972  29.108  38.128   8.259
  237POPC   C3B 5973  29.087  38.183   7.802
  237POPC   C4B 5974  28.887  38.099   7.388
  238POPC   NC3 5975  15.730  15.263   9.312
  238POPC   PO4 5976  16.209  14.908   9.472
  238POPC   GL1 5977  16.026  14.952   9.050
  238POPC   GL2 5978  16.083  15.321   8.947
  238POPC   C1A 5979  15.676  14.981   8.727
  238POPC   D2A 5980  15.686  15.047   8.272
  238POPC   C3A 5981  16.091  14.962   7.986
  238POPC   C4A 5982  16.124  14.861   7.525
  238POPC   C1B 5983  15.765  15.521   8.689
  238POPC   C2B 5984  15.516  15.686   8.345
  238POPC   C3B 5985  15.630  15.615   7.904
  238POPC   C4B 5986  16.046  15.400   7.719
  239POPC   NC3 5987  10.464  34.713   9.544
  239POPC   PO4 5988  10.759  34.266   9.197
  239POPC   GL1 5989  10.399  34.432   9.056
  239POPC   GL2 5990  10.318  34.802   9.070
  239POPC   C1A 5991  10.316  34.271   8.654
  239POPC   D2A 5992  10.465  34.456   8.284
  239POPC   C3A 5993  10.598  34.276   7.932
  239POPC   C4A 5994  10.461  34.383   7.535
  239POPC   C1B 5995  10.564  34.799   8.685
  239POPC   C2B 5996  10.583  34.967   8.250
  239POPC   C3B 5997  10.432  34.795   7.849
  239POPC   C4B 5998  10.041  34.856   7.648
  240POPC   NC3 5999   5.171   2.321   9.635
  240POPC   PO4 6000   4.663   1.903   9.481
  240POPC   GL1 6001   4.989   1.981   9.224
  240POPC   GL2 6002   4.768   1.990   8.989
  240POPC   C1A 6003   5.249   1.899   8.841
  240POPC   D2A 6004   5.396   2.126   8.475
  240POPC   C3A 6005   5.365   1.921   8.075
  240POPC   C4A 6006   5.498   2.144   7.764
  240POPC   C1B 6007   4.653   2.165   8.652
  240POPC   C2B 6008   4.896   2.107   8.325
  240POPC   C3B 6009   4.844   2.073   7.918
  240POPC   C4B 6010   5.088   1.919   7.593
  241POPC   NC3 6011  32.881  28.775   9.252
  241POPC   PO4 6012  33.249  29.219   9.554
  241POPC   GL1 6013  32.984  29.276   9.227
  241POPC   GL2 6014  33.245  29.096   9.043
  241POPC   C1A 6015  32.822  29.277   8.801
  241POPC   D2A 6016  32.991  29.078   8.453
  241POPC   C3A 6017  32.745  29.067   8.079
  241POPC   C4A 6018  32.803  29.116   7.618
  241POPC   C1B 6019  33.474  28.849   8.756
  241POPC   C2B 6020  33.394  28.781   8.313
  241POPC   C3B 6021  33.232  29.016   8.001
  241POPC   C4B 6022  33.007  28.690   7.782
  242POPC   NC3 6023   5.536  32.617   9.438
  242POPC   PO4 6024   5.053  33.110   9.605
  242POPC   GL1 6025   5.047  33.150   9.178
  242POPC   GL2 6026   5.166  32.801   9.098
  242POPC   C1A 6027   4.938  33.270   8.777
  242POPC   D2A 6028   4.990  33.026   8.403
  242POPC   C3A 6029   5.086  33.219   8.022
  242POPC   C4A 6030   4.958  33.207   7.615
  242POPC   C1B 6031   5.414  32.576   8.754
  242POPC   C2B 6032   5.582  32.529   8.340
  242POPC   C3B 6033   5.602  32.715   7.941
  242POPC   C4B 6034   5.372  32.929   7.677
  243POPC   NC3 6035  24.736  43.691   9.454
  243POPC   PO4 6036  24.065  44.005   9.524
  243POPC   GL1 6037  24.203  43.788   9.168
  243POPC   GL2 6038  24.484  44.012   9.142
  243POPC   C1A 6039  24.335  43.793   8.741
  243POPC   D2A 6040  24.396  44.028   8.452
  243POPC   C3A 6041  24.364  43.790   8.131
  243POPC   C4A 6042  24.686  43.776   7.856
  243POPC   C1B 6043  24.265  44.309   8.870
  243POPC   C2B 6044  24.120  44.451   8.472
  243POPC   C3B 6045  24.347  44.378   8.103
  243POPC   C4B 6046  24.373  44.176   7.772
  244POPC   NC3 6047  19.490  27.961   9.527
  244POPC   PO4 6048  19.843  28.553   9.585
  244POPC   GL1 6049  19.801  28.572   9.143
  244POPC   GL2 6050  19.817  28.214   9.079
  244POPC   C1A 6051  19.851  28.630   8.701
  244POPC   D2A 6052  20.091  28.308   8.451
  244POPC   C3A 6053  19.941  28.136   8.077
  244POPC   C4A 6054  20.136  28.316   7.730
  244POPC   C1B 6055  19.688  28.087   8.695
  244POPC   C2B 6056  19.478  28.038   8.311
  244POPC   C3B 6057  19.448  28.308   7.955
  244POPC   C4B 6058  19.650  28.370   7.577
  245POPC   NC3 6059  32.856  43.507   9.498
  245POPC   PO4 6060  32.821  44.175   9.456
  245POPC   GL1 6061  33.161  44.033   9.152
  245POPC   GL2 6062  33.127  43.691   9.105
  245POPC   C1A 6063  33.423  44.204   8.803
  245POPC   D2A 6064  33.552  44.125   8.363
  245POPC   C3A 6065  33.283  43.794   8.143
  245POPC   C4A 6066  33.039  43.937   7.763
  245POPC   C1B 6067  32.780  43.888   8.861
  245POPC   C2B 6068  32.862  43.920   8.468
  245POPC   C3B 6069  32.696  43.871   8.109
  245POPC   C4B 6070  32.490  43.896   7.751
  246POPC   NC3 6071  17.476  23.960   9.451
  246POPC   PO4 6072  17.373  23.232   9.311
  246POPC   GL1 6073  17.608  23.593   9.088
  246POPC   GL2 6074  17.590  24.007   8.978
  246POPC   C1A 6075  17.737  23.645   8.673
  246POPC   D2A 6076  17.525  23.850   8.342
  246POPC   C3A 6077  17.745  23.718   7.997
  246POPC   C4A 6078  17.671  23.409   7.745
  246POPC   C1B 6079  17.224  23.777   8.776
  246POPC   C2B 6080  16.872  23.736   8.459
  246POPC   C3B 6081  17.048  23.681   8.063
  246POPC   C4B 6082  17.320  23.969   7.857
  247POPC   NC3 6083  30.674  25.017   9.502
  247POPC   PO4 6084  30.353  25.709   9.470
  247POPC   GL1 6085  30.540  25.424   9.141
  247POPC   GL2 6086  30.847  25.273   9.087
  247POPC   C1A 6087  30.711  25.593   8.735
  247POPC   D2A 6088  30.984  25.631   8.416
  247POPC   C3A 6089  30.714  25.638   8.085
  247POPC   C4A 6090  30.752  25.582   7.669
  247POPC   C1B 6091  30.621  25.083   8.756
  247POPC   C2B 6092  30.665  25.036   8.323
  247POPC   C3B 6093  30.588  25.169   7.899
  247POPC   C4B 6094  30.721  25.100   7.454
  248POPC   NC3 6095   6.550   0.068   9.508
  248POPC   PO4 6096   7.165  44.773   9.442
  248POPC   GL1 6097   6.863  44.804   9.129
  248POPC   GL2 6098   6.551  44.628   9.213
  248POPC   C1A 6099   6.886  44.702   8.692
  248POPC   D2A 6100   6.883  44.756   8.256
  248POPC   C3A 6101   6.641  44.458   8.025
  248POPC   C4A 6102   6.706  44.314   7.606
  248POPC   C1B 6103   6.426  44.896   8.861
  248POPC   C2B 6104   6.395  44.814   8.421
  248POPC   C3B 6105   6.455  44.937   8.001
  248POPC   C4B 6106   6.178   0.039   7.696
  249POPC   NC3 6107  18.655  26.127   9.455
  249POPC   PO4 6108  17.948  26.247   9.564
  249POPC   GL1 6109  18.172  26.057   9.242
  249POPC   GL2 6110  18.348  26.296   9.088
  249POPC   C1A 6111  18.322  25.854   8.850
  249POPC   D2A 6112  18.225  25.892   8.440
  249POPC   C3A 6113  18.418  25.798   8.061
  249POPC   C4A 6114  18.290  26.071   7.754
  249POPC   C1B 6115  18.631  26.286   8.736
  249POPC   C2B 6116  18.671  26.153   8.312
  249POPC   C3B 6117  18.713  26.380   7.901
  249POPC   C4B 6118  18.744  26.256   7.450
  250POPC   NC3 6119  35.838  21.392   9.438
  250POPC   PO4 6120  36.427  21.653   9.304
  250POPC   GL1 6121  36.079  21.643   9.060
  250POPC   GL2 6122  35.779  21.775   9.118
  250POPC   C1A 6123  35.854  21.416   8.755
  250POPC   D2A 6124  36.070  21.478   8.418
  250POPC   C3A 6125  36.163  21.191   8.095
  250POPC   C4A 6126  36.437  21.211   7.705
  250POPC   C1B 6127  35.869  21.959   8.715
  250POPC   C2B 6128  35.727  21.998   8.315
  250POPC   C3B 6129  35.923  21.726   8.016
  250POPC   C4B 6130  35.982  21.471   7.699
  251POPC   NC3 6131  32.182   9.330   9.486
  251POPC   PO4 6132  32.518   8.625   9.540
  251POPC   GL1 6133  32.352   8.863   9.163
  251POPC   GL2 6134  32.077   9.140   9.006
  251POPC   C1A 6135  32.317   8.743   8.755
  251POPC   D2A 6136  32.085   8.706   8.387
  251POPC   C3A 6137  32.347   8.654   8.036
  251POPC   C4A 6138  31.999   8.747   7.780
  251POPC   C1B 6139  32.434   9.273   8.811
  251POPC   C2B 6140  32.479   9.093   8.407
  251POPC   C3B 6141  32.198   9.141   8.076
  251POPC   C4B 6142  32.511   9.166   7.809
  252POPC   NC3 6143  16.401  21.295   9.494
  252POPC   PO4 6144  16.962  21.607   9.476
  252POPC   GL1 6145  16.736  21.440   9.120
  252POPC   GL2 6146  16.684  21.079   9.127
  252POPC   C1A 6147  16.673  21.351   8.692
  252POPC   D2A 6148  16.606  21.557   8.346
  252POPC   C3A 6149  16.683  21.415   7.988
  252POPC   C4A 6150  16.543  21.651   7.665
  252POPC   C1B 6151  16.459  20.904   8.756
  252POPC   C2B 6152  16.474  21.005   8.324
  252POPC   C3B 6153  16.323  21.014   7.933
  252POPC   C4B 6154  16.554  21.120   7.593
  253POPC   NC3 6155   2.887  37.264   9.796
  253POPC   PO4 6156   2.397  37.516   9.385
  253POPC   GL1 6157   2.556  37.695   9.018
  253POPC   GL2 6158   2.860  37.799   9.136
  253POPC   C1A 6159   2.615  37.709   8.556
  253POPC   D2A 6160   2.637  37.388   8.213
  253POPC   C3A 6161   2.693  37.588   7.806
  253POPC   C4A 6162   2.744  38.004   7.699
  253POPC   C1B 6163   3.058  37.588   8.758
  253POPC   C2B 6164   3.105  37.632   8.325
  253POPC   C3B 6165   3.118  37.371   7.986
  253POPC   C4B 6166   2.971  37.208   7.608
  254POPC   NC3 6167  27.920   1.802   9.449
  254POPC   PO4 6168  27.361   2.298   9.529
  254POPC   GL1 6169  27.677   2.239   9.247
  254POPC   GL2 6170  27.526   1.914   9.137
  254POPC   C1A 6171  27.810   2.225   8.840
  254POPC   D2A 6172  27.784   1.984   8.478
  254POPC   C3A 6173  27.932   2.238   8.175
  254POPC   C4A 6174  27.783   2.199   7.770
  254POPC   C1B 6175  27.673   1.606   8.833
  254POPC   C2B 6176  27.723   1.450   8.412
  254POPC   C3B 6177  27.713   1.528   7.975
  254POPC   C4B 6178  28.020   1.758   7.807
  255POPC   NC3 6179  16.866  20.268   9.409
  255POPC   PO4 6180  16.367  20.830   9.439
  255POPC   GL1 6181  16.511  20.541   9.116
  255POPC   GL2 6182  16.867  20.611   9.035
  255POPC   C1A 6183  16.591  20.404   8.689
  255POPC   D2A 6184  16.827  20.562   8.359
  255POPC   C3A 6185  16.560  20.535   8.025
  255POPC   C4A 6186  16.550  20.594   7.593
  255POPC   C1B 6187  16.976  20.919   8.745
  255POPC   C2B 6188  16.960  21.103   8.332
  255POPC   C3B 6189  16.901  20.925   7.935
  255POPC   C4B 6190  17.136  20.566   7.770
  256POPC   NC3 6191  44.327  21.417   9.378
  256POPC   PO4 6192  44.917  21.316   9.537
  256POPC   GL1 6193  44.813  21.450   9.166
  256POPC   GL2 6194  44.647  21.189   9.075
  256POPC   C1A 6195  44.729  21.564   8.760
  256POPC   D2A 6196  44.922  21.348   8.424
  256POPC   C3A 6197  44.808  21.469   8.007
  256POPC   C4A 6198  44.984  21.239   7.699
  256POPC   C1B 6199  44.557  21.079   8.641
  256POPC   C2B 6200  44.400  21.380   8.345
  256POPC   C3B 6201  44.276  21.395   7.919
  256POPC   C4B 6202  44.236  21.155   7.568
  257POPC   NC3 6203  15.013   5.409   9.351
  257POPC   PO4 6204  14.616   4.918   9.316
  257POPC   GL1 6205  14.871   5.065   9.010
  257POPC   GL2 6206  15.259   5.075   9.062
  257POPC   C1A 6207  14.813   5.018   8.618
  257POPC   D2A 6208  15.014   5.071   8.252
  257POPC   C3A 6209  14.806   5.090   7.883
  257POPC   C4A 6210  15.000   4.948   7.496
  257POPC   C1B 6211  15.215   5.320   8.671
  257POPC   C2B 6212  15.324   5.504   8.288
  257POPC   C3B 6213  15.193   5.444   7.877
  257POPC   C4B 6214  15.593   5.390   7.690
  258POPC   NC3 6215  18.646   6.704   9.928
  258POPC   PO4 6216  18.170   6.585   9.523
  258POPC   GL1 6217  18.230   6.629   9.128
  258POPC   GL2 6218  17.878   6.588   9.050
  258POPC   C1A 6219  18.449   6.666   8.769
  258POPC   D2A 6220  18.385   6.786   8.355
  258POPC   C3A 6221  18.552   6.582   8.014
  258POPC   C4A 6222  18.575   6.799   7.665
  258POPC   C1B 6223  17.840   6.455   8.619
  258POPC   C2B 6224  17.895   6.619   8.190
  258POPC   C3B 6225  17.818   6.721   7.763
  258POPC   C4B 6226  17.843   6.578   7.333
  259POPC   NC3 6227   7.501   7.402   9.640
  259POPC   PO4 6228   7.804   7.880   9.283
  259POPC   GL1 6229   7.407   7.677   9.167
  259POPC   GL2 6230   7.326   7.327   9.178
  259POPC   C1A 6231   7.343   7.553   8.743
  259POPC   D2A 6232   7.514   7.699   8.394
  259POPC   C3A 6233   7.278   7.628   8.052
  259POPC   C4A 6234   7.441   7.622   7.643
  259POPC   C1B 6235   7.038   7.153   8.891
  259POPC   C2B 6236   7.044   7.226   8.454
  259POPC   C3B 6237   7.144   7.107   8.049
  259POPC   C4B 6238   7.049   7.324   7.697
  260POPC   NC3 6239   9.349  28.088   9.490
  260POPC   PO4 6240   8.888  28.581   9.424
  260POPC   GL1 6241   9.221  28.472   9.148
  260POPC   GL2 6242   9.122  28.152   9.045
  260POPC   C1A 6243   9.233  28.549   8.698
  260POPC   D2A 6244   8.979  28.779   8.391
  260POPC   C3A 6245   9.096  28.626   8.007
  260POPC   C4A 6246   9.163  28.504   7.607
  260POPC   C1B 6247   8.796  28.197   8.732
  260POPC   C2B 6248   8.825  28.279   8.290
  260POPC   C3B 6249   8.927  28.135   7.877
  260POPC   C4B 6250   8.767  27.845   7.592
  261POPC   NC3 6251  23.520  11.850   9.374
  261POPC   PO4 6252  23.381  12.474   9.360
  261POPC   GL1 6253  23.706  12.308   9.102
  261POPC   GL2 6254  23.942  12.022   9.095
  261POPC   C1A 6255  23.710  12.370   8.680
  261POPC   D2A 6256  23.467  12.242   8.332
  261POPC   C3A 6257  23.623  11.961   8.047
  261POPC   C4A 6258  23.528  12.074   7.666
  261POPC   C1B 6259  23.860  11.885   8.660
  261POPC   C2B 6260  23.997  12.169   8.304
  261POPC   C3B 6261  23.982  12.294   7.888
  261POPC   C4B 6262  24.007  11.916   7.683
  262POPC   NC3 6263  33.711  41.622   9.646
  262POPC   PO4 6264  34.288  41.312   9.522
  262POPC   GL1 6265  34.050  41.417   9.162
  262POPC   GL2 6266  33.738  41.266   9.244
  262POPC   C1A 6267  33.964  41.742   8.837
  262POPC   D2A 6268  33.897  41.927   8.410
  262POPC   C3A 6269  34.105  41.753   8.067
  262POPC   C4A 6270  34.032  41.415   7.766
  262POPC   C1B 6271  33.623  41.335   8.808
  262POPC   C2B 6272  33.786  41.403   8.406
  262POPC   C3B 6273  33.619  41.550   8.031
  262POPC   C4B 6274  33.531  41.359   7.632
  263POPC   NC3 6275  30.505  26.824   9.524
  263POPC   PO4 6276  31.137  27.084   9.571
  263POPC   GL1 6277  30.925  26.870   9.214
  263POPC   GL2 6278  31.145  26.672   9.042
  263POPC   C1A 6279  30.576  26.755   8.891
  263POPC   D2A 6280  30.536  26.881   8.457
  263POPC   C3A 6281  30.343  26.946   8.043
  263POPC   C4A 6282  30.432  26.717   7.725
  263POPC   C1B 6283  31.039  26.802   8.641
  263POPC   C2B 6284  30.917  26.592   8.263
  263POPC   C3B 6285  31.084  26.631   7.855
  263POPC   C4B 6286  30.885  26.772   7.511
  264POPC   NC3 6287  13.805   5.702   9.509
  264POPC   PO4 6288  13.333   6.150   9.545
  264POPC   GL1 6289  13.595   6.047   9.191
  264POPC   GL2 6290  13.573   5.675   9.063
  264POPC   C1A 6291  13.720   6.048   8.758
  264POPC   D2A 6292  13.567   5.859   8.355
  264POPC   C3A 6293  13.689   6.061   7.952
  264POPC   C4A 6294  13.759   6.032   7.490
  264POPC   C1B 6295  13.804   5.548   8.700
  264POPC   C2B 6296  13.999   5.548   8.252
  264POPC   C3B 6297  13.840   5.603   7.798
  264POPC   C4B 6298  13.914   5.593   7.305
  265POPC   NC3 6299  40.499  29.053   9.493
  265POPC   PO4 6300  41.164  28.990   9.545
  265POPC   GL1 6301  40.957  28.957   9.169
  265POPC   GL2 6302  40.707  29.219   9.084
  265POPC   C1A 6303  41.044  29.086   8.750
  265POPC   D2A 6304  40.836  29.134   8.396
  265POPC   C3A 6305  41.110  29.168   8.064
  265POPC   C4A 6306  41.138  29.455   7.716
  265POPC   C1B 6307  40.566  28.893   8.834
  265POPC   C2B 6308  40.436  28.793   8.452
  265POPC   C3B 6309  40.550  28.744   8.035
  265POPC   C4B 6310  40.727  29.034   7.764
  266POPC   NC3 6311  15.527   5.912   9.411
  266POPC   PO4 6312  14.814   5.858   9.378
  266POPC   GL1 6313  15.125   5.834   9.059
  266POPC   GL2 6314  15.395   5.623   9.011
  266POPC   C1A 6315  15.117   5.872   8.633
  266POPC   D2A 6316  14.993   6.151   8.330
  266POPC   C3A 6317  15.029   5.963   7.938
  266POPC   C4A 6318  15.014   6.232   7.531
  266POPC   C1B 6319  15.607   5.744   8.653
  266POPC   C2B 6320  15.494   5.989   8.289
  266POPC   C3B 6321  15.518   5.846   7.885
  266POPC   C4B 6322  15.301   5.832   7.495
  267POPC   NC3 6323  11.590  15.444   9.375
  267POPC   PO4 6324  10.944  15.261   9.453
  267POPC   GL1 6325  11.234  15.140   9.114
  267POPC   GL2 6326  11.421  14.825   9.089
  267POPC   C1A 6327  11.300  15.335   8.709
  267POPC   D2A 6328  11.180  15.311   8.265
  267POPC   C3A 6329  11.474  15.294   7.887
  267POPC   C4A 6330  11.426  15.600   7.555
  267POPC   C1B 6331  11.457  14.835   8.664
  267POPC   C2B 6332  11.486  14.905   8.224
  267POPC   C3B 6333  11.142  14.884   7.919
  267POPC   C4B 6334  11.147  14.869   7.465
  268POPC   NC3 6335  35.623  35.135   9.517
  268POPC   PO4 6336  34.994  35.263   9.534
  268POPC   GL1 6337  35.274  35.380   9.132
  268POPC   GL2 6338  35.628  35.507   9.129
  268POPC   C1A 6339  35.337  35.494   8.661
  268POPC   D2A 6340  35.045  35.500   8.291
  268POPC   C3A 6341  35.139  35.149   7.979
  268POPC   C4A 6342  35.526  35.157   7.717
  268POPC   C1B 6343  35.658  35.137   8.834
  268POPC   C2B 6344  35.482  35.062   8.405
  268POPC   C3B 6345  35.546  35.422   8.161
  268POPC   C4B 6346  35.775  35.577   7.832
  269POPC   NC3 6347  29.511  35.834   9.316
  269POPC   PO4 6348  29.028  36.246   9.535
  269POPC   GL1 6349  29.132  36.072   9.128
  269POPC   GL2 6350  29.401  36.263   9.040
  269POPC   C1A 6351  29.213  35.889   8.710
  269POPC   D2A 6352  28.961  36.001   8.361
  269POPC   C3A 6353  29.140  35.999   7.951
  269POPC   C4A 6354  29.241  35.746   7.640
  269POPC   C1B 6355  29.313  36.378   8.666
  269POPC   C2B 6356  29.454  36.165   8.301
  269POPC   C3B 6357  29.554  36.329   7.889
  269POPC   C4B 6358  29.528  36.460   7.452
  270POPC   NC3 6359   4.960  31.008   9.453
  270POPC   PO4 6360   5.156  30.342   9.487
  270POPC   GL1 6361   5.285  30.665   9.164
  270POPC   GL2 6362   5.042  30.917   8.965
  270POPC   C1A 6363   5.258  30.511   8.745
  270POPC   D2A 6364   5.317  30.664   8.365
  270POPC   C3A 6365   5.115  30.531   8.014
  270POPC   C4A 6366   4.895  30.836   7.828
  270POPC   C1B 6367   5.439  31.029   8.761
  270POPC   C2B 6368   5.594  31.079   8.298
  270POPC   C3B 6369   5.456  31.043   7.837
  270POPC   C4B 6370   5.626  30.985   7.412
  271POPC   NC3 6371   2.793  42.175   9.470
  271POPC   PO4 6372   2.434  42.829   9.542
  271POPC   GL1 6373   2.732  42.600   9.221
  271POPC   GL2 6374   2.976  42.724   9.021
  271POPC   C1A 6375   2.943  42.263   8.853
  271POPC   D2A 6376   2.925  42.410   8.408
  271POPC   C3A 6377   2.729  42.078   8.187
  271POPC   C4A 6378   2.813  41.996   7.776
  271POPC   C1B 6379   2.569  42.557   8.753
  271POPC   C2B 6380   2.420  42.553   8.317
  271POPC   C3B 6381   2.608  42.489   7.914
  271POPC   C4B 6382   2.624  42.561   7.492
  272POPC   NC3 6383   3.622  40.105   9.563
  272POPC   PO4 6384   3.755  39.428   9.530
  272POPC   GL1 6385   3.702  39.771   9.143
  272POPC   GL2 6386   3.501  40.114   9.089
  272POPC   C1A 6387   3.590  39.882   8.678
  272POPC   D2A 6388   3.308  39.929   8.313
  272POPC   C3A 6389   3.439  39.802   7.894
  272POPC   C4A 6390   3.490  39.826   7.458
  272POPC   C1B 6391   3.271  40.381   8.801
  272POPC   C2B 6392   3.114  40.400   8.374
  272POPC   C3B 6393   3.198  40.296   7.961
  272POPC   C4B 6394   2.940  40.488   7.623
  273POPC   NC3 6395  14.230  43.950   9.543
  273POPC   PO4 6396  14.816  44.433   9.538
  273POPC   GL1 6397  14.730  44.054   9.205
  273POPC   GL2 6398  14.372  43.881   9.081
  273POPC   C1A 6399  14.700  43.985   8.734
  273POPC   D2A 6400  14.415  43.969   8.375
  273POPC   C3A 6401  14.623  44.033   8.004
  273POPC   C4A 6402  14.578  44.268   7.663
  273POPC   C1B 6403  14.193  44.191   8.773
  273POPC   C2B 6404  13.933  44.238   8.372
  273POPC   C3B 6405  14.002  44.011   7.970
  273POPC   C4B 6406  13.970  43.664   7.635
  274POPC   NC3 6407  23.819   7.242   9.460
  274POPC   PO4 6408  23.179   7.676   9.437
  274POPC   GL1 6409  23.390   7.631   9.066
  274POPC   GL2 6410  23.662   7.392   9.016
  274POPC   C1A 6411  23.565   7.754   8.682
  274POPC   D2A 6412  23.629   7.584   8.284
  274POPC   C3A 6413  23.611   7.749   7.883
  274POPC   C4A 6414  23.802   7.558   7.505
  274POPC   C1B 6415  23.936   7.380   8.649
  274POPC   C2B 6416  23.971   7.231   8.211
  274POPC   C3B 6417  23.699   7.223   7.873
  274POPC   C4B 6418  23.306   7.241   7.663
  275POPC   NC3 6419   3.984  19.000   9.495
  275POPC   PO4 6420   3.374  19.023   9.644
  275POPC   GL1 6421   3.269  19.056   9.199
  275POPC   GL2 6422   3.615  19.042   9.138
  275POPC   C1A 6423   3.244  18.963   8.741
  275POPC   D2A 6424   3.387  18.692   8.384
  275POPC   C3A 6425   3.296  18.937   7.996
  275POPC   C4A 6426   3.355  19.176   7.626
  275POPC   C1B 6427   3.770  19.144   8.749
  275POPC   C2B 6428   3.583  19.164   8.361
  275POPC   C3B 6429   3.751  19.173   7.958
  275POPC   C4B 6430   3.847  18.869   7.676
  276POPC   NC3 6431  34.508  23.249   9.581
  276POPC   PO4 6432  34.747  23.828   9.470
  276POPC   GL1 6433  34.448  23.690   9.178
  276POPC   GL2 6434  34.242  23.981   9.116
  276POPC   C1A 6435  34.320  23.511   8.781
  276POPC   D2A 6436  34.304  23.636   8.348
  276POPC   C3A 6437  34.551  23.407   8.071
  276POPC   C4A 6438  34.743  23.283   7.694
  276POPC   C1B 6439  34.406  24.045   8.701
  276POPC   C2B 6440  34.667  24.006   8.335
  276POPC   C3B 6441  34.689  23.963   7.906
  276POPC   C4B 6442  34.449  23.708   7.674
  277POPC   NC3 6443  12.647   7.094   9.663
  277POPC   PO4 6444  12.805   7.750   9.572
  277POPC   GL1 6445  12.770   7.480   9.259
  277POPC   GL2 6446  12.473   7.365   9.261
  277POPC   C1A 6447  12.906   7.475   8.846
  277POPC   D2A 6448  13.132   7.283   8.524
  277POPC   C3A 6449  13.050   7.476   8.148
  277POPC   C4A 6450  12.907   7.621   7.739
  277POPC   C1B 6451  12.371   7.163   8.895
  277POPC   C2B 6452  12.606   7.193   8.529
  277POPC   C3B 6453  12.571   7.336   8.111
  277POPC   C4B 6454  12.851   7.133   7.817
  278POPC   NC3 6455  33.272  23.967   9.523
  278POPC   PO4 6456  32.913  23.485   9.649
  278POPC   GL1 6457  32.842  23.617   9.198
  278POPC   GL2 6458  33.022  23.917   9.081
  278POPC   C1A 6459  33.021  23.490   8.791
  278POPC   D2A 6460  33.151  23.683   8.396
  278POPC   C3A 6461  33.025  23.546   7.965
  278POPC   C4A 6462  33.278  23.356   7.639
  278POPC   C1B 6463  32.872  24.211   8.753
  278POPC   C2B 6464  33.016  24.262   8.324
  278POPC   C3B 6465  32.965  24.090   7.892
  278POPC   C4B 6466  33.062  24.169   7.423
  279POPC   NC3 6467   6.428  13.227   9.505
  279POPC   PO4 6468   7.036  12.890   9.759
  279POPC   GL1 6469   6.740  12.841   9.303
  279POPC   GL2 6470   6.511  12.582   9.184
  279POPC   C1A 6471   6.718  12.842   8.806
  279POPC   D2A 6472   6.853  12.728   8.370
  279POPC   C3A 6473   6.866  12.974   7.975
  279POPC   C4A 6474   6.956  12.799   7.552
  279POPC   C1B 6475   6.235  12.647   8.793
  279POPC   C2B 6476   6.352  12.865   8.400
  279POPC   C3B 6477   6.366  12.809   7.951
  279POPC   C4B 6478   6.462  12.967   7.519
  280POPC   NC3 6479  29.533  26.960   9.333
  280POPC   PO4 6480  30.147  27.134   9.470
  280POPC   GL1 6481  30.116  26.774   9.162
  280POPC   GL2 6482  29.820  26.551   9.182
  280POPC   C1A 6483  30.051  26.720   8.704
  280POPC   D2A 6484  29.946  27.005   8.363
  280POPC   C3A 6485  29.829  26.880   7.926
  280POPC   C4A 6486  30.019  26.897   7.516
  280POPC   C1B 6487  29.567  26.577   8.764
  280POPC   C2B 6488  29.648  26.584   8.311
  280POPC   C3B 6489  29.649  26.383   7.873
  280POPC   C4B 6490  29.720  26.458   7.392
  281POPC   NC3 6491  39.883  40.345   9.542
  281POPC   PO4 6492  39.855  39.719   9.549
  281POPC   GL1 6493  39.996  39.935   9.129
  281POPC   GL2 6494  40.149  40.280   9.124
  281POPC   C1A 6495  40.056  39.789   8.666
  281POPC   D2A 6496  39.858  39.716   8.224
  281POPC   C3A 6497  39.990  39.915   7.809
  281POPC   C4A 6498  39.975  40.175   7.399
  281POPC   C1B 6499  40.316  40.220   8.752
  281POPC   C2B 6500  40.482  39.961   8.427
  281POPC   C3B 6501  40.371  40.153   8.082
  281POPC   C4B 6502  40.328  40.321   7.703
  282POPC   NC3 6503  14.852  15.727   9.427
  282POPC   PO4 6504  14.197  15.887   9.445
  282POPC   GL1 6505  14.435  15.759   9.137
  282POPC   GL2 6506  14.656  16.099   9.129
  282POPC   C1A 6507  14.295  15.527   8.787
  282POPC   D2A 6508  14.112  15.643   8.429
  282POPC   C3A 6509  14.315  15.700   8.051
  282POPC   C4A 6510  14.116  15.640   7.682
  282POPC   C1B 6511  14.572  15.984   8.713
  282POPC   C2B 6512  14.336  16.121   8.381
  282POPC   C3B 6513  14.303  16.218   7.941
  282POPC   C4B 6514  14.538  16.006   7.652
  283POPC   NC3 6515  25.894  22.964   9.429
  283POPC   PO4 6516  26.050  23.592   9.388
  283POPC   GL1 6517  26.274  23.181   9.165
  283POPC   GL2 6518  26.083  22.841   9.000
  283POPC   C1A 6519  26.424  23.055   8.728
  283POPC   D2A 6520  26.320  23.201   8.297
  283POPC   C3A 6521  26.229  23.019   7.905
  283POPC   C4A 6522  25.810  23.075   7.704
  283POPC   C1B 6523  25.969  22.574   8.677
  283POPC   C2B 6524  26.000  22.727   8.261
  283POPC   C3B 6525  25.941  22.573   7.851
  283POPC   C4B 6526  25.763  22.372   7.503
  284POPC   NC3 6527  38.712  28.187   9.464
  284POPC   PO4 6528  38.792  28.910   9.437
  284POPC   GL1 6529  38.486  28.623   9.177
  284POPC   GL2 6530  38.547  28.287   9.007
  284POPC   C1A 6531  38.361  28.679   8.732
  284POPC   D2A 6532  38.505  28.776   8.313
  284POPC   C3A 6533  38.746  28.454   8.121
  284POPC   C4A 6534  38.760  28.358   7.682
  284POPC   C1B 6535  38.316  28.131   8.665
  284POPC   C2B 6536  38.223  28.294   8.252
  284POPC   C3B 6537  38.300  28.473   7.853
  284POPC   C4B 6538  38.321  28.206   7.483
  285POPC   NC3 6539  43.534  16.606   9.546
  285POPC   PO4 6540  44.204  16.642   9.451
  285POPC   GL1 6541  43.962  16.776   9.086
  285POPC   GL2 6542  43.684  16.578   9.031
  285POPC   C1A 6543  44.035  16.717   8.648
  285POPC   D2A 6544  44.108  16.955   8.278
  285POPC   C3A 6545  44.126  16.725   7.869
  285POPC   C4A 6546  44.257  16.992   7.502
  285POPC   C1B 6547  43.564  16.920   8.777
  285POPC   C2B 6548  43.628  17.077   8.383
  285POPC   C3B 6549  43.693  16.992   7.957
  285POPC   C4B 6550  43.339  17.021   7.689
  286POPC   NC3 6551  17.953  13.880   9.657
  286POPC   PO4 6552  18.248  13.233   9.401
  286POPC   GL1 6553  18.349  13.472   9.086
  286POPC   GL2 6554  18.272  13.788   9.224
  286POPC   C1A 6555  18.320  13.444   8.651
  286POPC   D2A 6556  18.556  13.538   8.308
  286POPC   C3A 6557  18.495  13.343   7.928
  286POPC   C4A 6558  18.276  13.602   7.693
  286POPC   C1B 6559  18.458  13.918   8.843
  286POPC   C2B 6560  18.635  14.053   8.444
  286POPC   C3B 6561  18.503  13.971   8.023
  286POPC   C4B 6562  18.316  14.136   7.657
  287POPC   NC3 6563   2.631  23.282   9.424
  287POPC   PO4 6564   2.854  23.914   9.465
  287POPC   GL1 6565   2.791  23.680   9.091
  287POPC   GL2 6566   2.852  23.994   8.933
  287POPC   C1A 6567   2.471  23.447   8.790
  287POPC   D2A 6568   2.232  23.392   8.371
  287POPC   C3A 6569   2.468  23.575   8.011
  287POPC   C4A 6570   2.513  23.990   7.867
  287POPC   C1B 6571   2.797  23.784   8.542
  287POPC   C2B 6572   2.923  23.779   8.115
  287POPC   C3B 6573   3.025  24.057   7.786
  287POPC   C4B 6574   3.037  24.158   7.367
  288POPC   NC3 6575  36.276  34.761   9.563
  288POPC   PO4 6576  35.993  35.419   9.502
  288POPC   GL1 6577  36.266  35.459   9.119
  288POPC   GL2 6578  36.495  35.141   9.159
  288POPC   C1A 6579  36.150  35.462   8.660
  288POPC   D2A 6580  35.988  35.110   8.394
  288POPC   C3A 6581  36.052  35.161   7.957
  288POPC   C4A 6582  36.272  35.516   7.773
  288POPC   C1B 6583  36.604  35.222   8.714
  288POPC   C2B 6584  36.502  35.217   8.269
  288POPC   C3B 6585  36.587  35.122   7.839
  288POPC   C4B 6586  36.493  35.183   7.392
  289POPC   NC3 6587  44.677  35.617   9.413
  289POPC   PO4 6588  44.264  35.033   9.407
  289POPC   GL1 6589  44.428  35.222   9.014
  289POPC   GL2 6590  44.784  35.354   8.999
  289POPC   C1A 6591  44.601  35.161   8.570
  289POPC   D2A 6592  44.670  35.054   8.151
  289POPC   C3A 6593  44.594  35.286   7.804
  289POPC   C4A 6594  44.353  35.150   7.387
  289POPC   C1B 6595  44.528  35.647   8.702
  289POPC   C2B 6596  44.652  35.585   8.253
  289POPC   C3B 6597  44.967  35.621   7.922
  289POPC   C4B 6598  44.810  35.658   7.492
  290POPC   NC3 6599  10.048  28.699   9.486
  290POPC   PO4 6600   9.620  29.212   9.684
  290POPC   GL1 6601   9.746  29.066   9.267
  290POPC   GL2 6602  10.078  29.222   9.318
  290POPC   C1A 6603   9.595  28.907   8.838
  290POPC   D2A 6604   9.563  28.855   8.361
  290POPC   C3A 6605   9.705  29.217   8.076
  290POPC   C4A 6606   9.589  29.246   7.630
  290POPC   C1B 6607  10.114  29.079   8.872
  290POPC   C2B 6608  10.235  28.972   8.440
  290POPC   C3B 6609  10.037  28.847   8.068
  290POPC   C4B 6610   9.997  28.974   7.681
  291POPC   NC3 6611   4.815  25.802   9.440
  291POPC   PO4 6612   5.454  25.931   9.424
  291POPC   GL1 6613   5.203  25.812   9.060
  291POPC   GL2 6614   4.971  26.110   9.060
  291POPC   C1A 6615   5.008  25.790   8.623
  291POPC   D2A 6616   4.856  25.784   8.166
  291POPC   C3A 6617   5.142  25.893   7.807
  291POPC   C4A 6618   5.083  25.871   7.363
  291POPC   C1B 6619   5.203  26.279   8.736
  291POPC   C2B 6620   5.204  26.177   8.292
  291POPC   C3B 6621   4.908  26.292   7.988
  291POPC   C4B 6622   4.988  26.344   7.541
  292POPC   NC3 6623   8.799  12.578   9.595
  292POPC   PO4 6624   9.232  13.033   9.534
  292POPC   GL1 6625   8.941  12.880   9.184
  292POPC   GL2 6626   8.716  13.115   9.088
  292POPC   C1A 6627   8.769  12.701   8.771
  292POPC   D2A 6628   8.812  12.454   8.370
  292POPC   C3A 6629   9.000  12.564   7.965
  292POPC   C4A 6630   9.153  12.878   7.683
  292POPC   C1B 6631   8.936  13.189   8.720
  292POPC   C2B 6632   8.941  12.989   8.339
  292POPC   C3B 6633   8.799  13.078   7.969
  292POPC   C4B 6634   8.552  12.782   7.802
  293POPC   NC3 6635  30.801   0.020   9.408
  293POPC   PO4 6636  31.001   0.643   9.755
  293POPC   GL1 6637  30.905   0.737   9.260
  293POPC   GL2 6638  30.700   0.461   9.161
  293POPC   C1A 6639  30.923   0.705   8.766
  293POPC   D2A 6640  30.924   0.433   8.359
  293POPC   C3A 6641  30.896   0.659   7.953
  293POPC   C4A 6642  30.816   0.642   7.490
  293POPC   C1B 6643  30.608   0.244   8.772
  293POPC   C2B 6644  30.434   0.185   8.372
  293POPC   C3B 6645  30.556   0.262   7.966
  293POPC   C4B 6646  30.901   0.197   7.706
  294POPC   NC3 6647  40.914  16.746   9.516
  294POPC   PO4 6648  40.204  16.834   9.491
  294POPC   GL1 6649  40.594  16.718   9.131
  294POPC   GL2 6650  40.965  16.885   9.040
  294POPC   C1A 6651  40.774  16.573   8.686
  294POPC   D2A 6652  40.959  16.858   8.332
  294POPC   C3A 6653  40.971  16.723   7.909
  294POPC   C4A 6654  40.669  16.494   7.624
  294POPC   C1B 6655  40.688  17.054   8.748
  294POPC   C2B 6656  40.476  17.038   8.371
  294POPC   C3B 6657  40.574  17.223   7.984
  294POPC   C4B 6658  40.704  17.023   7.625
  295POPC   NC3 6659  40.576  10.663   9.337
  295POPC   PO4 6660  40.099  10.240   9.546
  295POPC   GL1 6661  39.995  10.519   9.169
  295POPC   GL2 6662  40.242  10.687   8.936
  295POPC   C1A 6663  39.734  10.530   8.791
  295POPC   D2A 6664  39.730  10.344   8.393
  295POPC   C3A 6665  39.918  10.626   8.116
  295POPC   C4A 6666  39.808  10.735   7.647
  295POPC   C1B 6667  40.227  10.483   8.542
  295POPC   C2B 6668  40.257  10.078   8.374
  295POPC   C3B 6669  40.186   9.958   7.986
  295POPC   C4B 6670  39.994  10.272   7.777
  296POPC   NC3 6671  11.184  39.140   9.445
  296POPC   PO4 6672  11.826  39.182   9.643
  296POPC   GL1 6673  11.609  39.312   9.216
  296POPC   GL2 6674  11.548  38.988   9.118
  296POPC   C1A 6675  11.537  39.324   8.742
  296POPC   D2A 6676  11.720  39.128   8.366
  296POPC   C3A 6677  11.599  39.368   8.010
  296POPC   C4A 6678  11.281  39.305   7.726
  296POPC   C1B 6679  11.260  38.905   8.796
  296POPC   C2B 6680  11.276  38.828   8.386
  296POPC   C3B 6681  11.414  38.899   8.001
  296POPC   C4B 6682  11.260  38.796   7.630
  297POPC   NC3 6683  11.757  24.103   9.504
  297POPC   PO4 6684  11.877  24.741   9.543
  297POPC   GL1 6685  12.067  24.546   9.186
  297POPC   GL2 6686  12.170  24.187   9.177
  297POPC   C1A 6687  12.030  24.549   8.752
  297POPC   D2A 6688  12.222  24.665   8.396
  297POPC   C3A 6689  12.154  24.505   8.021
  297POPC   C4A 6690  12.113  24.654   7.636
  297POPC   C1B 6691  11.930  24.061   8.786
  297POPC   C2B 6692  11.865  24.239   8.375
  297POPC   C3B 6693  11.820  24.111   7.951
  297POPC   C4B 6694  12.051  24.142   7.572
  298POPC   NC3 6695  37.934  41.642   9.637
  298POPC   PO4 6696  37.443  41.213   9.518
  298POPC   GL1 6697  37.524  41.479   9.205
  298POPC   GL2 6698  37.864  41.431   9.191
  298POPC   C1A 6699  37.386  41.598   8.784
  298POPC   D2A 6700  37.247  41.767   8.378
  298POPC   C3A 6701  37.449  41.618   8.002
  298POPC   C4A 6702  37.489  41.689   7.561
  298POPC   C1B 6703  37.822  41.815   8.936
  298POPC   C2B 6704  37.750  41.887   8.486
  298POPC   C3B 6705  37.963  41.689   8.109
  298POPC   C4B 6706  37.964  41.571   7.679
  299POPC   NC3 6707   5.280  27.273   9.513
  299POPC   PO4 6708   5.339  27.903   9.712
  299POPC   GL1 6709   5.175  27.722   9.288
  299POPC   GL2 6710   4.898  27.436   9.217
  299POPC   C1A 6711   5.216  27.577   8.841
  299POPC   D2A 6712   5.166  27.714   8.417
  299POPC   C3A 6713   5.290  27.561   8.017
  299POPC   C4A 6714   4.942  27.697   7.774
  299POPC   C1B 6715   4.837  27.193   8.821
  299POPC   C2B 6716   5.040  27.193   8.401
  299POPC   C3B 6717   4.859  27.250   7.983
  299POPC   C4B 6718   4.941  27.258   7.521
  300POPC   NC3 6719   3.603   9.441   9.502
  300POPC   PO4 6720   3.406   8.819   9.666
  300POPC   GL1 6721   3.560   8.899   9.224
  300POPC   GL2 6722   3.443   9.203   9.093
  300POPC   C1A 6723   3.630   8.911   8.754
  300POPC   D2A 6724   3.255   8.884   8.499
  300POPC   C3A 6725   3.339   8.962   8.088
  300POPC   C4A 6726   3.667   8.932   7.822
  300POPC   C1B 6727   3.367   9.423   8.751
  300POPC   C2B 6728   3.554   9.334   8.386
  300POPC   C3B 6729   3.395   9.477   8.016
  300POPC   C4B 6730   3.309   9.271   7.648
  301POPC   NC3 6731  14.544  14.648   9.510
  301POPC   PO4 6732  14.581  15.325   9.427
  301POPC   GL1 6733  14.542  15.058   9.083
  301POPC   GL2 6734  14.213  15.053   9.032
  301POPC   C1A 6735  14.563  14.950   8.650
  301POPC   D2A 6736  14.391  15.200   8.325
  301POPC   C3A 6737  14.591  15.249   7.975
  301POPC   C4A 6738  14.624  15.508   7.647
  301POPC   C1B 6739  13.991  15.137   8.624
  301POPC   C2B 6740  14.050  14.839   8.286
  301POPC   C3B 6741  14.252  14.859   7.885
  301POPC   C4B 6742  14.442  15.039   7.502
  302POPC   NC3 6743  10.781   7.872   9.553
  302POPC   PO4 6744  10.351   8.361   9.650
  302POPC   GL1 6745  10.442   8.136   9.249
  302POPC   GL2 6746  10.811   8.170   9.144
  302POPC   C1A 6747  10.445   8.297   8.814
  302POPC   D2A 6748  10.250   8.491   8.469
  302POPC   C3A 6749  10.192   8.228   8.101
  302POPC   C4A 6750  10.488   7.962   7.868
  302POPC   C1B 6751  10.981   8.291   8.735
  302POPC   C2B 6752  10.929   8.113   8.316
  302POPC   C3B 6753  10.784   8.344   7.972
  302POPC   C4B 6754  10.458   8.631   7.814
  303POPC   NC3 6755  12.563  25.965   9.430
  303POPC   PO4 6756  13.228  25.701   9.509
  303POPC   GL1 6757  12.996  25.958   9.181
  303POPC   GL2 6758  12.648  25.827   8.957
  303POPC   C1A 6759  13.061  26.077   8.791
  303POPC   D2A 6760  13.004  25.877   8.427
  303POPC   C3A 6761  13.164  26.016   8.041
  303POPC   C4A 6762  12.901  25.733   7.841
  303POPC   C1B 6763  12.510  26.205   8.823
  303POPC   C2B 6764  12.556  26.382   8.440
  303POPC   C3B 6765  12.645  26.101   8.143
  303POPC   C4B 6766  12.613  26.161   7.752
  304POPC   NC3 6767  13.164  19.891   9.292
  304POPC   PO4 6768  12.577  20.068   9.481
  304POPC   GL1 6769  12.759  20.144   9.046
  304POPC   GL2 6770  12.844  19.805   8.888
  304POPC   C1A 6771  13.029  20.229   8.672
  304POPC   D2A 6772  13.014  19.945   8.336
  304POPC   C3A 6773  13.093  19.995   7.917
  304POPC   C4A 6774  12.774  19.729   7.760
  304POPC   C1B 6775  13.293  19.714   8.693
  304POPC   C2B 6776  13.510  19.740   8.283
  304POPC   C3B 6777  13.477  19.451   7.908
  304POPC   C4B 6778  13.237  19.614   7.555
  305POPC   NC3 6779  33.285  15.504   9.580
  305POPC   PO4 6780  32.892  14.926   9.416
  305POPC   GL1 6781  32.919  15.152   9.055
  305POPC   GL2 6782  33.257  15.139   9.067
  305POPC   C1A 6783  32.767  15.442   8.698
  305POPC   D2A 6784  32.555  15.459   8.292
  305POPC   C3A 6785  32.754  15.562   7.901
  305POPC   C4A 6786  32.673  15.376   7.479
  305POPC   C1B 6787  33.108  15.068   8.607
  305POPC   C2B 6788  33.055  15.235   8.204
  305POPC   C3B 6789  33.093  15.227   7.730
  305POPC   C4B 6790  33.333  14.953   7.502
  306POPC   NC3 6791  24.894  42.200   9.568
  306POPC   PO4 6792  25.456  42.430   9.572
  306POPC   GL1 6793  25.232  42.339   9.187
  306POPC   GL2 6794  25.536  42.094   9.180
  306POPC   C1A 6795  25.127  42.560   8.750
  306POPC   D2A 6796  25.361  42.757   8.375
  306POPC   C3A 6797  25.431  42.551   7.961
  306POPC   C4A 6798  25.164  42.517   7.593
  306POPC   C1B 6799  25.426  42.149   8.770
  306POPC   C2B 6800  25.417  42.247   8.395
  306POPC   C3B 6801  25.399  41.988   8.094
  306POPC   C4B 6802  25.394  42.088   7.680
  307POPC   NC3 6803   8.507  19.754   9.777
  307POPC   PO4 6804   8.947  20.066   9.438
  307POPC   GL1 6805   8.874  19.930   9.026
  307POPC   GL2 6806   9.159  20.023   8.944
  307POPC   C1A 6807   8.739  19.972   8.620
  307POPC   D2A 6808   9.021  19.996   8.256
  307POPC   C3A 6809   8.777  19.961   7.869
  307POPC   C4A 6810   8.886  19.863   7.450
  307POPC   C1B 6811   9.167  19.666   8.657
  307POPC   C2B 6812   9.154  19.451   8.264
  307POPC   C3B 6813   9.132  19.585   7.841
  307POPC   C4B 6814   9.352  19.667   7.433
  308POPC   NC3 6815  34.223  42.479   9.592
  308POPC   PO4 6816  33.658  42.079   9.614
  308POPC   GL1 6817  33.907  42.165   9.232
  308POPC   GL2 6818  33.906  42.541   9.200
  308POPC   C1A 6819  33.787  42.253   8.790
  308POPC   D2A 6820  33.930  42.456   8.388
  308POPC   C3A 6821  33.891  42.267   7.973
  308POPC   C4A 6822  33.582  42.337   7.624
  308POPC   C1B 6823  34.110  42.681   8.825
  308POPC   C2B 6824  34.323  42.787   8.447
  308POPC   C3B 6825  34.223  42.683   7.992
  308POPC   C4B 6826  34.228  42.896   7.570
  309POPC   NC3 6827  31.366  11.734   9.310
  309POPC   PO4 6828  31.533  12.229   9.768
  309POPC   GL1 6829  31.474  12.285   9.310
  309POPC   GL2 6830  31.740  12.090   9.192
  309POPC   C1A 6831  31.394  12.185   8.843
  309POPC   D2A 6832  31.528  11.975   8.462
  309POPC   C3A 6833  31.226  11.884   8.164
  309POPC   C4A 6834  31.358  11.926   7.759
  309POPC   C1B 6835  31.895  11.852   8.810
  309POPC   C2B 6836  32.043  11.873   8.393
  309POPC   C3B 6837  31.816  11.784   8.016
  309POPC   C4B 6838  32.037  11.771   7.627
  310POPC   NC3 6839   2.308  34.028   9.612
  310POPC   PO4 6840   1.695  33.772   9.424
  310POPC   GL1 6841   1.976  33.624   9.104
  310POPC   GL2 6842   2.299  33.721   9.218
  310POPC   C1A 6843   2.025  33.629   8.677
  310POPC   D2A 6844   2.091  33.980   8.402
  310POPC   C3A 6845   1.866  34.016   8.008
  310POPC   C4A 6846   2.130  33.979   7.633
  310POPC   C1B 6847   2.496  33.531   8.924
  310POPC   C2B 6848   2.481  33.532   8.497
  310POPC   C3B 6849   2.302  33.650   8.112
  310POPC   C4B 6850   2.006  33.545   7.841
  311POPC   NC3 6851   0.627  16.658   9.456
  311POPC   PO4 6852   0.102  17.037   9.643
  311POPC   GL1 6853   0.126  16.777   9.255
  311POPC   GL2 6854   0.243  16.423   9.174
  311POPC   C1A 6855   0.318  16.853   8.852
  311POPC   D2A 6856   0.310  16.668   8.451
  311POPC   C3A 6857   0.387  16.949   8.124
  311POPC   C4A 6858   0.421  16.814   7.714
  311POPC   C1B 6859   0.607  16.430   8.853
  311POPC   C2B 6860   0.776  16.377   8.440
  311POPC   C3B 6861   0.592  16.438   8.036
  311POPC   C4B 6862   0.434  16.314   7.622
  312POPC   NC3 6863  43.235  22.543   9.569
  312POPC   PO4 6864  42.693  22.994   9.447
  312POPC   GL1 6865  42.919  22.913   9.100
  312POPC   GL2 6866  42.712  23.164   8.918
  312POPC   C1A 6867  43.239  23.037   8.766
  312POPC   D2A 6868  43.306  23.352   8.429
  312POPC   C3A 6869  43.161  23.184   8.031
  312POPC   C4A 6870  43.309  22.847   7.771
  312POPC   C1B 6871  42.792  22.830   8.623
  312POPC   C2B 6872  42.973  22.744   8.242
  312POPC   C3B 6873  42.815  22.705   7.819
  312POPC   C4B 6874  42.874  22.544   7.403
  313POPC   NC3 6875   4.428  27.403   9.484
  313POPC   PO4 6876   4.693  27.899   9.262
  313POPC   GL1 6877   4.441  27.603   9.038
  313POPC   GL2 6878   4.070  27.553   9.124
  313POPC   C1A 6879   4.404  27.404   8.686
  313POPC   D2A 6880   4.660  27.542   8.375
  313POPC   C3A 6881   4.400  27.492   8.048
  313POPC   C4A 6882   4.481  27.439   7.651
  313POPC   C1B 6883   4.097  27.794   8.743
  313POPC   C2B 6884   4.328  27.945   8.422
  313POPC   C3B 6885   4.185  27.966   8.027
  313POPC   C4B 6886   3.986  27.672   7.750
  314POPC   NC3 6887  21.542  29.352   9.546
  314POPC   PO4 6888  20.949  29.263   9.298
  314POPC   GL1 6889  21.339  29.184   9.105
  314POPC   GL2 6890  21.656  29.475   9.080
  314POPC   C1A 6891  21.246  28.897   8.780
  314POPC   D2A 6892  21.018  28.872   8.373
  314POPC   C3A 6893  21.288  29.045   8.066
  314POPC   C4A 6894  21.570  29.123   7.750
  314POPC   C1B 6895  21.326  29.584   8.808
  314POPC   C2B 6896  21.222  29.390   8.431
  314POPC   C3B 6897  21.249  29.573   8.013
  314POPC   C4B 6898  21.205  29.432   7.607
  315POPC   NC3 6899  30.062  14.616   9.377
  315POPC   PO4 6900  29.714  13.978   9.404
  315POPC   GL1 6901  29.846  14.227   9.083
  315POPC   GL2 6902  29.545  14.443   9.116
  315POPC   C1A 6903  29.929  14.134   8.652
  315POPC   D2A 6904  29.793  13.909   8.300
  315POPC   C3A 6905  29.804  14.177   7.972
  315POPC   C4A 6906  30.195  14.354   7.800
  315POPC   C1B 6907  29.703  14.624   8.743
  315POPC   C2B 6908  29.745  14.532   8.320
  315POPC   C3B 6909  29.983  14.738   8.007
  315POPC   C4B 6910  30.271  14.868   7.672
  316POPC   NC3 6911  34.268   3.937   9.630
  316POPC   PO4 6912  34.813   4.324   9.660
  316POPC   GL1 6913  34.656   4.027   9.237
  316POPC   GL2 6914  34.343   4.026   9.126
  316POPC   C1A 6915  34.690   4.066   8.720
  316POPC   D2A 6916  34.993   4.224   8.402
  316POPC   C3A 6917  34.805   4.335   8.007
  316POPC   C4A 6918  34.727   4.271   7.578
  316POPC   C1B 6919  34.238   4.305   8.785
  316POPC   C2B 6920  34.454   4.441   8.423
  316POPC   C3B 6921  34.315   4.240   8.097
  316POPC   C4B 6922  34.231   4.307   7.736
  317POPC   NC3 6923  29.700  37.440   9.643
  317POPC   PO4 6924  30.150  37.935   9.563
  317POPC   GL1 6925  29.947  37.916   9.165
  317POPC   GL2 6926  30.165  38.206   9.100
  317POPC   C1A 6927  29.762  37.697   8.760
  317POPC   D2A 6928  29.810  37.473   8.318
  317POPC   C3A 6929  29.844  37.683   7.903
  317POPC   C4A 6930  30.032  37.464   7.569
  317POPC   C1B 6931  30.025  38.129   8.710
  317POPC   C2B 6932  29.979  37.949   8.355
  317POPC   C3B 6933  30.128  38.087   8.015
  317POPC   C4B 6934  30.209  37.984   7.631
  318POPC   NC3 6935  18.885  25.077   9.417
  318POPC   PO4 6936  19.539  25.188   9.510
  318POPC   GL1 6937  19.342  25.206   9.119
  318POPC   GL2 6938  19.024  25.412   9.052
  318POPC   C1A 6939  19.239  25.079   8.721
  318POPC   D2A 6940  18.970  25.127   8.348
  318POPC   C3A 6941  19.124  25.209   7.936
  318POPC   C4A 6942  19.129  25.549   7.642
  318POPC   C1B 6943  18.709  25.132   8.807
  318POPC   C2B 6944  18.477  25.188   8.432
  318POPC   C3B 6945  18.599  25.320   8.010
  318POPC   C4B 6946  18.695  25.243   7.575
  319POPC   NC3 6947   9.745  30.431   9.625
  319POPC   PO4 6948  10.177  30.853   9.402
  319POPC   GL1 6949   9.898  30.656   9.128
  319POPC   GL2 6950   9.573  30.751   9.261
  319POPC   C1A 6951   9.771  30.443   8.735
  319POPC   D2A 6952   9.493  30.564   8.372
  319POPC   C3A 6953   9.743  30.565   7.977
  319POPC   C4A 6954  10.145  30.535   7.808
  319POPC   C1B 6955   9.518  30.877   8.832
  319POPC   C2B 6956   9.662  31.059   8.430
  319POPC   C3B 6957   9.481  31.006   8.000
  319POPC   C4B 6958   9.632  30.998   7.526
  320POPC   NC3 6959  31.780  10.833   9.441
  320POPC   PO4 6960  31.249  10.519   9.479
  320POPC   GL1 6961  31.347  10.513   9.115
  320POPC   GL2 6962  31.668  10.450   9.107
  320POPC   C1A 6963  31.305  10.259   8.752
  320POPC   D2A 6964  31.356  10.031   8.377
  320POPC   C3A 6965  31.132  10.165   8.042
  320POPC   C4A 6966  31.257  10.354   7.700
  320POPC   C1B 6967  31.564  10.733   8.743
  320POPC   C2B 6968  31.402  10.576   8.358
  320POPC   C3B 6969  31.631  10.415   8.040
  320POPC   C4B 6970  31.711  10.701   7.695
  321POPC   NC3 6971  27.228  23.093   9.515
  321POPC   PO4 6972  26.591  23.325   9.586
  321POPC   GL1 6973  26.808  23.148   9.174
  321POPC   GL2 6974  26.934  22.781   9.111
  321POPC   C1A 6975  26.935  23.133   8.719
  321POPC   D2A 6976  26.756  22.907   8.356
  321POPC   C3A 6977  26.831  22.968   7.914
  321POPC   C4A 6978  26.610  22.917   7.532
  321POPC   C1B 6979  27.132  22.634   8.720
  321POPC   C2B 6980  27.198  22.642   8.266
  321POPC   C3B 6981  27.002  22.483   7.895
  321POPC   C4B 6982  26.996  22.515   7.459
  322POPC   NC3 6983  27.487   0.487   9.539
  322POPC   PO4 6984  27.952   0.188   9.361
  322POPC   GL1 6985  27.708   0.361   9.069
  322POPC   GL2 6986  27.374   0.247   9.081
  322POPC   C1A 6987  27.682   0.442   8.659
  322POPC   D2A 6988  27.619   0.220   8.323
  322POPC   C3A 6989  27.915   0.416   8.104
  322POPC   C4A 6990  27.861   0.542   7.722
  322POPC   C1B 6991  27.260   0.639   8.850
  322POPC   C2B 6992  27.207   0.742   8.423
  322POPC   C3B 6993  27.380   0.644   8.026
  322POPC   C4B 6994  27.210   0.541   7.643
  323POPC   NC3 6995  37.566  21.410   9.506
  323POPC   PO4 6996  38.084  21.072   9.764
  323POPC   GL1 6997  37.945  21.116   9.281
  323POPC   GL2 6998  37.599  21.175   9.061
  323POPC   C1A 6999  38.048  21.321   8.876
  323POPC   D2A 7000  38.011  21.206   8.440
  323POPC   C3A 7001  37.716  21.426   8.179
  323POPC   C4A 7002  37.581  21.199   7.844
  323POPC   C1B 7003  37.321  21.477   8.794
  323POPC   C2B 7004  37.068  21.577   8.410
  323POPC   C3B 7005  37.123  21.778   7.994
  323POPC   C4B 7006  37.517  21.753   7.811
  324POPC   NC3 7007   9.227  22.374   9.557
  324POPC   PO4 7008   8.589  22.538   9.421
  324POPC   GL1 7009   8.908  22.329   9.125
  324POPC   GL2 7010   9.251  22.169   9.107
  324POPC   C1A 7011   9.051  22.434   8.699
  324POPC   D2A 7012   8.768  22.420   8.365
  324POPC   C3A 7013   8.943  22.238   8.003
  324POPC   C4A 7014   8.821  22.294   7.588
  324POPC   C1B 7015   9.152  21.952   8.756
  324POPC   C2B 7016   9.312  22.072   8.372
  324POPC   C3B 7017   9.317  21.900   7.966
  324POPC   C4B 7018   9.008  21.831   7.671
  325POPC   NC3 7019  22.411   9.232   9.717
  325POPC   PO4 7020  21.917   8.922   9.507
  325POPC   GL1 7021  22.177   9.012   9.139
  325POPC   GL2 7022  22.303   9.350   9.169
  325POPC   C1A 7023  22.066   8.933   8.692
  325POPC   D2A 7024  21.810   9.007   8.339
  325POPC   C3A 7025  21.916   8.906   7.906
  325POPC   C4A 7026  21.916   9.184   7.550
  325POPC   C1B 7027  22.457   9.252   8.748
  325POPC   C2B 7028  22.383   9.083   8.297
  325POPC   C3B 7029  22.378   9.108   7.819
  325POPC   C4B 7030  22.387   9.253   7.390
  326POPC   NC3 7031   7.172  11.523   9.344
  326POPC   PO4 7032   7.559  10.960   9.483
  326POPC   GL1 7033   7.566  11.208   9.132
  326POPC   GL2 7034   7.615  11.556   9.093
  326POPC   C1A 7035   7.689  11.201   8.713
  326POPC   D2A 7036   7.400  11.151   8.388
  326POPC   C3A 7037   7.453  11.244   7.967
  326POPC   C4A 7038   7.112  11.227   7.706
  326POPC   C1B 7039   7.328  11.578   8.726
  326POPC   C2B 7040   7.380  11.677   8.317
  326POPC   C3B 7041   7.158  11.663   7.974
  326POPC   C4B 7042   7.374  11.664   7.618
  327POPC   NC3 7043  15.739  21.937   9.406
  327POPC   PO4 7044  16.142  22.490   9.362
  327POPC   GL1 7045  16.047  22.271   9.020
  327POPC   GL2 7046  16.183  21.976   9.120
  327POPC   C1A 7047  15.748  22.101   8.718
  327POPC   D2A 7048  15.744  21.867   8.339
  327POPC   C3A 7049  15.896  22.129   8.036
  327POPC   C4A 7050  15.733  22.180   7.623
  327POPC   C1B 7051  16.388  21.758   8.832
  327POPC   C2B 7052  16.233  21.888   8.444
  327POPC   C3B 7053  16.386  21.972   8.037
  327POPC   C4B 7054  16.279  22.147   7.642
  328POPC   NC3 7055  34.524  24.239   9.440
  328POPC   PO4 7056  34.897  24.748   9.236
  328POPC   GL1 7057  34.791  24.386   9.009
  328POPC   GL2 7058  34.461  24.478   8.998
  328POPC   C1A 7059  34.760  24.443   8.571
  328POPC   D2A 7060  34.750  24.715   8.202
  328POPC   C3A 7061  34.648  24.478   7.841
  328POPC   C4A 7062  34.766  24.499   7.425
  328POPC   C1B 7063  34.232  24.527   8.654
  328POPC   C2B 7064  34.346  24.420   8.254
  328POPC   C3B 7065  34.159  24.359   7.851
  328POPC   C4B 7066  34.361  24.204   7.472
  329POPC   NC3 7067  31.772  44.046   9.750
  329POPC   PO4 7068  31.193  43.889   9.462
  329POPC   GL1 7069  31.424  44.096   9.116
  329POPC   GL2 7070  31.816  44.087   9.178
  329POPC   C1A 7071  31.271  44.178   8.666
  329POPC   D2A 7072  30.965  44.004   8.336
  329POPC   C3A 7073  31.114  43.912   7.905
  329POPC   C4A 7074  31.182  43.644   7.524
  329POPC   C1B 7075  31.730  43.936   8.731
  329POPC   C2B 7076  31.551  43.814   8.328
  329POPC   C3B 7077  31.573  43.649   7.906
  329POPC   C4B 7078  31.548  44.013   7.613
  330POPC   NC3 7079  31.209   6.044   9.668
  330POPC   PO4 7080  30.712   5.488   9.513
  330POPC   GL1 7081  30.569   5.599   9.118
  330POPC   GL2 7082  30.436   5.939   9.069
  330POPC   C1A 7083  30.760   5.614   8.711
  330POPC   D2A 7084  30.645   5.475   8.364
  330POPC   C3A 7085  30.883   5.532   8.062
  330POPC   C4A 7086  30.657   5.585   7.719
  330POPC   C1B 7087  30.432   5.978   8.613
  330POPC   C2B 7088  30.763   6.020   8.321
  330POPC   C3B 7089  30.878   6.006   7.898
  330POPC   C4B 7090  30.521   6.104   7.618
  331POPC   NC3 7091  26.979  43.064   9.503
  331POPC   PO4 7092  27.711  42.996   9.486
  331POPC   GL1 7093  27.587  43.036   9.088
  331POPC   GL2 7094  27.320  43.249   9.187
  331POPC   C1A 7095  27.486  43.010   8.658
  331POPC   D2A 7096  27.581  43.114   8.243
  331POPC   C3A 7097  27.546  42.821   7.874
  331POPC   C4A 7098  27.722  42.972   7.457
  331POPC   C1B 7099  27.439  43.481   8.866
  331POPC   C2B 7100  27.220  43.431   8.493
  331POPC   C3B 7101  27.233  43.458   8.075
  331POPC   C4B 7102  27.490  43.297   7.762
  332POPC   NC3 7103  32.663  44.638   9.484
  332POPC   PO4 7104  32.031  44.389   9.561
  332POPC   GL1 7105  32.203  44.563   9.194
  332POPC   GL2 7106  32.488  44.373   9.088
  332POPC   C1A 7107  32.178  44.729   8.776
  332POPC   D2A 7108  31.958  44.988   8.469
  332POPC   C3A 7109  32.062  44.883   8.066
  332POPC   C4A 7110  32.212  44.828   7.680
  332POPC   C1B 7111  32.525  44.328   8.681
  332POPC   C2B 7112  32.442  44.580   8.333
  332POPC   C3B 7113  32.251  44.401   7.989
  332POPC   C4B 7114  32.311  44.335   7.585
  333POPC   NC3 7115  21.880   7.560   9.265
  333POPC   PO4 7116  21.196   7.557   9.463
  333POPC   GL1 7117  21.298   7.345   9.101
  333POPC   GL2 7118  21.613   7.146   9.065
  333POPC   C1A 7119  21.123   7.445   8.706
  333POPC   D2A 7120  21.258   7.678   8.369
  333POPC   C3A 7121  21.300   7.431   8.031
  333POPC   C4A 7122  21.048   7.273   7.738
  333POPC   C1B 7123  21.636   7.455   8.705
  333POPC   C2B 7124  21.730   7.493   8.326
  333POPC   C3B 7125  21.776   7.257   7.998
  333POPC   C4B 7126  21.657   7.383   7.632
  334POPC   NC3 7127  11.726   2.063   9.368
  334POPC   PO4 7128  12.376   2.271   9.501
  334POPC   GL1 7129  12.188   2.181   9.133
  334POPC   GL2 7130  11.912   2.419   9.076
  334POPC   C1A 7131  12.164   1.775   8.891
  334POPC   D2A 7132  11.963   1.683   8.502
  334POPC   C3A 7133  12.203   1.626   8.112
  334POPC   C4A 7134  12.038   1.613   7.695
  334POPC   C1B 7135  11.928   2.188   8.681
  334POPC   C2B 7136  12.196   2.116   8.311
  334POPC   C3B 7137  12.121   2.101   7.857
  334POPC   C4B 7138  12.070   2.185   7.407
  335POPC   NC3 7139  11.946  11.630   9.851
  335POPC   PO4 7140  11.893  11.112   9.465
  335POPC   GL1 7141  11.881  11.451   9.176
  335POPC   GL2 7142  12.195  11.433   8.966
  335POPC   C1A 7143  11.729  11.504   8.751
  335POPC   D2A 7144  11.853  11.350   8.369
  335POPC   C3A 7145  11.754  11.669   8.101
  335POPC   C4A 7146  11.901  11.583   7.724
  335POPC   C1B 7147  11.988  11.040   8.766
  335POPC   C2B 7148  12.054  10.853   8.332
  335POPC   C3B 7149  12.004  11.083   7.916
  335POPC   C4B 7150  12.293  11.287   7.587
  336POPC   NC3 7151  17.114  29.791   9.516
  336POPC   PO4 7152  17.683  29.667   9.829
  336POPC   GL1 7153  17.578  29.766   9.378
  336POPC   GL2 7154  17.379  29.543   9.165
  336POPC   C1A 7155  17.475  30.014   8.991
  336POPC   D2A 7156  17.304  29.897   8.571
  336POPC   C3A 7157  17.484  29.917   8.141
  336POPC   C4A 7158  17.387  30.112   7.743
  336POPC   C1B 7159  17.654  29.571   8.774
  336POPC   C2B 7160  17.657  29.478   8.364
  336POPC   C3B 7161  17.574  29.409   7.930
  336POPC   C4B 7162  17.643  29.680   7.606
  337POPC   NC3 7163  17.127  18.184   9.381
  337POPC   PO4 7164  16.435  18.195   9.541
  337POPC   GL1 7165  16.653  18.356   9.187
  337POPC   GL2 7166  16.719  18.032   9.056
  337POPC   C1A 7167  16.690  18.440   8.730
  337POPC   D2A 7168  16.920  18.711   8.429
  337POPC   C3A 7169  16.781  18.562   8.032
  337POPC   C4A 7170  16.683  18.284   7.711
  337POPC   C1B 7171  16.537  17.921   8.623
  337POPC   C2B 7172  16.568  17.910   8.135
  337POPC   C3B 7173  16.347  17.872   7.728
  337POPC   C4B 7174  16.534  17.969   7.300
  338POPC   NC3 7175  40.011  37.286   9.497
  338POPC   PO4 7176  39.807  36.636   9.421
  338POPC   GL1 7177  39.995  36.927   9.129
  338POPC   GL2 7178  39.736  37.199   9.057
  338POPC   C1A 7179  40.184  37.118   8.765
  338POPC   D2A 7180  40.016  37.177   8.325
  338POPC   C3A 7181  40.234  37.041   7.933
  338POPC   C4A 7182  40.304  37.023   7.455
  338POPC   C1B 7183  39.670  36.875   8.729
  338POPC   C2B 7184  39.663  36.559   8.383
  338POPC   C3B 7185  39.614  36.637   7.922
  338POPC   C4B 7186  39.802  36.936   7.636
  339POPC   NC3 7187   7.430   8.891   9.852
  339POPC   PO4 7188   7.473   9.484   9.532
  339POPC   GL1 7189   7.514   9.055   9.303
  339POPC   GL2 7190   7.187   8.871   9.262
  339POPC   C1A 7191   7.685   8.971   8.870
  339POPC   D2A 7192   7.866   9.163   8.475
  339POPC   C3A 7193   7.607   9.195   8.084
  339POPC   C4A 7194   7.514   8.968   7.682
  339POPC   C1B 7195   7.183   8.892   8.805
  339POPC   C2B 7196   7.289   8.878   8.368
  339POPC   C3B 7197   7.078   8.880   7.971
  339POPC   C4B 7198   7.078   8.726   7.540
  340POPC   NC3 7199  10.592  37.161   9.471
  340POPC   PO4 7200  10.170  36.651   9.477
  340POPC   GL1 7201  10.441  36.805   9.139
  340POPC   GL2 7202  10.265  37.101   9.083
  340POPC   C1A 7203  10.689  36.696   8.750
  340POPC   D2A 7204  11.012  36.654   8.409
  340POPC   C3A 7205  10.839  36.774   8.012
  340POPC   C4A 7206  10.431  36.803   7.813
  340POPC   C1B 7207  10.229  36.919   8.662
  340POPC   C2B 7208  10.229  37.051   8.223
  340POPC   C3B 7209  10.312  37.296   7.840
  340POPC   C4B 7210  10.410  37.183   7.343
  341POPC   NC3 7211  27.095  39.916   9.548
  341POPC   PO4 7212  26.474  39.562   9.538
  341POPC   GL1 7213  26.791  39.737   9.200
  341POPC   GL2 7214  27.113  39.580   9.122
  341POPC   C1A 7215  26.949  40.003   8.828
  341POPC   D2A 7216  26.803  39.940   8.369
  341POPC   C3A 7217  26.611  40.333   8.190
  341POPC   C4A 7218  26.520  40.435   7.737
  341POPC   C1B 7219  27.096  39.535   8.664
  341POPC   C2B 7220  27.255  39.733   8.287
  341POPC   C3B 7221  27.096  39.811   7.892
  341POPC   C4B 7222  27.194  39.745   7.473
  342POPC   NC3 7223  26.391   1.648   9.416
  342POPC   PO4 7224  25.732   1.624   9.538
  342POPC   GL1 7225  25.749   1.927   9.179
  342POPC   GL2 7226  26.106   2.015   9.175
  342POPC   C1A 7227  25.821   2.217   8.796
  342POPC   D2A 7228  26.017   2.252   8.408
  342POPC   C3A 7229  25.818   2.134   8.057
  342POPC   C4A 7230  25.888   2.244   7.632
  342POPC   C1B 7231  26.272   1.949   8.764
  342POPC   C2B 7232  26.377   1.874   8.342
  342POPC   C3B 7233  26.342   2.124   7.978
  342POPC   C4B 7234  26.400   2.048   7.567
  343POPC   NC3 7235  31.942  43.101   9.470
  343POPC   PO4 7236  31.267  42.944   9.782
  343POPC   GL1 7237  31.079  42.953   9.272
  343POPC   GL2 7238  31.201  43.255   9.006
  343POPC   C1A 7239  31.071  42.839   8.786
  343POPC   D2A 7240  31.482  42.944   8.525
  343POPC   C3A 7241  31.447  43.073   8.094
  343POPC   C4A 7242  31.289  42.889   7.713
  343POPC   C1B 7243  31.525  43.449   8.709
  343POPC   C2B 7244  31.901  43.415   8.425
  343POPC   C3B 7245  31.965  43.145   8.063
  343POPC   C4B 7246  31.763  43.095   7.651
  344POPC   NC3 7247  38.069  43.178   9.447
  344POPC   PO4 7248  38.680  43.234   9.791
  344POPC   GL1 7249  38.578  43.029   9.367
  344POPC   GL2 7250  38.552  43.303   9.187
  344POPC   C1A 7251  38.577  42.898   8.876
  344POPC   D2A 7252  38.765  43.021   8.458
  344POPC   C3A 7253  38.587  42.938   8.071
  344POPC   C4A 7254  38.596  43.200   7.694
  344POPC   C1B 7255  38.436  43.366   8.755
  344POPC   C2B 7256  38.308  43.267   8.341
  344POPC   C3B 7257  38.151  43.267   7.922
  344POPC   C4B 7258  38.170  43.230   7.453
  345POPC   NC3 7259   3.417  40.971   9.719
  345POPC   PO4 7260   3.845  40.457   9.762
  345POPC   GL1 7261   3.709  40.529   9.292
  345POPC   GL2 7262   3.465  40.795   9.180
  345POPC   C1A 7263   3.778  40.492   8.828
  345POPC   D2A 7264   3.646  40.324   8.402
  345POPC   C3A 7265   3.715  40.524   7.975
  345POPC   C4A 7266   3.716  40.938   7.769
  345POPC   C1B 7267   3.256  40.952   8.771
  345POPC   C2B 7268   3.234  40.896   8.307
  345POPC   C3B 7269   3.266  40.781   7.868
  345POPC   C4B 7270   3.268  40.823   7.399
  346POPC   NC3 7271  33.987  21.759   9.453
  346POPC   PO4 7272  33.739  21.073   9.492
  346POPC   GL1 7273  34.006  21.288   9.219
  346POPC   GL2 7274  33.721  21.496   9.125
  346POPC   C1A 7275  34.052  21.263   8.792
  346POPC   D2A 7276  33.731  21.322   8.465
  346POPC   C3A 7277  33.894  21.252   8.049
  346POPC   C4A 7278  33.962  21.522   7.671
  346POPC   C1B 7279  33.431  21.569   8.826
  346POPC   C2B 7280  33.425  21.758   8.438
  346POPC   C3B 7281  33.551  21.647   8.018
  346POPC   C4B 7282  33.508  21.275   7.738
  347POPC   NC3 7283   3.662  12.165   9.454
  347POPC   PO4 7284   3.141  11.714   9.547
  347POPC   GL1 7285   3.283  11.907   9.134
  347POPC   GL2 7286   3.603  12.070   8.970
  347POPC   C1A 7287   3.359  11.737   8.696
  347POPC   D2A 7288   3.545  11.688   8.269
  347POPC   C3A 7289   3.358  11.889   7.918
  347POPC   C4A 7290   3.433  11.891   7.459
  347POPC   C1B 7291   3.858  11.834   8.654
  347POPC   C2B 7292   4.009  11.927   8.220
  347POPC   C3B 7293   3.852  11.874   7.823
  347POPC   C4B 7294   3.699  12.271   7.757
  348POPC   NC3 7295  21.260  38.904   9.423
  348POPC   PO4 7296  21.527  39.473   9.705
  348POPC   GL1 7297  21.438  39.382   9.183
  348POPC   GL2 7298  21.440  39.039   8.953
  348POPC   C1A 7299  21.179  39.414   8.761
  348POPC   D2A 7300  21.068  39.205   8.347
  348POPC   C3A 7301  21.380  39.275   8.012
  348POPC   C4A 7302  21.686  39.593   7.834
  348POPC   C1B 7303  21.756  39.291   8.693
  348POPC   C2B 7304  21.856  39.301   8.239
  348POPC   C3B 7305  21.828  39.045   7.859
  348POPC   C4B 7306  21.694  38.741   7.545
  349POPC   NC3 7307  21.168  18.810   9.629
  349POPC   PO4 7308  21.521  19.320   9.551
  349POPC   GL1 7309  21.268  19.071   9.193
  349POPC   GL2 7310  21.279  18.669   9.151
  349POPC   C1A 7311  21.262  18.960   8.722
  349POPC   D2A 7312  21.579  18.894   8.404
  349POPC   C3A 7313  21.728  19.108   8.023
  349POPC   C4A 7314  21.789  19.236   7.605
  349POPC   C1B 7315  21.320  18.430   8.749
  349POPC   C2B 7316  21.213  18.523   8.339
  349POPC   C3B 7317  21.377  18.708   7.978
  349POPC   C4B 7318  21.305  19.023   7.701
  350POPC   NC3 7319   5.697  18.589   9.958
  350POPC   PO4 7320   5.198  18.632   9.481
  350POPC   GL1 7321   5.306  18.225   9.251
  350POPC   GL2 7322   5.390  18.416   8.976
  350POPC   C1A 7323   5.259  17.957   8.848
  350POPC   D2A 7324   5.347  18.227   8.483
  350POPC   C3A 7325   5.122  18.175   8.127
  350POPC   C4A 7326   5.212  18.110   7.726
  350POPC   C1B 7327   4.960  18.381   8.807
  350POPC   C2B 7328   4.712  18.210   8.451
  350POPC   C3B 7329   4.615  18.157   8.002
  350POPC   C4B 7330   4.792  18.431   7.717
  351POPC   NC3 7331  16.185  31.888   9.496
  351POPC   PO4 7332  15.822  32.504   9.474
  351POPC   GL1 7333  15.973  32.230   9.131
  351POPC   GL2 7334  16.106  31.879   8.998
  351POPC   C1A 7335  15.980  32.271   8.699
  351POPC   D2A 7336  16.232  32.127   8.395
  351POPC   C3A 7337  16.086  32.334   8.065
  351POPC   C4A 7338  16.034  32.515   7.688
  351POPC   C1B 7339  15.667  31.883   8.843
  351POPC   C2B 7340  15.574  32.015   8.443
  351POPC   C3B 7341  15.799  31.912   8.098
  351POPC   C4B 7342  15.902  32.024   7.702
  352POPC   NC3 7343  37.247  30.156   9.321
  352POPC   PO4 7344  36.577  29.979   9.549
  352POPC   GL1 7345  36.760  29.895   9.179
  352POPC   GL2 7346  36.536  29.628   9.127
  352POPC   C1A 7347  36.883  30.011   8.765
  352POPC   D2A 7348  36.892  29.806   8.371
  352POPC   C3A 7349  37.023  30.080   8.060
  352POPC   C4A 7350  36.869  30.146   7.660
  352POPC   C1B 7351  36.434  29.733   8.710
  352POPC   C2B 7352  36.403  29.627   8.285
  352POPC   C3B 7353  36.582  29.795   7.932
  352POPC   C4B 7354  36.616  29.722   7.506
  353POPC   NC3 7355   5.736   0.889   9.368
  353POPC   PO4 7356   6.203   1.286   9.454
  353POPC   GL1 7357   6.065   1.201   9.097
  353POPC   GL2 7358   6.163   0.871   9.017
  353POPC   C1A 7359   5.888   1.423   8.743
  353POPC   D2A 7360   6.136   1.461   8.358
  353POPC   C3A 7361   5.895   1.690   8.072
  353POPC   C4A 7362   5.790   1.384   7.767
  353POPC   C1B 7363   5.937   0.936   8.689
  353POPC   C2B 7364   5.828   1.062   8.322
  353POPC   C3B 7365   5.952   0.919   7.979
  353POPC   C4B 7366   5.627   0.873   7.733
  354POPC   NC3 7367  28.703  43.513   9.324
  354POPC   PO4 7368  28.689  42.794   9.531
  354POPC   GL1 7369  28.497  43.005   9.158
  354POPC   GL2 7370  28.155  43.187   9.178
  354POPC   C1A 7371  28.424  43.087   8.710
  354POPC   D2A 7372  28.648  43.028   8.330
  354POPC   C3A 7373  28.492  43.178   7.954
  354POPC   C4A 7374  28.286  43.580   7.905
  354POPC   C1B 7375  27.939  43.259   8.772
  354POPC   C2B 7376  28.093  43.277   8.330
  354POPC   C3B 7377  27.985  43.110   7.920
  354POPC   C4B 7378  28.197  42.900   7.592
  355POPC   NC3 7379   4.080  18.006   9.436
  355POPC   PO4 7380   3.625  17.484   9.442
  355POPC   GL1 7381   3.644  17.625   9.054
  355POPC   GL2 7382   3.861  17.338   8.998
  355POPC   C1A 7383   3.352  17.585   8.700
  355POPC   D2A 7384   3.346  17.240   8.410
  355POPC   C3A 7385   3.110  17.302   8.049
  355POPC   C4A 7386   3.287  17.524   7.744
  355POPC   C1B 7387   3.842  17.546   8.581
  355POPC   C2B 7388   3.742  17.834   8.277
  355POPC   C3B 7389   3.771  17.739   7.834
  355POPC   C4B 7390   3.796  17.875   7.414
  356POPC   NC3 7391  28.824   9.484   9.769
  356POPC   PO4 7392  29.206   9.737   9.286
  356POPC   GL1 7393  29.165   9.629   8.940
  356POPC   GL2 7394  29.460   9.457   8.924
  356POPC   C1A 7395  29.067   9.833   8.586
  356POPC   D2A 7396  29.017   9.755   8.153
  356POPC   C3A 7397  29.113  10.125   7.923
  356POPC   C4A 7398  29.264   9.992   7.535
  356POPC   C1B 7399  29.355   9.376   8.527
  356POPC   C2B 7400  29.496   9.469   8.165
  356POPC   C3B 7401  29.310   9.522   7.793
  356POPC   C4B 7402  29.444   9.533   7.382
  357POPC   NC3 7403  39.439  30.203   9.404
  357POPC   PO4 7404  38.737  30.404   9.508
  357POPC   GL1 7405  39.008  30.203   9.139
  357POPC   GL2 7406  39.285  30.393   8.944
  357POPC   C1A 7407  39.214  29.920   8.807
  357POPC   D2A 7408  39.387  30.060   8.432
  357POPC   C3A 7409  39.289  29.769   8.087
  357POPC   C4A 7410  39.288  29.650   7.642
  357POPC   C1B 7411  39.689  30.490   8.737
  357POPC   C2B 7412  39.776  30.386   8.289
  357POPC   C3B 7413  39.423  30.296   7.982
  357POPC   C4B 7414  39.424  30.150   7.545
  358POPC   NC3 7415   4.861  18.034   9.446
  358POPC   PO4 7416   5.218  17.417   9.515
  358POPC   GL1 7417   5.036  17.308   9.151
  358POPC   GL2 7418   4.862  17.629   9.120
  358POPC   C1A 7419   5.198  17.439   8.754
  358POPC   D2A 7420   5.186  17.688   8.370
  358POPC   C3A 7421   5.222  17.373   8.020
  358POPC   C4A 7422   5.373  17.468   7.581
  358POPC   C1B 7423   4.777  17.747   8.690
  358POPC   C2B 7424   4.685  17.729   8.269
  358POPC   C3B 7425   4.911  17.741   7.898
  358POPC   C4B 7426   4.773  17.952   7.535
  359POPC   NC3 7427  15.888  23.726   9.525
  359POPC   PO4 7428  16.396  23.430   9.229
  359POPC   GL1 7429  16.096  23.575   9.058
  359POPC   GL2 7430  16.165  23.893   9.042
  359POPC   C1A 7431  15.814  23.488   8.708
  359POPC   D2A 7432  15.975  23.405   8.314
  359POPC   C3A 7433  15.697  23.504   7.950
  359POPC   C4A 7434  15.732  23.361   7.520
  359POPC   C1B 7435  16.222  23.768   8.611
  359POPC   C2B 7436  16.033  23.912   8.283
  359POPC   C3B 7437  16.127  23.751   7.910
  359POPC   C4B 7438  16.210  23.458   7.647
  360POPC   NC3 7439  40.194  39.395   9.505
  360POPC   PO4 7440  39.593  39.181   9.584
  360POPC   GL1 7441  39.867  39.064   9.264
  360POPC   GL2 7442  39.859  39.423   9.099
  360POPC   C1A 7443  39.968  39.000   8.853
  360POPC   D2A 7444  39.881  39.307   8.549
  360POPC   C3A 7445  39.903  39.177   8.134
  360POPC   C4A 7446  39.963  38.981   7.740
  360POPC   C1B 7447  40.288  39.400   8.884
  360POPC   C2B 7448  40.404  39.354   8.495
  360POPC   C3B 7449  40.336  39.541   8.129
  360POPC   C4B 7450  40.148  39.441   7.771
  361POPC   NC3 7451   3.269  18.589   9.492
  361POPC   PO4 7452   3.972  18.518   9.524
  361POPC   GL1 7453   3.665  18.334   9.214
  361POPC   GL2 7454   3.444  18.571   9.024
  361POPC   C1A 7455   3.499  18.086   8.847
  361POPC   D2A 7456   3.213  18.075   8.504
  361POPC   C3A 7457   3.388  18.194   8.113
  361POPC   C4A 7458   3.371  18.027   7.697
  361POPC   C1B 7459   3.807  18.608   8.778
  361POPC   C2B 7460   3.826  18.391   8.404
  361POPC   C3B 7461   3.751  18.524   8.009
  361POPC   C4B 7462   3.406  18.540   7.704
  362POPC   NC3 7463   5.881  10.181   9.558
  362POPC   PO4 7464   5.700   9.450   9.397
  362POPC   GL1 7465   5.965   9.636   9.098
  362POPC   GL2 7466   5.984   9.996   9.089
  362POPC   C1A 7467   6.021   9.487   8.672
  362POPC   D2A 7468   5.760   9.379   8.297
  362POPC   C3A 7469   5.748   9.667   7.938
  362POPC   C4A 7470   6.037   9.956   7.848
  362POPC   C1B 7471   5.709   9.889   8.716
  362POPC   C2B 7472   5.833  10.003   8.334
  362POPC   C3B 7473   5.594  10.229   8.076
  362POPC   C4B 7474   5.513  10.118   7.697
  363POPC   NC3 7475   4.054  36.064   9.402
  363POPC   PO4 7476   4.579  36.456   9.544
  363POPC   GL1 7477   4.385  36.312   9.130
  363POPC   GL2 7478   4.457  35.982   9.043
  363POPC   C1A 7479   4.009  36.376   8.837
  363POPC   D2A 7480   4.002  36.498   8.407
  363POPC   C3A 7481   4.205  36.195   8.132
  363POPC   C4A 7482   4.083  36.243   7.729
  363POPC   C1B 7483   4.308  36.024   8.622
  363POPC   C2B 7484   4.248  35.717   8.296
  363POPC   C3B 7485   3.982  35.730   7.944
  363POPC   C4B 7486   3.975  35.748   7.491
  364POPC   NC3 7487   7.088  21.525   9.400
  364POPC   PO4 7488   7.556  21.045   9.571
  364POPC   GL1 7489   7.500  21.197   9.140
  364POPC   GL2 7490   7.297  21.410   8.953
  364POPC   C1A 7491   7.691  21.147   8.728
  364POPC   D2A 7492   7.482  21.084   8.340
  364POPC   C3A 7493   7.490  21.346   7.955
  364POPC   C4A 7494   7.624  21.773   7.939
  364POPC   C1B 7495   6.973  21.640   8.772
  364POPC   C2B 7496   6.865  21.719   8.353
  364POPC   C3B 7497   7.111  21.747   7.984
  364POPC   C4B 7498   7.244  21.685   7.578
  365POPC   NC3 7499   2.370  44.015   9.198
  365POPC   PO4 7500   2.695  43.661   9.623
  365POPC   GL1 7501   2.904  43.872   9.238
  365POPC   GL2 7502   2.919  44.245   9.195
  365POPC   C1A 7503   2.997  43.950   8.796
  365POPC   D2A 7504   2.686  43.799   8.509
  365POPC   C3A 7505   2.859  43.856   8.132
  365POPC   C4A 7506   2.882  43.870   7.701
  365POPC   C1B 7507   2.734  44.388   8.767
  365POPC   C2B 7508   2.626  44.288   8.346
  365POPC   C3B 7509   2.509  44.178   7.942
  365POPC   C4B 7510   2.610  44.359   7.588
  366POPC   NC3 7511  38.731  26.012   9.574
  366POPC   PO4 7512  38.098  25.857   9.402
  366POPC   GL1 7513  38.420  26.081   9.176
  366POPC   GL2 7514  38.754  26.027   9.073
  366POPC   C1A 7515  38.407  26.124   8.745
  366POPC   D2A 7516  38.298  25.837   8.439
  366POPC   C3A 7517  38.381  26.005   8.070
  366POPC   C4A 7518  38.278  25.820   7.694
  366POPC   C1B 7519  38.967  26.060   8.722
  366POPC   C2B 7520  38.830  25.933   8.344
  366POPC   C3B 7521  38.881  26.031   7.939
  366POPC   C4B 7522  38.686  26.199   7.655
  367POPC   NC3 7523  34.505  24.970   9.304
  367POPC   PO4 7524  34.431  25.598   9.480
  367POPC   GL1 7525  34.668  25.547   9.061
  367POPC   GL2 7526  34.814  25.223   9.015
  367POPC   C1A 7527  34.605  25.426   8.614
  367POPC   D2A 7528  34.685  25.229   8.233
  367POPC   C3A 7529  34.382  25.386   7.967
  367POPC   C4A 7530  34.499  25.511   7.577
  367POPC   C1B 7531  34.613  24.929   8.669
  367POPC   C2B 7532  34.253  24.967   8.394
  367POPC   C3B 7533  34.299  24.881   7.983
  367POPC   C4B 7534  34.673  25.030   7.730
  368POPC   NC3 7535  40.768  20.573   9.472
  368POPC   PO4 7536  41.216  20.096   9.337
  368POPC   GL1 7537  40.982  20.372   9.050
  368POPC   GL2 7538  41.021  20.739   9.073
  368POPC   C1A 7539  40.782  20.307   8.639
  368POPC   D2A 7540  40.770  20.591   8.239
  368POPC   C3A 7541  40.983  20.434   7.857
  368POPC   C4A 7542  41.076  20.276   7.446
  368POPC   C1B 7543  40.828  20.803   8.711
  368POPC   C2B 7544  40.874  21.088   8.411
  368POPC   C3B 7545  40.666  21.135   8.058
  368POPC   C4B 7546  40.674  20.849   7.759
  369POPC   NC3 7547   4.837  21.950   9.546
  369POPC   PO4 7548   5.501  21.931   9.408
  369POPC   GL1 7549   5.443  22.136   9.048
  369POPC   GL2 7550   5.127  22.271   9.094
  369POPC   C1A 7551   5.429  22.276   8.661
  369POPC   D2A 7552   5.338  22.101   8.301
  369POPC   C3A 7553   5.298  22.411   8.020
  369POPC   C4A 7554   5.395  22.128   7.728
  369POPC   C1B 7555   4.972  22.506   8.750
  369POPC   C2B 7556   4.905  22.352   8.355
  369POPC   C3B 7557   4.656  22.046   8.120
  369POPC   C4B 7558   4.838  22.074   7.727
  370POPC   NC3 7559  20.314   4.102   9.420
  370POPC   PO4 7560  20.904   4.191   9.687
  370POPC   GL1 7561  20.729   4.335   9.224
  370POPC   GL2 7562  20.438   4.519   9.146
  370POPC   C1A 7563  20.785   4.453   8.778
  370POPC   D2A 7564  20.527   4.698   8.494
  370POPC   C3A 7565  20.699   4.629   8.080
  370POPC   C4A 7566  20.633   4.343   7.803
  370POPC   C1B 7567  20.313   4.269   8.755
  370POPC   C2B 7568  20.438   4.224   8.307
  370POPC   C3B 7569  20.235   4.079   7.943
  370POPC   C4B 7570  20.370   3.997   7.515
  371POPC   NC3 7571  25.534  17.139   9.849
  371POPC   PO4 7572  25.542  17.689   9.448
  371POPC   GL1 7573  25.431  17.634   9.073
  371POPC   GL2 7574  25.089  17.508   9.192
  371POPC   C1A 7575  25.301  17.442   8.735
  371POPC   D2A 7576  25.133  17.661   8.421
  371POPC   C3A 7577  25.361  17.528   8.078
  371POPC   C4A 7578  25.520  17.503   7.697
  371POPC   C1B 7579  24.809  17.413   8.845
  371POPC   C2B 7580  24.828  17.245   8.410
  371POPC   C3B 7581  24.856  17.497   8.029
  371POPC   C4B 7582  25.042  17.697   7.687
  372POPC   NC3 7583  20.935   5.619   9.381
  372POPC   PO4 7584  20.478   6.124   9.489
  372POPC   GL1 7585  20.505   5.868   9.127
  372POPC   GL2 7586  20.468   5.493   9.144
  372POPC   C1A 7587  20.693   5.910   8.727
  372POPC   D2A 7588  20.468   5.897   8.337
  372POPC   C3A 7589  20.676   5.615   8.053
  372POPC   C4A 7590  21.032   5.833   7.879
  372POPC   C1B 7591  20.270   5.589   8.726
  372POPC   C2B 7592  20.228   5.437   8.273
  372POPC   C3B 7593  20.181   5.704   7.897
  372POPC   C4B 7594  20.487   6.015   7.816
  373POPC   NC3 7595  21.041  16.180   9.334
  373POPC   PO4 7596  21.552  15.857   9.654
  373POPC   GL1 7597  21.528  16.007   9.205
  373POPC   GL2 7598  21.218  15.890   8.975
  373POPC   C1A 7599  21.535  16.239   8.796
  373POPC   D2A 7600  21.271  16.147   8.437
  373POPC   C3A 7601  21.460  16.203   8.059
  373POPC   C4A 7602  21.659  15.849   7.871
  373POPC   C1B 7603  20.851  16.148   8.739
  373POPC   C2B 7604  20.825  16.405   8.367
  373POPC   C3B 7605  20.905  16.157   7.999
  373POPC   C4B 7606  21.182  15.908   7.726
  374POPC   NC3 7607   3.529  21.974   9.455
  374POPC   PO4 7608   3.865  22.554   9.494
  374POPC   GL1 7609   3.715  22.330   9.154
  374POPC   GL2 7610   3.320  22.315   9.131
  374POPC   C1A 7611   3.679  22.027   8.825
  374POPC   D2A 7612   3.612  22.208   8.456
  374POPC   C3A 7613   3.717  21.996   8.056
  374POPC   C4A 7614   3.739  22.200   7.659
  374POPC   C1B 7615   3.175  22.143   8.741
  374POPC   C2B 7616   3.110  22.259   8.291
  374POPC   C3B 7617   3.255  22.153   7.868
  374POPC   C4B 7618   3.318  22.346   7.433
  375POPC   NC3 7619  43.470  27.376   9.415
  375POPC   PO4 7620  43.986  27.735   9.662
  375POPC   GL1 7621  43.850  27.718   9.237
  375POPC   GL2 7622  43.550  27.883   9.141
  375POPC   C1A 7623  44.103  27.622   8.874
  375POPC   D2A 7624  44.000  27.513   8.473
  375POPC   C3A 7625  44.252  27.563   8.126
  375POPC   C4A 7626  44.221  27.408   7.738
  375POPC   C1B 7627  43.572  27.575   8.797
  375POPC   C2B 7628  43.511  27.432   8.382
  375POPC   C3B 7629  43.723  27.606   8.033
  375POPC   C4B 7630  43.455  27.458   7.775
  376POPC   NC3 7631   9.233  33.606   9.420
  376POPC   PO4 7632   9.808  34.038   9.407
  376POPC   GL1 7633   9.847  33.873   9.025
  376POPC   GL2 7634   9.557  34.039   8.893
  376POPC   C1A 7635  10.069  33.796   8.639
  376POPC   D2A 7636  10.172  33.984   8.243
  376POPC   C3A 7637   9.817  33.904   7.989
  376POPC   C4A 7638   9.798  33.838   7.563
  376POPC   C1B 7639   9.514  33.593   8.714
  376POPC   C2B 7640   9.365  33.317   8.338
  376POPC   C3B 7641   9.395  33.445   7.877
  376POPC   C4B 7642   9.303  33.878   7.739
  377POPC   NC3 7643  41.299  44.458   9.686
  377POPC   PO4 7644  41.852  44.661  10.022
  377POPC   GL1 7645  41.831  44.672   9.444
  377POPC   GL2 7646  41.511  44.588   9.198
  377POPC   C1A 7647  41.851  44.825   8.924
  377POPC   D2A 7648  41.876  44.851   8.426
  377POPC   C3A 7649  41.725   0.197   8.114
  377POPC   C4A 7650  41.665   0.262   7.654
  377POPC   C1B 7651  41.386  44.683   8.698
  377POPC   C2B 7652  41.284  44.609   8.216
  377POPC   C3B 7653  41.225  44.564   7.714
  377POPC   C4B 7654  41.368  44.943   7.392
  378POPC   NC3 7655  26.310  18.816   9.520
  378POPC   PO4 7656  25.694  19.195   9.507
  378POPC   GL1 7657  25.949  19.066   9.169
  378POPC   GL2 7658  26.247  19.245   9.216
  378POPC   C1A 7659  25.943  18.816   8.779
  378POPC   D2A 7660  25.827  18.629   8.370
  378POPC   C3A 7661  25.977  18.903   8.050
  378POPC   C4A 7662  26.169  19.155   7.696
  378POPC   C1B 7663  26.319  19.170   8.804
  378POPC   C2B 7664  26.032  19.278   8.478
  378POPC   C3B 7665  25.930  19.406   8.071
  378POPC   C4B 7666  26.130  19.651   7.796
  379POPC   NC3 7667  39.055  16.040   9.665
  379POPC   PO4 7668  39.381  15.493   9.547
  379POPC   GL1 7669  39.127  15.740   9.212
  379POPC   GL2 7670  39.109  16.143   9.179
  379POPC   C1A 7671  39.085  15.863   8.761
  379POPC   D2A 7672  39.231  16.245   8.507
  379POPC   C3A 7673  39.228  16.108   8.081
  379POPC   C4A 7674  39.010  15.767   7.901
  379POPC   C1B 7675  38.809  16.302   8.853
  379POPC   C2B 7676  38.819  16.555   8.489
  379POPC   C3B 7677  38.951  16.531   8.067
  379POPC   C4B 7678  38.815  16.249   7.734
  380POPC   NC3 7679  17.729  33.662   9.730
  380POPC   PO4 7680  17.596  33.032   9.485
  380POPC   GL1 7681  17.513  33.025   9.063
  380POPC   GL2 7682  17.376  32.733   9.092
  380POPC   C1A 7683  17.582  33.179   8.655
  380POPC   D2A 7684  17.356  33.186   8.259
  380POPC   C3A 7685  17.651  33.237   7.921
  380POPC   C4A 7686  17.583  33.620   7.681
  380POPC   C1B 7687  17.500  32.671   8.705
  380POPC   C2B 7688  17.608  32.766   8.331
  380POPC   C3B 7689  17.459  32.767   7.926
  380POPC   C4B 7690  17.268  32.722   7.513
  381POPC   NC3 7691  31.870  27.989   9.938
  381POPC   PO4 7692  32.266  27.524   9.550
  381POPC   GL1 7693  32.363  27.673   9.143
  381POPC   GL2 7694  32.018  27.577   9.047
  381POPC   C1A 7695  32.610  27.732   8.750
  381POPC   D2A 7696  32.472  27.587   8.372
  381POPC   C3A 7697  32.487  27.758   7.986
  381POPC   C4A 7698  32.133  27.631   7.786
  381POPC   C1B 7699  32.069  27.876   8.692
  381POPC   C2B 7700  32.036  27.904   8.221
  381POPC   C3B 7701  31.897  28.067   7.785
  381POPC   C4B 7702  32.041  27.854   7.349
  382POPC   NC3 7703  44.273  17.947   9.273
  382POPC   PO4 7704  44.526  17.277   9.478
  382POPC   GL1 7705  44.437  17.420   9.098
  382POPC   GL2 7706  44.687  17.651   9.130
  382POPC   C1A 7707  44.389  17.552   8.659
  382POPC   D2A 7708  44.451  17.364   8.281
  382POPC   C3A 7709  44.479  17.498   7.834
  382POPC   C4A 7710  44.488  17.439   7.345
  382POPC   C1B 7711  44.868  17.582   8.743
  382POPC   C2B 7712  44.822  17.753   8.366
  382POPC   C3B 7713   0.046  17.763   8.016
  382POPC   C4B 7714  44.903  17.656   7.625
  383POPC   NC3 7715  36.886   4.256   9.455
  383POPC   PO4 7716  36.388   4.665   9.556
  383POPC   GL1 7717  36.516   4.409   9.168
  383POPC   GL2 7718  36.904   4.495   9.015
  383POPC   C1A 7719  36.617   4.101   8.816
  383POPC   D2A 7720  36.789   3.942   8.394
  383POPC   C3A 7721  36.684   4.122   7.961
  383POPC   C4A 7722  36.442   4.230   7.529
  383POPC   C1B 7723  37.118   4.128   8.771
  383POPC   C2B 7724  37.296   3.988   8.363
  383POPC   C3B 7725  37.408   4.185   8.010
  383POPC   C4B 7726  37.107   4.196   7.702
  384POPC   NC3 7727  19.475  38.998   9.790
  384POPC   PO4 7728  19.941  39.453   9.698
  384POPC   GL1 7729  19.897  39.428   9.197
  384POPC   GL2 7730  19.571  39.384   9.060
  384POPC   C1A 7731  20.027  39.211   8.796
  384POPC   D2A 7732  19.869  39.239   8.353
  384POPC   C3A 7733  20.055  39.037   7.990
  384POPC   C4A 7734  19.990  39.244   7.601
  384POPC   C1B 7735  19.533  39.054   8.680
  384POPC   C2B 7736  19.312  38.912   8.325
  384POPC   C3B 7737  19.536  38.997   7.944
  384POPC   C4B 7738  19.561  39.004   7.499
  385POPC   NC3 7739  17.797  23.219   9.497
  385POPC   PO4 7740  18.521  22.955   9.517
  385POPC   GL1 7741  18.150  22.932   9.229
  385POPC   GL2 7742  18.046  22.565   9.139
  385POPC   C1A 7743  18.095  23.235   8.857
  385POPC   D2A 7744  18.182  23.171   8.404
  385POPC   C3A 7745  18.552  23.103   8.118
  385POPC   C4A 7746  18.450  23.015   7.688
  385POPC   C1B 7747  18.154  22.735   8.757
  385POPC   C2B 7748  17.949  22.727   8.397
  385POPC   C3B 7749  18.156  22.712   8.004
  385POPC   C4B 7750  17.995  22.756   7.626
  386POPC   NC3 7751  21.592   9.775   9.846
  386POPC   PO4 7752  22.210   9.646   9.600
  386POPC   GL1 7753  21.892   9.647   9.273
  386POPC   GL2 7754  22.080   9.820   9.031
  386POPC   C1A 7755  21.876   9.397   8.866
  386POPC   D2A 7756  22.068   9.452   8.482
  386POPC   C3A 7757  22.036   9.397   8.060
  386POPC   C4A 7758  22.199   9.583   7.703
  386POPC   C1B 7759  22.230   9.909   8.651
  386POPC   C2B 7760  22.098  10.114   8.301
  386POPC   C3B 7761  22.292   9.929   8.037
  386POPC   C4B 7762  22.654   9.774   7.886
  387POPC   NC3 7763  25.130  34.722   9.478
  387POPC   PO4 7764  25.315  34.108   9.448
  387POPC   GL1 7765  25.433  34.403   9.173
  387POPC   GL2 7766  25.147  34.460   9.047
  387POPC   C1A 7767  25.567  34.506   8.748
  387POPC   D2A 7768  25.595  34.787   8.398
  387POPC   C3A 7769  25.632  34.604   7.986
  387POPC   C4A 7770  25.346  34.318   7.842
  387POPC   C1B 7771  25.115  34.676   8.643
  387POPC   C2B 7772  25.055  34.867   8.258
  387POPC   C3B 7773  25.115  34.798   7.831
  387POPC   C4B 7774  25.065  35.061   7.471
  388POPC   NC3 7775  16.975  39.649   9.543
  388POPC   PO4 7776  16.738  40.312   9.548
  388POPC   GL1 7777  16.787  40.015   9.236
  388POPC   GL2 7778  17.123  40.086   9.230
  388POPC   C1A 7779  16.586  39.870   8.877
  388POPC   D2A 7780  16.657  40.043   8.483
  388POPC   C3A 7781  16.471  39.873   8.127
  388POPC   C4A 7782  16.486  39.944   7.697
  388POPC   C1B 7783  17.105  40.220   8.838
  388POPC   C2B 7784  17.176  40.181   8.425
  388POPC   C3B 7785  16.929  40.130   8.060
  388POPC   C4B 7786  16.925  40.242   7.639
  389POPC   NC3 7787  39.346  23.520   9.595
  389POPC   PO4 7788  38.950  24.030   9.716
  389POPC   GL1 7789  39.228  23.901   9.281
  389POPC   GL2 7790  39.225  23.556   9.104
  389POPC   C1A 7791  39.235  23.968   8.803
  389POPC   D2A 7792  39.233  23.724   8.443
  389POPC   C3A 7793  39.283  23.927   8.036
  389POPC   C4A 7794  39.035  23.955   7.639
  389POPC   C1B 7795  38.968  23.276   8.836
  389POPC   C2B 7796  38.944  23.262   8.388
  389POPC   C3B 7797  39.257  23.365   8.076
  389POPC   C4B 7798  39.175  23.457   7.684
  390POPC   NC3 7799  30.988   1.688   9.321
  390POPC   PO4 7800  30.557   2.255   9.485
  390POPC   GL1 7801  30.687   2.082   9.130
  390POPC   GL2 7802  30.914   2.316   9.020
  390POPC   C1A 7803  30.717   1.862   8.742
  390POPC   D2A 7804  30.483   1.958   8.398
  390POPC   C3A 7805  30.566   1.855   8.013
  390POPC   C4A 7806  30.300   1.873   7.674
  390POPC   C1B 7807  30.801   2.346   8.613
  390POPC   C2B 7808  30.881   2.193   8.207
  390POPC   C3B 7809  30.782   2.233   7.750
  390POPC   C4B 7810  30.981   2.217   7.347
  391POPC   NC3 7811  42.491  39.966   9.490
  391POPC   PO4 7812  41.871  39.907   9.397
  391POPC   GL1 7813  42.171  39.928   9.094
  391POPC   GL2 7814  42.328  40.237   9.077
  391POPC   C1A 7815  42.213  39.937   8.681
  391POPC   D2A 7816  42.400  39.775   8.364
  391POPC   C3A 7817  42.214  39.973   8.018
  391POPC   C4A 7818  42.282  39.920   7.586
  391POPC   C1B 7819  42.594  40.260   8.717
  391POPC   C2B 7820  42.525  40.277   8.297
  391POPC   C3B 7821  42.575  40.351   7.870
  391POPC   C4B 7822  42.529  40.362   7.424
  392POPC   NC3 7823   9.439  23.339   9.531
  392POPC   PO4 7824   9.559  24.041   9.482
  392POPC   GL1 7825   9.675  23.792   9.134
  392POPC   GL2 7826   9.449  23.533   9.075
  392POPC   C1A 7827   9.891  23.763   8.737
  392POPC   D2A 7828   9.734  23.915   8.332
  392POPC   C3A 7829   9.821  23.722   7.958
  392POPC   C4A 7830  10.012  23.693   7.577
  392POPC   C1B 7831   9.625  23.332   8.734
  392POPC   C2B 7832   9.904  23.373   8.386
  392POPC   C3B 7833  10.033  23.244   7.981
  392POPC   C4B 7834   9.781  23.243   7.636
  393POPC   NC3 7835  34.960  18.041   9.437
  393POPC   PO4 7836  34.234  18.285   9.355
  393POPC   GL1 7837  34.633  18.269   9.102
  393POPC   GL2 7838  34.688  17.905   9.033
  393POPC   C1A 7839  34.846  18.246   8.685
  393POPC   D2A 7840  34.689  18.134   8.292
  393POPC   C3A 7841  34.825  18.319   7.964
  393POPC   C4A 7842  35.185  18.290   7.721
  393POPC   C1B 7843  34.390  17.967   8.698
  393POPC   C2B 7844  34.187  18.146   8.346
  393POPC   C3B 7845  34.329  18.079   7.903
  393POPC   C4B 7846  34.256  18.437   7.636
  394POPC   NC3 7847  19.621  34.224   9.435
  394POPC   PO4 7848  20.037  34.856   9.502
  394POPC   GL1 7849  19.912  34.672   9.118
  394POPC   GL2 7850  20.002  34.339   9.054
  394POPC   C1A 7851  19.762  34.704   8.704
  394POPC   D2A 7852  19.968  34.549   8.346
  394POPC   C3A 7853  19.925  34.723   7.954
  394POPC   C4A 7854  19.661  34.913   7.676
  394POPC   C1B 7855  19.729  34.195   8.748
  394POPC   C2B 7856  19.551  34.241   8.348
  394POPC   C3B 7857  19.768  34.227   7.937
  394POPC   C4B 7858  19.704  34.406   7.533
  395POPC   NC3 7859   2.138  41.803   9.452
  395POPC   PO4 7860   2.090  41.210   9.584
  395POPC   GL1 7861   1.822  41.386   9.218
  395POPC   GL2 7862   1.964  41.636   9.028
  395POPC   C1A 7863   1.572  41.422   8.801
  395POPC   D2A 7864   1.608  41.112   8.459
  395POPC   C3A 7865   1.788  41.314   8.093
  395POPC   C4A 7866   1.927  41.482   7.661
  395POPC   C1B 7867   1.851  41.939   8.755
  395POPC   C2B 7868   1.712  41.751   8.394
  395POPC   C3B 7869   1.896  41.819   8.021
  395POPC   C4B 7870   1.871  42.016   7.631
  396POPC   NC3 7871  10.250   4.342   9.818
  396POPC   PO4 7872   9.740   4.443   9.507
  396POPC   GL1 7873   9.789   4.491   9.109
  396POPC   GL2 7874   9.720   4.140   9.090
  396POPC   C1A 7875   9.958   4.441   8.728
  396POPC   D2A 7876   9.900   4.117   8.428
  396POPC   C3A 7877   9.970   4.330   8.031
  396POPC   C4A 7878   9.738   4.351   7.631
  396POPC   C1B 7879   9.489   3.987   8.756
  396POPC   C2B 7880   9.416   4.125   8.322
  396POPC   C3B 7881   9.573   3.984   7.948
  396POPC   C4B 7882   9.362   4.022   7.523
  397POPC   NC3 7883  19.703  18.509   9.416
  397POPC   PO4 7884  20.174  18.068   9.562
  397POPC   GL1 7885  19.932  18.050   9.209
  397POPC   GL2 7886  19.590  18.054   9.193
  397POPC   C1A 7887  19.946  18.235   8.817
  397POPC   D2A 7888  20.205  18.187   8.477
  397POPC   C3A 7889  20.018  18.345   8.092
  397POPC   C4A 7890  20.057  18.277   7.681
  397POPC   C1B 7891  19.616  17.844   8.760
  397POPC   C2B 7892  19.751  17.970   8.349
  397POPC   C3B 7893  19.685  18.003   7.898
  397POPC   C4B 7894  19.543  18.415   7.712
  398POPC   NC3 7895  21.930  16.114   9.587
  398POPC   PO4 7896  22.540  16.147   9.748
  398POPC   GL1 7897  22.355  16.044   9.257
  398POPC   GL2 7898  22.104  15.808   9.229
  398POPC   C1A 7899  22.018  16.072   8.827
  398POPC   D2A 7900  21.805  15.962   8.414
  398POPC   C3A 7901  22.092  16.092   8.075
  398POPC   C4A 7902  22.303  16.229   7.652
  398POPC   C1B 7903  22.248  15.622   8.835
  398POPC   C2B 7904  22.289  15.752   8.444
  398POPC   C3B 7905  22.320  15.519   8.124
  398POPC   C4B 7906  22.114  15.682   7.782
  399POPC   NC3 7907  28.918   1.242   9.336
  399POPC   PO4 7908  29.500   0.817   9.437
  399POPC   GL1 7909  29.411   1.084   9.056
  399POPC   GL2 7910  29.489   1.452   9.036
  399POPC   C1A 7911  29.217   1.008   8.631
  399POPC   D2A 7912  28.999   0.897   8.231
  399POPC   C3A 7913  29.298   0.907   7.891
  399POPC   C4A 7914  29.561   1.314   7.878
  399POPC   C1B 7915  29.149   1.529   8.732
  399POPC   C2B 7916  29.197   1.585   8.288
  399POPC   C3B 7917  29.048   1.340   7.957
  399POPC   C4B 7918  28.868   1.374   7.567
  400POPC   NC3 7919  22.839  30.292   9.508
  400POPC   PO4 7920  22.800  30.983   9.441
  400POPC   GL1 7921  22.791  30.657   9.157
  400POPC   GL2 7922  23.178  30.581   9.215
  400POPC   C1A 7923  22.635  30.598   8.748
  400POPC   D2A 7924  22.858  30.734   8.372
  400POPC   C3A 7925  22.642  30.707   7.963
  400POPC   C4A 7926  22.546  30.361   7.684
  400POPC   C1B 7927  23.192  30.841   8.813
  400POPC   C2B 7928  23.363  30.766   8.368
  400POPC   C3B 7929  23.171  30.743   7.928
  400POPC   C4B 7930  23.307  30.851   7.498
  401POPC   NC3 7931  29.494  11.335   9.607
  401POPC   PO4 7932  28.934  10.965   9.534
  401POPC   GL1 7933  29.240  11.106   9.204
  401POPC   GL2 7934  29.133  11.440   9.087
  401POPC   C1A 7935  29.279  11.055   8.735
  401POPC   D2A 7936  29.044  11.293   8.408
  401POPC   C3A 7937  29.115  11.206   7.993
  401POPC   C4A 7938  29.486  10.985   7.870
  401POPC   C1B 7939  29.046  11.716   8.701
  401POPC   C2B 7940  29.239  11.773   8.297
  401POPC   C3B 7941  29.051  11.763   7.883
  401POPC   C4B 7942  28.785  11.843   7.502
  402POPC   NC3 7943  23.973   0.891   9.562
  402POPC   PO4 7944  23.430   1.328   9.593
  402POPC   GL1 7945  23.511   1.134   9.203
  402POPC   GL2 7946  23.865   1.199   9.162
  402POPC   C1A 7947  23.363   1.052   8.779
  402POPC   D2A 7948  23.481   1.141   8.364
  402POPC   C3A 7949  23.729   0.884   8.101
  402POPC   C4A 7950  23.853   0.982   7.674
  402POPC   C1B 7951  23.790   1.343   8.750
  402POPC   C2B 7952  23.884   1.493   8.342
  402POPC   C3B 7953  23.778   1.408   7.942
  402POPC   C4B 7954  24.094   1.460   7.659
  403POPC   NC3 7955  28.489   2.624   9.479
  403POPC   PO4 7956  28.008   3.034   9.728
  403POPC   GL1 7957  28.049   2.959   9.241
  403POPC   GL2 7958  28.144   2.591   9.098
  403POPC   C1A 7959  28.189   2.985   8.790
  403POPC   D2A 7960  28.162   2.574   8.536
  403POPC   C3A 7961  28.272   2.647   8.112
  403POPC   C4A 7962  28.164   2.547   7.706
  403POPC   C1B 7963  28.571   2.638   8.837
  403POPC   C2B 7964  28.676   2.813   8.424
  403POPC   C3B 7965  28.772   2.703   7.998
  403POPC   C4B 7966  28.650   2.720   7.585
  404POPC   NC3 7967   3.388   4.929   9.457
  404POPC   PO4 7968   3.661   5.483   9.159
  404POPC   GL1 7969   3.627   5.096   8.980
  404POPC   GL2 7970   3.274   4.960   8.968
  404POPC   C1A 7971   3.559   5.140   8.539
  404POPC   D2A 7972   3.455   5.459   8.282
  404POPC   C3A 7973   3.680   5.427   7.976
  404POPC   C4A 7974   3.676   5.192   7.644
  404POPC   C1B 7975   3.437   4.685   8.715
  404POPC   C2B 7976   3.395   4.693   8.314
  404POPC   C3B 7977   3.621   4.911   8.064
  404POPC   C4B 7978   3.406   4.762   7.735
  405POPC   NC3 7979   1.335  30.693   9.540
  405POPC   PO4 7980   0.695  31.020   9.530
  405POPC   GL1 7981   0.877  30.697   9.178
  405POPC   GL2 7982   1.287  30.638   9.055
  405POPC   C1A 7983   0.933  30.519   8.744
  405POPC   D2A 7984   1.308  30.708   8.518
  405POPC   C3A 7985   1.329  30.651   8.102
  405POPC   C4A 7986   1.226  30.782   7.748
  405POPC   C1B 7987   1.622  30.433   8.787
  405POPC   C2B 7988   1.753  30.456   8.314
  405POPC   C3B 7989   1.566  30.223   7.906
  405POPC   C4B 7990   1.305  30.343   7.508
  406POPC   NC3 7991  28.729  37.596   9.464
  406POPC   PO4 7992  28.189  37.287   9.841
  406POPC   GL1 7993  28.214  37.446   9.364
  406POPC   GL2 7994  28.450  37.296   9.147
  406POPC   C1A 7995  28.198  37.712   8.938
  406POPC   D2A 7996  28.196  37.682   8.444
  406POPC   C3A 7997  28.369  37.737   7.995
  406POPC   C4A 7998  28.579  38.068   7.793
  406POPC   C1B 7999  28.152  37.221   8.802
  406POPC   C2B 8000  28.125  37.120   8.382
  406POPC   C3B 8001  28.165  37.287   7.996
  406POPC   C4B 8002  28.029  37.507   7.628
  407POPC   NC3 8003  28.061  19.364   9.312
  407POPC   PO4 8004  27.676  19.086   9.818
  407POPC   GL1 8005  27.670  18.970   9.292
  407POPC   GL2 8006  27.361  18.960   9.085
  407POPC   C1A 8007  27.802  18.928   8.807
  407POPC   D2A 8008  27.832  18.702   8.381
  407POPC   C3A 8009  27.756  18.954   7.995
  407POPC   C4A 8010  27.586  19.237   7.694
  407POPC   C1B 8011  27.266  19.146   8.644
  407POPC   C2B 8012  27.311  19.194   8.161
  407POPC   C3B 8013  27.174  19.517   7.797
  407POPC   C4B 8014  27.139  19.374   7.332
  408POPC   NC3 8015  32.062  22.403   9.483
  408POPC   PO4 8016  32.519  21.963   9.284
  408POPC   GL1 8017  32.318  22.266   9.061
  408POPC   GL2 8018  32.011  22.107   9.058
  408POPC   C1A 8019  32.341  22.282   8.641
  408POPC   D2A 8020  32.399  21.998   8.305
  408POPC   C3A 8021  32.276  22.331   8.075
  408POPC   C4A 8022  32.454  22.486   7.758
  408POPC   C1B 8023  31.808  22.348   8.822
  408POPC   C2B 8024  31.897  22.493   8.412
  408POPC   C3B 8025  31.835  22.644   8.012
  408POPC   C4B 8026  31.920  22.360   7.680
  409POPC   NC3 8027   9.837  29.497   9.968
  409POPC   PO4 8028  10.045  30.044   9.601
  409POPC   GL1 8029   9.856  30.144   9.207
  409POPC   GL2 8030  10.167  30.193   9.049
  409POPC   C1A 8031   9.580  29.961   8.903
  409POPC   D2A 8032   9.349  30.035   8.541
  409POPC   C3A 8033   9.554  30.098   8.161
  409POPC   C4A 8034   9.518  30.076   7.739
  409POPC   C1B 8035  10.040  29.996   8.674
  409POPC   C2B 8036   9.827  29.701   8.405
  409POPC   C3B 8037   9.845  29.707   7.954
  409POPC   C4B 8038  10.016  30.051   7.691
  410POPC   NC3 8039  32.957  23.085   9.873
  410POPC   PO4 8040  33.207  22.534   9.560
  410POPC   GL1 8041  33.041  22.852   9.240
  410POPC   GL2 8042  33.139  23.205   9.224
  410POPC   C1A 8043  32.820  22.996   8.823
  410POPC   D2A 8044  32.761  23.242   8.434
  410POPC   C3A 8045  32.792  23.003   8.111
  410POPC   C4A 8046  32.861  23.094   7.733
  410POPC   C1B 8047  33.335  23.086   8.825
  410POPC   C2B 8048  33.226  23.013   8.419
  410POPC   C3B 8049  33.363  23.021   8.007
  410POPC   C4B 8050  33.414  22.729   7.671
  411POPC   NC3 8051  25.729  40.919   9.603
  411POPC   PO4 8052  26.043  40.505   9.301
  411POPC   GL1 8053  26.029  40.941   9.115
  411POPC   GL2 8054  25.705  41.109   9.121
  411POPC   C1A 8055  26.117  40.975   8.668
  411POPC   D2A 8056  26.274  40.622   8.458
  411POPC   C3A 8057  26.152  40.620   8.055
  411POPC   C4A 8058  26.270  40.881   7.744
  411POPC   C1B 8059  25.605  41.164   8.699
  411POPC   C2B 8060  25.708  40.981   8.292
  411POPC   C3B 8061  25.762  40.900   7.853
  411POPC   C4B 8062  25.501  40.789   7.524
  412POPC   NC3 8063  26.915  36.426   9.571
  412POPC   PO4 8064  26.482  35.970   9.798
  412POPC   GL1 8065  26.688  35.990   9.350
  412POPC   GL2 8066  26.584  36.292   9.181
  412POPC   C1A 8067  26.884  35.974   8.897
  412POPC   D2A 8068  26.771  36.065   8.447
  412POPC   C3A 8069  26.934  36.128   8.006
  412POPC   C4A 8070  26.784  36.099   7.581
  412POPC   C1B 8071  26.580  36.447   8.746
  412POPC   C2B 8072  26.718  36.553   8.327
  412POPC   C3B 8073  26.615  36.549   7.887
  412POPC   C4B 8074  26.588  36.518   7.397
  413POPC   NC3 8075  21.127  12.640   9.447
  413POPC   PO4 8076  21.596  13.160   9.386
  413POPC   GL1 8077  21.491  12.879   9.065
  413POPC   GL2 8078  21.601  12.554   9.177
  413POPC   C1A 8079  21.667  12.862   8.650
  413POPC   D2A 8080  21.610  13.142   8.276
  413POPC   C3A 8081  21.350  12.965   8.006
  413POPC   C4A 8082  21.065  13.068   7.758
  413POPC   C1B 8083  21.379  12.426   8.811
  413POPC   C2B 8084  21.357  12.537   8.384
  413POPC   C3B 8085  21.725  12.635   8.131
  413POPC   C4B 8086  21.562  12.609   7.716
  414POPC   NC3 8087  11.940  40.282   9.524
  414POPC   PO4 8088  12.459  40.633   9.396
  414POPC   GL1 8089  12.194  40.612   9.108
  414POPC   GL2 8090  12.153  40.974   9.025
  414POPC   C1A 8091  12.309  40.577   8.697
  414POPC   D2A 8092  12.027  40.603   8.382
  414POPC   C3A 8093  12.107  40.786   7.975
  414POPC   C4A 8094  12.243  40.507   7.640
  414POPC   C1B 8095  11.867  41.170   8.732
  414POPC   C2B 8096  11.797  41.058   8.324
  414POPC   C3B 8097  11.598  41.067   7.962
  414POPC   C4B 8098  11.896  41.262   7.718
  415POPC   NC3 8099  14.202  11.609   9.583
  415POPC   PO4 8100  14.851  11.751   9.587
  415POPC   GL1 8101  14.616  11.448   9.277
  415POPC   GL2 8102  14.652  11.056   9.252
  415POPC   C1A 8103  14.339  11.347   8.908
  415POPC   D2A 8104  14.483  11.387   8.493
  415POPC   C3A 8105  14.277  11.456   8.127
  415POPC   C4A 8106  14.398  11.516   7.686
  415POPC   C1B 8107  14.831  11.178   8.847
  415POPC   C2B 8108  14.883  11.088   8.393
  415POPC   C3B 8109  14.717  11.232   7.983
  415POPC   C4B 8110  14.706  11.180   7.539
  416POPC   NC3 8111  43.473  42.198   9.400
  416POPC   PO4 8112  44.113  42.359   9.500
  416POPC   GL1 8113  43.970  42.301   9.107
  416POPC   GL2 8114  43.681  42.467   9.012
  416POPC   C1A 8115  44.119  42.528   8.739
  416POPC   D2A 8116  44.065  42.699   8.328
  416POPC   C3A 8117  44.118  42.407   8.001
  416POPC   C4A 8118  44.439  42.097   7.826
  416POPC   C1B 8119  43.614  42.454   8.569
  416POPC   C2B 8120  43.521  42.214   8.175
  416POPC   C3B 8121  43.668  42.311   7.756
  416POPC   C4B 8122  43.886  42.661   7.605
  417POPC   NC3 8123   1.740  21.454   9.554
  417POPC   PO4 8124   2.359  21.288   9.473
  417POPC   GL1 8125   2.106  21.470   9.161
  417POPC   GL2 8126   1.783  21.644   9.093
  417POPC   C1A 8127   2.090  21.315   8.747
  417POPC   D2A 8128   2.033  21.053   8.397
  417POPC   C3A 8129   2.227  21.158   8.023
  417POPC   C4A 8130   2.296  21.010   7.621
  417POPC   C1B 8131   1.649  21.525   8.690
  417POPC   C2B 8132   1.846  21.537   8.304
  417POPC   C3B 8133   1.763  21.455   7.905
  417POPC   C4B 8134   2.112  21.569   7.724
  418POPC   NC3 8135  20.283  15.802   9.568
  418POPC   PO4 8136  20.955  15.752   9.464
  418POPC   GL1 8137  20.713  15.826   9.118
  418POPC   GL2 8138  20.371  15.749   9.084
  418POPC   C1A 8139  20.680  15.668   8.700
  418POPC   D2A 8140  20.549  15.947   8.365
  418POPC   C3A 8141  20.596  15.742   7.980
  418POPC   C4A 8142  20.710  15.809   7.566
  418POPC   C1B 8143  20.292  16.097   8.828
  418POPC   C2B 8144  20.063  16.141   8.449
  418POPC   C3B 8145  20.103  15.925   8.084
  418POPC   C4B 8146  20.278  16.073   7.710
  419POPC   NC3 8147  12.173  28.105   9.934
  419POPC   PO4 8148  12.056  28.702   9.627
  419POPC   GL1 8149  12.037  28.515   9.216
  419POPC   GL2 8150  11.745  28.679   9.091
  419POPC   C1A 8151  11.968  28.257   8.809
  419POPC   D2A 8152  11.970  28.087   8.366
  419POPC   C3A 8153  12.018  28.313   7.983
  419POPC   C4A 8154  12.355  28.313   7.683
  419POPC   C1B 8155  12.125  28.751   8.785
  419POPC   C2B 8156  12.243  28.555   8.406
  419POPC   C3B 8157  12.288  28.741   8.001
  419POPC   C4B 8158  12.270  29.003   7.670
  420POPC   NC3 8159   1.791   8.159   9.488
  420POPC   PO4 8160   2.394   8.281   9.741
  420POPC   GL1 8161   2.236   8.377   9.230
  420POPC   GL2 8162   2.014   8.134   9.039
  420POPC   C1A 8163   2.104   8.500   8.732
  420POPC   D2A 8164   1.845   8.284   8.360
  420POPC   C3A 8165   2.036   8.476   7.956
  420POPC   C4A 8166   2.202   8.427   7.493
  420POPC   C1B 8167   1.888   7.881   8.700
  420POPC   C2B 8168   1.725   7.687   8.352
  420POPC   C3B 8169   1.875   7.846   7.986
  420POPC   C4B 8170   1.840   8.124   7.644
  421POPC   NC3 8171  26.201  23.470   9.793
  421POPC   PO4 8172  26.266  24.137   9.569
  421POPC   GL1 8173  26.201  24.027   9.105
  421POPC   GL2 8174  25.906  23.865   8.980
  421POPC   C1A 8175  26.312  23.939   8.694
  421POPC   D2A 8176  26.125  23.716   8.361
  421POPC   C3A 8177  26.371  23.783   8.016
  421POPC   C4A 8178  26.389  23.829   7.573
  421POPC   C1B 8179  26.057  23.437   8.780
  421POPC   C2B 8180  25.848  23.180   8.499
  421POPC   C3B 8181  25.842  23.353   8.114
  421POPC   C4B 8182  25.952  23.597   7.750
  422POPC   NC3 8183  13.714  44.807   9.590
  422POPC   PO4 8184  13.093  44.466   9.426
  422POPC   GL1 8185  13.329  44.695   9.149
  422POPC   GL2 8186  13.616  44.615   9.153
  422POPC   C1A 8187  13.372  44.843   8.759
  422POPC   D2A 8188  13.401  44.537   8.463
  422POPC   C3A 8189  13.454  44.690   8.084
  422POPC   C4A 8190  13.397  44.837   7.699
  422POPC   C1B 8191  13.798  44.543   8.783
  422POPC   C2B 8192  13.864  44.756   8.407
  422POPC   C3B 8193  13.958  44.794   7.990
  422POPC   C4B 8194  13.919   0.014   7.608
  423POPC   NC3 8195  12.751  40.274   9.456
  423POPC   PO4 8196  13.273  40.735   9.538
  423POPC   GL1 8197  12.977  40.626   9.165
  423POPC   GL2 8198  13.125  40.270   9.072
  423POPC   C1A 8199  12.726  40.870   8.820
  423POPC   D2A 8200  12.377  41.058   8.526
  423POPC   C3A 8201  12.543  41.091   8.084
  423POPC   C4A 8202  12.925  41.008   7.841
  423POPC   C1B 8203  12.895  40.391   8.685
  423POPC   C2B 8204  12.880  40.572   8.245
  423POPC   C3B 8205  12.906  40.400   7.815
  423POPC   C4B 8206  12.705  40.423   7.410
  424POPC   NC3 8207  28.916   7.067   9.266
  424POPC   PO4 8208  29.326   7.401   9.697
  424POPC   GL1 8209  29.220   7.517   9.215
  424POPC   GL2 8210  28.941   7.762   9.131
  424POPC   C1A 8211  29.247   7.348   8.746
  424POPC   D2A 8212  29.401   7.432   8.311
  424POPC   C3A 8213  29.356   7.190   7.907
  424POPC   C4A 8214  29.039   7.338   7.597
  424POPC   C1B 8215  28.791   7.567   8.769
  424POPC   C2B 8216  28.895   7.441   8.368
  424POPC   C3B 8217  29.043   7.645   7.988
  424POPC   C4B 8218  28.943   7.830   7.558
  425POPC   NC3 8219  32.517  24.180   9.500
  425POPC   PO4 8220  32.123  24.778   9.431
  425POPC   GL1 8221  32.261  24.502   9.151
  425POPC   GL2 8222  32.072  24.207   9.217
  425POPC   C1A 8223  32.320  24.625   8.734
  425POPC   D2A 8224  32.469  24.392   8.395
  425POPC   C3A 8225  32.278  24.648   8.091
  425POPC   C4A 8226  32.182  24.656   7.665
  425POPC   C1B 8227  32.126  24.167   8.785
  425POPC   C2B 8228  31.934  24.354   8.430
  425POPC   C3B 8229  32.006  24.233   8.013
  425POPC   C4B 8230  31.862  24.153   7.632
  426POPC   NC3 8231   5.439  36.595   9.494
  426POPC   PO4 8232   4.982  37.171   9.505
  426POPC   GL1 8233   5.071  36.869   9.200
  426POPC   GL2 8234   4.749  36.728   9.100
  426POPC   C1A 8235   5.120  36.836   8.747
  426POPC   D2A 8236   5.301  36.952   8.334
  426POPC   C3A 8237   5.274  36.585   8.036
  426POPC   C4A 8238   5.278  36.604   7.571
  426POPC   C1B 8239   4.740  37.134   8.889
  426POPC   C2B 8240   4.817  37.142   8.453
  426POPC   C3B 8241   4.844  36.852   8.134
  426POPC   C4B 8242   4.833  36.878   7.714
  427POPC   NC3 8243  42.939  34.376   9.380
  427POPC   PO4 8244  43.384  34.924   9.484
  427POPC   GL1 8245  43.408  34.634   9.183
  427POPC   GL2 8246  43.077  34.773   9.080
  427POPC   C1A 8247  43.423  34.519   8.756
  427POPC   D2A 8248  43.250  34.789   8.434
  427POPC   C3A 8249  43.048  34.548   8.112
  427POPC   C4A 8250  43.165  34.659   7.711
  427POPC   C1B 8251  42.916  34.519   8.740
  427POPC   C2B 8252  42.728  34.240   8.444
  427POPC   C3B 8253  42.607  34.319   8.025
  427POPC   C4B 8254  42.681  34.501   7.632
  428POPC   NC3 8255  16.082  41.620   9.460
  428POPC   PO4 8256  15.485  41.310   9.482
  428POPC   GL1 8257  15.793  41.329   9.090
  428POPC   GL2 8258  16.164  41.374   9.031
  428POPC   C1A 8259  15.865  41.630   8.702
  428POPC   D2A 8260  15.995  41.553   8.257
  428POPC   C3A 8261  15.712  41.610   7.866
  428POPC   C4A 8262  15.643  41.283   7.568
  428POPC   C1B 8263  16.345  41.333   8.642
  428POPC   C2B 8264  16.548  41.490   8.283
  428POPC   C3B 8265  16.371  41.472   7.906
  428POPC   C4B 8266  16.039  41.204   7.862
  429POPC   NC3 8267  29.756  21.641   9.423
  429POPC   PO4 8268  29.774  22.371   9.476
  429POPC   GL1 8269  29.715  22.091   9.135
  429POPC   GL2 8270  30.053  21.953   9.133
  429POPC   C1A 8271  29.762  21.930   8.706
  429POPC   D2A 8272  29.696  22.156   8.330
  429POPC   C3A 8273  29.862  22.100   7.917
  429POPC   C4A 8274  29.594  22.336   7.650
  429POPC   C1B 8275  30.255  22.090   8.766
  429POPC   C2B 8276  30.203  22.121   8.340
  429POPC   C3B 8277  30.367  21.971   7.975
  429POPC   C4B 8278  30.249  22.106   7.555
  430POPC   NC3 8279  27.419  42.627   9.349
  430POPC   PO4 8280  27.625  42.004   9.394
  430POPC   GL1 8281  27.629  42.267   8.994
  430POPC   GL2 8282  27.426  42.538   8.856
  430POPC   C1A 8283  27.730  42.251   8.525
  430POPC   D2A 8284  27.861  41.948   8.196
  430POPC   C3A 8285  27.787  42.095   7.772
  430POPC   C4A 8286  27.442  42.365   7.660
  430POPC   C1B 8287  27.889  42.692   8.787
  430POPC   C2B 8288  28.120  42.737   8.366
  430POPC   C3B 8289  27.992  42.569   7.930
  430POPC   C4B 8290  27.928  42.490   7.458
  431POPC   NC3 8291  35.157  23.615   9.472
  431POPC   PO4 8292  35.611  23.346   9.168
  431POPC   GL1 8293  35.531  23.805   9.080
  431POPC   GL2 8294  35.176  23.934   9.096
  431POPC   C1A 8295  35.546  23.815   8.631
  431POPC   D2A 8296  35.445  23.403   8.410
  431POPC   C3A 8297  35.581  23.391   7.980
  431POPC   C4A 8298  35.590  23.592   7.595
  431POPC   C1B 8299  34.859  23.824   8.801
  431POPC   C2B 8300  34.852  23.518   8.474
  431POPC   C3B 8301  35.063  23.439   8.077
  431POPC   C4B 8302  35.091  23.693   7.720
  432POPC   NC3 8303  41.160   8.209   9.400
  432POPC   PO4 8304  41.623   8.568   9.655
  432POPC   GL1 8305  41.696   8.437   9.217
  432POPC   GL2 8306  41.700   8.094   9.119
  432POPC   C1A 8307  41.805   8.486   8.758
  432POPC   D2A 8308  41.963   8.489   8.326
  432POPC   C3A 8309  41.744   8.277   7.986
  432POPC   C4A 8310  41.574   8.327   7.578
  432POPC   C1B 8311  41.466   8.112   8.692
  432POPC   C2B 8312  41.368   7.995   8.228
  432POPC   C3B 8313  41.341   7.915   7.762
  432POPC   C4B 8314  41.281   7.826   7.305
  433POPC   NC3 8315  15.998   6.117   9.712
  433POPC   PO4 8316  16.103   5.547   9.509
  433POPC   GL1 8317  16.107   5.624   9.066
  433POPC   GL2 8318  16.012   5.949   9.195
  433POPC   C1A 8319  16.023   5.444   8.619
  433POPC   D2A 8320  15.826   5.459   8.184
  433POPC   C3A 8321  16.015   5.676   7.813
  433POPC   C4A 8322  16.286   5.718   7.435
  433POPC   C1B 8323  15.968   6.075   8.776
  433POPC   C2B 8324  15.993   5.974   8.342
  433POPC   C3B 8325  15.895   6.155   7.969
  433POPC   C4B 8326  15.997   6.148   7.510
  434POPC   NC3 8327  28.402   0.148   9.318
  434POPC   PO4 8328  27.925   0.603   9.705
  434POPC   GL1 8329  28.082   0.687   9.217
  434POPC   GL2 8330  28.229   0.434   8.965
  434POPC   C1A 8331  28.055   0.850   8.756
  434POPC   D2A 8332  28.286   0.551   8.474
  434POPC   C3A 8333  28.572   0.587   8.133
  434POPC   C4A 8334  28.357   0.461   7.764
  434POPC   C1B 8335  28.574   0.179   8.728
  434POPC   C2B 8336  28.804   0.148   8.359
  434POPC   C3B 8337  28.527   0.057   8.032
  434POPC   C4B 8338  28.489  44.981   7.604
  435POPC   NC3 8339  10.263  21.141   9.431
  435POPC   PO4 8340  10.512  21.758   9.258
  435POPC   GL1 8341  10.516  21.364   9.019
  435POPC   GL2 8342  10.203  21.199   8.943
  435POPC   C1A 8343  10.827  21.125   8.766
  435POPC   D2A 8344  11.113  21.140   8.419
  435POPC   C3A 8345  10.866  21.240   8.049
  435POPC   C4A 8346  10.626  21.101   7.670
  435POPC   C1B 8347  10.363  21.210   8.537
  435POPC   C2B 8348  10.352  21.219   8.095
  435POPC   C3B 8349  10.156  20.994   7.771
  435POPC   C4B 8350  10.263  20.880   7.323
  436POPC   NC3 8351   5.202  11.721   9.401
  436POPC   PO4 8352   4.843  11.160   9.549
  436POPC   GL1 8353   5.080  11.268   9.164
  436POPC   GL2 8354   5.376  11.027   9.186
  436POPC   C1A 8355   5.123  11.534   8.753
  436POPC   D2A 8356   5.375  11.571   8.334
  436POPC   C3A 8357   5.062  11.696   8.016
  436POPC   C4A 8358   4.921  11.383   7.750
  436POPC   C1B 8359   5.194  10.957   8.776
  436POPC   C2B 8360   5.226  11.022   8.364
  436POPC   C3B 8361   5.310  11.183   7.992
  436POPC   C4B 8362   5.233  11.049   7.557
  437POPC   NC3 8363  18.069  40.238   9.470
  437POPC   PO4 8364  18.425  39.660   9.560
  437POPC   GL1 8365  18.406  39.905   9.188
  437POPC   GL2 8366  18.078  39.979   9.041
  437POPC   C1A 8367  18.404  39.685   8.809
  437POPC   D2A 8368  18.712  39.572   8.550
  437POPC   C3A 8369  18.564  39.539   8.161
  437POPC   C4A 8370  18.436  39.726   7.810
  437POPC   C1B 8371  18.304  40.169   8.693
  437POPC   C2B 8372  18.274  39.996   8.282
  437POPC   C3B 8373  18.107  40.125   7.885
  437POPC   C4B 8374  18.201  40.457   7.618
  438POPC   NC3 8375  34.670  26.519   9.469
  438POPC   PO4 8376  34.531  27.149   9.702
  438POPC   GL1 8377  34.479  27.057   9.196
  438POPC   GL2 8378  34.684  26.818   9.042
  438POPC   C1A 8379  34.372  26.966   8.703
  438POPC   D2A 8380  34.595  26.825   8.333
  438POPC   C3A 8381  34.534  27.002   7.911
  438POPC   C4A 8382  34.305  26.906   7.529
  438POPC   C1B 8383  34.880  27.090   8.683
  438POPC   C2B 8384  35.058  27.054   8.268
  438POPC   C3B 8385  34.952  26.686   7.994
  438POPC   C4B 8386  34.899  26.799   7.565
  439POPC   NC3 8387  25.526  33.710   9.417
  439POPC   PO4 8388  24.955  33.490   9.424
  439POPC   GL1 8389  25.127  33.707   9.077
  439POPC   GL2 8390  25.233  33.399   8.898
  439POPC   C1A 8391  25.190  34.039   8.738
  439POPC   D2A 8392  25.335  34.071   8.288
  439POPC   C3A 8393  25.055  33.895   7.925
  439POPC   C4A 8394  25.040  33.444   7.880
  439POPC   C1B 8395  25.557  33.656   8.696
  439POPC   C2B 8396  25.774  33.761   8.308
  439POPC   C3B 8397  25.543  33.753   7.907
  439POPC   C4B 8398  25.430  33.510   7.538
  440POPC   NC3 8399   9.291  25.796   9.550
  440POPC   PO4 8400   8.651  25.969   9.469
  440POPC   GL1 8401   8.952  25.935   9.148
  440POPC   GL2 8402   9.274  26.092   9.132
  440POPC   C1A 8403   8.904  25.939   8.723
  440POPC   D2A 8404   8.759  26.138   8.349
  440POPC   C3A 8405   8.846  25.918   8.004
  440POPC   C4A 8406   8.622  25.872   7.662
  440POPC   C1B 8407   9.420  25.803   8.842
  440POPC   C2B 8408   9.281  25.630   8.463
  440POPC   C3B 8409   9.359  25.767   8.050
  440POPC   C4B 8410   9.254  25.931   7.666
  441POPC   NC3 8411   2.315  20.035   9.448
  441POPC   PO4 8412   1.708  19.616   9.451
  441POPC   GL1 8413   1.775  19.915   9.148
  441POPC   GL2 8414   1.741  19.664   8.877
  441POPC   C1A 8415   2.054  20.061   8.811
  441POPC   D2A 8416   2.264  19.852   8.481
  441POPC   C3A 8417   2.041  19.850   8.091
  441POPC   C4A 8418   2.121  19.624   7.732
  441POPC   C1B 8419   1.496  20.055   8.744
  441POPC   C2B 8420   1.439  20.253   8.315
  441POPC   C3B 8421   1.452  20.081   7.899
  441POPC   C4B 8422   1.810  19.993   7.610
  442POPC   NC3 8423  29.415  27.944   9.466
  442POPC   PO4 8424  29.023  28.549   9.418
  442POPC   GL1 8425  28.988  28.454   9.071
  442POPC   GL2 8426  29.055  28.109   9.108
  442POPC   C1A 8427  29.203  28.630   8.745
  442POPC   D2A 8428  28.973  28.669   8.416
  442POPC   C3A 8429  29.171  28.570   8.089
  442POPC   C4A 8430  29.525  28.562   7.893
  442POPC   C1B 8431  28.945  28.183   8.658
  442POPC   C2B 8432  28.715  28.091   8.326
  442POPC   C3B 8433  28.850  28.202   7.943
  442POPC   C4B 8434  29.144  28.319   7.642
  443POPC   NC3 8435  26.579  37.967   9.499
  443POPC   PO4 8436  26.809  38.621   9.561
  443POPC   GL1 8437  26.938  38.603   9.148
  443POPC   GL2 8438  26.888  38.222   9.106
  443POPC   C1A 8439  27.029  38.566   8.720
  443POPC   D2A 8440  26.769  38.452   8.392
  443POPC   C3A 8441  26.854  38.375   7.975
  443POPC   C4A 8442  26.607  38.608   7.684
  443POPC   C1B 8443  26.745  38.042   8.709
  443POPC   C2B 8444  26.931  37.947   8.300
  443POPC   C3B 8445  26.838  37.890   7.856
  443POPC   C4B 8446  26.816  38.205   7.479
  444POPC   NC3 8447  18.179  22.540   9.617
  444POPC   PO4 8448  18.460  21.956   9.531
  444POPC   GL1 8449  18.320  22.122   9.158
  444POPC   GL2 8450  18.637  22.298   9.146
  444POPC   C1A 8451  18.367  22.289   8.719
  444POPC   D2A 8452  18.175  22.285   8.332
  444POPC   C3A 8453  18.379  22.223   8.001
  444POPC   C4A 8454  18.393  22.394   7.576
  444POPC   C1B 8455  18.687  21.925   8.829
  444POPC   C2B 8456  18.469  21.861   8.443
  444POPC   C3B 8457  18.546  21.732   8.093
  444POPC   C4B 8458  18.523  21.845   7.700
  445POPC   NC3 8459   2.785  24.734   9.730
  445POPC   PO4 8460   2.605  25.477   9.542
  445POPC   GL1 8461   2.579  25.329   9.077
  445POPC   GL2 8462   2.906  25.386   8.922
  445POPC   C1A 8463   2.518  25.372   8.606
  445POPC   D2A 8464   2.827  25.407   8.304
  445POPC   C3A 8465   2.692  25.331   7.903
  445POPC   C4A 8466   2.937  25.430   7.558
  445POPC   C1B 8467   2.910  25.021   8.649
  445POPC   C2B 8468   2.672  24.810   8.344
  445POPC   C3B 8469   2.503  24.840   7.946
  445POPC   C4B 8470   2.682  24.931   7.565
  446POPC   NC3 8471  43.671  21.484   9.391
  446POPC   PO4 8472  44.246  20.971   9.508
  446POPC   GL1 8473  43.980  21.249   9.094
  446POPC   GL2 8474  44.178  21.287   8.878
  446POPC   C1A 8475  43.768  21.600   8.748
  446POPC   D2A 8476  43.441  21.533   8.445
  446POPC   C3A 8477  43.537  21.450   8.034
  446POPC   C4A 8478  43.810  21.558   7.726
  446POPC   C1B 8479  43.809  21.119   8.649
  446POPC   C2B 8480  43.911  21.203   8.243
  446POPC   C3B 8481  43.813  21.056   7.840
  446POPC   C4B 8482  43.792  21.020   7.362
  447POPC   NC3 8483  28.795  42.325   9.556
  447POPC   PO4 8484  29.471  42.558   9.533
  447POPC   GL1 8485  29.198  42.410   9.203
  447POPC   GL2 8486  28.896  42.576   9.122
  447POPC   C1A 8487  29.198  42.196   8.815
  447POPC   D2A 8488  29.438  42.185   8.457
  447POPC   C3A 8489  29.166  42.314   8.152
  447POPC   C4A 8490  29.105  42.063   7.838
  447POPC   C1B 8491  28.923  42.774   8.756
  447POPC   C2B 8492  29.123  42.773   8.377
  447POPC   C3B 8493  28.978  42.865   7.973
  447POPC   C4B 8494  29.168  42.806   7.558
  448POPC   NC3 8495  10.726   9.743   9.414
  448POPC   PO4 8496  11.334   9.534   9.491
  448POPC   GL1 8497  11.361   9.766   9.107
  448POPC   GL2 8498  11.029   9.787   9.006
  448POPC   C1A 8499  11.466   9.524   8.737
  448POPC   D2A 8500  11.583   9.297   8.350
  448POPC   C3A 8501  11.430   9.465   7.966
  448POPC   C4A 8502  11.385   9.846   7.783
  448POPC   C1B 8503  11.185   9.946   8.622
  448POPC   C2B 8504  11.077   9.757   8.233
  448POPC   C3B 8505  10.889   9.831   7.834
  448POPC   C4B 8506  11.004   9.934   7.408
  449POPC   NC3 8507  12.291  25.004   9.476
  449POPC   PO4 8508  11.726  25.374   9.717
  449POPC   GL1 8509  11.765  25.188   9.261
  449POPC   GL2 8510  11.935  25.463   9.146
  449POPC   C1A 8511  12.065  25.059   8.845
  449POPC   D2A 8512  12.371  25.135   8.448
  449POPC   C3A 8513  12.177  25.077   8.003
  449POPC   C4A 8514  11.761  25.088   7.739
  449POPC   C1B 8515  11.758  25.450   8.736
  449POPC   C2B 8516  11.991  25.445   8.350
  449POPC   C3B 8517  11.925  25.541   7.928
  449POPC   C4B 8518  12.175  25.381   7.582
  450POPC   NC3 8519  28.338   7.163   9.564
  450POPC   PO4 8520  27.762   7.433   9.440
  450POPC   GL1 8521  27.860   7.321   9.059
  450POPC   GL2 8522  27.844   7.679   8.969
  450POPC   C1A 8523  27.581   7.151   8.698
  450POPC   D2A 8524  27.268   7.127   8.363
  450POPC   C3A 8525  27.515   7.287   8.025
  450POPC   C4A 8526  27.446   7.517   7.648
  450POPC   C1B 8527  27.965   7.481   8.608
  450POPC   C2B 8528  27.883   7.733   8.347
  450POPC   C3B 8529  27.737   7.751   7.997
  450POPC   C4B 8530  27.840   7.821   7.634
  451POPC   NC3 8531  26.396   0.436   9.741
  451POPC   PO4 8532  27.005   0.646   9.446
  451POPC   GL1 8533  26.881   0.395   9.092
  451POPC   GL2 8534  26.566   0.319   9.127
  451POPC   C1A 8535  26.777   0.536   8.668
  451POPC   D2A 8536  26.597   0.670   8.291
  451POPC   C3A 8537  26.760   0.494   7.922
  451POPC   C4A 8538  26.755   0.458   7.444
  451POPC   C1B 8539  26.518   0.105   8.744
  451POPC   C2B 8540  26.614   0.155   8.316
  451POPC   C3B 8541  26.383   0.159   7.923
  451POPC   C4B 8542  26.560   0.015   7.544
  452POPC   NC3 8543  31.056  27.581   9.525
  452POPC   PO4 8544  31.689  27.655   9.677
  452POPC   GL1 8545  31.521  27.527   9.258
  452POPC   GL2 8546  31.196  27.396   9.085
  452POPC   C1A 8547  31.554  27.683   8.834
  452POPC   D2A 8548  31.572  27.849   8.428
  452POPC   C3A 8549  31.640  27.593   8.065
  452POPC   C4A 8550  31.641  27.653   7.625
  452POPC   C1B 8551  31.037  27.670   8.734
  452POPC   C2B 8552  31.076  27.756   8.311
  452POPC   C3B 8553  31.083  27.581   7.921
  452POPC   C4B 8554  31.142  27.607   7.482
  453POPC   NC3 8555   4.088  44.071   9.398
  453POPC   PO4 8556   4.413  43.486   9.495
  453POPC   GL1 8557   4.438  43.751   9.165
  453POPC   GL2 8558   4.613  44.070   9.298
  453POPC   C1A 8559   4.141  43.780   8.792
  453POPC   D2A 8560   3.963  43.972   8.404
  453POPC   C3A 8561   4.255  43.889   8.045
  453POPC   C4A 8562   4.538  43.558   7.864
  453POPC   C1B 8563   4.614  44.092   8.858
  453POPC   C2B 8564   4.565  43.847   8.485
  453POPC   C3B 8565   4.797  43.912   8.118
  453POPC   C4B 8566   4.630  44.068   7.724
  454POPC   NC3 8567  32.776   6.511   9.312
  454POPC   PO4 8568  33.222   6.740   9.769
  454POPC   GL1 8569  33.150   6.817   9.191
  454POPC   GL2 8570  32.989   6.505   8.887
  454POPC   C1A 8571  33.303   6.813   8.731
  454POPC   D2A 8572  32.987   6.758   8.400
  454POPC   C3A 8573  32.936   6.472   8.060
  454POPC   C4A 8574  33.199   6.598   7.740
  454POPC   C1B 8575  32.581   6.668   8.704
  454POPC   C2B 8576  32.454   6.571   8.312
  454POPC   C3B 8577  32.617   6.872   8.056
  454POPC   C4B 8578  32.756   6.867   7.680
  455POPC   NC3 8579  30.920  17.628   9.630
  455POPC   PO4 8580  30.508  17.215   9.514
  455POPC   GL1 8581  30.563  17.493   9.199
  455POPC   GL2 8582  30.815  17.731   9.154
  455POPC   C1A 8583  30.699  17.369   8.785
  455POPC   D2A 8584  30.564  17.555   8.416
  455POPC   C3A 8585  30.663  17.333   8.085
  455POPC   C4A 8586  30.611  17.499   7.724
  455POPC   C1B 8587  30.805  17.879   8.755
  455POPC   C2B 8588  31.014  17.754   8.414
  455POPC   C3B 8589  30.943  17.777   8.012
  455POPC   C4B 8590  30.904  17.897   7.592
  456POPC   NC3 8591  40.476  19.113   9.555
  456POPC   PO4 8592  41.165  19.101   9.377
  456POPC   GL1 8593  40.830  19.121   9.169
  456POPC   GL2 8594  40.650  18.802   9.191
  456POPC   C1A 8595  40.779  19.348   8.807
  456POPC   D2A 8596  40.870  19.270   8.404
  456POPC   C3A 8597  40.656  19.284   8.044
  456POPC   C4A 8598  40.713  19.093   7.672
  456POPC   C1B 8599  40.662  18.852   8.753
  456POPC   C2B 8600  40.450  18.955   8.382
  456POPC   C3B 8601  40.422  18.815   7.976
  456POPC   C4B 8602  40.440  18.685   7.554
  457POPC   NC3 8603  21.993  39.481   9.709
  457POPC   PO4 8604  21.774  39.009   9.325
  457POPC   GL1 8605  22.172  39.206   9.167
  457POPC   GL2 8606  22.239  39.589   9.228
  457POPC   C1A 8607  22.213  39.016   8.741
  457POPC   D2A 8608  22.113  38.885   8.332
  457POPC   C3A 8609  22.343  39.047   7.990
  457POPC   C4A 8610  22.218  39.274   7.632
  457POPC   C1B 8611  22.452  39.465   8.828
  457POPC   C2B 8612  22.366  39.385   8.393
  457POPC   C3B 8613  22.405  39.583   7.987
  457POPC   C4B 8614  22.573  39.610   7.552
  458POPC   NC3 8615   6.471  18.198   9.622
  458POPC   PO4 8616   7.004  18.352   9.255
  458POPC   GL1 8617   6.618  18.259   9.082
  458POPC   GL2 8618   6.413  17.969   9.164
  458POPC   C1A 8619   6.434  18.294   8.654
  458POPC   D2A 8620   6.451  18.599   8.332
  458POPC   C3A 8621   6.575  18.493   7.901
  458POPC   C4A 8622   6.901  18.198   7.791
  458POPC   C1B 8623   6.618  17.841   8.775
  458POPC   C2B 8624   6.869  18.006   8.460
  458POPC   C3B 8625   6.572  18.054   8.141
  458POPC   C4B 8626   6.474  17.928   7.705
  459POPC   NC3 8627  19.486  33.671   9.534
  459POPC   PO4 8628  20.050  34.015   9.442
  459POPC   GL1 8629  20.002  33.804   9.082
  459POPC   GL2 8630  19.658  33.823   9.085
  459POPC   C1A 8631  19.964  33.750   8.648
  459POPC   D2A 8632  20.034  34.042   8.340
  459POPC   C3A 8633  20.206  33.917   7.948
  459POPC   C4A 8634  20.066  33.907   7.504
  459POPC   C1B 8635  19.492  33.612   8.751
  459POPC   C2B 8636  19.643  33.447   8.399
  459POPC   C3B 8637  19.672  33.738   8.093
  459POPC   C4B 8638  19.603  33.822   7.671
  460POPC   NC3 8639  32.475   2.986   9.815
  460POPC   PO4 8640  32.184   2.451   9.571
  460POPC   GL1 8641  32.210   2.610   9.147
  460POPC   GL2 8642  32.591   2.602   9.162
  460POPC   C1A 8643  32.053   2.842   8.792
  460POPC   D2A 8644  31.968   3.168   8.464
  460POPC   C3A 8645  31.979   2.940   8.040
  460POPC   C4A 8646  32.078   3.063   7.625
  460POPC   C1B 8647  32.571   2.835   8.772
  460POPC   C2B 8648  32.356   2.851   8.375
  460POPC   C3B 8649  32.463   2.840   7.935
  460POPC   C4B 8650  32.804   2.876   7.682
  461POPC   NC3 8651  35.369   8.075   9.492
  461POPC   PO4 8652  35.014   8.691   9.738
  461POPC   GL1 8653  35.174   8.462   9.263
  461POPC   GL2 8654  35.543   8.279   9.061
  461POPC   C1A 8655  35.096   8.174   8.890
  461POPC   D2A 8656  35.256   8.227   8.479
  461POPC   C3A 8657  35.158   8.263   8.068
  461POPC   C4A 8658  35.369   8.509   7.740
  461POPC   C1B 8659  35.520   7.895   8.773
  461POPC   C2B 8660  35.435   7.751   8.381
  461POPC   C3B 8661  35.465   7.867   7.971
  461POPC   C4B 8662  35.288   8.020   7.631
  462POPC   NC3 8663   6.683  33.488   9.574
  462POPC   PO4 8664   6.845  32.851   9.609
  462POPC   GL1 8665   6.698  33.023   9.208
  462POPC   GL2 8666   6.354  32.984   9.034
  462POPC   C1A 8667   6.776  32.996   8.753
  462POPC   D2A 8668   6.474  32.782   8.514
  462POPC   C3A 8669   6.471  32.811   8.065
  462POPC   C4A 8670   6.718  32.817   7.694
  462POPC   C1B 8671   6.275  33.233   8.672
  462POPC   C2B 8672   6.515  33.283   8.339
  462POPC   C3B 8673   6.883  33.157   8.132
  462POPC   C4B 8674   6.776  33.312   7.769
  463POPC   NC3 8675  16.098   6.793   9.373
  463POPC   PO4 8676  15.626   6.383   9.566
  463POPC   GL1 8677  15.847   6.424   9.141
  463POPC   GL2 8678  16.222   6.422   9.036
  463POPC   C1A 8679  15.863   6.613   8.729
  463POPC   D2A 8680  15.942   6.532   8.314
  463POPC   C3A 8681  15.679   6.685   8.028
  463POPC   C4A 8682  15.498   6.837   7.689
  463POPC   C1B 8683  16.421   6.774   8.772
  463POPC   C2B 8684  16.195   7.031   8.469
  463POPC   C3B 8685  16.107   6.961   8.056
  463POPC   C4B 8686  16.110   6.560   7.786
  464POPC   NC3 8687  21.146  11.646   9.552
  464POPC   PO4 8688  21.546  12.171   9.521
  464POPC   GL1 8689  21.591  12.020   9.118
  464POPC   GL2 8690  21.249  12.009   9.100
  464POPC   C1A 8691  21.562  11.822   8.713
  464POPC   D2A 8692  21.275  11.933   8.385
  464POPC   C3A 8693  21.530  12.152   8.069
  464POPC   C4A 8694  21.742  12.153   7.645
  464POPC   C1B 8695  20.964  12.137   8.780
  464POPC   C2B 8696  20.877  12.308   8.393
  464POPC   C3B 8697  20.989  12.169   8.014
  464POPC   C4B 8698  21.225  12.174   7.668
  465POPC   NC3 8699  26.115  36.172  10.007
  465POPC   PO4 8700  25.982  36.683   9.547
  465POPC   GL1 8701  26.061  36.273   9.289
  465POPC   GL2 8702  25.769  36.109   9.123
  465POPC   C1A 8703  26.215  36.095   8.871
  465POPC   D2A 8704  26.136  36.053   8.418
  465POPC   C3A 8705  26.418  36.093   8.060
  465POPC   C4A 8706  26.250  36.264   7.668
  465POPC   C1B 8707  25.792  35.764   8.782
  465POPC   C2B 8708  25.711  35.790   8.337
  465POPC   C3B 8709  25.962  35.896   7.916
  465POPC   C4B 8710  25.986  35.898   7.437
  466POPC   NC3 8711  25.909  16.330   9.396
  466POPC   PO4 8712  26.177  15.720   9.530
  466POPC   GL1 8713  25.970  15.864   9.155
  466POPC   GL2 8714  25.863  15.524   9.080
  466POPC   C1A 8715  25.922  16.073   8.723
  466POPC   D2A 8716  25.704  16.147   8.305
  466POPC   C3A 8717  25.955  16.108   7.950
  466POPC   C4A 8718  26.367  16.241   7.916
  466POPC   C1B 8719  26.201  15.637   8.759
  466POPC   C2B 8720  26.284  15.887   8.328
  466POPC   C3B 8721  26.353  15.723   7.868
  466POPC   C4B 8722  26.531  15.705   7.422
  467POPC   NC3 8723  36.309   7.421   9.554
  467POPC   PO4 8724  35.693   7.775   9.361
  467POPC   GL1 8725  36.069   7.640   9.161
  467POPC   GL2 8726  36.005   7.316   9.175
  467POPC   C1A 8727  36.267   7.664   8.774
  467POPC   D2A 8728  35.920   7.642   8.520
  467POPC   C3A 8729  35.836   7.545   8.110
  467POPC   C4A 8730  35.900   7.771   7.729
  467POPC   C1B 8731  36.071   7.179   8.778
  467POPC   C2B 8732  35.981   7.125   8.368
  467POPC   C3B 8733  35.782   7.016   7.990
  467POPC   C4B 8734  35.946   7.285   7.691
  468POPC   NC3 8735  32.942   6.364   9.771
  468POPC   PO4 8736  33.133   5.760   9.590
  468POPC   GL1 8737  33.087   5.690   9.169
  468POPC   GL2 8738  32.999   6.029   9.112
  468POPC   C1A 8739  32.963   5.695   8.726
  468POPC   D2A 8740  32.863   6.045   8.447
  468POPC   C3A 8741  32.852   5.935   8.009
  468POPC   C4A 8742  33.051   5.773   7.637
  468POPC   C1B 8743  33.293   6.118   8.781
  468POPC   C2B 8744  33.322   6.296   8.364
  468POPC   C3B 8745  33.322   6.145   7.917
  468POPC   C4B 8746  33.540   5.894   7.608
  469POPC   NC3 8747  27.181   3.365   9.790
  469POPC   PO4 8748  27.553   3.810   9.431
  469POPC   GL1 8749  27.662   3.583   9.055
  469POPC   GL2 8750  27.471   3.269   8.945
  469POPC   C1A 8751  27.625   3.668   8.631
  469POPC   D2A 8752  27.682   3.652   8.208
  469POPC   C3A 8753  27.495   4.020   8.057
  469POPC   C4A 8754  27.198   4.026   7.775
  469POPC   C1B 8755  27.267   2.939   8.683
  469POPC   C2B 8756  27.331   2.877   8.240
  469POPC   C3B 8757  27.508   3.184   7.966
  469POPC   C4B 8758  27.463   3.596   7.767
  470POPC   NC3 8759  19.909   7.061   9.308
  470POPC   PO4 8760  19.540   6.464   9.428
  470POPC   GL1 8761  19.706   6.635   9.089
  470POPC   GL2 8762  20.043   6.544   9.208
  470POPC   C1A 8763  19.605   6.487   8.694
  470POPC   D2A 8764  19.569   6.202   8.369
  470POPC   C3A 8765  19.543   6.402   7.996
  470POPC   C4A 8766  19.690   6.638   7.643
  470POPC   C1B 8767  20.138   6.731   8.806
  470POPC   C2B 8768  19.898   6.850   8.477
  470POPC   C3B 8769  19.955   6.657   8.106
  470POPC   C4B 8770  20.149   6.818   7.745
  471POPC   NC3 8771   8.655  28.107   9.400
  471POPC   PO4 8772   8.029  28.096   9.689
  471POPC   GL1 8773   8.135  28.205   9.286
  471POPC   GL2 8774   7.811  28.226   9.169
  471POPC   C1A 8775   8.237  28.517   8.940
  471POPC   D2A 8776   8.437  28.580   8.511
  471POPC   C3A 8777   8.313  28.295   8.165
  471POPC   C4A 8778   8.428  28.209   7.760
  471POPC   C1B 8779   8.028  28.075   8.807
  471POPC   C2B 8780   7.997  27.942   8.411
  471POPC   C3B 8781   7.853  28.023   8.047
  471POPC   C4B 8782   7.991  27.962   7.658
  472POPC   NC3 8783   6.075  41.943   9.572
  472POPC   PO4 8784   5.736  41.449   9.660
  472POPC   GL1 8785   5.736  41.693   9.252
  472POPC   GL2 8786   5.489  41.916   9.153
  472POPC   C1A 8787   5.917  41.712   8.834
  472POPC   D2A 8788   5.968  41.449   8.448
  472POPC   C3A 8789   5.938  41.505   7.986
  472POPC   C4A 8790   6.171  41.441   7.602
  472POPC   C1B 8791   5.571  42.083   8.780
  472POPC   C2B 8792   5.624  41.836   8.428
  472POPC   C3B 8793   5.495  41.761   8.042
  472POPC   C4B 8794   5.682  41.821   7.651
  473POPC   NC3 8795  13.508  44.219   9.512
  473POPC   PO4 8796  13.893  43.640   9.395
  473POPC   GL1 8797  13.747  43.920   9.128
  473POPC   GL2 8798  13.863  44.184   9.140
  473POPC   C1A 8799  13.752  43.892   8.694
  473POPC   D2A 8800  13.565  43.609   8.394
  473POPC   C3A 8801  13.590  43.678   7.967
  473POPC   C4A 8802  13.220  43.817   7.796
  473POPC   C1B 8803  13.407  44.220   8.883
  473POPC   C2B 8804  13.290  44.035   8.496
  473POPC   C3B 8805  13.474  44.158   8.106
  473POPC   C4B 8806  13.272  44.329   7.763
  474POPC   NC3 8807   4.627  32.256   9.620
  474POPC   PO4 8808   4.206  32.743   9.486
  474POPC   GL1 8809   4.364  32.425   9.207
  474POPC   GL2 8810   4.122  32.181   9.099
  474POPC   C1A 8811   4.448  32.420   8.754
  474POPC   D2A 8812   4.508  32.229   8.318
  474POPC   C3A 8813   4.442  32.435   7.884
  474POPC   C4A 8814   4.606  32.405   7.442
  474POPC   C1B 8815   4.067  31.907   8.771
  474POPC   C2B 8816   4.065  31.990   8.336
  474POPC   C3B 8817   4.104  32.018   7.891
  474POPC   C4B 8818   4.096  31.668   7.593
  475POPC   NC3 8819  23.928   8.940   9.492
  475POPC   PO4 8820  23.401   9.285   9.330
  475POPC   GL1 8821  23.634   9.068   9.027
  475POPC   GL2 8822  23.846   8.770   9.005
  475POPC   C1A 8823  23.654   9.051   8.592
  475POPC   D2A 8824  23.682   9.260   8.219
  475POPC   C3A 8825  23.636   8.967   7.934
  475POPC   C4A 8826  23.653   8.723   7.583
  475POPC   C1B 8827  24.108   9.100   8.824
  475POPC   C2B 8828  24.273   9.197   8.447
  475POPC   C3B 8829  24.157   8.999   8.095
  475POPC   C4B 8830  24.041   9.075   7.682
  476POPC   NC3 8831   0.203   2.213   9.784
  476POPC   PO4 8832   0.778   1.969   9.506
  476POPC   GL1 8833   0.640   2.076   9.107
  476POPC   GL2 8834   0.787   1.729   9.036
  476POPC   C1A 8835   0.261   2.184   8.816
  476POPC   D2A 8836   0.140   2.022   8.397
  476POPC   C3A 8837   0.250   2.176   7.955
  476POPC   C4A 8838   0.230   2.037   7.487
  476POPC   C1B 8839   0.538   1.784   8.664
  476POPC   C2B 8840   0.435   1.613   8.249
  476POPC   C3B 8841   0.502   1.738   7.813
  476POPC   C4B 8842   0.589   1.720   7.340
  477POPC   NC3 8843  15.437  25.866   9.554
  477POPC   PO4 8844  14.792  26.044   9.535
  477POPC   GL1 8845  15.012  25.991   9.171
  477POPC   GL2 8846  15.325  26.219   9.139
  477POPC   C1A 8847  14.980  25.752   8.797
  477POPC   D2A 8848  15.261  25.823   8.463
  477POPC   C3A 8849  15.127  25.983   8.122
  477POPC   C4A 8850  15.075  25.738   7.777
  477POPC   C1B 8851  15.103  26.269   8.740
  477POPC   C2B 8852  14.883  26.398   8.357
  477POPC   C3B 8853  15.097  26.509   7.983
  477POPC   C4B 8854  15.334  26.222   7.722
  478POPC   NC3 8855   7.593  33.627   9.651
  478POPC   PO4 8856   7.210  34.110   9.331
  478POPC   GL1 8857   7.317  33.808   9.053
  478POPC   GL2 8858   7.649  33.690   9.142
  478POPC   C1A 8859   7.409  33.777   8.629
  478POPC   D2A 8860   7.331  33.506   8.291
  478POPC   C3A 8861   7.548  33.653   7.937
  478POPC   C4A 8862   7.444  33.733   7.474
  478POPC   C1B 8863   7.889  33.631   8.783
  478POPC   C2B 8864   7.848  33.534   8.354
  478POPC   C3B 8865   8.016  33.430   7.950
  478POPC   C4B 8866   7.757  33.340   7.583
  479POPC   NC3 8867  13.171  24.465   9.401
  479POPC   PO4 8868  12.737  24.907   9.560
  479POPC   GL1 8869  12.612  24.605   9.217
  479POPC   GL2 8870  12.746  24.241   9.162
  479POPC   C1A 8871  12.533  24.505   8.783
  479POPC   D2A 8872  12.748  24.540   8.386
  479POPC   C3A 8873  12.609  24.809   8.075
  479POPC   C4A 8874  12.611  24.752   7.634
  479POPC   C1B 8875  12.942  24.180   8.729
  479POPC   C2B 8876  12.834  24.050   8.288
  479POPC   C3B 8877  12.801  24.325   7.888
  479POPC   C4B 8878  13.095  24.571   7.600
  480POPC   NC3 8879  21.799  22.878   9.477
  480POPC   PO4 8880  21.162  23.199   9.511
  480POPC   GL1 8881  21.269  23.038   9.115
  480POPC   GL2 8882  21.509  22.790   9.089
  480POPC   C1A 8883  21.393  23.134   8.683
  480POPC   D2A 8884  21.114  23.311   8.387
  480POPC   C3A 8885  20.980  23.212   8.002
  480POPC   C4A 8886  21.233  23.129   7.663
  480POPC   C1B 8887  21.230  22.655   8.780
  480POPC   C2B 8888  21.170  22.773   8.402
  480POPC   C3B 8889  21.329  22.866   8.084
  480POPC   C4B 8890  21.213  22.575   7.793
  481POPC   NC3 8891  14.527   7.226   9.588
  481POPC   PO4 8892  14.381   7.885   9.401
  481POPC   GL1 8893  14.554   7.597   9.081
  481POPC   GL2 8894  14.739   7.273   9.130
  481POPC   C1A 8895  14.290   7.323   8.803
  481POPC   D2A 8896  14.043   7.284   8.424
  481POPC   C3A 8897  14.313   7.437   8.088
  481POPC   C4A 8898  14.437   7.492   7.658
  481POPC   C1B 8899  14.798   7.285   8.700
  481POPC   C2B 8900  14.941   7.263   8.291
  481POPC   C3B 8901  14.739   7.180   7.923
  481POPC   C4B 8902  14.694   7.092   7.495
  482POPC   NC3 8903  39.451  18.483   9.539
  482POPC   PO4 8904  38.886  18.146   9.537
  482POPC   GL1 8905  39.022  17.990   9.132
  482POPC   GL2 8906  39.287  18.186   9.144
  482POPC   C1A 8907  39.034  18.067   8.684
  482POPC   D2A 8908  38.895  17.843   8.323
  482POPC   C3A 8909  38.874  18.119   7.980
  482POPC   C4A 8910  39.173  18.218   7.657
  482POPC   C1B 8911  39.335  18.469   8.804
  482POPC   C2B 8912  39.256  18.390   8.360
  482POPC   C3B 8913  39.387  18.552   7.985
  482POPC   C4B 8914  39.655  18.478   7.674
  483POPC   NC3 8915   8.724  27.231   9.439
  483POPC   PO4 8916   8.990  27.831   9.600
  483POPC   GL1 8917   9.048  27.656   9.182
  483POPC   GL2 8918   8.771  27.482   8.991
  483POPC   C1A 8919   9.102  27.748   8.731
  483POPC   D2A 8920   8.824  27.516   8.470
  483POPC   C3A 8921   8.815  27.636   8.069
  483POPC   C4A 8922   9.197  27.678   7.839
  483POPC   C1B 8923   9.108  27.237   8.816
  483POPC   C2B 8924   9.113  27.100   8.379
  483POPC   C3B 8925   9.021  27.158   7.948
  483POPC   C4B 8926   8.791  27.344   7.647
  484POPC   NC3 8927  35.614  41.379   9.364
  484POPC   PO4 8928  35.092  41.735   9.512
  484POPC   GL1 8929  35.182  41.569   9.095
  484POPC   GL2 8930  34.979  41.704   8.825
  484POPC   C1A 8931  35.416  41.482   8.695
  484POPC   D2A 8932  35.240  41.703   8.351
  484POPC   C3A 8933  35.294  41.599   7.928
  484POPC   C4A 8934  35.559  41.663   7.571
  484POPC   C1B 8935  34.924  41.301   8.677
  484POPC   C2B 8936  35.153  41.196   8.307
  484POPC   C3B 8937  35.037  41.136   7.889
  484POPC   C4B 8938  35.016  41.413   7.550
  485POPC   NC3 8939  43.788  34.261   9.896
  485POPC   PO4 8940  43.966  33.658   9.544
  485POPC   GL1 8941  43.997  33.701   9.131
  485POPC   GL2 8942  43.945  33.374   9.070
  485POPC   C1A 8943  44.017  33.932   8.747
  485POPC   D2A 8944  43.741  34.045   8.417
  485POPC   C3A 8945  43.888  34.059   8.010
  485POPC   C4A 8946  43.649  33.823   7.720
  485POPC   C1B 8947  44.210  33.433   8.717
  485POPC   C2B 8948  44.177  33.674   8.328
  485POPC   C3B 8949  44.030  33.578   7.945
  485POPC   C4B 8950  44.179  33.333   7.641
  486POPC   NC3 8951  42.740   9.289   9.795
  486POPC   PO4 8952  43.402   9.127   9.612
  486POPC   GL1 8953  43.188   9.004   9.210
  486POPC   GL2 8954  43.007   8.693   9.155
  486POPC   C1A 8955  43.362   8.848   8.814
  486POPC   D2A 8956  43.403   9.041   8.416
  486POPC   C3A 8957  43.540   8.900   8.048
  486POPC   C4A 8958  43.301   8.795   7.689
  486POPC   C1B 8959  42.812   8.838   8.791
  486POPC   C2B 8960  42.885   9.030   8.439
  486POPC   C3B 8961  42.830   8.952   8.022
  486POPC   C4B 8962  42.774   8.624   7.762
  487POPC   NC3 8963  41.272  23.395   9.526
  487POPC   PO4 8964  41.590  23.997   9.337
  487POPC   GL1 8965  41.379  23.700   9.087
  487POPC   GL2 8966  41.075  23.860   9.127
  487POPC   C1A 8967  41.550  23.604   8.669
  487POPC   D2A 8968  41.705  23.707   8.274
  487POPC   C3A 8969  41.599  23.494   7.893
  487POPC   C4A 8970  41.768  23.591   7.478
  487POPC   C1B 8971  41.004  23.978   8.714
  487POPC   C2B 8972  41.240  23.975   8.360
  487POPC   C3B 8973  41.210  23.819   7.967
  487POPC   C4B 8974  41.305  23.851   7.508
  488POPC   NC3 8975  33.769  22.701   9.517
  488POPC   PO4 8976  33.364  23.134   9.672
  488POPC   GL1 8977  33.645  23.076   9.203
  488POPC   GL2 8978  33.833  22.752   9.032
  488POPC   C1A 8979  33.859  23.185   8.789
  488POPC   D2A 8980  33.771  22.950   8.413
  488POPC   C3A 8981  33.859  23.190   8.045
  488POPC   C4A 8982  33.733  23.104   7.625
  488POPC   C1B 8983  33.957  22.492   8.679
  488POPC   C2B 8984  34.114  22.553   8.251
  488POPC   C3B 8985  33.889  22.698   7.884
  488POPC   C4B 8986  33.901  22.669   7.407
  489POPC   NC3 8987  23.013   3.329   9.499
  489POPC   PO4 8988  22.574   3.759   9.564
  489POPC   GL1 8989  22.817   3.689   9.187
  489POPC   GL2 8990  23.159   3.498   9.056
  489POPC   C1A 8991  22.733   3.497   8.789
  489POPC   D2A 8992  23.057   3.502   8.493
  489POPC   C3A 8993  22.903   3.579   8.096
  489POPC   C4A 8994  23.045   3.340   7.797
  489POPC   C1B 8995  23.164   3.884   8.858
  489POPC   C2B 8996  23.104   4.031   8.471
  489POPC   C3B 8997  23.295   3.882   8.118
  489POPC   C4B 8998  23.054   3.892   7.724
  490POPC   NC3 8999  42.862  15.042   9.687
  490POPC   PO4 9000  43.118  15.637   9.576
  490POPC   GL1 9001  43.252  15.384   9.199
  490POPC   GL2 9002  43.334  15.044   9.301
  490POPC   C1A 9003  43.399  15.187   8.797
  490POPC   D2A 9004  43.343  14.997   8.420
  490POPC   C3A 9005  43.247  15.353   8.159
  490POPC   C4A 9006  43.249  15.245   7.735
  490POPC   C1B 9007  42.966  15.021   8.977
  490POPC   C2B 9008  42.888  15.239   8.547
  490POPC   C3B 9009  42.656  15.368   8.151
  490POPC   C4B 9010  42.807  15.453   7.762
  491POPC   NC3 9011   8.099  19.168   9.457
  491POPC   PO4 9012   8.611  19.629   9.343
  491POPC   GL1 9013   8.366  19.342   9.072
  491POPC   GL2 9014   8.423  18.986   9.097
  491POPC   C1A 9015   8.041  19.286   8.778
  491POPC   D2A 9016   8.237  19.389   8.389
  491POPC   C3A 9017   8.093  19.287   8.018
  491POPC   C4A 9018   7.988  19.010   7.736
  491POPC   C1B 9019   8.434  18.997   8.661
  491POPC   C2B 9020   8.279  18.856   8.239
  491POPC   C3B 9021   8.492  18.913   7.842
  491POPC   C4B 9022   8.775  18.829   7.516
  492POPC   NC3 9023  18.556  27.122   9.474
  492POPC   PO4 9024  18.960  27.817   9.523
  492POPC   GL1 9025  19.080  27.695   9.077
  492POPC   GL2 9026  19.387  27.877   9.048
  492POPC   C1A 9027  19.019  27.347   8.720
  492POPC   D2A 9028  18.770  27.355   8.324
  492POPC   C3A 9029  19.011  27.429   7.939
  492POPC   C4A 9030  18.952  27.632   7.505
  492POPC   C1B 9031  19.430  27.640   8.670
  492POPC   C2B 9032  19.446  27.519   8.230
  492POPC   C3B 9033  19.581  27.763   7.852
  492POPC   C4B 9034  19.668  27.823   7.389
  493POPC   NC3 9035  37.256  43.215   9.813
  493POPC   PO4 9036  36.697  42.991   9.398
  493POPC   GL1 9037  36.727  43.023   9.025
  493POPC   GL2 9038  37.091  43.048   8.905
  493POPC   C1A 9039  36.673  43.263   8.708
  493POPC   D2A 9040  37.010  43.318   8.441
  493POPC   C3A 9041  36.785  43.272   8.080
  493POPC   C4A 9042  36.868  43.419   7.667
  493POPC   C1B 9043  37.256  42.747   8.606
  493POPC   C2B 9044  37.430  42.969   8.265
  493POPC   C3B 9045  37.203  43.034   7.891
  493POPC   C4B 9046  36.802  42.896   7.736
  494POPC   NC3 9047  18.505  36.358   9.690
  494POPC   PO4 9048  18.443  35.792   9.448
  494POPC   GL1 9049  18.353  36.004   9.104
  494POPC   GL2 9050  18.305  36.337   9.194
  494POPC   C1A 9051  18.439  35.936   8.678
  494POPC   D2A 9052  18.267  35.977   8.280
  494POPC   C3A 9053  18.470  36.010   7.909
  494POPC   C4A 9054  18.368  36.006   7.482
  494POPC   C1B 9055  17.971  36.362   8.895
  494POPC   C2B 9056  17.940  36.350   8.429
  494POPC   C3B 9057  18.153  36.415   7.999
  494POPC   C4B 9058  18.034  36.389   7.522
  495POPC   NC3 9059   9.896  10.524   9.555
  495POPC   PO4 9060   9.218  10.471   9.682
  495POPC   GL1 9061   9.450  10.533   9.270
  495POPC   GL2 9062   9.706  10.820   9.180
  495POPC   C1A 9063   9.489  10.524   8.799
  495POPC   D2A 9064   9.825  10.353   8.561
  495POPC   C3A 9065   9.777  10.361   8.122
  495POPC   C4A 9066   9.827  10.397   7.692
  495POPC   C1B 9067   9.698  10.977   8.762
  495POPC   C2B 9068   9.750  10.823   8.365
  495POPC   C3B 9069   9.606  10.824   7.964
  495POPC   C4B 9070   9.847  10.917   7.651
  496POPC   NC3 9071  20.775  42.105   9.536
  496POPC   PO4 9072  20.363  42.536   9.389
  496POPC   GL1 9073  20.556  42.234   9.092
  496POPC   GL2 9074  20.889  42.317   9.067
  496POPC   C1A 9075  20.606  42.104   8.676
  496POPC   D2A 9076  20.629  42.306   8.281
  496POPC   C3A 9077  20.332  42.116   7.981
  496POPC   C4A 9078  20.360  42.180   7.543
  496POPC   C1B 9079  21.074  42.316   8.646
  496POPC   C2B 9080  21.154  42.248   8.207
  496POPC   C3B 9081  20.909  42.479   7.899
  496POPC   C4B 9082  20.991  42.728   7.515
  497POPC   NC3 9083  34.420  19.400   9.532
  497POPC   PO4 9084  34.778  20.015   9.523
  497POPC   GL1 9085  34.659  19.837   9.145
  497POPC   GL2 9086  34.325  19.737   9.170
  497POPC   C1A 9087  34.803  19.923   8.733
  497POPC   D2A 9088  34.930  19.875   8.317
  497POPC   C3A 9089  34.710  20.039   7.988
  497POPC   C4A 9090  34.575  19.666   7.857
  497POPC   C1B 9091  34.307  19.962   8.792
  497POPC   C2B 9092  34.416  20.077   8.410
  497POPC   C3B 9093  34.200  19.939   8.068
  497POPC   C4B 9094  34.143  19.790   7.675
  498POPC   NC3 9095  21.604   9.254   9.449
  498POPC   PO4 9096  21.314   8.579   9.486
  498POPC   GL1 9097  21.485   8.831   9.184
  498POPC   GL2 9098  21.207   9.084   9.194
  498POPC   C1A 9099  21.519   9.039   8.786
  498POPC   D2A 9100  21.328   9.236   8.440
  498POPC   C3A 9101  21.346   8.946   8.116
  498POPC   C4A 9102  21.466   9.086   7.748
  498POPC   C1B 9103  21.032   8.823   8.863
  498POPC   C2B 9104  20.895   8.918   8.437
  498POPC   C3B 9105  20.896   8.751   8.001
  498POPC   C4B 9106  21.196   8.641   7.682
  499POPC   NC3 9107  34.376   2.359   9.267
  499POPC   PO4 9108  34.650   1.931   9.647
  499POPC   GL1 9109  34.660   1.947   9.155
  499POPC   GL2 9110  34.384   1.844   9.105
  499POPC   C1A 9111  34.766   2.141   8.690
  499POPC   D2A 9112  34.904   2.225   8.211
  499POPC   C3A 9113  34.759   2.240   7.730
  499POPC   C4A 9114  34.498   1.869   7.518
  499POPC   C1B 9115  34.281   2.008   8.721
  499POPC   C2B 9116  34.422   1.832   8.379
  499POPC   C3B 9117  34.464   1.982   8.031
  499POPC   C4B 9118  34.194   2.170   7.790
  500POPC   NC3 9119  17.902  41.809   9.257
  500POPC   PO4 9120  17.408  41.528   9.596
  500POPC   GL1 9121  17.233  41.556   9.178
  500POPC   GL2 9122  17.390  41.842   9.156
  500POPC   C1A 9123  17.476  41.518   8.770
  500POPC   D2A 9124  17.440  41.419   8.343
  500POPC   C3A 9125  17.777  41.459   8.067
  500POPC   C4A 9126  17.824  41.267   7.668
  500POPC   C1B 9127  17.158  41.928   8.788
  500POPC   C2B 9128  17.270  42.103   8.385
  500POPC   C3B 9129  17.487  41.914   8.067
  500POPC   C4B 9130  17.341  41.543   7.829
  501POPC   NC3 9131   5.459  30.221   9.816
  501POPC   PO4 9132   5.814  30.610   9.381
  501POPC   GL1 9133   5.833  30.805   9.023
  501POPC   GL2 9134   6.109  31.040   9.096
  501POPC   C1A 9135   5.773  30.677   8.626
  501POPC   D2A 9136   5.927  30.603   8.249
  501POPC   C3A 9137   5.631  30.585   7.975
  501POPC   C4A 9138   5.705  30.518   7.585
  501POPC   C1B 9139   5.947  31.180   8.701
  501POPC   C2B 9140   6.104  31.061   8.323
  501POPC   C3B 9141   5.952  30.972   7.897
  501POPC   C4B 9142   6.130  30.934   7.454
  502POPC   NC3 9143  29.596   9.956   9.388
  502POPC   PO4 9144  30.113   9.505   9.500
  502POPC   GL1 9145  29.922   9.393   9.109
  502POPC   GL2 9146  29.887   9.739   9.031
  502POPC   C1A 9147  29.868   9.437   8.629
  502POPC   D2A 9148  29.934   9.732   8.275
  502POPC   C3A 9149  29.888   9.538   7.844
  502POPC   C4A 9150  29.950   9.418   7.410
  502POPC   C1B 9151  29.582   9.900   8.712
  502POPC   C2B 9152  29.469   9.973   8.301
  502POPC   C3B 9153  29.586   9.927   7.914
  502POPC   C4B 9154  29.778   9.914   7.495
  503POPC   NC3 9155   2.969  32.542   9.433
  503POPC   PO4 9156   2.496  32.058   9.505
  503POPC   GL1 9157   2.748  32.150   9.194
  503POPC   GL2 9158   2.557  32.428   9.107
  503POPC   C1A 9159   2.919  32.163   8.791
  503POPC   D2A 9160   2.720  32.027   8.438
  503POPC   C3A 9161   2.907  32.093   8.073
  503POPC   C4A 9162   2.625  32.040   7.765
  503POPC   C1B 9163   2.501  32.684   8.784
  503POPC   C2B 9164   2.663  32.550   8.425
  503POPC   C3B 9165   2.476  32.408   8.082
  503POPC   C4B 9166   2.484  32.715   7.777
  504POPC   NC3 9167  43.740   0.631   9.492
  504POPC   PO4 9168  43.783   0.003   9.483
  504POPC   GL1 9169  43.836   0.286   9.111
  504POPC   GL2 9170  44.114   0.522   9.132
  504POPC   C1A 9171  43.807   0.425   8.680
  504POPC   D2A 9172  43.746   0.197   8.299
  504POPC   C3A 9173  43.947   0.263   7.951
  504POPC   C4A 9174  43.867   0.162   7.549
  504POPC   C1B 9175  44.256   0.717   8.745
  504POPC   C2B 9176  44.147   0.631   8.325
  504POPC   C3B 9177  43.776   0.732   8.080
  504POPC   C4B 9178  43.888   0.694   7.638
  505POPC   NC3 9179  13.649  32.732   9.427
  505POPC   PO4 9180  13.367  33.324   9.481
  505POPC   GL1 9181  13.635  33.172   9.125
  505POPC   GL2 9182  13.482  32.870   8.981
  505POPC   C1A 9183  13.941  32.989   8.792
  505POPC   D2A 9184  13.965  32.906   8.342
  505POPC   C3A 9185  13.664  33.187   8.111
  505POPC   C4A 9186  13.675  33.369   7.688
  505POPC   C1B 9187  13.466  33.174   8.634
  505POPC   C2B 9188  13.229  33.026   8.300
  505POPC   C3B 9189  13.154  32.945   7.912
  505POPC   C4B 9190  13.285  33.065   7.558
  506POPC   NC3 9191  27.310  28.950   9.569
  506POPC   PO4 9192  27.833  29.279   9.582
  506POPC   GL1 9193  27.635  29.063   9.213
  506POPC   GL2 9194  27.428  29.365   9.194
  506POPC   C1A 9195  27.415  28.994   8.814
  506POPC   D2A 9196  27.508  28.742   8.461
  506POPC   C3A 9197  27.552  28.925   8.093
  506POPC   C4A 9198  27.568  28.949   7.680
  506POPC   C1B 9199  27.451  29.510   8.787
  506POPC   C2B 9200  27.449  29.319   8.392
  506POPC   C3B 9201  27.460  29.401   7.948
  506POPC   C4B 9202  27.803  29.634   7.801
  507POPC   NC3 9203  12.045  39.505   9.359
  507POPC   PO4 9204  12.410  39.980   9.629
  507POPC   GL1 9205  12.146  39.994   9.189
  507POPC   GL2 9206  12.135  39.743   8.938
  507POPC   C1A 9207  11.968  40.219   8.815
  507POPC   D2A 9208  11.744  40.170   8.396
  507POPC   C3A 9209  11.990  40.219   8.013
  507POPC   C4A 9210  12.129  40.012   7.616
  507POPC   C1B 9211  11.748  39.777   8.776
  507POPC   C2B 9212  11.801  39.655   8.378
  507POPC   C3B 9213  12.075  39.691   8.029
  507POPC   C4B 9214  11.918  39.526   7.636
  508POPC   NC3 9215  12.692  23.764   9.397
  508POPC   PO4 9216  12.068  23.759   9.491
  508POPC   GL1 9217  12.018  23.681   9.098
  508POPC   GL2 9218  12.374  23.587   9.058
  508POPC   C1A 9219  12.103  23.587   8.651
  508POPC   D2A 9220  12.012  23.755   8.305
  508POPC   C3A 9221  12.209  23.533   8.016
  508POPC   C4A 9222  11.997  23.661   7.705
  508POPC   C1B 9223  12.448  23.974   8.809
  508POPC   C2B 9224  12.358  24.165   8.425
  508POPC   C3B 9225  12.349  24.033   7.998
  508POPC   C4B 9226  12.523  23.961   7.596
  509POPC   NC3 9227  41.660  31.269   9.297
  509POPC   PO4 9228  41.063  31.356   9.387
  509POPC   GL1 9229  41.234  31.624   9.096
  509POPC   GL2 9230  41.548  31.831   9.133
  509POPC   C1A 9231  41.396  31.428   8.724
  509POPC   D2A 9232  41.669  31.423   8.385
  509POPC   C3A 9233  41.463  31.478   7.985
  509POPC   C4A 9234  41.685  31.261   7.692
  509POPC   C1B 9235  41.914  31.735   8.823
  509POPC   C2B 9236  42.118  31.662   8.407
  509POPC   C3B 9237  41.922  31.704   8.015
  509POPC   C4B 9238  41.830  31.720   7.580
  510POPC   NC3 9239   8.749  36.495   9.455
  510POPC   PO4 9240   9.151  35.981   9.424
  510POPC   GL1 9241   9.010  36.238   9.105
  510POPC   GL2 9242   8.757  36.071   9.062
  510POPC   C1A 9243   8.874  36.428   8.712
  510POPC   D2A 9244   9.094  36.495   8.315
  510POPC   C3A 9245   8.925  36.351   7.911
  510POPC   C4A 9246   9.134  36.345   7.509
  510POPC   C1B 9247   8.790  35.860   8.713
  510POPC   C2B 9248   8.763  36.076   8.337
  510POPC   C3B 9249   8.778  35.846   7.965
  510POPC   C4B 9250   8.856  35.913   7.567
  511POPC   NC3 9251  10.834  41.534   9.613
  511POPC   PO4 9252  10.427  41.983   9.523
  511POPC   GL1 9253  10.643  41.740   9.166
  511POPC   GL2 9254  10.592  41.364   9.162
  511POPC   C1A 9255  10.517  41.643   8.730
  511POPC   D2A 9256  10.640  41.792   8.327
  511POPC   C3A 9257  10.501  41.654   7.938
  511POPC   C4A 9258  10.423  41.931   7.587
  511POPC   C1B 9259  10.775  41.184   8.769
  511POPC   C2B 9260  10.848  41.323   8.339
  511POPC   C3B 9261  10.840  41.241   7.908
  511POPC   C4B 9262  10.527  41.227   7.584
  512POPC   NC3 9263  30.086  32.219   9.601
  512POPC   PO4 9264  30.689  32.137   9.485
  512POPC   GL1 9265  30.516  32.170   9.146
  512POPC   GL2 9266  30.438  32.542   9.204
  512POPC   C1A 9267  30.762  32.006   8.794
  512POPC   D2A 9268  30.904  31.936   8.393
  512POPC   C3A 9269  30.968  32.286   8.103
  512POPC   C4A 9270  30.906  32.022   7.708
  512POPC   C1B 9271  30.653  32.518   8.810
  512POPC   C2B 9272  30.560  32.325   8.432
  512POPC   C3B 9273  30.521  32.094   8.065
  512POPC   C4B 9274  30.504  32.338   7.709
  513POPC   NC3 9275   9.424  24.855   9.421
  513POPC   PO4 9276   8.894  24.479   9.590
  513POPC   GL1 9277   8.917  24.653   9.192
  513POPC   GL2 9278   8.636  24.887   9.168
  513POPC   C1A 9279   9.047  24.456   8.802
  513POPC   D2A 9280   9.233  24.251   8.496
  513POPC   C3A 9281   9.099  24.352   8.071
  513POPC   C4A 9282   9.063  24.650   7.723
  513POPC   C1B 9283   8.594  24.680   8.789
  513POPC   C2B 9284   8.827  24.689   8.395
  513POPC   C3B 9285   8.663  24.626   8.009
  513POPC   C4B 9286   8.536  24.816   7.661
  514POPC   NC3 9287  40.762  22.535   9.523
  514POPC   PO4 9288  40.541  21.855   9.415
  514POPC   GL1 9289  40.748  22.149   9.155
  514POPC   GL2 9290  40.529  22.426   9.092
  514POPC   C1A 9291  40.991  22.137   8.774
  514POPC   D2A 9292  41.197  21.991   8.405
  514POPC   C3A 9293  41.042  22.165   8.024
  514POPC   C4A 9294  40.785  22.064   7.692
  514POPC   C1B 9295  40.481  22.244   8.697
  514POPC   C2B 9296  40.605  22.220   8.271
  514POPC   C3B 9297  40.483  22.438   7.875
  514POPC   C4B 9298  40.366  22.262   7.462
  515POPC   NC3 9299  15.448  33.963   9.414
  515POPC   PO4 9300  14.777  33.695   9.459
  515POPC   GL1 9301  15.078  33.778   9.052
  515POPC   GL2 9302  15.247  34.073   8.951
  515POPC   C1A 9303  15.134  33.709   8.586
  515POPC   D2A 9304  14.854  33.548   8.204
  515POPC   C3A 9305  15.084  33.573   7.825
  515POPC   C4A 9306  15.493  33.738   7.928
  515POPC   C1B 9307  14.925  34.214   8.696
  515POPC   C2B 9308  14.919  34.053   8.290
  515POPC   C3B 9309  15.166  34.144   7.937
  515POPC   C4B 9310  15.109  34.057   7.505
  516POPC   NC3 9311  32.181  41.178   9.825
  516POPC   PO4 9312  31.920  40.690   9.356
  516POPC   GL1 9313  32.299  40.691   9.076
  516POPC   GL2 9314  32.565  40.489   9.249
  516POPC   C1A 9315  32.225  40.956   8.684
  516POPC   D2A 9316  32.089  40.855   8.303
  516POPC   C3A 9317  32.287  40.938   7.951
  516POPC   C4A 9318  32.014  40.966   7.639
  516POPC   C1B 9319  32.691  40.437   8.813
  516POPC   C2B 9320  32.531  40.617   8.439
  516POPC   C3B 9321  32.571  40.521   8.055
  516POPC   C4B 9322  32.608  40.340   7.712
  517POPC   NC3 9323   0.103  27.756   9.448
  517POPC   PO4 9324   0.402  27.246   9.641
  517POPC   GL1 9325   0.397  27.474   9.168
  517POPC   GL2 9326   0.705  27.598   9.019
  517POPC   C1A 9327   0.307  27.725   8.791
  517POPC   D2A 9328   0.369  27.599   8.381
  517POPC   C3A 9329   0.467  27.829   8.031
  517POPC   C4A 9330   0.250  27.521   7.828
  517POPC   C1B 9331   0.582  27.265   8.705
  517POPC   C2B 9332   0.746  27.156   8.332
  517POPC   C3B 9333   0.574  27.114   7.934
  517POPC   C4B 9334   0.714  27.420   7.645
  518POPC   NC3 9335  17.575  20.306   9.555
  518POPC   PO4 9336  16.997  20.699   9.521
  518POPC   GL1 9337  17.338  20.715   9.257
  518POPC   GL2 9338  17.314  20.381   9.134
  518POPC   C1A 9339  17.481  20.760   8.828
  518POPC   D2A 9340  17.325  20.760   8.409
  518POPC   C3A 9341  17.519  20.992   8.114
  518POPC   C4A 9342  17.635  20.733   7.791
  518POPC   C1B 9343  17.660  20.267   8.853
  518POPC   C2B 9344  17.799  20.168   8.435
  518POPC   C3B 9345  17.671  20.282   8.032
  518POPC   C4B 9346  17.830  20.235   7.615
  519POPC   NC3 9347  22.722  19.810   9.693
  519POPC   PO4 9348  22.857  20.370   9.588
  519POPC   GL1 9349  22.654  20.133   9.230
  519POPC   GL2 9350  22.641  19.783   9.168
  519POPC   C1A 9351  22.824  20.099   8.777
  519POPC   D2A 9352  22.728  20.249   8.354
  519POPC   C3A 9353  22.773  20.062   7.943
  519POPC   C4A 9354  23.124  19.897   7.736
  519POPC   C1B 9355  22.571  19.651   8.719
  519POPC   C2B 9356  22.695  19.679   8.268
  519POPC   C3B 9357  22.731  19.560   7.812
  519POPC   C4B 9358  23.043  19.477   7.459
  520POPC   NC3 9359   0.185  43.290   9.564
  520POPC   PO4 9360  44.529  43.018   9.467
  520POPC   GL1 9361  44.830  43.085   9.204
  520POPC   GL2 9362  44.642  43.336   9.071
  520POPC   C1A 9363  44.811  42.985   8.774
  520POPC   D2A 9364  44.558  42.852   8.457
  520POPC   C3A 9365  44.639  43.101   8.142
  520POPC   C4A 9366  44.516  43.077   7.747
  520POPC   C1B 9367  44.300  43.105   8.811
  520POPC   C2B 9368  44.157  43.219   8.363
  520POPC   C3B 9369  44.319  43.493   8.018
  520POPC   C4B 9370  44.748  43.531   7.861
  521POPC   NC3 9371  27.035   8.600   9.457
  521POPC   PO4 9372  26.670   8.052   9.289
  521POPC   GL1 9373  26.993   8.247   9.019
  521POPC   GL2 9374  26.831   8.552   8.959
  521POPC   C1A 9375  27.024   8.209   8.557
  521POPC   D2A 9376  26.660   8.074   8.309
  521POPC   C3A 9377  26.716   7.906   7.906
  521POPC   C4A 9378  26.911   8.155   7.580
  521POPC   C1B 9379  26.592   8.516   8.567
  521POPC   C2B 9380  26.808   8.564   8.154
  521POPC   C3B 9381  26.691   8.629   7.711
  521POPC   C4B 9382  26.404   8.592   7.323
  522POPC   NC3 9383  39.968  30.574   9.646
  522POPC   PO4 9384  40.629  30.487   9.724
  522POPC   GL1 9385  40.336  30.544   9.297
  522POPC   GL2 9386  40.024  30.766   9.171
  522POPC   C1A 9387  40.237  30.460   8.829
  522POPC   D2A 9388  40.260  30.671   8.401
  522POPC   C3A 9389  40.247  30.464   8.008
  522POPC   C4A 9390  39.870  30.404   7.759
  522POPC   C1B 9391  39.994  30.940   8.759
  522POPC   C2B 9392  39.724  30.897   8.401
  522POPC   C3B 9393  39.830  30.858   7.986
  522POPC   C4B 9394  40.137  30.950   7.704
  523POPC   NC3 9395  36.775   9.970   9.385
  523POPC   PO4 9396  37.166   9.516   9.732
  523POPC   GL1 9397  37.031   9.512   9.269
  523POPC   GL2 9398  36.662   9.559   9.104
  523POPC   C1A 9399  37.049   9.712   8.840
  523POPC   D2A 9400  36.934  10.001   8.522
  523POPC   C3A 9401  36.792   9.842   8.141
  523POPC   C4A 9402  36.847   9.937   7.712
  523POPC   C1B 9403  36.513   9.382   8.683
  523POPC   C2B 9404  36.476   9.422   8.219
  523POPC   C3B 9405  36.505   9.580   7.790
  523POPC   C4B 9406  36.731   9.408   7.425
  524POPC   NC3 9407   8.580  22.059   9.442
  524POPC   PO4 9408   7.962  22.197   9.609
  524POPC   GL1 9409   8.192  22.253   9.191
  524POPC   GL2 9410   8.251  21.894   9.077
  524POPC   C1A 9411   8.487  22.264   8.788
  524POPC   D2A 9412   8.386  22.037   8.375
  524POPC   C3A 9413   8.442  22.313   7.982
  524POPC   C4A 9414   8.347  22.121   7.577
  524POPC   C1B 9415   8.008  22.058   8.755
  524POPC   C2B 9416   7.848  22.010   8.380
  524POPC   C3B 9417   7.983  22.133   8.024
  524POPC   C4B 9418   7.842  22.113   7.643
  525POPC   NC3 9419  39.074  37.841   9.719
  525POPC   PO4 9420  39.536  37.397   9.516
  525POPC   GL1 9421  39.362  37.561   9.147
  525POPC   GL2 9422  39.143  37.830   9.200
  525POPC   C1A 9423  39.126  37.585   8.775
  525POPC   D2A 9424  39.243  37.696   8.389
  525POPC   C3A 9425  39.041  37.425   8.137
  525POPC   C4A 9426  39.031  37.411   7.712
  525POPC   C1B 9427  38.996  38.072   8.813
  525POPC   C2B 9428  38.919  38.092   8.339
  525POPC   C3B 9429  39.044  37.904   7.912
  525POPC   C4B 9430  38.765  37.811   7.538
  526POPC   NC3 9431  18.885  39.766   9.541
  526POPC   PO4 9432  19.467  40.133   9.439
  526POPC   GL1 9433  19.183  39.966   9.125
  526POPC   GL2 9434  18.862  40.159   9.208
  526POPC   C1A 9435  19.298  39.902   8.661
  526POPC   D2A 9436  19.488  40.099   8.262
  526POPC   C3A 9437  19.155  40.190   7.980
  526POPC   C4A 9438  18.934  39.835   7.787
  526POPC   C1B 9439  18.797  40.006   8.801
  526POPC   C2B 9440  18.794  40.051   8.347
  526POPC   C3B 9441  18.612  40.213   7.968
  526POPC   C4B 9442  18.664  40.244   7.549
  527POPC   NC3 9443  15.316  39.522   9.527
  527POPC   PO4 9444  14.950  38.961   9.419
  527POPC   GL1 9445  15.154  39.188   9.139
  527POPC   GL2 9446  15.512  39.206   9.174
  527POPC   C1A 9447  14.993  39.173   8.759
  527POPC   D2A 9448  15.194  39.211   8.408
  527POPC   C3A 9449  15.015  39.118   8.060
  527POPC   C4A 9450  15.029  39.301   7.692
  527POPC   C1B 9451  15.729  39.072   8.813
  527POPC   C2B 9452  15.610  38.941   8.424
  527POPC   C3B 9453  15.535  39.175   8.027
  527POPC   C4B 9454  15.793  39.228   7.668
  528POPC   NC3 9455   6.994  34.438   9.566
  528POPC   PO4 9456   6.415  34.704   9.451
  528POPC   GL1 9457   6.747  34.701   9.143
  528POPC   GL2 9458   6.793  34.355   9.095
  528POPC   C1A 9459   6.768  34.687   8.691
  528POPC   D2A 9460   6.494  34.584   8.353
  528POPC   C3A 9461   6.501  34.727   7.950
  528POPC   C4A 9462   6.851  34.970   7.777
  528POPC   C1B 9463   6.501  34.246   8.767
  528POPC   C2B 9464   6.611  34.091   8.352
  528POPC   C3B 9465   6.675  34.233   7.921
  528POPC   C4B 9466   7.023  34.495   7.738
  529POPC   NC3 9467  35.468  43.358   9.333
  529POPC   PO4 9468  35.434  44.068   9.416
  529POPC   GL1 9469  35.536  43.831   9.073
  529POPC   GL2 9470  35.252  43.623   8.944
  529POPC   C1A 9471  35.481  43.990   8.654
  529POPC   D2A 9472  35.263  43.857   8.320
  529POPC   C3A 9473  35.376  44.057   7.965
  529POPC   C4A 9474  35.079  43.922   7.687
  529POPC   C1B 9475  35.542  43.480   8.613
  529POPC   C2B 9476  35.669  43.549   8.217
  529POPC   C3B 9477  35.476  43.568   7.820
  529POPC   C4B 9478  35.603  43.860   7.537
  530POPC   NC3 9479  14.447  25.755   9.460
  530POPC   PO4 9480  13.964  26.291   9.448
  530POPC   GL1 9481  14.225  26.214   9.092
  530POPC   GL2 9482  14.395  25.895   8.984
  530POPC   C1A 9483  14.283  26.285   8.653
  530POPC   D2A 9484  14.487  25.983   8.359
  530POPC   C3A 9485  14.663  26.135   7.972
  530POPC   C4A 9486  14.619  26.530   7.812
  530POPC   C1B 9487  14.100  25.780   8.660
  530POPC   C2B 9488  14.147  25.605   8.244
  530POPC   C3B 9489  14.277  25.824   7.864
  530POPC   C4B 9490  14.203  25.845   7.371
  531POPC   NC3 9491  40.404  34.745   9.461
  531POPC   PO4 9492  39.884  34.371   9.669
  531POPC   GL1 9493  40.121  34.272   9.236
  531POPC   GL2 9494  40.489  34.284   9.139
  531POPC   C1A 9495  40.128  34.278   8.770
  531POPC   D2A 9496  40.100  34.546   8.421
  531POPC   C3A 9497  40.125  34.362   8.044
  531POPC   C4A 9498  39.776  34.377   7.798
  531POPC   C1B 9499  40.453  34.655   8.799
  531POPC   C2B 9500  40.420  34.938   8.439
  531POPC   C3B 9501  40.289  34.859   7.997
  531POPC   C4B 9502  40.213  34.579   7.572
  532POPC   NC3 9503   4.715  11.557   9.749
  532POPC   PO4 9504   4.060  11.321   9.568
  532POPC   GL1 9505   4.262  11.225   9.169
  532POPC   GL2 9506   4.569  11.047   9.134
  532POPC   C1A 9507   4.271  11.405   8.774
  532POPC   D2A 9508   4.302  11.556   8.399
  532POPC   C3A 9509   3.979  11.421   8.123
  532POPC   C4A 9510   4.096  11.434   7.738
  532POPC   C1B 9511   4.737  11.200   8.751
  532POPC   C2B 9512   4.809  11.361   8.333
  532POPC   C3B 9513   4.507  11.251   8.040
  532POPC   C4B 9514   4.499  11.161   7.624
  533POPC   NC3 9515   2.312  43.248   9.336
  533POPC   PO4 9516   2.973  43.214   9.595
  533POPC   GL1 9517   3.041  43.251   9.171
  533POPC   GL2 9518   2.709  43.142   9.056
  533POPC   C1A 9519   3.012  43.450   8.768
  533POPC   D2A 9520   2.970  43.380   8.328
  533POPC   C3A 9521   2.746  43.388   7.929
  533POPC   C4A 9522   3.037  43.345   7.595
  533POPC   C1B 9523   2.791  43.000   8.632
  533POPC   C2B 9524   2.732  42.932   8.190
  533POPC   C3B 9525   2.884  42.900   7.762
  533POPC   C4B 9526   2.674  43.056   7.374
  534POPC   NC3 9527  36.071  20.452   9.689
  534POPC   PO4 9528  36.248  21.112   9.521
  534POPC   GL1 9529  36.258  20.679   9.272
  534POPC   GL2 9530  35.910  20.519   9.205
  534POPC   C1A 9531  36.317  20.348   8.944
  534POPC   D2A 9532  36.218  20.369   8.507
  534POPC   C3A 9533  36.471  20.350   8.137
  534POPC   C4A 9534  36.365  20.339   7.711
  534POPC   C1B 9535  35.954  20.918   8.950
  534POPC   C2B 9536  35.999  20.967   8.539
  534POPC   C3B 9537  35.978  20.699   8.192
  534POPC   C4B 9538  36.149  20.775   7.818
  535POPC   NC3 9539  28.656   6.163   9.431
  535POPC   PO4 9540  28.661   6.844   9.577
  535POPC   GL1 9541  28.434   6.836   9.165
  535POPC   GL2 9542  28.272   6.491   9.174
  535POPC   C1A 9543  28.415   6.698   8.723
  535POPC   D2A 9544  28.600   6.529   8.360
  535POPC   C3A 9545  28.384   6.692   8.013
  535POPC   C4A 9546  28.459   6.931   7.663
  535POPC   C1B 9547  28.063   6.332   8.785
  535POPC   C2B 9548  28.069   6.435   8.347
  535POPC   C3B 9549  28.034   6.296   7.922
  535POPC   C4B 9550  28.359   6.372   7.622
  536POPC   NC3 9551  35.485  14.313   9.789
  536POPC   PO4 9552  35.700  13.730   9.465
  536POPC   GL1 9553  35.454  14.117   9.258
  536POPC   GL2 9554  35.363  14.490   9.206
  536POPC   C1A 9555  35.565  14.199   8.812
  536POPC   D2A 9556  35.412  14.005   8.453
  536POPC   C3A 9557  35.486  14.181   8.058
  536POPC   C4A 9558  35.733  14.099   7.723
  536POPC   C1B 9559  35.110  14.384   8.791
  536POPC   C2B 9560  34.978  14.247   8.344
  536POPC   C3B 9561  35.022  14.343   7.897
  536POPC   C4B 9562  35.316  14.341   7.574
  537POPC   NC3 9563  43.366  12.558   9.496
  537POPC   PO4 9564  42.775  12.957   9.395
  537POPC   GL1 9565  43.124  12.804   9.099
  537POPC   GL2 9566  43.270  12.463   9.030
  537POPC   C1A 9567  43.276  12.843   8.675
  537POPC   D2A 9568  43.188  13.106   8.322
  537POPC   C3A 9569  43.235  12.868   7.980
  537POPC   C4A 9570  43.008  12.888   7.582
  537POPC   C1B 9571  43.042  12.359   8.709
  537POPC   C2B 9572  42.968  12.579   8.351
  537POPC   C3B 9573  42.844  12.515   7.960
  537POPC   C4B 9574  43.211  12.440   7.715
  538POPC   NC3 9575   3.449  21.133   9.967
  538POPC   PO4 9576   3.726  21.549   9.484
  538POPC   GL1 9577   3.748  21.432   9.050
  538POPC   GL2 9578   3.418  21.325   9.009
  538POPC   C1A 9579   3.634  21.548   8.602
  538POPC   D2A 9580   3.336  21.803   8.373
  538POPC   C3A 9581   3.377  21.633   7.988
  538POPC   C4A 9582   3.732  21.417   8.016
  538POPC   C1B 9583   3.229  21.077   8.678
  538POPC   C2B 9584   3.399  21.062   8.276
  538POPC   C3B 9585   3.331  21.125   7.863
  538POPC   C4B 9586   3.475  21.366   7.551
  539POPC   NC3 9587  32.257  43.238  10.008
  539POPC   PO4 9588  32.500  43.228   9.433
  539POPC   GL1 9589  32.346  43.056   9.121
  539POPC   GL2 9590  32.041  43.217   8.982
  539POPC   C1A 9591  32.542  42.966   8.754
  539POPC   D2A 9592  32.355  43.127   8.417
  539POPC   C3A 9593  32.482  43.022   8.022
  539POPC   C4A 9594  32.290  43.042   7.636
  539POPC   C1B 9595  32.050  42.819   8.760
  539POPC   C2B 9596  31.997  42.704   8.345
  539POPC   C3B 9597  31.774  42.677   7.978
  539POPC   C4B 9598  31.924  42.615   7.562
  540POPC   NC3 9599  30.364  29.131   9.269
  540POPC   PO4 9600  30.667  29.579   9.653
  540POPC   GL1 9601  30.812  29.414   9.170
  540POPC   GL2 9602  30.918  29.064   9.122
  540POPC   C1A 9603  30.652  29.262   8.727
  540POPC   D2A 9604  30.657  29.020   8.344
  540POPC   C3A 9605  30.704  29.231   7.935
  540POPC   C4A 9606  30.354  29.470   7.753
  540POPC   C1B 9607  30.909  28.760   8.771
  540POPC   C2B 9608  30.932  28.596   8.351
  540POPC   C3B 9609  30.761  28.703   7.944
  540POPC   C4B 9610  31.025  28.914   7.634
  541POPC   NC3 9611  17.844   4.623   9.520
  541POPC   PO4 9612  17.543   5.191   9.689
  541POPC   GL1 9613  17.698   5.096   9.253
  541POPC   GL2 9614  17.410   5.175   9.047
  541POPC   C1A 9615  17.879   4.817   8.874
  541POPC   D2A 9616  18.056   4.818   8.457
  541POPC   C3A 9617  17.755   5.053   8.207
  541POPC   C4A 9618  17.444   4.959   7.871
  541POPC   C1B 9619  17.208   4.912   8.709
  541POPC   C2B 9620  17.141   5.058   8.285
  541POPC   C3B 9621  17.392   5.415   8.144
  541POPC   C4B 9622  17.560   5.437   7.723
  542POPC   NC3 9623  36.060   7.889   9.606
  542POPC   PO4 9624  35.723   8.424   9.513
  542POPC   GL1 9625  36.120   8.416   9.259
  542POPC   GL2 9626  36.301   8.095   9.208
  542POPC   C1A 9627  36.371   8.480   8.880
  542POPC   D2A 9628  36.289   8.319   8.473
  542POPC   C3A 9629  36.103   8.024   8.171
  542POPC   C4A 9630  36.304   8.068   7.761
  542POPC   C1B 9631  36.013   8.094   8.866
  542POPC   C2B 9632  35.783   8.270   8.554
  542POPC   C3B 9633  35.668   8.268   8.159
  542POPC   C4B 9634  35.810   8.260   7.749
  543POPC   NC3 9635  15.139  33.415   9.395
  543POPC   PO4 9636  14.728  32.942   9.481
  543POPC   GL1 9637  15.133  32.850   9.243
  543POPC   GL2 9638  15.437  33.068   9.159
  543POPC   C1A 9639  15.238  32.799   8.803
  543POPC   D2A 9640  15.041  32.890   8.447
  543POPC   C3A 9641  15.271  32.823   8.099
  543POPC   C4A 9642  15.147  33.039   7.750
  543POPC   C1B 9643  15.366  33.285   8.732
  543POPC   C2B 9644  15.325  33.327   8.258
  543POPC   C3B 9645  15.606  33.248   7.901
  543POPC   C4B 9646  15.653  33.223   7.433
  544POPC   NC3 9647  32.583  17.778   9.506
  544POPC   PO4 9648  31.965  17.733   9.354
  544POPC   GL1 9649  32.161  17.375   9.162
  544POPC   GL2 9650  32.448  17.503   9.103
  544POPC   C1A 9651  32.123  17.250   8.743
  544POPC   D2A 9652  31.932  17.303   8.324
  544POPC   C3A 9653  32.165  17.487   7.985
  544POPC   C4A 9654  32.023  17.514   7.561
  544POPC   C1B 9655  32.631  17.332   8.790
  544POPC   C2B 9656  32.700  17.250   8.393
  544POPC   C3B 9657  32.698  17.464   8.016
  544POPC   C4B 9658  32.544  17.445   7.619
  545POPC   NC3 9659  26.713  28.642   9.358
  545POPC   PO4 9660  27.012  29.295   9.498
  545POPC   GL1 9661  26.816  29.240   9.085
  545POPC   GL2 9662  26.858  28.929   8.970
  545POPC   C1A 9663  26.979  29.318   8.641
  545POPC   D2A 9664  26.993  29.458   8.195
  545POPC   C3A 9665  26.697  29.213   8.030
  545POPC   C4A 9666  26.539  28.905   7.786
  545POPC   C1B 9667  27.002  28.760   8.604
  545POPC   C2B 9668  27.076  28.955   8.247
  545POPC   C3B 9669  27.082  28.911   7.806
  545POPC   C4B 9670  27.190  29.006   7.348
  546POPC   NC3 9671   8.338  29.588   9.333
  546POPC   PO4 9672   7.909  29.071   9.506
  546POPC   GL1 9673   7.893  29.386   9.191
  546POPC   GL2 9674   8.158  29.242   9.013
  546POPC   C1A 9675   7.831  29.572   8.781
  546POPC   D2A 9676   8.054  29.431   8.436
  546POPC   C3A 9677   7.961  29.474   8.022
  546POPC   C4A 9678   8.246  29.275   7.746
  546POPC   C1B 9679   8.089  28.953   8.695
  546POPC   C2B 9680   7.988  28.949   8.275
  546POPC   C3B 9681   8.260  28.787   7.955
  546POPC   C4B 9682   8.557  28.691   7.627
  547POPC   NC3 9683  15.660  15.893   9.406
  547POPC   PO4 9684  15.082  16.186   9.510
  547POPC   GL1 9685  15.150  15.951   9.066
  547POPC   GL2 9686  15.480  15.862   8.931
  547POPC   C1A 9687  15.066  15.845   8.612
  547POPC   D2A 9688  14.844  16.101   8.271
  547POPC   C3A 9689  15.005  16.082   7.854
  547POPC   C4A 9690  15.062  15.767   7.565
  547POPC   C1B 9691  15.429  16.182   8.638
  547POPC   C2B 9692  15.372  16.151   8.209
  547POPC   C3B 9693  15.536  16.140   7.819
  547POPC   C4B 9694  15.529  15.926   7.458
  548POPC   NC3 9695  36.372  16.731   9.562
  548POPC   PO4 9696  35.804  17.099   9.393
  548POPC   GL1 9697  36.120  16.918   9.154
  548POPC   GL2 9698  36.117  16.580   9.063
  548POPC   C1A 9699  36.263  16.972   8.750
  548POPC   D2A 9700  36.129  16.658   8.446
  548POPC   C3A 9701  36.040  16.865   8.073
  548POPC   C4A 9702  36.124  16.857   7.644
  548POPC   C1B 9703  35.893  16.274   8.829
  548POPC   C2B 9704  35.665  16.344   8.454
  548POPC   C3B 9705  35.672  16.500   8.038
  548POPC   C4B 9706  36.037  16.396   7.839
  549POPC   NC3 9707  14.166  41.451   9.482
  549POPC   PO4 9708  14.703  41.860   9.685
  549POPC   GL1 9709  14.647  41.869   9.225
  549POPC   GL2 9710  14.381  41.666   9.088
  549POPC   C1A 9711  14.573  41.978   8.768
  549POPC   D2A 9712  14.368  41.760   8.448
  549POPC   C3A 9713  14.576  41.650   8.083
  549POPC   C4A 9714  14.511  41.558   7.659
  549POPC   C1B 9715  14.592  41.394   8.777
  549POPC   C2B 9716  14.443  41.054   8.535
  549POPC   C3B 9717  14.351  41.163   8.131
  549POPC   C4B 9718  14.296  41.089   7.726
  550POPC   NC3 9719  31.220  16.873   9.492
  550POPC   PO4 9720  30.763  16.531   9.723
  550POPC   GL1 9721  30.750  16.825   9.300
  550POPC   GL2 9722  30.952  17.172   9.204
  550POPC   C1A 9723  30.584  16.863   8.884
  550POPC   D2A 9724  30.628  16.591   8.510
  550POPC   C3A 9725  30.460  16.631   8.110
  550POPC   C4A 9726  30.585  16.453   7.709
  550POPC   C1B 9727  31.098  16.958   8.823
  550POPC   C2B 9728  30.922  17.028   8.440
  550POPC   C3B 9729  30.894  16.876   8.042
  550POPC   C4B 9730  30.764  17.005   7.658
  551POPC   NC3 9731  22.030   4.698   9.728
  551POPC   PO4 9732  22.299   5.324   9.651
  551POPC   GL1 9733  22.110   5.152   9.230
  551POPC   GL2 9734  22.005   4.784   9.217
  551POPC   C1A 9735  22.083   5.288   8.765
  551POPC   D2A 9736  22.363   5.350   8.405
  551POPC   C3A 9737  22.193   5.221   8.013
  551POPC   C4A 9738  22.305   5.341   7.629
  551POPC   C1B 9739  22.101   4.740   8.785
  551POPC   C2B 9740  22.031   4.897   8.380
  551POPC   C3B 9741  22.055   4.712   7.958
  551POPC   C4B 9742  21.957   4.954   7.571
  552POPC   NC3 9743  13.143  12.956   9.355
  552POPC   PO4 9744  13.776  12.721   9.610
  552POPC   GL1 9745  13.658  12.938   9.178
  552POPC   GL2 9746  13.887  13.200   9.155
  552POPC   C1A 9747  13.460  13.075   8.740
  552POPC   D2A 9748  13.216  13.252   8.383
  552POPC   C3A 9749  13.341  12.927   8.114
  552POPC   C4A 9750  13.492  12.934   7.711
  552POPC   C1B 9751  13.969  13.074   8.747
  552POPC   C2B 9752  13.808  12.910   8.378
  552POPC   C3B 9753  13.934  12.849   7.995
  552POPC   C4B 9754  13.930  12.657   7.620
  553POPC   NC3 9755   1.534  23.709   9.457
  553POPC   PO4 9756   0.996  24.034   9.669
  553POPC   GL1 9757   1.166  23.975   9.203
  553POPC   GL2 9758   1.107  23.634   9.116
  553POPC   C1A 9759   1.337  23.988   8.738
  553POPC   D2A 9760   1.239  23.779   8.330
  553POPC   C3A 9761   1.370  23.890   7.893
  553POPC   C4A 9762   1.329  23.735   7.461
  553POPC   C1B 9763   0.855  23.427   8.781
  553POPC   C2B 9764   0.958  23.346   8.355
  553POPC   C3B 9765   0.972  23.510   7.935
  553POPC   C4B 9766   0.924  23.409   7.497
  554POPC   NC3 9767  24.544   2.007   9.530
  554POPC   PO4 9768  24.220   1.558   9.310
  554POPC   GL1 9769  24.350   1.914   9.066
  554POPC   GL2 9770  24.699   1.905   9.070
  554POPC   C1A 9771  24.467   2.120   8.678
  554POPC   D2A 9772  24.414   2.012   8.263
  554POPC   C3A 9773  24.595   2.212   7.919
  554POPC   C4A 9774  24.671   2.117   7.487
  554POPC   C1B 9775  24.933   1.743   8.754
  554POPC   C2B 9776  24.880   1.699   8.337
  554POPC   C3B 9777  24.970   1.895   7.976
  554POPC   C4B 9778  24.976   1.751   7.578
  555POPC   NC3 9779  13.562  42.480   9.517
  555POPC   PO4 9780  13.815  41.869   9.436
  555POPC   GL1 9781  13.706  42.191   9.117
  555POPC   GL2 9782  13.387  42.341   9.045
  555POPC   C1A 9783  13.854  42.503   8.812
  555POPC   D2A 9784  14.016  42.698   8.400
  555POPC   C3A 9785  13.840  42.429   8.043
  555POPC   C4A 9786  13.728  42.097   7.781
  555POPC   C1B 9787  13.501  42.135   8.650
  555POPC   C2B 9788  13.435  42.186   8.223
  555POPC   C3B 9789  13.291  42.353   7.866
  555POPC   C4B 9790  13.316  42.146   7.481
  556POPC   NC3 9791  20.994  25.313   9.210
  556POPC   PO4 9792  20.394  25.293   9.495
  556POPC   GL1 9793  20.520  25.166   9.083
  556POPC   GL2 9794  20.569  25.538   9.032
  556POPC   C1A 9795  20.624  24.888   8.682
  556POPC   D2A 9796  20.490  25.073   8.247
  556POPC   C3A 9797  20.658  25.141   7.823
  556POPC   C4A 9798  20.916  25.467   7.578
  556POPC   C1B 9799  20.163  25.593   8.850
  556POPC   C2B 9800  20.173  25.639   8.388
  556POPC   C3B 9801  20.270  25.479   7.977
  556POPC   C4B 9802  20.233  25.848   7.767
  557POPC   NC3 9803  18.458  29.193   9.426
  557POPC   PO4 9804  17.802  29.317   9.328
  557POPC   GL1 9805  18.170  29.369   9.065
  557POPC   GL2 9806  18.178  28.981   9.062
  557POPC   C1A 9807  18.507  29.229   8.754
  557POPC   D2A 9808  18.413  28.983   8.378
  557POPC   C3A 9809  18.492  29.261   8.021
  557POPC   C4A 9810  18.396  28.947   7.774
  557POPC   C1B 9811  18.002  29.152   8.664
  557POPC   C2B 9812  18.166  29.419   8.402
  557POPC   C3B 9813  17.998  29.182   8.083
  557POPC   C4B 9814  18.059  29.326   7.692
  558POPC   NC3 9815  33.738  37.097   9.609
  558POPC   PO4 9816  34.210  36.614   9.436
  558POPC   GL1 9817  34.015  36.886   9.175
  558POPC   GL2 9818  33.722  36.673   9.235
  558POPC   C1A 9819  34.131  36.933   8.727
  558POPC   D2A 9820  33.845  37.057   8.390
  558POPC   C3A 9821  33.952  37.093   7.977
  558POPC   C4A 9822  33.943  36.865   7.569
  558POPC   C1B 9823  33.625  36.799   8.811
  558POPC   C2B 9824  33.467  36.679   8.425
  558POPC   C3B 9825  33.619  36.699   8.012
  558POPC   C4B 9826  33.455  36.636   7.606
  559POPC   NC3 9827  35.529  38.264   9.614
  559POPC   PO4 9828  34.972  38.459   9.245
  559POPC   GL1 9829  35.169  38.602   8.935
  559POPC   GL2 9830  35.457  38.473   9.002
  559POPC   C1A 9831  35.228  38.574   8.522
  559POPC   D2A 9832  35.261  38.238   8.284
  559POPC   C3A 9833  35.105  38.360   7.933
  559POPC   C4A 9834  35.259  38.369   7.540
  559POPC   C1B 9835  35.626  38.269   8.659
  559POPC   C2B 9836  35.730  38.476   8.264
  559POPC   C3B 9837  35.507  38.667   7.902
  559POPC   C4B 9838  35.374  38.867   7.522
  560POPC   NC3 9839  43.721  13.757   9.525
  560POPC   PO4 9840  43.550  13.067   9.426
  560POPC   GL1 9841  43.804  13.374   9.154
  560POPC   GL2 9842  44.090  13.670   9.180
  560POPC   C1A 9843  43.711  13.683   8.831
  560POPC   D2A 9844  43.693  13.912   8.420
  560POPC   C3A 9845  43.916  13.693   8.074
  560POPC   C4A 9846  43.761  13.549   7.663
  560POPC   C1B 9847  44.124  13.943   8.776
  560POPC   C2B 9848  44.330  13.916   8.352
  560POPC   C3B 9849  44.231  14.071   7.932
  560POPC   C4B 9850  44.204  13.781   7.605
  561POPC   NC3 9851  34.907  29.909   9.491
  561POPC   PO4 9852  34.284  30.235   9.475
  561POPC   GL1 9853  34.402  29.976   9.151
  561POPC   GL2 9854  34.603  29.671   9.153
  561POPC   C1A 9855  34.527  29.978   8.743
  561POPC   D2A 9856  34.437  29.748   8.387
  561POPC   C3A 9857  34.483  29.963   8.008
  561POPC   C4A 9858  34.305  30.041   7.600
  561POPC   C1B 9859  34.873  29.596   8.814
  561POPC   C2B 9860  34.960  29.745   8.410
  561POPC   C3B 9861  34.998  29.629   7.982
  561POPC   C4B 9862  34.790  29.854   7.617
  562POPC   NC3 9863   3.911   9.221   9.876
  562POPC   PO4 9864   3.500   9.812   9.738
  562POPC   GL1 9865   3.374   9.880   9.284
  562POPC   GL2 9866   3.624   9.712   9.093
  562POPC   C1A 9867   3.348  10.029   8.827
  562POPC   D2A 9868   3.457   9.838   8.429
  562POPC   C3A 9869   3.472  10.024   8.019
  562POPC   C4A 9870   3.555   9.821   7.641
  562POPC   C1B 9871   3.865   9.393   8.849
  562POPC   C2B 9872   4.047   9.448   8.446
  562POPC   C3B 9873   3.866   9.659   8.101
  562POPC   C4B 9874   3.825   9.405   7.743
  563POPC   NC3 9875  13.320   4.120   9.536
  563POPC   PO4 9876  13.666   4.744   9.575
  563POPC   GL1 9877  13.919   4.507   9.269
  563POPC   GL2 9878  13.666   4.285   9.174
  563POPC   C1A 9879  13.973   4.487   8.800
  563POPC   D2A 9880  13.805   4.246   8.439
  563POPC   C3A 9881  13.728   4.393   8.020
  563POPC   C4A 9882  13.782   4.024   7.805
  563POPC   C1B 9883  13.447   4.370   8.783
  563POPC   C2B 9884  13.324   4.469   8.364
  563POPC   C3B 9885  13.167   4.348   7.968
  563POPC   C4B 9886  13.301   4.380   7.547
  564POPC   NC3 9887  42.624  12.155   9.374
  564POPC   PO4 9888  42.349  11.505   9.497
  564POPC   GL1 9889  42.368  11.782   9.127
  564POPC   GL2 9890  42.737  11.651   9.154
  564POPC   C1A 9891  42.304  12.150   8.772
  564POPC   D2A 9892  42.534  12.269   8.332
  564POPC   C3A 9893  42.349  12.241   7.879
  564POPC   C4A 9894  42.095  11.849   7.746
  564POPC   C1B 9895  42.709  11.854   8.759
  564POPC   C2B 9896  42.414  11.764   8.439
  564POPC   C3B 9897  42.519  11.794   8.046
  564POPC   C4B 9898  42.538  11.583   7.666
  565POPC   NC3 9899   3.542  21.103   9.435
  565POPC   PO4 9900   3.649  20.393   9.466
  565POPC   GL1 9901   3.461  20.428   9.064
  565POPC   GL2 9902   3.499  20.802   9.022
  565POPC   C1A 9903   3.416  20.515   8.617
  565POPC   D2A 9904   3.694  20.632   8.311
  565POPC   C3A 9905   3.409  20.621   7.965
  565POPC   C4A 9906   3.195  20.456   7.624
  565POPC   C1B 9907   3.728  21.039   8.694
  565POPC   C2B 9908   3.987  21.088   8.299
  565POPC   C3B 9909   3.821  20.927   7.896
  565POPC   C4B 9910   3.591  20.885   7.491
  566POPC   NC3 9911  40.775  39.892   9.522
  566POPC   PO4 9912  40.518  40.458   9.432
  566POPC   GL1 9913  40.688  40.177   9.112
  566POPC   GL2 9914  40.488  39.855   9.105
  566POPC   C1A 9915  40.815  40.245   8.689
  566POPC   D2A 9916  41.015  40.169   8.311
  566POPC   C3A 9917  40.829  40.237   7.905
  566POPC   C4A 9918  40.925  40.069   7.496
  566POPC   C1B 9919  40.769  39.717   8.822
  566POPC   C2B 9920  40.940  39.693   8.438
  566POPC   C3B 9921  40.790  39.744   8.020
  566POPC   C4B 9922  40.494  39.834   7.702
  567POPC   NC3 9923   8.890  30.945   9.546
  567POPC   PO4 9924   9.287  30.428   9.564
  567POPC   GL1 9925   9.078  30.552   9.187
  567POPC   GL2 9926   9.329  30.404   8.987
  567POPC   C1A 9927   8.987  30.895   8.883
  567POPC   D2A 9928   9.158  30.968   8.472
  567POPC   C3A 9929   8.949  31.107   8.109
  567POPC   C4A 9930   8.863  30.823   7.810
  567POPC   C1B 9931   9.060  30.450   8.647
  567POPC   C2B 9932   9.014  30.310   8.232
  567POPC   C3B 9933   9.241  30.490   7.906
  567POPC   C4B 9934   9.478  30.520   7.524
  568POPC   NC3 9935  32.216  16.964   9.511
  568POPC   PO4 9936  32.657  16.417   9.512
  568POPC   GL1 9937  32.401  16.595   9.175
  568POPC   GL2 9938  32.522  16.929   9.102
  568POPC   C1A 9939  32.027  16.738   8.914
  568POPC   D2A 9940  31.946  16.830   8.488
  568POPC   C3A 9941  32.007  16.695   8.103
  568POPC   C4A 9942  32.310  16.516   7.865
  568POPC   C1B 9943  32.452  16.864   8.688
  568POPC   C2B 9944  32.478  16.719   8.330
  568POPC   C3B 9945  32.381  17.030   8.060
  568POPC   C4B 9946  32.112  17.038   7.710
  569POPC   NC3 9947  36.405  13.213   9.464
  569POPC   PO4 9948  35.808  12.942   9.548
  569POPC   GL1 9949  35.819  12.799   9.130
  569POPC   GL2 9950  36.167  12.835   9.180
  569POPC   C1A 9951  35.886  12.737   8.666
  569POPC   D2A 9952  35.962  12.976   8.278
  569POPC   C3A 9953  35.886  12.850   7.833
  569POPC   C4A 9954  35.760  12.598   7.444
  569POPC   C1B 9955  36.368  12.688   8.854
  569POPC   C2B 9956  36.424  12.798   8.434
  569POPC   C3B 9957  36.372  12.798   8.002
  569POPC   C4B 9958  36.580  13.143   7.789
  570POPC   NC3 9959  10.804   3.246   9.537
  570POPC   PO4 9960  10.762   2.539   9.469
  570POPC   GL1 9961  10.588   2.775   9.153
  570POPC   GL2 9962  10.858   2.986   9.113
  570POPC   C1A 9963  10.581   2.765   8.702
  570POPC   D2A 9964  10.283   2.843   8.405
  570POPC   C3A 9965  10.339   2.783   7.969
  570POPC   C4A 9966  10.522   2.465   7.750
  570POPC   C1B 9967  11.055   2.692   8.873
  570POPC   C2B 9968  11.107   2.708   8.438
  570POPC   C3B 9969  10.849   2.754   8.090
  570POPC   C4B 9970  10.910   2.749   7.668
  571POPC   NC3 9971   0.381   1.717   9.407
  571POPC   PO4 9972   0.850   1.192   9.504
  571POPC   GL1 9973   0.670   1.227   9.122
  571POPC   GL2 9974   0.324   1.276   9.165
  571POPC   C1A 9975   0.591   1.284   8.703
  571POPC   D2A 9976   0.766   1.202   8.337
  571POPC   C3A 9977   0.508   1.159   8.004
  571POPC   C4A 9978   0.644   1.297   7.632
  571POPC   C1B 9979   0.080   1.371   8.799
  571POPC   C2B 9980   0.114   1.209   8.393
  571POPC   C3B 9981   0.007   1.360   7.997
  571POPC   C4B 9982   0.139   1.199   7.618
  572POPC   NC3 9983   4.662  40.840   9.578
  572POPC   PO4 9984   4.045  40.873   9.414
  572POPC   GL1 9985   4.168  40.699   9.078
  572POPC   GL2 9986   4.475  40.747   9.102
  572POPC   C1A 9987   4.187  40.815   8.674
  572POPC   D2A 9988   4.149  40.564   8.340
  572POPC   C3A 9989   4.154  40.832   8.010
  572POPC   C4A 9990   4.149  40.629   7.643
  572POPC   C1B 9991   4.702  40.825   8.694
  572POPC   C2B 9992   4.616  40.843   8.250
  572POPC   C3B 9993   4.619  40.793   7.820
  572POPC   C4B 9994   4.523  40.906   7.408
  573POPC   NC3 9995  27.361  15.669   9.420
  573POPC   PO4 9996  27.613  16.363   9.436
  573POPC   GL1 9997  27.474  16.169   9.067
  573POPC   GL2 9998  27.504  15.807   8.969
  573POPC   C1A 9999  27.597  16.163   8.621
  573POPC   D2A10000  27.580  15.839   8.309
  573POPC   C3A10001  27.794  15.989   7.935
  573POPC   C4A10002  27.645  15.863   7.535
  573POPC   C1B10003  27.140  15.942   8.731
  573POPC   C2B10004  27.136  16.172   8.338
  573POPC   C3B10005  27.329  16.212   7.927
  573POPC   C4B10006  27.600  16.371   7.574
  574POPC   NC310007  15.103   3.661   9.654
  574POPC   PO410008  14.811   3.184   9.282
  574POPC   GL110009  15.032   3.512   9.149
  574POPC   GL210010  15.371   3.433   9.229
  574POPC   C1A10011  15.078   3.613   8.724
  574POPC   D2A10012  14.893   3.436   8.345
  574POPC   C3A10013  14.937   3.729   8.010
  574POPC   C4A10014  15.335   3.714   7.850
  574POPC   C1B10015  15.389   3.207   8.823
  574POPC   C2B10016  15.335   3.029   8.414
  574POPC   C3B10017  15.436   3.174   7.982
  574POPC   C4B10018  15.461   3.344   7.531
  575POPC   NC310019  32.308  39.304   9.593
  575POPC   PO410020  31.689  39.204   9.669
  575POPC   GL110021  31.977  39.061   9.260
  575POPC   GL210022  32.130  39.310   9.109
  575POPC   C1A10023  32.310  38.975   8.826
  575POPC   D2A10024  32.551  39.095   8.427
  575POPC   C3A10025  32.420  38.977   7.992
  575POPC   C4A10026  32.006  39.080   7.794
  575POPC   C1B10027  32.298  39.486   8.752
  575POPC   C2B10028  32.211  39.689   8.386
  575POPC   C3B10029  32.348  39.479   8.036
  575POPC   C4B10030  32.231  39.502   7.625
  576POPC   NC310031  20.890   2.829   9.603
  576POPC   PO410032  21.290   2.291   9.780
  576POPC   GL110033  21.370   2.482   9.302
  576POPC   GL210034  21.373   2.876   9.296
  576POPC   C1A10035  21.196   2.630   8.900
  576POPC   D2A10036  21.259   2.967   8.571
  576POPC   C3A10037  21.390   2.784   8.177
  576POPC   C4A10038  21.260   2.493   7.824
  576POPC   C1B10039  21.564   3.151   8.947
  576POPC   C2B10040  21.686   3.227   8.486
  576POPC   C3B10041  21.663   3.186   8.019
  576POPC   C4B10042  21.319   3.087   7.678
  577POPC   NC310043  11.273  21.921   9.757
  577POPC   PO410044  11.351  21.320   9.581
  577POPC   GL110045  11.298  21.506   9.197
  577POPC   GL210046  11.005  21.375   9.162
  577POPC   C1A10047  11.454  21.315   8.803
  577POPC   D2A10048  11.548  21.419   8.385
  577POPC   C3A10049  11.371  21.326   7.989
  577POPC   C4A10050  11.407  21.576   7.625
  577POPC   C1B10051  11.041  21.581   8.736
  577POPC   C2B10052  10.999  21.802   8.372
  577POPC   C3B10053  10.767  21.808   8.010
  577POPC   C4B10054  10.863  21.558   7.650
  578POPC   NC310055  14.454  33.337   9.466
  578POPC   PO410056  14.140  32.693   9.418
  578POPC   GL110057  14.349  32.961   9.117
  578POPC   GL210058  14.699  32.920   8.974
  578POPC   C1A10059  14.372  33.290   8.802
  578POPC   D2A10060  14.608  33.177   8.455
  578POPC   C3A10061  14.396  33.143   8.069
  578POPC   C4A10062  14.040  33.030   7.820
  578POPC   C1B10063  14.491  32.685   8.668
  578POPC   C2B10064  14.622  32.633   8.240
  578POPC   C3B10065  14.700  32.771   7.831
  578POPC   C4B10066  14.795  32.723   7.372
  579POPC   NC310067  15.869  24.721   9.429
  579POPC   PO410068  16.183  24.146   9.500
  579POPC   GL110069  16.145  24.388   9.130
  579POPC   GL210070  15.778  24.285   9.104
  579POPC   C1A10071  16.114  24.292   8.680
  579POPC   D2A10072  15.835  24.394   8.324
  579POPC   C3A10073  15.997  24.700   8.055
  579POPC   C4A10074  16.185  24.625   7.633
  579POPC   C1B10075  15.693  24.597   8.780
  579POPC   C2B10076  15.601  24.872   8.435
  579POPC   C3B10077  15.466  24.884   8.020
  579POPC   C4B10078  15.696  24.747   7.643
  580POPC   NC310079  44.080  41.199   9.450
  580POPC   PO410080  43.390  41.356   9.577
  580POPC   GL110081  43.651  41.354   9.211
  580POPC   GL210082  43.777  41.721   9.204
  580POPC   C1A10083  43.823  41.404   8.792
  580POPC   D2A10084  43.752  41.629   8.396
  580POPC   C3A10085  43.831  41.439   8.010
  580POPC   C4A10086  43.665  41.442   7.598
  580POPC   C1B10087  43.739  41.968   8.798
  580POPC   C2B10088  43.972  42.112   8.408
  580POPC   C3B10089  43.941  41.933   7.965
  580POPC   C4B10090  44.138  41.688   7.627
  581POPC   NC310091  33.480  20.638   9.428
  581POPC   PO410092  33.927  20.179   9.341
  581POPC   GL110093  33.748  20.435   9.053
  581POPC   GL210094  33.464  20.245   8.994
  581POPC   C1A10095  33.765  20.817   8.810
  581POPC   D2A10096  33.982  20.871   8.447
  581POPC   C3A10097  33.866  20.724   8.071
  581POPC   C4A10098  33.817  20.838   7.681
  581POPC   C1B10099  33.443  20.460   8.625
  581POPC   C2B10100  33.440  20.410   8.217
  581POPC   C3B10101  33.339  20.135   7.916
  581POPC   C4B10102  33.448  20.295   7.557
  582POPC   NC310103   3.387  14.625   9.365
  582POPC   PO410104   3.971  14.227   9.345
  582POPC   GL110105   3.645  14.271   9.088
  582POPC   GL210106   3.687  14.613   8.951
  582POPC   C1A10107   3.429  14.157   8.726
  582POPC   D2A10108   3.446  14.334   8.331
  582POPC   C3A10109   3.594  14.105   7.991
  582POPC   C4A10110   3.386  14.099   7.608
  582POPC   C1B10111   3.307  14.691   8.685
  582POPC   C2B10112   3.295  14.841   8.232
  582POPC   C3B10113   3.569  14.625   7.925
  582POPC   C4B10114   3.779  14.801   7.612
  583POPC   NC310115  15.204  37.613   9.483
  583POPC   PO410116  14.617  37.515   9.143
  583POPC   GL110117  15.074  37.648   8.997
  583POPC   GL210118  15.425  37.813   9.055
  583POPC   C1A10119  15.132  37.793   8.608
  583POPC   D2A10120  14.764  37.765   8.350
  583POPC   C3A10121  14.982  37.664   8.034
  583POPC   C4A10122  15.116  37.867   7.704
  583POPC   C1B10123  15.745  37.982   8.762
  583POPC   C2B10124  15.819  37.816   8.353
  583POPC   C3B10125  15.521  37.942   8.041
  583POPC   C4B10126  15.500  38.317   7.830
  584POPC   NC310127   0.066  23.303   9.535
  584POPC   PO410128   0.328  22.694   9.587
  584POPC   GL110129   0.194  22.881   9.222
  584POPC   GL210130   0.501  22.999   9.173
  584POPC   C1A10131   0.157  22.991   8.790
  584POPC   D2A10132  44.965  23.011   8.386
  584POPC   C3A10133   0.196  23.005   8.001
  584POPC   C4A10134   0.272  23.341   7.699
  584POPC   C1B10135   0.680  22.958   8.844
  584POPC   C2B10136   0.567  23.041   8.484
  584POPC   C3B10137   0.724  22.942   8.128
  584POPC   C4B10138   0.674  23.063   7.755
  585POPC   NC310139  14.880  42.283   9.571
  585POPC   PO410140  15.222  42.854   9.664
  585POPC   GL110141  14.957  42.635   9.247
  585POPC   GL210142  15.204  42.343   9.127
  585POPC   C1A10143  14.848  42.437   8.803
  585POPC   D2A10144  14.914  42.160   8.410
  585POPC   C3A10145  14.884  42.333   7.976
  585POPC   C4A10146  15.217  42.582   7.774
  585POPC   C1B10147  15.532  42.070   8.877
  585POPC   C2B10148  15.424  41.958   8.473
  585POPC   C3B10149  15.348  42.181   8.104
  585POPC   C4B10150  15.364  42.076   7.696
  586POPC   NC310151  16.966  19.513   9.522
  586POPC   PO410152  16.487  19.959   9.465
  586POPC   GL110153  16.738  19.802   9.136
  586POPC   GL210154  16.649  19.461   9.113
  586POPC   C1A10155  16.823  19.677   8.689
  586POPC   D2A10156  16.812  20.008   8.428
  586POPC   C3A10157  16.739  19.905   8.078
  586POPC   C4A10158  16.808  20.166   7.738
  586POPC   C1B10159  16.382  19.421   8.745
  586POPC   C2B10160  16.378  19.603   8.341
  586POPC   C3B10161  16.476  19.450   7.962
  586POPC   C4B10162  16.616  19.694   7.646
  587POPC   NC310163  18.330  17.156   9.436
  587POPC   PO410164  18.210  16.493   9.421
  587POPC   GL110165  18.450  16.583   9.070
  587POPC   GL210166  18.383  16.935   8.994
  587POPC   C1A10167  18.466  16.539   8.636
  587POPC   D2A10168  18.188  16.630   8.290
  587POPC   C3A10169  18.397  16.554   7.938
  587POPC   C4A10170  18.662  16.440   7.628
  587POPC   C1B10171  18.086  16.935   8.685
  587POPC   C2B10172  18.091  17.138   8.268
  587POPC   C3B10173  18.106  17.018   7.823
  587POPC   C4B10174  17.972  17.087   7.326
  588POPC   NC310175  12.686   1.851   9.493
  588POPC   PO410176  13.155   2.404   9.511
  588POPC   GL110177  13.046   2.188   9.132
  588POPC   GL210178  12.966   1.824   9.073
  588POPC   C1A10179  12.820   2.203   8.727
  588POPC   D2A10180  12.609   2.437   8.400
  588POPC   C3A10181  12.657   2.282   8.000
  588POPC   C4A10182  12.561   2.121   7.595
  588POPC   C1B10183  12.960   1.691   8.653
  588POPC   C2B10184  13.012   1.910   8.269
  588POPC   C3B10185  12.964   1.896   7.835
  588POPC   C4B10186  13.065   1.667   7.473
  589POPC   NC310187  42.935  14.072   9.920
  589POPC   PO410188  43.127  14.669   9.693
  589POPC   GL110189  43.210  14.546   9.246
  589POPC   GL210190  43.406  14.219   9.213
  589POPC   C1A10191  43.325  14.666   8.822
  589POPC   D2A10192  43.489  14.482   8.445
  589POPC   C3A10193  43.235  14.531   8.052
  589POPC   C4A10194  43.144  14.766   7.649
  589POPC   C1B10195  43.056  14.238   8.877
  589POPC   C2B10196  43.019  14.188   8.415
  589POPC   C3B10197  43.181  14.036   8.025
  589POPC   C4B10198  43.129  14.258   7.587
  590POPC   NC310199  43.584  14.629   9.569
  590POPC   PO410200  44.015  14.130   9.476
  590POPC   GL110201  43.907  14.459   9.182
  590POPC   GL210202  43.726  14.769   9.097
  590POPC   C1A10203  44.074  14.499   8.784
  590POPC   D2A10204  44.017  14.298   8.394
  590POPC   C3A10205  43.745  14.297   8.052
  590POPC   C4A10206  43.966  14.480   7.753
  590POPC   C1B10207  43.789  14.887   8.672
  590POPC   C2B10208  43.901  14.786   8.248
  590POPC   C3B10209  43.620  14.812   7.908
  590POPC   C4B10210  43.554  14.537   7.485
  591POPC   NC310211   4.699  36.081   9.779
  591POPC   PO410212   5.286  36.141   9.461
  591POPC   GL110213   5.182  36.374   9.087
  591POPC   GL210214   4.881  36.251   9.174
  591POPC   C1A10215   5.194  36.357   8.610
  591POPC   D2A10216   5.301  36.089   8.293
  591POPC   C3A10217   5.274  36.102   7.879
  591POPC   C4A10218   5.198  35.793   7.643
  591POPC   C1B10219   4.733  36.292   8.768
  591POPC   C2B10220   4.785  36.035   8.400
  591POPC   C3B10221   4.800  35.914   7.985
  591POPC   C4B10222   4.445  35.903   7.731
  592POPC   NC310223  44.211  39.695   9.217
  592POPC   PO410224  44.271  39.134   9.589
  592POPC   GL110225  44.021  39.234   9.192
  592POPC   GL210226  43.789  39.033   9.097
  592POPC   C1A10227  43.951  39.379   8.726
  592POPC   D2A10228  44.162  39.281   8.344
  592POPC   C3A10229  44.192  39.475   7.935
  592POPC   C4A10230  44.016  39.180   7.639
  592POPC   C1B10231  43.498  39.156   8.749
  592POPC   C2B10232  43.665  39.125   8.304
  592POPC   C3B10233  43.659  39.416   7.935
  592POPC   C4B10234  43.481  39.276   7.521
  593POPC   NC310235  43.354  40.929   9.410
  593POPC   PO410236  44.002  40.706   9.469
  593POPC   GL110237  43.847  40.850   9.123
  593POPC   GL210238  43.606  40.597   9.100
  593POPC   C1A10239  43.767  40.892   8.710
  593POPC   D2A10240  43.611  41.095   8.402
  593POPC   C3A10241  43.812  40.940   8.057
  593POPC   C4A10242  43.992  41.067   7.679
  593POPC   C1B10243  43.582  40.409   8.710
  593POPC   C2B10244  43.856  40.298   8.388
  593POPC   C3B10245  43.874  40.447   7.989
  593POPC   C4B10246  43.871  40.575   7.582
  594POPC   NC310247  32.678   8.095   9.572
  594POPC   PO410248  33.289   8.161   9.795
  594POPC   GL110249  33.142   8.326   9.373
  594POPC   GL210250  33.207   8.091   9.097
  594POPC   C1A10251  33.103   8.544   8.932
  594POPC   D2A10252  33.166   8.391   8.492
  594POPC   C3A10253  32.848   8.475   8.152
  594POPC   C4A10254  32.722   8.372   7.744
  594POPC   C1B10255  32.933   7.903   8.794
  594POPC   C2B10256  32.847   7.997   8.372
  594POPC   C3B10257  33.047   8.009   7.986
  594POPC   C4B10258  33.386   7.916   7.726
  595POPC   NC310259  26.152  20.947   9.372
  595POPC   PO410260  25.920  21.597   9.473
  595POPC   GL110261  26.070  21.446   9.079
  595POPC   GL210262  25.985  21.120   8.905
  595POPC   C1A10263  26.101  21.562   8.640
  595POPC   D2A10264  25.904  21.352   8.324
  595POPC   C3A10265  26.176  21.205   8.022
  595POPC   C4A10266  26.111  21.135   7.591
  595POPC   C1B10267  25.626  21.436   8.846
  595POPC   C2B10268  25.481  21.710   8.516
  595POPC   C3B10269  25.522  21.594   8.080
  595POPC   C4B10270  25.899  21.579   7.813
  596POPC   NC310271  29.142  39.679   9.640
  596POPC   PO410272  29.238  40.345   9.568
  596POPC   GL110273  29.209  40.010   9.179
  596POPC   GL210274  28.891  39.782   9.208
  596POPC   C1A10275  29.304  40.035   8.707
  596POPC   D2A10276  29.326  40.371   8.354
  596POPC   C3A10277  29.508  40.304   7.925
  596POPC   C4A10278  29.467  39.895   7.705
  596POPC   C1B10279  28.729  39.840   8.799
  596POPC   C2B10280  28.915  39.845   8.398
  596POPC   C3B10281  29.076  40.035   8.032
  596POPC   C4B10282  28.965  40.451   7.891
  597POPC   NC310283  20.796  31.857   9.175
  597POPC   PO410284  20.450  31.457   9.565
  597POPC   GL110285  20.470  31.401   9.160
  597POPC   GL210286  20.178  31.258   9.057
  597POPC   C1A10287  20.565  31.427   8.740
  597POPC   D2A10288  20.675  31.294   8.350
  597POPC   C3A10289  20.709  31.547   7.999
  597POPC   C4A10290  21.065  31.577   7.786
  597POPC   C1B10291  20.087  31.282   8.637
  597POPC   C2B10292  20.210  31.093   8.251
  597POPC   C3B10293  20.408  31.172   7.874
  597POPC   C4B10294  20.285  31.399   7.480
  598POPC   NC310295  32.245   1.302   9.556
  598POPC   PO410296  32.575   0.729   9.503
  598POPC   GL110297  32.310   0.950   9.156
  598POPC   GL210298  32.425   1.334   9.093
  598POPC   C1A10299  32.406   1.040   8.706
  598POPC   D2A10300  32.521   1.139   8.302
  598POPC   C3A10301  32.169   0.933   8.086
  598POPC   C4A10302  32.159   0.905   7.678
  598POPC   C1B10303  32.078   1.458   8.777
  598POPC   C2B10304  32.082   1.411   8.309
  598POPC   C3B10305  32.290   1.386   7.880
  598POPC   C4B10306  32.121   1.444   7.462
  599POPC   NC310307  15.449  16.508   9.615
  599POPC   PO410308  15.051  16.878   9.331
  599POPC   GL110309  15.151  16.482   9.098
  599POPC   GL210310  15.494  16.326   9.143
  599POPC   C1A10311  14.959  16.350   8.720
  599POPC   D2A10312  15.117  16.556   8.342
  599POPC   C3A10313  15.210  16.543   7.891
  599POPC   C4A10314  15.000  16.690   7.521
  599POPC   C1B10315  15.561  16.652   8.825
  599POPC   C2B10316  15.465  16.965   8.509
  599POPC   C3B10317  15.438  16.971   8.060
  599POPC   C4B10318  15.709  16.631   7.873
  600POPC   NC310319  17.152  28.766   9.561
  600POPC   PO410320  16.603  28.424   9.460
  600POPC   GL110321  16.857  28.410   9.076
  600POPC   GL210322  16.645  28.141   8.954
  600POPC   C1A10323  17.072  28.273   8.708
  600POPC   D2A10324  16.781  28.258   8.428
  600POPC   C3A10325  16.978  28.110   8.084
  600POPC   C4A10326  16.888  28.162   7.673
  600POPC   C1B10327  16.424  28.496   8.766
  600POPC   C2B10328  16.308  28.642   8.365
  600POPC   C3B10329  16.576  28.778   8.036
  600POPC   C4B10330  16.593  28.593   7.628
  601POPC   NC310331  36.559  17.697   9.432
  601POPC   PO410332  37.267  17.415   9.459
  601POPC   GL110333  37.014  17.559   9.134
  601POPC   GL210334  36.891  17.232   9.056
  601POPC   C1A10335  36.826  17.859   8.828
  601POPC   D2A10336  36.784  17.954   8.393
  601POPC   C3A10337  36.537  17.757   8.052
  601POPC   C4A10338  36.724  17.549   7.702
  601POPC   C1B10339  36.898  17.395   8.645
  601POPC   C2B10340  36.808  17.370   8.215
  601POPC   C3B10341  36.900  17.097   7.912
  601POPC   C4B10342  37.049  17.183   7.543
  602POPC   NC310343  18.641  13.545   9.528
  602POPC   PO410344  19.291  13.859   9.429
  602POPC   GL110345  18.977  13.678   9.165
  602POPC   GL210346  19.249  13.603   8.974
  602POPC   C1A10347  18.821  13.577   8.742
  602POPC   D2A10348  19.060  13.744   8.391
  602POPC   C3A10349  18.924  13.647   7.969
  602POPC   C4A10350  18.740  13.792   7.602
  602POPC   C1B10351  19.468  13.884   8.718
  602POPC   C2B10352  19.627  13.904   8.334
  602POPC   C3B10353  19.585  14.130   7.977
  602POPC   C4B10354  19.366  13.821   7.754
  603POPC   NC310355  27.568  32.121   9.599
  603POPC   PO410356  27.241  32.642   9.307
  603POPC   GL110357  27.522  32.395   9.071
  603POPC   GL210358  27.532  32.038   9.103
  603POPC   C1A10359  27.536  32.269   8.644
  603POPC   D2A10360  27.728  32.128   8.261
  603POPC   C3A10361  27.501  32.347   7.919
  603POPC   C4A10362  27.423  32.674   7.602
  603POPC   C1B10363  27.290  31.851   8.775
  603POPC   C2B10364  27.367  31.742   8.337
  603POPC   C3B10365  27.478  31.839   7.884
  603POPC   C4B10366  27.461  32.101   7.475
  604POPC   NC310367  21.029  21.138   9.388
  604POPC   PO410368  21.566  21.542   9.514
  604POPC   GL110369  21.472  21.638   9.116
  604POPC   GL210370  21.173  21.494   9.043
  604POPC   C1A10371  21.547  21.563   8.691
  604POPC   D2A10372  21.733  21.442   8.341
  604POPC   C3A10373  21.415  21.384   8.026
  604POPC   C4A10374  21.406  21.033   7.742
  604POPC   C1B10375  20.983  21.681   8.673
  604POPC   C2B10376  21.162  21.774   8.300
  604POPC   C3B10377  20.984  21.670   7.887
  604POPC   C4B10378  20.842  21.816   7.460
  605POPC   NC310379  22.947  24.411   9.527
  605POPC   PO410380  23.235  24.998   9.379
  605POPC   GL110381  22.953  24.724   9.135
  605POPC   GL210382  22.995  24.382   9.028
  605POPC   C1A10383  22.620  24.699   8.839
  605POPC   D2A10384  22.487  24.587   8.441
  605POPC   C3A10385  22.607  24.838   8.095
  605POPC   C4A10386  22.772  24.563   7.766
  605POPC   C1B10387  22.882  24.240   8.634
  605POPC   C2B10388  23.116  24.269   8.270
  605POPC   C3B10389  23.050  24.146   7.869
  605POPC   C4B10390  23.160  24.313   7.480
  606POPC   NC310391  38.764  22.856   9.426
  606POPC   PO410392  39.368  23.047   9.570
  606POPC   GL110393  39.207  22.920   9.160
  606POPC   GL210394  38.988  22.620   9.042
  606POPC   C1A10395  39.345  22.902   8.754
  606POPC   D2A10396  39.310  22.924   8.344
  606POPC   C3A10397  39.411  22.566   8.117
  606POPC   C4A10398  39.544  22.563   7.702
  606POPC   C1B10399  38.855  22.777   8.637
  606POPC   C2B10400  38.909  22.650   8.205
  606POPC   C3B10401  39.096  22.919   7.865
  606POPC   C4B10402  38.865  23.062   7.519
  607POPC   NC310403   4.876   0.807   9.208
  607POPC   PO410404   5.243   0.271   9.517
  607POPC   GL110405   5.100   0.349   9.104
  607POPC   GL210406   5.435   0.208   9.043
  607POPC   C1A10407   4.859   0.522   8.679
  607POPC   D2A10408   4.742   0.698   8.270
  607POPC   C3A10409   4.963   0.476   7.955
  607POPC   C4A10410   5.200   0.647   7.616
  607POPC   C1B10411   5.308   0.264   8.628
  607POPC   C2B10412   5.461   0.075   8.280
  607POPC   C3B10413   5.329   0.158   7.858
  607POPC   C4B10414   5.255   0.205   7.414
  608POPC   NC310415  44.863  25.548   9.449
  608POPC   PO410416  44.623  24.900   9.505
  608POPC   GL110417  44.554  25.145   9.064
  608POPC   GL210418  44.499  25.478   9.033
  608POPC   C1A10419  44.504  25.274   8.565
  608POPC   D2A10420  44.626  25.033   8.206
  608POPC   C3A10421  44.776  25.290   7.898
  608POPC   C4A10422  44.462  25.546   7.833
  608POPC   C1B10423  44.925  25.416   8.802
  608POPC   C2B10424   0.008  25.474   8.352
  608POPC   C3B10425  44.996  25.759   7.979
  608POPC   C4B10426  44.818  25.798   7.569
  609POPC   NC310427  24.307  11.890   9.482
  609POPC   PO410428  24.183  12.495   9.476
  609POPC   GL110429  24.393  12.285   9.131
  609POPC   GL210430  24.479  11.919   9.022
  609POPC   C1A10431  24.248  12.242   8.729
  609POPC   D2A10432  24.363  11.862   8.512
  609POPC   C3A10433  24.523  12.021   8.152
  609POPC   C4A10434  24.533  11.972   7.738
  609POPC   C1B10435  24.765  12.128   8.759
  609POPC   C2B10436  25.008  12.043   8.385
  609POPC   C3B10437  25.042  12.110   7.945
  609POPC   C4B10438  24.930  12.259   7.533
  610POPC   NC310439   1.798   9.859   9.339
  610POPC   PO410440   1.099   9.924   9.578
  610POPC   GL110441   1.043   9.792   9.166
  610POPC   GL210442   1.349   9.890   9.082
  610POPC   C1A10443   1.045   9.777   8.696
  610POPC   D2A10444   0.910  10.039   8.355
  610POPC   C3A10445   0.965   9.725   8.041
  610POPC   C4A10446   1.262   9.590   7.726
  610POPC   C1B10447   1.505  10.017   8.674
  610POPC   C2B10448   1.402   9.984   8.219
  610POPC   C3B10449   1.567  10.031   7.823
  610POPC   C4B10450   1.751   9.689   7.581
  611POPC   NC310451   5.754  27.982   9.515
  611POPC   PO410452   5.701  27.320   9.300
  611POPC   GL110453   5.919  27.669   9.140
  611POPC   GL210454   5.615  27.843   9.055
  611POPC   C1A10455   6.007  27.785   8.732
  611POPC   D2A10456   6.141  27.577   8.387
  611POPC   C3A10457   5.976  27.428   8.024
  611POPC   C4A10458   6.177  27.615   7.714
  611POPC   C1B10459   5.490  28.014   8.688
  611POPC   C2B10460   5.669  27.848   8.334
  611POPC   C3B10461   5.886  27.936   8.003
  611POPC   C4B10462   5.691  27.732   7.664
  612POPC   NC310463  37.614   2.907   9.521
  612POPC   PO410464  37.183   2.425   9.258
  612POPC   GL110465  37.473   2.739   9.059
  612POPC   GL210466  37.821   2.726   9.109
  612POPC   C1A10467  37.639   3.048   8.753
  612POPC   D2A10468  37.471   3.139   8.345
  612POPC   C3A10469  37.656   3.029   7.938
  612POPC   C4A10470  37.561   2.612   7.767
  612POPC   C1B10471  37.783   2.526   8.728
  612POPC   C2B10472  37.827   2.721   8.361
  612POPC   C3B10473  37.996   2.650   7.993
  612POPC   C4B10474  38.080   2.708   7.559
  613POPC   NC310475  16.721   2.455   9.455
  613POPC   PO410476  16.415   3.094   9.468
  613POPC   GL110477  16.512   2.795   9.133
  613POPC   GL210478  16.836   2.841   9.073
  613POPC   C1A10479  16.580   2.629   8.716
  613POPC   D2A10480  16.650   2.807   8.321
  613POPC   C3A10481  16.457   2.683   7.967
  613POPC   C4A10482  16.461   2.982   7.688
  613POPC   C1B10483  16.945   3.022   8.691
  613POPC   C2B10484  17.140   2.939   8.302
  613POPC   C3B10485  16.974   2.698   7.951
  613POPC   C4B10486  16.992   2.627   7.501
  614POPC   NC310487  39.230  39.613   9.349
  614POPC   PO410488  39.392  40.326   9.552
  614POPC   GL110489  39.214  40.120   9.180
  614POPC   GL210490  39.500  39.929   9.071
  614POPC   C1A10491  39.160  40.122   8.714
  614POPC   D2A10492  39.083  39.798   8.342
  614POPC   C3A10493  38.859  39.937   7.963
  614POPC   C4A10494  38.858  40.318   7.696
  614POPC   C1B10495  39.551  39.811   8.637
  614POPC   C2B10496  39.482  40.119   8.308
  614POPC   C3B10497  39.489  39.966   7.923
  614POPC   C4B10498  39.595  39.503   7.838
  615POPC   NC310499  42.015  28.327   9.451
  615POPC   PO410500  42.664  28.583   9.378
  615POPC   GL110501  42.411  28.633   9.042
  615POPC   GL210502  42.211  28.331   8.986
  615POPC   C1A10503  42.371  28.594   8.585
  615POPC   D2A10504  42.557  28.518   8.205
  615POPC   C3A10505  42.264  28.725   7.907
  615POPC   C4A10506  42.213  28.565   7.479
  615POPC   C1B10507  42.483  28.092   8.688
  615POPC   C2B10508  42.425  27.853   8.297
  615POPC   C3B10509  42.410  28.094   7.933
  615POPC   C4B10510  42.810  28.135   7.893
  616POPC   NC310511   9.426   3.280   9.385
  616POPC   PO410512   9.003   3.778   9.624
  616POPC   GL110513   9.035   3.667   9.177
  616POPC   GL210514   8.980   3.297   9.102
  616POPC   C1A10515   9.101   3.649   8.714
  616POPC   D2A10516   9.006   3.476   8.287
  616POPC   C3A10517   9.120   3.756   7.911
  616POPC   C4A10518   8.879   3.841   7.548
  616POPC   C1B10519   9.154   3.099   8.700
  616POPC   C2B10520   9.406   3.140   8.318
  616POPC   C3B10521   9.305   3.308   7.907
  616POPC   C4B10522   8.857   3.356   7.721
  617POPC   NC310523   7.895  17.413   9.507
  617POPC   PO410524   8.358  17.881   9.444
  617POPC   GL110525   8.452  17.630   9.083
  617POPC   GL210526   8.221  17.394   9.029
  617POPC   C1A10527   8.545  17.322   8.660
  617POPC   D2A10528   8.186  17.117   8.434
  617POPC   C3A10529   8.037  17.265   8.036
  617POPC   C4A10530   8.258  17.539   7.759
  617POPC   C1B10531   8.308  17.767   8.639
  617POPC   C2B10532   8.343  17.820   8.198
  617POPC   C3B10533   8.592  17.931   7.845
  617POPC   C4B10534   8.491  17.822   7.400
  618POPC   NC310535  11.574  13.743   9.616
  618POPC   PO410536  11.012  13.519   9.516
  618POPC   GL110537  11.361  13.443   9.247
  618POPC   GL210538  11.446  13.793   9.122
  618POPC   C1A10539  11.387  13.349   8.815
  618POPC   D2A10540  11.388  13.633   8.470
  618POPC   C3A10541  11.420  13.553   8.020
  618POPC   C4A10542  11.084  13.491   7.779
  618POPC   C1B10543  11.122  13.880   8.816
  618POPC   C2B10544  11.045  14.081   8.401
  618POPC   C3B10545  11.103  13.974   7.979
  618POPC   C4B10546  11.184  13.937   7.532
  619POPC   NC310547  32.450  29.972   9.486
  619POPC   PO410548  32.125  29.470   9.524
  619POPC   GL110549  32.137  29.715   9.155
  619POPC   GL210550  31.838  29.560   9.057
  619POPC   C1A10551  32.371  29.926   8.809
  619POPC   D2A10552  32.269  30.184   8.448
  619POPC   C3A10553  32.414  30.188   8.034
  619POPC   C4A10554  32.377  29.858   7.761
  619POPC   C1B10555  31.934  29.724   8.654
  619POPC   C2B10556  32.132  29.717   8.231
  619POPC   C3B10557  31.927  29.546   7.849
  619POPC   C4B10558  32.073  29.667   7.427
  620POPC   NC310559  35.739  44.328   9.175
  620POPC   PO410560  35.450  44.848   9.554
  620POPC   GL110561  35.305  44.691   9.191
  620POPC   GL210562  35.108  44.449   9.301
  620POPC   C1A10563  35.161  44.776   8.773
  620POPC   D2A10564  35.352  44.971   8.370
  620POPC   C3A10565  35.413  44.718   8.018
  620POPC   C4A10566  35.788  44.837   7.815
  620POPC   C1B10567  34.908  44.334   8.908
  620POPC   C2B10568  35.069  44.336   8.491
  620POPC   C3B10569  34.925  44.267   8.096
  620POPC   C4B10570  35.062  44.425   7.742
  621POPC   NC310571  42.274   1.623   9.460
  621POPC   PO410572  42.546   0.994   9.662
  621POPC   GL110573  42.501   1.175   9.276
  621POPC   GL210574  42.626   0.895   9.146
  621POPC   C1A10575  42.597   1.349   8.867
  621POPC   D2A10576  42.396   1.274   8.502
  621POPC   C3A10577  42.609   1.177   8.139
  621POPC   C4A10578  42.508   1.393   7.777
  621POPC   C1B10579  42.491   0.847   8.761
  621POPC   C2B10580  42.326   0.787   8.353
  621POPC   C3B10581  42.560   0.670   8.026
  621POPC   C4B10582  42.623   0.906   7.690
  622POPC   NC310583   8.559  32.047   9.475
  622POPC   PO410584   9.242  32.270   9.597
  622POPC   GL110585   9.152  32.287   9.177
  622POPC   GL210586   8.828  32.397   9.203
  622POPC   C1A10587   9.078  32.125   8.764
  622POPC   D2A10588   8.974  31.948   8.382
  622POPC   C3A10589   8.994  32.166   8.001
  622POPC   C4A10590   8.919  32.027   7.621
  622POPC   C1B10591   8.800  32.560   8.796
  622POPC   C2B10592   8.822  32.441   8.392
  622POPC   C3B10593   8.702  32.602   7.997
  622POPC   C4B10594   8.871  32.540   7.611
  623POPC   NC310595  20.551  17.038   9.487
  623POPC   PO410596  20.666  16.316   9.583
  623POPC   GL110597  20.622  16.396   9.145
  623POPC   GL210598  20.800  16.711   9.133
  623POPC   C1A10599  20.508  16.564   8.742
  623POPC   D2A10600  20.290  16.644   8.368
  623POPC   C3A10601  20.398  16.370   8.090
  623POPC   C4A10602  20.635  16.541   7.789
  623POPC   C1B10603  20.823  16.970   8.749
  623POPC   C2B10604  20.975  17.055   8.364
  623POPC   C3B10605  20.803  16.991   7.990
  623POPC   C4B10606  21.063  16.996   7.661
  624POPC   NC310607  44.097  22.389   9.401
  624POPC   PO410608  44.052  21.756   9.294
  624POPC   GL110609  43.833  22.091   9.046
  624POPC   GL210610  43.573  22.244   9.251
  624POPC   C1A10611  43.798  22.138   8.587
  624POPC   D2A10612  43.845  21.818   8.236
  624POPC   C3A10613  43.992  22.031   7.860
  624POPC   C4A10614  44.314  22.386   7.906
  624POPC   C1B10615  43.433  22.499   8.903
  624POPC   C2B10616  43.421  22.513   8.461
  624POPC   C3B10617  43.707  22.383   8.118
  624POPC   C4B10618  43.674  22.389   7.648
  625POPC   NC310619  21.434   7.218   9.660
  625POPC   PO410620  21.201   6.540   9.597
  625POPC   GL110621  21.366   6.474   9.169
  625POPC   GL210622  21.689   6.578   9.207
  625POPC   C1A10623  21.468   6.713   8.743
  625POPC   D2A10624  21.399   7.055   8.439
  625POPC   C3A10625  21.172   6.899   8.081
  625POPC   C4A10626  21.440   6.930   7.759
  625POPC   C1B10627  21.737   6.294   8.851
  625POPC   C2B10628  21.532   6.251   8.460
  625POPC   C3B10629  21.596   6.590   8.159
  625POPC   C4B10630  21.683   6.494   7.698
  626POPC   NC310631  37.726   8.546   9.594
  626POPC   PO410632  37.347   7.976   9.538
  626POPC   GL110633  37.715   8.155   9.249
  626POPC   GL210634  37.559   7.852   9.065
  626POPC   C1A10635  37.984   8.524   8.862
  626POPC   D2A10636  37.924   8.754   8.322
  626POPC   C3A10637  37.516   8.790   7.929
  626POPC   C4A10638  37.263   8.593   7.482
  626POPC   C1B10639  37.495   7.996   8.609
  626POPC   C2B10640  37.882   8.282   8.409
  626POPC   C3B10641  37.883   8.426   7.958
  626POPC   C4B10642  37.767   8.520   7.533
  627POPC   NC310643  30.843  33.611   9.485
  627POPC   PO410644  30.395  34.124   9.417
  627POPC   GL110645  30.577  33.851   9.101
  627POPC   GL210646  30.890  33.635   8.991
  627POPC   C1A10647  30.669  33.996   8.699
  627POPC   D2A10648  30.809  34.201   8.359
  627POPC   C3A10649  30.693  33.977   8.012
  627POPC   C4A10650  30.538  33.979   7.611
  627POPC   C1B10651  30.522  33.485   8.741
  627POPC   C2B10652  30.602  33.431   8.304
  627POPC   C3B10653  30.937  33.536   8.035
  627POPC   C4B10654  30.931  33.645   7.617
  628POPC   NC310655   1.147  16.293   9.699
  628POPC   PO410656   1.029  16.894   9.414
  628POPC   GL110657   1.372  16.777   9.114
  628POPC   GL210658   1.559  16.532   9.259
  628POPC   C1A10659   1.507  16.895   8.692
  628POPC   D2A10660   1.590  16.979   8.236
  628POPC   C3A10661   1.362  16.693   7.929
  628POPC   C4A10662   0.918  16.761   7.815
  628POPC   C1B10663   1.722  16.449   8.822
  628POPC   C2B10664   1.815  16.551   8.398
  628POPC   C3B10665   1.748  16.358   8.000
  628POPC   C4B10666   1.439  16.208   7.716
  629POPC   NC310667  14.494  38.962   9.426
  629POPC   PO410668  14.078  39.480   9.559
  629POPC   GL110669  14.342  39.432   9.180
  629POPC   GL210670  14.717  39.478   9.147
  629POPC   C1A10671  14.447  39.268   8.759
  629POPC   D2A10672  14.646  39.133   8.392
  629POPC   C3A10673  14.470  38.999   8.029
  629POPC   C4A10674  14.152  39.232   7.907
  629POPC   C1B10675  14.888  39.671   8.753
  629POPC   C2B10676  14.864  39.574   8.325
  629POPC   C3B10677  14.625  39.472   7.944
  629POPC   C4B10678  14.618  39.459   7.454
  630POPC   NC310679   0.265  26.776   9.563
  630POPC   PO410680   0.785  27.165   9.277
  630POPC   GL110681   0.516  26.883   9.110
  630POPC   GL210682   0.227  27.010   9.108
  630POPC   C1A10683   0.409  26.707   8.725
  630POPC   D2A10684   0.556  26.685   8.324
  630POPC   C3A10685   0.297  26.655   7.980
  630POPC   C4A10686   0.632  26.536   7.747
  630POPC   C1B10687   0.071  27.208   8.744
  630POPC   C2B10688   0.223  27.096   8.340
  630POPC   C3B10689   0.001  27.078   7.961
  630POPC   C4B10690   0.178  27.089   7.580
  631POPC   NC310691  42.999  27.197   9.732
  631POPC   PO410692  43.237  27.775   9.515
  631POPC   GL110693  43.123  27.624   9.129
  631POPC   GL210694  43.006  27.303   9.170
  631POPC   C1A10695  43.126  27.857   8.751
  631POPC   D2A10696  43.420  27.938   8.404
  631POPC   C3A10697  43.270  27.894   7.968
  631POPC   C4A10698  43.476  27.901   7.548
  631POPC   C1B10699  43.094  27.347   8.710
  631POPC   C2B10700  42.993  27.583   8.333
  631POPC   C3B10701  42.783  27.615   7.961
  631POPC   C4B10702  42.987  27.495   7.587
  632POPC   NC310703   9.271  38.074   9.560
  632POPC   PO410704   9.419  38.791   9.426
  632POPC   GL110705   9.169  38.500   9.170
  632POPC   GL210706   8.864  38.289   9.311
  632POPC   C1A10707   9.135  38.441   8.708
  632POPC   D2A10708   9.326  38.338   8.304
  632POPC   C3A10709   9.186  38.577   7.917
  632POPC   C4A10710   8.993  38.454   7.524
  632POPC   C1B10711   8.704  38.204   8.868
  632POPC   C2B10712   8.734  38.276   8.418
  632POPC   C3B10713   8.760  38.302   7.973
  632POPC   C4B10714   8.488  38.400   7.613
  633POPC   NC310715  28.456  19.462   9.661
  633POPC   PO410716  28.159  18.917   9.348
  633POPC   GL110717  28.437  19.057   9.047
  633POPC   GL210718  28.451  19.422   8.994
  633POPC   C1A10719  28.369  18.918   8.633
  633POPC   D2A10720  28.198  19.034   8.236
  633POPC   C3A10721  28.471  19.048   7.885
  633POPC   C4A10722  28.535  19.136   7.424
  633POPC   C1B10723  28.100  19.355   8.681
  633POPC   C2B10724  28.044  19.537   8.287
  633POPC   C3B10725  28.077  19.412   7.860
  633POPC   C4B10726  28.296  19.590   7.512
  634POPC   NC310727  10.239  14.353   9.761
  634POPC   PO410728  10.861  14.538   9.469
  634POPC   GL110729  10.695  14.388   9.158
  634POPC   GL210730  10.356  14.473   9.273
  634POPC   C1A10731  10.716  14.183   8.788
  634POPC   D2A10732  10.632  14.406   8.464
  634POPC   C3A10733  10.808  14.395   8.042
  634POPC   C4A10734  10.795  14.557   7.630
  634POPC   C1B10735  10.273  14.378   8.853
  634POPC   C2B10736  10.128  14.312   8.457
  634POPC   C3B10737  10.278  14.444   8.100
  634POPC   C4B10738  10.406  14.227   7.761
  635POPC   NC310739  37.735  28.568   9.500
  635POPC   PO410740  38.212  28.124   9.403
  635POPC   GL110741  38.006  28.397   9.078
  635POPC   GL210742  37.626  28.412   9.057
  635POPC   C1A10743  37.903  28.471   8.638
  635POPC   D2A10744  37.984  28.757   8.282
  635POPC   C3A10745  37.815  28.518   7.936
  635POPC   C4A10746  37.685  28.085   7.931
  635POPC   C1B10747  37.359  28.593   8.797
  635POPC   C2B10748  37.476  28.611   8.375
  635POPC   C3B10749  37.320  28.482   8.007
  635POPC   C4B10750  37.233  28.702   7.642
  636POPC   NC310751  27.238  22.145   9.595
  636POPC   PO410752  27.943  22.039   9.512
  636POPC   GL110753  27.733  22.219   9.171
  636POPC   GL210754  27.366  22.331   9.115
  636POPC   C1A10755  27.684  22.024   8.766
  636POPC   D2A10756  27.647  21.845   8.378
  636POPC   C3A10757  27.855  21.988   8.025
  636POPC   C4A10758  27.771  21.981   7.613
  636POPC   C1B10759  27.632  22.531   8.780
  636POPC   C2B10760  27.609  22.354   8.382
  636POPC   C3B10761  27.395  22.187   8.050
  636POPC   C4B10762  27.487  22.414   7.726
  637POPC   NC310763   8.862  42.800   9.625
  637POPC   PO410764   9.230  42.389   9.446
  637POPC   GL110765   9.208  42.467   9.041
  637POPC   GL210766   8.860  42.369   9.074
  637POPC   C1A10767   9.307  42.404   8.615
  637POPC   D2A10768   9.050  42.392   8.258
  637POPC   C3A10769   9.166  42.472   7.847
  637POPC   C4A10770   8.863  42.399   7.547
  637POPC   C1B10771   8.802  42.192   8.663
  637POPC   C2B10772   8.710  41.998   8.265
  637POPC   C3B10773   8.862  41.993   7.869
  637POPC   C4B10774   8.676  41.955   7.427
  638POPC   NC310775  11.428  31.512   9.864
  638POPC   PO410776  10.760  31.653   9.578
  638POPC   GL110777  11.077  31.460   9.248
  638POPC   GL210778  11.435  31.615   9.241
  638POPC   C1A10779  11.221  31.411   8.786
  638POPC   D2A10780  11.408  31.617   8.386
  638POPC   C3A10781  11.290  31.398   7.951
  638POPC   C4A10782  10.997  31.298   7.541
  638POPC   C1B10783  11.720  31.461   8.893
  638POPC   C2B10784  11.901  31.416   8.508
  638POPC   C3B10785  11.837  31.449   8.087
  638POPC   C4B10786  11.713  31.397   7.683
  639POPC   NC310787  29.835  25.561   9.488
  639POPC   PO410788  30.235  25.014   9.342
  639POPC   GL110789  29.963  25.265   9.085
  639POPC   GL210790  30.089  25.604   9.051
  639POPC   C1A10791  29.731  25.247   8.689
  639POPC   D2A10792  29.590  25.134   8.252
  639POPC   C3A10793  29.909  25.128   7.906
  639POPC   C4A10794  29.855  25.048   7.446
  639POPC   C1B10795  30.230  25.407   8.681
  639POPC   C2B10796  30.243  25.316   8.268
  639POPC   C3B10797  30.203  25.546   7.921
  639POPC   C4B10798  30.242  25.372   7.576
  640POPC   NC310799  36.891  14.048   9.721
  640POPC   PO410800  36.430  14.412   9.417
  640POPC   GL110801  36.809  14.406   9.171
  640POPC   GL210802  36.865  14.034   9.197
  640POPC   C1A10803  36.982  14.568   8.755
  640POPC   D2A10804  36.923  14.387   8.335
  640POPC   C3A10805  36.870  14.622   7.940
  640POPC   C4A10806  36.978  14.827   7.554
  640POPC   C1B10807  36.743  14.114   8.763
  640POPC   C2B10808  36.406  14.184   8.445
  640POPC   C3B10809  36.521  14.229   8.018
  640POPC   C4B10810  36.914  14.122   7.871
  641POPC   NC310811   8.568   0.054   9.384
  641POPC   PO410812   8.280  44.482   9.407
  641POPC   GL110813   8.048  44.616   9.117
  641POPC   GL210814   8.125  44.979   9.104
  641POPC   C1A10815   7.998  44.395   8.740
  641POPC   D2A10816   7.864  44.539   8.343
  641POPC   C3A10817   7.965  44.371   7.973
  641POPC   C4A10818   7.835  44.521   7.556
  641POPC   C1B10819   8.258  44.826   8.697
  641POPC   C2B10820   8.221  44.907   8.278
  641POPC   C3B10821   8.010  44.879   7.877
  641POPC   C4B10822   8.241  44.829   7.460
  642POPC   NC310823  35.142   1.751   9.477
  642POPC   PO410824  34.903   2.339   9.311
  642POPC   GL110825  35.200   2.082   9.040
  642POPC   GL210826  35.106   1.789   8.971
  642POPC   C1A10827  35.586   1.928   8.797
  642POPC   D2A10828  35.639   1.696   8.399
  642POPC   C3A10829  35.642   1.988   8.056
  642POPC   C4A10830  35.273   2.127   7.843
  642POPC   C1B10831  35.150   1.827   8.549
  642POPC   C2B10832  35.175   1.587   8.208
  642POPC   C3B10833  34.916   1.754   7.919
  642POPC   C4B10834  34.996   1.833   7.510
  643POPC   NC310835  38.258  14.800   9.496
  643POPC   PO410836  38.581  15.446   9.550
  643POPC   GL110837  38.407  15.261   9.204
  643POPC   GL210838  38.628  14.994   9.166
  643POPC   C1A10839  38.357  15.348   8.759
  643POPC   D2A10840  38.513  15.536   8.380
  643POPC   C3A10841  38.317  15.408   7.981
  643POPC   C4A10842  38.523  15.336   7.564
  643POPC   C1B10843  38.396  14.824   8.805
  643POPC   C2B10844  38.230  14.960   8.399
  643POPC   C3B10845  38.433  14.899   8.010
  643POPC   C4B10846  38.255  14.907   7.612
  644POPC   NC310847  25.588   9.451   9.436
  644POPC   PO410848  25.243   8.878   9.297
  644POPC   GL110849  25.007   8.979   8.964
  644POPC   GL210850  25.071   9.316   8.996
  644POPC   C1A10851  25.063   8.766   8.583
  644POPC   D2A10852  25.047   8.540   8.210
  644POPC   C3A10853  24.967   8.773   7.837
  644POPC   C4A10854  25.170   8.713   7.395
  644POPC   C1B10855  25.354   9.174   8.649
  644POPC   C2B10856  25.297   9.015   8.189
  644POPC   C3B10857  25.265   9.145   7.709
  644POPC   C4B10858  25.280   9.395   7.312
  645POPC   NC310859  13.068  22.308   9.481
  645POPC   PO410860  13.697  22.197   9.571
  645POPC   GL110861  13.776  22.130   9.150
  645POPC   GL210862  13.474  21.960   9.079
  645POPC   C1A10863  13.847  21.962   8.715
  645POPC   D2A10864  13.786  21.823   8.263
  645POPC   C3A10865  13.827  22.174   8.005
  645POPC   C4A10866  14.116  22.327   7.742
  645POPC   C1B10867  13.319  21.772   8.706
  645POPC   C2B10868  13.064  21.790   8.315
  645POPC   C3B10869  13.216  21.682   7.910
  645POPC   C4B10870  13.593  21.833   7.713
  646POPC   NC310871  24.540  28.041   9.473
  646POPC   PO410872  24.060  28.575   9.491
  646POPC   GL110873  24.469  28.508   9.213
  646POPC   GL210874  24.734  28.214   9.043
  646POPC   C1A10875  24.567  28.594   8.780
  646POPC   D2A10876  24.808  28.505   8.434
  646POPC   C3A10877  24.581  28.403   8.085
  646POPC   C4A10878  24.675  28.530   7.706
  646POPC   C1B10879  25.082  28.169   8.709
  646POPC   C2B10880  25.132  28.128   8.216
  646POPC   C3B10881  24.852  28.059   7.829
  646POPC   C4B10882  24.414  28.106   7.633
  647POPC   NC310883   6.696  21.776   9.980
  647POPC   PO410884   6.626  21.395   9.461
  647POPC   GL110885   6.796  21.211   9.065
  647POPC   GL210886   7.042  20.942   9.203
  647POPC   C1A10887   6.560  21.358   8.665
  647POPC   D2A10888   6.297  21.293   8.303
  647POPC   C3A10889   6.468  21.241   7.884
  647POPC   C4A10890   6.741  21.549   7.731
  647POPC   C1B10891   7.205  20.939   8.784
  647POPC   C2B10892   7.023  21.218   8.481
  647POPC   C3B10893   6.985  21.240   8.054
  647POPC   C4B10894   7.084  21.190   7.619
  648POPC   NC310895   7.066   2.710   9.555
  648POPC   PO410896   7.623   3.094   9.653
  648POPC   GL110897   7.406   2.920   9.215
  648POPC   GL210898   7.332   2.557   9.128
  648POPC   C1A10899   7.226   2.889   8.767
  648POPC   D2A10900   7.284   2.778   8.334
  648POPC   C3A10901   7.433   3.095   8.012
  648POPC   C4A10902   7.566   3.143   7.566
  648POPC   C1B10903   7.609   2.566   8.741
  648POPC   C2B10904   7.601   2.373   8.354
  648POPC   C3B10905   7.442   2.451   7.961
  648POPC   C4B10906   7.629   2.651   7.652
  649POPC   NC310907   9.681   0.856   9.809
  649POPC   PO410908   9.660   0.258   9.699
  649POPC   GL110909   9.687   0.463   9.305
  649POPC   GL210910   9.799   0.158   9.160
  649POPC   C1A10911   9.832   0.622   8.885
  649POPC   D2A10912   9.858   0.535   8.391
  649POPC   C3A10913   9.756   0.719   7.969
  649POPC   C4A10914   9.724   0.731   7.467
  649POPC   C1B10915   9.718   0.137   8.760
  649POPC   C2B10916   9.774   0.024   8.376
  649POPC   C3B10917   9.733   0.191   7.977
  649POPC   C4B10918   9.774   0.228   7.554
  650POPC   NC310919  31.813  44.916   9.459
  650POPC   PO410920  31.149  44.740   9.620
  650POPC   GL110921  31.265  44.585   9.204
  650POPC   GL210922  31.647  44.570   9.111
  650POPC   C1A10923  31.287  44.702   8.758
  650POPC   D2A10924  31.458  44.905   8.396
  650POPC   C3A10925  31.389  44.770   7.986
  650POPC   C4A10926  31.264  44.395   7.763
  650POPC   C1B10927  31.742  44.466   8.656
  650POPC   C2B10928  31.768  44.473   8.183
  650POPC   C3B10929  31.811  44.465   7.700
  650POPC   C4B10930  31.920  44.318   7.236
  651POPC   NC310931  11.229  34.395   9.402
  651POPC   PO410932  11.836  34.569   9.758
  651POPC   GL110933  11.658  34.858   9.336
  651POPC   GL210934  11.319  34.834   9.184
  651POPC   C1A10935  11.638  34.861   8.809
  651POPC   D2A10936  11.353  34.904   8.415
  651POPC   C3A10937  11.408  34.608   8.059
  651POPC   C4A10938  11.691  34.874   7.843
  651POPC   C1B10939  11.205  34.582   8.787
  651POPC   C2B10940  10.957  34.528   8.418
  651POPC   C3B10941  10.911  34.653   8.009
  651POPC   C4B10942  11.021  34.449   7.650
  652POPC   NC310943  26.698  29.642   9.441
  652POPC   PO410944  26.846  30.234   9.422
  652POPC   GL110945  26.921  30.044   9.081
  652POPC   GL210946  27.011  29.700   9.016
  652POPC   C1A10947  26.900  30.160   8.699
  652POPC   D2A10948  26.952  29.917   8.388
  652POPC   C3A10949  26.837  30.171   8.070
  652POPC   C4A10950  26.903  30.128   7.700
  652POPC   C1B10951  26.638  29.707   8.749
  652POPC   C2B10952  26.492  29.615   8.312
  652POPC   C3B10953  26.630  29.705   7.878
  652POPC   C4B10954  26.499  29.528   7.484
  653POPC   NC310955  41.546  33.493   9.509
  653POPC   PO410956  41.143  34.042   9.502
  653POPC   GL110957  41.515  33.997   9.240
  653POPC   GL210958  41.439  33.707   9.085
  653POPC   C1A10959  41.812  33.945   8.863
  653POPC   D2A10960  41.642  33.959   8.458
  653POPC   C3A10961  41.779  33.705   8.144
  653POPC   C4A10962  41.702  33.758   7.720
  653POPC   C1B10963  41.302  33.474   8.788
  653POPC   C2B10964  41.299  33.588   8.393
  653POPC   C3B10965  41.277  33.772   8.022
  653POPC   C4B10966  41.213  33.442   7.748
  654POPC   NC310967   0.091  11.839   9.765
  654POPC   PO410968   0.520  12.295   9.572
  654POPC   GL110969   0.451  12.172   9.152
  654POPC   GL210970   0.344  11.846   9.071
  654POPC   C1A10971   0.490  12.148   8.721
  654POPC   D2A10972   0.271  11.941   8.466
  654POPC   C3A10973   0.459  12.120   8.140
  654POPC   C4A10974   0.370  12.040   7.752
  654POPC   C1B10975   0.725  11.712   8.807
  654POPC   C2B10976   0.849  11.882   8.413
  654POPC   C3B10977   0.780  11.752   7.971
  654POPC   C4B10978   0.740  11.687   7.536
  655POPC   NC310979  32.524  14.576   9.527
  655POPC   PO410980  31.894  14.187   9.374
  655POPC   GL110981  32.089  14.428   9.048
  655POPC   GL210982  32.478  14.452   9.046
  655POPC   C1A10983  32.216  14.582   8.630
  655POPC   D2A10984  32.244  14.777   8.208
  655POPC   C3A10985  32.187  14.456   7.868
  655POPC   C4A10986  32.053  14.091   7.660
  655POPC   C1B10987  32.688  14.371   8.673
  655POPC   C2B10988  32.576  14.351   8.273
  655POPC   C3B10989  32.669  14.528   7.913
  655POPC   C4B10990  32.535  14.409   7.488
  656POPC   NC310991  19.256   3.773   9.333
  656POPC   PO410992  18.699   3.429   9.405
  656POPC   GL110993  18.875   3.539   9.011
  656POPC   GL210994  19.201   3.393   9.008
  656POPC   C1A10995  19.001   3.544   8.562
  656POPC   D2A10996  19.080   3.223   8.254
  656POPC   C3A10997  18.864   3.336   7.896
  656POPC   C4A10998  18.844   3.811   7.717
  656POPC   C1B10999  19.477   3.692   8.749
  656POPC   C2B11000  19.522   3.773   8.353
  656POPC   C3B11001  19.179   3.699   8.079
  656POPC   C4B11002  19.228   3.511   7.624
  657POPC   NC311003  22.924  43.542   9.881
  657POPC   PO411004  22.702  43.020   9.442
  657POPC   GL111005  22.887  43.253   9.097
  657POPC   GL211006  22.825  42.938   8.929
  657POPC   C1A11007  23.194  43.192   8.737
  657POPC   D2A11008  23.002  43.093   8.353
  657POPC   C3A11009  23.228  43.200   7.963
  657POPC   C4A11010  23.219  43.130   7.506
  657POPC   C1B11011  22.803  42.670   8.608
  657POPC   C2B11012  22.605  42.718   8.236
  657POPC   C3B11013  22.682  43.036   7.956
  657POPC   C4B11014  22.809  42.857   7.619
  658POPC   NC311015  39.871  29.477   9.208
  658POPC   PO411016  39.845  30.060   9.595
  658POPC   GL111017  40.079  29.979   9.217
  658POPC   GL211018  39.746  29.969   9.070
  658POPC   C1A11019  40.359  29.948   8.828
  658POPC   D2A11020  40.273  30.099   8.399
  658POPC   C3A11021  40.263  29.805   8.068
  658POPC   C4A11022  40.189  30.020   7.704
  658POPC   C1B11023  39.850  29.993   8.670
  658POPC   C2B11024  39.795  29.762   8.297
  658POPC   C3B11025  39.738  29.909   7.891
  658POPC   C4B11026  39.771  29.764   7.478
  659POPC   NC311027  12.507  37.931   9.649
  659POPC   PO411028  12.780  37.317   9.512
  659POPC   GL111029  12.746  37.655   9.166
  659POPC   GL211030  12.580  37.964   9.162
  659POPC   C1A11031  12.911  37.735   8.757
  659POPC   D2A11032  12.837  37.954   8.403
  659POPC   C3A11033  12.945  37.841   8.036
  659POPC   C4A11034  12.967  37.741   7.647
  659POPC   C1B11035  12.495  38.082   8.754
  659POPC   C2B11036  12.342  37.880   8.406
  659POPC   C3B11037  12.432  37.918   7.981
  659POPC   C4B11038  12.423  38.111   7.583
  660POPC   NC311039   0.660   0.772   9.577
  660POPC   PO411040   0.465   0.183   9.339
  660POPC   GL111041   0.617   0.470   9.114
  660POPC   GL211042   0.444   0.761   9.136
  660POPC   C1A11043   0.475   0.399   8.702
  660POPC   D2A11044   0.669   0.204   8.362
  660POPC   C3A11045   0.474   0.411   8.039
  660POPC   C4A11046   0.327   0.226   7.675
  660POPC   C1B11047   0.274   0.876   8.771
  660POPC   C2B11048   0.109   0.673   8.421
  660POPC   C3B11049   0.113   0.826   8.015
  660POPC   C4B11050   0.380   0.755   7.646
  661POPC   NC311051  17.292   4.007   9.410
  661POPC   PO411052  17.439   4.661   9.298
  661POPC   GL111053  17.622   4.384   9.038
  661POPC   GL211054  17.808   4.156   9.218
  661POPC   C1A11055  17.436   4.192   8.672
  661POPC   D2A11056  17.227   4.138   8.269
  661POPC   C3A11057  17.214   4.542   8.068
  661POPC   C4A11058  17.229   4.563   7.627
  661POPC   C1B11059  17.914   4.026   8.790
  661POPC   C2B11060  17.879   4.227   8.403
  661POPC   C3B11061  17.902   4.072   7.997
  661POPC   C4B11062  17.529   4.211   7.835
  662POPC   NC311063  42.378  38.027   9.559
  662POPC   PO411064  42.319  38.738   9.506
  662POPC   GL111065  42.605  38.528   9.218
  662POPC   GL211066  42.411  38.227   9.076
  662POPC   C1A11067  42.670  38.546   8.780
  662POPC   D2A11068  42.409  38.356   8.499
  662POPC   C3A11069  42.425  38.441   8.074
  662POPC   C4A11070  42.682  38.661   7.766
  662POPC   C1B11071  42.186  37.965   8.745
  662POPC   C2B11072  42.222  37.862   8.292
  662POPC   C3B11073  42.107  38.076   7.898
  662POPC   C4B11074  42.395  38.238   7.591
  663POPC   NC311075   5.370  41.762   9.616
  663POPC   PO411076   4.952  41.204   9.539
  663POPC   GL111077   5.252  41.415   9.252
  663POPC   GL211078   5.034  41.683   9.110
  663POPC   C1A11079   5.429  41.527   8.837
  663POPC   D2A11080   5.173  41.599   8.488
  663POPC   C3A11081   5.084  41.468   8.045
  663POPC   C4A11082   5.265  41.512   7.633
  663POPC   C1B11083   4.725  41.664   8.747
  663POPC   C2B11084   4.730  41.744   8.281
  663POPC   C3B11085   4.699  41.769   7.840
  663POPC   C4B11086   4.855  41.856   7.446
  664POPC   NC311087  34.008  25.782   9.609
  664POPC   PO411088  33.483  25.240   9.527
  664POPC   GL111089  33.703  25.230   9.171
  664POPC   GL211090  34.016  25.397   9.250
  664POPC   C1A11091  33.900  25.170   8.785
  664POPC   D2A11092  33.730  25.023   8.427
  664POPC   C3A11093  33.876  25.198   8.069
  664POPC   C4A11094  33.635  25.441   7.809
  664POPC   C1B11095  34.171  25.593   8.868
  664POPC   C2B11096  34.115  25.489   8.430
  664POPC   C3B11097  33.994  25.715   8.065
  664POPC   C4B11098  34.039  25.680   7.666
  665POPC   NC311099   0.088  38.220   9.256
  665POPC   PO411100  44.538  38.487   9.586
  665POPC   GL111101  44.614  38.406   9.172
  665POPC   GL211102  44.896  38.693   9.182
  665POPC   C1A11103  44.400  38.327   8.756
  665POPC   D2A11104  44.637  38.372   8.343
  665POPC   C3A11105  44.428  38.398   7.964
  665POPC   C4A11106  44.664  38.340   7.599
  665POPC   C1B11107  44.803  38.645   8.755
  665POPC   C2B11108  44.932  38.820   8.369
  665POPC   C3B11109  44.825  38.747   7.955
  665POPC   C4B11110   0.007  38.690   7.569
  666POPC   NC311111  43.905  35.316   9.537
  666POPC   PO411112  43.791  35.901   9.255
  666POPC   GL111113  43.751  35.505   9.067
  666POPC   GL211114  43.679  35.150   9.120
  666POPC   C1A11115  44.020  35.368   8.753
  666POPC   D2A11116  44.190  35.363   8.338
  666POPC   C3A11117  43.907  35.609   8.129
  666POPC   C4A11118  43.719  35.652   7.764
  666POPC   C1B11119  43.640  34.986   8.741
  666POPC   C2B11120  43.684  35.205   8.365
  666POPC   C3B11121  43.872  35.121   7.977
  666POPC   C4B11122  43.642  34.819   7.802
  667POPC   NC311123  26.420  41.496   9.599
  667POPC   PO411124  27.046  41.282   9.502
  667POPC   GL111125  26.986  41.438   9.107
  667POPC   GL211126  27.249  41.644   8.939
  667POPC   C1A11127  26.605  41.365   8.887
  667POPC   D2A11128  26.466  41.479   8.475
  667POPC   C3A11129  26.746  41.335   8.169
  667POPC   C4A11130  26.541  41.296   7.796
  667POPC   C1B11131  27.013  41.513   8.590
  667POPC   C2B11132  26.807  41.829   8.348
  667POPC   C3B11133  26.623  41.776   7.960
  667POPC   C4B11134  26.964  41.566   7.722
  668POPC   NC311135  14.761  22.420   9.441
  668POPC   PO411136  15.278  21.987   9.394
  668POPC   GL111137  15.005  22.051   9.107
  668POPC   GL211138  15.109  22.410   9.072
  668POPC   C1A11139  15.215  22.066   8.710
  668POPC   D2A11140  15.249  21.881   8.344
  668POPC   C3A11141  15.374  22.050   7.978
  668POPC   C4A11142  15.107  22.011   7.630
  668POPC   C1B11143  14.793  22.352   8.761
  668POPC   C2B11144  14.928  22.293   8.332
  668POPC   C3B11145  15.008  22.415   7.925
  668POPC   C4B11146  15.121  22.559   7.516
  669POPC   NC311147  20.139   9.198   9.882
  669POPC   PO411148  19.657   8.856   9.432
  669POPC   GL111149  19.769   9.167   9.103
  669POPC   GL211150  20.176   9.199   9.050
  669POPC   C1A11151  19.606   9.292   8.697
  669POPC   D2A11152  19.813   9.204   8.299
  669POPC   C3A11153  19.537   9.156   7.996
  669POPC   C4A11154  19.528   8.922   7.642
  669POPC   C1B11155  20.003   8.958   8.710
  669POPC   C2B11156  20.058   8.741   8.352
  669POPC   C3B11157  19.970   8.832   7.935
  669POPC   C4B11158  19.789   8.501   7.707
  670POPC   NC311159  17.870   8.793   9.377
  670POPC   PO411160  17.475   9.330   9.592
  670POPC   GL111161  17.374   9.026   9.166
  670POPC   GL211162  17.527   8.695   9.038
  670POPC   C1A11163  17.222   8.835   8.694
  670POPC   D2A11164  17.217   8.821   8.251
  670POPC   C3A11165  17.367   9.130   8.024
  670POPC   C4A11166  17.452   9.124   7.582
  670POPC   C1B11167  17.771   8.779   8.692
  670POPC   C2B11168  17.746   8.878   8.269
  670POPC   C3B11169  17.609   8.723   7.850
  670POPC   C4B11170  17.900   8.588   7.533
  671POPC   NC311171   1.391  35.320   9.587
  671POPC   PO411172   0.786  35.140   9.429
  671POPC   GL111173   1.114  35.353   9.168
  671POPC   GL211174   1.401  35.577   9.152
  671POPC   C1A11175   1.323  35.171   8.833
  671POPC   D2A11176   1.107  35.037   8.460
  671POPC   C3A11177   1.018  35.333   8.148
  671POPC   C4A11178   0.847  35.238   7.741
  671POPC   C1B11179   1.368  35.690   8.723
  671POPC   C2B11180   1.566  35.686   8.310
  671POPC   C3B11181   1.448  35.580   7.879
  671POPC   C4B11182   1.474  35.731   7.427
  672POPC   NC311183  36.141  29.769   9.429
  672POPC   PO411184  35.973  30.418   9.689
  672POPC   GL111185  35.968  30.210   9.232
  672POPC   GL211186  36.320  30.164   9.141
  672POPC   C1A11187  35.991  29.991   8.788
  672POPC   D2A11188  36.101  30.084   8.327
  672POPC   C3A11189  36.080  29.871   7.922
  672POPC   C4A11190  36.127  29.765   7.434
  672POPC   C1B11191  36.432  30.263   8.710
  672POPC   C2B11192  36.596  30.212   8.293
  672POPC   C3B11193  36.405  30.269   7.883
  672POPC   C4B11194  36.270  30.628   7.635
  673POPC   NC311195  37.595   5.430   9.585
  673POPC   PO411196  37.575   6.024   9.581
  673POPC   GL111197  37.577   5.850   9.186
  673POPC   GL211198  37.360   5.584   9.142
  673POPC   C1A11199  37.853   5.640   8.891
  673POPC   D2A11200  37.887   5.526   8.447
  673POPC   C3A11201  37.798   5.796   8.119
  673POPC   C4A11202  37.660   5.924   7.648
  673POPC   C1B11203  37.404   5.760   8.704
  673POPC   C2B11204  37.405   5.502   8.337
  673POPC   C3B11205  37.471   5.513   7.894
  673POPC   C4B11206  37.189   5.706   7.598
  674POPC   NC311207   6.775  31.339   9.607
  674POPC   PO411208   6.882  31.955   9.504
  674POPC   GL111209   6.728  31.614   9.182
  674POPC   GL211210   6.625  31.220   9.144
  674POPC   C1A11211   6.967  31.405   8.832
  674POPC   D2A11212   7.079  31.470   8.395
  674POPC   C3A11213   6.847  31.422   7.975
  674POPC   C4A11214   6.473  31.630   7.802
  674POPC   C1B11215   6.468  31.245   8.731
  674POPC   C2B11216   6.453  31.418   8.310
  674POPC   C3B11217   6.423  31.155   7.911
  674POPC   C4B11218   6.659  31.101   7.541
  675POPC   NC311219  20.392  12.541   9.736
  675POPC   PO411220  19.847  12.752   9.404
  675POPC   GL111221  19.936  12.963   9.088
  675POPC   GL211222  19.977  13.307   9.202
  675POPC   C1A11223  19.846  12.813   8.721
  675POPC   D2A11224  19.518  12.936   8.511
  675POPC   C3A11225  19.576  12.942   8.081
  675POPC   C4A11226  19.509  12.592   7.819
  675POPC   C1B11227  20.146  13.303   8.776
  675POPC   C2B11228  19.955  13.164   8.366
  675POPC   C3B11229  20.099  13.319   7.963
  675POPC   C4B11230  20.239  13.245   7.577
  676POPC   NC311231   6.944  27.079   9.284
  676POPC   PO411232   7.396  26.718   9.668
  676POPC   GL111233   7.583  26.605   9.228
  676POPC   GL211234   7.901  26.766   9.138
  676POPC   C1A11235   7.440  26.622   8.778
  676POPC   D2A11236   7.175  26.692   8.394
  676POPC   C3A11237   7.438  26.635   8.029
  676POPC   C4A11238   7.305  26.612   7.589
  676POPC   C1B11239   7.788  27.029   8.785
  676POPC   C2B11240   7.589  26.995   8.395
  676POPC   C3B11241   7.512  27.156   7.997
  676POPC   C4B11242   7.594  27.018   7.582
  677POPC   NC311243  16.575  34.928   9.308
  677POPC   PO411244  17.087  35.253   9.463
  677POPC   GL111245  16.913  35.345   9.060
  677POPC   GL211246  16.570  35.414   9.100
  677POPC   C1A11247  16.912  35.469   8.623
  677POPC   D2A11248  16.597  35.456   8.282
  677POPC   C3A11249  16.843  35.585   7.937
  677POPC   C4A11250  17.132  35.454   7.681
  677POPC   C1B11251  16.464  35.229   8.736
  677POPC   C2B11252  16.437  34.910   8.437
  677POPC   C3B11253  16.383  35.020   8.024
  677POPC   C4B11254  16.421  35.371   7.765
  678POPC   NC311255  26.471  16.096   9.581
  678POPC   PO411256  27.136  15.953   9.694
  678POPC   GL111257  26.980  15.977   9.255
  678POPC   GL211258  26.972  16.307   9.109
  678POPC   C1A11259  26.693  15.767   8.955
  678POPC   D2A11260  26.672  15.538   8.558
  678POPC   C3A11261  26.783  15.809   8.203
  678POPC   C4A11262  26.809  16.012   7.802
  678POPC   C1B11263  26.730  16.260   8.731
  678POPC   C2B11264  26.649  16.344   8.312
  678POPC   C3B11265  26.881  16.505   7.956
  678POPC   C4B11266  27.064  16.410   7.545
  679POPC   NC311267  18.873  31.472   9.516
  679POPC   PO411268  18.170  31.292   9.557
  679POPC   GL111269  18.283  31.434   9.193
  679POPC   GL211270  18.522  31.655   9.211
  679POPC   C1A11271  18.329  31.351   8.788
  679POPC   D2A11272  18.051  31.473   8.464
  679POPC   C3A11273  18.189  31.506   8.051
  679POPC   C4A11274  17.908  31.596   7.766
  679POPC   C1B11275  18.603  31.838   8.847
  679POPC   C2B11276  18.529  31.673   8.449
  679POPC   C3B11277  18.576  31.847   8.065
  679POPC   C4B11278  18.520  31.667   7.662
  680POPC   NC311279  44.732   8.731   9.894
  680POPC   PO411280  44.831   9.244   9.397
  680POPC   GL111281  44.768   9.071   8.962
  680POPC   GL211282  44.793   8.679   8.894
  680POPC   C1A11283  44.787   9.091   8.506
  680POPC   D2A11284  44.432   9.243   8.273
  680POPC   C3A11285  44.432   9.132   7.869
  680POPC   C4A11286  44.401   9.496   7.664
  680POPC   C1B11287  44.413   8.784   8.717
  680POPC   C2B11288  44.456   8.748   8.307
  680POPC   C3B11289  44.789   8.803   8.050
  680POPC   C4B11290  44.929   8.993   7.691
  681POPC   NC311291  28.278   4.581   9.595
  681POPC   PO411292  28.475   3.913   9.633
  681POPC   GL111293  28.544   4.189   9.229
  681POPC   GL211294  28.195   4.354   9.140
  681POPC   C1A11295  28.468   4.260   8.756
  681POPC   D2A11296  28.369   4.114   8.386
  681POPC   C3A11297  28.454   4.280   8.020
  681POPC   C4A11298  28.299   4.280   7.646
  681POPC   C1B11299  28.048   4.548   8.703
  681POPC   C2B11300  28.146   4.598   8.261
  681POPC   C3B11301  27.896   4.509   7.882
  681POPC   C4B11302  27.950   4.530   7.379
  682POPC   NC311303   8.806  17.756   9.433
  682POPC   PO411304   8.626  17.184   9.295
  682POPC   GL111305   8.914  17.415   9.059
  682POPC   GL211306   9.254  17.252   9.075
  682POPC   C1A11307   8.815  17.756   8.765
  682POPC   D2A11308   8.822  17.648   8.349
  682POPC   C3A11309   8.579  17.364   8.120
  682POPC   C4A11310   8.786  17.478   7.720
  682POPC   C1B11311   9.251  17.520   8.686
  682POPC   C2B11312   9.354  17.550   8.255
  682POPC   C3B11313   9.397  17.202   7.947
  682POPC   C4B11314   9.168  17.166   7.525
  683POPC   NC311315  24.847  21.109   9.328
  683POPC   PO411316  24.499  20.670   9.705
  683POPC   GL111317  24.498  20.586   9.250
  683POPC   GL211318  24.399  20.933   9.163
  683POPC   C1A11319  24.518  20.382   8.821
  683POPC   D2A11320  24.670  20.478   8.397
  683POPC   C3A11321  24.501  20.563   8.004
  683POPC   C4A11322  24.700  20.547   7.615
  683POPC   C1B11323  24.580  20.867   8.769
  683POPC   C2B11324  24.427  20.947   8.361
  683POPC   C3B11325  24.164  20.952   8.004
  683POPC   C4B11326  24.274  20.826   7.607
  684POPC   NC311327  23.127  14.200   9.479
  684POPC   PO411328  22.604  14.625   9.447
  684POPC   GL111329  22.892  14.413   9.088
  684POPC   GL211330  23.270  14.468   9.056
  684POPC   C1A11331  23.011  14.416   8.637
  684POPC   D2A11332  23.213  14.490   8.290
  684POPC   C3A11333  22.926  14.265   8.051
  684POPC   C4A11334  22.774  14.311   7.639
  684POPC   C1B11335  23.470  14.208   8.678
  684POPC   C2B11336  23.342  13.968   8.357
  684POPC   C3B11337  23.427  14.087   8.006
  684POPC   C4B11338  23.226  14.079   7.679
  685POPC   NC311339  17.509  17.293   9.627
  685POPC   PO411340  17.296  16.692   9.548
  685POPC   GL111341  17.394  16.665   9.187
  685POPC   GL211342  17.230  16.362   9.138
  685POPC   C1A11343  17.597  16.889   8.866
  685POPC   D2A11344  17.646  17.111   8.495
  685POPC   C3A11345  17.694  16.842   8.113
  685POPC   C4A11346  17.614  16.995   7.691
  685POPC   C1B11347  17.408  16.438   8.749
  685POPC   C2B11348  17.281  16.754   8.445
  685POPC   C3B11349  17.189  16.710   8.015
  685POPC   C4B11350  17.484  16.514   7.730
  686POPC   NC311351   7.803  37.245   9.411
  686POPC   PO411352   8.343  36.889   9.559
  686POPC   GL111353   8.203  36.846   9.153
  686POPC   GL211354   8.204  37.175   9.065
  686POPC   C1A11355   8.436  36.719   8.780
  686POPC   D2A11356   8.381  36.534   8.360
  686POPC   C3A11357   8.488  36.680   7.961
  686POPC   C4A11358   8.336  36.831   7.583
  686POPC   C1B11359   8.023  37.025   8.684
  686POPC   C2B11360   8.066  36.960   8.246
  686POPC   C3B11361   7.966  37.017   7.866
  686POPC   C4B11362   7.688  36.818   7.614
  687POPC   NC311363   9.352  20.341   9.468
  687POPC   PO411364   9.608  19.706   9.335
  687POPC   GL111365   9.628  20.070   9.106
  687POPC   GL211366   9.949  20.083   9.202
  687POPC   C1A11367   9.546  20.060   8.623
  687POPC   D2A11368   9.647  19.718   8.323
  687POPC   C3A11369   9.616  19.776   7.877
  687POPC   C4A11370   9.278  20.069   7.758
  687POPC   C1B11371   9.966  20.266   8.801
  687POPC   C2B11372  10.056  20.202   8.385
  687POPC   C3B11373  10.219  20.095   8.008
  687POPC   C4B11374  10.112  19.855   7.705
  688POPC   NC311375  25.984  13.749   9.469
  688POPC   PO411376  26.555  13.663   9.634
  688POPC   GL111377  26.345  13.495   9.217
  688POPC   GL211378  25.982  13.302   9.232
  688POPC   C1A11379  26.184  13.673   8.799
  688POPC   D2A11380  26.127  13.549   8.358
  688POPC   C3A11381  25.966  13.828   8.061
  688POPC   C4A11382  26.207  13.775   7.679
  688POPC   C1B11383  25.866  13.246   8.814
  688POPC   C2B11384  25.674  13.384   8.469
  688POPC   C3B11385  25.658  13.208   8.089
  688POPC   C4B11386  25.853  13.416   7.775
  689POPC   NC311387  15.973  30.976   9.344
  689POPC   PO411388  15.741  31.706   9.460
  689POPC   GL111389  15.852  31.446   9.150
  689POPC   GL211390  16.187  31.420   9.225
  689POPC   C1A11391  15.837  31.424   8.706
  689POPC   D2A11392  16.102  31.619   8.385
  689POPC   C3A11393  16.006  31.460   7.944
  689POPC   C4A11394  15.651  31.583   7.716
  689POPC   C1B11395  16.338  31.389   8.793
  689POPC   C2B11396  16.523  31.298   8.389
  689POPC   C3B11397  16.547  31.242   7.947
  689POPC   C4B11398  16.360  31.341   7.548
  690POPC   NC311399  41.747   2.691   9.522
  690POPC   PO411400  41.256   2.506   9.356
  690POPC   GL111401  41.538   2.577   9.085
  690POPC   GL211402  41.519   2.922   9.108
  690POPC   C1A11403  41.728   2.647   8.733
  690POPC   D2A11404  41.597   2.513   8.357
  690POPC   C3A11405  41.716   2.684   7.982
  690POPC   C4A11406  41.565   2.637   7.556
  690POPC   C1B11407  41.594   3.131   8.751
  690POPC   C2B11408  41.797   3.051   8.373
  690POPC   C3B11409  41.831   3.178   7.961
  690POPC   C4B11410  41.595   3.129   7.594
  691POPC   NC311411   4.863  16.004   9.530
  691POPC   PO411412   5.333  15.601   9.556
  691POPC   GL111413   5.148  15.755   9.150
  691POPC   GL211414   5.095  16.133   9.080
  691POPC   C1A11415   5.268  15.837   8.711
  691POPC   D2A11416   5.025  16.011   8.372
  691POPC   C3A11417   5.110  15.826   7.980
  691POPC   C4A11418   5.425  15.967   7.713
  691POPC   C1B11419   4.808  16.376   8.817
  691POPC   C2B11420   4.783  16.471   8.380
  691POPC   C3B11421   4.777  16.238   7.954
  691POPC   C4B11422   4.638  16.259   7.481
  692POPC   NC311423   5.466  39.267   9.474
  692POPC   PO411424   4.753  39.388   9.486
  692POPC   GL111425   5.027  39.178   9.186
  692POPC   GL211426   5.112  39.492   9.052
  692POPC   C1A11427   5.204  39.044   8.771
  692POPC   D2A11428   5.096  39.112   8.295
  692POPC   C3A11429   5.203  39.102   7.799
  692POPC   C4A11430   5.343  38.988   7.322
  692POPC   C1B11431   5.106  39.531   8.620
  692POPC   C2B11432   5.378  39.581   8.299
  692POPC   C3B11433   5.379  39.598   7.857
  692POPC   C4B11434   5.022  39.572   7.692
  693POPC   NC311435  16.856  26.349   9.832
  693POPC   PO411436  16.586  25.888   9.428
  693POPC   GL111437  16.814  25.988   9.103
  693POPC   GL211438  16.607  26.274   9.041
  693POPC   C1A11439  16.773  25.951   8.673
  693POPC   D2A11440  16.829  26.086   8.243
  693POPC   C3A11441  16.865  25.856   7.890
  693POPC   C4A11442  16.930  25.847   7.443
  693POPC   C1B11443  16.734  26.463   8.639
  693POPC   C2B11444  16.541  26.500   8.229
  693POPC   C3B11445  16.659  26.340   7.814
  693POPC   C4B11446  16.509  26.158   7.432
  694POPC   NC311447  31.945  29.125   9.293
  694POPC   PO411448  32.440  28.705   9.353
  694POPC   GL111449  32.441  29.095   9.138
  694POPC   GL211450  32.205  28.914   8.916
  694POPC   C1A11451  32.318  29.393   8.807
  694POPC   D2A11452  32.459  29.337   8.406
  694POPC   C3A11453  32.203  29.147   8.099
  694POPC   C4A11454  32.312  29.255   7.702
  694POPC   C1B11455  32.543  28.841   8.644
  694POPC   C2B11456  32.425  28.696   8.257
  694POPC   C3B11457  32.454  28.765   7.811
  694POPC   C4B11458  32.342  28.880   7.349
  695POPC   NC311459  44.408  43.533   9.477
  695POPC   PO411460  45.000  43.724   9.710
  695POPC   GL111461  44.829  43.784   9.223
  695POPC   GL211462  44.507  43.832   9.031
  695POPC   C1A11463  44.938  43.905   8.779
  695POPC   D2A11464  44.911  44.151   8.414
  695POPC   C3A11465   0.055  43.945   8.061
  695POPC   C4A11466  44.888  44.012   7.701
  695POPC   C1B11467  44.462  43.576   8.679
  695POPC   C2B11468  44.710  43.652   8.350
  695POPC   C3B11469  44.547  43.960   8.079
  695POPC   C4B11470  44.410  43.886   7.660
  696POPC   NC311471   7.582  30.146   9.436
  696POPC   PO411472   7.109  29.668   9.566
  696POPC   GL111473   7.200  29.852   9.186
  696POPC   GL211474   7.499  29.701   9.169
  696POPC   C1A11475   7.394  30.035   8.805
  696POPC   D2A11476   7.327  30.157   8.375
  696POPC   C3A11477   7.662  30.315   8.128
  696POPC   C4A11478   7.730  30.207   7.695
  696POPC   C1B11479   7.323  29.524   8.794
  696POPC   C2B11480   7.489  29.645   8.384
  696POPC   C3B11481   7.449  29.774   7.933
  696POPC   C4B11482   7.277  29.592   7.513
  697POPC   NC311483  10.927   7.302   9.407
  697POPC   PO411484  10.317   7.697   9.566
  697POPC   GL111485  10.501   7.599   9.205
  697POPC   GL211486  10.475   7.257   9.125
  697POPC   C1A11487  10.495   7.787   8.826
  697POPC   D2A11488  10.450   7.915   8.407
  697POPC   C3A11489  10.314   7.575   8.146
  697POPC   C4A11490  10.568   7.471   7.803
  697POPC   C1B11491  10.716   7.331   8.721
  697POPC   C2B11492  10.727   7.178   8.273
  697POPC   C3B11493  10.942   7.146   7.884
  697POPC   C4B11494  10.909   7.328   7.454
  698POPC   NC311495  16.787  33.325   9.718
  698POPC   PO411496  17.016  32.756   9.479
  698POPC   GL111497  16.887  32.841   9.115
  698POPC   GL211498  16.709  33.144   9.149
  698POPC   C1A11499  17.076  33.015   8.727
  698POPC   D2A11500  16.866  33.291   8.432
  698POPC   C3A11501  16.877  33.094   8.035
  698POPC   C4A11502  16.942  33.158   7.585
  698POPC   C1B11503  16.565  32.977   8.781
  698POPC   C2B11504  16.633  32.781   8.419
  698POPC   C3B11505  16.397  32.741   8.077
  698POPC   C4B11506  16.565  32.834   7.721
  699POPC   NC311507  19.328  32.024   9.541
  699POPC   PO411508  18.690  31.908   9.623
  699POPC   GL111509  18.922  31.999   9.230
  699POPC   GL211510  19.026  32.354   9.220
  699POPC   C1A11511  19.220  32.022   8.856
  699POPC   D2A11512  19.066  32.068   8.426
  699POPC   C3A11513  19.270  32.038   8.015
  699POPC   C4A11514  18.942  31.945   7.728
  699POPC   C1B11515  18.803  32.344   8.830
  699POPC   C2B11516  18.825  32.513   8.411
  699POPC   C3B11517  18.908  32.405   7.990
  699POPC   C4B11518  18.750  32.651   7.672
  700POPC   NC311519  17.665   2.207   9.411
  700POPC   PO411520  17.092   1.868   9.488
  700POPC   GL111521  17.382   1.845   9.142
  700POPC   GL211522  17.400   2.194   8.986
  700POPC   C1A11523  17.609   1.792   8.754
  700POPC   D2A11524  17.541   2.124   8.425
  700POPC   C3A11525  17.429   1.878   8.053
  700POPC   C4A11526  17.666   1.613   7.797
  700POPC   C1B11527  17.014   2.371   8.878
  700POPC   C2B11528  16.990   2.463   8.471
  700POPC   C3B11529  17.089   2.239   8.157
  700POPC   C4B11530  17.296   2.300   7.775
  701POPC   NC311531  10.154  35.264   9.227
  701POPC   PO411532  10.715  35.087   9.440
  701POPC   GL111533  10.633  35.273   9.031
  701POPC   GL211534  10.468  35.626   9.047
  701POPC   C1A11535  10.400  35.308   8.619
  701POPC   D2A11536  10.435  35.524   8.226
  701POPC   C3A11537  10.484  35.319   7.849
  701POPC   C4A11538  10.850  35.087   7.762
  701POPC   C1B11539  10.357  35.868   8.627
  701POPC   C2B11540  10.250  35.995   8.161
  701POPC   C3B11541  10.172  35.736   7.767
  701POPC   C4B11542  10.468  35.606   7.419
  702POPC   NC311543   2.290  22.414   9.446
  702POPC   PO411544   2.942  22.170   9.472
  702POPC   GL111545   2.839  21.928   9.108
  702POPC   GL211546   2.495  22.030   9.121
  702POPC   C1A11547   2.716  21.924   8.656
  702POPC   D2A11548   2.473  22.203   8.399
  702POPC   C3A11549   2.608  22.372   8.012
  702POPC   C4A11550   2.863  22.411   7.668
  702POPC   C1B11551   2.216  21.833   8.836
  702POPC   C2B11552   2.272  21.725   8.466
  702POPC   C3B11553   2.191  21.904   8.089
  702POPC   C4B11554   2.481  21.931   7.739
  703POPC   NC311555  31.682  24.929   9.405
  703POPC   PO411556  31.323  24.362   9.424
  703POPC   GL111557  31.573  24.262   9.060
  703POPC   GL211558  31.759  24.523   8.909
  703POPC   C1A11559  31.662  23.992   8.727
  703POPC   D2A11560  31.598  23.968   8.293
  703POPC   C3A11561  31.477  24.280   8.019
  703POPC   C4A11562  31.340  24.136   7.619
  703POPC   C1B11563  31.379  24.408   8.610
  703POPC   C2B11564  31.184  24.648   8.262
  703POPC   C3B11565  31.442  24.905   8.012
  703POPC   C4B11566  31.542  24.659   7.656
  704POPC   NC311567  14.850  43.098   9.524
  704POPC   PO411568  15.406  42.826   9.170
  704POPC   GL111569  15.129  43.019   8.983
  704POPC   GL211570  15.153  43.291   9.131
  704POPC   C1A11571  14.936  42.935   8.627
  704POPC   D2A11572  14.876  43.008   8.200
  704POPC   C3A11573  15.186  43.070   7.885
  704POPC   C4A11574  14.868  42.960   7.613
  704POPC   C1B11575  15.320  43.376   8.686
  704POPC   C2B11576  15.141  43.430   8.252
  704POPC   C3B11577  14.832  43.443   7.846
  704POPC   C4B11578  14.746  43.389   7.370
  705POPC   NC311579  22.872  26.473   9.453
  705POPC   PO411580  23.386  26.640   9.688
  705POPC   GL111581  23.261  26.688   9.215
  705POPC   GL211582  22.951  26.895   9.173
  705POPC   C1A11583  23.236  26.616   8.771
  705POPC   D2A11584  23.236  26.845   8.397
  705POPC   C3A11585  23.025  26.746   8.033
  705POPC   C4A11586  22.984  26.926   7.654
  705POPC   C1B11587  22.705  26.696   8.818
  705POPC   C2B11588  22.450  26.721   8.437
  705POPC   C3B11589  22.515  26.805   8.005
  705POPC   C4B11590  22.548  26.670   7.568
  706POPC   NC311591  34.778  16.438   9.498
  706POPC   PO411592  34.320  16.971   9.675
  706POPC   GL111593  34.417  16.768   9.296
  706POPC   GL211594  34.678  16.918   9.130
  706POPC   C1A11595  34.299  16.618   8.882
  706POPC   D2A11596  34.395  16.526   8.435
  706POPC   C3A11597  34.451  16.810   8.076
  706POPC   C4A11598  34.346  16.793   7.665
  706POPC   C1B11599  34.808  16.640   8.796
  706POPC   C2B11600  34.874  16.722   8.360
  706POPC   C3B11601  34.837  16.512   7.935
  706POPC   C4B11602  34.751  16.533   7.470
  707POPC   NC311603  39.163  32.739   9.484
  707POPC   PO411604  39.270  33.414   9.456
  707POPC   GL111605  38.989  33.186   9.143
  707POPC   GL211606  38.964  32.817   9.034
  707POPC   C1A11607  38.942  33.183   8.685
  707POPC   D2A11608  39.245  33.304   8.376
  707POPC   C3A11609  39.180  33.158   7.960
  707POPC   C4A11610  39.393  32.877   7.700
  707POPC   C1B11611  39.201  32.722   8.653
  707POPC   C2B11612  39.271  32.711   8.229
  707POPC   C3B11613  39.050  32.561   7.910
  707POPC   C4B11614  38.825  32.836   7.753
  708POPC   NC311615  23.776  12.737   9.440
  708POPC   PO411616  23.208  13.106   9.306
  708POPC   GL111617  23.466  12.870   8.991
  708POPC   GL211618  23.800  12.802   8.957
  708POPC   C1A11619  23.550  12.869   8.535
  708POPC   D2A11620  23.756  12.638   8.218
  708POPC   C3A11621  23.508  12.600   7.872
  708POPC   C4A11622  23.473  12.963   7.533
  708POPC   C1B11623  24.077  12.718   8.620
  708POPC   C2B11624  24.248  12.600   8.215
  708POPC   C3B11625  24.262  12.779   7.827
  708POPC   C4B11626  24.279  12.885   7.367
  709POPC   NC311627  30.384  19.391   9.190
  709POPC   PO411628  30.031  18.965   9.580
  709POPC   GL111629  29.971  19.066   9.173
  709POPC   GL211630  30.225  18.803   9.120
  709POPC   C1A11631  29.754  19.276   8.834
  709POPC   D2A11632  29.507  19.188   8.468
  709POPC   C3A11633  29.627  18.921   8.140
  709POPC   C4A11634  29.816  19.114   7.765
  709POPC   C1B11635  30.007  18.833   8.717
  709POPC   C2B11636  30.079  19.106   8.351
  709POPC   C3B11637  30.296  19.009   7.952
  709POPC   C4B11638  30.151  18.744   7.601
  710POPC   NC311639  19.683   3.969   9.623
  710POPC   PO411640  19.999   4.571   9.491
  710POPC   GL111641  19.920   4.410   9.092
  710POPC   GL211642  19.679   4.136   9.144
  710POPC   C1A11643  19.939   4.600   8.661
  710POPC   D2A11644  19.637   4.631   8.323
  710POPC   C3A11645  19.768   4.680   7.895
  710POPC   C4A11646  20.197   4.599   7.897
  710POPC   C1B11647  19.616   4.201   8.716
  710POPC   C2B11648  19.896   4.175   8.365
  710POPC   C3B11649  19.737   4.176   7.962
  710POPC   C4B11650  19.586   3.820   7.828
  711POPC   NC311651   9.755  15.217   9.620
  711POPC   PO411652   9.871  14.574   9.603
  711POPC   GL111653  10.005  14.949   9.274
  711POPC   GL211654   9.627  14.958   9.198
  711POPC   C1A11655   9.901  15.229   8.883
  711POPC   D2A11656   9.934  15.274   8.443
  711POPC   C3A11657   9.737  15.159   8.069
  711POPC   C4A11658   9.970  15.188   7.714
  711POPC   C1B11659   9.496  14.914   8.763
  711POPC   C2B11660   9.335  14.983   8.350
  711POPC   C3B11661   9.366  14.801   7.960
  711POPC   C4B11662   9.516  14.915   7.602
  712POPC   NC311663  25.448  35.798   9.370
  712POPC   PO411664  25.163  35.191   9.531
  712POPC   GL111665  25.264  35.059   9.116
  712POPC   GL211666  25.323  35.416   9.075
  712POPC   C1A11667  25.108  35.176   8.702
  712POPC   D2A11668  25.362  35.362   8.379
  712POPC   C3A11669  25.479  35.096   8.013
  712POPC   C4A11670  25.521  35.251   7.600
  712POPC   C1B11671  25.189  35.726   8.755
  712POPC   C2B11672  25.173  35.913   8.337
  712POPC   C3B11673  25.359  35.711   7.983
  712POPC   C4B11674  25.561  35.740   7.620
  713POPC   NC311675  25.115  14.910   9.300
  713POPC   PO411676  24.897  15.396   9.752
  713POPC   GL111677  25.062  15.507   9.278
  713POPC   GL211678  25.362  15.346   9.140
  713POPC   C1A11679  24.995  15.492   8.806
  713POPC   D2A11680  24.958  15.156   8.473
  713POPC   C3A11681  25.060  15.318   8.070
  713POPC   C4A11682  25.171  15.040   7.738
  713POPC   C1B11683  25.403  15.167   8.745
  713POPC   C2B11684  25.496  15.033   8.325
  713POPC   C3B11685  25.663  14.792   7.979
  713POPC   C4B11686  25.602  14.834   7.526
  714POPC   NC311687   2.849  41.348   9.585
  714POPC   PO411688   2.521  41.866   9.698
  714POPC   GL111689   2.571  41.566   9.230
  714POPC   GL211690   2.339  41.320   9.152
  714POPC   C1A11691   2.713  41.239   8.829
  714POPC   D2A11692   2.968  41.312   8.458
  714POPC   C3A11693   2.811  41.251   8.042
  714POPC   C4A11694   2.819  41.479   7.656
  714POPC   C1B11695   2.337  41.551   8.722
  714POPC   C2B11696   2.521  41.594   8.303
  714POPC   C3B11697   2.390  41.701   7.871
  714POPC   C4B11698   2.394  41.626   7.418
  715POPC   NC311699   4.209  15.690   9.238
  715POPC   PO411700   4.145  16.288   9.476
  715POPC   GL111701   4.289  16.270   9.079
  715POPC   GL211702   4.565  16.080   9.132
  715POPC   C1A11703   4.296  16.107   8.669
  715POPC   D2A11704   4.351  16.237   8.252
  715POPC   C3A11705   4.032  16.121   7.980
  715POPC   C4A11706   4.014  15.669   7.807
  715POPC   C1B11707   4.746  15.855   8.776
  715POPC   C2B11708   4.567  15.763   8.373
  715POPC   C3B11709   4.485  15.809   7.947
  715POPC   C4B11710   4.751  15.778   7.611
  716POPC   NC311711   4.551  36.924   9.516
  716POPC   PO411712   4.015  37.231   9.258
  716POPC   GL111713   4.279  37.072   9.068
  716POPC   GL211714   4.173  36.756   9.166
  716POPC   C1A11715   4.309  37.170   8.641
  716POPC   D2A11716   4.358  36.985   8.274
  716POPC   C3A11717   4.505  37.246   7.984
  716POPC   C4A11718   4.295  37.083   7.650
  716POPC   C1B11719   4.395  36.688   8.750
  716POPC   C2B11720   4.518  36.516   8.366
  716POPC   C3B11721   4.467  36.579   7.921
  716POPC   C4B11722   4.862  36.374   7.763
  717POPC   NC311723  44.432  42.033   9.480
  717POPC   PO411724   0.083  42.042   9.466
  717POPC   GL111725  44.865  42.357   9.170
  717POPC   GL211726  44.491  42.297   9.057
  717POPC   C1A11727  44.816  42.456   8.713
  717POPC   D2A11728  44.488  42.357   8.399
  717POPC   C3A11729  44.605  42.578   8.005
  717POPC   C4A11730  44.383  42.595   7.612
  717POPC   C1B11731  44.767  41.943   8.890
  717POPC   C2B11732  44.978  41.899   8.515
  717POPC   C3B11733  44.846  42.101   8.152
  717POPC   C4B11734  44.959  42.259   7.766
  718POPC   NC311735  30.861   4.300   9.410
  718POPC   PO411736  30.227   4.049   9.422
  718POPC   GL111737  30.438   4.334   9.106
  718POPC   GL211738  30.747   4.571   8.982
  718POPC   C1A11739  30.465   4.243   8.699
  718POPC   D2A11740  30.452   3.909   8.451
  718POPC   C3A11741  30.395   4.094   8.101
  718POPC   C4A11742  30.552   4.444   7.863
  718POPC   C1B11743  30.985   4.243   8.719
  718POPC   C2B11744  30.940   4.026   8.293
  718POPC   C3B11745  31.142   4.121   7.890
  718POPC   C4B11746  31.095   4.002   7.416
  719POPC   NC311747  17.802  37.040   9.541
  719POPC   PO411748  17.166  36.827   9.427
  719POPC   GL111749  17.451  36.865   9.086
  719POPC   GL211750  17.831  36.847   9.074
  719POPC   C1A11751  17.568  36.624   8.718
  719POPC   D2A11752  17.573  36.695   8.317
  719POPC   C3A11753  17.207  36.748   8.095
  719POPC   C4A11754  17.351  36.910   7.710
  719POPC   C1B11755  17.689  37.132   8.713
  719POPC   C2B11756  17.808  37.151   8.302
  719POPC   C3B11757  17.845  36.964   7.920
  719POPC   C4B11758  17.684  37.351   7.770
  720POPC   NC311759  14.704   4.577   9.613
  720POPC   PO411760  15.149   4.115   9.584
  720POPC   GL111761  15.258   4.330   9.195
  720POPC   GL211762  14.984   4.576   9.154
  720POPC   C1A11763  15.358   4.198   8.765
  720POPC   D2A11764  15.218   3.989   8.388
  720POPC   C3A11765  15.278   4.198   8.009
  720POPC   C4A11766  15.562   4.154   7.693
  720POPC   C1B11767  15.173   4.687   8.759
  720POPC   C2B11768  15.115   4.550   8.368
  720POPC   C3B11769  15.034   4.639   7.959
  720POPC   C4B11770  15.374   4.711   7.776
  721POPC   NC311771  25.011  37.194   9.392
  721POPC   PO411772  24.503  36.755   9.484
  721POPC   GL111773  24.418  36.727   9.070
  721POPC   GL211774  24.733  36.895   9.022
  721POPC   C1A11775  24.153  36.614   8.699
  721POPC   D2A11776  24.195  36.383   8.309
  721POPC   C3A11777  24.317  36.612   7.906
  721POPC   C4A11778  24.321  37.019   7.656
  721POPC   C1B11779  24.675  36.694   8.623
  721POPC   C2B11780  24.734  36.797   8.189
  721POPC   C3B11781  24.790  36.728   7.767
  721POPC   C4B11782  25.051  36.710   7.390
  722POPC   NC311783  24.034  36.661   9.450
  722POPC   PO411784  23.616  37.174   9.585
  722POPC   GL111785  23.613  36.959   9.147
  722POPC   GL211786  23.660  36.590   9.098
  722POPC   C1A11787  23.748  36.949   8.692
  722POPC   D2A11788  23.584  37.066   8.299
  722POPC   C3A11789  23.781  37.108   7.934
  722POPC   C4A11790  23.551  37.059   7.586
  722POPC   C1B11791  23.447  36.529   8.715
  722POPC   C2B11792  23.689  36.566   8.323
  722POPC   C3B11793  23.548  36.660   7.945
  722POPC   C4B11794  23.412  36.536   7.585
  723POPC   NC311795  32.534  21.525   9.399
  723POPC   PO411796  32.037  21.111   9.489
  723POPC   GL111797  32.104  21.274   9.083
  723POPC   GL211798  32.137  21.623   9.086
  723POPC   C1A11799  31.963  21.417   8.647
  723POPC   D2A11800  32.059  21.564   8.237
  723POPC   C3A11801  32.108  21.257   7.932
  723POPC   C4A11802  32.407  21.010   7.725
  723POPC   C1B11803  32.442  21.494   8.740
  723POPC   C2B11804  32.491  21.284   8.321
  723POPC   C3B11805  32.566  21.515   7.938
  723POPC   C4B11806  32.381  21.917   7.780
  724POPC   NC311807  12.367   7.905   9.473
  724POPC   PO411808  12.151   7.208   9.611
  724POPC   GL111809  11.960   7.241   9.208
  724POPC   GL211810  12.033   7.614   9.154
  724POPC   C1A11811  11.891   7.309   8.781
  724POPC   D2A11812  12.150   7.400   8.443
  724POPC   C3A11813  11.960   7.265   8.077
  724POPC   C4A11814  11.980   7.533   7.763
  724POPC   C1B11815  12.423   7.656   8.847
  724POPC   C2B11816  12.608   7.731   8.445
  724POPC   C3B11817  12.329   7.791   8.071
  724POPC   C4B11818  12.411   7.737   7.598
  725POPC   NC311819  33.223  16.186   9.605
  725POPC   PO411820  32.793  15.668   9.581
  725POPC   GL111821  32.906  15.935   9.280
  725POPC   GL211822  33.023  15.634   9.118
  725POPC   C1A11823  32.822  16.027   8.868
  725POPC   D2A11824  32.601  15.935   8.501
  725POPC   C3A11825  32.657  16.220   8.151
  725POPC   C4A11826  32.947  16.028   7.891
  725POPC   C1B11827  33.261  15.536   8.756
  725POPC   C2B11828  33.085  15.718   8.382
  725POPC   C3B11829  33.264  15.642   7.995
  725POPC   C4B11830  33.222  15.719   7.587
  726POPC   NC311831   8.678   7.064   9.734
  726POPC   PO411832   8.025   7.047   9.551
  726POPC   GL111833   8.190   7.273   9.210
  726POPC   GL211834   7.845   7.368   9.182
  726POPC   C1A11835   8.350   7.367   8.806
  726POPC   D2A11836   8.461   7.722   8.547
  726POPC   C3A11837   8.410   7.638   8.079
  726POPC   C4A11838   8.524   7.283   7.807
  726POPC   C1B11839   7.851   7.463   8.774
  726POPC   C2B11840   7.994   7.551   8.389
  726POPC   C3B11841   7.787   7.435   8.039
  726POPC   C4B11842   8.015   7.467   7.725
  727POPC   NC311843  32.433  15.988   9.532
  727POPC   PO411844  32.221  15.563   9.116
  727POPC   GL111845  32.325  16.034   9.034
  727POPC   GL211846  32.010  16.235   8.957
  727POPC   C1A11847  32.441  16.358   8.723
  727POPC   D2A11848  32.174  16.302   8.370
  727POPC   C3A11849  32.236  15.910   8.147
  727POPC   C4A11850  32.410  15.936   7.762
  727POPC   C1B11851  31.955  15.912   8.624
  727POPC   C2B11852  31.752  15.772   8.243
  727POPC   C3B11853  31.865  15.776   7.821
  727POPC   C4B11854  31.926  16.199   7.716
  728POPC   NC311855   0.977  40.034   9.440
  728POPC   PO411856   1.594  39.768   9.617
  728POPC   GL111857   1.421  39.846   9.186
  728POPC   GL211858   1.409  40.195   9.162
  728POPC   C1A11859   1.119  39.941   8.813
  728POPC   D2A11860   1.061  40.205   8.454
  728POPC   C3A11861   1.104  40.068   8.024
  728POPC   C4A11862   0.759  40.132   7.747
  728POPC   C1B11863   1.580  40.142   8.735
  728POPC   C2B11864   1.570  40.086   8.312
  728POPC   C3B11865   1.567  40.282   7.926
  728POPC   C4B11866   1.495  39.957   7.631
  729POPC   NC311867   0.079  10.326   9.616
  729POPC   PO411868   0.767  10.581   9.574
  729POPC   GL111869   0.581  10.533   9.107
  729POPC   GL211870   0.284  10.224   9.141
  729POPC   C1A11871   0.518  10.750   8.709
  729POPC   D2A11872   0.290  10.750   8.296
  729POPC   C3A11873   0.565  10.741   7.893
  729POPC   C4A11874   0.767  10.629   7.479
  729POPC   C1B11875   0.164  10.390   8.710
  729POPC   C2B11876   0.389  10.244   8.339
  729POPC   C3B11877   0.226  10.373   7.942
  729POPC   C4B11878   0.013  10.756   7.858
  730POPC   NC311879  30.610  37.924   9.581
  730POPC   PO411880  31.063  37.442   9.571
  730POPC   GL111881  30.943  37.678   9.215
  730POPC   GL211882  30.570  37.594   9.200
  730POPC   C1A11883  30.832  37.692   8.771
  730POPC   D2A11884  30.827  37.391   8.456
  730POPC   C3A11885  30.835  37.557   8.076
  730POPC   C4A11886  30.990  37.729   7.713
  730POPC   C1B11887  30.321  37.730   8.849
  730POPC   C2B11888  30.322  37.575   8.445
  730POPC   C3B11889  30.317  37.580   8.028
  730POPC   C4B11890  30.513  37.594   7.649
  731POPC   NC311891  11.769   4.987   9.465
  731POPC   PO411892  11.131   5.273   9.434
  731POPC   GL111893  11.426   5.209   9.099
  731POPC   GL211894  11.383   4.835   9.089
  731POPC   C1A11895  11.433   5.099   8.642
  731POPC   D2A11896  11.465   5.106   8.201
  731POPC   C3A11897  11.188   5.323   7.911
  731POPC   C4A11898  11.424   5.401   7.548
  731POPC   C1B11899  11.090   4.722   8.721
  731POPC   C2B11900  11.168   4.667   8.259
  731POPC   C3B11901  11.252   4.817   7.835
  731POPC   C4B11902  10.980   4.803   7.517
  732POPC   NC311903  15.376  31.409   9.444
  732POPC   PO411904  14.859  31.301   9.216
  732POPC   GL111905  15.164  31.493   8.976
  732POPC   GL211906  15.424  31.251   8.967
  732POPC   C1A11907  15.347  31.559   8.581
  732POPC   D2A11908  15.562  31.466   8.236
  732POPC   C3A11909  15.220  31.519   7.968
  732POPC   C4A11910  15.170  31.624   7.558
  732POPC   C1B11911  15.466  31.016   8.614
  732POPC   C2B11912  15.530  30.954   8.189
  732POPC   C3B11913  15.504  31.113   7.783
  732POPC   C4B11914  15.434  31.198   7.342
  733POPC   NC311915  15.909  20.952   9.415
  733POPC   PO411916  16.131  21.667   9.503
  733POPC   GL111917  15.925  21.484   9.181
  733POPC   GL211918  16.174  21.251   9.036
  733POPC   C1A11919  15.905  21.625   8.775
  733POPC   D2A11920  16.174  21.375   8.514
  733POPC   C3A11921  16.153  21.508   8.084
  733POPC   C4A11922  15.795  21.676   7.841
  733POPC   C1B11923  15.786  21.150   8.776
  733POPC   C2B11924  15.692  21.355   8.354
  733POPC   C3B11925  15.789  21.163   7.949
  733POPC   C4B11926  15.632  21.269   7.544
  734POPC   NC311927  33.283   7.212   9.813
  734POPC   PO411928  32.952   7.727   9.460
  734POPC   GL111929  33.170   7.567   9.125
  734POPC   GL211930  33.319   7.287   9.247
  734POPC   C1A11931  32.974   7.351   8.778
  734POPC   D2A11932  32.779   7.244   8.399
  734POPC   C3A11933  32.876   7.529   8.079
  734POPC   C4A11934  33.028   7.549   7.656
  734POPC   C1B11935  33.472   7.274   8.806
  734POPC   C2B11936  33.303   7.176   8.380
  734POPC   C3B11937  33.129   7.080   7.962
  734POPC   C4B11938  33.181   7.075   7.493
  735POPC   NC311939  37.945  29.634   9.397
  735POPC   PO411940  37.803  29.018   9.532
  735POPC   GL111941  37.612  28.939   9.134
  735POPC   GL211942  37.672  29.304   9.088
  735POPC   C1A11943  37.720  28.945   8.714
  735POPC   D2A11944  37.683  29.189   8.366
  735POPC   C3A11945  37.595  28.962   8.012
  735POPC   C4A11946  37.654  28.987   7.606
  735POPC   C1B11947  37.386  29.375   8.757
  735POPC   C2B11948  37.344  29.569   8.327
  735POPC   C3B11949  37.478  29.441   7.900
  735POPC   C4B11950  37.434  29.482   7.440
  736POPC   NC311951  37.488  35.000   9.429
  736POPC   PO411952  38.009  34.634   9.428
  736POPC   GL111953  37.676  34.597   9.136
  736POPC   GL211954  37.335  34.562   9.240
  736POPC   C1A11955  37.762  34.495   8.706
  736POPC   D2A11956  37.929  34.799   8.410
  736POPC   C3A11957  37.947  34.667   7.997
  736POPC   C4A11958  37.734  34.713   7.607
  736POPC   C1B11959  37.327  34.774   8.828
  736POPC   C2B11960  37.328  34.579   8.448
  736POPC   C3B11961  37.450  34.617   8.057
  736POPC   C4B11962  37.640  34.262   7.849
  737POPC   NC311963  16.576  32.584   9.481
  737POPC   PO411964  16.649  31.946   9.539
  737POPC   GL111965  16.507  32.178   9.177
  737POPC   GL211966  16.848  32.319   9.150
  737POPC   C1A11967  16.500  32.401   8.779
  737POPC   D2A11968  16.752  32.274   8.425
  737POPC   C3A11969  16.595  32.256   8.028
  737POPC   C4A11970  16.396  32.163   7.638
  737POPC   C1B11971  17.045  32.470   8.787
  737POPC   C2B11972  17.124  32.626   8.360
  737POPC   C3B11973  16.986  32.582   7.959
  737POPC   C4B11974  16.824  32.435   7.598
  738POPC   NC311975  32.800  34.078   9.489
  738POPC   PO411976  32.994  33.426   9.460
  738POPC   GL111977  33.153  33.543   9.086
  738POPC   GL211978  33.080  33.894   9.067
  738POPC   C1A11979  32.929  33.591   8.701
  738POPC   D2A11980  32.777  33.700   8.322
  738POPC   C3A11981  33.050  33.575   8.025
  738POPC   C4A11982  32.870  33.513   7.641
  738POPC   C1B11983  32.921  34.116   8.675
  738POPC   C2B11984  33.064  34.122   8.224
  738POPC   C3B11985  32.951  33.999   7.776
  738POPC   C4B11986  33.121  33.935   7.344
  739POPC   NC311987   4.980  19.026   9.414
  739POPC   PO411988   5.029  19.623   9.613
  739POPC   GL111989   5.127  19.470   9.197
  739POPC   GL211990   5.398  19.180   9.149
  739POPC   C1A11991   5.062  19.319   8.795
  739POPC   D2A11992   5.299  19.192   8.432
  739POPC   C3A11993   5.034  19.176   8.096
  739POPC   C4A11994   5.091  19.256   7.690
  739POPC   C1B11995   5.236  18.851   8.808
  739POPC   C2B11996   5.085  18.685   8.384
  739POPC   C3B11997   5.182  18.682   7.935
  739POPC   C4B11998   5.086  18.796   7.501
  740POPC   NC311999  17.525   5.574   9.440
  740POPC   PO412000  17.359   6.174   9.659
  740POPC   GL112001  17.319   5.985   9.230
  740POPC   GL212002  17.640   6.061   9.134
  740POPC   C1A12003  17.343   5.807   8.782
  740POPC   D2A12004  17.254   5.995   8.342
  740POPC   C3A12005  17.378   5.886   7.924
  740POPC   C4A12006  17.279   5.818   7.489
  740POPC   C1B12007  17.824   5.965   8.720
  740POPC   C2B12008  17.765   6.080   8.259
  740POPC   C3B12009  17.875   5.829   7.896
  740POPC   C4B12010  17.786   5.821   7.478
  741POPC   NC312011  34.317  21.047   9.554
  741POPC   PO412012  34.472  21.723   9.523
  741POPC   GL112013  34.565  21.524   9.125
  741POPC   GL212014  34.552  21.165   9.124
  741POPC   C1A12015  34.677  21.492   8.663
  741POPC   D2A12016  34.714  21.497   8.190
  741POPC   C3A12017  34.421  21.487   7.903
  741POPC   C4A12018  34.588  21.453   7.476
  741POPC   C1B12019  34.485  20.975   8.732
  741POPC   C2B12020  34.353  21.193   8.372
  741POPC   C3B12021  34.307  20.982   8.023
  741POPC   C4B12022  34.233  21.122   7.588
  742POPC   NC312023  35.114  42.190   9.671
  742POPC   PO412024  34.542  42.636   9.300
  742POPC   GL112025  34.524  42.280   9.094
  742POPC   GL212026  34.843  42.043   9.161
  742POPC   C1A12027  34.293  42.214   8.726
  742POPC   D2A12028  34.413  42.307   8.332
  742POPC   C3A12029  34.486  42.119   7.973
  742POPC   C4A12030  34.768  42.399   7.761
  742POPC   C1B12031  34.880  42.211   8.739
  742POPC   C2B12032  34.808  41.984   8.397
  742POPC   C3B12033  34.998  42.030   8.030
  742POPC   C4B12034  34.885  41.891   7.654
  743POPC   NC312035  14.903  34.851   9.463
  743POPC   PO412036  15.046  34.207   9.388
  743POPC   GL112037  15.073  34.553   9.081
  743POPC   GL212038  15.304  34.830   9.144
  743POPC   C1A12039  15.075  34.704   8.671
  743POPC   D2A12040  15.082  34.519   8.279
  743POPC   C3A12041  14.842  34.571   7.918
  743POPC   C4A12042  14.946  34.659   7.497
  743POPC   C1B12043  15.485  34.981   8.740
  743POPC   C2B12044  15.412  34.884   8.314
  743POPC   C3B12045  15.296  34.825   7.880
  743POPC   C4B12046  15.420  35.001   7.505
  744POPC   NC312047  38.887  26.723   9.590
  744POPC   PO412048  39.416  26.400   9.728
  744POPC   GL112049  39.310  26.699   9.297
  744POPC   GL212050  38.980  26.801   9.106
  744POPC   C1A12051  39.409  26.760   8.860
  744POPC   D2A12052  39.383  26.937   8.470
  744POPC   C3A12053  39.296  26.776   8.090
  744POPC   C4A12054  39.415  26.843   7.694
  744POPC   C1B12055  38.778  26.522   8.804
  744POPC   C2B12056  38.647  26.410   8.414
  744POPC   C3B12057  38.819  26.507   8.079
  744POPC   C4B12058  38.973  26.601   7.732
  745POPC   NC312059  32.026   8.531   9.433
  745POPC   PO412060  32.262   7.876   9.457
  745POPC   GL112061  32.335   8.218   9.157
  745POPC   GL212062  32.672   8.368   9.141
  745POPC   C1A12063  32.058   8.294   8.800
  745POPC   D2A12064  31.945   8.041   8.443
  745POPC   C3A12065  31.980   8.278   8.075
  745POPC   C4A12066  32.181   8.291   7.671
  745POPC   C1B12067  32.660   8.346   8.728
  745POPC   C2B12068  32.404   8.299   8.418
  745POPC   C3B12069  32.457   8.131   8.072
  745POPC   C4B12070  32.588   7.849   7.794
  746POPC   NC312071   2.451   3.664   9.532
  746POPC   PO412072   2.888   3.157   9.447
  746POPC   GL112073   2.729   3.448   9.151
  746POPC   GL212074   2.446   3.289   9.084
  746POPC   C1A12075   2.724   3.661   8.747
  746POPC   D2A12076   2.985   3.739   8.409
  746POPC   C3A12077   2.780   3.660   8.021
  746POPC   C4A12078   3.000   3.831   7.692
  746POPC   C1B12079   2.694   3.130   8.720
  746POPC   C2B12080   2.794   3.219   8.280
  746POPC   C3B12081   2.475   3.226   7.934
  746POPC   C4B12082   2.432   3.305   7.530
  747POPC   NC312083   5.454  16.082   9.450
  747POPC   PO412084   6.069  15.845   9.585
  747POPC   GL112085   5.871  15.933   9.181
  747POPC   GL212086   5.980  15.603   9.132
  747POPC   C1A12087   5.672  16.163   8.789
  747POPC   D2A12088   5.544  16.082   8.331
  747POPC   C3A12089   5.844  16.063   7.968
  747POPC   C4A12090   5.896  16.237   7.558
  747POPC   C1B12091   5.777  15.651   8.762
  747POPC   C2B12092   5.934  15.773   8.392
  747POPC   C3B12093   5.937  15.560   8.003
  747POPC   C4B12094   5.899  15.716   7.576
  748POPC   NC312095  39.602   4.228   9.205
  748POPC   PO412096  39.983   4.645   9.598
  748POPC   GL112097  40.125   4.452   9.175
  748POPC   GL212098  40.196   4.080   9.169
  748POPC   C1A12099  40.091   4.441   8.707
  748POPC   D2A12100  39.805   4.560   8.368
  748POPC   C3A12101  39.915   4.397   7.958
  748POPC   C4A12102  40.307   4.511   7.813
  748POPC   C1B12103  40.354   3.994   8.727
  748POPC   C2B12104  40.338   4.171   8.269
  748POPC   C3B12105  40.222   3.994   7.837
  748POPC   C4B12106  40.365   3.939   7.357
  749POPC   NC312107   1.771   7.314   9.508
  749POPC   PO412108   2.186   7.827   9.394
  749POPC   GL112109   1.922   7.626   9.141
  749POPC   GL212110   2.143   7.328   9.152
  749POPC   C1A12111   1.758   7.384   8.791
  749POPC   D2A12112   1.888   7.194   8.414
  749POPC   C3A12113   1.863   7.332   7.982
  749POPC   C4A12114   1.612   7.293   7.626
  749POPC   C1B12115   2.291   7.569   8.794
  749POPC   C2B12116   2.264   7.524   8.363
  749POPC   C3B12117   2.309   7.129   8.152
  749POPC   C4B12118   2.283   7.020   7.724
  750POPC   NC312119   2.530   7.119   9.529
  750POPC   PO412120   2.479   6.448   9.565
  750POPC   GL112121   2.692   6.667   9.223
  750POPC   GL212122   2.988   6.879   9.238
  750POPC   C1A12123   2.552   6.653   8.803
  750POPC   D2A12124   2.741   6.579   8.403
  750POPC   C3A12125   2.587   6.707   8.032
  750POPC   C4A12126   2.678   6.717   7.590
  750POPC   C1B12127   3.015   6.851   8.769
  750POPC   C2B12128   3.120   6.933   8.322
  750POPC   C3B12129   3.089   6.797   7.899
  750POPC   C4B12130   3.318   6.663   7.540
  751POPC   NC312131  12.562   4.432   9.377
  751POPC   PO412132  13.131   4.555   9.677
  751POPC   GL112133  13.101   4.417   9.173
  751POPC   GL212134  13.130   4.079   9.021
  751POPC   C1A12135  12.873   4.412   8.735
  751POPC   D2A12136  12.826   4.610   8.305
  751POPC   C3A12137  12.667   4.429   7.895
  751POPC   C4A12138  12.779   4.388   7.423
  751POPC   C1B12139  13.125   3.999   8.549
  751POPC   C2B12140  13.402   3.938   8.180
  751POPC   C3B12141  13.303   3.900   7.719
  751POPC   C4B12142  13.063   3.975   7.329
  752POPC   NC312143   7.103  18.111   9.660
  752POPC   PO412144   7.441  17.489   9.510
  752POPC   GL112145   7.488  17.595   9.151
  752POPC   GL212146   7.630  17.955   9.130
  752POPC   C1A12147   7.431  17.449   8.749
  752POPC   D2A12148   7.206  17.523   8.393
  752POPC   C3A12149   7.411  17.409   8.044
  752POPC   C4A12150   7.299  17.514   7.659
  752POPC   C1B12151   7.872  17.698   8.876
  752POPC   C2B12152   7.871  17.556   8.464
  752POPC   C3B12153   7.822  17.790   8.115
  752POPC   C4B12154   7.763  17.632   7.734
  753POPC   NC312155   0.756  10.164   9.372
  753POPC   PO412156   0.236   9.832   9.521
  753POPC   GL112157   0.515   9.746   9.145
  753POPC   GL212158   0.650  10.017   8.880
  753POPC   C1A12159   0.603   9.523   8.764
  753POPC   D2A12160   0.516   9.723   8.383
  753POPC   C3A12161   0.476   9.499   8.039
  753POPC   C4A12162   0.647   9.558   7.658
  753POPC   C1B12163   0.212   9.905   8.746
  753POPC   C2B12164  44.936  10.013   8.384
  753POPC   C3B12165   0.135   9.885   8.036
  753POPC   C4B12166   0.562   9.999   7.907
  754POPC   NC312167  35.412  27.186   9.411
  754POPC   PO412168  35.450  27.871   9.548
  754POPC   GL112169  35.323  27.692   9.156
  754POPC   GL212170  35.556  27.962   9.057
  754POPC   C1A12171  35.329  27.368   8.801
  754POPC   D2A12172  35.531  27.366   8.395
  754POPC   C3A12173  35.308  27.425   8.003
  754POPC   C4A12174  35.500  27.346   7.583
  754POPC   C1B12175  35.465  27.834   8.667
  754POPC   C2B12176  35.315  27.848   8.290
  754POPC   C3B12177  35.465  27.889   7.903
  754POPC   C4B12178  35.256  27.766   7.563
  755POPC   NC312179  29.157  42.888   9.575
  755POPC   PO412180  29.157  43.485   9.326
  755POPC   GL112181  29.012  43.134   9.116
  755POPC   GL212182  29.306  42.907   9.103
  755POPC   C1A12183  28.899  43.289   8.705
  755POPC   D2A12184  29.102  43.286   8.324
  755POPC   C3A12185  28.891  43.501   8.000
  755POPC   C4A12186  28.933  43.268   7.675
  755POPC   C1B12187  29.372  43.075   8.729
  755POPC   C2B12188  29.593  43.034   8.369
  755POPC   C3B12189  29.470  42.942   7.966
  755POPC   C4B12190  29.683  42.864   7.587
  756POPC   NC312191  35.949  10.523   9.491
  756POPC   PO412192  36.586  10.321   9.611
  756POPC   GL112193  36.399  10.512   9.193
  756POPC   GL212194  36.224  10.859   9.181
  756POPC   C1A12195  36.217  10.533   8.751
  756POPC   D2A12196  35.962  10.370   8.375
  756POPC   C3A12197  36.126  10.521   8.005
  756POPC   C4A12198  36.046  10.339   7.605
  756POPC   C1B12199  35.963  11.019   8.828
  756POPC   C2B12200  36.045  10.890   8.411
  756POPC   C3B12201  35.991  11.061   8.017
  756POPC   C4B12202  35.885  10.836   7.669
  757POPC   NC312203  11.269  36.425   9.456
  757POPC   PO412204  11.066  37.095   9.520
  757POPC   GL112205  10.970  36.894   9.156
  757POPC   GL212206  11.313  36.826   9.120
  757POPC   C1A12207  11.063  37.042   8.744
  757POPC   D2A12208  11.257  37.135   8.354
  757POPC   C3A12209  11.306  36.963   7.954
  757POPC   C4A12210  11.258  36.510   7.897
  757POPC   C1B12211  11.497  36.800   8.714
  757POPC   C2B12212  11.528  36.621   8.310
  757POPC   C3B12213  11.733  36.698   7.940
  757POPC   C4B12214  11.666  36.525   7.582
  758POPC   NC312215  22.218   1.694   9.475
  758POPC   PO412216  21.914   2.335   9.497
  758POPC   GL112217  21.966   2.023   9.176
  758POPC   GL212218  21.687   2.163   9.014
  758POPC   C1A12219  22.212   2.038   8.781
  758POPC   D2A12220  22.115   2.322   8.440
  758POPC   C3A12221  22.133   2.128   8.012
  758POPC   C4A12222  22.389   1.829   7.749
  758POPC   C1B12223  21.764   1.808   8.742
  758POPC   C2B12224  21.970   1.791   8.354
  758POPC   C3B12225  21.915   1.671   7.910
  758POPC   C4B12226  21.771   1.776   7.485
  759POPC   NC312227   2.708  16.146   9.389
  759POPC   PO412228   2.202  15.638   9.296
  759POPC   GL112229   2.477  15.767   9.026
  759POPC   GL212230   2.788  15.735   9.053
  759POPC   C1A12231   2.575  16.083   8.737
  759POPC   D2A12232   2.762  15.953   8.402
  759POPC   C3A12233   2.613  16.113   8.043
  759POPC   C4A12234   2.618  15.962   7.651
  759POPC   C1B12235   3.068  16.019   8.831
  759POPC   C2B12236   3.272  15.929   8.450
  759POPC   C3B12237   3.119  15.991   8.027
  759POPC   C4B12238   3.132  15.877   7.630
  760POPC   NC312239  30.454  30.833   9.703
  760POPC   PO412240  29.793  30.779   9.600
  760POPC   GL112241  29.854  30.724   9.176
  760POPC   GL212242  30.188  30.613   9.263
  760POPC   C1A12243  29.773  30.527   8.763
  760POPC   D2A12244  29.706  30.673   8.353
  760POPC   C3A12245  29.849  30.439   8.050
  760POPC   C4A12246  29.945  30.571   7.672
  760POPC   C1B12247  30.239  30.761   8.835
  760POPC   C2B12248  30.228  30.557   8.425
  760POPC   C3B12249  30.299  30.672   8.027
  760POPC   C4B12250  30.325  30.883   7.622
  761POPC   NC312251  37.156   5.855   9.528
  761POPC   PO412252  36.662   6.246   9.566
  761POPC   GL112253  36.666   5.962   9.211
  761POPC   GL212254  36.814   5.627   9.223
  761POPC   C1A12255  36.509   5.734   8.821
  761POPC   D2A12256  36.538   5.850   8.386
  761POPC   C3A12257  36.517   5.521   8.058
  761POPC   C4A12258  36.708   5.505   7.593
  761POPC   C1B12259  36.977   5.514   8.823
  761POPC   C2B12260  36.865   5.405   8.425
  761POPC   C3B12261  37.007   5.423   8.023
  761POPC   C4B12262  37.163   5.173   7.679
  762POPC   NC312263  38.169  15.669   9.552
  762POPC   PO412264  38.637  16.161   9.521
  762POPC   GL112265  38.405  15.958   9.188
  762POPC   GL212266  38.029  16.036   9.183
  762POPC   C1A12267  38.485  15.890   8.760
  762POPC   D2A12268  38.748  16.032   8.408
  762POPC   C3A12269  38.489  15.972   8.106
  762POPC   C4A12270  38.526  15.806   7.749
  762POPC   C1B12271  38.179  16.366   8.919
  762POPC   C2B12272  38.353  16.351   8.522
  762POPC   C3B12273  38.454  16.474   8.116
  762POPC   C4B12274  38.300  16.295   7.742
  763POPC   NC312275  25.122   6.978   9.467
  763POPC   PO412276  25.479   6.397   9.346
  763POPC   GL112277  25.339   6.721   9.090
  763POPC   GL212278  25.021   6.843   9.000
  763POPC   C1A12279  25.454   6.931   8.736
  763POPC   D2A12280  25.180   6.962   8.415
  763POPC   C3A12281  25.376   6.879   8.049
  763POPC   C4A12282  25.480   6.509   7.854
  763POPC   C1B12283  24.713   6.753   8.719
  763POPC   C2B12284  24.675   6.900   8.346
  763POPC   C3B12285  24.868   6.682   8.035
  763POPC   C4B12286  25.067   6.753   7.674
  764POPC   NC312287  10.867  38.196   9.360
  764POPC   PO412288  10.270  38.478   9.347
  764POPC   GL112289  10.629  38.524   9.083
  764POPC   GL212290  10.818  38.828   9.032
  764POPC   C1A12291  10.675  38.384   8.698
  764POPC   D2A12292  10.620  38.068   8.385
  764POPC   C3A12293  10.616  38.263   7.986
  764POPC   C4A12294  10.820  38.637   7.870
  764POPC   C1B12295  10.436  38.864   8.794
  764POPC   C2B12296  10.296  38.621   8.460
  764POPC   C3B12297  10.336  38.691   8.054
  764POPC   C4B12298  10.078  38.843   7.770
  765POPC   NC312299  39.657  36.203   9.514
  765POPC   PO412300  39.040  36.539   9.492
  765POPC   GL112301  39.296  36.301   9.157
  765POPC   GL212302  39.377  35.917   9.189
  765POPC   C1A12303  39.479  36.175   8.756
  765POPC   D2A12304  39.251  36.198   8.376
  765POPC   C3A12305  39.544  36.147   8.066
  765POPC   C4A12306  39.406  36.112   7.673
  765POPC   C1B12307  39.041  35.880   8.858
  765POPC   C2B12308  38.933  35.760   8.422
  765POPC   C3B12309  39.164  35.793   8.033
  765POPC   C4B12310  39.123  35.687   7.618
  766POPC   NC312311   1.035  36.887   9.294
  766POPC   PO412312   1.542  37.214   9.343
  766POPC   GL112313   1.371  37.258   8.983
  766POPC   GL212314   1.058  37.398   9.098
  766POPC   C1A12315   1.323  36.921   8.686
  766POPC   D2A12316   1.083  36.584   8.495
  766POPC   C3A12317   1.281  36.593   8.097
  766POPC   C4A12318   1.171  36.762   7.717
  766POPC   C1B12319   0.929  37.257   8.703
  766POPC   C2B12320   1.046  37.085   8.292
  766POPC   C3B12321   0.905  37.193   7.908
  766POPC   C4B12322   1.175  37.261   7.618
  767POPC   NC312323   9.793  22.726   9.461
  767POPC   PO412324   9.886  23.391   9.416
  767POPC   GL112325   9.862  23.107   9.115
  767POPC   GL212326   9.533  23.018   9.131
  767POPC   C1A12327   9.849  22.842   8.744
  767POPC   D2A12328  10.035  22.873   8.350
  767POPC   C3A12329   9.974  22.590   8.040
  767POPC   C4A12330   9.794  22.680   7.654
  767POPC   C1B12331   9.345  22.855   8.797
  767POPC   C2B12332   9.448  23.020   8.393
  767POPC   C3B12333   9.547  22.976   8.000
  767POPC   C4B12334   9.330  22.963   7.612
  768POPC   NC312335  40.511  26.425   9.675
  768POPC   PO412336  40.992  26.783   9.379
  768POPC   GL112337  40.715  26.858   9.097
  768POPC   GL212338  40.523  26.585   9.157
  768POPC   C1A12339  40.850  26.768   8.719
  768POPC   D2A12340  40.695  26.802   8.365
  768POPC   C3A12341  40.997  26.775   8.091
  768POPC   C4A12342  40.899  26.887   7.714
  768POPC   C1B12343  40.357  26.632   8.733
  768POPC   C2B12344  40.240  26.545   8.291
  768POPC   C3B12345  40.480  26.659   7.921
  768POPC   C4B12346  40.686  26.443   7.581
  769POPC   NC312347  42.274  23.164   9.590
  769POPC   PO412348  41.936  22.553   9.463
  769POPC   GL112349  42.170  22.838   9.122
  769POPC   GL212350  42.216  23.224   9.098
  769POPC   C1A12351  42.285  22.891   8.660
  769POPC   D2A12352  42.469  23.041   8.260
  769POPC   C3A12353  42.327  22.820   7.908
  769POPC   C4A12354  42.204  22.513   7.645
  769POPC   C1B12355  41.888  23.155   8.800
  769POPC   C2B12356  41.814  22.964   8.396
  769POPC   C3B12357  41.904  23.100   7.982
  769POPC   C4B12358  42.106  23.188   7.591
  770POPC   NC312359  20.992  11.056   9.227
  770POPC   PO412360  21.515  11.154   9.618
  770POPC   GL112361  21.549  11.187   9.155
  770POPC   GL212362  21.429  11.520   9.116
  770POPC   C1A12363  21.400  11.214   8.698
  770POPC   D2A12364  21.536  11.454   8.319
  770POPC   C3A12365  21.411  11.233   7.938
  770POPC   C4A12366  21.029  10.999   7.817
  770POPC   C1B12367  21.093  11.609   8.793
  770POPC   C2B12368  21.017  11.463   8.363
  770POPC   C3B12369  21.098  11.656   7.966
  770POPC   C4B12370  21.509  11.718   7.785
  771POPC   NC312371   3.803  36.948   9.552
  771POPC   PO412372   3.103  36.966   9.500
  771POPC   GL112373   3.429  37.158   9.227
  771POPC   GL212374   3.611  36.826   9.101
  771POPC   C1A12375   3.450  37.182   8.762
  771POPC   D2A12376   3.416  36.761   8.549
  771POPC   C3A12377   3.397  36.799   8.115
  771POPC   C4A12378   3.543  37.122   7.893
  771POPC   C1B12379   3.886  36.881   8.739
  771POPC   C2B12380   3.855  37.022   8.328
  771POPC   C3B12381   3.966  36.815   7.952
  771POPC   C4B12382   3.676  36.577   7.727
  772POPC   NC312383  31.446  31.275   9.905
  772POPC   PO412384  31.641  31.832   9.481
  772POPC   GL112385  31.610  31.468   9.233
  772POPC   GL212386  31.320  31.603   9.136
  772POPC   C1A12387  31.470  31.263   8.816
  772POPC   D2A12388  31.681  31.297   8.416
  772POPC   C3A12389  31.433  31.222   8.045
  772POPC   C4A12390  31.585  31.353   7.669
  772POPC   C1B12391  31.341  31.825   8.749
  772POPC   C2B12392  31.285  31.609   8.357
  772POPC   C3B12393  31.197  31.648   7.908
  772POPC   C4B12394  31.337  31.770   7.510
  773POPC   NC312395   2.615  34.836   9.524
  773POPC   PO412396   3.210  34.581   9.500
  773POPC   GL112397   2.828  34.471   9.220
  773POPC   GL212398   2.584  34.176   9.207
  773POPC   C1A12399   2.594  34.612   8.853
  773POPC   D2A12400   2.729  34.801   8.461
  773POPC   C3A12401   2.729  34.564   8.072
  773POPC   C4A12402   2.778  34.726   7.660
  773POPC   C1B12403   2.338  34.155   8.817
  773POPC   C2B12404   2.364  34.412   8.416
  773POPC   C3B12405   2.321  34.274   8.001
  773POPC   C4B12406   2.455  34.360   7.574
  774POPC   NC312407   0.055  18.442   9.530
  774POPC   PO412408  44.611  17.949   9.594
  774POPC   GL112409  44.707  18.163   9.188
  774POPC   GL212410  44.979  18.076   9.182
  774POPC   C1A12411  44.593  18.082   8.722
  774POPC   D2A12412  44.486  18.444   8.463
  774POPC   C3A12413  44.381  18.439   8.021
  774POPC   C4A12414  44.663  18.640   7.749
  774POPC   C1B12415   0.079  18.022   8.797
  774POPC   C2B12416   0.048  18.225   8.414
  774POPC   C3B12417  44.925  18.283   8.015
  774POPC   C4B12418  44.657  18.068   7.766
  775POPC   NC312419  18.631  18.467   9.233
  775POPC   PO412420  19.245  18.436   9.536
  775POPC   GL112421  19.182  18.354   9.115
  775POPC   GL212422  18.997  18.582   8.882
  775POPC   C1A12423  19.430  18.332   8.740
  775POPC   D2A12424  19.143  18.310   8.402
  775POPC   C3A12425  19.208  18.151   8.014
  775POPC   C4A12426  18.978  17.975   7.710
  775POPC   C1B12427  18.695  18.296   8.643
  775POPC   C2B12428  18.580  18.369   8.257
  775POPC   C3B12429  18.887  18.553   8.014
  775POPC   C4B12430  19.009  18.535   7.612
  776POPC   NC312431  17.996  18.664   9.507
  776POPC   PO412432  18.419  18.094   9.411
  776POPC   GL112433  18.139  18.291   9.133
  776POPC   GL212434  17.991  18.032   8.959
  776POPC   C1A12435  18.185  18.438   8.696
  776POPC   D2A12436  17.992  18.482   8.294
  776POPC   C3A12437  18.234  18.541   7.920
  776POPC   C4A12438  18.546  18.293   7.745
  776POPC   C1B12439  18.359  17.920   8.789
  776POPC   C2B12440  18.298  17.979   8.410
  776POPC   C3B12441  18.113  18.042   8.052
  776POPC   C4B12442  18.044  17.942   7.660
  777POPC   NC312443  40.847  25.441   9.779
  777POPC   PO412444  40.837  26.114   9.821
  777POPC   GL112445  40.853  26.209   9.352
  777POPC   GL212446  40.499  26.095   9.269
  777POPC   C1A12447  40.999  26.318   8.920
  777POPC   D2A12448  41.069  26.372   8.464
  777POPC   C3A12449  40.791  26.295   8.125
  777POPC   C4A12450  40.908  26.030   7.804
  777POPC   C1B12451  40.520  26.160   8.834
  777POPC   C2B12452  40.648  25.951   8.470
  777POPC   C3B12453  40.732  25.665   8.149
  777POPC   C4B12454  40.648  25.612   7.713
  778POPC   NC312455  18.452  41.800   9.558
  778POPC   PO412456  17.950  41.355   9.284
  778POPC   GL112457  18.313  41.281   9.077
  778POPC   GL212458  18.371  41.618   9.096
  778POPC   C1A12459  18.220  41.334   8.632
  778POPC   D2A12460  18.154  41.160   8.200
  778POPC   C3A12461  18.277  41.445   7.865
  778POPC   C4A12462  18.210  41.524   7.426
  778POPC   C1B12463  18.397  41.829   8.734
  778POPC   C2B12464  18.439  41.676   8.309
  778POPC   C3B12465  18.509  41.911   7.928
  778POPC   C4B12466  18.767  41.836   7.566
  779POPC   NC312467   1.662  28.023   9.529
  779POPC   PO412468   1.951  28.721   9.575
  779POPC   GL112469   1.838  28.597   9.081
  779POPC   GL212470   1.789  28.197   9.067
  779POPC   C1A12471   2.018  28.622   8.662
  779POPC   D2A12472   2.368  28.435   8.455
  779POPC   C3A12473   2.194  28.442   8.066
  779POPC   C4A12474   1.902  28.719   7.816
  779POPC   C1B12475   2.087  28.110   8.772
  779POPC   C2B12476   1.889  28.184   8.409
  779POPC   C3B12477   1.808  28.076   8.019
  779POPC   C4B12478   2.101  28.083   7.704
  780POPC   NC312479  20.009  31.291   9.533
  780POPC   PO412480  19.675  31.834   9.778
  780POPC   GL112481  19.761  31.740   9.251
  780POPC   GL212482  19.681  31.379   9.145
  780POPC   C1A12483  19.723  31.636   8.728
  780POPC   D2A12484  19.985  31.668   8.319
  780POPC   C3A12485  19.947  31.462   7.901
  780POPC   C4A12486  19.759  31.423   7.442
  780POPC   C1B12487  19.571  31.147   8.749
  780POPC   C2B12488  19.704  31.186   8.309
  780POPC   C3B12489  19.595  31.081   7.871
  780POPC   C4B12490  19.978  31.013   7.651
  781POPC   NC312491  20.771  31.065   9.560
  781POPC   PO412492  20.168  30.865   9.417
  781POPC   GL112493  20.456  30.822   9.104
  781POPC   GL212494  20.774  30.998   9.069
  781POPC   C1A12495  20.470  30.928   8.678
  781POPC   D2A12496  20.689  30.787   8.347
  781POPC   C3A12497  20.455  30.667   8.024
  781POPC   C4A12498  20.609  30.356   7.739
  781POPC   C1B12499  21.055  30.840   8.769
  781POPC   C2B12500  21.154  30.998   8.371
  781POPC   C3B12501  20.947  31.074   7.979
  781POPC   C4B12502  20.920  30.779   7.677
  782POPC   NC312503  17.729   6.425   9.534
  782POPC   PO412504  17.211   6.870   9.547
  782POPC   GL112505  17.458   6.847   9.222
  782POPC   GL212506  17.364   6.504   9.178
  782POPC   C1A12507  17.495   6.850   8.791
  782POPC   D2A12508  17.251   6.963   8.466
  782POPC   C3A12509  17.504   6.968   8.129
  782POPC   C4A12510  17.373   6.961   7.745
  782POPC   C1B12511  17.330   6.334   8.763
  782POPC   C2B12512  17.413   6.489   8.343
  782POPC   C3B12513  17.330   6.459   7.914
  782POPC   C4B12514  17.629   6.255   7.672
  783POPC   NC312515  27.957  26.946   9.501
  783POPC   PO412516  27.428  26.562   9.669
  783POPC   GL112517  27.682  26.604   9.193
  783POPC   GL212518  27.662  26.964   9.055
  783POPC   C1A12519  27.545  26.610   8.719
  783POPC   D2A12520  27.437  26.824   8.349
  783POPC   C3A12521  27.542  26.547   8.018
  783POPC   C4A12522  27.523  26.555   7.582
  783POPC   C1B12523  27.857  27.004   8.615
  783POPC   C2B12524  27.791  27.168   8.176
  783POPC   C3B12525  27.707  26.986   7.775
  783POPC   C4B12526  27.659  27.111   7.346
  784POPC   NC312527   4.793  43.212   9.528
  784POPC   PO412528   5.490  42.990   9.441
  784POPC   GL112529   5.160  43.107   9.192
  784POPC   GL212530   5.330  43.340   8.989
  784POPC   C1A12531   4.881  43.006   8.835
  784POPC   D2A12532   4.943  42.857   8.390
  784POPC   C3A12533   4.808  43.121   8.026
  784POPC   C4A12534   4.972  43.241   7.606
  784POPC   C1B12535   5.388  42.965   8.724
  784POPC   C2B12536   5.453  42.851   8.274
  784POPC   C3B12537   5.245  42.909   7.866
  784POPC   C4B12538   5.323  42.970   7.355
  785POPC   NC312539   2.462  11.449   9.420
  785POPC   PO412540   1.907  11.081   9.365
  785POPC   GL112541   2.023  11.443   9.129
  785POPC   GL212542   1.712  11.562   8.988
  785POPC   C1A12543   2.321  11.451   8.779
  785POPC   D2A12544   2.199  11.337   8.378
  785POPC   C3A12545   2.189  11.665   8.072
  785POPC   C4A12546   2.049  11.417   7.759
  785POPC   C1B12547   1.660  11.236   8.708
  785POPC   C2B12548   1.518  11.249   8.296
  785POPC   C3B12549   1.557  11.060   7.912
  785POPC   C4B12550   1.597  11.351   7.598
  786POPC   NC312551  32.516   7.473   9.367
  786POPC   PO412552  31.873   7.211   9.543
  786POPC   GL112553  32.130   7.196   9.179
  786POPC   GL212554  32.095   7.560   9.075
  786POPC   C1A12555  32.355   7.229   8.778
  786POPC   D2A12556  32.290   7.062   8.411
  786POPC   C3A12557  32.405   7.325   8.054
  786POPC   C4A12558  32.568   7.355   7.665
  786POPC   C1B12559  32.361   7.821   8.784
  786POPC   C2B12560  32.425   7.722   8.366
  786POPC   C3B12561  32.118   7.766   8.037
  786POPC   C4B12562  31.930   7.851   7.649
  787POPC   NC312563  23.564   8.009   9.448
  787POPC   PO412564  24.019   8.502   9.394
  787POPC   GL112565  23.856   8.223   9.074
  787POPC   GL212566  23.468   8.167   8.986
  787POPC   C1A12567  23.895   8.123   8.653
  787POPC   D2A12568  23.605   8.104   8.316
  787POPC   C3A12569  23.790   8.234   7.978
  787POPC   C4A12570  23.935   8.055   7.609
  787POPC   C1B12571  23.535   8.497   8.720
  787POPC   C2B12572  23.613   8.621   8.307
  787POPC   C3B12573  23.359   8.505   7.964
  787POPC   C4B12574  23.413   8.211   7.639
  788POPC   NC312575   8.651  23.057   9.469
  788POPC   PO412576   9.355  22.859   9.575
  788POPC   GL112577   9.058  22.822   9.254
  788POPC   GL212578   9.051  23.193   9.177
  788POPC   C1A12579   8.823  22.853   8.865
  788POPC   D2A12580   8.969  22.890   8.444
  788POPC   C3A12581   9.082  22.725   8.050
  788POPC   C4A12582   8.842  22.798   7.648
  788POPC   C1B12583   9.097  23.308   8.742
  788POPC   C2B12584   8.923  23.367   8.326
  788POPC   C3B12585   8.993  23.216   7.939
  788POPC   C4B12586   8.692  23.323   7.651
  789POPC   NC312587  12.550   3.437   9.281
  789POPC   PO412588  12.106   3.887   9.621
  789POPC   GL112589  12.103   3.687   9.190
  789POPC   GL212590  11.984   3.376   9.026
  789POPC   C1A12591  12.013   3.849   8.786
  789POPC   D2A12592  12.152   3.829   8.380
  789POPC   C3A12593  11.963   3.498   8.119
  789POPC   C4A12594  11.888   3.528   7.691
  789POPC   C1B12595  12.289   3.421   8.696
  789POPC   C2B12596  12.439   3.402   8.283
  789POPC   C3B12597  12.423   3.575   7.892
  789POPC   C4B12598  12.361   3.474   7.480
  790POPC   NC312599   2.374  31.593   9.496
  790POPC   PO412600   2.987  31.475   9.880
  790POPC   GL112601   2.819  31.322   9.423
  790POPC   GL212602   2.809  31.622   9.190
  790POPC   C1A12603   2.825  31.167   8.953
  790POPC   D2A12604   2.911  31.224   8.511
  790POPC   C3A12605   2.701  31.062   8.161
  790POPC   C4A12606   2.723  31.215   7.730
  790POPC   C1B12607   3.096  31.640   8.812
  790POPC   C2B12608   3.089  31.675   8.366
  790POPC   C3B12609   2.775  31.586   8.087
  790POPC   C4B12610   2.991  31.659   7.732
  791POPC   NC312611  21.432  20.669   9.643
  791POPC   PO412612  21.002  20.719   9.163
  791POPC   GL112613  21.440  20.754   9.105
  791POPC   GL212614  21.521  21.104   9.205
  791POPC   C1A12615  21.478  20.562   8.684
  791POPC   D2A12616  21.351  20.352   8.298
  791POPC   C3A12617  21.520  20.542   7.907
  791POPC   C4A12618  21.612  20.614   7.466
  791POPC   C1B12619  21.385  21.091   8.727
  791POPC   C2B12620  21.305  20.912   8.300
  791POPC   C3B12621  21.028  20.674   8.044
  791POPC   C4B12622  21.055  20.689   7.642
  792POPC   NC312623  12.271  19.735   9.619
  792POPC   PO412624  11.759  19.940   9.538
  792POPC   GL112625  11.982  19.933   9.151
  792POPC   GL212626  12.325  19.814   9.107
  792POPC   C1A12627  11.893  19.801   8.735
  792POPC   D2A12628  12.052  19.701   8.345
  792POPC   C3A12629  11.862  19.621   7.979
  792POPC   C4A12630  11.892  19.847   7.590
  792POPC   C1B12631  12.389  19.964   8.700
  792POPC   C2B12632  12.318  20.138   8.299
  792POPC   C3B12633  12.273  19.920   7.932
  792POPC   C4B12634  12.320  19.486   7.782
  793POPC   NC312635  38.365  23.658   9.459
  793POPC   PO412636  38.773  24.095   9.188
  793POPC   GL112637  38.746  23.732   8.939
  793POPC   GL212638  38.485  23.452   8.990
  793POPC   C1A12639  38.650  23.680   8.500
  793POPC   D2A12640  38.815  23.679   8.061
  793POPC   C3A12641  38.555  23.914   7.766
  793POPC   C4A12642  38.201  24.025   7.575
  793POPC   C1B12643  38.227  23.834   8.838
  793POPC   C2B12644  38.100  23.940   8.429
  793POPC   C3B12645  38.267  23.669   8.105
  793POPC   C4B12646  38.419  23.400   7.752
  794POPC   NC312647  42.027  25.905   9.456
  794POPC   PO412648  42.554  26.357   9.535
  794POPC   GL112649  42.403  26.366   9.101
  794POPC   GL212650  42.071  26.410   9.127
  794POPC   C1A12651  42.539  26.252   8.679
  794POPC   D2A12652  42.451  26.264   8.255
  794POPC   C3A12653  42.606  25.994   7.958
  794POPC   C4A12654  42.393  25.851   7.604
  794POPC   C1B12655  42.016  26.094   8.823
  794POPC   C2B12656  41.982  26.038   8.383
  794POPC   C3B12657  42.054  26.024   7.959
  794POPC   C4B12658  41.910  26.070   7.541
  795POPC   NC312659  22.877   5.900   9.564
  795POPC   PO412660  23.151   5.524   9.168
  795POPC   GL112661  22.988   5.960   9.042
  795POPC   GL212662  22.692   6.191   9.166
  795POPC   C1A12663  22.970   5.937   8.597
  795POPC   D2A12664  23.341   5.878   8.345
  795POPC   C3A12665  23.212   5.682   7.988
  795POPC   C4A12666  23.245   5.973   7.684
  795POPC   C1B12667  22.753   6.375   8.756
  795POPC   C2B12668  22.706   6.273   8.309
  795POPC   C3B12669  22.904   6.254   7.914
  795POPC   C4B12670  22.821   6.096   7.461
  796POPC   NC312671   1.040  13.532   9.842
  796POPC   PO412672   1.401  13.905   9.402
  796POPC   GL112673   1.074  13.641   9.208
  796POPC   GL212674   1.330  13.608   8.944
  796POPC   C1A12675   0.873  13.505   8.781
  796POPC   D2A12676   1.177  13.580   8.414
  796POPC   C3A12677   1.089  13.641   7.970
  796POPC   C4A12678   1.255  13.360   7.632
  796POPC   C1B12679   1.074  13.978   8.785
  796POPC   C2B12680   1.139  14.106   8.357
  796POPC   C3B12681   1.483  13.947   8.096
  796POPC   C4B12682   1.461  13.861   7.658
  797POPC   NC312683   4.112   0.896   9.520
  797POPC   PO412684   4.501   0.294   9.515
  797POPC   GL112685   4.549   0.403   9.120
  797POPC   GL212686   4.226   0.565   9.122
  797POPC   C1A12687   4.393   0.275   8.722
  797POPC   D2A12688   4.295   0.453   8.319
  797POPC   C3A12689   4.485   0.283   7.972
  797POPC   C4A12690   4.309   0.124   7.614
  797POPC   C1B12691   4.053   0.898   8.862
  797POPC   C2B12692   4.068   0.994   8.432
  797POPC   C3B12693   4.131   0.861   8.032
  797POPC   C4B12694   4.156   0.599   7.723
  798POPC   NC312695  39.919  11.373   9.589
  798POPC   PO412696  40.381  11.056   9.512
  798POPC   GL112697  40.038  11.083   9.175
  798POPC   GL212698  39.933  11.416   9.096
  798POPC   C1A12699  39.840  11.071   8.727
  798POPC   D2A12700  39.622  11.291   8.360
  798POPC   C3A12701  39.854  11.116   8.011
  798POPC   C4A12702  40.248  10.899   7.843
  798POPC   C1B12703  39.796  11.595   8.744
  798POPC   C2B12704  40.053  11.531   8.396
  798POPC   C3B12705  39.900  11.623   8.003
  798POPC   C4B12706  40.064  11.403   7.659
  799POPC   NC312707  18.632  33.745   9.309
  799POPC   PO412708  19.183  34.028   9.649
  799POPC   GL112709  19.183  33.974   9.197
  799POPC   GL212710  19.066  33.684   9.004
  799POPC   C1A12711  19.233  34.072   8.746
  799POPC   D2A12712  19.216  33.812   8.345
  799POPC   C3A12713  19.269  34.063   7.961
  799POPC   C4A12714  19.232  34.139   7.520
  799POPC   C1B12715  19.035  33.389   8.669
  799POPC   C2B12716  18.679  33.311   8.389
  799POPC   C3B12717  18.737  33.458   7.969
  799POPC   C4B12718  19.155  33.582   7.835
  800POPC   NC312719   7.939   9.520   9.474
  800POPC   PO412720   8.674   9.713   9.474
  800POPC   GL112721   8.281   9.727   9.168
  800POPC   GL212722   8.159  10.039   9.019
  800POPC   C1A12723   8.037   9.593   8.790
  800POPC   D2A12724   8.169   9.580   8.364
  800POPC   C3A12725   7.989   9.754   7.996
  800POPC   C4A12726   8.012   9.455   7.650
  800POPC   C1B12727   8.404  10.153   8.699
  800POPC   C2B12728   8.454  10.030   8.298
  800POPC   C3B12729   8.576  10.070   7.897
  800POPC   C4B12730   8.275   9.958   7.641
  801POPC   NC312731  19.006  22.856   9.505
  801POPC   PO412732  19.437  23.325   9.370
  801POPC   GL112733  19.201  23.044   9.058
  801POPC   GL212734  18.822  23.000   9.063
  801POPC   C1A12735  19.072  22.993   8.613
  801POPC   D2A12736  18.993  22.754   8.266
  801POPC   C3A12737  19.003  22.972   7.841
  801POPC   C4A12738  19.262  22.877   7.452
  801POPC   C1B12739  18.574  23.002   8.691
  801POPC   C2B12740  18.492  22.684   8.375
  801POPC   C3B12741  18.666  22.613   7.928
  801POPC   C4B12742  18.785  22.665   7.463
  802POPC   NC312743  30.701  38.910   9.446
  802POPC   PO412744  30.950  38.247   9.525
  802POPC   GL112745  30.774  38.438   9.186
  802POPC   GL212746  30.681  38.107   9.090
  802POPC   C1A12747  30.933  38.566   8.783
  802POPC   D2A12748  30.796  38.448   8.360
  802POPC   C3A12749  30.961  38.614   7.997
  802POPC   C4A12750  30.677  38.751   7.687
  802POPC   C1B12751  30.511  38.277   8.745
  802POPC   C2B12752  30.486  38.040   8.398
  802POPC   C3B12753  30.631  38.013   7.990
  802POPC   C4B12754  30.744  38.241   7.658
  803POPC   NC312755   5.792  15.469   9.572
  803POPC   PO412756   5.439  14.901   9.569
  803POPC   GL112757   5.701  15.067   9.203
  803POPC   GL212758   5.508  15.364   9.119
  803POPC   C1A12759   6.064  15.192   8.883
  803POPC   D2A12760   6.107  15.306   8.467
  803POPC   C3A12761   6.154  15.097   8.104
  803POPC   C4A12762   6.111  15.191   7.686
  803POPC   C1B12763   5.589  15.171   8.701
  803POPC   C2B12764   5.724  14.935   8.349
  803POPC   C3B12765   5.670  15.080   7.939
  803POPC   C4B12766   5.444  15.433   7.821
  804POPC   NC312767  36.441  43.360   9.562
  804POPC   PO412768  35.764  43.229   9.669
  804POPC   GL112769  36.038  43.172   9.303
  804POPC   GL212770  36.216  42.869   9.294
  804POPC   C1A12771  36.175  43.301   8.866
  804POPC   D2A12772  36.138  43.486   8.424
  804POPC   C3A12773  36.122  43.302   8.030
  804POPC   C4A12774  36.392  43.223   7.715
  804POPC   C1B12775  36.204  42.794   8.847
  804POPC   C2B12776  36.288  42.985   8.456
  804POPC   C3B12777  36.379  42.848   8.055
  804POPC   C4B12778  36.059  42.810   7.743
  805POPC   NC312779  35.782  18.325   9.451
  805POPC   PO412780  35.027  18.529   9.405
  805POPC   GL112781  35.172  18.331   9.059
  805POPC   GL212782  35.460  18.164   9.112
  805POPC   C1A12783  35.358  18.372   8.662
  805POPC   D2A12784  35.245  18.429   8.240
  805POPC   C3A12785  35.566  18.578   7.918
  805POPC   C4A12786  35.651  18.359   7.497
  805POPC   C1B12787  35.735  18.005   8.792
  805POPC   C2B12788  35.578  18.032   8.373
  805POPC   C3B12789  35.549  18.065   7.976
  805POPC   C4B12790  35.726  17.861   7.625
  806POPC   NC312791   5.802  21.626   9.559
  806POPC   PO412792   5.917  20.996   9.478
  806POPC   GL112793   5.860  21.314   9.147
  806POPC   GL212794   5.535  21.485   9.136
  806POPC   C1A12795   5.999  21.441   8.734
  806POPC   D2A12796   5.886  21.622   8.334
  806POPC   C3A12797   6.013  21.485   7.910
  806POPC   C4A12798   6.025  21.184   7.581
  806POPC   C1B12799   5.539  21.725   8.748
  806POPC   C2B12800   5.362  21.599   8.371
  806POPC   C3B12801   5.523  21.676   7.976
  806POPC   C4B12802   5.575  21.397   7.627
  807POPC   NC312803  19.965  25.247   9.651
  807POPC   PO412804  19.699  25.839   9.520
  807POPC   GL112805  19.782  25.504   9.183
  807POPC   GL212806  19.985  25.180   9.152
  807POPC   C1A12807  19.696  25.335   8.750
  807POPC   D2A12808  19.494  25.286   8.325
  807POPC   C3A12809  19.752  25.468   7.991
  807POPC   C4A12810  19.570  25.304   7.658
  807POPC   C1B12811  20.162  25.105   8.730
  807POPC   C2B12812  19.988  25.180   8.336
  807POPC   C3B12813  19.814  24.954   7.994
  807POPC   C4B12814  20.035  25.080   7.618
  808POPC   NC312815  18.608  13.016   9.188
  808POPC   PO412816  18.154  12.638   9.485
  808POPC   GL112817  18.260  12.640   9.062
  808POPC   GL212818  18.175  12.985   8.923
  808POPC   C1A12819  18.423  12.645   8.627
  808POPC   D2A12820  18.480  12.994   8.309
  808POPC   C3A12821  18.522  12.809   7.880
  808POPC   C4A12822  18.330  12.389   7.851
  808POPC   C1B12823  17.870  13.204   8.665
  808POPC   C2B12824  18.012  13.260   8.263
  808POPC   C3B12825  17.902  13.269   7.846
  808POPC   C4B12826  18.182  13.118   7.568
  809POPC   NC312827  35.898   9.527   9.432
  809POPC   PO412828  35.956  10.143   9.225
  809POPC   GL112829  35.918   9.764   8.997
  809POPC   GL212830  36.162   9.550   8.981
  809POPC   C1A12831  35.691   9.563   8.696
  809POPC   D2A12832  36.058   9.634   8.423
  809POPC   C3A12833  36.013   9.595   7.970
  809POPC   C4A12834  35.966   9.785   7.561
  809POPC   C1B12835  36.420   9.895   8.757
  809POPC   C2B12836  36.443  10.156   8.367
  809POPC   C3B12837  36.328  10.040   7.935
  809POPC   C4B12838  36.401  10.018   7.475
  810POPC   NC312839  29.629   6.389   9.318
  810POPC   PO412840  30.116   6.879   9.374
  810POPC   GL112841  30.062   6.645   9.083
  810POPC   GL212842  30.144   6.318   9.259
  810POPC   C1A12843  29.885   6.717   8.672
  810POPC   D2A12844  29.711   6.483   8.332
  810POPC   C3A12845  29.856   6.692   7.992
  810POPC   C4A12846  29.808   6.910   7.643
  810POPC   C1B12847  30.056   6.240   8.810
  810POPC   C2B12848  30.237   6.415   8.413
  810POPC   C3B12849  30.176   6.294   7.983
  810POPC   C4B12850  30.162   6.501   7.582
  811POPC   NC312851  10.615  15.636   9.494
  811POPC   PO412852  10.150  16.136   9.331
  811POPC   GL112853  10.415  15.870   9.068
  811POPC   GL212854  10.679  16.102   9.082
  811POPC   C1A12855  10.658  15.758   8.684
  811POPC   D2A12856  10.852  15.774   8.256
  811POPC   C3A12857  10.568  15.735   7.917
  811POPC   C4A12858  10.212  15.672   7.715
  811POPC   C1B12859  10.427  16.231   8.702
  811POPC   C2B12860  10.401  16.073   8.301
  811POPC   C3B12861  10.283  16.163   7.903
  811POPC   C4B12862  10.503  16.085   7.504
  812POPC   NC312863  42.071  26.711   9.571
  812POPC   PO412864  42.643  27.081   9.457
  812POPC   GL112865  42.570  27.070   9.015
  812POPC   GL212866  42.276  26.880   9.111
  812POPC   C1A12867  42.546  26.776   8.683
  812POPC   D2A12868  42.374  26.851   8.349
  812POPC   C3A12869  42.553  26.712   8.029
  812POPC   C4A12870  42.298  26.834   7.716
  812POPC   C1B12871  42.096  27.069   8.762
  812POPC   C2B12872  41.869  26.987   8.431
  812POPC   C3B12873  41.968  27.058   8.032
  812POPC   C4B12874  41.813  26.982   7.647
  813POPC   NC312875  29.247  25.918   9.362
  813POPC   PO412876  28.905  26.398   9.583
  813POPC   GL112877  29.020  26.408   9.158
  813POPC   GL212878  29.342  26.376   9.164
  813POPC   C1A12879  29.050  26.437   8.689
  813POPC   D2A12880  28.856  26.262   8.305
  813POPC   C3A12881  28.876  26.385   7.864
  813POPC   C4A12882  28.839  25.964   7.666
  813POPC   C1B12883  29.413  26.092   8.785
  813POPC   C2B12884  29.435  26.113   8.372
  813POPC   C3B12885  29.255  26.085   8.000
  813POPC   C4B12886  29.357  25.867   7.664
  814POPC   NC312887  38.706   1.243   9.787
  814POPC   PO412888  38.196   1.582   9.703
  814POPC   GL112889  38.225   1.293   9.292
  814POPC   GL212890  38.332   0.945   9.275
  814POPC   C1A12891  38.156   1.253   8.803
  814POPC   D2A12892  38.078   1.029   8.360
  814POPC   C3A12893  38.304   1.080   7.977
  814POPC   C4A12894  38.384   1.428   7.678
  814POPC   C1B12895  38.564   0.956   8.865
  814POPC   C2B12896  38.543   1.201   8.471
  814POPC   C3B12897  38.523   1.498   8.153
  814POPC   C4B12898  38.829   1.630   7.809
  815POPC   NC312899  25.184  42.798   9.495
  815POPC   PO412900  25.263  43.471   9.468
  815POPC   GL112901  25.094  43.289   9.130
  815POPC   GL212902  24.811  43.119   9.316
  815POPC   C1A12903  25.265  43.134   8.721
  815POPC   D2A12904  25.212  43.262   8.279
  815POPC   C3A12905  25.402  43.080   7.912
  815POPC   C4A12906  25.589  43.344   7.632
  815POPC   C1B12907  24.802  42.943   8.891
  815POPC   C2B12908  24.853  42.921   8.438
  815POPC   C3B12909  24.985  42.804   8.009
  815POPC   C4B12910  24.875  42.928   7.551
  816POPC   NC312911  34.809   9.279   9.138
  816POPC   PO412912  34.732   9.854   9.436
  816POPC   GL112913  34.674   9.727   9.016
  816POPC   GL212914  34.417   9.583   8.965
  816POPC   C1A12915  34.751   9.590   8.575
  816POPC   D2A12916  34.593   9.859   8.309
  816POPC   C3A12917  34.788   9.992   7.896
  816POPC   C4A12918  34.849   9.713   7.535
  816POPC   C1B12919  34.188   9.383   8.658
  816POPC   C2B12920  34.324   9.373   8.240
  816POPC   C3B12921  34.522   9.564   7.920
  816POPC   C4B12922  34.383   9.497   7.573
  817POPC   NC312923   5.341  29.267   9.538
  817POPC   PO412924   4.659  29.490   9.495
  817POPC   GL112925   4.926  29.214   9.191
  817POPC   GL212926   4.702  28.987   9.045
  817POPC   C1A12927   5.196  29.322   8.818
  817POPC   D2A12928   5.528  29.382   8.476
  817POPC   C3A12929   5.364  29.321   8.043
  817POPC   C4A12930   5.115  29.119   7.736
  817POPC   C1B12931   4.893  28.924   8.657
  817POPC   C2B12932   4.862  28.982   8.196
  817POPC   C3B12933   4.797  28.733   7.820
  817POPC   C4B12934   4.687  28.904   7.406
  818POPC   NC312935   5.686   0.137   9.506
  818POPC   PO412936   6.148   0.696   9.494
  818POPC   GL112937   5.928   0.447   9.185
  818POPC   GL212938   6.056   0.142   9.108
  818POPC   C1A12939   5.767   0.479   8.793
  818POPC   D2A12940   5.930   0.528   8.396
  818POPC   C3A12941   5.660   0.502   8.083
  818POPC   C4A12942   5.761   0.351   7.704
  818POPC   C1B12943   5.974   0.044   8.646
  818POPC   C2B12944   5.972   0.058   8.183
  818POPC   C3B12945   5.736  44.850   7.858
  818POPC   C4B12946   5.681  44.927   7.399
  819POPC   NC312947  43.323  31.742   9.918
  819POPC   PO412948  43.123  32.385   9.753
  819POPC   GL112949  43.242  32.242   9.322
  819POPC   GL212950  43.012  32.335   9.072
  819POPC   C1A12951  43.463  32.232   8.898
  819POPC   D2A12952  43.253  32.246   8.497
  819POPC   C3A12953  43.432  32.340   8.072
  819POPC   C4A12954  43.151  32.307   7.698
  819POPC   C1B12955  42.928  32.587   8.735
  819POPC   C2B12956  42.675  32.540   8.355
  819POPC   C3B12957  42.754  32.547   7.900
  819POPC   C4B12958  42.777  32.488   7.400
  820POPC   NC312959  31.325   0.513  10.097
  820POPC   PO412960  31.637   0.385   9.519
  820POPC   GL112961  31.455   0.474   9.122
  820POPC   GL212962  31.769   0.675   9.071
  820POPC   C1A12963  31.271   0.287   8.725
  820POPC   D2A12964  31.448   0.407   8.310
  820POPC   C3A12965  31.379   0.299   7.910
  820POPC   C4A12966  31.713   0.077   7.707
  820POPC   C1B12967  31.899   0.976   8.762
  820POPC   C2B12968  31.723   1.043   8.327
  820POPC   C3B12969  31.658   0.767   7.981
  820POPC   C4B12970  31.734   0.669   7.554
  821POPC   NC312971   2.015  20.984   9.347
  821POPC   PO412972   1.978  20.366   9.406
  821POPC   GL112973   2.141  20.534   9.052
  821POPC   GL212974   1.805  20.668   9.006
  821POPC   C1A12975   2.399  20.436   8.672
  821POPC   D2A12976   2.373  20.299   8.208
  821POPC   C3A12977   2.151  20.575   7.899
  821POPC   C4A12978   1.732  20.469   7.776
  821POPC   C1B12979   1.864  20.500   8.601
  821POPC   C2B12980   1.732  20.681   8.241
  821POPC   C3B12981   1.776  20.953   7.879
  821POPC   C4B12982   1.860  20.843   7.451
  822POPC   NC312983  20.170  10.468   9.257
  822POPC   PO412984  20.813  10.456   9.472
  822POPC   GL112985  20.666  10.466   9.094
  822POPC   GL212986  20.870  10.256   8.942
  822POPC   C1A12987  20.527  10.597   8.708
  822POPC   D2A12988  20.661  10.836   8.392
  822POPC   C3A12989  20.427  10.652   8.098
  822POPC   C4A12990  20.446  10.616   7.685
  822POPC   C1B12991  21.038  10.580   8.729
  822POPC   C2B12992  21.101  10.526   8.327
  822POPC   C3B12993  20.890  10.516   7.943
  822POPC   C4B12994  20.933  10.584   7.489
  823POPC   NC312995  10.943  28.913   9.403
  823POPC   PO412996  11.502  29.362   9.312
  823POPC   GL112997  11.329  29.031   9.086
  823POPC   GL212998  11.053  29.281   9.065
  823POPC   C1A12999  11.077  28.903   8.731
  823POPC   D2A13000  11.220  29.161   8.421
  823POPC   C3A13001  11.302  28.950   8.045
  823POPC   C4A13002  11.286  29.115   7.640
  823POPC   C1B13003  11.140  29.602   8.751
  823POPC   C2B13004  10.985  29.689   8.363
  823POPC   C3B13005  11.070  29.436   8.006
  823POPC   C4B13006  10.847  29.357   7.656
  824POPC   NC313007  35.188  10.134   9.483
  824POPC   PO413008  35.241   9.450   9.328
  824POPC   GL113009  35.169   9.807   9.077
  824POPC   GL213010  35.469   9.966   9.081
  824POPC   C1A13011  35.225   9.821   8.644
  824POPC   D2A13012  35.250   9.480   8.397
  824POPC   C3A13013  35.112   9.630   8.037
  824POPC   C4A13014  35.357   9.739   7.690
  824POPC   C1B13015  35.677  10.052   8.669
  824POPC   C2B13016  35.616   9.835   8.263
  824POPC   C3B13017  35.776  10.067   7.959
  824POPC   C4B13018  35.618  10.473   7.895
  825POPC   NC313019  44.858  38.030   9.702
  825POPC   PO413020   0.327  38.544   9.479
  825POPC   GL113021   0.426  38.562   9.099
  825POPC   GL213022   0.732  38.666   9.113
  825POPC   C1A13023   0.308  38.605   8.692
  825POPC   D2A13024   0.138  38.332   8.408
  825POPC   C3A13025   0.131  38.339   7.956
  825POPC   C4A13026   0.129  38.156   7.523
  825POPC   C1B13027   0.691  38.263   8.820
  825POPC   C2B13028   0.666  38.362   8.406
  825POPC   C3B13029   0.648  38.361   7.975
  825POPC   C4B13030   0.495  38.487   7.591
  826POPC   NC313031  34.065  29.754   9.520
  826POPC   PO413032  33.585  30.160   9.534
  826POPC   GL113033  33.863  30.091   9.173
  826POPC   GL213034  33.690  29.796   9.149
  826POPC   C1A13035  34.000  29.935   8.766
  826POPC   D2A13036  33.771  29.850   8.397
  826POPC   C3A13037  33.966  29.895   7.993
  826POPC   C4A13038  33.887  29.733   7.573
  826POPC   C1B13039  33.470  30.044   8.826
  826POPC   C2B13040  33.341  30.128   8.378
  826POPC   C3B13041  33.410  29.921   7.948
  826POPC   C4B13042  33.438  29.929   7.447
  827POPC   NC313043  32.983   8.780   9.582
  827POPC   PO413044  32.703   9.461   9.495
  827POPC   GL113045  32.813   9.115   9.216
  827POPC   GL213046  33.177   9.015   9.168
  827POPC   C1A13047  32.814   8.948   8.810
  827POPC   D2A13048  32.978   8.865   8.447
  827POPC   C3A13049  32.937   9.095   8.098
  827POPC   C4A13050  32.912   8.859   7.729
  827POPC   C1B13051  33.378   8.945   8.746
  827POPC   C2B13052  33.442   9.054   8.312
  827POPC   C3B13053  33.301   8.716   8.052
  827POPC   C4B13054  33.220   8.421   7.738
  828POPC   NC313055  31.690  21.586   9.420
  828POPC   PO413056  31.284  21.106   9.377
  828POPC   GL113057  31.334  21.392   9.072
  828POPC   GL213058  31.037  21.591   9.090
  828POPC   C1A13059  31.464  21.337   8.673
  828POPC   D2A13060  31.347  21.178   8.300
  828POPC   C3A13061  31.617  21.344   8.061
  828POPC   C4A13062  31.595  21.329   7.689
  828POPC   C1B13063  31.181  21.771   8.684
  828POPC   C2B13064  31.448  21.723   8.330
  828POPC   C3B13065  31.406  21.789   7.902
  828POPC   C4B13066  31.332  21.768   7.446
  829POPC   NC313067  21.254  40.638   9.582
  829POPC   PO413068  21.575  41.118   9.697
  829POPC   GL113069  21.651  40.849   9.286
  829POPC   GL213070  21.306  40.728   9.099
  829POPC   C1A13071  21.739  40.683   8.855
  829POPC   D2A13072  21.520  40.445   8.518
  829POPC   C3A13073  21.578  40.605   8.099
  829POPC   C4A13074  21.648  40.845   7.743
  829POPC   C1B13075  21.206  40.873   8.706
  829POPC   C2B13076  21.082  40.900   8.283
  829POPC   C3B13077  21.158  40.845   7.873
  829POPC   C4B13078  21.200  40.544   7.598
  830POPC   NC313079  22.521  15.079   9.313
  830POPC   PO413080  23.032  15.276   9.747
  830POPC   GL113081  23.000  15.264   9.279
  830POPC   GL213082  22.980  14.901   9.159
  830POPC   C1A13083  22.914  15.246   8.811
  830POPC   D2A13084  23.028  15.099   8.404
  830POPC   C3A13085  22.777  15.190   8.008
  830POPC   C4A13086  22.925  15.191   7.531
  830POPC   C1B13087  22.690  14.784   8.743
  830POPC   C2B13088  22.742  14.727   8.246
  830POPC   C3B13089  22.944  14.752   7.809
  830POPC   C4B13090  22.777  14.750   7.348
  831POPC   NC313091  37.255  31.028   9.512
  831POPC   PO413092  37.759  30.604   9.569
  831POPC   GL113093  37.794  30.700   9.129
  831POPC   GL213094  37.467  30.596   9.104
  831POPC   C1A13095  37.908  30.720   8.675
  831POPC   D2A13096  37.892  30.413   8.308
  831POPC   C3A13097  37.877  30.593   7.907
  831POPC   C4A13098  37.936  30.995   7.814
  831POPC   C1B13099  37.397  30.657   8.671
  831POPC   C2B13100  37.571  30.785   8.262
  831POPC   C3B13101  37.420  30.802   7.823
  831POPC   C4B13102  37.207  30.502   7.580
  832POPC   NC313103  10.550  10.917   9.500
  832POPC   PO413104  10.234  10.408   9.852
  832POPC   GL113105  10.325  10.504   9.297
  832POPC   GL213106  10.682  10.617   9.121
  832POPC   C1A13107  10.307  10.426   8.805
  832POPC   D2A13108  10.264  10.426   8.320
  832POPC   C3A13109  10.423  10.223   7.930
  832POPC   C4A13110  10.804  10.307   7.723
  832POPC   C1B13111  10.683  10.770   8.706
  832POPC   C2B13112  10.983  10.716   8.352
  832POPC   C3B13113  11.021  11.058   8.106
  832POPC   C4B13114  10.714  11.028   7.801
  833POPC   NC313115  26.114  37.125   9.549
  833POPC   PO413116  25.446  37.058   9.345
  833POPC   GL113117  25.851  37.000   9.069
  833POPC   GL213118  26.157  37.215   9.057
  833POPC   C1A13119  25.927  36.728   8.675
  833POPC   D2A13120  26.190  36.559   8.314
  833POPC   C3A13121  26.034  36.712   7.912
  833POPC   C4A13122  25.968  37.133   7.682
  833POPC   C1B13123  26.370  36.905   8.842
  833POPC   C2B13124  26.475  36.990   8.414
  833POPC   C3B13125  26.352  37.114   8.032
  833POPC   C4B13126  26.466  36.956   7.633
  834POPC   NC313127  23.889  41.043   9.568
  834POPC   PO413128  23.344  40.741   9.520
  834POPC   GL113129  23.597  40.850   9.147
  834POPC   GL213130  23.926  41.020   9.085
  834POPC   C1A13131  23.663  40.759   8.707
  834POPC   D2A13132  23.458  40.678   8.320
  834POPC   C3A13133  23.756  40.595   7.976
  834POPC   C4A13134  23.700  40.616   7.528
  834POPC   C1B13135  23.793  41.253   8.780
  834POPC   C2B13136  23.868  41.168   8.388
  834POPC   C3B13137  23.647  41.087   8.077
  834POPC   C4B13138  23.823  41.068   7.744
  835POPC   NC313139  42.762  11.286   9.537
  835POPC   PO413140  43.415  11.334   9.555
  835POPC   GL113141  43.159  11.237   9.208
  835POPC   GL213142  43.021  10.991   9.112
  835POPC   C1A13143  43.173  11.347   8.765
  835POPC   D2A13144  42.853  11.453   8.462
  835POPC   C3A13145  42.970  11.546   8.091
  835POPC   C4A13146  43.052  11.545   7.705
  835POPC   C1B13147  42.799  10.996   8.735
  835POPC   C2B13148  42.895  10.939   8.298
  835POPC   C3B13149  43.230  11.045   7.986
  835POPC   C4B13150  43.169  11.052   7.532
  836POPC   NC313151  35.455  42.974   9.905
  836POPC   PO413152  35.394  42.905   9.265
  836POPC   GL113153  35.341  43.093   8.906
  836POPC   GL213154  35.699  43.143   8.937
  836POPC   C1A13155  35.075  43.259   8.590
  836POPC   D2A13156  35.230  43.294   8.196
  836POPC   C3A13157  35.174  42.994   7.889
  836POPC   C4A13158  35.215  43.091   7.441
  836POPC   C1B13159  35.746  42.929   8.601
  836POPC   C2B13160  35.734  43.040   8.193
  836POPC   C3B13161  35.652  43.093   7.761
  836POPC   C4B13162  35.637  42.827   7.383
  837POPC   NC313163  16.049   5.080   9.569
  837POPC   PO413164  15.445   5.455   9.474
  837POPC   GL113165  15.741   5.264   9.122
  837POPC   GL213166  15.959   4.966   9.098
  837POPC   C1A13167  15.667   5.073   8.679
  837POPC   D2A13168  15.513   5.006   8.227
  837POPC   C3A13169  15.816   4.994   7.895
  837POPC   C4A13170  16.217   5.197   7.894
  837POPC   C1B13171  16.181   4.920   8.731
  837POPC   C2B13172  16.083   4.856   8.310
  837POPC   C3B13173  16.239   4.658   7.932
  837POPC   C4B13174  16.455   4.807   7.563
  838POPC   NC313175  21.621   2.642   9.695
  838POPC   PO413176  22.177   3.013   9.514
  838POPC   GL113177  21.882   2.757   9.198
  838POPC   GL213178  22.073   2.494   9.005
  838POPC   C1A13179  21.687   2.681   8.767
  838POPC   D2A13180  21.888   2.765   8.385
  838POPC   C3A13181  21.819   2.538   8.046
  838POPC   C4A13182  21.711   2.770   7.734
  838POPC   C1B13183  22.321   2.732   8.745
  838POPC   C2B13184  22.514   2.687   8.380
  838POPC   C3B13185  22.325   2.612   8.033
  838POPC   C4B13186  22.165   2.980   7.918
  839POPC   NC313187  38.915  43.587   9.620
  839POPC   PO413188  39.403  43.111   9.602
  839POPC   GL113189  39.093  43.190   9.300
  839POPC   GL213190  39.337  42.987   9.091
  839POPC   C1A13191  38.958  43.226   8.874
  839POPC   D2A13192  39.263  43.123   8.521
  839POPC   C3A13193  39.191  42.998   8.092
  839POPC   C4A13194  39.080  43.162   7.701
  839POPC   C1B13195  39.552  42.671   8.815
  839POPC   C2B13196  39.661  42.474   8.441
  839POPC   C3B13197  39.547  42.621   8.059
  839POPC   C4B13198  39.375  42.763   7.654
  840POPC   NC313199  31.019   2.544   9.463
  840POPC   PO413200  30.587   3.116   9.453
  840POPC   GL113201  30.714   2.823   9.158
  840POPC   GL213202  30.477   2.569   9.099
  840POPC   C1A13203  30.970   2.809   8.811
  840POPC   D2A13204  30.825   2.954   8.438
  840POPC   C3A13205  30.960   2.867   8.037
  840POPC   C4A13206  30.884   3.068   7.657
  840POPC   C1B13207  30.459   2.702   8.696
  840POPC   C2B13208  30.532   2.588   8.238
  840POPC   C3B13209  30.559   2.689   7.790
  840POPC   C4B13210  30.532   2.636   7.356
  841POPC   NC313211  33.598  43.354   9.631
  841POPC   PO413212  34.124  42.951   9.666
  841POPC   GL113213  34.020  43.068   9.189
  841POPC   GL213214  33.692  43.273   9.126
  841POPC   C1A13215  33.973  43.157   8.695
  841POPC   D2A13216  33.864  42.989   8.269
  841POPC   C3A13217  34.029  43.225   7.915
  841POPC   C4A13218  33.871  43.311   7.509
  841POPC   C1B13219  33.441  43.360   8.747
  841POPC   C2B13220  33.319  43.223   8.311
  841POPC   C3B13221  33.458  43.242   7.868
  841POPC   C4B13222  33.375  43.593   7.577
  842POPC   NC313223   5.673  17.663   9.580
  842POPC   PO413224   6.012  17.079   9.500
  842POPC   GL113225   5.866  17.168   9.099
  842POPC   GL213226   5.566  17.373   9.141
  842POPC   C1A13227   5.632  17.095   8.719
  842POPC   D2A13228   5.575  17.364   8.383
  842POPC   C3A13229   5.906  17.475   8.152
  842POPC   C4A13230   5.934  17.547   7.739
  842POPC   C1B13231   5.663  17.644   8.798
  842POPC   C2B13232   5.695  17.864   8.407
  842POPC   C3B13233   5.532  17.794   7.995
  842POPC   C4B13234   5.687  17.966   7.622
  843POPC   NC313235  11.058  20.958   9.593
  843POPC   PO413236  11.612  20.726   9.597
  843POPC   GL113237  11.435  20.631   9.219
  843POPC   GL213238  11.389  20.985   9.180
  843POPC   C1A13239  11.431  20.458   8.760
  843POPC   D2A13240  11.225  20.612   8.375
  843POPC   C3A13241  11.253  20.408   7.985
  843POPC   C4A13242  10.984  20.540   7.698
  843POPC   C1B13243  11.702  20.872   8.867
  843POPC   C2B13244  11.667  20.922   8.426
  843POPC   C3B13245  11.599  20.795   7.997
  843POPC   C4B13246  11.591  21.020   7.600
  844POPC   NC313247  38.616  37.823   9.319
  844POPC   PO413248  38.231  37.257   9.433
  844POPC   GL113249  38.277  37.474   9.099
  844POPC   GL213250  38.054  37.722   9.191
  844POPC   C1A13251  38.481  37.422   8.694
  844POPC   D2A13252  38.316  37.318   8.285
  844POPC   C3A13253  38.548  37.529   7.955
  844POPC   C4A13254  38.508  37.378   7.549
  844POPC   C1B13255  38.180  37.865   8.793
  844POPC   C2B13256  38.372  37.833   8.400
  844POPC   C3B13257  38.183  37.898   8.030
  844POPC   C4B13258  38.245  37.838   7.601
  845POPC   NC313259   6.901  27.063   9.804
  845POPC   PO413260   6.450  26.680   9.402
  845POPC   GL113261   6.509  26.923   9.062
  845POPC   GL213262   6.774  26.679   8.984
  845POPC   C1A13263   6.576  26.976   8.617
  845POPC   D2A13264   6.340  27.105   8.263
  845POPC   C3A13265   6.670  27.156   7.998
  845POPC   C4A13266   7.060  26.968   7.863
  845POPC   C1B13267   6.519  26.347   8.776
  845POPC   C2B13268   6.388  26.407   8.364
  845POPC   C3B13269   6.467  26.311   7.947
  845POPC   C4B13270   6.603  26.704   7.765
  846POPC   NC313271   0.934  25.315   9.510
  846POPC   PO413272   0.267  25.316   9.512
  846POPC   GL113273   0.559  25.307   9.148
  846POPC   GL213274   0.797  25.011   9.131
  846POPC   C1A13275   0.469  25.501   8.751
  846POPC   D2A13276   0.501  25.262   8.383
  846POPC   C3A13277   0.378  25.385   7.995
  846POPC   C4A13278   0.216  25.458   7.612
  846POPC   C1B13279   0.715  24.807   8.736
  846POPC   C2B13280   0.516  24.746   8.334
  846POPC   C3B13281   0.572  24.859   7.912
  846POPC   C4B13282   0.626  25.127   7.573
  847POPC   NC313283  32.372  20.941   9.765
  847POPC   PO413284  32.172  20.403   9.399
  847POPC   GL113285  32.128  20.734   9.091
  847POPC   GL213286  32.353  20.466   8.901
  847POPC   C1A13287  32.307  20.970   8.733
  847POPC   D2A13288  32.296  20.672   8.435
  847POPC   C3A13289  32.185  20.644   8.007
  847POPC   C4A13290  31.893  20.389   7.778
  847POPC   C1B13291  32.523  20.202   8.553
  847POPC   C2B13292  32.615  20.418   8.155
  847POPC   C3B13293  32.526  20.382   7.686
  847POPC   C4B13294  32.616  20.296   7.201
  848POPC   NC313295   3.292  25.863   9.308
  848POPC   PO413296   3.834  26.222   9.583
  848POPC   GL113297   3.641  26.215   9.189
  848POPC   GL213298   3.767  25.900   9.142
  848POPC   C1A13299   3.483  26.147   8.765
  848POPC   D2A13300   3.354  26.376   8.449
  848POPC   C3A13301   3.273  26.177   8.077
  848POPC   C4A13302   3.563  26.300   7.768
  848POPC   C1B13303   3.974  25.935   8.788
  848POPC   C2B13304   3.761  25.851   8.453
  848POPC   C3B13305   3.681  25.872   8.062
  848POPC   C4B13306   3.956  25.937   7.762
  849POPC   NC313307   8.111   7.653   9.539
  849POPC   PO413308   8.153   8.330   9.635
  849POPC   GL113309   8.205   8.158   9.152
  849POPC   GL213310   8.223   7.813   9.010
  849POPC   C1A13311   8.270   8.277   8.695
  849POPC   D2A13312   8.287   8.110   8.264
  849POPC   C3A13313   8.135   8.369   7.925
  849POPC   C4A13314   8.423   8.496   7.621
  849POPC   C1B13315   7.889   7.959   8.673
  849POPC   C2B13316   7.778   8.136   8.299
  849POPC   C3B13317   7.896   7.918   7.954
  849POPC   C4B13318   8.206   7.940   7.659
  850POPC   NC313319  10.293  23.578   9.311
  850POPC   PO413320  10.405  24.250   9.415
  850POPC   GL113321  10.606  23.949   9.136
  850POPC   GL213322  10.966  23.818   9.150
  850POPC   C1A13323  10.423  23.883   8.729
  850POPC   D2A13324  10.610  23.833   8.343
  850POPC   C3A13325  10.343  23.816   7.982
  850POPC   C4A13326  10.469  23.936   7.576
  850POPC   C1B13327  10.810  23.568   8.810
  850POPC   C2B13328  10.676  23.332   8.471
  850POPC   C3B13329  10.621  23.380   8.059
  850POPC   C4B13330  10.413  23.399   7.666
  851POPC   NC313331  31.421  35.074   9.703
  851POPC   PO413332  31.940  35.446   9.547
  851POPC   GL113333  31.545  35.282   9.270
  851POPC   GL213334  31.321  35.529   9.176
  851POPC   C1A13335  31.260  35.103   8.916
  851POPC   D2A13336  31.430  35.057   8.507
  851POPC   C3A13337  31.302  35.253   8.129
  851POPC   C4A13338  31.093  35.044   7.782
  851POPC   C1B13339  31.578  35.499   8.805
  851POPC   C2B13340  31.638  35.611   8.392
  851POPC   C3B13341  31.737  35.537   7.987
  851POPC   C4B13342  31.527  35.334   7.665
  852POPC   NC313343  28.399  13.843   9.455
  852POPC   PO413344  28.916  13.382   9.491
  852POPC   GL113345  28.652  13.531   9.131
  852POPC   GL213346  28.248  13.504   9.115
  852POPC   C1A13347  28.589  13.553   8.686
  852POPC   D2A13348  28.418  13.780   8.351
  852POPC   C3A13349  28.353  13.628   7.952
  852POPC   C4A13350  28.595  13.714   7.564
  852POPC   C1B13351  28.111  13.747   8.765
  852POPC   C2B13352  27.961  13.995   8.399
  852POPC   C3B13353  27.959  13.955   7.963
  852POPC   C4B13354  28.041  13.732   7.550
  853POPC   NC313355  23.566  13.477   9.502
  853POPC   PO413356  23.508  14.060   9.272
  853POPC   GL113357  23.710  13.734   9.067
  853POPC   GL213358  23.528  13.394   9.004
  853POPC   C1A13359  23.685  13.714   8.647
  853POPC   D2A13360  23.519  13.465   8.367
  853POPC   C3A13361  23.806  13.585   8.062
  853POPC   C4A13362  23.748  13.835   7.710
  853POPC   C1B13363  23.898  13.256   8.768
  853POPC   C2B13364  23.943  13.149   8.351
  853POPC   C3B13365  23.645  13.097   8.022
  853POPC   C4B13366  23.927  13.150   7.729
  854POPC   NC313367  42.973  36.517   9.710
  854POPC   PO413368  43.148  37.190   9.460
  854POPC   GL113369  42.971  37.045   9.078
  854POPC   GL213370  43.201  36.784   9.118
  854POPC   C1A13371  42.956  36.767   8.668
  854POPC   D2A13372  42.916  36.631   8.233
  854POPC   C3A13373  42.874  36.858   7.828
  854POPC   C4A13374  42.709  37.255   7.613
  854POPC   C1B13375  43.461  36.850   8.780
  854POPC   C2B13376  43.385  36.754   8.380
  854POPC   C3B13377  43.372  36.849   7.991
  854POPC   C4B13378  43.571  36.667   7.649
  855POPC   NC313379   8.458  33.158   9.473
  855POPC   PO413380   7.800  33.202   9.839
  855POPC   GL113381   7.899  33.180   9.308
  855POPC   GL213382   7.796  32.857   9.104
  855POPC   C1A13383   8.097  33.170   8.830
  855POPC   D2A13384   8.056  33.022   8.356
  855POPC   C3A13385   8.428  33.044   8.057
  855POPC   C4A13386   8.390  33.270   7.623
  855POPC   C1B13387   8.175  32.672   8.827
  855POPC   C2B13388   8.324  32.569   8.411
  855POPC   C3B13389   8.179  32.547   7.977
  855POPC   C4B13390   8.009  32.928   7.800
  856POPC   NC313391  41.893  42.042   9.362
  856POPC   PO413392  42.566  42.261   9.424
  856POPC   GL113393  42.282  42.274   9.105
  856POPC   GL213394  42.062  42.549   9.056
  856POPC   C1A13395  42.276  42.201   8.689
  856POPC   D2A13396  42.495  42.422   8.373
  856POPC   C3A13397  42.333  42.397   8.002
  856POPC   C4A13398  42.400  42.056   7.723
  856POPC   C1B13399  42.040  42.633   8.591
  856POPC   C2B13400  41.929  42.286   8.306
  856POPC   C3B13401  41.910  42.137   7.887
  856POPC   C4B13402  41.977  42.472   7.616
  857POPC   NC313403  42.299  27.377   9.322
  857POPC   PO413404  42.394  28.049   9.423
  857POPC   GL113405  42.292  27.819   9.075
  857POPC   GL213406  42.632  27.708   9.115
  857POPC   C1A13407  42.110  27.700   8.677
  857POPC   D2A13408  41.994  27.524   8.258
  857POPC   C3A13409  42.189  27.644   7.866
  857POPC   C4A13410  42.105  27.536   7.446
  857POPC   C1B13411  42.640  27.589   8.721
  857POPC   C2B13412  42.429  27.345   8.457
  857POPC   C3B13413  42.438  27.238   8.037
  857POPC   C4B13414  42.530  27.265   7.614
  858POPC   NC313415  15.548  35.602   9.347
  858POPC   PO413416  16.186  35.182   9.416
  858POPC   GL113417  16.011  35.454   9.162
  858POPC   GL213418  15.742  35.204   9.108
  858POPC   C1A13419  16.010  35.515   8.739
  858POPC   D2A13420  16.122  35.310   8.363
  858POPC   C3A13421  15.986  35.526   8.016
  858POPC   C4A13422  15.745  35.407   7.698
  858POPC   C1B13423  16.002  34.997   8.785
  858POPC   C2B13424  15.913  34.820   8.395
  858POPC   C3B13425  15.845  35.004   7.999
  858POPC   C4B13426  16.084  35.024   7.609
  859POPC   NC313427  10.265  28.017   9.567
  859POPC   PO413428   9.709  28.393   9.437
  859POPC   GL113429   9.716  28.373   9.022
  859POPC   GL213430   9.653  28.016   9.052
  859POPC   C1A13431   9.908  28.518   8.629
  859POPC   D2A13432  10.198  28.434   8.274
  859POPC   C3A13433   9.925  28.359   7.927
  859POPC   C4A13434   9.593  28.672   7.837
  859POPC   C1B13435   9.493  28.101   8.650
  859POPC   C2B13436   9.505  28.328   8.258
  859POPC   C3B13437   9.459  28.126   7.848
  859POPC   C4B13438   9.572  27.810   7.495
  860POPC   NC313439  10.540  38.832   9.480
  860POPC   PO413440  10.838  39.439   9.477
  860POPC   GL113441  10.658  39.314   9.103
  860POPC   GL213442  11.024  39.319   8.992
  860POPC   C1A13443  10.357  39.356   8.722
  860POPC   D2A13444  10.310  39.128   8.320
  860POPC   C3A13445  10.457  39.197   7.901
  860POPC   C4A13446  10.396  39.492   7.569
  860POPC   C1B13447  10.829  39.154   8.641
  860POPC   C2B13448  10.756  38.857   8.355
  860POPC   C3B13449  10.937  39.089   8.035
  860POPC   C4B13450  10.854  39.083   7.579
  861POPC   NC313451  42.764   7.577   9.512
  861POPC   PO413452  42.129   7.316   9.502
  861POPC   GL113453  42.386   7.456   9.190
  861POPC   GL213454  42.624   7.170   9.184
  861POPC   C1A13455  42.288   7.641   8.801
  861POPC   D2A13456  42.078   7.478   8.443
  861POPC   C3A13457  42.232   7.518   8.034
  861POPC   C4A13458  42.043   7.251   7.727
  861POPC   C1B13459  42.723   7.407   8.787
  861POPC   C2B13460  42.622   7.542   8.382
  861POPC   C3B13461  42.714   7.323   7.998
  861POPC   C4B13462  42.606   7.511   7.651
  862POPC   NC313463  43.221   8.679   9.613
  862POPC   PO413464  42.984   8.009   9.500
  862POPC   GL113465  43.068   8.180   9.121
  862POPC   GL213466  43.386   8.129   9.062
  862POPC   C1A13467  43.087   8.404   8.741
  862POPC   D2A13468  42.952   8.544   8.357
  862POPC   C3A13469  43.178   8.433   8.023
  862POPC   C4A13470  43.104   8.162   7.691
  862POPC   C1B13471  43.419   8.057   8.603
  862POPC   C2B13472  43.395   7.996   8.181
  862POPC   C3B13473  43.575   7.974   7.791
  862POPC   C4B13474  43.559   8.326   7.528
  863POPC   NC313475  29.585  16.747   9.558
  863POPC   PO413476  28.953  16.901   9.439
  863POPC   GL113477  29.254  16.920   9.162
  863POPC   GL213478  29.355  16.574   9.156
  863POPC   C1A13479  29.345  16.949   8.746
  863POPC   D2A13480  29.527  16.783   8.359
  863POPC   C3A13481  29.407  16.939   7.951
  863POPC   C4A13482  29.266  16.736   7.598
  863POPC   C1B13483  29.315  16.453   8.780
  863POPC   C2B13484  29.014  16.636   8.484
  863POPC   C3B13485  29.112  16.572   8.081
  863POPC   C4B13486  29.460  16.400   7.972
  864POPC   NC313487   5.472   4.030   9.463
  864POPC   PO413488   4.849   4.353   9.545
  864POPC   GL113489   5.013   4.114   9.205
  864POPC   GL213490   5.189   4.403   9.136
  864POPC   C1A13491   5.031   4.097   8.747
  864POPC   D2A13492   5.165   4.129   8.316
  864POPC   C3A13493   4.989   4.343   7.947
  864POPC   C4A13494   5.105   4.267   7.482
  864POPC   C1B13495   5.312   4.588   8.747
  864POPC   C2B13496   5.431   4.568   8.296
  864POPC   C3B13497   5.438   4.561   7.817
  864POPC   C4B13498   5.564   4.450   7.372
  865POPC   NC313499  29.278  20.810   9.459
  865POPC   PO413500  29.372  20.219   9.248
  865POPC   GL113501  29.125  20.451   9.025
  865POPC   GL213502  29.289  20.760   8.951
  865POPC   C1A13503  29.124  20.383   8.606
  865POPC   D2A13504  29.284  20.675   8.332
  865POPC   C3A13505  29.335  20.542   7.916
  865POPC   C4A13506  28.975  20.643   7.664
  865POPC   C1B13507  28.927  20.902   8.744
  865POPC   C2B13508  28.939  21.089   8.327
  865POPC   C3B13509  29.180  21.031   7.943
  865POPC   C4B13510  29.300  20.973   7.476
  866POPC   NC313511  15.781   2.115   9.412
  866POPC   PO413512  16.178   1.524   9.497
  866POPC   GL113513  16.128   1.809   9.163
  866POPC   GL213514  15.758   1.768   9.030
  866POPC   C1A13515  16.172   1.898   8.740
  866POPC   D2A13516  15.877   1.693   8.477
  866POPC   C3A13517  15.926   1.819   8.086
  866POPC   C4A13518  15.905   1.867   7.693
  866POPC   C1B13519  15.726   2.140   8.747
  866POPC   C2B13520  15.934   2.245   8.348
  866POPC   C3B13521  15.718   2.271   7.935
  866POPC   C4B13522  15.705   2.282   7.477
  867POPC   NC313523  42.806   4.091   9.446
  867POPC   PO413524  43.242   4.564   9.581
  867POPC   GL113525  43.067   4.429   9.163
  867POPC   GL213526  43.079   4.093   9.008
  867POPC   C1A13527  42.958   4.492   8.733
  867POPC   D2A13528  43.097   4.340   8.325
  867POPC   C3A13529  43.044   4.601   7.946
  867POPC   C4A13530  43.263   4.688   7.527
  867POPC   C1B13531  42.671   4.068   8.789
  867POPC   C2B13532  42.470   4.374   8.501
  867POPC   C3B13533  42.619   4.343   8.071
  867POPC   C4B13534  42.982   4.082   7.881
  868POPC   NC313535   4.189  23.537   9.616
  868POPC   PO413536   4.749  23.871   9.525
  868POPC   GL113537   4.562  23.809   9.153
  868POPC   GL213538   4.185  23.766   9.150
  868POPC   C1A13539   4.495  23.967   8.770
  868POPC   D2A13540   4.285  23.784   8.452
  868POPC   C3A13541   4.400  23.919   8.045
  868POPC   C4A13542   4.209  23.854   7.655
  868POPC   C1B13543   4.198  23.428   8.831
  868POPC   C2B13544   4.225  23.271   8.383
  868POPC   C3B13545   4.277  23.411   7.921
  868POPC   C4B13546   4.421  23.386   7.461
  869POPC   NC313547  41.338  20.952   9.418
  869POPC   PO413548  41.519  21.649   9.411
  869POPC   GL113549  41.499  21.352   9.136
  869POPC   GL213550  41.152  21.349   9.144
  869POPC   C1A13551  41.656  21.368   8.730
  869POPC   D2A13552  41.471  21.531   8.368
  869POPC   C3A13553  41.543  21.375   7.966
  869POPC   C4A13554  41.791  21.682   7.747
  869POPC   C1B13555  41.233  21.101   8.778
  869POPC   C2B13556  41.390  21.018   8.363
  869POPC   C3B13557  41.158  20.943   7.994
  869POPC   C4B13558  41.049  21.243   7.688
  870POPC   NC313559   0.725  43.418   9.328
  870POPC   PO413560   0.442  42.889   9.606
  870POPC   GL113561   0.537  42.921   9.193
  870POPC   GL213562   0.321  43.133   9.059
  870POPC   C1A13563   0.732  42.985   8.775
  870POPC   D2A13564   0.587  43.246   8.436
  870POPC   C3A13565   0.664  43.140   8.013
  870POPC   C4A13566   0.561  43.238   7.582
  870POPC   C1B13567   0.253  42.757   8.787
  870POPC   C2B13568   0.076  42.838   8.367
  870POPC   C3B13569   0.147  43.187   8.098
  870POPC   C4B13570   0.047  43.154   7.685
  871POPC   NC313571  25.937   4.716   9.505
  871POPC   PO413572  25.667   5.307   9.570
  871POPC   GL113573  25.838   5.118   9.190
  871POPC   GL213574  25.666   4.842   9.097
  871POPC   C1A13575  26.083   5.112   8.805
  871POPC   D2A13576  26.279   5.372   8.470
  871POPC   C3A13577  26.328   5.090   8.139
  871POPC   C4A13578  25.995   4.902   7.878
  871POPC   C1B13579  25.584   5.018   8.707
  871POPC   C2B13580  25.778   5.124   8.332
  871POPC   C3B13581  25.530   5.101   7.976
  871POPC   C4B13582  25.592   5.161   7.593
  872POPC   NC313583  29.290  14.146   9.465
  872POPC   PO413584  29.059  14.630   9.785
  872POPC   GL113585  29.083  14.614   9.294
  872POPC   GL213586  28.929  14.392   9.120
  872POPC   C1A13587  29.186  14.727   8.829
  872POPC   D2A13588  29.234  14.653   8.376
  872POPC   C3A13589  29.275  14.418   7.976
  872POPC   C4A13590  29.584  14.492   7.643
  872POPC   C1B13591  29.113  14.235   8.725
  872POPC   C2B13592  29.372  14.133   8.415
  872POPC   C3B13593  29.327  13.895   8.035
  872POPC   C4B13594  28.920  14.027   7.844
  873POPC   NC313595   1.207  27.074   9.437
  873POPC   PO413596   0.993  26.441   9.598
  873POPC   GL113597   0.972  26.686   9.199
  873POPC   GL213598   1.293  26.688   9.084
  873POPC   C1A13599   0.935  26.850   8.739
  873POPC   D2A13600   1.070  26.620   8.383
  873POPC   C3A13601   0.979  26.803   8.011
  873POPC   C4A13602   1.077  27.067   7.690
  873POPC   C1B13603   1.379  26.406   8.756
  873POPC   C2B13604   1.544  26.431   8.323
  873POPC   C3B13605   1.392  26.515   7.894
  873POPC   C4B13606   1.581  26.692   7.546
  874POPC   NC313607  15.634  25.244   9.411
  874POPC   PO413608  16.260  24.998   9.448
  874POPC   GL113609  16.067  25.239   9.143
  874POPC   GL213610  16.130  25.577   9.038
  874POPC   C1A13611  15.863  25.146   8.792
  874POPC   D2A13612  16.072  25.133   8.413
  874POPC   C3A13613  15.825  25.227   8.071
  874POPC   C4A13614  16.071  25.110   7.748
  874POPC   C1B13615  15.956  25.626   8.621
  874POPC   C2B13616  16.119  25.616   8.202
  874POPC   C3B13617  16.000  25.619   7.776
  874POPC   C4B13618  16.012  25.843   7.391
  875POPC   NC313619  27.163  33.090   9.400
  875POPC   PO413620  26.581  32.995   9.667
  875POPC   GL113621  26.629  33.043   9.188
  875POPC   GL213622  26.496  32.756   9.035
  875POPC   C1A13623  26.903  32.935   8.794
  875POPC   D2A13624  26.969  32.686   8.409
  875POPC   C3A13625  26.920  32.889   8.005
  875POPC   C4A13626  26.954  32.947   7.585
  875POPC   C1B13627  26.485  32.671   8.631
  875POPC   C2B13628  26.480  32.762   8.221
  875POPC   C3B13629  26.477  32.553   7.880
  875POPC   C4B13630  26.593  32.620   7.428
  876POPC   NC313631  18.033  21.795   9.519
  876POPC   PO413632  18.491  21.272   9.392
  876POPC   GL113633  18.358  21.593   9.142
  876POPC   GL213634  18.002  21.559   9.043
  876POPC   C1A13635  18.381  21.455   8.723
  876POPC   D2A13636  18.118  21.441   8.396
  876POPC   C3A13637  18.067  21.087   8.158
  876POPC   C4A13638  17.950  21.126   7.738
  876POPC   C1B13639  18.082  21.855   8.766
  876POPC   C2B13640  17.889  21.887   8.422
  876POPC   C3B13641  18.042  21.849   8.053
  876POPC   C4B13642  18.052  21.645   7.691
  877POPC   NC313643  22.719   5.015   9.631
  877POPC   PO413644  23.288   5.359   9.710
  877POPC   GL113645  23.113   5.026   9.290
  877POPC   GL213646  22.735   4.912   9.157
  877POPC   C1A13647  23.033   5.030   8.782
  877POPC   D2A13648  22.876   5.375   8.469
  877POPC   C3A13649  22.747   5.250   8.032
  877POPC   C4A13650  23.040   5.281   7.693
  877POPC   C1B13651  22.529   5.013   8.781
  877POPC   C2B13652  22.693   4.881   8.393
  877POPC   C3B13653  22.575   4.691   8.032
  877POPC   C4B13654  22.452   4.851   7.674
  878POPC   NC313655   9.523  27.155   9.556
  878POPC   PO413656  10.004  27.611   9.585
  878POPC   GL113657   9.837  27.557   9.213
  878POPC   GL213658   9.892  27.244   9.182
  878POPC   C1A13659   9.962  27.629   8.795
  878POPC   D2A13660   9.970  27.475   8.368
  878POPC   C3A13661   9.758  27.721   8.053
  878POPC   C4A13662  10.003  27.655   7.706
  878POPC   C1B13663   9.633  27.240   8.810
  878POPC   C2B13664   9.466  27.459   8.466
  878POPC   C3B13665   9.497  27.283   8.060
  878POPC   C4B13666   9.500  27.331   7.619
  879POPC   NC313667   5.070   3.119   9.363
  879POPC   PO413668   4.682   2.642   9.606
  879POPC   GL113669   4.945   2.601   9.239
  879POPC   GL213670   4.905   2.847   8.960
  879POPC   C1A13671   5.086   2.382   8.869
  879POPC   D2A13672   5.079   2.563   8.485
  879POPC   C3A13673   5.175   2.449   8.066
  879POPC   C4A13674   4.829   2.612   7.797
  879POPC   C1B13675   4.914   3.037   8.527
  879POPC   C2B13676   5.263   2.980   8.216
  879POPC   C3B13677   5.313   2.837   7.766
  879POPC   C4B13678   5.414   2.771   7.313
  880POPC   NC313679   5.759  20.571   9.581
  880POPC   PO413680   5.969  19.989   9.393
  880POPC   GL113681   5.662  20.293   9.160
  880POPC   GL213682   5.585  20.703   9.129
  880POPC   C1A13683   5.596  20.419   8.721
  880POPC   D2A13684   5.916  20.572   8.445
  880POPC   C3A13685   5.775  20.457   8.059
  880POPC   C4A13686   5.983  20.449   7.709
  880POPC   C1B13687   5.721  20.966   8.782
  880POPC   C2B13688   5.834  21.100   8.374
  880POPC   C3B13689   6.040  20.921   8.033
  880POPC   C4B13690   5.681  20.907   7.808
  881POPC   NC313691  11.065  27.247   9.400
  881POPC   PO413692  11.434  27.898   9.584
  881POPC   GL113693  11.294  27.675   9.224
  881POPC   GL213694  11.658  27.668   9.168
  881POPC   C1A13695  11.097  27.500   8.814
  881POPC   D2A13696  11.113  27.551   8.378
  881POPC   C3A13697  10.975  27.404   7.981
  881POPC   C4A13698  11.330  27.583   7.773
  881POPC   C1B13699  11.573  27.677   8.724
  881POPC   C2B13700  11.495  27.925   8.355
  881POPC   C3B13701  11.628  27.984   7.922
  881POPC   C4B13702  11.666  27.831   7.462
  882POPC   NC313703  13.761   8.894   9.472
  882POPC   PO413704  13.135   9.114   9.447
  882POPC   GL113705  13.423   9.177   9.107
  882POPC   GL213706  13.779   9.137   9.039
  882POPC   C1A13707  13.449   8.960   8.713
  882POPC   D2A13708  13.585   8.735   8.398
  882POPC   C3A13709  13.545   8.991   8.052
  882POPC   C4A13710  13.357   9.174   7.705
  882POPC   C1B13711  13.946   8.918   8.713
  882POPC   C2B13712  14.012   8.998   8.298
  882POPC   C3B13713  14.017   9.089   7.887
  882POPC   C4B13714  13.788   8.858   7.582
  883POPC   NC313715  18.920  18.767   9.691
  883POPC   PO413716  19.117  19.427   9.588
  883POPC   GL113717  19.139  19.179   9.235
  883POPC   GL213718  18.859  18.958   9.223
  883POPC   C1A13719  19.208  19.088   8.815
  883POPC   D2A13720  19.149  19.284   8.417
  883POPC   C3A13721  19.163  19.016   8.059
  883POPC   C4A13722  19.428  18.963   7.711
  883POPC   C1B13723  18.699  19.064   8.824
  883POPC   C2B13724  18.741  18.904   8.392
  883POPC   C3B13725  18.647  18.989   7.952
  883POPC   C4B13726  18.942  19.061   7.572
  884POPC   NC313727  14.583  35.379   9.534
  884POPC   PO413728  15.250  35.256   9.486
  884POPC   GL113729  15.216  35.318   9.047
  884POPC   GL213730  14.895  35.131   9.011
  884POPC   C1A13731  15.482  35.494   8.722
  884POPC   D2A13732  15.628  35.332   8.361
  884POPC   C3A13733  15.330  35.321   8.052
  884POPC   C4A13734  15.243  35.444   7.659
  884POPC   C1B13735  15.020  35.208   8.572
  884POPC   C2B13736  14.816  35.362   8.179
  884POPC   C3B13737  14.871  35.102   7.820
  884POPC   C4B13738  14.870  35.139   7.380
  885POPC   NC313739  23.187  40.318   9.425
  885POPC   PO413740  23.066  39.705   9.602
  885POPC   GL113741  22.982  39.898   9.190
  885POPC   GL213742  22.661  39.879   9.067
  885POPC   C1A13743  23.032  40.073   8.763
  885POPC   D2A13744  22.897  40.278   8.361
  885POPC   C3A13745  23.189  40.233   7.998
  885POPC   C4A13746  23.336  40.284   7.586
  885POPC   C1B13747  22.543  39.958   8.670
  885POPC   C2B13748  22.783  39.714   8.417
  885POPC   C3B13749  22.843  39.847   8.024
  885POPC   C4B13750  22.904  39.996   7.637
  886POPC   NC313751  17.848  12.991   9.783
  886POPC   PO413752  17.374  13.137   9.271
  886POPC   GL113753  17.468  12.743   9.045
  886POPC   GL213754  17.720  12.513   9.186
  886POPC   C1A13755  17.344  12.731   8.637
  886POPC   D2A13756  17.042  12.613   8.334
  886POPC   C3A13757  17.242  12.535   7.941
  886POPC   C4A13758  17.551  12.857   7.804
  886POPC   C1B13759  17.862  12.613   8.737
  886POPC   C2B13760  17.804  12.791   8.338
  886POPC   C3B13761  18.035  12.800   7.985
  886POPC   C4B13762  17.973  12.646   7.569
  887POPC   NC313763  40.560  30.105   9.458
  887POPC   PO413764  40.317  29.491   9.368
  887POPC   GL113765  40.734  29.714   9.173
  887POPC   GL213766  40.890  30.029   8.979
  887POPC   C1A13767  40.853  29.577   8.765
  887POPC   D2A13768  40.623  29.680   8.438
  887POPC   C3A13769  40.752  29.557   8.032
  887POPC   C4A13770  40.631  29.780   7.688
  887POPC   C1B13771  41.019  30.012   8.517
  887POPC   C2B13772  40.739  30.068   8.122
  887POPC   C3B13773  40.713  30.314   7.734
  887POPC   C4B13774  40.882  30.288   7.305
  888POPC   NC313775  37.613  12.533   9.388
  888POPC   PO413776  37.436  13.180   9.468
  888POPC   GL113777  37.646  12.960   9.115
  888POPC   GL213778  37.981  12.799   9.147
  888POPC   C1A13779  37.713  12.784   8.711
  888POPC   D2A13780  37.582  12.974   8.350
  888POPC   C3A13781  37.645  12.679   8.044
  888POPC   C4A13782  37.737  12.683   7.640
  888POPC   C1B13783  38.192  12.607   8.773
  888POPC   C2B13784  38.038  12.499   8.357
  888POPC   C3B13785  38.124  12.468   7.913
  888POPC   C4B13786  38.018  12.247   7.523
  889POPC   NC313787   5.951  19.565   9.622
  889POPC   PO413788   5.911  18.878   9.655
  889POPC   GL113789   5.919  19.088   9.232
  889POPC   GL213790   6.272  19.209   9.201
  889POPC   C1A13791   5.733  19.059   8.775
  889POPC   D2A13792   5.608  18.708   8.459
  889POPC   C3A13793   5.682  18.811   8.010
  889POPC   C4A13794   5.526  18.981   7.610
  889POPC   C1B13795   6.245  18.961   8.820
  889POPC   C2B13796   6.264  19.067   8.383
  889POPC   C3B13797   6.207  18.875   7.970
  889POPC   C4B13798   5.982  19.147   7.748
  890POPC   NC313799  42.107   0.852   9.508
  890POPC   PO413800  41.853   1.438   9.451
  890POPC   GL113801  41.762   1.315   9.068
  890POPC   GL213802  42.103   1.383   8.984
  890POPC   C1A13803  41.498   1.192   8.696
  890POPC   D2A13804  41.157   1.119   8.368
  890POPC   C3A13805  41.249   1.336   8.009
  890POPC   C4A13806  41.629   1.212   7.861
  890POPC   C1B13807  42.010   1.013   8.751
  890POPC   C2B13808  41.868   1.074   8.355
  890POPC   C3B13809  42.089   1.262   8.080
  890POPC   C4B13810  42.142   0.957   7.812
  891POPC   NC313811  43.222  43.240   9.572
  891POPC   PO413812  43.398  42.654   9.387
  891POPC   GL113813  43.129  42.942   9.144
  891POPC   GL213814  42.923  43.244   9.171
  891POPC   C1A13815  43.259  43.121   8.754
  891POPC   D2A13816  43.152  43.305   8.351
  891POPC   C3A13817  43.159  43.076   7.984
  891POPC   C4A13818  43.005  42.980   7.568
  891POPC   C1B13819  42.689  43.210   8.838
  891POPC   C2B13820  42.673  43.436   8.472
  891POPC   C3B13821  42.694  43.303   8.050
  891POPC   C4B13822  42.773  43.418   7.607
  892POPC   NC313823  33.513   0.048   9.569
  892POPC   PO413824  34.091   0.351   9.488
  892POPC   GL113825  33.923   0.476   9.117
  892POPC   GL213826  33.616   0.343   9.147
  892POPC   C1A13827  33.950   0.305   8.737
  892POPC   D2A13828  33.987   0.064   8.402
  892POPC   C3A13829  33.895   0.266   8.058
  892POPC   C4A13830  33.947   0.079   7.711
  892POPC   C1B13831  33.439   0.388   8.788
  892POPC   C2B13832  33.412   0.263   8.378
  892POPC   C3B13833  33.427   0.461   7.991
  892POPC   C4B13834  33.574   0.376   7.582
  893POPC   NC313835   3.213  43.617   9.562
  893POPC   PO413836   3.631  44.135   9.524
  893POPC   GL113837   3.411  44.025   9.136
  893POPC   GL213838   3.372  43.664   9.086
  893POPC   C1A13839   3.510  44.015   8.678
  893POPC   D2A13840   3.452  44.037   8.222
  893POPC   C3A13841   3.742  43.880   7.945
  893POPC   C4A13842   3.780  43.939   7.512
  893POPC   C1B13843   3.554  43.483   8.736
  893POPC   C2B13844   3.466  43.525   8.324
  893POPC   C3B13845   3.280  43.626   7.952
  893POPC   C4B13846   3.534  43.453   7.680
  894POPC   NC313847   3.634  27.378   9.514
  894POPC   PO413848   2.951  27.460   9.401
  894POPC   GL113849   3.258  27.353   9.172
  894POPC   GL213850   3.400  27.684   9.177
  894POPC   C1A13851   3.455  27.229   8.821
  894POPC   D2A13852   3.318  27.434   8.456
  894POPC   C3A13853   3.565  27.537   8.088
  894POPC   C4A13854   3.640  27.306   7.719
  894POPC   C1B13855   3.609  27.720   8.784
  894POPC   C2B13856   3.780  27.934   8.387
  894POPC   C3B13857   3.652  28.040   7.992
  894POPC   C4B13858   3.519  27.895   7.609
  895POPC   NC313859   2.034  42.545   9.495
  895POPC   PO413860   2.429  42.052   9.196
  895POPC   GL113861   2.112  42.290   9.048
  895POPC   GL213862   1.793  42.471   9.064
  895POPC   C1A13863   2.068  42.420   8.654
  895POPC   D2A13864   1.889  42.242   8.304
  895POPC   C3A13865   2.149  42.273   7.969
  895POPC   C4A13866   2.131  42.535   7.618
  895POPC   C1B13867   1.559  42.404   8.678
  895POPC   C2B13868   1.550  42.608   8.265
  895POPC   C3B13869   1.653  42.468   7.825
  895POPC   C4B13870   1.702  42.633   7.352
  896POPC   NC313871  22.192  14.168   9.389
  896POPC   PO413872  22.148  14.864   9.527
  896POPC   GL113873  22.214  14.706   9.103
  896POPC   GL213874  22.397  14.397   9.008
  896POPC   C1A13875  22.040  14.591   8.697
  896POPC   D2A13876  21.812  14.198   8.587
  896POPC   C3A13877  21.894  14.075   8.170
  896POPC   C4A13878  21.929  14.394   7.819
  896POPC   C1B13879  22.643  14.104   8.769
  896POPC   C2B13880  22.525  14.317   8.432
  896POPC   C3B13881  22.410  14.408   8.007
  896POPC   C4B13882  22.450  14.749   7.729
  897POPC   NC313883  41.483  39.672   9.392
  897POPC   PO413884  41.435  39.007   9.420
  897POPC   GL113885  41.219  39.096   9.051
  897POPC   GL213886  41.083  39.454   9.147
  897POPC   C1A13887  41.449  38.993   8.657
  897POPC   D2A13888  41.836  39.184   8.435
  897POPC   C3A13889  41.790  39.096   7.995
  897POPC   C4A13890  41.425  38.889   7.870
  897POPC   C1B13891  41.292  39.489   8.753
  897POPC   C2B13892  41.381  39.394   8.344
  897POPC   C3B13893  41.731  39.593   8.119
  897POPC   C4B13894  41.541  39.513   7.750
  898POPC   NC313895  41.448   8.947   9.468
  898POPC   PO413896  42.171   9.043   9.457
  898POPC   GL113897  41.829   9.191   9.186
  898POPC   GL213898  41.628   8.911   9.011
  898POPC   C1A13899  41.804   9.310   8.777
  898POPC   D2A13900  41.775   8.940   8.517
  898POPC   C3A13901  41.828   8.984   8.087
  898POPC   C4A13902  41.638   9.138   7.710
  898POPC   C1B13903  41.341   8.685   8.743
  898POPC   C2B13904  41.439   8.508   8.349
  898POPC   C3B13905  41.432   8.683   7.945
  898POPC   C4B13906  41.331   8.774   7.535
  899POPC   NC313907   3.875  19.990   9.409
  899POPC   PO413908   3.388  19.699   9.460
  899POPC   GL113909   3.527  19.869   9.085
  899POPC   GL213910   3.724  19.550   9.103
  899POPC   C1A13911   3.698  20.082   8.709
  899POPC   D2A13912   3.801  20.025   8.231
  899POPC   C3A13913   3.496  20.088   7.858
  899POPC   C4A13914   3.426  20.041   7.384
  899POPC   C1B13915   3.390  19.457   8.839
  899POPC   C2B13916   3.565  19.641   8.501
  899POPC   C3B13917   3.515  19.605   8.078
  899POPC   C4B13918   3.649  19.602   7.664
  900POPC   NC313919  20.077  36.802   9.473
  900POPC   PO413920  19.643  37.267   9.369
  900POPC   GL113921  19.995  37.120   9.073
  900POPC   GL213922  19.943  36.738   8.910
  900POPC   C1A13923  20.268  37.051   8.738
  900POPC   D2A13924  20.095  36.845   8.402
  900POPC   C3A13925  20.301  37.084   8.126
  900POPC   C4A13926  20.119  37.236   7.769
  900POPC   C1B13927  19.605  36.664   8.542
  900POPC   C2B13928  19.325  37.021   8.401
  900POPC   C3B13929  19.490  37.151   7.995
  900POPC   C4B13930  19.834  36.836   7.904
  901POPC   NC313931   2.373  44.886   9.475
  901POPC   PO413932   1.839  44.463   9.639
  901POPC   GL113933   1.875  44.685   9.232
  901POPC   GL213934   2.176  44.719   9.032
  901POPC   C1A13935   1.692  44.789   8.795
  901POPC   D2A13936   1.878  44.814   8.381
  901POPC   C3A13937   1.744  44.591   8.005
  901POPC   C4A13938   1.822  44.897   7.731
  901POPC   C1B13939   2.260  44.553   8.606
  901POPC   C2B13940   2.245  44.574   8.136
  901POPC   C3B13941   2.300  44.746   7.728
  901POPC   C4B13942   2.279  44.622   7.264
  902POPC   NC313943   4.205  11.706   9.332
  902POPC   PO413944   4.077  12.382   9.350
  902POPC   GL113945   4.126  12.103   9.033
  902POPC   GL213946   4.468  12.101   9.089
  902POPC   C1A13947   4.293  12.061   8.620
  902POPC   D2A13948   4.090  12.427   8.456
  902POPC   C3A13949   4.106  12.469   8.030
  902POPC   C4A13950   4.291  12.136   7.827
  902POPC   C1B13951   4.583  12.442   8.763
  902POPC   C2B13952   4.580  12.370   8.321
  902POPC   C3B13953   4.602  11.932   8.210
  902POPC   C4B13954   4.552  11.708   7.838
  903POPC   NC313955  23.570  28.845   9.433
  903POPC   PO413956  24.061  29.421   9.384
  903POPC   GL113957  23.870  29.110   9.119
  903POPC   GL213958  23.532  29.182   9.063
  903POPC   C1A13959  23.778  28.792   8.801
  903POPC   D2A13960  23.801  29.084   8.489
  903POPC   C3A13961  24.031  29.097   8.110
  903POPC   C4A13962  23.949  29.012   7.690
  903POPC   C1B13963  23.302  29.028   8.759
  903POPC   C2B13964  23.355  28.894   8.364
  903POPC   C3B13965  23.530  29.043   8.006
  903POPC   C4B13966  23.355  28.960   7.635
  904POPC   NC313967  44.276  28.073   9.912
  904POPC   PO413968  44.629  27.709   9.455
  904POPC   GL113969  44.676  27.616   9.074
  904POPC   GL213970  44.548  27.927   8.954
  904POPC   C1A13971  44.563  27.453   8.689
  904POPC   D2A13972  44.817  27.415   8.319
  904POPC   C3A13973  44.726  27.527   7.885
  904POPC   C4A13974  44.640  27.218   7.532
  904POPC   C1B13975  44.860  27.846   8.635
  904POPC   C2B13976  44.973  27.899   8.207
  904POPC   C3B13977   0.020  27.969   7.792
  904POPC   C4B13978  44.889  28.082   7.398
  905POPC   NC313979  32.084   5.598   9.480
  905POPC   PO413980  32.320   6.317   9.526
  905POPC   GL113981  32.219   5.997   9.182
  905POPC   GL213982  32.513   5.941   8.965
  905POPC   C1A13983  31.998   5.843   8.794
  905POPC   D2A13984  31.761   5.762   8.378
  905POPC   C3A13985  31.967   5.798   7.984
  905POPC   C4A13986  32.356   5.979   7.820
  905POPC   C1B13987  32.455   5.687   8.580
  905POPC   C2B13988  32.372   5.554   8.175
  905POPC   C3B13989  32.592   5.548   7.767
  905POPC   C4B13990  32.629   5.797   7.382
  906POPC   NC313991  38.878  35.384   9.417
  906POPC   PO413992  39.482  35.273   9.510
  906POPC   GL113993  39.477  35.040   9.148
  906POPC   GL213994  39.148  35.015   9.180
  906POPC   C1A13995  39.492  35.145   8.733
  906POPC   D2A13996  39.429  35.491   8.467
  906POPC   C3A13997  39.565  35.381   8.061
  906POPC   C4A13998  39.632  35.691   7.811
  906POPC   C1B13999  38.994  35.195   8.807
  906POPC   C2B14000  39.021  35.023   8.438
  906POPC   C3B14001  39.074  35.303   8.144
  906POPC   C4B14002  39.140  35.206   7.758
  907POPC   NC314003   6.919  14.107   9.582
  907POPC   PO414004   6.345  14.477   9.571
  907POPC   GL114005   6.424  14.624   9.177
  907POPC   GL214006   6.743  14.481   9.193
  907POPC   C1A14007   6.364  14.353   8.791
  907POPC   D2A14008   6.501  14.150   8.393
  907POPC   C3A14009   6.289  14.147   7.966
  907POPC   C4A14010   6.298  14.345   7.557
  907POPC   C1B14011   6.893  14.238   8.840
  907POPC   C2B14012   7.010  14.298   8.420
  907POPC   C3B14013   6.783  14.380   8.032
  907POPC   C4B14014   6.818  14.257   7.608
  908POPC   NC314015  30.563   6.743   9.361
  908POPC   PO414016  30.755   6.100   9.465
  908POPC   GL114017  30.829   6.357   9.089
  908POPC   GL214018  30.517   6.454   8.916
  908POPC   C1A14019  30.958   6.550   8.676
  908POPC   D2A14020  30.698   6.712   8.336
  908POPC   C3A14021  30.677   6.460   7.968
  908POPC   C4A14022  30.956   6.393   7.570
  908POPC   C1B14023  30.393   6.865   8.724
  908POPC   C2B14024  30.240   6.926   8.311
  908POPC   C3B14025  30.339   6.845   7.910
  908POPC   C4B14026  30.686   6.837   7.633
  909POPC   NC314027   2.172  32.451   9.505
  909POPC   PO414028   1.896  31.767   9.481
  909POPC   GL114029   2.141  32.099   9.149
  909POPC   GL214030   2.026  32.431   9.035
  909POPC   C1A14031   2.304  32.189   8.708
  909POPC   D2A14032   2.017  32.230   8.355
  909POPC   C3A14033   2.093  32.079   7.923
  909POPC   C4A14034   2.248  32.335   7.597
  909POPC   C1B14035   1.988  32.670   8.678
  909POPC   C2B14036   2.164  32.734   8.323
  909POPC   C3B14037   1.991  32.604   7.959
  909POPC   C4B14038   1.965  32.761   7.551
  910POPC   NC314039  35.059  14.824   9.514
  910POPC   PO414040  34.478  15.127   9.386
  910POPC   GL114041  34.419  15.105   9.004
  910POPC   GL214042  34.228  14.812   8.967
  910POPC   C1A14043  34.658  15.182   8.638
  910POPC   D2A14044  34.840  15.274   8.271
  910POPC   C3A14045  34.610  15.203   7.864
  910POPC   C4A14046  34.600  15.319   7.421
  910POPC   C1B14047  34.390  14.739   8.616
  910POPC   C2B14048  34.427  14.936   8.252
  910POPC   C3B14049  34.266  14.821   7.865
  910POPC   C4B14050  34.247  14.909   7.432
  911POPC   NC314051  33.520   4.702   9.863
  911POPC   PO414052  33.862   4.197   9.548
  911POPC   GL114053  33.872   4.273   9.140
  911POPC   GL214054  33.744   4.600   9.143
  911POPC   C1A14055  33.652   4.249   8.745
  911POPC   D2A14056  33.533   4.052   8.358
  911POPC   C3A14057  33.792   4.203   8.016
  911POPC   C4A14058  33.699   4.501   7.735
  911POPC   C1B14059  33.917   4.710   8.781
  911POPC   C2B14060  33.932   4.521   8.391
  911POPC   C3B14061  34.089   4.693   8.032
  911POPC   C4B14062  34.066   4.783   7.600
  912POPC   NC314063  13.826  31.928   9.468
  912POPC   PO414064  13.612  31.306   9.518
  912POPC   GL114065  13.524  31.553   9.180
  912POPC   GL214066  13.807  31.391   9.059
  912POPC   C1A14067  13.392  31.534   8.735
  912POPC   D2A14068  13.154  31.489   8.359
  912POPC   C3A14069  13.365  31.420   7.981
  912POPC   C4A14070  13.366  31.719   7.684
  912POPC   C1B14071  13.896  31.571   8.683
  912POPC   C2B14072  13.889  31.913   8.392
  912POPC   C3B14073  13.810  31.738   7.977
  912POPC   C4B14074  13.864  31.336   7.763
  913POPC   NC314075  13.075  36.943   9.526
  913POPC   PO414076  12.482  36.657   9.569
  913POPC   GL114077  12.786  36.602   9.216
  913POPC   GL214078  12.881  36.938   9.063
  913POPC   C1A14079  12.751  36.550   8.757
  913POPC   D2A14080  12.858  36.919   8.489
  913POPC   C3A14081  12.719  36.917   8.067
  913POPC   C4A14082  12.783  36.592   7.792
  913POPC   C1B14083  12.706  37.269   8.826
  913POPC   C2B14084  12.674  37.447   8.391
  913POPC   C3B14085  13.005  37.339   8.108
  913POPC   C4B14086  13.106  37.188   7.700
  914POPC   NC314087  40.970  32.601   9.451
  914POPC   PO414088  41.561  33.029   9.490
  914POPC   GL114089  41.630  33.165   9.081
  914POPC   GL214090  41.862  33.419   9.031
  914POPC   C1A14091  41.508  33.017   8.688
  914POPC   D2A14092  41.373  33.084   8.281
  914POPC   C3A14093  41.533  32.813   7.959
  914POPC   C4A14094  41.533  32.922   7.505
  914POPC   C1B14095  41.794  33.435   8.592
  914POPC   C2B14096  41.855  33.176   8.217
  914POPC   C3B14097  41.698  33.271   7.835
  914POPC   C4B14098  41.866  33.377   7.434
  915POPC   NC314099  41.797  22.065   9.437
  915POPC   PO414100  41.167  22.276   9.546
  915POPC   GL114101  41.326  22.255   9.170
  915POPC   GL214102  41.120  22.508   9.104
  915POPC   C1A14103  41.541  22.111   8.796
  915POPC   D2A14104  41.756  21.950   8.431
  915POPC   C3A14105  41.565  22.016   8.059
  915POPC   C4A14106  41.743  22.223   7.754
  915POPC   C1B14107  41.319  22.581   8.741
  915POPC   C2B14108  41.497  22.450   8.376
  915POPC   C3B14109  41.396  22.506   7.962
  915POPC   C4B14110  41.291  22.281   7.561
  916POPC   NC314111  31.757  17.355   9.469
  916POPC   PO414112  31.726  16.774   9.510
  916POPC   GL114113  31.537  16.757   9.114
  916POPC   GL214114  31.477  17.103   9.128
  916POPC   C1A14115  31.550  16.599   8.711
  916POPC   D2A14116  31.617  16.274   8.403
  916POPC   C3A14117  31.554  16.505   8.029
  916POPC   C4A14118  31.769  16.681   7.654
  916POPC   C1B14119  31.613  17.131   8.746
  916POPC   C2B14120  31.454  16.968   8.381
  916POPC   C3B14121  31.597  17.022   8.004
  916POPC   C4B14122  31.281  16.863   7.718
  917POPC   NC314123  41.008  30.888   9.349
  917POPC   PO414124  40.649  31.410   9.702
  917POPC   GL114125  40.595  31.362   9.224
  917POPC   GL214126  40.504  31.021   9.177
  917POPC   C1A14127  40.831  31.478   8.784
  917POPC   D2A14128  41.042  31.536   8.357
  917POPC   C3A14129  40.948  31.353   7.939
  917POPC   C4A14130  40.832  31.652   7.592
  917POPC   C1B14131  40.387  31.261   8.771
  917POPC   C2B14132  40.447  31.547   8.394
  917POPC   C3B14133  40.452  31.449   7.945
  917POPC   C4B14134  40.453  31.327   7.509
  918POPC   NC314135  29.936  17.677   9.456
  918POPC   PO414136  29.912  17.055   9.676
  918POPC   GL114137  30.071  17.247   9.240
  918POPC   GL214138  29.766  17.398   9.042
  918POPC   C1A14139  30.217  17.539   8.850
  918POPC   D2A14140  30.076  17.480   8.437
  918POPC   C3A14141  30.188  17.607   8.027
  918POPC   C4A14142  29.858  17.707   7.750
  918POPC   C1B14143  29.631  17.333   8.606
  918POPC   C2B14144  29.720  17.287   8.137
  918POPC   C3B14145  29.718  17.213   7.676
  918POPC   C4B14146  29.567  17.079   7.225
  919POPC   NC314147  20.237  23.961   9.396
  919POPC   PO414148  20.912  24.119   9.501
  919POPC   GL114149  20.846  23.821   9.185
  919POPC   GL214150  20.584  23.547   9.208
  919POPC   C1A14151  20.728  23.894   8.789
  919POPC   D2A14152  20.506  23.894   8.436
  919POPC   C3A14153  20.749  23.722   8.130
  919POPC   C4A14154  20.686  23.841   7.760
  919POPC   C1B14155  20.307  23.600   8.834
  919POPC   C2B14156  20.164  23.498   8.406
  919POPC   C3B14157  20.231  23.711   8.023
  919POPC   C4B14158  20.325  23.489   7.653
  920POPC   NC314159  36.253  38.636   9.310
  920POPC   PO414160  35.729  38.684   9.714
  920POPC   GL114161  35.887  38.322   9.199
  920POPC   GL214162  36.204  38.123   9.208
  920POPC   C1A14163  36.073  38.514   8.700
  920POPC   D2A14164  36.118  38.911   8.393
  920POPC   C3A14165  36.004  38.788   7.939
  920POPC   C4A14166  35.871  38.338   7.764
  920POPC   C1B14167  36.058  38.007   8.780
  920POPC   C2B14168  36.117  38.120   8.310
  920POPC   C3B14169  36.316  38.107   7.863
  920POPC   C4B14170  36.319  38.128   7.373
  921POPC   NC314171   6.681   5.150   9.478
  921POPC   PO414172   6.867   4.692   9.079
  921POPC   GL114173   6.494   4.951   9.043
  921POPC   GL214174   6.611   5.294   8.984
  921POPC   C1A14175   6.316   5.028   8.660
  921POPC   D2A14176   6.365   4.904   8.279
  921POPC   C3A14177   6.654   5.106   8.081
  921POPC   C4A14178   6.536   5.118   7.701
  921POPC   C1B14179   6.828   5.106   8.581
  921POPC   C2B14180   6.888   4.715   8.320
  921POPC   C3B14181   6.858   4.689   7.860
  921POPC   C4B14182   6.851   4.834   7.425
  922POPC   NC314183  17.330  18.843   9.643
  922POPC   PO414184  17.864  19.186   9.480
  922POPC   GL114185  17.502  19.162   9.195
  922POPC   GL214186  17.391  18.800   9.138
  922POPC   C1A14187  17.476  19.255   8.751
  922POPC   D2A14188  17.250  19.241   8.366
  922POPC   C3A14189  17.417  19.126   8.004
  922POPC   C4A14190  17.235  18.737   7.888
  922POPC   C1B14191  17.707  18.789   8.830
  922POPC   C2B14192  17.649  18.866   8.391
  922POPC   C3B14193  17.731  18.744   7.952
  922POPC   C4B14194  17.627  18.865   7.544
  923POPC   NC314195  29.276  32.664   9.643
  923POPC   PO414196  28.877  32.078   9.472
  923POPC   GL114197  29.145  32.360   9.253
  923POPC   GL214198  29.233  32.089   9.118
  923POPC   C1A14199  29.252  32.522   8.839
  923POPC   D2A14200  29.059  32.717   8.453
  923POPC   C3A14201  29.225  32.576   8.040
  923POPC   C4A14202  29.147  32.575   7.585
  923POPC   C1B14203  29.002  32.094   8.756
  923POPC   C2B14204  29.229  32.209   8.422
  923POPC   C3B14205  29.148  32.044   8.052
  923POPC   C4B14206  29.340  32.141   7.694
  924POPC   NC314207  18.445  30.919   9.489
  924POPC   PO414208  18.278  30.301   9.482
  924POPC   GL114209  18.232  30.575   9.150
  924POPC   GL214210  18.117  30.931   9.084
  924POPC   C1A14211  18.154  30.460   8.755
  924POPC   D2A14212  18.041  30.380   8.342
  924POPC   C3A14213  18.040  30.693   8.073
  924POPC   C4A14214  18.144  30.512   7.677
  924POPC   C1B14215  18.064  30.946   8.614
  924POPC   C2B14216  18.330  31.086   8.284
  924POPC   C3B14217  18.370  31.049   7.849
  924POPC   C4B14218  17.963  30.995   7.671
  925POPC   NC314219   8.415  37.995   9.443
  925POPC   PO414220   7.747  37.777   9.453
  925POPC   GL114221   7.898  37.618   9.071
  925POPC   GL214222   7.717  37.374   8.945
  925POPC   C1A14223   8.218  37.607   8.759
  925POPC   D2A14224   8.335  37.957   8.478
  925POPC   C3A14225   8.457  37.877   8.056
  925POPC   C4A14226   8.161  38.021   7.731
  925POPC   C1B14227   7.768  37.453   8.518
  925POPC   C2B14228   8.132  37.492   8.260
  925POPC   C3B14229   8.060  37.526   7.846
  925POPC   C4B14230   7.694  37.388   7.628
  926POPC   NC314231  32.163  27.054   9.639
  926POPC   PO414232  32.458  26.546   9.478
  926POPC   GL114233  32.201  26.773   9.205
  926POPC   GL214234  32.318  27.140   9.173
  926POPC   C1A14235  32.000  26.890   8.819
  926POPC   D2A14236  31.837  26.946   8.404
  926POPC   C3A14237  32.066  26.665   8.134
  926POPC   C4A14238  32.227  26.813   7.762
  926POPC   C1B14239  32.322  27.285   8.770
  926POPC   C2B14240  32.345  27.052   8.402
  926POPC   C3B14241  32.244  27.219   8.057
  926POPC   C4B14242  32.514  27.292   7.727
  927POPC   NC314243  40.698  41.754   9.462
  927POPC   PO414244  40.181  41.301   9.291
  927POPC   GL114245  40.575  41.448   9.089
  927POPC   GL214246  40.965  41.415   9.132
  927POPC   C1A14247  40.757  41.669   8.740
  927POPC   D2A14248  40.889  41.505   8.356
  927POPC   C3A14249  40.658  41.574   8.002
  927POPC   C4A14250  40.440  41.228   7.863
  927POPC   C1B14251  41.208  41.329   8.744
  927POPC   C2B14252  41.351  41.249   8.316
  927POPC   C3B14253  41.260  41.351   7.880
  927POPC   C4B14254  40.934  41.493   7.577
  928POPC   NC314255   2.680  20.963   9.528
  928POPC   PO414256   2.655  20.345   9.370
  928POPC   GL114257   2.650  20.685   9.104
  928POPC   GL214258   3.013  20.700   9.159
  928POPC   C1A14259   2.751  20.872   8.722
  928POPC   D2A14260   2.975  20.752   8.368
  928POPC   C3A14261   2.626  20.736   8.069
  928POPC   C4A14262   2.679  20.655   7.646
  928POPC   C1B14263   2.964  20.400   8.814
  928POPC   C2B14264   2.830  20.279   8.443
  928POPC   C3B14265   2.939  20.333   8.046
  928POPC   C4B14266   2.817  20.130   7.689
  929POPC   NC314267   9.122  28.986   9.490
  929POPC   PO414268   8.775  29.572   9.491
  929POPC   GL114269   8.767  29.329   9.137
  929POPC   GL214270   8.690  29.606   8.941
  929POPC   C1A14271   8.959  29.142   8.763
  929POPC   D2A14272   8.945  29.309   8.340
  929POPC   C3A14273   9.218  29.122   8.052
  929POPC   C4A14274   9.149  29.002   7.626
  929POPC   C1B14275   8.504  29.355   8.653
  929POPC   C2B14276   8.485  29.062   8.337
  929POPC   C3B14277   8.713  29.027   7.971
  929POPC   C4B14278   8.854  29.386   7.815
  930POPC   NC314279  27.473  18.104   9.515
  930POPC   PO414280  27.722  17.458   9.421
  930POPC   GL114281  27.648  17.539   9.013
  930POPC   GL214282  27.284  17.612   8.994
  930POPC   C1A14283  27.698  17.210   8.669
  930POPC   D2A14284  27.735  16.967   8.285
  930POPC   C3A14285  27.689  17.250   7.930
  930POPC   C4A14286  27.662  17.620   7.667
  930POPC   C1B14287  27.405  17.615   8.580
  930POPC   C2B14288  27.610  17.742   8.223
  930POPC   C3B14289  27.490  18.020   7.931
  930POPC   C4B14290  27.186  17.857   7.642
  931POPC   NC314291  19.313  25.598   9.452
  931POPC   PO414292  19.143  26.229   9.460
  931POPC   GL114293  19.129  25.973   9.085
  931POPC   GL214294  18.792  25.886   9.026
  931POPC   C1A14295  19.108  26.067   8.613
  931POPC   D2A14296  19.090  26.423   8.286
  931POPC   C3A14297  19.246  26.285   7.868
  931POPC   C4A14298  19.214  26.039   7.456
  931POPC   C1B14299  18.754  25.637   8.649
  931POPC   C2B14300  18.940  25.660   8.247
  931POPC   C3B14301  18.893  25.909   7.890
  931POPC   C4B14302  18.654  25.759   7.558
  932POPC   NC314303  42.444  24.967   9.511
  932POPC   PO414304  42.002  25.446   9.401
  932POPC   GL114305  42.271  25.230   9.093
  932POPC   GL214306  42.639  25.258   9.137
  932POPC   C1A14307  42.430  25.318   8.651
  932POPC   D2A14308  42.412  25.682   8.331
  932POPC   C3A14309  42.244  25.515   7.936
  932POPC   C4A14310  42.253  25.355   7.480
  932POPC   C1B14311  42.618  24.887   8.880
  932POPC   C2B14312  42.598  24.847   8.446
  932POPC   C3B14313  42.755  24.952   8.052
  932POPC   C4B14314  42.436  24.999   7.766
  933POPC   NC314315  22.132  28.128  10.017
  933POPC   PO414316  21.816  28.186   9.386
  933POPC   GL114317  22.155  28.349   9.146
  933POPC   GL214318  22.456  28.225   9.205
  933POPC   C1A14319  22.154  28.477   8.743
  933POPC   D2A14320  21.960  28.254   8.406
  933POPC   C3A14321  22.009  28.466   8.045
  933POPC   C4A14322  21.770  28.474   7.663
  933POPC   C1B14323  22.449  28.051   8.790
  933POPC   C2B14324  22.477  28.274   8.388
  933POPC   C3B14325  22.372  28.108   8.008
  933POPC   C4B14326  22.086  28.087   7.716
  934POPC   NC314327   8.862   9.276   9.475
  934POPC   PO414328   8.866   8.555   9.378
  934POPC   GL114329   8.846   8.880   9.135
  934POPC   GL214330   9.132   9.087   9.080
  934POPC   C1A14331   8.916   8.787   8.734
  934POPC   D2A14332   8.849   8.886   8.347
  934POPC   C3A14333   9.176   8.699   8.127
  934POPC   C4A14334   9.323   8.820   7.743
  934POPC   C1B14335   8.929   9.290   8.688
  934POPC   C2B14336   9.144   9.439   8.284
  934POPC   C3B14337   8.993   9.201   7.949
  934POPC   C4B14338   8.782   8.816   7.844
  935POPC   NC314339  11.295  42.800   9.262
  935POPC   PO414340  11.670  42.264   9.241
  935POPC   GL114341  11.206  42.324   9.102
  935POPC   GL214342  11.088  41.999   9.064
  935POPC   C1A14343  11.066  42.525   8.704
  935POPC   D2A14344  11.351  42.493   8.332
  935POPC   C3A14345  11.230  42.257   7.980
  935POPC   C4A14346  11.022  42.538   7.743
  935POPC   C1B14347  11.356  42.076   8.677
  935POPC   C2B14348  11.663  42.072   8.327
  935POPC   C3B14349  11.709  42.138   7.894
  935POPC   C4B14350  11.469  42.234   7.509
  936POPC   NC314351  32.810  19.223   9.415
  936POPC   PO414352  33.321  18.743   9.527
  936POPC   GL114353  33.134  18.884   9.166
  936POPC   GL214354  33.470  18.910   9.029
  936POPC   C1A14355  33.073  19.183   8.818
  936POPC   D2A14356  33.185  19.320   8.435
  936POPC   C3A14357  32.996  19.213   8.055
  936POPC   C4A14358  33.038  19.194   7.635
  936POPC   C1B14359  33.308  18.603   8.744
  936POPC   C2B14360  33.022  18.692   8.398
  936POPC   C3B14361  33.076  18.729   7.938
  936POPC   C4B14362  33.038  18.701   7.500
  937POPC   NC314363  17.311  21.864   9.334
  937POPC   PO414364  17.789  22.277   9.579
  937POPC   GL114365  17.608  22.265   9.171
  937POPC   GL214366  17.805  22.030   9.124
  937POPC   C1A14367  17.477  21.993   8.748
  937POPC   D2A14368  17.221  22.079   8.446
  937POPC   C3A14369  17.427  21.891   8.120
  937POPC   C4A14370  17.440  22.096   7.787
  937POPC   C1B14371  17.859  22.315   8.741
  937POPC   C2B14372  17.658  22.312   8.344
  937POPC   C3B14373  17.704  22.482   7.982
  937POPC   C4B14374  17.948  22.233   7.732
  938POPC   NC314375   9.640  11.491   9.537
  938POPC   PO414376  10.068  10.968   9.507
  938POPC   GL114377   9.952  11.299   9.179
  938POPC   GL214378   9.595  11.356   9.068
  938POPC   C1A14379   9.972  11.413   8.745
  938POPC   D2A14380   9.698  11.370   8.409
  938POPC   C3A14381   9.941  11.226   8.072
  938POPC   C4A14382  10.240  11.243   7.724
  938POPC   C1B14383   9.491  11.691   8.769
  938POPC   C2B14384   9.282  11.699   8.356
  938POPC   C3B14385   9.350  11.433   7.998
  938POPC   C4B14386   9.691  11.401   7.667
  939POPC   NC314387   5.672  25.548   9.261
  939POPC   PO414388   6.219  25.833   9.586
  939POPC   GL114389   6.145  25.975   9.138
  939POPC   GL214390   5.998  25.723   8.902
  939POPC   C1A14391   6.024  26.202   8.733
  939POPC   D2A14392   5.976  26.058   8.305
  939POPC   C3A14393   5.895  26.271   7.924
  939POPC   C4A14394   5.504  26.278   7.697
  939POPC   C1B14395   5.596  25.823   8.677
  939POPC   C2B14396   5.416  25.676   8.309
  939POPC   C3B14397   5.619  25.839   7.969
  939POPC   C4B14398   5.569  25.807   7.518
  940POPC   NC314399  11.043  33.670   9.677
  940POPC   PO414400  11.692  33.720   9.782
  940POPC   GL114401  11.404  33.888   9.388
  940POPC   GL214402  11.344  33.585   9.196
  940POPC   C1A14403  11.391  33.966   8.883
  940POPC   D2A14404  11.382  34.203   8.452
  940POPC   C3A14405  11.108  34.141   8.071
  940POPC   C4A14406  11.299  34.042   7.655
  940POPC   C1B14407  11.236  33.387   8.809
  940POPC   C2B14408  11.093  33.402   8.396
  940POPC   C3B14409  11.264  33.350   8.028
  940POPC   C4B14410  11.045  33.667   7.833
  941POPC   NC314411   1.481  25.561   9.429
  941POPC   PO414412   1.187  24.927   9.459
  941POPC   GL114413   1.309  25.190   9.118
  941POPC   GL214414   1.098  25.491   9.071
  941POPC   C1A14415   1.469  25.369   8.732
  941POPC   D2A14416   1.281  25.471   8.338
  941POPC   C3A14417   1.422  25.168   8.062
  941POPC   C4A14418   1.630  25.473   7.814
  941POPC   C1B14419   0.943  25.281   8.733
  941POPC   C2B14420   0.966  25.061   8.363
  941POPC   C3B14421   0.890  25.247   8.009
  941POPC   C4B14422   1.127  25.362   7.686
  942POPC   NC314423  28.945   3.979   9.550
  942POPC   PO414424  28.812   4.651   9.511
  942POPC   GL114425  29.057   4.447   9.184
  942POPC   GL214426  29.076   4.066   9.082
  942POPC   C1A14427  28.918   4.463   8.791
  942POPC   D2A14428  28.875   4.141   8.469
  942POPC   C3A14429  28.950   4.234   8.044
  942POPC   C4A14430  28.792   4.458   7.670
  942POPC   C1B14431  29.311   4.143   8.726
  942POPC   C2B14432  29.491   4.165   8.325
  942POPC   C3B14433  29.400   4.033   7.923
  942POPC   C4B14434  29.211   4.202   7.567
  943POPC   NC314435  38.217   9.348   9.524
  943POPC   PO414436  38.810   9.274   9.688
  943POPC   GL114437  38.665   9.563   9.306
  943POPC   GL214438  38.734   9.375   9.047
  943POPC   C1A14439  38.530   9.817   8.867
  943POPC   D2A14440  38.342   9.781   8.392
  943POPC   C3A14441  38.344   9.990   7.937
  943POPC   C4A14442  38.718   9.948   7.691
  943POPC   C1B14443  38.543   9.356   8.625
  943POPC   C2B14444  38.689   9.405   8.217
  943POPC   C3B14445  38.738   9.455   7.776
  943POPC   C4B14446  38.840   9.170   7.456
  944POPC   NC314447   9.460   6.724   9.504
  944POPC   PO414448   8.825   6.459   9.430
  944POPC   GL114449   8.906   6.427   9.049
  944POPC   GL214450   8.583   6.219   9.038
  944POPC   C1A14451   9.023   6.717   8.725
  944POPC   D2A14452   8.872   6.847   8.329
  944POPC   C3A14453   9.038   6.669   7.967
  944POPC   C4A14454   8.991   6.843   7.540
  944POPC   C1B14455   8.541   6.473   8.680
  944POPC   C2B14456   8.364   6.631   8.314
  944POPC   C3B14457   8.551   6.747   7.919
  944POPC   C4B14458   8.740   6.417   7.663
  945POPC   NC314459  17.278  22.442   9.610
  945POPC   PO414460  17.562  22.955   9.798
  945POPC   GL114461  17.623  22.761   9.350
  945POPC   GL214462  17.325  22.719   9.162
  945POPC   C1A14463  17.699  22.887   8.870
  945POPC   D2A14464  17.675  23.162   8.482
  945POPC   C3A14465  17.720  23.003   8.025
  945POPC   C4A14466  17.536  22.964   7.565
  945POPC   C1B14467  17.393  22.519   8.729
  945POPC   C2B14468  17.411  22.736   8.338
  945POPC   C3B14469  17.257  22.774   7.951
  945POPC   C4B14470  17.109  22.486   7.690
  946POPC   NC314471  36.909  36.423   9.868
  946POPC   PO414472  37.248  36.046   9.425
  946POPC   GL114473  36.872  36.070   9.158
  946POPC   GL214474  37.096  36.241   8.983
  946POPC   C1A14475  36.679  36.221   8.729
  946POPC   D2A14476  36.659  36.235   8.281
  946POPC   C3A14477  36.876  36.222   7.912
  946POPC   C4A14478  36.768  36.157   7.478
  946POPC   C1B14479  37.182  35.812   8.811
  946POPC   C2B14480  37.065  35.911   8.421
  946POPC   C3B14481  37.102  35.782   8.047
  946POPC   C4B14482  37.204  35.926   7.663
  947POPC   NC314483  15.362  28.538   9.420
  947POPC   PO414484  15.118  28.125   9.922
  947POPC   GL114485  15.041  28.119   9.408
  947POPC   GL214486  14.871  28.404   9.225
  947POPC   C1A14487  15.141  28.118   8.909
  947POPC   D2A14488  15.423  28.191   8.543
  947POPC   C3A14489  15.331  28.121   8.099
  947POPC   C4A14490  15.672  28.101   7.789
  947POPC   C1B14491  15.085  28.635   8.833
  947POPC   C2B14492  15.391  28.706   8.489
  947POPC   C3B14493  15.262  28.636   8.081
  947POPC   C4B14494  15.311  28.456   7.690
  948POPC   NC314495  23.608  44.365   9.604
  948POPC   PO414496  24.173  44.744   9.647
  948POPC   GL114497  23.989  44.742   9.201
  948POPC   GL214498  23.947  44.404   9.226
  948POPC   C1A14499  23.766  44.929   8.797
  948POPC   D2A14500  23.539  44.864   8.365
  948POPC   C3A14501  23.701  44.977   7.949
  948POPC   C4A14502  23.681  44.863   7.516
  948POPC   C1B14503  23.622  44.457   8.908
  948POPC   C2B14504  23.614  44.337   8.469
  948POPC   C3B14505  23.619  44.463   8.027
  948POPC   C4B14506  23.950  44.482   7.760
  949POPC   NC314507  30.984   0.041   9.957
  949POPC   PO414508  30.603  44.649   9.605
  949POPC   GL114509  30.721  44.583   9.180
  949POPC   GL214510  30.425  44.770   9.128
  949POPC   C1A14511  30.782  44.735   8.786
  949POPC   D2A14512  30.913  44.929   8.445
  949POPC   C3A14513  30.943  44.597   8.188
  949POPC   C4A14514  30.869  44.701   7.786
  949POPC   C1B14515  30.277  44.834   8.754
  949POPC   C2B14516  30.442  44.661   8.410
  949POPC   C3B14517  30.436  44.752   8.021
  949POPC   C4B14518  30.192  44.912   7.727
  950POPC   NC314519  11.465   9.084   9.445
  950POPC   PO414520  10.948   8.618   9.385
  950POPC   GL114521  11.179   8.890   9.097
  950POPC   GL214522  11.157   9.279   9.088
  950POPC   C1A14523  11.370   9.007   8.723
  950POPC   D2A14524  11.330   8.824   8.332
  950POPC   C3A14525  11.517   8.946   7.970
  950POPC   C4A14526  11.301   9.093   7.635
  950POPC   C1B14527  10.968   9.366   8.681
  950POPC   C2B14528  11.053   9.244   8.252
  950POPC   C3B14529  10.879   9.329   7.838
  950POPC   C4B14530  10.793   9.449   7.398
  951POPC   NC314531  31.932  19.186   9.500
  951POPC   PO414532  32.508  18.834   9.407
  951POPC   GL114533  32.291  19.134   9.147
  951POPC   GL214534  32.520  19.351   9.014
  951POPC   C1A14535  32.124  19.146   8.708
  951POPC   D2A14536  32.140  18.890   8.306
  951POPC   C3A14537  32.119  19.053   7.861
  951POPC   C4A14538  32.158  18.826   7.454
  951POPC   C1B14539  32.613  18.974   8.785
  951POPC   C2B14540  32.649  19.118   8.420
  951POPC   C3B14541  32.612  18.867   8.101
  951POPC   C4B14542  32.613  18.903   7.690
  952POPC   NC314543   4.139  25.865   9.519
  952POPC   PO414544   4.708  26.277   9.474
  952POPC   GL114545   4.456  26.063   9.146
  952POPC   GL214546   4.152  26.232   9.171
  952POPC   C1A14547   4.440  25.732   8.797
  952POPC   D2A14548   4.259  25.687   8.352
  952POPC   C3A14549   4.394  26.005   8.042
  952POPC   C4A14550   4.646  26.007   7.648
  952POPC   C1B14551   3.908  26.444   8.837
  952POPC   C2B14552   3.906  26.333   8.411
  952POPC   C3B14553   3.982  26.476   8.011
  952POPC   C4B14554   4.013  26.395   7.558
  953POPC   NC314555  12.860  20.466   9.434
  953POPC   PO414556  13.049  20.984   9.155
  953POPC   GL114557  12.968  20.650   8.951
  953POPC   GL214558  12.624  20.704   9.014
  953POPC   C1A14559  12.945  20.751   8.525
  953POPC   D2A14560  12.596  20.901   8.259
  953POPC   C3A14561  12.730  20.783   7.848
  953POPC   C4A14562  13.084  20.511   7.806
  953POPC   C1B14563  12.555  20.445   8.647
  953POPC   C2B14564  12.758  20.385   8.230
  953POPC   C3B14565  12.646  20.240   7.846
  953POPC   C4B14566  12.686  20.309   7.445
  954POPC   NC314567   9.211   6.202   9.420
  954POPC   PO414568   8.782   5.631   9.527
  954POPC   GL114569   8.906   5.846   9.167
  954POPC   GL214570   9.235   5.725   9.196
  954POPC   C1A14571   8.943   6.047   8.731
  954POPC   D2A14572   8.905   6.319   8.351
  954POPC   C3A14573   8.993   6.086   7.967
  954POPC   C4A14574   9.357   5.919   7.781
  954POPC   C1B14575   9.058   5.553   8.787
  954POPC   C2B14576   8.882   5.644   8.419
  954POPC   C3B14577   9.137   5.540   8.095
  954POPC   C4B14578   8.987   5.578   7.721
  955POPC   NC314579  16.086  37.144   9.426
  955POPC   PO414580  16.143  37.779   9.450
  955POPC   GL114581  15.926  37.630   9.090
  955POPC   GL214582  15.697  37.335   9.117
  955POPC   C1A14583  16.084  37.492   8.689
  955POPC   D2A14584  16.397  37.564   8.344
  955POPC   C3A14585  16.235  37.425   7.975
  955POPC   C4A14586  15.931  37.688   7.853
  955POPC   C1B14587  15.572  37.486   8.694
  955POPC   C2B14588  15.400  37.510   8.274
  955POPC   C3B14589  15.486  37.491   7.794
  955POPC   C4B14590  15.794  37.480   7.391
  956POPC   NC314591  19.305  10.765   9.440
  956POPC   PO414592  19.185  11.316   9.751
  956POPC   GL114593  19.019  11.148   9.275
  956POPC   GL214594  19.307  11.065   9.046
  956POPC   C1A14595  18.883  11.300   8.833
  956POPC   D2A14596  18.641  11.300   8.442
  956POPC   C3A14597  18.754  11.135   8.051
  956POPC   C4A14598  18.878  11.064   7.636
  956POPC   C1B14599  19.373  11.256   8.676
  956POPC   C2B14600  19.177  11.283   8.316
  956POPC   C3B14601  19.276  11.076   7.951
  956POPC   C4B14602  19.341  11.251   7.541
  957POPC   NC314603  21.576  37.266   9.261
  957POPC   PO414604  21.255  36.796   9.670
  957POPC   GL114605  21.233  36.808   9.206
  957POPC   GL214606  21.577  36.806   9.040
  957POPC   C1A14607  21.203  36.623   8.785
  957POPC   D2A14608  21.456  36.617   8.427
  957POPC   C3A14609  21.266  36.760   8.087
  957POPC   C4A14610  21.322  36.634   7.692
  957POPC   C1B14611  21.445  37.077   8.663
  957POPC   C2B14612  21.635  37.130   8.253
  957POPC   C3B14613  21.574  37.090   7.817
  957POPC   C4B14614  21.776  36.864   7.492
  958POPC   NC314615  38.789  18.689   9.570
  958POPC   PO414616  38.319  19.244   9.433
  958POPC   GL114617  38.592  19.069   9.175
  958POPC   GL214618  38.556  18.770   9.145
  958POPC   C1A14619  38.756  19.083   8.776
  958POPC   D2A14620  38.546  19.059   8.400
  958POPC   C3A14621  38.750  19.071   8.022
  958POPC   C4A14622  38.541  19.051   7.654
  958POPC   C1B14623  38.403  18.681   8.768
  958POPC   C2B14624  38.266  18.613   8.389
  958POPC   C3B14625  38.296  18.764   8.007
  958POPC   C4B14626  38.433  18.557   7.656
  959POPC   NC314627  10.953  44.706   9.629
  959POPC   PO414628  11.555  44.435   9.764
  959POPC   GL114629  11.415  44.762   9.387
  959POPC   GL214630  11.159   0.082   9.360
  959POPC   C1A14631  11.476  44.830   8.925
  959POPC   D2A14632  11.512  44.491   8.600
  959POPC   C3A14633  11.393  44.553   8.185
  959POPC   C4A14634  11.391  44.621   7.742
  959POPC   C1B14635  11.048   0.087   8.919
  959POPC   C2B14636  11.065  44.791   8.568
  959POPC   C3B14637  10.930  44.746   8.141
  959POPC   C4B14638  11.148   0.037   7.905
  960POPC   NC314639  14.114   1.355   9.429
  960POPC   PO414640  14.722   1.012   9.380
  960POPC   GL114641  14.358   1.025   9.124
  960POPC   GL214642  14.484   1.387   9.093
  960POPC   C1A14643  14.179   1.195   8.735
  960POPC   D2A14644  14.373   1.410   8.373
  960POPC   C3A14645  14.229   1.346   7.967
  960POPC   C4A14646  14.175   0.949   7.803
  960POPC   C1B14647  14.705   1.225   8.763
  960POPC   C2B14648  14.913   1.304   8.410
  960POPC   C3B14649  14.747   1.376   8.028
  960POPC   C4B14650  14.919   1.195   7.680
  961POPC   NC314651   7.480  38.187   9.366
  961POPC   PO414652   7.466  38.736   9.514
  961POPC   GL114653   7.389  38.627   9.094
  961POPC   GL214654   7.126  38.441   9.074
  961POPC   C1A14655   7.404  38.475   8.654
  961POPC   D2A14656   7.370  38.579   8.234
  961POPC   C3A14657   7.435  38.241   7.948
  961POPC   C4A14658   7.586  38.362   7.492
  961POPC   C1B14659   7.061  38.107   8.779
  961POPC   C2B14660   7.010  38.196   8.363
  961POPC   C3B14661   6.914  38.509   8.067
  961POPC   C4B14662   7.116  38.550   7.700
  962POPC   NC314663  29.267  22.471   9.510
  962POPC   PO414664  28.896  21.897   9.405
  962POPC   GL114665  29.159  22.140   9.127
  962POPC   GL214666  29.041  22.475   9.070
  962POPC   C1A14667  29.326  22.215   8.725
  962POPC   D2A14668  29.200  22.039   8.323
  962POPC   C3A14669  29.401  21.879   7.963
  962POPC   C4A14670  29.484  21.875   7.507
  962POPC   C1B14671  28.952  22.678   8.728
  962POPC   C2B14672  28.951  22.470   8.358
  962POPC   C3B14673  29.191  22.460   7.969
  962POPC   C4B14674  29.172  22.586   7.523
  963POPC   NC314675  19.487  13.440   9.403
  963POPC   PO414676  20.134  13.706   9.492
  963POPC   GL114677  20.087  13.820   9.090
  963POPC   GL214678  19.741  13.766   9.111
  963POPC   C1A14679  19.993  13.798   8.675
  963POPC   D2A14680  20.144  13.626   8.359
  963POPC   C3A14681  20.048  13.869   8.029
  963POPC   C4A14682  19.902  13.775   7.675
  963POPC   C1B14683  19.662  13.398   8.790
  963POPC   C2B14684  19.462  13.426   8.427
  963POPC   C3B14685  19.627  13.487   8.061
  963POPC   C4B14686  19.641  13.335   7.699
  964POPC   NC314687  15.626  43.185   9.407
  964POPC   PO414688  16.199  42.764   9.469
  964POPC   GL114689  15.992  42.922   9.075
  964POPC   GL214690  15.741  43.150   8.917
  964POPC   C1A14691  16.022  42.818   8.604
  964POPC   D2A14692  16.258  42.947   8.199
  964POPC   C3A14693  15.979  42.927   7.832
  964POPC   C4A14694  15.613  42.920   7.575
  964POPC   C1B14695  16.179  43.307   8.786
  964POPC   C2B14696  16.402  43.423   8.388
  964POPC   C3B14697  16.233  43.425   7.957
  964POPC   C4B14698  16.419  43.119   7.701
  965POPC   NC314699   5.992   1.751   9.662
  965POPC   PO414700   5.346   1.894   9.593
  965POPC   GL114701   5.654   1.787   9.187
  965POPC   GL214702   6.050   1.711   9.166
  965POPC   C1A14703   5.826   1.945   8.752
  965POPC   D2A14704   5.962   2.312   8.469
  965POPC   C3A14705   5.935   2.240   8.024
  965POPC   C4A14706   5.959   1.986   7.640
  965POPC   C1B14707   6.305   1.695   8.797
  965POPC   C2B14708   6.292   1.932   8.421
  965POPC   C3B14709   6.377   1.993   7.996
  965POPC   C4B14710   6.319   1.647   7.783
  966POPC   NC314711  20.956  20.226   9.296
  966POPC   PO414712  20.940  20.783   9.696
  966POPC   GL114713  20.564  20.551   9.329
  966POPC   GL214714  20.310  20.761   9.160
  966POPC   C1A14715  20.463  20.363   8.847
  966POPC   D2A14716  20.350  20.526   8.367
  966POPC   C3A14717  20.560  20.390   7.918
  966POPC   C4A14718  20.747  20.344   7.459
  966POPC   C1B14719  20.482  20.866   8.758
  966POPC   C2B14720  20.733  20.844   8.405
  966POPC   C3B14721  20.522  20.887   8.020
  966POPC   C4B14722  20.567  20.832   7.604
  967POPC   NC314723  36.482   1.670   9.478
  967POPC   PO414724  36.119   1.136   9.433
  967POPC   GL114725  36.077   1.274   9.059
  967POPC   GL214726  36.358   1.459   9.046
  967POPC   C1A14727  36.142   1.186   8.642
  967POPC   D2A14728  35.966   1.327   8.284
  967POPC   C3A14729  36.144   1.203   7.892
  967POPC   C4A14730  36.343   0.999   7.531
  967POPC   C1B14731  36.550   1.498   8.663
  967POPC   C2B14732  36.469   1.410   8.257
  967POPC   C3B14733  36.574   1.487   7.855
  967POPC   C4B14734  36.524   1.428   7.378
  968POPC   NC314735  30.135  44.718   9.537
  968POPC   PO414736  29.507   0.082   9.453
  968POPC   GL114737  29.807  44.888   9.158
  968POPC   GL214738  29.960  44.537   9.083
  968POPC   C1A14739  29.779  44.879   8.718
  968POPC   D2A14740  29.999  44.893   8.309
  968POPC   C3A14741  29.723  44.873   7.948
  968POPC   C4A14742  29.686  44.842   7.496
  968POPC   C1B14743  29.948  44.404   8.644
  968POPC   C2B14744  29.828  44.413   8.219
  968POPC   C3B14745  30.078  44.414   7.860
  968POPC   C4B14746  30.076  44.524   7.418
  969POPC   NC314747  23.461   4.917   9.676
  969POPC   PO414748  24.042   5.227   9.411
  969POPC   GL114749  23.847   5.067   9.082
  969POPC   GL214750  23.514   5.167   8.994
  969POPC   C1A14751  23.896   5.165   8.657
  969POPC   D2A14752  24.074   5.321   8.315
  969POPC   C3A14753  23.997   5.029   7.945
  969POPC   C4A14754  23.527   5.098   7.836
  969POPC   C1B14755  23.469   4.902   8.598
  969POPC   C2B14756  23.197   5.023   8.262
  969POPC   C3B14757  23.054   4.824   7.921
  969POPC   C4B14758  23.324   4.703   7.613
  970POPC   NC314759  34.781  11.582   9.519
  970POPC   PO414760  34.261  11.166   9.392
  970POPC   GL114761  34.698  11.182   9.202
  970POPC   GL214762  34.915  10.939   9.044
  970POPC   C1A14763  34.811  11.416   8.824
  970POPC   D2A14764  34.453  11.637   8.561
  970POPC   C3A14765  34.432  11.674   8.067
  970POPC   C4A14766  34.324  11.516   7.601
  970POPC   C1B14767  34.585  10.998   8.713
  970POPC   C2B14768  34.669  11.257   8.329
  970POPC   C3B14769  34.545  11.188   7.924
  970POPC   C4B14770  34.210  10.962   7.699
  971POPC   NC314771  35.330  10.937   9.523
  971POPC   PO414772  35.579  10.320   9.688
  971POPC   GL114773  35.519  10.449   9.214
  971POPC   GL214774  35.669  10.761   9.160
  971POPC   C1A14775  35.263  10.345   8.798
  971POPC   D2A14776  35.413  10.311   8.353
  971POPC   C3A14777  35.255  10.133   8.021
  971POPC   C4A14778  35.047  10.473   7.882
  971POPC   C1B14779  35.695  10.598   8.741
  971POPC   C2B14780  35.541  10.795   8.366
  971POPC   C3B14781  35.452  10.941   7.974
  971POPC   C4B14782  35.476  11.135   7.595
  972POPC   NC314783  38.657  37.073   9.506
  972POPC   PO414784  38.232  36.544   9.485
  972POPC   GL114785  38.339  36.828   9.120
  972POPC   GL214786  38.569  37.058   9.028
  972POPC   C1A14787  38.227  36.940   8.690
  972POPC   D2A14788  38.293  36.728   8.323
  972POPC   C3A14789  38.367  36.895   7.931
  972POPC   C4A14790  38.613  36.568   7.745
  972POPC   C1B14791  38.720  36.850   8.684
  972POPC   C2B14792  38.750  37.011   8.301
  972POPC   C3B14793  38.890  36.969   7.905
  972POPC   C4B14794  38.814  36.993   7.466
  973POPC   NC314795  31.979  27.928   9.418
  973POPC   PO414796  32.204  28.483   9.830
  973POPC   GL114797  32.371  28.227   9.411
  973POPC   GL214798  32.099  28.356   9.165
  973POPC   C1A14799  32.523  28.205   8.925
  973POPC   D2A14800  32.452  28.139   8.447
  973POPC   C3A14801  32.327  28.267   8.016
  973POPC   C4A14802  32.386  28.111   7.597
  973POPC   C1B14803  32.106  28.427   8.711
  973POPC   C2B14804  31.873  28.382   8.331
  973POPC   C3B14805  31.958  28.638   8.007
  973POPC   C4B14806  32.074  28.520   7.616
  974POPC   NC314807   0.213   7.115   9.554
  974POPC   PO414808   0.663   6.512   9.542
  974POPC   GL114809   0.638   6.652   9.143
  974POPC   GL214810   0.355   6.779   9.223
  974POPC   C1A14811   0.636   6.832   8.736
  974POPC   D2A14812   0.566   6.615   8.353
  974POPC   C3A14813   0.620   6.789   7.947
  974POPC   C4A14814   0.536   6.568   7.562
  974POPC   C1B14815   0.209   6.531   8.912
  974POPC   C2B14816   0.074   6.566   8.528
  974POPC   C3B14817  44.911   6.705   8.174
  974POPC   C4B14818   0.131   6.728   7.825
  975POPC   NC314819   9.596   1.262   9.260
  975POPC   PO414820  10.111   1.008   9.673
  975POPC   GL114821  10.048   1.035   9.246
  975POPC   GL214822  10.096   1.384   9.216
  975POPC   C1A14823  10.010   1.078   8.779
  975POPC   D2A14824   9.642   0.990   8.503
  975POPC   C3A14825   9.663   1.211   8.126
  975POPC   C4A14826   9.522   1.112   7.726
  975POPC   C1B14827  10.072   1.592   8.815
  975POPC   C2B14828  10.112   1.405   8.401
  975POPC   C3B14829  10.144   1.000   8.195
  975POPC   C4B14830  10.033   1.075   7.765
  976POPC   NC314831   6.690   2.375   9.311
  976POPC   PO414832   6.388   2.947   9.415
  976POPC   GL114833   6.539   2.809   9.058
  976POPC   GL214834   6.868   2.784   9.084
  976POPC   C1A14835   6.378   2.610   8.698
  976POPC   D2A14836   6.199   2.755   8.325
  976POPC   C3A14837   6.387   2.518   8.016
  976POPC   C4A14838   6.625   2.718   7.715
  976POPC   C1B14839   6.896   2.526   8.714
  976POPC   C2B14840   6.758   2.752   8.349
  976POPC   C3B14841   6.934   2.963   8.014
  976POPC   C4B14842   7.143   2.798   7.675
  977POPC   NC314843  29.072   7.001   9.782
  977POPC   PO414844  28.707   7.451   9.458
  977POPC   GL114845  28.424   7.428   9.141
  977POPC   GL214846  28.249   7.717   9.258
  977POPC   C1A14847  28.389   7.221   8.739
  977POPC   D2A14848  28.545   7.057   8.333
  977POPC   C3A14849  28.612   7.330   7.955
  977POPC   C4A14850  28.349   7.660   7.780
  977POPC   C1B14851  28.341   7.780   8.799
  977POPC   C2B14852  28.404   7.607   8.366
  977POPC   C3B14853  28.127   7.334   8.129
  977POPC   C4B14854  28.018   7.246   7.726
  978POPC   NC314855  16.508  22.223   9.466
  978POPC   PO414856  17.109  22.270   9.228
  978POPC   GL114857  16.821  21.985   9.131
  978POPC   GL214858  16.604  22.230   8.950
  978POPC   C1A14859  16.885  21.815   8.763
  978POPC   D2A14860  16.718  22.036   8.442
  978POPC   C3A14861  16.895  21.939   8.062
  978POPC   C4A14862  16.773  22.134   7.702
  978POPC   C1B14863  16.882  22.475   8.651
  978POPC   C2B14864  16.919  22.465   8.197
  978POPC   C3B14865  16.559  22.537   7.917
  978POPC   C4B14866  16.443  22.637   7.484
  979POPC   NC314867  28.128  38.503   9.426
  979POPC   PO414868  28.588  38.041   9.456
  979POPC   GL114869  28.367  38.174   9.102
  979POPC   GL214870  28.408  38.515   8.996
  979POPC   C1A14871  28.387  38.113   8.667
  979POPC   D2A14872  28.319  38.214   8.241
  979POPC   C3A14873  28.685  38.463   8.091
  979POPC   C4A14874  28.711  38.537   7.652
  979POPC   C1B14875  28.062  38.719   8.802
  979POPC   C2B14876  27.956  38.717   8.393
  979POPC   C3B14877  27.880  38.748   7.977
  979POPC   C4B14878  28.119  38.592   7.645
  980POPC   NC314879  11.339  24.870   9.324
  980POPC   PO414880  11.302  25.550   9.423
  980POPC   GL114881  11.319  25.415   9.015
  980POPC   GL214882  11.272  25.087   8.882
  980POPC   C1A14883  11.272  25.576   8.598
  980POPC   D2A14884  11.493  25.355   8.257
  980POPC   C3A14885  11.430  25.509   7.840
  980POPC   C4A14886  11.280  25.304   7.491
  980POPC   C1B14887  11.099  25.056   8.465
  980POPC   C2B14888  11.072  24.769   8.135
  980POPC   C3B14889  11.219  24.883   7.749
  980POPC   C4B14890  11.077  24.895   7.294
  981POPC   NC314891  43.914  18.520   9.485
  981POPC   PO414892  43.606  19.168   9.461
  981POPC   GL114893  43.824  19.103   9.097
  981POPC   GL214894  43.812  18.764   9.031
  981POPC   C1A14895  43.836  19.204   8.678
  981POPC   D2A14896  44.050  19.316   8.357
  981POPC   C3A14897  43.805  19.279   8.019
  981POPC   C4A14898  43.889  19.293   7.618
  981POPC   C1B14899  44.079  18.766   8.655
  981POPC   C2B14900  43.961  18.826   8.223
  981POPC   C3B14901  43.939  18.787   7.773
  981POPC   C4B14902  44.174  18.799   7.381
  982POPC   NC314903  16.960  16.341   9.582
  982POPC   PO414904  16.655  15.757   9.755
  982POPC   GL114905  16.687  15.813   9.294
  982POPC   GL214906  16.471  15.619   9.117
  982POPC   C1A14907  16.848  15.909   8.846
  982POPC   D2A14908  16.752  16.093   8.433
  982POPC   C3A14909  16.941  15.947   8.018
  982POPC   C4A14910  16.884  15.849   7.552
  982POPC   C1B14911  16.596  15.476   8.719
  982POPC   C2B14912  16.795  15.539   8.323
  982POPC   C3B14913  16.654  15.545   7.884
  982POPC   C4B14914  16.402  15.681   7.487
  983POPC   NC314915   6.610  23.911   9.477
  983POPC   PO414916   6.930  23.358   9.235
  983POPC   GL114917   6.587  23.596   9.073
  983POPC   GL214918   6.837  23.899   9.027
  983POPC   C1A14919   6.389  23.928   8.813
  983POPC   D2A14920   6.624  24.074   8.448
  983POPC   C3A14921   6.427  23.956   8.059
  983POPC   C4A14922   6.477  23.854   7.639
  983POPC   C1B14923   6.949  23.689   8.649
  983POPC   C2B14924   6.900  23.665   8.209
  983POPC   C3B14925   6.605  23.465   7.946
  983POPC   C4B14926   6.737  23.439   7.538
  984POPC   NC314927   3.483  26.516   9.577
  984POPC   PO414928   3.300  27.079   9.660
  984POPC   GL114929   3.545  26.917   9.265
  984POPC   GL214930   3.876  26.701   9.281
  984POPC   C1A14931   3.440  26.699   8.859
  984POPC   D2A14932   3.314  26.893   8.452
  984POPC   C3A14933   3.312  26.696   8.050
  984POPC   C4A14934   3.415  26.821   7.653
  984POPC   C1B14935   3.893  26.950   8.886
  984POPC   C2B14936   3.832  26.836   8.474
  984POPC   C3B14937   3.743  26.962   8.076
  984POPC   C4B14938   3.911  26.862   7.686
  985POPC   NC314939  36.094  42.007   9.593
  985POPC   PO414940  36.066  41.408   9.389
  985POPC   GL114941  36.136  41.758   9.148
  985POPC   GL214942  36.427  41.953   9.207
  985POPC   C1A14943  35.990  41.885   8.740
  985POPC   D2A14944  36.017  41.550   8.419
  985POPC   C3A14945  35.816  41.590   8.013
  985POPC   C4A14946  36.066  41.589   7.603
  985POPC   C1B14947  36.499  41.828   8.807
  985POPC   C2B14948  36.411  41.888   8.393
  985POPC   C3B14949  36.366  41.672   8.027
  985POPC   C4B14950  36.602  41.894   7.786
  986POPC   NC314951  22.616  39.815   9.551
  986POPC   PO414952  21.964  40.033   9.527
  986POPC   GL114953  21.932  39.990   9.097
  986POPC   GL214954  22.236  40.140   9.047
  986POPC   C1A14955  22.066  39.770   8.699
  986POPC   D2A14956  21.984  39.790   8.250
  986POPC   C3A14957  22.067  39.949   7.824
  986POPC   C4A14958  22.086  39.749   7.412
  986POPC   C1B14959  22.043  40.298   8.674
  986POPC   C2B14960  22.080  40.444   8.250
  986POPC   C3B14961  21.995  40.463   7.823
  986POPC   C4B14962  22.094  40.288   7.413
  987POPC   NC314963   2.592  15.497   9.501
  987POPC   PO414964   3.060  14.978   9.470
  987POPC   GL114965   2.950  15.242   9.139
  987POPC   GL214966   2.584  15.245   9.064
  987POPC   C1A14967   2.961  15.069   8.720
  987POPC   D2A14968   2.730  15.004   8.343
  987POPC   C3A14969   2.848  15.140   7.940
  987POPC   C4A14970   2.846  14.949   7.547
  987POPC   C1B14971   2.619  15.451   8.657
  987POPC   C2B14972   2.582  15.490   8.221
  987POPC   C3B14973   2.424  15.530   7.846
  987POPC   C4B14974   2.586  15.444   7.442
  988POPC   NC314975   5.462  24.860   9.487
  988POPC   PO414976   4.856  24.570   9.526
  988POPC   GL114977   4.899  24.471   9.152
  988POPC   GL214978   5.246  24.523   9.114
  988POPC   C1A14979   4.875  24.346   8.772
  988POPC   D2A14980   5.049  24.431   8.407
  988POPC   C3A14981   4.913  24.279   8.031
  988POPC   C4A14982   5.020  24.510   7.689
  988POPC   C1B14983   5.403  24.278   8.769
  988POPC   C2B14984   5.536  24.308   8.327
  988POPC   C3B14985   5.418  24.222   7.917
  988POPC   C4B14986   5.685  24.098   7.598
  989POPC   NC314987  35.614  19.917   9.248
  989POPC   PO414988  36.196  19.715   9.533
  989POPC   GL114989  36.141  19.885   9.156
  989POPC   GL214990  35.977  19.578   9.064
  989POPC   C1A14991  36.098  19.913   8.713
  989POPC   D2A14992  36.229  19.863   8.314
  989POPC   C3A14993  35.995  20.153   8.078
  989POPC   C4A14994  35.910  20.094   7.679
  989POPC   C1B14995  35.736  19.523   8.720
  989POPC   C2B14996  35.720  19.732   8.352
  989POPC   C3B14997  35.886  19.639   7.977
  989POPC   C4B14998  35.589  19.665   7.718
  990POPC   NC314999  14.489   6.259   9.335
  990POPC   PO415000  14.045   6.854   9.517
  990POPC   GL115001  14.210   6.650   9.162
  990POPC   GL215002  13.992   6.359   9.083
  990POPC   C1A15003  14.465   6.816   8.788
  990POPC   D2A15004  14.489   7.015   8.373
  990POPC   C3A15005  14.412   6.801   7.976
  990POPC   C4A15006  14.188   7.047   7.673
  990POPC   C1B15007  14.202   6.366   8.729
  990POPC   C2B15008  14.448   6.463   8.392
  990POPC   C3B15009  14.129   6.391   8.095
  990POPC   C4B15010  14.016   6.525   7.726
  991POPC   NC315011  14.566  26.432   9.432
  991POPC   PO415012  14.198  26.906   9.742
  991POPC   GL115013  14.235  26.799   9.278
  991POPC   GL215014  13.957  26.668   9.112
  991POPC   C1A15015  14.354  26.819   8.827
  991POPC   D2A15016  14.322  27.101   8.484
  991POPC   C3A15017  14.477  26.901   8.150
  991POPC   C4A15018  14.188  26.830   7.837
  991POPC   C1B15019  13.855  26.886   8.775
  991POPC   C2B15020  14.001  26.697   8.416
  991POPC   C3B15021  14.242  26.424   8.153
  991POPC   C4B15022  14.197  26.295   7.724
  992POPC   NC315023  40.133   9.773   9.549
  992POPC   PO415024  39.599   9.435   9.865
  992POPC   GL115025  39.665   9.673   9.373
  992POPC   GL215026  39.978   9.561   9.120
  992POPC   C1A15027  39.761   9.996   8.981
  992POPC   D2A15028  39.837   9.847   8.531
  992POPC   C3A15029  39.675   9.932   8.095
  992POPC   C4A15030  39.783   9.826   7.678
  992POPC   C1B15031  40.267   9.654   8.733
  992POPC   C2B15032  40.361   9.566   8.270
  992POPC   C3B15033  40.090   9.469   7.874
  992POPC   C4B15034  40.087   9.504   7.402
  993POPC   NC315035  42.074   8.577   9.575
  993POPC   PO415036  42.714   8.878   9.532
  993POPC   GL115037  42.465   8.767   9.142
  993POPC   GL215038  42.117   8.703   9.081
  993POPC   C1A15039  42.302   9.028   8.741
  993POPC   D2A15040  42.169   9.262   8.412
  993POPC   C3A15041  42.318   9.128   8.029
  993POPC   C4A15042  42.108   9.356   7.715
  993POPC   C1B15043  42.357   8.539   8.709
  993POPC   C2B15044  42.462   8.675   8.299
  993POPC   C3B15045  42.273   8.566   7.915
  993POPC   C4B15046  41.911   8.707   7.661
  994POPC   NC315047  21.557  32.382   9.556
  994POPC   PO415048  20.945  32.283   9.295
  994POPC   GL115049  21.290  32.038   9.133
  994POPC   GL215050  21.635  32.135   9.115
  994POPC   C1A15051  21.362  31.859   8.732
  994POPC   D2A15052  21.438  32.086   8.375
  994POPC   C3A15053  21.167  32.104   8.022
  994POPC   C4A15054  21.517  32.214   7.816
  994POPC   C1B15055  21.663  32.386   8.735
  994POPC   C2B15056  21.457  32.613   8.384
  994POPC   C3B15057  21.334  32.669   7.936
  994POPC   C4B15058  21.300  32.590   7.505
  995POPC   NC315059  31.039  30.953   9.397
  995POPC   PO415060  30.622  30.427   9.524
  995POPC   GL115061  30.682  30.664   9.138
  995POPC   GL215062  30.553  30.976   9.212
  995POPC   C1A15063  30.690  30.578   8.680
  995POPC   D2A15064  30.752  30.446   8.225
  995POPC   C3A15065  30.711  30.565   7.765
  995POPC   C4A15066  30.535  30.556   7.308
  995POPC   C1B15067  30.667  31.079   8.821
  995POPC   C2B15068  30.563  30.991   8.418
  995POPC   C3B15069  30.450  31.143   8.060
  995POPC   C4B15070  30.757  31.055   7.814
  996POPC   NC315071  10.137   3.448   9.862
  996POPC   PO415072   9.644   3.743   9.447
  996POPC   GL115073   9.787   3.523   9.094
  996POPC   GL215074   9.958   3.737   8.881
  996POPC   C1A15075   9.587   3.407   8.731
  996POPC   D2A15076   9.506   3.632   8.365
  996POPC   C3A15077   9.755   3.459   8.071
  996POPC   C4A15078   9.706   3.586   7.674
  996POPC   C1B15079  10.218   3.460   8.674
  996POPC   C2B15080  10.190   3.713   8.337
  996POPC   C3B15081  10.077   3.836   7.964
  996POPC   C4B15082  10.217   3.664   7.620
  997POPC   NC315083  41.020  21.786   9.430
  997POPC   PO415084  40.771  21.072   9.381
  997POPC   GL115085  40.699  21.233   8.952
  997POPC   GL215086  40.734  21.627   8.990
  997POPC   C1A15087  40.526  21.407   8.581
  997POPC   D2A15088  40.489  21.602   8.192
  997POPC   C3A15089  40.670  21.568   7.776
  997POPC   C4A15090  40.650  21.317   7.391
  997POPC   C1B15091  41.020  21.552   8.643
  997POPC   C2B15092  41.013  21.524   8.172
  997POPC   C3B15093  41.199  21.728   7.813
  997POPC   C4B15094  41.059  21.722   7.403
  998POPC   NC315095  22.029   4.263   9.326
  998POPC   PO415096  22.432   4.674   9.512
  998POPC   GL115097  22.435   4.459   9.107
  998POPC   GL215098  22.552   4.149   9.226
  998POPC   C1A15099  22.210   4.224   8.730
  998POPC   D2A15100  21.993   4.380   8.373
  998POPC   C3A15101  21.962   4.197   7.956
  998POPC   C4A15102  22.336   4.327   7.727
  998POPC   C1B15103  22.681   4.033   8.824
  998POPC   C2B15104  22.616   3.845   8.430
  998POPC   C3B15105  22.369   3.883   8.085
  998POPC   C4B15106  22.549   3.872   7.697
  999POPC   NC315107  43.521  39.284   9.438
  999POPC   PO415108  43.056  38.841   9.184
  999POPC   GL115109  43.089  39.261   9.067
  999POPC   GL215110  43.171  39.572   9.216
  999POPC   C1A15111  42.945  39.296   8.650
  999POPC   D2A15112  43.171  38.986   8.383
  999POPC   C3A15113  43.212  39.142   7.983
  999POPC   C4A15114  42.820  39.136   7.835
  999POPC   C1B15115  43.257  39.668   8.796
  999POPC   C2B15116  43.342  39.511   8.389
  999POPC   C3B15117  43.209  39.676   8.019
  999POPC   C4B15118  43.037  39.552   7.660
 1000POPC   NC315119  36.724   2.560   9.360
 1000POPC   PO415120  36.042   2.825   9.556
 1000POPC   GL115121  35.988   2.742   9.133
 1000POPC   GL215122  36.263   2.496   9.147
 1000POPC   C1A15123  35.810   2.704   8.708
 1000POPC   D2A15124  35.626   2.416   8.398
 1000POPC   C3A15125  35.768   2.607   8.016
 1000POPC   C4A15126  35.752   3.024   7.838
 1000POPC   C1B15127  36.368   2.680   8.774
 1000POPC   C2B15128  36.439   2.898   8.405
 1000POPC   C3B15129  36.237   2.855   8.030
 1000POPC   C4B15130  36.370   2.611   7.732
 1001POPC   NC315131  34.391   4.422   9.443
 1001POPC   PO415132  34.475   5.086   9.534
 1001POPC   GL115133  34.469   5.233   9.117
 1001POPC   GL215134  34.632   4.965   9.026
 1001POPC   C1A15135  34.345   5.165   8.662
 1001POPC   D2A15136  34.451   4.978   8.254
 1001POPC   C3A15137  34.323   5.148   7.876
 1001POPC   C4A15138  34.700   5.243   7.685
 1001POPC   C1B15139  34.740   4.823   8.637
 1001POPC   C2B15140  34.990   4.817   8.330
 1001POPC   C3B15141  34.875   4.840   7.935
 1001POPC   C4B15142  34.538   4.711   7.754
 1002POPC   NC315143   5.635  35.119   9.517
 1002POPC   PO415144   6.099  35.577   9.458
 1002POPC   GL115145   5.889  35.380   9.127
 1002POPC   GL215146   5.915  35.010   9.089
 1002POPC   C1A15147   6.007  35.444   8.718
 1002POPC   D2A15148   6.313  35.503   8.410
 1002POPC   C3A15149   6.048  35.432   8.054
 1002POPC   C4A15150   5.998  35.488   7.603
 1002POPC   C1B15151   5.706  34.969   8.711
 1002POPC   C2B15152   5.713  35.221   8.361
 1002POPC   C3B15153   5.599  35.282   7.935
 1002POPC   C4B15154   5.567  34.960   7.660
 1003POPC   NC315155  18.843  34.670   9.580
 1003POPC   PO415156  19.437  34.625   9.323
 1003POPC   GL115157  19.060  34.570   9.094
 1003POPC   GL215158  18.797  34.303   9.206
 1003POPC   C1A15159  19.209  34.628   8.663
 1003POPC   D2A15160  19.438  34.841   8.320
 1003POPC   C3A15161  19.404  34.584   7.964
 1003POPC   C4A15162  19.234  34.643   7.551
 1003POPC   C1B15163  18.775  34.330   8.738
 1003POPC   C2B15164  19.022  34.298   8.338
 1003POPC   C3B15165  18.922  34.434   7.928
 1003POPC   C4B15166  18.618  34.371   7.659
 1004POPC   NC315167  42.746  32.448   9.507
 1004POPC   PO415168  42.224  32.066   9.417
 1004POPC   GL115169  42.486  32.238   9.130
 1004POPC   GL215170  42.731  31.944   9.167
 1004POPC   C1A15171  42.363  32.444   8.763
 1004POPC   D2A15172  42.309  32.136   8.447
 1004POPC   C3A15173  42.323  32.300   8.064
 1004POPC   C4A15174  42.321  32.467   7.652
 1004POPC   C1B15175  42.747  32.102   8.708
 1004POPC   C2B15176  42.826  32.069   8.278
 1004POPC   C3B15177  42.713  32.013   7.889
 1004POPC   C4B15178  42.286  31.915   7.745
 1005POPC   NC315179  17.993  36.141   9.530
 1005POPC   PO415180  17.343  36.219   9.489
 1005POPC   GL115181  17.474  36.031   9.097
 1005POPC   GL215182  17.784  35.870   9.146
 1005POPC   C1A15183  17.450  36.133   8.655
 1005POPC   D2A15184  17.176  36.259   8.339
 1005POPC   C3A15185  17.411  36.152   8.026
 1005POPC   C4A15186  17.662  36.489   7.866
 1005POPC   C1B15187  17.903  35.895   8.723
 1005POPC   C2B15188  17.767  35.883   8.280
 1005POPC   C3B15189  17.942  35.975   7.849
 1005POPC   C4B15190  17.904  35.813   7.415
 1006POPC   NC315191  34.379  20.202   9.386
 1006POPC   PO415192  34.693  20.775   9.523
 1006POPC   GL115193  34.512  20.645   9.139
 1006POPC   GL215194  34.159  20.771   9.142
 1006POPC   C1A15195  34.680  20.415   8.770
 1006POPC   D2A15196  34.879  20.364   8.354
 1006POPC   C3A15197  34.780  20.590   7.956
 1006POPC   C4A15198  34.724  21.010   7.757
 1006POPC   C1B15199  34.182  20.509   8.763
 1006POPC   C2B15200  34.399  20.589   8.376
 1006POPC   C3B15201  34.307  20.431   8.003
 1006POPC   C4B15202  34.318  20.647   7.657
 1007POPC   NC315203  17.034  23.072   9.579
 1007POPC   PO415204  16.817  22.488   9.682
 1007POPC   GL115205  16.704  22.659   9.244
 1007POPC   GL215206  16.873  22.951   9.104
 1007POPC   C1A15207  16.477  22.773   8.824
 1007POPC   D2A15208  16.390  22.853   8.357
 1007POPC   C3A15209  16.775  22.977   8.116
 1007POPC   C4A15210  16.835  22.903   7.666
 1007POPC   C1B15211  17.128  22.949   8.687
 1007POPC   C2B15212  17.208  23.211   8.264
 1007POPC   C3B15213  17.187  23.258   7.783
 1007POPC   C4B15214  16.986  23.240   7.327
 1008POPC   NC315215   0.659  20.299   9.460
 1008POPC   PO415216   0.350  19.703   9.466
 1008POPC   GL115217   0.390  19.982   9.108
 1008POPC   GL215218   0.068  19.931   9.000
 1008POPC   C1A15219   0.419  19.970   8.642
 1008POPC   D2A15220   0.617  19.754   8.316
 1008POPC   C3A15221   0.653  19.986   7.935
 1008POPC   C4A15222   0.553  20.210   7.549
 1008POPC   C1B15223   0.172  19.550   8.750
 1008POPC   C2B15224   0.083  19.697   8.313
 1008POPC   C3B15225   0.281  19.611   7.925
 1008POPC   C4B15226   0.091  19.504   7.528
 1009POPC   NC315227  27.273  19.082   9.577
 1009POPC   PO415228  26.624  19.175   9.529
 1009POPC   GL115229  26.870  18.878   9.272
 1009POPC   GL215230  26.581  18.820   9.095
 1009POPC   C1A15231  26.989  18.745   8.820
 1009POPC   D2A15232  26.849  18.915   8.408
 1009POPC   C3A15233  26.996  18.818   7.992
 1009POPC   C4A15234  26.893  19.119   7.687
 1009POPC   C1B15235  26.487  18.657   8.700
 1009POPC   C2B15236  26.324  18.853   8.401
 1009POPC   C3B15237  26.462  19.101   8.104
 1009POPC   C4B15238  26.510  18.809   7.798
 1010POPC   NC315239  42.313  12.974   9.468
 1010POPC   PO415240  42.125  12.257   9.399
 1010POPC   GL115241  42.390  12.555   9.144
 1010POPC   GL215242  42.274  12.866   8.985
 1010POPC   C1A15243  42.597  12.586   8.745
 1010POPC   D2A15244  42.508  12.771   8.365
 1010POPC   C3A15245  42.156  12.655   8.126
 1010POPC   C4A15246  42.301  12.867   7.786
 1010POPC   C1B15247  42.541  13.135   8.764
 1010POPC   C2B15248  42.688  13.258   8.370
 1010POPC   C3B15249  42.749  13.074   7.992
 1010POPC   C4B15250  42.550  13.302   7.680
 1011POPC   NC315251  42.240  44.908   9.811
 1011POPC   PO415252  42.579  44.509   9.353
 1011POPC   GL115253  42.273  44.635   9.118
 1011POPC   GL215254  42.246  44.984   9.227
 1011POPC   C1A15255  42.182  44.482   8.698
 1011POPC   D2A15256  42.312  44.260   8.342
 1011POPC   C3A15257  42.114  44.451   8.028
 1011POPC   C4A15258  42.494  44.604   7.807
 1011POPC   C1B15259  42.329  44.988   8.747
 1011POPC   C2B15260  42.373  44.810   8.314
 1011POPC   C3B15261  42.131  44.938   7.929
 1011POPC   C4B15262  42.121   0.093   7.522
 1012POPC   NC315263   7.723   8.166   9.630
 1012POPC   PO415264   7.175   8.538   9.656
 1012POPC   GL115265   7.421   8.386   9.252
 1012POPC   GL215266   7.789   8.522   9.260
 1012POPC   C1A15267   7.396   8.101   8.857
 1012POPC   D2A15268   7.117   7.970   8.563
 1012POPC   C3A15269   7.272   8.141   8.238
 1012POPC   C4A15270   7.436   8.086   7.847
 1012POPC   C1B15271   7.778   8.446   8.817
 1012POPC   C2B15272   7.757   8.643   8.407
 1012POPC   C3B15273   7.568   8.562   7.998
 1012POPC   C4B15274   7.615   8.458   7.544
 1013POPC   NC315275   6.443  17.228   9.497
 1013POPC   PO415276   6.765  17.834   9.502
 1013POPC   GL115277   6.733  17.529   9.174
 1013POPC   GL215278   6.393  17.440   9.029
 1013POPC   C1A15279   6.884  17.420   8.766
 1013POPC   D2A15280   6.692  17.539   8.362
 1013POPC   C3A15281   6.926  17.703   8.003
 1013POPC   C4A15282   6.805  17.530   7.627
 1013POPC   C1B15283   6.112  17.329   8.659
 1013POPC   C2B15284   6.314  17.216   8.268
 1013POPC   C3B15285   6.400  17.473   7.926
 1013POPC   C4B15286   6.334  17.409   7.458
 1014POPC   NC315287  44.531   9.611   9.463
 1014POPC   PO415288  44.642  10.199   9.751
 1014POPC   GL115289  44.820  10.020   9.287
 1014POPC   GL215290  44.947   9.681   9.146
 1014POPC   C1A15291  44.704  10.002   8.832
 1014POPC   D2A15292  44.572   9.676   8.533
 1014POPC   C3A15293  44.545   9.797   8.098
 1014POPC   C4A15294  44.729   9.855   7.742
 1014POPC   C1B15295   0.086   9.431   8.800
 1014POPC   C2B15296   0.043   9.510   8.378
 1014POPC   C3B15297  44.863   9.407   8.009
 1014POPC   C4B15298   0.115   9.500   7.678
 1015POPC   NC315299   7.549   3.573   9.581
 1015POPC   PO415300   6.991   3.143   9.412
 1015POPC   GL115301   7.223   3.521   9.151
 1015POPC   GL215302   7.579   3.401   9.127
 1015POPC   C1A15303   7.317   3.758   8.687
 1015POPC   D2A15304   7.578   3.519   8.315
 1015POPC   C3A15305   7.492   3.610   7.884
 1015POPC   C4A15306   7.140   3.844   7.738
 1015POPC   C1B15307   7.465   3.303   8.753
 1015POPC   C2B15308   7.104   3.283   8.466
 1015POPC   C3B15309   7.038   3.454   8.078
 1015POPC   C4B15310   7.105   3.344   7.634
 1016POPC   NC315311  33.528  32.115   9.470
 1016POPC   PO415312  33.983  32.583   9.407
 1016POPC   GL115313  33.627  32.511   9.133
 1016POPC   GL215314  33.731  32.136   9.012
 1016POPC   C1A15315  33.436  32.417   8.736
 1016POPC   D2A15316  33.639  32.173   8.457
 1016POPC   C3A15317  33.691  32.386   8.084
 1016POPC   C4A15318  33.414  32.335   7.767
 1016POPC   C1B15319  33.970  31.850   8.718
 1016POPC   C2B15320  33.978  31.864   8.261
 1016POPC   C3B15321  33.623  31.890   7.995
 1016POPC   C4B15322  33.605  31.922   7.545
 1017POPC   NC315323  16.797  10.212   9.493
 1017POPC   PO415324  16.574   9.479   9.521
 1017POPC   GL115325  16.520   9.841   9.263
 1017POPC   GL215326  16.860   9.837   9.154
 1017POPC   C1A15327  16.467   9.922   8.807
 1017POPC   D2A15328  16.667   9.696   8.449
 1017POPC   C3A15329  16.542   9.644   8.039
 1017POPC   C4A15330  16.765   9.517   7.708
 1017POPC   C1B15331  17.054   9.683   8.776
 1017POPC   C2B15332  17.221   9.654   8.358
 1017POPC   C3B15333  17.011   9.891   8.060
 1017POPC   C4B15334  16.939   9.995   7.644
 1018POPC   NC315335  23.022   1.104   9.555
 1018POPC   PO415336  22.443   1.391   9.737
 1018POPC   GL115337  22.694   1.343   9.282
 1018POPC   GL215338  23.069   1.496   9.236
 1018POPC   C1A15339  22.871   1.201   8.870
 1018POPC   D2A15340  22.980   1.328   8.469
 1018POPC   C3A15341  22.897   1.040   8.138
 1018POPC   C4A15342  23.047   1.055   7.724
 1018POPC   C1B15343  23.298   1.560   8.833
 1018POPC   C2B15344  23.390   1.646   8.388
 1018POPC   C3B15345  23.243   1.436   8.010
 1018POPC   C4B15346  23.355   1.452   7.574
 1019POPC   NC315347  21.197  21.928   9.490
 1019POPC   PO415348  21.724  22.421   9.470
 1019POPC   GL115349  21.536  22.142   9.198
 1019POPC   GL215350  21.263  22.331   9.150
 1019POPC   C1A15351  21.349  22.019   8.780
 1019POPC   D2A15352  21.339  22.288   8.425
 1019POPC   C3A15353  21.403  22.124   8.038
 1019POPC   C4A15354  21.206  22.074   7.699
 1019POPC   C1B15355  21.669  22.422   8.807
 1019POPC   C2B15356  21.670  22.727   8.477
 1019POPC   C3B15357  21.691  22.534   8.109
 1019POPC   C4B15358  21.805  22.315   7.791
 1020POPC   NC315359   0.877  34.659   9.500
 1020POPC   PO415360   0.191  34.591   9.431
 1020POPC   GL115361   0.296  34.477   9.055
 1020POPC   GL215362   0.649  34.480   9.073
 1020POPC   C1A15363   0.161  34.685   8.704
 1020POPC   D2A15364   0.196  34.483   8.327
 1020POPC   C3A15365   0.096  34.631   7.956
 1020POPC   C4A15366   0.346  34.467   7.652
 1020POPC   C1B15367   0.610  34.469   8.638
 1020POPC   C2B15368   0.651  34.781   8.349
 1020POPC   C3B15369   0.564  34.845   7.944
 1020POPC   C4B15370   0.714  34.796   7.500
 1021POPC   NC315371  14.317  17.208   9.330
 1021POPC   PO415372  14.606  17.590   9.027
 1021POPC   GL115373  14.266  17.664   8.857
 1021POPC   GL215374  14.241  17.996   8.905
 1021POPC   C1A15375  14.255  17.537   8.448
 1021POPC   D2A15376  14.566  17.289   8.250
 1021POPC   C3A15377  14.674  17.395   7.848
 1021POPC   C4A15378  14.338  17.384   7.591
 1021POPC   C1B15379  14.677  18.068   8.666
 1021POPC   C2B15380  14.726  17.773   8.350
 1021POPC   C3B15381  14.405  17.764   8.025
 1021POPC   C4B15382  14.452  17.876   7.621
 1022POPC   NC315383  37.312  13.528   9.184
 1022POPC   PO415384  36.693  13.625   9.522
 1022POPC   GL115385  36.721  13.500   9.126
 1022POPC   GL215386  36.939  13.213   9.039
 1022POPC   C1A15387  36.721  13.607   8.693
 1022POPC   D2A15388  36.843  13.864   8.330
 1022POPC   C3A15389  36.613  13.706   8.005
 1022POPC   C4A15390  36.669  13.613   7.585
 1022POPC   C1B15391  37.150  13.329   8.585
 1022POPC   C2B15392  36.992  13.379   8.163
 1022POPC   C3B15393  37.117  13.435   7.732
 1022POPC   C4B15394  37.065  13.410   7.254
 1023POPC   NC315395  15.019  23.291   9.763
 1023POPC   PO415396  15.248  23.806   9.401
 1023POPC   GL115397  15.345  23.896   9.029
 1023POPC   GL215398  15.642  23.775   9.076
 1023POPC   C1A15399  15.311  23.641   8.671
 1023POPC   D2A15400  14.943  23.566   8.462
 1023POPC   C3A15401  14.957  23.893   8.143
 1023POPC   C4A15402  15.151  23.988   7.760
 1023POPC   C1B15403  15.706  23.992   8.683
 1023POPC   C2B15404  15.501  24.006   8.278
 1023POPC   C3B15405  15.722  24.053   7.890
 1023POPC   C4B15406  15.592  23.866   7.530
 1024POPC   NC315407  39.646  24.243  10.029
 1024POPC   PO415408  40.243  24.263   9.686
 1024POPC   GL115409  40.173  24.592   9.324
 1024POPC   GL215410  39.820  24.590   9.221
 1024POPC   C1A15411  40.173  24.617   8.850
 1024POPC   D2A15412  40.024  24.337   8.518
 1024POPC   C3A15413  40.238  24.391   8.125
 1024POPC   C4A15414  40.195  24.425   7.683
 1024POPC   C1B15415  39.613  24.300   8.884
 1024POPC   C2B15416  39.498  24.246   8.429
 1024POPC   C3B15417  39.721  24.344   8.028
 1024POPC   C4B15418  39.685  24.503   7.600
 1025POPC   NC315419  25.164  23.401   9.438
 1025POPC   PO415420  25.286  24.026   9.393
 1025POPC   GL115421  25.335  23.772   9.038
 1025POPC   GL215422  25.580  23.495   9.093
 1025POPC   C1A15423  25.114  23.759   8.638
 1025POPC   D2A15424  25.007  23.669   8.219
 1025POPC   C3A15425  25.134  23.916   7.866
 1025POPC   C4A15426  24.910  23.983   7.503
 1025POPC   C1B15427  25.617  23.641   8.627
 1025POPC   C2B15428  25.539  23.774   8.194
 1025POPC   C3B15429  25.442  23.518   7.818
 1025POPC   C4B15430  25.559  23.639   7.385
 1026POPC   NC315431  19.987   2.312   9.632
 1026POPC   PO415432  19.485   1.917   9.439
 1026POPC   GL115433  19.789   2.066   9.119
 1026POPC   GL215434  20.077   2.269   9.113
 1026POPC   C1A15435  19.880   1.993   8.693
 1026POPC   D2A15436  20.127   1.941   8.331
 1026POPC   C3A15437  19.864   1.829   8.053
 1026POPC   C4A15438  19.945   1.749   7.632
 1026POPC   C1B15439  20.048   2.461   8.687
 1026POPC   C2B15440  20.043   2.470   8.230
 1026POPC   C3B15441  20.014   2.278   7.830
 1026POPC   C4B15442  19.638   2.134   7.724
 1027POPC   NC315443  25.280   6.064   9.609
 1027POPC   PO415444  24.932   5.512   9.472
 1027POPC   GL115445  25.208   5.765   9.194
 1027POPC   GL215446  25.074   6.123   9.163
 1027POPC   C1A15447  25.440   5.940   8.848
 1027POPC   D2A15448  25.410   5.965   8.431
 1027POPC   C3A15449  25.632   6.010   8.046
 1027POPC   C4A15450  25.451   6.048   7.646
 1027POPC   C1B15451  25.087   6.374   8.812
 1027POPC   C2B15452  24.926   6.360   8.437
 1027POPC   C3B15453  25.130   6.229   8.083
 1027POPC   C4B15454  24.968   6.264   7.723
 1028POPC   NC315455  35.605  25.778   9.298
 1028POPC   PO415456  35.109  26.311   9.420
 1028POPC   GL115457  35.264  26.116   9.099
 1028POPC   GL215458  35.138  25.822   9.027
 1028POPC   C1A15459  35.291  26.162   8.669
 1028POPC   D2A15460  35.517  25.870   8.429
 1028POPC   C3A15461  35.562  25.937   7.991
 1028POPC   C4A15462  35.258  26.058   7.665
 1028POPC   C1B15463  34.995  25.745   8.654
 1028POPC   C2B15464  35.049  25.606   8.257
 1028POPC   C3B15465  34.924  25.639   7.843
 1028POPC   C4B15466  34.999  25.387   7.441
 1029POPC   NC315467  28.180  22.029   9.911
 1029POPC   PO415468  28.234  21.514   9.442
 1029POPC   GL115469  28.252  21.664   9.006
 1029POPC   GL215470  28.632  21.692   8.988
 1029POPC   C1A15471  28.021  21.533   8.633
 1029POPC   D2A15472  28.100  21.135   8.443
 1029POPC   C3A15473  28.435  21.087   8.175
 1029POPC   C4A15474  28.315  21.259   7.794
 1029POPC   C1B15475  28.548  21.431   8.615
 1029POPC   C2B15476  28.413  21.607   8.217
 1029POPC   C3B15477  28.494  21.724   7.790
 1029POPC   C4B15478  28.669  21.438   7.434
 1030POPC   NC315479  40.448  21.405   9.359
 1030POPC   PO415480  39.810  21.309   9.526
 1030POPC   GL115481  39.954  21.546   9.162
 1030POPC   GL215482  40.168  21.309   8.950
 1030POPC   C1A15483  39.781  21.603   8.742
 1030POPC   D2A15484  40.041  21.460   8.445
 1030POPC   C3A15485  40.008  21.445   8.036
 1030POPC   C4A15486  40.248  21.168   7.730
 1030POPC   C1B15487  39.915  21.030   8.704
 1030POPC   C2B15488  39.875  21.003   8.263
 1030POPC   C3B15489  39.814  20.905   7.875
 1030POPC   C4B15490  39.722  21.259   7.668
 1031POPC   NC315491  30.675  13.198   9.668
 1031POPC   PO415492  30.518  13.839   9.670
 1031POPC   GL115493  30.665  13.681   9.274
 1031POPC   GL215494  30.580  13.332   9.165
 1031POPC   C1A15495  30.787  13.773   8.846
 1031POPC   D2A15496  30.578  13.568   8.506
 1031POPC   C3A15497  30.687  13.705   8.101
 1031POPC   C4A15498  31.059  13.591   7.863
 1031POPC   C1B15499  30.927  13.291   8.815
 1031POPC   C2B15500  31.030  13.417   8.385
 1031POPC   C3B15501  30.781  13.201   8.083
 1031POPC   C4B15502  31.025  13.075   7.741
 1032POPC   NC315503  44.748  34.586   9.591
 1032POPC   PO415504  44.108  34.517   9.690
 1032POPC   GL115505  44.389  34.512   9.247
 1032POPC   GL215506  44.765  34.399   9.132
 1032POPC   C1A15507  44.556  34.752   8.871
 1032POPC   D2A15508  44.719  34.664   8.461
 1032POPC   C3A15509  44.599  34.532   8.032
 1032POPC   C4A15510  44.475  34.806   7.730
 1032POPC   C1B15511  44.912  34.236   8.770
 1032POPC   C2B15512  44.762  34.182   8.379
 1032POPC   C3B15513  44.937  34.154   8.019
 1032POPC   C4B15514  44.760  34.146   7.633
 1033POPC   NC315515  35.732  16.638   9.420
 1033POPC   PO415516  35.027  16.861   9.476
 1033POPC   GL115517  35.320  16.837   9.145
 1033POPC   GL215518  35.445  16.501   9.012
 1033POPC   C1A15519  35.241  16.908   8.724
 1033POPC   D2A15520  35.420  16.795   8.374
 1033POPC   C3A15521  35.229  16.828   8.014
 1033POPC   C4A15522  35.282  16.546   7.694
 1033POPC   C1B15523  35.739  16.776   8.786
 1033POPC   C2B15524  35.811  17.094   8.514
 1033POPC   C3B15525  35.636  17.201   8.124
 1033POPC   C4B15526  35.629  16.959   7.753
 1034POPC   NC315527   3.672   1.729   9.722
 1034POPC   PO415528   3.111   1.962   9.479
 1034POPC   GL115529   3.500   1.936   9.181
 1034POPC   GL215530   3.802   1.717   9.215
 1034POPC   C1A15531   3.388   2.072   8.747
 1034POPC   D2A15532   3.173   2.146   8.351
 1034POPC   C3A15533   3.422   2.117   7.980
 1034POPC   C4A15534   3.375   1.906   7.601
 1034POPC   C1B15535   3.866   1.892   8.789
 1034POPC   C2B15536   3.726   1.920   8.345
 1034POPC   C3B15537   3.891   1.860   7.909
 1034POPC   C4B15538   4.107   1.623   7.546
 1035POPC   NC315539  32.886  12.561   9.468
 1035POPC   PO415540  33.236  13.177   9.630
 1035POPC   GL115541  33.188  12.935   9.273
 1035POPC   GL215542  32.859  13.039   9.233
 1035POPC   C1A15543  33.284  12.766   8.842
 1035POPC   D2A15544  33.136  12.785   8.412
 1035POPC   C3A15545  33.361  12.620   8.062
 1035POPC   C4A15546  33.165  12.830   7.734
 1035POPC   C1B15547  32.828  13.020   8.793
 1035POPC   C2B15548  32.629  12.942   8.407
 1035POPC   C3B15549  32.747  12.843   8.015
 1035POPC   C4B15550  32.620  12.533   7.743
 1036POPC   NC315551  39.456  10.497   9.454
 1036POPC   PO415552  38.841  10.882   9.423
 1036POPC   GL115553  39.075  10.604   9.077
 1036POPC   GL215554  39.327  10.300   9.013
 1036POPC   C1A15555  39.099  10.502   8.617
 1036POPC   D2A15556  39.073  10.638   8.206
 1036POPC   C3A15557  39.437  10.519   7.955
 1036POPC   C4A15558  39.296  10.569   7.554
 1036POPC   C1B15559  39.366  10.051   8.645
 1036POPC   C2B15560  39.238  10.145   8.243
 1036POPC   C3B15561  39.187  10.115   7.801
 1036POPC   C4B15562  39.405  10.060   7.447
 1037POPC   NC315563  20.315  39.333   9.458
 1037POPC   PO415564  20.796  38.912   9.511
 1037POPC   GL115565  20.756  39.113   9.095
 1037POPC   GL215566  20.507  39.418   8.968
 1037POPC   C1A15567  20.538  38.959   8.731
 1037POPC   D2A15568  20.372  39.138   8.387
 1037POPC   C3A15569  20.581  39.041   8.008
 1037POPC   C4A15570  20.906  39.222   7.750
 1037POPC   C1B15571  20.296  39.610   8.565
 1037POPC   C2B15572  20.227  39.516   8.080
 1037POPC   C3B15573  20.437  39.462   7.666
 1037POPC   C4B15574  20.285  39.534   7.230
 1038POPC   NC315575  30.535  40.275   9.490
 1038POPC   PO415576  30.995  39.867   9.724
 1038POPC   GL115577  30.811  39.903   9.266
 1038POPC   GL215578  30.906  40.219   9.146
 1038POPC   C1A15579  30.583  39.928   8.865
 1038POPC   D2A15580  30.677  39.813   8.442
 1038POPC   C3A15581  30.807  40.090   8.144
 1038POPC   C4A15582  30.699  39.917   7.765
 1038POPC   C1B15583  31.213  40.393   8.876
 1038POPC   C2B15584  31.135  40.378   8.448
 1038POPC   C3B15585  31.247  40.358   8.032
 1038POPC   C4B15586  31.050  40.275   7.671
 1039POPC   NC315587  36.351  26.035   9.456
 1039POPC   PO415588  35.777  26.179   9.137
 1039POPC   GL115589  36.232  26.110   8.972
 1039POPC   GL215590  36.386  25.794   8.983
 1039POPC   C1A15591  36.370  26.096   8.534
 1039POPC   D2A15592  35.987  26.147   8.268
 1039POPC   C3A15593  36.005  26.154   7.826
 1039POPC   C4A15594  36.206  26.054   7.400
 1039POPC   C1B15595  36.011  25.758   8.664
 1039POPC   C2B15596  35.929  25.640   8.218
 1039POPC   C3B15597  35.974  25.650   7.763
 1039POPC   C4B15598  36.300  25.528   7.449
 1040POPC   NC315599  31.347  42.442   9.401
 1040POPC   PO415600  31.568  43.001   9.195
 1040POPC   GL115601  31.685  42.552   9.036
 1040POPC   GL215602  31.433  42.212   8.977
 1040POPC   C1A15603  31.647  42.451   8.613
 1040POPC   D2A15604  31.251  42.474   8.460
 1040POPC   C3A15605  31.274  42.532   8.061
 1040POPC   C4A15606  31.475  42.392   7.686
 1040POPC   C1B15607  31.299  41.978   8.633
 1040POPC   C2B15608  31.475  42.066   8.236
 1040POPC   C3B15609  31.637  41.948   7.861
 1040POPC   C4B15610  31.393  41.817   7.473
 1041POPC   NC315611  33.649   8.437   9.795
 1041POPC   PO415612  34.200   8.149   9.528
 1041POPC   GL115613  33.955   8.352   9.209
 1041POPC   GL215614  34.175   8.242   8.944
 1041POPC   C1A15615  33.618   8.457   8.902
 1041POPC   D2A15616  33.641   8.588   8.455
 1041POPC   C3A15617  33.555   8.259   8.140
 1041POPC   C4A15618  33.713   8.310   7.731
 1041POPC   C1B15619  33.865   8.102   8.621
 1041POPC   C2B15620  33.772   7.758   8.324
 1041POPC   C3B15621  33.853   7.838   7.906
 1041POPC   C4B15622  34.178   8.177   7.875
 1042POPC   NC315623  31.666  24.037   9.501
 1042POPC   PO415624  31.512  23.410   9.665
 1042POPC   GL115625  31.482  23.609   9.252
 1042POPC   GL215626  31.271  23.842   9.197
 1042POPC   C1A15627  31.471  23.531   8.798
 1042POPC   D2A15628  31.720  23.492   8.399
 1042POPC   C3A15629  31.509  23.517   7.996
 1042POPC   C4A15630  31.615  23.696   7.610
 1042POPC   C1B15631  31.142  23.934   8.793
 1042POPC   C2B15632  31.145  23.715   8.400
 1042POPC   C3B15633  31.153  23.861   8.001
 1042POPC   C4B15634  31.084  23.679   7.613
 1043POPC   NC315635   4.053  10.864   9.465
 1043POPC   PO415636   4.350  10.290   9.516
 1043POPC   GL115637   4.528  10.307   9.126
 1043POPC   GL215638   4.331  10.599   9.092
 1043POPC   C1A15639   4.425  10.292   8.677
 1043POPC   D2A15640   4.337  10.512   8.279
 1043POPC   C3A15641   4.592  10.407   7.899
 1043POPC   C4A15642   4.366  10.281   7.513
 1043POPC   C1B15643   4.163  10.884   8.802
 1043POPC   C2B15644   4.215  11.036   8.418
 1043POPC   C3B15645   4.117  10.932   8.037
 1043POPC   C4B15646   4.241  10.734   7.688
 1044POPC   NC315647  30.819  25.718   9.467
 1044POPC   PO415648  30.672  26.390   9.494
 1044POPC   GL115649  30.822  26.238   9.154
 1044POPC   GL215650  30.603  25.964   9.080
 1044POPC   C1A15651  30.807  26.325   8.733
 1044POPC   D2A15652  30.713  26.078   8.391
 1044POPC   C3A15653  30.890  26.144   7.997
 1044POPC   C4A15654  31.154  25.967   7.705
 1044POPC   C1B15655  30.329  25.932   8.751
 1044POPC   C2B15656  30.289  25.813   8.351
 1044POPC   C3B15657  30.385  26.012   7.963
 1044POPC   C4B15658  30.363  25.875   7.519
 1045POPC   NC315659  16.425   0.827   9.343
 1045POPC   PO415660  16.963   1.222   9.564
 1045POPC   GL115661  16.877   1.351   9.178
 1045POPC   GL215662  16.808   1.020   9.008
 1045POPC   C1A15663  16.790   1.482   8.791
 1045POPC   D2A15664  16.896   1.191   8.492
 1045POPC   C3A15665  16.620   1.285   8.190
 1045POPC   C4A15666  16.758   1.347   7.799
 1045POPC   C1B15667  16.461   0.927   8.670
 1045POPC   C2B15668  16.299   0.849   8.231
 1045POPC   C3B15669  16.347   1.046   7.810
 1045POPC   C4B15670  16.571   0.931   7.438
 1046POPC   NC315671   0.618  13.212   9.458
 1046POPC   PO415672   0.711  13.844   9.679
 1046POPC   GL115673   0.564  13.715   9.258
 1046POPC   GL215674   0.265  13.497   9.220
 1046POPC   C1A15675   0.495  13.850   8.835
 1046POPC   D2A15676   0.702  13.839   8.424
 1046POPC   C3A15677   0.576  13.701   8.021
 1046POPC   C4A15678   0.733  13.348   7.734
 1046POPC   C1B15679   0.360  13.358   8.799
 1046POPC   C2B15680   0.284  13.474   8.402
 1046POPC   C3B15681   0.289  13.291   7.985
 1046POPC   C4B15682   0.277  13.536   7.617
 1047POPC   NC315683  42.787   2.479   9.517
 1047POPC   PO415684  42.159   2.732   9.722
 1047POPC   GL115685  42.170   2.830   9.258
 1047POPC   GL215686  42.472   2.632   9.156
 1047POPC   C1A15687  42.198   2.841   8.784
 1047POPC   D2A15688  42.099   2.624   8.395
 1047POPC   C3A15689  42.213   2.826   8.031
 1047POPC   C4A15690  42.033   2.860   7.619
 1047POPC   C1B15691  42.704   2.626   8.749
 1047POPC   C2B15692  42.599   2.553   8.309
 1047POPC   C3B15693  42.635   2.497   7.850
 1047POPC   C4B15694  42.781   2.577   7.399
 1048POPC   NC315695  28.533  18.634   9.360
 1048POPC   PO415696  27.974  18.191   9.527
 1048POPC   GL115697  28.207  18.192   9.157
 1048POPC   GL215698  28.063  18.504   9.089
 1048POPC   C1A15699  28.554  18.210   8.834
 1048POPC   D2A15700  28.682  17.941   8.480
 1048POPC   C3A15701  28.465  18.040   8.116
 1048POPC   C4A15702  28.575  18.232   7.727
 1048POPC   C1B15703  28.082  18.379   8.692
 1048POPC   C2B15704  28.317  18.484   8.343
 1048POPC   C3B15705  28.172  18.572   7.941
 1048POPC   C4B15706  28.369  18.670   7.575
 1049POPC   NC315707  24.306  42.052   9.428
 1049POPC   PO415708  24.726  42.635   9.572
 1049POPC   GL115709  24.725  42.485   9.151
 1049POPC   GL215710  24.716  42.114   9.093
 1049POPC   C1A15711  24.580  42.477   8.724
 1049POPC   D2A15712  24.298  42.227   8.453
 1049POPC   C3A15713  24.424  42.221   8.010
 1049POPC   C4A15714  24.679  42.491   7.741
 1049POPC   C1B15715  24.923  42.084   8.707
 1049POPC   C2B15716  24.907  42.287   8.294
 1049POPC   C3B15717  24.931  42.077   7.887
 1049POPC   C4B15718  24.839  41.780   7.555
 1050POPC   NC315719   8.907  21.216   9.438
 1050POPC   PO415720   9.059  21.908   9.485
 1050POPC   GL115721   8.983  21.663   9.139
 1050POPC   GL215722   8.647  21.581   9.172
 1050POPC   C1A15723   8.925  21.364   8.777
 1050POPC   D2A15724   9.100  21.371   8.373
 1050POPC   C3A15725   8.926  21.451   8.011
 1050POPC   C4A15726   8.957  21.317   7.622
 1050POPC   C1B15727   8.653  21.787   8.754
 1050POPC   C2B15728   8.849  21.850   8.333
 1050POPC   C3B15729   8.582  21.820   7.944
 1050POPC   C4B15730   8.559  21.602   7.528
 1051POPC   NC315731  27.689  32.752   9.432
 1051POPC   PO415732  27.475  33.423   9.474
 1051POPC   GL115733  27.554  33.263   9.064
 1051POPC   GL215734  27.543  32.932   9.000
 1051POPC   C1A15735  27.373  33.192   8.613
 1051POPC   D2A15736  27.656  33.222   8.252
 1051POPC   C3A15737  27.603  33.113   7.818
 1051POPC   C4A15738  27.373  33.159   7.423
 1051POPC   C1B15739  27.805  32.698   8.731
 1051POPC   C2B15740  27.665  32.661   8.305
 1051POPC   C3B15741  27.871  32.704   7.910
 1051POPC   C4B15742  27.885  32.430   7.541
 1052POPC   NC315743   4.039   0.151   9.429
 1052POPC   PO415744   4.266  44.473   9.565
 1052POPC   GL115745   4.351  44.508   9.153
 1052POPC   GL215746   4.408  44.898   9.111
 1052POPC   C1A15747   4.169  44.298   8.770
 1052POPC   D2A15748   4.357  44.303   8.380
 1052POPC   C3A15749   4.068  44.396   8.092
 1052POPC   C4A15750   4.139  44.253   7.700
 1052POPC   C1B15751   4.477  44.710   8.692
 1052POPC   C2B15752   4.460  44.793   8.263
 1052POPC   C3B15753   4.447  44.673   7.855
 1052POPC   C4B15754   4.346  44.653   7.455
 1053POPC   NC315755  32.889  26.388   9.405
 1053POPC   PO415756  32.966  27.022   9.627
 1053POPC   GL115757  33.057  26.941   9.211
 1053POPC   GL215758  32.741  26.839   9.172
 1053POPC   C1A15759  33.056  26.740   8.775
 1053POPC   D2A15760  32.875  26.785   8.342
 1053POPC   C3A15761  33.134  26.711   7.981
 1053POPC   C4A15762  33.384  26.885   7.601
 1053POPC   C1B15763  32.531  26.811   8.806
 1053POPC   C2B15764  32.444  26.530   8.468
 1053POPC   C3B15765  32.576  26.503   8.005
 1053POPC   C4B15766  32.737  26.827   7.688
 1054POPC   NC315767  19.425  30.532   9.503
 1054POPC   PO415768  18.894  30.991   9.545
 1054POPC   GL115769  19.052  30.804   9.208
 1054POPC   GL215770  18.781  30.576   9.190
 1054POPC   C1A15771  19.104  30.827   8.765
 1054POPC   D2A15772  18.979  30.510   8.460
 1054POPC   C3A15773  18.894  30.789   8.091
 1054POPC   C4A15774  19.154  30.835   7.698
 1054POPC   C1B15775  18.582  30.765   8.837
 1054POPC   C2B15776  18.489  30.642   8.427
 1054POPC   C3B15777  18.496  30.453   8.053
 1054POPC   C4B15778  18.631  30.624   7.689
 1055POPC   NC315779  13.336  38.376   9.399
 1055POPC   PO415780  13.966  38.619   9.511
 1055POPC   GL115781  13.820  38.512   9.095
 1055POPC   GL215782  13.586  38.301   8.971
 1055POPC   C1A15783  13.927  38.446   8.635
 1055POPC   D2A15784  13.634  38.515   8.291
 1055POPC   C3A15785  13.585  38.234   7.915
 1055POPC   C4A15786  13.733  38.306   7.447
 1055POPC   C1B15787  13.369  38.629   8.749
 1055POPC   C2B15788  13.130  38.831   8.427
 1055POPC   C3B15789  13.272  38.765   8.036
 1055POPC   C4B15790  13.465  38.666   7.676
 1056POPC   NC315791   8.136  25.663   9.560
 1056POPC   PO415792   7.919  26.334   9.572
 1056POPC   GL115793   8.188  26.092   9.281
 1056POPC   GL215794   8.198  26.351   9.092
 1056POPC   C1A15795   8.365  25.940   8.859
 1056POPC   D2A15796   8.188  26.091   8.457
 1056POPC   C3A15797   8.278  25.927   8.035
 1056POPC   C4A15798   8.186  26.131   7.623
 1056POPC   C1B15799   7.879  26.353   8.793
 1056POPC   C2B15800   7.870  26.548   8.404
 1056POPC   C3B15801   8.012  26.385   8.037
 1056POPC   C4B15802   7.736  26.379   7.704
 1057POPC   NC315803   9.898   1.696   9.609
 1057POPC   PO415804   9.750   2.303   9.352
 1057POPC   GL115805   9.783   2.078   8.997
 1057POPC   GL215806   9.701   1.759   9.135
 1057POPC   C1A15807   9.562   2.198   8.640
 1057POPC   D2A15808   9.334   1.957   8.353
 1057POPC   C3A15809   9.590   2.040   7.999
 1057POPC   C4A15810   9.557   2.415   7.759
 1057POPC   C1B15811   9.597   1.675   8.698
 1057POPC   C2B15812   9.894   1.869   8.408
 1057POPC   C3B15813  10.032   1.764   7.999
 1057POPC   C4B15814   9.699   1.589   7.769
 1058POPC   NC315815  11.864  20.376   9.459
 1058POPC   PO415816  12.259  20.948   9.386
 1058POPC   GL115817  12.112  20.680   9.108
 1058POPC   GL215818  12.282  20.346   9.120
 1058POPC   C1A15819  12.187  20.788   8.694
 1058POPC   D2A15820  12.060  20.602   8.335
 1058POPC   C3A15821  12.287  20.574   8.004
 1058POPC   C4A15822  12.062  20.834   7.767
 1058POPC   C1B15823  11.996  20.306   8.757
 1058POPC   C2B15824  11.804  20.166   8.356
 1058POPC   C3B15825  11.865  20.284   7.908
 1058POPC   C4B15826  12.187  20.299   7.577
 1059POPC   NC315827  24.515  10.974   9.471
 1059POPC   PO415828  24.663  11.618   9.443
 1059POPC   GL115829  24.322  11.445   9.134
 1059POPC   GL215830  24.090  11.154   9.156
 1059POPC   C1A15831  24.411  11.322   8.693
 1059POPC   D2A15832  24.708  11.175   8.334
 1059POPC   C3A15833  24.547  11.167   7.922
 1059POPC   C4A15834  24.299  11.514   7.795
 1059POPC   C1B15835  24.139  10.886   8.781
 1059POPC   C2B15836  24.280  10.870   8.329
 1059POPC   C3B15837  24.193  10.810   7.864
 1059POPC   C4B15838  24.260  11.101   7.492
 1060POPC   NC315839  16.229  33.908   9.433
 1060POPC   PO415840  15.605  33.478   9.416
 1060POPC   GL115841  15.835  33.724   9.107
 1060POPC   GL215842  15.757  34.074   9.025
 1060POPC   C1A15843  16.026  33.592   8.703
 1060POPC   D2A15844  15.812  33.535   8.293
 1060POPC   C3A15845  15.997  33.604   7.872
 1060POPC   C4A15846  16.329  33.853   7.731
 1060POPC   C1B15847  15.647  33.928   8.652
 1060POPC   C2B15848  15.981  34.016   8.379
 1060POPC   C3B15849  15.888  34.073   7.991
 1060POPC   C4B15850  15.597  34.158   7.670
 1061POPC   NC315851  10.271  36.234   9.664
 1061POPC   PO415852  10.805  35.986   9.869
 1061POPC   GL115853  10.624  36.291   9.335
 1061POPC   GL215854  10.707  36.078   9.004
 1061POPC   C1A15855  10.329  36.367   8.927
 1061POPC   D2A15856  10.245  36.389   8.502
 1061POPC   C3A15857  10.550  36.392   8.152
 1061POPC   C4A15858  10.408  36.298   7.721
 1061POPC   C1B15859  10.756  36.196   8.591
 1061POPC   C2B15860  10.772  35.910   8.253
 1061POPC   C3B15861  10.657  35.878   7.836
 1061POPC   C4B15862  10.762  36.032   7.383
 1062POPC   NC315863  38.378  42.108   9.454
 1062POPC   PO415864  38.152  42.719   9.359
 1062POPC   GL115865  38.409  42.502   9.141
 1062POPC   GL215866  38.197  42.577   8.861
 1062POPC   C1A15867  38.681  42.347   8.835
 1062POPC   D2A15868  38.656  42.524   8.447
 1062POPC   C3A15869  38.623  42.246   8.144
 1062POPC   C4A15870  38.597  42.253   7.729
 1062POPC   C1B15871  38.161  42.167   8.757
 1062POPC   C2B15872  38.179  42.109   8.338
 1062POPC   C3B15873  38.147  42.363   7.985
 1062POPC   C4B15874  38.146  42.033   7.715
 1063POPC   NC315875  21.304  24.377   9.381
 1063POPC   PO415876  21.669  24.884   9.586
 1063POPC   GL115877  21.680  24.690   9.139
 1063POPC   GL215878  21.724  24.335   9.078
 1063POPC   C1A15879  21.610  24.627   8.660
 1063POPC   D2A15880  21.228  24.553   8.332
 1063POPC   C3A15881  21.296  24.659   7.870
 1063POPC   C4A15882  21.455  24.669   7.397
 1063POPC   C1B15883  21.412  24.184   8.755
 1063POPC   C2B15884  21.552  24.160   8.336
 1063POPC   C3B15885  21.399  24.159   7.943
 1063POPC   C4B15886  21.380  24.186   7.509
 1064POPC   NC315887   3.762  23.000   9.408
 1064POPC   PO415888   3.091  23.159   9.490
 1064POPC   GL115889   3.245  23.150   9.101
 1064POPC   GL215890   3.371  22.820   9.133
 1064POPC   C1A15891   3.515  23.165   8.738
 1064POPC   D2A15892   3.716  23.167   8.341
 1064POPC   C3A15893   3.428  23.120   8.025
 1064POPC   C4A15894   3.449  23.230   7.613
 1064POPC   C1B15895   3.580  22.638   8.788
 1064POPC   C2B15896   3.474  22.692   8.394
 1064POPC   C3B15897   3.644  22.506   8.058
 1064POPC   C4B15898   3.634  22.713   7.735
 1065POPC   NC315899  36.840  12.313   9.464
 1065POPC   PO415900  36.759  11.714   9.305
 1065POPC   GL115901  36.969  11.867   8.994
 1065POPC   GL215902  37.040  12.208   9.011
 1065POPC   C1A15903  36.798  12.016   8.612
 1065POPC   D2A15904  36.979  11.935   8.241
 1065POPC   C3A15905  36.728  11.962   7.891
 1065POPC   C4A15906  36.524  12.328   7.707
 1065POPC   C1B15907  37.329  12.390   8.760
 1065POPC   C2B15908  37.425  12.319   8.349
 1065POPC   C3B15909  37.235  12.313   7.951
 1065POPC   C4B15910  37.237  12.586   7.602
 1066POPC   NC315911   0.548  23.894   9.632
 1066POPC   PO415912   0.509  23.218   9.618
 1066POPC   GL115913   0.533  23.553   9.227
 1066POPC   GL215914   0.651  23.948   9.157
 1066POPC   C1A15915   0.373  23.697   8.814
 1066POPC   D2A15916   0.211  23.438   8.503
 1066POPC   C3A15917   0.482  23.416   8.153
 1066POPC   C4A15918   0.500  23.755   7.887
 1066POPC   C1B15919   0.841  23.928   8.767
 1066POPC   C2B15920   0.722  23.825   8.359
 1066POPC   C3B15921   0.907  24.046   8.000
 1066POPC   C4B15922   0.877  23.899   7.602
 1067POPC   NC315923  25.088  16.429   9.479
 1067POPC   PO415924  25.120  17.118   9.605
 1067POPC   GL115925  25.212  16.846   9.172
 1067POPC   GL215926  25.455  16.537   9.116
 1067POPC   C1A15927  25.469  16.934   8.775
 1067POPC   D2A15928  25.332  17.098   8.363
 1067POPC   C3A15929  25.053  16.816   8.194
 1067POPC   C4A15930  25.015  16.626   7.815
 1067POPC   C1B15931  25.473  16.321   8.741
 1067POPC   C2B15932  25.464  16.594   8.399
 1067POPC   C3B15933  25.506  16.699   7.990
 1067POPC   C4B15934  25.566  16.389   7.671
 1068POPC   NC315935  30.401  31.771   9.504
 1068POPC   PO415936  30.735  31.204   9.632
 1068POPC   GL115937  30.844  31.442   9.269
 1068POPC   GL215938  30.524  31.484   9.109
 1068POPC   C1A15939  30.937  31.513   8.822
 1068POPC   D2A15940  30.621  31.508   8.528
 1068POPC   C3A15941  30.823  31.448   8.165
 1068POPC   C4A15942  30.691  31.554   7.744
 1068POPC   C1B15943  30.323  31.784   8.860
 1068POPC   C2B15944  30.275  31.886   8.463
 1068POPC   C3B15945  30.329  31.636   8.091
 1068POPC   C4B15946  30.266  31.863   7.689
 1069POPC   NC315947   3.297  34.105   9.480
 1069POPC   PO415948   2.682  33.743   9.584
 1069POPC   GL115949   2.912  33.755   9.191
 1069POPC   GL215950   3.071  34.055   9.047
 1069POPC   C1A15951   2.967  33.632   8.759
 1069POPC   D2A15952   3.138  33.567   8.362
 1069POPC   C3A15953   2.798  33.525   8.120
 1069POPC   C4A15954   2.547  33.560   7.694
 1069POPC   C1B15955   2.837  34.158   8.706
 1069POPC   C2B15956   2.640  33.991   8.349
 1069POPC   C3B15957   2.717  33.983   7.918
 1069POPC   C4B15958   2.928  34.235   7.682
 1070POPC   NC315959  34.647  35.561   9.453
 1070POPC   PO415960  34.194  35.080   9.550
 1070POPC   GL115961  34.419  35.187   9.128
 1070POPC   GL215962  34.770  35.218   9.078
 1070POPC   C1A15963  34.474  35.336   8.662
 1070POPC   D2A15964  34.657  35.170   8.264
 1070POPC   C3A15965  34.362  35.188   7.933
 1070POPC   C4A15966  34.289  35.453   7.623
 1070POPC   C1B15967  34.879  35.592   8.827
 1070POPC   C2B15968  34.624  35.816   8.523
 1070POPC   C3B15969  34.472  35.646   8.141
 1070POPC   C4B15970  34.773  35.482   7.829
 1071POPC   NC315971  25.590  20.713   9.866
 1071POPC   PO415972  25.707  20.809   9.224
 1071POPC   GL115973  25.257  20.701   9.060
 1071POPC   GL215974  25.046  20.380   9.149
 1071POPC   C1A15975  25.036  20.660   8.701
 1071POPC   D2A15976  24.945  20.931   8.375
 1071POPC   C3A15977  25.006  20.697   8.023
 1071POPC   C4A15978  25.128  20.857   7.645
 1071POPC   C1B15979  25.311  20.237   8.754
 1071POPC   C2B15980  25.223  20.329   8.337
 1071POPC   C3B15981  25.445  20.366   7.957
 1071POPC   C4B15982  25.148  20.328   7.670
 1072POPC   NC315983  33.589  28.876   9.573
 1072POPC   PO415984  33.766  29.492   9.781
 1072POPC   GL115985  33.686  29.314   9.313
 1072POPC   GL215986  33.842  29.003   9.160
 1072POPC   C1A15987  33.616  29.395   8.854
 1072POPC   D2A15988  33.565  29.239   8.428
 1072POPC   C3A15989  33.655  29.460   8.056
 1072POPC   C4A15990  33.716  29.230   7.698
 1072POPC   C1B15991  33.953  29.031   8.738
 1072POPC   C2B15992  33.899  28.809   8.395
 1072POPC   C3B15993  34.034  28.898   7.966
 1072POPC   C4B15994  34.278  29.135   7.643
 1073POPC   NC315995  16.290  10.724   9.804
 1073POPC   PO415996  16.794  10.973   9.514
 1073POPC   GL115997  16.837  10.720   9.124
 1073POPC   GL215998  16.669  10.434   9.052
 1073POPC   C1A15999  16.794  10.845   8.700
 1073POPC   D2A16000  17.064  10.886   8.356
 1073POPC   C3A16001  16.859  10.781   7.964
 1073POPC   C4A16002  16.896  10.588   7.525
 1073POPC   C1B16003  16.509  10.416   8.610
 1073POPC   C2B16004  16.411  10.561   8.182
 1073POPC   C3B16005  16.595  10.326   7.836
 1073POPC   C4B16006  16.475  10.075   7.459
 1074POPC   NC316007  13.595  14.558   9.434
 1074POPC   PO416008  13.704  13.900   9.539
 1074POPC   GL116009  13.639  14.144   9.143
 1074POPC   GL216010  13.933  14.342   9.060
 1074POPC   C1A16011  13.566  14.263   8.703
 1074POPC   D2A16012  13.339  14.234   8.307
 1074POPC   C3A16013  13.530  14.323   7.903
 1074POPC   C4A16014  13.342  14.603   7.568
 1074POPC   C1B16015  13.820  14.678   8.740
 1074POPC   C2B16016  13.566  14.693   8.344
 1074POPC   C3B16017  13.680  14.827   7.925
 1074POPC   C4B16018  13.836  14.684   7.557
 1075POPC   NC316019  24.460   5.516   9.448
 1075POPC   PO416020  24.757   6.156   9.603
 1075POPC   GL116021  24.512   5.983   9.236
 1075POPC   GL216022  24.717   5.770   9.093
 1075POPC   C1A16023  24.329   5.791   8.802
 1075POPC   D2A16024  24.442   5.680   8.370
 1075POPC   C3A16025  24.279   5.799   7.962
 1075POPC   C4A16026  24.476   5.796   7.564
 1075POPC   C1B16027  24.930   5.885   8.735
 1075POPC   C2B16028  24.926   5.841   8.327
 1075POPC   C3B16029  24.828   5.745   7.929
 1075POPC   C4B16030  24.989   5.821   7.514
 1076POPC   NC316031  44.071  29.655   9.369
 1076POPC   PO416032  44.139  30.278   9.642
 1076POPC   GL116033  43.930  30.239   9.173
 1076POPC   GL216034  43.773  29.938   9.088
 1076POPC   C1A16035  44.018  30.161   8.704
 1076POPC   D2A16036  44.110  29.729   8.538
 1076POPC   C3A16037  44.105  29.701   8.104
 1076POPC   C4A16038  43.858  29.892   7.790
 1076POPC   C1B16039  43.608  29.886   8.673
 1076POPC   C2B16040  43.698  30.065   8.265
 1076POPC   C3B16041  43.497  30.265   7.880
 1076POPC   C4B16042  43.411  29.991   7.525
 1077POPC   NC316043   7.648  34.199   9.233
 1077POPC   PO416044   7.409  34.763   9.548
 1077POPC   GL116045   7.379  34.735   9.098
 1077POPC   GL216046   7.285  34.422   8.948
 1077POPC   C1A16047   7.253  34.824   8.652
 1077POPC   D2A16048   7.073  34.667   8.261
 1077POPC   C3A16049   7.435  34.626   8.006
 1077POPC   C4A16050   7.493  34.705   7.570
 1077POPC   C1B16051   7.042  34.222   8.623
 1077POPC   C2B16052   7.134  34.137   8.176
 1077POPC   C3B16053   7.436  34.142   7.821
 1077POPC   C4B16054   7.429  34.245   7.374
 1078POPC   NC316055   1.519  22.275   9.879
 1078POPC   PO416056   1.995  21.856   9.518
 1078POPC   GL116057   2.000  22.149   9.141
 1078POPC   GL216058   1.744  22.118   8.908
 1078POPC   C1A16059   2.170  22.339   8.783
 1078POPC   D2A16060   1.935  22.207   8.427
 1078POPC   C3A16061   1.955  22.480   8.075
 1078POPC   C4A16062   2.103  22.260   7.743
 1078POPC   C1B16063   1.471  21.972   8.608
 1078POPC   C2B16064   1.386  21.721   8.258
 1078POPC   C3B16065   1.680  21.950   7.958
 1078POPC   C4B16066   1.676  22.129   7.545
 1079POPC   NC316067   4.058  33.838   9.493
 1079POPC   PO416068   3.392  33.599   9.452
 1079POPC   GL116069   3.404  33.662   9.032
 1079POPC   GL216070   3.677  33.838   9.077
 1079POPC   C1A16071   3.381  33.961   8.663
 1079POPC   D2A16072   3.599  34.019   8.263
 1079POPC   C3A16073   3.461  33.674   7.954
 1079POPC   C4A16074   3.065  33.608   7.715
 1079POPC   C1B16075   3.903  34.055   8.765
 1079POPC   C2B16076   4.041  34.274   8.400
 1079POPC   C3B16077   4.049  34.137   7.984
 1079POPC   C4B16078   3.835  33.926   7.700
 1080POPC   NC316079   7.768  21.472   9.654
 1080POPC   PO416080   8.380  21.175   9.446
 1080POPC   GL116081   8.218  21.333   9.054
 1080POPC   GL216082   7.926  21.489   9.110
 1080POPC   C1A16083   8.212  21.495   8.650
 1080POPC   D2A16084   8.549  21.438   8.362
 1080POPC   C3A16085   8.450  21.309   7.941
 1080POPC   C4A16086   8.485  21.076   7.584
 1080POPC   C1B16087   7.708  21.649   8.742
 1080POPC   C2B16088   7.778  21.501   8.357
 1080POPC   C3B16089   8.107  21.627   8.140
 1080POPC   C4B16090   8.114  21.694   7.738
 1081POPC   NC316091  42.207  29.837   9.467
 1081POPC   PO416092  42.806  29.990   9.748
 1081POPC   GL116093  42.589  30.041   9.188
 1081POPC   GL216094  42.321  29.817   8.981
 1081POPC   C1A16095  42.368  30.268   8.772
 1081POPC   D2A16096  42.258  30.094   8.354
 1081POPC   C3A16097  42.424  30.227   7.957
 1081POPC   C4A16098  42.682  30.143   7.585
 1081POPC   C1B16099  42.297  29.626   8.573
 1081POPC   C2B16100  42.047  29.662   8.187
 1081POPC   C3B16101  42.064  29.896   7.773
 1081POPC   C4B16102  41.894  29.653   7.390
 1082POPC   NC316103  11.776  41.810   9.404
 1082POPC   PO416104  11.272  41.499   9.747
 1082POPC   GL116105  11.316  41.574   9.281
 1082POPC   GL216106  11.100  41.377   9.123
 1082POPC   C1A16107  11.512  41.572   8.831
 1082POPC   D2A16108  11.692  41.556   8.405
 1082POPC   C3A16109  11.510  41.642   8.033
 1082POPC   C4A16110  11.309  41.425   7.729
 1082POPC   C1B16111  11.020  41.624   8.742
 1082POPC   C2B16112  11.146  41.761   8.350
 1082POPC   C3B16113  11.008  41.785   7.928
 1082POPC   C4B16114  10.832  41.625   7.548
 1083POPC   NC316115  44.535  11.420   9.399
 1083POPC   PO416116  44.721  10.846   9.638
 1083POPC   GL116117  44.956  11.141   9.278
 1083POPC   GL216118  44.977  11.537   9.229
 1083POPC   C1A16119  44.835  11.179   8.821
 1083POPC   D2A16120  44.464  11.209   8.521
 1083POPC   C3A16121  44.538  11.319   8.093
 1083POPC   C4A16122  44.858  11.241   7.804
 1083POPC   C1B16123  44.912  11.689   8.802
 1083POPC   C2B16124  44.921  11.562   8.379
 1083POPC   C3B16125  44.930  11.780   7.981
 1083POPC   C4B16126  44.779  11.690   7.562
 1084POPC   NC316127  19.357  41.423   9.361
 1084POPC   PO416128  18.601  41.346   9.522
 1084POPC   GL116129  18.839  41.423   9.177
 1084POPC   GL216130  18.979  41.160   9.048
 1084POPC   C1A16131  18.730  41.454   8.744
 1084POPC   D2A16132  18.951  41.563   8.363
 1084POPC   C3A16133  18.811  41.492   7.979
 1084POPC   C4A16134  18.715  41.331   7.615
 1084POPC   C1B16135  19.251  41.371   8.739
 1084POPC   C2B16136  19.396  41.345   8.337
 1084POPC   C3B16137  19.350  41.522   7.943
 1084POPC   C4B16138  19.667  41.540   7.621
 1085POPC   NC316139  33.187  39.524   9.874
 1085POPC   PO416140  32.986  40.151   9.596
 1085POPC   GL116141  33.017  40.216   9.160
 1085POPC   GL216142  33.356  40.269   9.149
 1085POPC   C1A16143  32.952  39.993   8.766
 1085POPC   D2A16144  33.159  39.897   8.385
 1085POPC   C3A16145  32.976  40.021   7.999
 1085POPC   C4A16146  33.031  40.108   7.598
 1085POPC   C1B16147  33.282  40.371   8.692
 1085POPC   C2B16148  33.035  40.400   8.324
 1085POPC   C3B16149  33.078  40.508   7.898
 1085POPC   C4B16150  33.383  40.495   7.568
 1086POPC   NC316151  37.813  36.564   9.676
 1086POPC   PO416152  37.362  37.035   9.474
 1086POPC   GL116153  37.517  36.909   9.150
 1086POPC   GL216154  37.845  36.822   9.214
 1086POPC   C1A16155  37.602  37.016   8.766
 1086POPC   D2A16156  37.330  36.902   8.450
 1086POPC   C3A16157  37.425  36.713   8.105
 1086POPC   C4A16158  37.388  36.887   7.727
 1086POPC   C1B16159  37.927  36.564   8.855
 1086POPC   C2B16160  37.822  36.494   8.413
 1086POPC   C3B16161  37.903  36.593   7.975
 1086POPC   C4B16162  37.887  36.910   7.651
 1087POPC   NC316163  15.512  13.004   9.926
 1087POPC   PO416164  14.948  12.817   9.655
 1087POPC   GL116165  15.131  12.723   9.156
 1087POPC   GL216166  15.296  13.041   8.946
 1087POPC   C1A16167  15.157  12.632   8.676
 1087POPC   D2A16168  14.886  12.739   8.333
 1087POPC   C3A16169  14.887  13.168   8.180
 1087POPC   C4A16170  14.797  13.197   7.752
 1087POPC   C1B16171  15.578  12.969   8.615
 1087POPC   C2B16172  15.455  12.804   8.228
 1087POPC   C3B16173  15.313  12.970   7.860
 1087POPC   C4B16174  15.251  13.397   7.870
 1088POPC   NC316175  18.033  21.173   9.359
 1088POPC   PO416176  17.979  20.517   9.469
 1088POPC   GL116177  18.210  20.718   9.130
 1088POPC   GL216178  18.159  20.396   8.991
 1088POPC   C1A16179  18.128  20.895   8.704
 1088POPC   D2A16180  17.845  20.685   8.398
 1088POPC   C3A16181  18.077  20.585   8.015
 1088POPC   C4A16182  18.407  20.857   7.807
 1088POPC   C1B16183  18.270  20.411   8.579
 1088POPC   C2B16184  18.476  20.688   8.308
 1088POPC   C3B16185  18.563  20.419   7.972
 1088POPC   C4B16186  18.357  20.198   7.662
 1089POPC   NC316187  24.981  32.378   9.448
 1089POPC   PO416188  25.382  31.821   9.363
 1089POPC   GL116189  25.188  32.042   9.032
 1089POPC   GL216190  25.056  32.387   8.946
 1089POPC   C1A16191  25.216  32.055   8.609
 1089POPC   D2A16192  25.174  32.395   8.349
 1089POPC   C3A16193  25.346  32.158   8.034
 1089POPC   C4A16194  25.172  32.153   7.660
 1089POPC   C1B16195  25.532  32.393   8.796
 1089POPC   C2B16196  25.665  32.494   8.371
 1089POPC   C3B16197  25.546  32.608   7.945
 1089POPC   C4B16198  25.659  32.325   7.613
 1090POPC   NC316199  26.065  44.383   9.421
 1090POPC   PO416200  26.297   0.072   9.464
 1090POPC   GL116201  26.186  44.927   9.094
 1090POPC   GL216202  26.341  44.627   9.063
 1090POPC   C1A16203  26.056  44.844   8.690
 1090POPC   D2A16204  26.308  44.748   8.345
 1090POPC   C3A16205  26.050  44.787   8.000
 1090POPC   C4A16206  25.832  44.507   7.743
 1090POPC   C1B16207  26.257  44.313   8.737
 1090POPC   C2B16208  26.124  44.229   8.311
 1090POPC   C3B16209  26.357  44.396   7.969
 1090POPC   C4B16210  26.342  44.577   7.613
 1091POPC   NC316211  33.719  35.297   9.360
 1091POPC   PO416212  34.279  35.678   9.200
 1091POPC   GL116213  33.974  35.478   8.960
 1091POPC   GL216214  33.620  35.647   9.014
 1091POPC   C1A16215  33.731  35.268   8.654
 1091POPC   D2A16216  33.640  35.025   8.310
 1091POPC   C3A16217  33.831  35.254   7.966
 1091POPC   C4A16218  33.710  35.277   7.551
 1091POPC   C1B16219  33.743  35.798   8.620
 1091POPC   C2B16220  33.841  35.732   8.199
 1091POPC   C3B16221  33.592  35.688   7.820
 1091POPC   C4B16222  33.440  35.689   7.369
 1092POPC   NC316223  21.220  15.412   9.641
 1092POPC   PO416224  21.180  14.795   9.283
 1092POPC   GL116225  21.378  15.130   9.216
 1092POPC   GL216226  21.138  15.388   9.133
 1092POPC   C1A16227  21.606  15.158   8.849
 1092POPC   D2A16228  21.391  15.049   8.482
 1092POPC   C3A16229  21.439  14.896   8.084
 1092POPC   C4A16230  21.128  14.939   7.781
 1092POPC   C1B16231  21.210  15.477   8.700
 1092POPC   C2B16232  21.411  15.613   8.313
 1092POPC   C3B16233  21.314  15.433   7.907
 1092POPC   C4B16234  21.024  15.401   7.560
 1093POPC   NC316235  23.739  37.556   9.785
 1093POPC   PO416236  23.135  37.751   9.495
 1093POPC   GL116237  22.837  37.667   9.188
 1093POPC   GL216238  23.064  37.488   8.961
 1093POPC   C1A16239  22.686  37.795   8.783
 1093POPC   D2A16240  22.968  37.695   8.437
 1093POPC   C3A16241  22.817  37.629   8.055
 1093POPC   C4A16242  22.737  37.915   7.765
 1093POPC   C1B16243  22.794  37.277   8.642
 1093POPC   C2B16244  23.011  37.203   8.269
 1093POPC   C3B16245  23.274  37.338   7.957
 1093POPC   C4B16246  23.085  37.333   7.559
 1094POPC   NC316247  12.981  42.842   9.603
 1094POPC   PO416248  12.366  42.963   9.401
 1094POPC   GL116249  12.676  43.117   9.081
 1094POPC   GL216250  13.025  43.285   9.113
 1094POPC   C1A16251  12.857  43.106   8.657
 1094POPC   D2A16252  13.078  42.905   8.292
 1094POPC   C3A16253  12.823  43.085   7.970
 1094POPC   C4A16254  12.518  43.163   7.670
 1094POPC   C1B16255  13.117  43.551   8.712
 1094POPC   C2B16256  13.067  43.430   8.304
 1094POPC   C3B16257  13.318  43.268   8.039
 1094POPC   C4B16258  13.209  43.322   7.676
 1095POPC   NC316259   0.592  39.394   9.453
 1095POPC   PO416260  44.913  39.407   9.696
 1095POPC   GL116261   0.039  39.250   9.259
 1095POPC   GL216262   0.323  39.042   9.187
 1095POPC   C1A16263   0.120  39.319   8.795
 1095POPC   D2A16264   0.407  39.500   8.480
 1095POPC   C3A16265   0.500  39.403   8.041
 1095POPC   C4A16266   0.864  39.645   7.837
 1095POPC   C1B16267   0.566  39.034   8.770
 1095POPC   C2B16268   0.457  38.941   8.312
 1095POPC   C3B16269   0.340  38.914   7.863
 1095POPC   C4B16270   0.406  38.917   7.355
 1096POPC   NC316271   8.419   6.020   9.534
 1096POPC   PO416272   8.087   5.452   9.556
 1096POPC   GL116273   8.092   5.698   9.204
 1096POPC   GL216274   8.426   5.591   9.169
 1096POPC   C1A16275   7.909   5.860   8.797
 1096POPC   D2A16276   8.009   6.093   8.397
 1096POPC   C3A16277   8.110   5.890   7.983
 1096POPC   C4A16278   8.008   6.012   7.554
 1096POPC   C1B16279   8.466   5.789   8.793
 1096POPC   C2B16280   8.508   6.008   8.428
 1096POPC   C3B16281   8.494   6.198   8.046
 1096POPC   C4B16282   8.561   5.875   7.717
 1097POPC   NC316283   5.130   7.076   9.435
 1097POPC   PO416284   5.412   7.729   9.611
 1097POPC   GL116285   5.219   7.574   9.175
 1097POPC   GL216286   4.854   7.627   9.160
 1097POPC   C1A16287   5.273   7.467   8.694
 1097POPC   D2A16288   5.317   7.542   8.203
 1097POPC   C3A16289   5.216   7.181   7.878
 1097POPC   C4A16290   4.954   7.101   7.473
 1097POPC   C1B16291   4.769   7.495   8.724
 1097POPC   C2B16292   4.826   7.697   8.327
 1097POPC   C3B16293   4.864   7.548   7.902
 1097POPC   C4B16294   4.841   7.667   7.464
 1098POPC   NC316295  19.028   7.665   9.455
 1098POPC   PO416296  18.754   7.047   9.635
 1098POPC   GL116297  18.759   7.290   9.210
 1098POPC   GL216298  19.096   7.306   9.081
 1098POPC   C1A16299  18.788   7.523   8.744
 1098POPC   D2A16300  19.008   7.714   8.391
 1098POPC   C3A16301  18.876   7.532   8.054
 1098POPC   C4A16302  18.901   7.661   7.677
 1098POPC   C1B16303  19.309   7.489   8.725
 1098POPC   C2B16304  19.431   7.366   8.316
 1098POPC   C3B16305  19.289   7.297   7.897
 1098POPC   C4B16306  19.331   7.467   7.488
 1099POPC   NC316307  21.720  37.254   9.760
 1099POPC   PO416308  21.219  37.701   9.443
 1099POPC   GL116309  21.300  37.627   9.051
 1099POPC   GL216310  21.629  37.752   9.026
 1099POPC   C1A16311  21.075  37.525   8.702
 1099POPC   D2A16312  21.069  37.725   8.331
 1099POPC   C3A16313  21.293  37.498   8.039
 1099POPC   C4A16314  21.439  37.812   7.782
 1099POPC   C1B16315  21.773  37.500   8.658
 1099POPC   C2B16316  21.798  37.630   8.218
 1099POPC   C3B16317  21.868  37.534   7.802
 1099POPC   C4B16318  21.630  37.455   7.455
 1100POPC   NC316319   1.687   0.676   9.754
 1100POPC   PO416320   2.142   0.293   9.522
 1100POPC   GL116321   1.923   0.191   9.179
 1100POPC   GL216322   1.978   0.515   9.070
 1100POPC   C1A16323   2.027   0.153   8.736
 1100POPC   D2A16324   1.760   0.314   8.388
 1100POPC   C3A16325   2.030   0.292   8.028
 1100POPC   C4A16326   2.159   0.313   7.589
 1100POPC   C1B16327   2.028   0.673   8.659
 1100POPC   C2B16328   1.921   0.787   8.242
 1100POPC   C3B16329   1.835   0.802   7.824
 1100POPC   C4B16330   1.975   0.780   7.426
 1101POPC   NC316331  29.960  33.146   9.553
 1101POPC   PO416332  29.357  32.983   9.334
 1101POPC   GL116333  29.753  33.033   9.105
 1101POPC   GL216334  29.947  32.716   9.246
 1101POPC   C1A16335  29.991  33.290   8.774
 1101POPC   D2A16336  30.109  33.507   8.422
 1101POPC   C3A16337  30.107  33.233   8.080
 1101POPC   C4A16338  30.010  33.119   7.681
 1101POPC   C1B16339  29.764  32.602   8.855
 1101POPC   C2B16340  29.589  32.675   8.456
 1101POPC   C3B16341  29.788  32.783   8.074
 1101POPC   C4B16342  29.601  32.781   7.684
 1102POPC   NC316343  41.111  18.645   9.410
 1102POPC   PO416344  40.718  18.259   9.679
 1102POPC   GL116345  40.723  18.288   9.193
 1102POPC   GL216346  40.974  18.482   8.957
 1102POPC   C1A16347  40.530  18.287   8.783
 1102POPC   D2A16348  40.510  18.247   8.335
 1102POPC   C3A16349  40.831  18.497   8.148
 1102POPC   C4A16350  40.904  18.603   7.725
 1102POPC   C1B16351  41.069  18.226   8.615
 1102POPC   C2B16352  41.025  17.980   8.254
 1102POPC   C3B16353  40.938  18.079   7.848
 1102POPC   C4B16354  41.265  18.223   7.614
 1103POPC   NC316355  12.751  11.988   9.527
 1103POPC   PO416356  12.920  12.601   9.655
 1103POPC   GL116357  12.995  12.344   9.235
 1103POPC   GL216358  13.056  12.013   9.084
 1103POPC   C1A16359  12.865  12.329   8.753
 1103POPC   D2A16360  12.514  12.216   8.467
 1103POPC   C3A16361  12.666  12.129   8.060
 1103POPC   C4A16362  12.622  12.319   7.679
 1103POPC   C1B16363  12.723  11.811   8.810
 1103POPC   C2B16364  12.691  11.677   8.375
 1103POPC   C3B16365  12.577  11.643   7.933
 1103POPC   C4B16366  12.825  11.858   7.609
 1104POPC   NC316367  27.925  36.852   9.692
 1104POPC   PO416368  27.458  37.178   9.355
 1104POPC   GL116369  27.724  37.012   8.997
 1104POPC   GL216370  27.727  36.634   8.870
 1104POPC   C1A16371  27.657  37.023   8.553
 1104POPC   D2A16372  27.460  37.054   8.146
 1104POPC   C3A16373  27.757  37.066   7.843
 1104POPC   C4A16374  27.800  37.051   7.411
 1104POPC   C1B16375  27.882  36.390   8.551
 1104POPC   C2B16376  27.756  36.629   8.219
 1104POPC   C3B16377  27.585  36.610   7.858
 1104POPC   C4B16378  27.874  36.464   7.670
 1105POPC   NC316379  16.430  11.010   9.241
 1105POPC   PO416380  16.562  11.571   9.580
 1105POPC   GL116381  16.725  11.621   9.169
 1105POPC   GL216382  16.846  11.310   9.131
 1105POPC   C1A16383  16.714  11.648   8.731
 1105POPC   D2A16384  16.710  11.305   8.443
 1105POPC   C3A16385  16.658  11.480   8.052
 1105POPC   C4A16386  16.590  11.480   7.632
 1105POPC   C1B16387  17.099  11.279   8.795
 1105POPC   C2B16388  17.248  11.371   8.392
 1105POPC   C3B16389  17.126  11.245   7.988
 1105POPC   C4B16390  17.089  11.496   7.668
 1106POPC   NC316391  12.141  36.364   9.443
 1106POPC   PO416392  11.559  36.199   9.748
 1106POPC   GL116393  11.685  36.166   9.239
 1106POPC   GL216394  11.875  36.393   9.017
 1106POPC   C1A16395  11.872  35.928   8.811
 1106POPC   D2A16396  12.173  35.931   8.394
 1106POPC   C3A16397  12.085  35.875   7.913
 1106POPC   C4A16398  12.206  35.800   7.454
 1106POPC   C1B16399  11.968  36.605   8.635
 1106POPC   C2B16400  12.015  36.412   8.254
 1106POPC   C3B16401  12.133  36.382   7.844
 1106POPC   C4B16402  12.100  36.358   7.410
 1107POPC   NC316403  18.481  44.126   9.510
 1107POPC   PO416404  18.559  43.490   9.411
 1107POPC   GL116405  18.452  43.811   9.092
 1107POPC   GL216406  18.136  44.009   9.142
 1107POPC   C1A16407  18.436  43.802   8.646
 1107POPC   D2A16408  18.184  43.758   8.276
 1107POPC   C3A16409  18.473  43.760   7.916
 1107POPC   C4A16410  18.597  43.662   7.462
 1107POPC   C1B16411  18.100  44.186   8.733
 1107POPC   C2B16412  18.239  44.275   8.315
 1107POPC   C3B16413  18.129  44.123   7.901
 1107POPC   C4B16414  18.002  43.655   7.802
 1108POPC   NC316415  40.601  11.444   9.643
 1108POPC   PO416416  40.885  10.872   9.635
 1108POPC   GL116417  40.804  11.177   9.243
 1108POPC   GL216418  40.465  11.415   9.160
 1108POPC   C1A16419  40.849  11.405   8.845
 1108POPC   D2A16420  40.722  11.288   8.449
 1108POPC   C3A16421  41.031  11.219   8.133
 1108POPC   C4A16422  41.076  11.055   7.738
 1108POPC   C1B16423  40.323  11.239   8.778
 1108POPC   C2B16424  40.238  11.043   8.378
 1108POPC   C3B16425  40.384  11.326   8.063
 1108POPC   C4B16426  40.674  11.367   7.747
 1109POPC   NC316427  26.062  14.852   9.523
 1109POPC   PO416428  25.894  14.181   9.582
 1109POPC   GL116429  26.227  14.279   9.279
 1109POPC   GL216430  26.186  14.589   9.118
 1109POPC   C1A16431  26.319  14.195   8.838
 1109POPC   D2A16432  26.155  14.134   8.439
 1109POPC   C3A16433  25.940  14.358   8.119
 1109POPC   C4A16434  26.047  14.270   7.702
 1109POPC   C1B16435  26.017  14.650   8.745
 1109POPC   C2B16436  26.092  14.779   8.358
 1109POPC   C3B16437  26.371  14.664   8.034
 1109POPC   C4B16438  26.208  14.767   7.648
 1110POPC   NC316439  16.488  40.706   9.460
 1110POPC   PO416440  17.116  40.950   9.484
 1110POPC   GL116441  16.856  40.898   9.128
 1110POPC   GL216442  16.849  40.551   9.129
 1110POPC   C1A16443  16.678  40.946   8.689
 1110POPC   D2A16444  16.505  40.976   8.248
 1110POPC   C3A16445  16.506  40.997   7.767
 1110POPC   C4A16446  16.573  40.934   7.299
 1110POPC   C1B16447  16.635  40.449   8.788
 1110POPC   C2B16448  16.777  40.536   8.375
 1110POPC   C3B16449  16.581  40.509   7.991
 1110POPC   C4B16450  16.513  40.516   7.576
 1111POPC   NC316451   3.195  20.133   9.422
 1111POPC   PO416452   2.693  19.706   9.594
 1111POPC   GL116453   2.672  19.685   9.180
 1111POPC   GL216454   3.014  19.726   9.121
 1111POPC   C1A16455   2.643  19.946   8.818
 1111POPC   D2A16456   2.788  19.786   8.446
 1111POPC   C3A16457   2.567  19.838   8.065
 1111POPC   C4A16458   2.631  19.659   7.683
 1111POPC   C1B16459   3.173  19.935   8.751
 1111POPC   C2B16460   3.280  20.048   8.352
 1111POPC   C3B16461   3.075  19.845   8.038
 1111POPC   C4B16462   3.159  19.686   7.687
 1112POPC   NC316463   7.917  44.221   9.539
 1112POPC   PO416464   8.535  43.846   9.514
 1112POPC   GL116465   8.467  43.966   9.108
 1112POPC   GL216466   8.134  44.076   9.107
 1112POPC   C1A16467   8.344  43.797   8.706
 1112POPC   D2A16468   8.364  43.685   8.263
 1112POPC   C3A16469   8.413  44.026   7.975
 1112POPC   C4A16470   8.339  43.814   7.610
 1112POPC   C1B16471   7.844  43.899   8.803
 1112POPC   C2B16472   7.971  44.009   8.391
 1112POPC   C3B16473   7.915  43.845   8.002
 1112POPC   C4B16474   7.878  44.017   7.637
 1113POPC   NC316475   3.059  19.374   9.554
 1113POPC   PO416476   2.851  18.743   9.376
 1113POPC   GL116477   2.728  19.103   9.155
 1113POPC   GL216478   2.384  18.930   9.117
 1113POPC   C1A16479   2.884  19.367   8.794
 1113POPC   D2A16480   3.124  19.409   8.390
 1113POPC   C3A16481   2.945  19.332   7.984
 1113POPC   C4A16482   2.758  18.956   7.802
 1113POPC   C1B16483   2.352  19.277   8.816
 1113POPC   C2B16484   2.542  19.356   8.420
 1113POPC   C3B16485   2.436  19.329   8.031
 1113POPC   C4B16486   2.309  19.170   7.653
 1114POPC   NC316487   4.764  29.995   9.458
 1114POPC   PO416488   5.444  29.833   9.526
 1114POPC   GL116489   5.173  29.917   9.152
 1114POPC   GL216490   4.911  29.694   9.069
 1114POPC   C1A16491   5.100  29.990   8.705
 1114POPC   D2A16492   5.079  29.704   8.359
 1114POPC   C3A16493   5.053  29.993   8.006
 1114POPC   C4A16494   5.402  30.149   7.814
 1114POPC   C1B16495   4.687  29.439   8.735
 1114POPC   C2B16496   4.592  29.448   8.282
 1114POPC   C3B16497   4.886  29.518   7.923
 1114POPC   C4B16498   5.220  29.634   7.600
 1115POPC   NC316499  18.690  40.911   9.394
 1115POPC   PO416500  19.349  40.954   9.315
 1115POPC   GL116501  19.228  40.728   8.948
 1115POPC   GL216502  18.887  40.640   9.021
 1115POPC   C1A16503  19.024  40.937   8.585
 1115POPC   D2A16504  19.048  41.049   8.140
 1115POPC   C3A16505  19.152  41.071   7.733
 1115POPC   C4A16506  19.262  40.711   7.462
 1115POPC   C1B16507  18.729  40.488   8.656
 1115POPC   C2B16508  18.758  40.618   8.254
 1115POPC   C3B16509  18.906  40.619   7.836
 1115POPC   C4B16510  18.705  40.747   7.475
 1116POPC   NC316511  18.022  43.240   9.449
 1116POPC   PO416512  18.554  43.009   9.768
 1116POPC   GL116513  18.493  42.998   9.268
 1116POPC   GL216514  18.180  42.908   9.096
 1116POPC   C1A16515  18.453  43.208   8.826
 1116POPC   D2A16516  18.479  43.044   8.405
 1116POPC   C3A16517  18.360  43.294   8.067
 1116POPC   C4A16518  18.703  43.330   7.810
 1116POPC   C1B16519  18.279  42.720   8.732
 1116POPC   C2B16520  18.158  42.654   8.341
 1116POPC   C3B16521  18.197  42.840   7.937
 1116POPC   C4B16522  17.939  42.822   7.580
 1117POPC   NC316523   7.290  20.568   9.608
 1117POPC   PO416524   6.831  20.455   9.188
 1117POPC   GL116525   7.235  20.464   9.021
 1117POPC   GL216526   7.511  20.684   9.158
 1117POPC   C1A16527   7.192  20.456   8.574
 1117POPC   D2A16528   7.114  20.749   8.222
 1117POPC   C3A16529   7.244  20.641   7.792
 1117POPC   C4A16530   7.173  20.721   7.365
 1117POPC   C1B16531   7.681  20.635   8.745
 1117POPC   C2B16532   7.603  20.594   8.317
 1117POPC   C3B16533   7.675  20.818   7.966
 1117POPC   C4B16534   7.735  20.590   7.638
 1118POPC   NC316535  44.545   5.639   9.378
 1118POPC   PO416536  44.777   6.261   9.438
 1118POPC   GL116537  44.474   6.096   9.151
 1118POPC   GL216538  44.783   5.927   9.023
 1118POPC   C1A16539  44.349   5.880   8.754
 1118POPC   D2A16540  44.536   5.688   8.369
 1118POPC   C3A16541  44.333   5.827   8.015
 1118POPC   C4A16542  44.482   6.000   7.623
 1118POPC   C1B16543   0.000   5.635   8.778
 1118POPC   C2B16544   0.057   5.718   8.359
 1118POPC   C3B16545  44.873   5.884   8.005
 1118POPC   C4B16546   0.042   5.720   7.659
 1119POPC   NC316547  36.932  10.635   9.629
 1119POPC   PO416548  37.243  10.090   9.369
 1119POPC   GL116549  36.917  10.389   9.146
 1119POPC   GL216550  36.861  10.760   9.093
 1119POPC   C1A16551  36.738  10.437   8.730
 1119POPC   D2A16552  36.993  10.493   8.371
 1119POPC   C3A16553  36.850  10.370   7.990
 1119POPC   C4A16554  36.544  10.461   7.701
 1119POPC   C1B16555  36.961  10.976   8.630
 1119POPC   C2B16556  37.048  10.945   8.143
 1119POPC   C3B16557  37.040  10.779   7.698
 1119POPC   C4B16558  37.270  10.718   7.278
 1120POPC   NC316559  21.110   8.140   9.450
 1120POPC   PO416560  21.764   7.934   9.508
 1120POPC   GL116561  21.567   8.165   9.163
 1120POPC   GL216562  21.440   7.846   9.070
 1120POPC   C1A16563  21.407   8.464   8.826
 1120POPC   D2A16564  21.084   8.438   8.479
 1120POPC   C3A16565  21.267   8.324   8.086
 1120POPC   C4A16566  21.672   8.431   7.895
 1120POPC   C1B16567  21.507   8.002   8.657
 1120POPC   C2B16568  21.682   8.019   8.258
 1120POPC   C3B16569  21.616   7.850   7.875
 1120POPC   C4B16570  21.283   7.718   7.606
 1121POPC   NC316571  36.232   4.171   9.642
 1121POPC   PO416572  35.639   4.407   9.496
 1121POPC   GL116573  35.980   4.429   9.190
 1121POPC   GL216574  36.120   4.745   9.114
 1121POPC   C1A16575  36.122   4.216   8.810
 1121POPC   D2A16576  36.354   4.214   8.396
 1121POPC   C3A16577  36.193   4.202   7.990
 1121POPC   C4A16578  35.950   4.169   7.594
 1121POPC   C1B16579  36.018   4.698   8.693
 1121POPC   C2B16580  36.060   4.611   8.285
 1121POPC   C3B16581  35.775   4.460   8.002
 1121POPC   C4B16582  35.630   4.645   7.672
 1122POPC   NC316583  36.438  15.755   9.523
 1122POPC   PO416584  36.431  16.333   9.352
 1122POPC   GL116585  36.310  16.035   9.088
 1122POPC   GL216586  36.032  15.862   9.202
 1122POPC   C1A16587  36.320  15.986   8.674
 1122POPC   D2A16588  36.204  16.153   8.286
 1122POPC   C3A16589  36.340  15.849   7.969
 1122POPC   C4A16590  36.403  15.834   7.513
 1122POPC   C1B16591  35.840  15.760   8.778
 1122POPC   C2B16592  35.584  15.836   8.394
 1122POPC   C3B16593  35.783  15.990   8.035
 1122POPC   C4B16594  35.916  15.775   7.699
 1123POPC   NC316595   3.830   4.048   9.289
 1123POPC   PO416596   3.264   4.268   9.596
 1123POPC   GL116597   3.391   4.320   9.168
 1123POPC   GL216598   3.356   3.948   9.163
 1123POPC   C1A16599   3.586   4.222   8.736
 1123POPC   D2A16600   3.825   4.429   8.407
 1123POPC   C3A16601   3.687   4.388   7.982
 1123POPC   C4A16602   3.778   4.483   7.568
 1123POPC   C1B16603   3.106   4.050   8.824
 1123POPC   C2B16604   3.168   4.237   8.427
 1123POPC   C3B16605   3.251   4.105   8.030
 1123POPC   C4B16606   3.463   4.043   7.636
 1124POPC   NC316607  39.084   3.461   9.403
 1124POPC   PO416608  39.691   3.853   9.446
 1124POPC   GL116609  39.426   3.754   9.103
 1124POPC   GL216610  39.455   3.419   9.063
 1124POPC   C1A16611  39.477   3.803   8.664
 1124POPC   D2A16612  39.290   3.692   8.277
 1124POPC   C3A16613  39.307   3.449   7.939
 1124POPC   C4A16614  38.985   3.435   7.656
 1124POPC   C1B16615  39.149   3.433   8.744
 1124POPC   C2B16616  39.208   3.207   8.389
 1124POPC   C3B16617  39.157   2.972   8.067
 1124POPC   C4B16618  39.355   2.983   7.712
 1125POPC   NC316619  29.660  42.193   9.334
 1125POPC   PO416620  30.290  42.500   9.468
 1125POPC   GL116621  30.045  42.480   9.105
 1125POPC   GL216622  29.765  42.671   9.138
 1125POPC   C1A16623  29.917  42.182   8.759
 1125POPC   D2A16624  30.051  42.039   8.393
 1125POPC   C3A16625  29.793  42.143   8.085
 1125POPC   C4A16626  29.882  42.158   7.657
 1125POPC   C1B16627  29.562  42.591   8.767
 1125POPC   C2B16628  29.793  42.553   8.401
 1125POPC   C3B16629  29.856  42.623   7.993
 1125POPC   C4B16630  29.471  42.438   7.764
 1126POPC   NC316631  36.684  24.561  10.141
 1126POPC   PO416632  36.658  24.763   9.493
 1126POPC   GL116633  36.726  24.541   9.113
 1126POPC   GL216634  37.083  24.536   9.171
 1126POPC   C1A16635  36.844  24.586   8.675
 1126POPC   D2A16636  36.822  24.701   8.225
 1126POPC   C3A16637  36.890  24.373   7.976
 1126POPC   C4A16638  36.609  24.234   7.660
 1126POPC   C1B16639  37.310  24.349   8.848
 1126POPC   C2B16640  37.189  24.287   8.420
 1126POPC   C3B16641  37.350  24.132   8.044
 1126POPC   C4B16642  37.384  24.314   7.628
 1127POPC   NC316643  35.002  13.888   9.467
 1127POPC   PO416644  34.401  13.646   9.388
 1127POPC   GL116645  34.778  13.582   9.111
 1127POPC   GL216646  34.910  13.921   8.977
 1127POPC   C1A16647  34.747  13.384   8.712
 1127POPC   D2A16648  34.356  13.442   8.477
 1127POPC   C3A16649  34.344  13.564   8.064
 1127POPC   C4A16650  34.205  13.619   7.681
 1127POPC   C1B16651  34.542  13.847   8.744
 1127POPC   C2B16652  34.699  13.800   8.344
 1127POPC   C3B16653  34.670  13.970   7.938
 1127POPC   C4B16654  34.665  13.912   7.501
 1128POPC   NC316655   6.356  22.176   9.500
 1128POPC   PO416656   7.005  21.914   9.672
 1128POPC   GL116657   6.790  22.065   9.258
 1128POPC   GL216658   6.745  22.459   9.195
 1128POPC   C1A16659   6.736  22.096   8.796
 1128POPC   D2A16660   6.872  22.286   8.414
 1128POPC   C3A16661   6.718  22.106   8.023
 1128POPC   C4A16662   6.854  22.037   7.593
 1128POPC   C1B16663   6.455  22.529   8.829
 1128POPC   C2B16664   6.328  22.331   8.450
 1128POPC   C3B16665   6.328  22.467   8.028
 1128POPC   C4B16666   6.630  22.521   7.702
 1129POPC   NC316667  33.803   6.813   9.566
 1129POPC   PO416668  33.228   6.377   9.393
 1129POPC   GL116669  33.535   6.482   9.098
 1129POPC   GL216670  33.657   6.858   9.083
 1129POPC   C1A16671  33.709   6.488   8.684
 1129POPC   D2A16672  33.615   6.767   8.337
 1129POPC   C3A16673  33.673   6.499   8.052
 1129POPC   C4A16674  33.736   6.409   7.684
 1129POPC   C1B16675  33.951   6.940   8.731
 1129POPC   C2B16676  34.118   6.741   8.343
 1129POPC   C3B16677  34.034   6.826   7.908
 1129POPC   C4B16678  33.610   6.932   7.756
 1130POPC   NC316679  23.251  29.621   9.458
 1130POPC   PO416680  22.614  29.619   9.501
 1130POPC   GL116681  22.838  29.824   9.179
 1130POPC   GL216682  23.079  30.046   9.137
 1130POPC   C1A16683  22.792  29.919   8.724
 1130POPC   D2A16684  22.695  30.221   8.387
 1130POPC   C3A16685  22.547  29.988   8.040
 1130POPC   C4A16686  22.796  29.833   7.711
 1130POPC   C1B16687  23.071  30.335   8.793
 1130POPC   C2B16688  23.230  30.277   8.404
 1130POPC   C3B16689  23.236  29.993   8.069
 1130POPC   C4B16690  23.019  30.263   7.844
 1131POPC   NC316691   0.637   8.677   9.788
 1131POPC   PO416692   0.640   8.132   9.411
 1131POPC   GL116693   0.342   8.090   9.107
 1131POPC   GL216694   0.050   8.333   9.185
 1131POPC   C1A16695   0.230   7.907   8.722
 1131POPC   D2A16696   0.230   8.120   8.329
 1131POPC   C3A16697   0.292   7.939   7.928
 1131POPC   C4A16698   0.432   7.880   7.490
 1131POPC   C1B16699   0.256   8.436   8.764
 1131POPC   C2B16700   0.310   8.636   8.368
 1131POPC   C3B16701   0.230   8.566   7.949
 1131POPC   C4B16702   0.415   8.359   7.645
 1132POPC   NC316703  30.080   4.504   9.462
 1132POPC   PO416704  29.415   4.230   9.508
 1132POPC   GL116705  29.591   4.331   9.128
 1132POPC   GL216706  29.771   4.649   9.096
 1132POPC   C1A16707  29.797   4.295   8.727
 1132POPC   D2A16708  29.978   4.075   8.409
 1132POPC   C3A16709  29.894   4.292   8.028
 1132POPC   C4A16710  30.124   4.153   7.690
 1132POPC   C1B16711  30.135   4.653   8.821
 1132POPC   C2B16712  30.193   4.558   8.391
 1132POPC   C3B16713  30.152   4.750   8.011
 1132POPC   C4B16714  30.143   4.644   7.640
 1133POPC   NC316715  42.919  26.223   9.777
 1133POPC   PO416716  43.430  25.877   9.487
 1133POPC   GL116717  43.404  25.960   9.059
 1133POPC   GL216718  43.416  26.330   9.095
 1133POPC   C1A16719  43.185  25.759   8.698
 1133POPC   D2A16720  42.936  25.961   8.373
 1133POPC   C3A16721  43.111  25.911   7.964
 1133POPC   C4A16722  42.926  25.821   7.574
 1133POPC   C1B16723  43.074  26.325   8.762
 1133POPC   C2B16724  42.926  26.481   8.335
 1133POPC   C3B16725  42.983  26.397   7.871
 1133POPC   C4B16726  42.805  26.295   7.432
 1134POPC   NC316727  41.865  40.364   9.444
 1134POPC   PO416728  41.206  40.054   9.462
 1134POPC   GL116729  41.461  40.229   9.164
 1134POPC   GL216730  41.192  40.389   8.991
 1134POPC   C1A16731  41.745  40.140   8.803
 1134POPC   D2A16732  41.942  40.274   8.415
 1134POPC   C3A16733  41.735  40.203   8.066
 1134POPC   C4A16734  41.788  39.950   7.729
 1134POPC   C1B16735  41.231  39.989   8.792
 1134POPC   C2B16736  41.447  39.890   8.442
 1134POPC   C3B16737  41.284  39.814   8.059
 1134POPC   C4B16738  41.308  40.108   7.819
 1135POPC   NC316739  15.899  34.844   9.554
 1135POPC   PO416740  15.879  34.212   9.488
 1135POPC   GL116741  16.038  34.482   9.179
 1135POPC   GL216742  15.774  34.670   9.095
 1135POPC   C1A16743  16.047  34.435   8.726
 1135POPC   D2A16744  16.366  34.395   8.412
 1135POPC   C3A16745  16.183  34.540   8.035
 1135POPC   C4A16746  16.149  34.326   7.661
 1135POPC   C1B16747  15.521  34.472   8.804
 1135POPC   C2B16748  15.566  34.364   8.396
 1135POPC   C3B16749  15.664  34.521   8.031
 1135POPC   C4B16750  15.761  34.644   7.633
 1136POPC   NC316751  13.521  26.129   9.418
 1136POPC   PO416752  14.010  25.688   9.353
 1136POPC   GL116753  13.805  25.906   9.056
 1136POPC   GL216754  13.467  25.767   9.062
 1136POPC   C1A16755  13.765  26.294   8.786
 1136POPC   D2A16756  13.586  26.359   8.366
 1136POPC   C3A16757  13.804  26.181   8.035
 1136POPC   C4A16758  13.809  25.974   7.658
 1136POPC   C1B16759  13.499  25.869   8.641
 1136POPC   C2B16760  13.657  25.757   8.268
 1136POPC   C3B16761  13.723  25.551   7.905
 1136POPC   C4B16762  13.371  25.746   7.628
 1137POPC   NC316763  42.872  28.167   9.423
 1137POPC   PO416764  43.544  28.513   9.634
 1137POPC   GL116765  43.371  28.401   9.224
 1137POPC   GL216766  43.106  28.633   9.149
 1137POPC   C1A16767  43.302  28.345   8.759
 1137POPC   D2A16768  43.008  28.238   8.393
 1137POPC   C3A16769  43.237  28.410   8.020
 1137POPC   C4A16770  43.159  28.311   7.598
 1137POPC   C1B16771  42.874  28.649   8.755
 1137POPC   C2B16772  43.045  28.739   8.378
 1137POPC   C3B16773  42.953  28.845   7.976
 1137POPC   C4B16774  42.709  28.631   7.720
 1138POPC   NC316775  33.851   0.799   9.499
 1138POPC   PO416776  33.764   1.469   9.630
 1138POPC   GL116777  33.591   1.217   9.224
 1138POPC   GL216778  33.475   0.854   9.134
 1138POPC   C1A16779  33.716   1.298   8.768
 1138POPC   D2A16780  34.080   1.136   8.468
 1138POPC   C3A16781  33.971   1.196   8.044
 1138POPC   C4A16782  33.497   1.207   7.965
 1138POPC   C1B16783  33.726   0.797   8.744
 1138POPC   C2B16784  33.620   0.832   8.289
 1138POPC   C3B16785  33.786   0.777   7.836
 1138POPC   C4B16786  34.007   0.766   7.418
 1139POPC   NC316787  11.271  30.366   9.475
 1139POPC   PO416788  11.159  30.986   9.531
 1139POPC   GL116789  11.386  30.796   9.195
 1139POPC   GL216790  11.543  31.093   9.168
 1139POPC   C1A16791  11.345  30.548   8.799
 1139POPC   D2A16792  11.499  30.604   8.348
 1139POPC   C3A16793  11.242  30.501   7.973
 1139POPC   C4A16794  10.998  30.324   7.611
 1139POPC   C1B16795  11.571  30.998   8.733
 1139POPC   C2B16796  11.488  31.122   8.343
 1139POPC   C3B16797  11.569  30.950   7.970
 1139POPC   C4B16798  11.384  30.989   7.627
 1140POPC   NC316799   1.504  10.864   9.397
 1140POPC   PO416800   1.188  11.476   9.425
 1140POPC   GL116801   1.269  11.243   9.055
 1140POPC   GL216802   1.074  10.904   9.073
 1140POPC   C1A16803   1.198  11.447   8.655
 1140POPC   D2A16804   1.014  11.414   8.271
 1140POPC   C3A16805   1.176  11.403   7.861
 1140POPC   C4A16806   1.168  11.466   7.382
 1140POPC   C1B16807   1.219  10.917   8.634
 1140POPC   C2B16808   1.165  10.895   8.198
 1140POPC   C3B16809   1.078  10.893   7.783
 1140POPC   C4B16810   1.244  10.938   7.367
 1141POPC   NC316811  16.367  16.112   9.616
 1141POPC   PO416812  16.037  15.593   9.401
 1141POPC   GL116813  15.998  15.856   9.041
 1141POPC   GL216814  16.244  16.085   9.122
 1141POPC   C1A16815  15.900  16.264   8.802
 1141POPC   D2A16816  15.796  16.411   8.371
 1141POPC   C3A16817  15.890  16.026   8.158
 1141POPC   C4A16818  16.010  15.909   7.733
 1141POPC   C1B16819  16.330  15.923   8.675
 1141POPC   C2B16820  16.369  15.833   8.209
 1141POPC   C3B16821  16.487  16.059   7.816
 1141POPC   C4B16822  16.531  16.161   7.355
 1142POPC   NC316823  34.469  18.677   9.415
 1142POPC   PO416824  34.855  19.197   9.540
 1142POPC   GL116825  34.794  19.021   9.146
 1142POPC   GL216826  34.714  19.343   9.073
 1142POPC   C1A16827  34.588  18.951   8.730
 1142POPC   D2A16828  34.686  18.637   8.377
 1142POPC   C3A16829  34.535  18.757   7.963
 1142POPC   C4A16830  34.114  18.927   7.794
 1142POPC   C1B16831  34.843  19.423   8.685
 1142POPC   C2B16832  34.656  19.419   8.288
 1142POPC   C3B16833  34.782  19.216   7.876
 1142POPC   C4B16834  34.820  19.289   7.410
 1143POPC   NC316835   8.014   2.870   9.591
 1143POPC   PO416836   8.357   2.355   9.458
 1143POPC   GL116837   8.159   2.567   9.112
 1143POPC   GL216838   7.837   2.599   9.193
 1143POPC   C1A16839   8.125   2.701   8.675
 1143POPC   D2A16840   8.246   3.003   8.387
 1143POPC   C3A16841   8.362   2.790   8.033
 1143POPC   C4A16842   8.604   2.902   7.715
 1143POPC   C1B16843   7.816   2.991   8.931
 1143POPC   C2B16844   7.736   3.002   8.459
 1143POPC   C3B16845   7.858   2.811   8.066
 1143POPC   C4B16846   8.053   2.934   7.617
 1144POPC   NC316847   5.699  23.889   9.520
 1144POPC   PO416848   6.260  23.495   9.559
 1144POPC   GL116849   6.034  23.688   9.169
 1144POPC   GL216850   5.637  23.624   9.084
 1144POPC   C1A16851   5.874  24.021   8.879
 1144POPC   D2A16852   5.692  23.874   8.532
 1144POPC   C3A16853   5.982  23.692   8.255
 1144POPC   C4A16854   6.018  23.731   7.811
 1144POPC   C1B16855   5.357  23.481   8.739
 1144POPC   C2B16856   5.502  23.456   8.311
 1144POPC   C3B16857   5.544  23.726   7.972
 1144POPC   C4B16858   5.450  23.661   7.536
 1145POPC   NC316859  44.118  42.819   9.448
 1145POPC   PO416860  43.948  43.469   9.569
 1145POPC   GL116861  44.006  43.274   9.195
 1145POPC   GL216862  43.656  43.121   9.216
 1145POPC   C1A16863  43.897  43.418   8.773
 1145POPC   D2A16864  43.584  43.539   8.477
 1145POPC   C3A16865  43.663  43.367   8.046
 1145POPC   C4A16866  44.005  43.134   7.830
 1145POPC   C1B16867  43.780  42.926   8.831
 1145POPC   C2B16868  43.672  43.016   8.427
 1145POPC   C3B16869  43.638  42.822   8.030
 1145POPC   C4B16870  43.532  43.021   7.634
 1146POPC   NC316871  41.308   6.240   9.439
 1146POPC   PO416872  41.797   5.722   9.488
 1146POPC   GL116873  41.773   6.048   9.237
 1146POPC   GL216874  41.494   5.890   9.106
 1146POPC   C1A16875  41.855   6.148   8.808
 1146POPC   D2A16876  41.808   5.831   8.466
 1146POPC   C3A16877  41.858   6.030   8.096
 1146POPC   C4A16878  41.558   6.026   7.784
 1146POPC   C1B16879  41.376   5.970   8.702
 1146POPC   C2B16880  41.352   6.054   8.262
 1146POPC   C3B16881  41.074   5.930   7.934
 1146POPC   C4B16882  41.115   5.541   7.747
 1147POPC   NC316883  23.125  33.950   9.379
 1147POPC   PO416884  22.492  33.731   9.452
 1147POPC   GL116885  22.748  33.714   9.122
 1147POPC   GL216886  22.903  33.426   9.079
 1147POPC   C1A16887  22.944  33.818   8.741
 1147POPC   D2A16888  23.134  33.635   8.404
 1147POPC   C3A16889  22.956  33.708   8.029
 1147POPC   C4A16890  23.057  33.634   7.631
 1147POPC   C1B16891  22.627  33.381   8.743
 1147POPC   C2B16892  22.694  33.298   8.329
 1147POPC   C3B16893  22.502  33.489   8.007
 1147POPC   C4B16894  22.575  33.446   7.615
 1148POPC   NC316895   6.116  24.728   9.472
 1148POPC   PO416896   5.553  24.344   9.491
 1148POPC   GL116897   5.768  24.508   9.126
 1148POPC   GL216898   6.109  24.410   9.084
 1148POPC   C1A16899   5.841  24.526   8.668
 1148POPC   D2A16900   5.957  24.860   8.373
 1148POPC   C3A16901   5.865  24.752   7.926
 1148POPC   C4A16902   6.042  24.759   7.472
 1148POPC   C1B16903   6.337  24.443   8.715
 1148POPC   C2B16904   6.120  24.178   8.422
 1148POPC   C3B16905   5.941  24.187   8.037
 1148POPC   C4B16906   6.165  24.277   7.670
 1149POPC   NC316907   8.483  20.078   9.303
 1149POPC   PO416908   8.097  19.576   9.686
 1149POPC   GL116909   8.091  19.726   9.249
 1149POPC   GL216910   7.784  19.859   9.127
 1149POPC   C1A16911   8.224  19.765   8.778
 1149POPC   D2A16912   8.012  19.853   8.367
 1149POPC   C3A16913   8.263  19.766   7.988
 1149POPC   C4A16914   8.405  19.733   7.540
 1149POPC   C1B16915   7.950  20.199   8.834
 1149POPC   C2B16916   8.056  20.377   8.414
 1149POPC   C3B16917   7.874  20.269   8.015
 1149POPC   C4B16918   7.996  20.036   7.662
 1150POPC   NC316919  32.666  42.788   9.522
 1150POPC   PO416920  33.161  43.204   9.636
 1150POPC   GL116921  33.155  43.178   9.171
 1150POPC   GL216922  32.832  43.258   9.058
 1150POPC   C1A16923  33.091  42.939   8.755
 1150POPC   D2A16924  32.860  42.839   8.369
 1150POPC   C3A16925  32.987  42.954   7.949
 1150POPC   C4A16926  32.805  42.845   7.527
 1150POPC   C1B16927  32.929  43.424   8.678
 1150POPC   C2B16928  32.813  43.376   8.283
 1150POPC   C3B16929  32.972  43.455   7.903
 1150POPC   C4B16930  32.640  43.409   7.697
 1151POPC   NC316931  26.588   0.830   9.269
 1151POPC   PO416932  26.845   1.549   9.370
 1151POPC   GL116933  26.770   1.282   9.074
 1151POPC   GL216934  26.442   1.345   8.986
 1151POPC   C1A16935  26.924   1.045   8.746
 1151POPC   D2A16936  26.768   1.139   8.363
 1151POPC   C3A16937  26.954   0.961   8.019
 1151POPC   C4A16938  26.792   0.914   7.648
 1151POPC   C1B16939  26.682   1.585   8.673
 1151POPC   C2B16940  26.855   1.619   8.246
 1151POPC   C3B16941  26.705   1.400   7.842
 1151POPC   C4B16942  26.619   1.616   7.410
 1152POPC   NC316943  43.203  38.471   9.400
 1152POPC   PO416944  43.701  38.019   9.378
 1152POPC   GL116945  43.364  38.100   9.068
 1152POPC   GL216946  42.973  38.168   9.062
 1152POPC   C1A16947  43.266  38.343   8.689
 1152POPC   D2A16948  42.948  38.439   8.370
 1152POPC   C3A16949  43.167  38.583   8.044
 1152POPC   C4A16950  43.510  38.408   7.834
 1152POPC   C1B16951  42.745  38.039   8.710
 1152POPC   C2B16952  42.718  37.993   8.269
 1152POPC   C3B16953  42.845  38.197   7.887
 1152POPC   C4B16954  42.886  38.326   7.454
 1153POPC   NC316955  30.842  15.122   9.423
 1153POPC   PO416956  30.408  15.645   9.506
 1153POPC   GL116957  30.444  15.347   9.139
 1153POPC   GL216958  30.389  14.976   9.029
 1153POPC   C1A16959  30.629  15.334   8.726
 1153POPC   D2A16960  30.582  15.530   8.333
 1153POPC   C3A16961  30.461  15.232   8.043
 1153POPC   C4A16962  30.692  15.360   7.738
 1153POPC   C1B16963  30.757  14.830   8.781
 1153POPC   C2B16964  30.950  14.944   8.360
 1153POPC   C3B16965  30.933  14.940   7.899
 1153POPC   C4B16966  30.923  14.946   7.452
 1154POPC   NC316967   5.557  30.225   9.274
 1154POPC   PO416968   6.111  30.110   9.675
 1154POPC   GL116969   6.027  30.144   9.168
 1154POPC   GL216970   6.111  30.386   9.000
 1154POPC   C1A16971   5.824  29.850   8.816
 1154POPC   D2A16972   5.972  29.721   8.422
 1154POPC   C3A16973   5.664  29.726   8.112
 1154POPC   C4A16974   5.704  29.603   7.730
 1154POPC   C1B16975   6.041  30.246   8.598
 1154POPC   C2B16976   5.683  30.181   8.328
 1154POPC   C3B16977   5.893  30.141   7.914
 1154POPC   C4B16978   6.162  29.843   7.706
 1155POPC   NC316979  10.431   6.404   9.292
 1155POPC   PO416980   9.907   6.854   9.523
 1155POPC   GL116981   9.854   6.561   9.164
 1155POPC   GL216982   9.482   6.513   9.063
 1155POPC   C1A16983   9.894   6.381   8.746
 1155POPC   D2A16984   9.864   6.609   8.348
 1155POPC   C3A16985  10.086   6.574   7.961
 1155POPC   C4A16986   9.934   6.841   7.644
 1155POPC   C1B16987   9.371   6.346   8.705
 1155POPC   C2B16988   9.356   6.553   8.338
 1155POPC   C3B16989   9.530   6.673   7.924
 1155POPC   C4B16990   9.298   6.452   7.561
 1156POPC   NC316991   0.849   6.927   9.520
 1156POPC   PO416992   1.534   6.929   9.367
 1156POPC   GL116993   1.206   6.679   9.193
 1156POPC   GL216994   1.036   6.950   9.058
 1156POPC   C1A16995   1.099   6.543   8.768
 1156POPC   D2A16996   1.069   6.789   8.378
 1156POPC   C3A16997   1.071   6.564   7.983
 1156POPC   C4A16998   1.303   6.219   7.806
 1156POPC   C1B16999   1.371   7.020   8.762
 1156POPC   C2B17000   1.389   7.208   8.391
 1156POPC   C3B17001   1.438   7.007   8.019
 1156POPC   C4B17002   1.277   6.881   7.627
 1157POPC   NC317003  12.463  13.856   9.697
 1157POPC   PO417004  11.931  13.423   9.596
 1157POPC   GL117005  11.892  13.498   9.196
 1157POPC   GL217006  12.108  13.772   9.266
 1157POPC   C1A17007  11.887  13.445   8.741
 1157POPC   D2A17008  11.770  13.320   8.315
 1157POPC   C3A17009  11.934  13.572   7.943
 1157POPC   C4A17010  12.079  13.497   7.503
 1157POPC   C1B17011  11.880  13.923   8.900
 1157POPC   C2B17012  11.981  13.880   8.478
 1157POPC   C3B17013  12.061  14.056   8.073
 1157POPC   C4B17014  12.054  13.988   7.620
 1158POPC   NC317015   0.879  22.957   9.525
 1158POPC   PO417016   1.460  23.273   9.314
 1158POPC   GL117017   1.130  23.102   9.070
 1158POPC   GL217018   1.073  22.763   9.115
 1158POPC   C1A17019   1.137  22.945   8.646
 1158POPC   D2A17020   1.283  22.798   8.298
 1158POPC   C3A17021   1.233  23.069   8.011
 1158POPC   C4A17022   1.317  23.072   7.597
 1158POPC   C1B17023   0.929  22.482   8.835
 1158POPC   C2B17024   0.803  22.564   8.466
 1158POPC   C3B17025   0.938  22.470   8.084
 1158POPC   C4B17026   1.012  22.699   7.767
 1159POPC   NC317027   5.851  10.780   9.637
 1159POPC   PO417028   5.584  10.325   9.213
 1159POPC   GL117029   5.945  10.578   9.181
 1159POPC   GL217030   5.907  10.964   9.135
 1159POPC   C1A17031   6.255  10.704   8.884
 1159POPC   D2A17032   6.176  10.805   8.465
 1159POPC   C3A17033   6.060  10.487   8.173
 1159POPC   C4A17034   5.957  10.442   7.758
 1159POPC   C1B17035   5.711  10.825   8.780
 1159POPC   C2B17036   5.609  10.634   8.410
 1159POPC   C3B17037   5.584  10.741   7.985
 1159POPC   C4B17038   5.569  10.668   7.534
 1160POPC   NC317039   0.656  44.169   9.499
 1160POPC   PO417040   0.306  43.609   9.251
 1160POPC   GL117041   0.521  43.928   9.066
 1160POPC   GL217042   0.225  44.159   9.134
 1160POPC   C1A17043   0.586  43.786   8.654
 1160POPC   D2A17044   0.272  43.649   8.400
 1160POPC   C3A17045   0.426  43.607   7.991
 1160POPC   C4A17046   0.208  43.631   7.658
 1160POPC   C1B17047   0.349  44.238   8.685
 1160POPC   C2B17048   0.528  44.142   8.288
 1160POPC   C3B17049   0.748  44.022   7.928
 1160POPC   C4B17050   0.441  44.103   7.652
 1161POPC   NC317051   1.008   2.414   9.757
 1161POPC   PO417052   1.464   1.981   9.528
 1161POPC   GL117053   1.212   2.001   9.173
 1161POPC   GL217054   1.371   1.667   9.096
 1161POPC   C1A17055   1.053   2.165   8.780
 1161POPC   D2A17056   1.268   2.244   8.393
 1161POPC   C3A17057   1.075   2.053   8.001
 1161POPC   C4A17058   1.239   2.102   7.578
 1161POPC   C1B17059   1.188   1.680   8.726
 1161POPC   C2B17060   0.953   1.690   8.368
 1161POPC   C3B17061   0.996   1.485   7.977
 1161POPC   C4B17062   1.000   1.671   7.616
 1162POPC   NC317063  24.253  23.542   9.827
 1162POPC   PO417064  23.800  23.684   9.368
 1162POPC   GL117065  23.580  23.605   9.011
 1162POPC   GL217066  23.520  23.960   9.047
 1162POPC   C1A17067  23.674  23.475   8.606
 1162POPC   D2A17068  23.867  23.678   8.238
 1162POPC   C3A17069  23.696  23.531   7.843
 1162POPC   C4A17070  23.410  23.160   7.770
 1162POPC   C1B17071  23.770  23.974   8.692
 1162POPC   C2B17072  23.586  24.087   8.329
 1162POPC   C3B17073  23.739  24.158   7.969
 1162POPC   C4B17074  23.981  24.001   7.626
 1163POPC   NC317075  21.956  11.063   9.493
 1163POPC   PO417076  22.319  11.657   9.471
 1163POPC   GL117077  22.048  11.445   9.163
 1163POPC   GL217078  22.144  11.068   9.033
 1163POPC   C1A17079  21.863  11.386   8.772
 1163POPC   D2A17080  21.949  11.065   8.496
 1163POPC   C3A17081  21.957  11.240   8.110
 1163POPC   C4A17082  21.894  11.390   7.721
 1163POPC   C1B17083  22.419  10.907   8.715
 1163POPC   C2B17084  22.396  10.698   8.310
 1163POPC   C3B17085  22.159  10.808   7.977
 1163POPC   C4B17086  22.173  10.800   7.552
 1164POPC   NC317087  23.455  42.537   9.629
 1164POPC   PO417088  24.153  42.482   9.560
 1164POPC   GL117089  23.923  42.428   9.184
 1164POPC   GL217090  23.551  42.356   9.138
 1164POPC   C1A17091  24.004  42.540   8.764
 1164POPC   D2A17092  23.772  42.523   8.389
 1164POPC   C3A17093  24.004  42.539   7.989
 1164POPC   C4A17094  23.762  42.479   7.613
 1164POPC   C1B17095  23.321  42.123   8.789
 1164POPC   C2B17096  23.416  42.085   8.360
 1164POPC   C3B17097  23.459  42.299   7.997
 1164POPC   C4B17098  23.321  42.081   7.672
 1165POPC   NC317099  25.482  17.233   9.350
 1165POPC   PO417100  26.000  17.312   9.796
 1165POPC   GL117101  25.993  17.475   9.321
 1165POPC   GL217102  26.249  17.346   9.126
 1165POPC   C1A17103  25.923  17.633   8.858
 1165POPC   D2A17104  25.729  17.482   8.446
 1165POPC   C3A17105  25.865  17.658   8.055
 1165POPC   C4A17106  26.011  17.570   7.656
 1165POPC   C1B17107  26.416  17.374   8.746
 1165POPC   C2B17108  26.253  17.529   8.372
 1165POPC   C3B17109  26.318  17.367   7.987
 1165POPC   C4B17110  26.594  17.254   7.689
 1166POPC   NC317111   6.297  16.573   9.596
 1166POPC   PO417112   5.634  16.503   9.431
 1166POPC   GL117113   5.959  16.654   9.211
 1166POPC   GL217114   6.153  16.370   9.156
 1166POPC   C1A17115   5.967  16.696   8.802
 1166POPC   D2A17116   5.704  16.639   8.456
 1166POPC   C3A17117   5.830  16.956   8.205
 1166POPC   C4A17118   5.654  17.144   7.874
 1166POPC   C1B17119   6.168  16.160   8.763
 1166POPC   C2B17120   6.045  16.277   8.375
 1166POPC   C3B17121   6.031  16.539   7.991
 1166POPC   C4B17122   6.293  16.572   7.635
 1167POPC   NC317123  27.546  27.978   9.583
 1167POPC   PO417124  27.447  27.235   9.530
 1167POPC   GL117125  27.760  27.429   9.235
 1167POPC   GL217126  27.660  27.754   9.148
 1167POPC   C1A17127  27.703  27.458   8.761
 1167POPC   D2A17128  27.593  27.802   8.468
 1167POPC   C3A17129  27.573  27.661   8.076
 1167POPC   C4A17130  27.646  27.480   7.725
 1167POPC   C1B17131  27.280  27.806   8.868
 1167POPC   C2B17132  27.037  27.945   8.512
 1167POPC   C3B17133  27.245  28.045   8.107
 1167POPC   C4B17134  27.448  27.952   7.655
 1168POPC   NC317135  26.101   5.497   9.552
 1168POPC   PO417136  25.747   6.070   9.718
 1168POPC   GL117137  25.710   5.933   9.283
 1168POPC   GL217138  25.691   5.603   9.156
 1168POPC   C1A17139  25.958   5.972   8.884
 1168POPC   D2A17140  26.209   6.177   8.560
 1168POPC   C3A17141  26.197   5.986   8.149
 1168POPC   C4A17142  26.399   6.109   7.775
 1168POPC   C1B17143  25.743   5.515   8.714
 1168POPC   C2B17144  25.856   5.623   8.301
 1168POPC   C3B17145  25.951   5.445   7.895
 1168POPC   C4B17146  25.753   5.636   7.534
 1169POPC   NC317147   6.746  27.869   9.480
 1169POPC   PO417148   6.556  27.184   9.523
 1169POPC   GL117149   6.469  27.464   9.224
 1169POPC   GL217150   6.791  27.558   9.067
 1169POPC   C1A17151   6.371  27.412   8.807
 1169POPC   D2A17152   6.667  27.472   8.469
 1169POPC   C3A17153   6.538  27.639   8.089
 1169POPC   C4A17154   6.681  27.570   7.692
 1169POPC   C1B17155   7.028  27.761   8.735
 1169POPC   C2B17156   6.904  27.923   8.344
 1169POPC   C3B17157   6.870  27.993   7.930
 1169POPC   C4B17158   7.051  27.891   7.550
 1170POPC   NC317159  44.377  28.753   9.533
 1170POPC   PO417160  44.447  29.359   9.484
 1170POPC   GL117161  44.685  29.203   9.111
 1170POPC   GL217162  44.569  28.892   9.102
 1170POPC   C1A17163  44.673  29.070   8.645
 1170POPC   D2A17164  44.385  29.301   8.322
 1170POPC   C3A17165  44.578  29.393   7.943
 1170POPC   C4A17166   0.034  29.335   7.865
 1170POPC   C1B17167  44.261  28.773   8.796
 1170POPC   C2B17168  44.406  28.692   8.388
 1170POPC   C3B17169  44.671  28.917   8.155
 1170POPC   C4B17170  44.744  28.927   7.762
 1171POPC   NC317171  40.978  34.077   9.935
 1171POPC   PO417172  40.848  34.601   9.536
 1171POPC   GL117173  40.810  34.682   9.145
 1171POPC   GL217174  41.011  34.393   9.043
 1171POPC   C1A17175  40.857  34.973   8.822
 1171POPC   D2A17176  40.987  34.754   8.485
 1171POPC   C3A17177  40.831  34.913   8.112
 1171POPC   C4A17178  40.725  34.981   7.707
 1171POPC   C1B17179  40.759  34.258   8.680
 1171POPC   C2B17180  40.599  34.474   8.307
 1171POPC   C3B17181  40.631  34.496   7.873
 1171POPC   C4B17182  40.591  34.217   7.554
 1172POPC   NC317183   7.444  26.250   9.592
 1172POPC   PO417184   7.678  25.595   9.519
 1172POPC   GL117185   7.452  25.830   9.217
 1172POPC   GL217186   7.691  26.095   9.183
 1172POPC   C1A17187   7.420  25.993   8.776
 1172POPC   D2A17188   7.441  26.240   8.408
 1172POPC   C3A17189   7.274  26.030   8.053
 1172POPC   C4A17190   7.292  26.105   7.639
 1172POPC   C1B17191   7.875  25.796   8.915
 1172POPC   C2B17192   7.771  25.714   8.491
 1172POPC   C3B17193   7.770  25.948   8.136
 1172POPC   C4B17194   7.737  25.878   7.719
 1173POPC   NC317195  31.777   1.791   9.468
 1173POPC   PO417196  31.173   2.100   9.399
 1173POPC   GL117197  31.522   2.098   9.138
 1173POPC   GL217198  31.783   2.326   9.275
 1173POPC   C1A17199  31.633   1.838   8.810
 1173POPC   D2A17200  31.690   1.724   8.379
 1173POPC   C3A17201  31.297   1.840   8.139
 1173POPC   C4A17202  31.249   1.981   7.725
 1173POPC   C1B17203  31.828   2.375   8.823
 1173POPC   C2B17204  31.629   2.212   8.436
 1173POPC   C3B17205  31.677   2.155   8.020
 1173POPC   C4B17206  31.694   2.457   7.737
 1174POPC   NC317207  43.771   8.829   9.636
 1174POPC   PO417208  44.370   8.879   9.646
 1174POPC   GL117209  44.073   8.876   9.222
 1174POPC   GL217210  43.714   9.079   9.187
 1174POPC   C1A17211  43.906   8.844   8.774
 1174POPC   D2A17212  43.994   8.601   8.400
 1174POPC   C3A17213  44.050   8.789   7.998
 1174POPC   C4A17214  43.818   8.775   7.624
 1174POPC   C1B17215  43.667   9.300   8.770
 1174POPC   C2B17216  43.902   9.175   8.371
 1174POPC   C3B17217  43.939   9.282   7.939
 1174POPC   C4B17218  43.611   9.241   7.645
 1175POPC   NC317219  13.442   2.750   9.621
 1175POPC   PO417220  13.819   3.144   9.401
 1175POPC   GL117221  13.604   2.913   9.124
 1175POPC   GL217222  13.522   2.547   9.114
 1175POPC   C1A17223  13.702   2.822   8.724
 1175POPC   D2A17224  13.499   2.759   8.394
 1175POPC   C3A17225  13.688   2.560   8.106
 1175POPC   C4A17226  14.042   2.688   7.858
 1175POPC   C1B17227  13.228   2.514   8.765
 1175POPC   C2B17228  13.127   2.403   8.320
 1175POPC   C3B17229  13.232   2.386   7.866
 1175POPC   C4B17230  13.596   2.563   7.626
 1176POPC   NC317231  24.488  13.839   9.640
 1176POPC   PO417232  24.754  13.278   9.671
 1176POPC   GL117233  24.555  13.496   9.265
 1176POPC   GL217234  24.700  13.841   9.153
 1176POPC   C1A17235  24.286  13.579   8.896
 1176POPC   D2A17236  24.177  13.668   8.460
 1176POPC   C3A17237  24.310  13.439   8.096
 1176POPC   C4A17238  24.184  13.579   7.697
 1176POPC   C1B17239  24.583  13.962   8.695
 1176POPC   C2B17240  24.626  13.892   8.238
 1176POPC   C3B17241  24.587  13.860   7.812
 1176POPC   C4B17242  24.810  13.588   7.484
 1177POPC   NC317243  26.422  15.334   9.500
 1177POPC   PO417244  25.704  15.154   9.470
 1177POPC   GL117245  25.824  15.007   9.071
 1177POPC   GL217246  26.176  15.107   9.101
 1177POPC   C1A17247  25.904  15.173   8.648
 1177POPC   D2A17248  26.103  15.415   8.310
 1177POPC   C3A17249  25.865  15.550   7.963
 1177POPC   C4A17250  25.936  15.173   7.749
 1177POPC   C1B17251  26.400  15.122   8.752
 1177POPC   C2B17252  26.489  15.089   8.342
 1177POPC   C3B17253  26.422  15.176   7.925
 1177POPC   C4B17254  26.372  15.245   7.487
 1178POPC   NC317255  14.845  13.736   9.789
 1178POPC   PO417256  14.296  13.575   9.606
 1178POPC   GL117257  14.417  13.673   9.154
 1178POPC   GL217258  14.305  13.986   8.984
 1178POPC   C1A17259  14.396  13.450   8.755
 1178POPC   D2A17260  14.187  13.300   8.347
 1178POPC   C3A17261  14.377  13.400   7.983
 1178POPC   C4A17262  14.406  13.509   7.567
 1178POPC   C1B17263  14.247  13.928   8.566
 1178POPC   C2B17264  14.432  14.103   8.238
 1178POPC   C3B17265  14.319  13.919   7.884
 1178POPC   C4B17266  13.961  13.719   7.949
 1179POPC   NC317267  17.644   3.080   9.540
 1179POPC   PO417268  17.050   2.781   9.511
 1179POPC   GL117269  17.331   2.917   9.155
 1179POPC   GL217270  17.700   2.820   9.094
 1179POPC   C1A17271  17.360   2.731   8.746
 1179POPC   D2A17272  17.642   2.796   8.443
 1179POPC   C3A17273  17.480   2.611   8.115
 1179POPC   C4A17274  17.394   2.835   7.728
 1179POPC   C1B17275  17.814   2.456   8.783
 1179POPC   C2B17276  18.024   2.462   8.359
 1179POPC   C3B17277  17.949   2.742   8.003
 1179POPC   C4B17278  17.766   2.482   7.688
 1180POPC   NC317279  25.385  27.512   9.551
 1180POPC   PO417280  25.792  27.929   9.378
 1180POPC   GL117281  25.540  27.683   9.091
 1180POPC   GL217282  25.440  27.316   9.090
 1180POPC   C1A17283  25.260  27.687   8.757
 1180POPC   D2A17284  25.187  27.503   8.381
 1180POPC   C3A17285  24.898  27.624   8.118
 1180POPC   C4A17286  25.028  27.588   7.704
 1180POPC   C1B17287  25.532  27.172   8.682
 1180POPC   C2B17288  25.505  27.080   8.256
 1180POPC   C3B17289  25.446  27.371   7.966
 1180POPC   C4B17290  25.517  27.531   7.615
 1181POPC   NC317291  42.888   5.647   9.452
 1181POPC   PO417292  43.509   5.812   9.635
 1181POPC   GL117293  43.405   5.956   9.197
 1181POPC   GL217294  43.310   5.650   9.097
 1181POPC   C1A17295  43.356   6.031   8.726
 1181POPC   D2A17296  43.083   5.889   8.365
 1181POPC   C3A17297  43.134   5.914   7.915
 1181POPC   C4A17298  43.442   6.162   7.750
 1181POPC   C1B17299  43.026   5.569   8.766
 1181POPC   C2B17300  43.010   5.355   8.382
 1181POPC   C3B17301  43.171   5.397   7.967
 1181POPC   C4B17302  42.874   5.555   7.658
 1182POPC   NC317303  33.537  19.907   9.356
 1182POPC   PO417304  33.983  19.422   9.396
 1182POPC   GL117305  33.681  19.491   9.076
 1182POPC   GL217306  33.851  19.779   8.968
 1182POPC   C1A17307  33.403  19.674   8.742
 1182POPC   D2A17308  33.471  19.936   8.393
 1182POPC   C3A17309  33.690  19.760   8.030
 1182POPC   C4A17310  33.679  19.858   7.579
 1182POPC   C1B17311  33.842  20.106   8.682
 1182POPC   C2B17312  33.933  20.301   8.339
 1182POPC   C3B17313  33.835  20.246   7.905
 1182POPC   C4B17314  33.956  20.342   7.514
 1183POPC   NC317315  17.686   9.759   9.559
 1183POPC   PO417316  17.908   9.238   9.201
 1183POPC   GL117317  17.695   9.601   9.077
 1183POPC   GL217318  17.346   9.580   9.162
 1183POPC   C1A17319  17.608   9.835   8.701
 1183POPC   D2A17320  17.810  10.106   8.396
 1183POPC   C3A17321  17.530  10.054   8.063
 1183POPC   C4A17322  17.595   9.953   7.635
 1183POPC   C1B17323  17.428   9.325   8.745
 1183POPC   C2B17324  17.692   9.394   8.373
 1183POPC   C3B17325  17.584   9.568   7.982
 1183POPC   C4B17326  17.257   9.581   7.735
 1184POPC   NC317327  14.622  32.521   9.323
 1184POPC   PO417328  14.279  31.984   9.554
 1184POPC   GL117329  14.239  32.194   9.205
 1184POPC   GL217330  14.548  32.089   9.038
 1184POPC   C1A17331  14.142  32.240   8.782
 1184POPC   D2A17332  14.250  32.318   8.384
 1184POPC   C3A17333  14.162  32.147   8.010
 1184POPC   C4A17334  14.140  32.507   7.762
 1184POPC   C1B17335  14.672  32.167   8.601
 1184POPC   C2B17336  14.593  31.956   8.223
 1184POPC   C3B17337  14.749  31.928   7.836
 1184POPC   C4B17338  14.627  32.310   7.656
 1185POPC   NC317339  20.244   8.367   9.813
 1185POPC   PO417340  20.666   7.967   9.518
 1185POPC   GL117341  20.636   7.957   9.095
 1185POPC   GL217342  20.933   7.758   9.066
 1185POPC   C1A17343  20.682   8.345   8.817
 1185POPC   D2A17344  20.550   8.524   8.425
 1185POPC   C3A17345  20.659   8.313   8.051
 1185POPC   C4A17346  20.590   8.470   7.655
 1185POPC   C1B17347  21.020   7.974   8.748
 1185POPC   C2B17348  20.835   7.991   8.388
 1185POPC   C3B17349  20.988   7.898   8.006
 1185POPC   C4B17350  20.980   8.136   7.665
 1186POPC   NC317351  26.555  39.113   9.622
 1186POPC   PO417352  27.102  39.457   9.653
 1186POPC   GL117353  26.983  39.123   9.319
 1186POPC   GL217354  26.705  39.235   9.150
 1186POPC   C1A17355  27.128  39.054   8.866
 1186POPC   D2A17356  26.989  38.995   8.408
 1186POPC   C3A17357  27.083  39.304   8.055
 1186POPC   C4A17358  27.152  39.206   7.602
 1186POPC   C1B17359  26.640  39.181   8.728
 1186POPC   C2B17360  26.674  39.413   8.350
 1186POPC   C3B17361  26.443  39.516   8.017
 1186POPC   C4B17362  26.734  39.497   7.673
 1187POPC   NC317363  41.441  26.700   9.429
 1187POPC   PO417364  41.308  27.198   9.782
 1187POPC   GL117365  41.396  27.175   9.260
 1187POPC   GL217366  41.641  26.961   9.044
 1187POPC   C1A17367  41.234  27.109   8.816
 1187POPC   D2A17368  41.341  26.805   8.516
 1187POPC   C3A17369  41.506  26.851   8.099
 1187POPC   C4A17370  41.373  26.760   7.701
 1187POPC   C1B17371  41.759  26.635   8.808
 1187POPC   C2B17372  42.079  26.515   8.553
 1187POPC   C3B17373  42.058  26.544   8.104
 1187POPC   C4B17374  41.769  26.468   7.829
 1188POPC   NC317375  43.451  37.616   9.459
 1188POPC   PO417376  42.830  37.909   9.465
 1188POPC   GL117377  43.058  37.639   9.123
 1188POPC   GL217378  43.362  37.382   9.038
 1188POPC   C1A17379  43.176  37.763   8.736
 1188POPC   D2A17380  43.114  37.646   8.325
 1188POPC   C3A17381  43.278  37.957   8.072
 1188POPC   C4A17382  43.257  37.997   7.642
 1188POPC   C1B17383  43.158  37.251   8.668
 1188POPC   C2B17384  42.983  37.128   8.303
 1188POPC   C3B17385  43.103  37.291   7.949
 1188POPC   C4B17386  43.422  37.514   7.807
 1189POPC   NC317387  31.762   7.710   9.468
 1189POPC   PO417388  31.552   8.386   9.435
 1189POPC   GL117389  31.450   8.416   9.014
 1189POPC   GL217390  31.153   8.604   9.036
 1189POPC   C1A17391  31.518   8.301   8.589
 1189POPC   D2A17392  31.322   7.954   8.373
 1189POPC   C3A17393  31.590   7.911   8.038
 1189POPC   C4A17394  31.644   8.236   7.702
 1189POPC   C1B17395  31.025   8.334   8.708
 1189POPC   C2B17396  31.039   8.461   8.303
 1189POPC   C3B17397  31.191   8.318   7.939
 1189POPC   C4B17398  31.184   7.959   7.728
 1190POPC   NC317399  25.338  18.938   9.319
 1190POPC   PO417400  24.746  19.218   9.421
 1190POPC   GL117401  25.047  19.298   9.069
 1190POPC   GL217402  25.367  19.430   9.193
 1190POPC   C1A17403  25.156  19.105   8.659
 1190POPC   D2A17404  25.101  19.137   8.210
 1190POPC   C3A17405  25.448  18.933   8.035
 1190POPC   C4A17406  25.690  19.016   7.672
 1190POPC   C1B17407  25.613  19.287   8.817
 1190POPC   C2B17408  25.525  19.363   8.374
 1190POPC   C3B17409  25.427  19.433   7.913
 1190POPC   C4B17410  25.713  19.494   7.566
 1191POPC   NC317411  18.545  17.694   9.598
 1191POPC   PO417412  17.946  17.452   9.523
 1191POPC   GL117413  18.177  17.578   9.147
 1191POPC   GL217414  18.532  17.506   9.111
 1191POPC   C1A17415  18.247  17.421   8.709
 1191POPC   D2A17416  18.459  17.494   8.322
 1191POPC   C3A17417  18.233  17.518   7.947
 1191POPC   C4A17418  18.339  17.359   7.548
 1191POPC   C1B17419  18.753  17.586   8.737
 1191POPC   C2B17420  18.791  17.873   8.373
 1191POPC   C3B17421  18.587  17.868   7.992
 1191POPC   C4B17422  18.512  17.828   7.517
 1192POPC   NC317423  16.416  14.406   9.489
 1192POPC   PO417424  17.096  14.094   9.355
 1192POPC   GL117425  16.813  14.407   9.164
 1192POPC   GL217426  16.448  14.334   8.984
 1192POPC   C1A17427  16.792  14.699   8.830
 1192POPC   D2A17428  16.548  14.632   8.429
 1192POPC   C3A17429  16.660  14.452   8.045
 1192POPC   C4A17430  16.624  14.640   7.649
 1192POPC   C1B17431  16.763  14.213   8.681
 1192POPC   C2B17432  16.868  14.018   8.299
 1192POPC   C3B17433  17.041  14.068   7.935
 1192POPC   C4B17434  16.996  14.307   7.594
 1193POPC   NC317435   7.833  23.279   9.782
 1193POPC   PO417436   7.283  22.873   9.613
 1193POPC   GL117437   7.465  22.770   9.218
 1193POPC   GL217438   7.146  22.839   9.099
 1193POPC   C1A17439   7.552  22.894   8.764
 1193POPC   D2A17440   7.693  22.961   8.348
 1193POPC   C3A17441   7.466  22.974   7.987
 1193POPC   C4A17442   7.794  22.958   7.742
 1193POPC   C1B17443   7.161  22.559   8.765
 1193POPC   C2B17444   7.207  22.720   8.379
 1193POPC   C3B17445   6.974  22.664   8.059
 1193POPC   C4B17446   7.177  22.629   7.712
 1194POPC   NC317447  17.174   4.999   9.470
 1194POPC   PO417448  16.490   4.923   9.522
 1194POPC   GL117449  16.574   5.274   9.241
 1194POPC   GL217450  16.876   5.125   9.055
 1194POPC   C1A17451  16.500   5.351   8.811
 1194POPC   D2A17452  16.670   5.034   8.534
 1194POPC   C3A17453  16.653   5.011   8.081
 1194POPC   C4A17454  16.923   4.935   7.737
 1194POPC   C1B17455  17.013   5.390   8.688
 1194POPC   C2B17456  16.882   5.518   8.276
 1194POPC   C3B17457  16.995   5.424   7.843
 1194POPC   C4B17458  17.111   5.328   7.416
 1195POPC   NC317459  38.412  21.391   9.883
 1195POPC   PO417460  38.797  21.344   9.321
 1195POPC   GL117461  38.546  21.377   8.994
 1195POPC   GL217462  38.717  21.677   8.895
 1195POPC   C1A17463  38.463  21.402   8.564
 1195POPC   D2A17464  38.452  21.267   8.161
 1195POPC   C3A17465  38.124  21.323   7.880
 1195POPC   C4A17466  38.226  21.496   7.469
 1195POPC   C1B17467  38.955  21.318   8.695
 1195POPC   C2B17468  38.940  21.178   8.306
 1195POPC   C3B17469  38.899  21.407   7.953
 1195POPC   C4B17470  38.590  21.217   7.672
 1196POPC   NC317471   5.871   7.628   9.590
 1196POPC   PO417472   6.378   7.125   9.462
 1196POPC   GL117473   5.980   7.085   9.153
 1196POPC   GL217474   5.727   7.386   9.159
 1196POPC   C1A17475   5.739   7.124   8.724
 1196POPC   D2A17476   5.742   7.518   8.518
 1196POPC   C3A17477   5.836   7.556   8.112
 1196POPC   C4A17478   5.625   7.438   7.766
 1196POPC   C1B17479   5.977   7.705   8.931
 1196POPC   C2B17480   6.183   7.779   8.533
 1196POPC   C3B17481   6.273   7.806   8.083
 1196POPC   C4B17482   6.077   7.650   7.664
 1197POPC   NC317483   6.731  14.849   9.569
 1197POPC   PO417484   6.179  15.198   9.504
 1197POPC   GL117485   6.536  15.169   9.177
 1197POPC   GL217486   6.906  15.037   9.136
 1197POPC   C1A17487   6.687  15.320   8.756
 1197POPC   D2A17488   6.611  15.207   8.325
 1197POPC   C3A17489   6.557  15.360   7.882
 1197POPC   C4A17490   6.570  15.180   7.421
 1197POPC   C1B17491   6.725  14.802   8.792
 1197POPC   C2B17492   6.887  14.778   8.380
 1197POPC   C3B17493   6.836  14.912   7.973
 1197POPC   C4B17494   6.685  14.736   7.615
 1198POPC   NC317495  29.591  31.186   9.452
 1198POPC   PO417496  29.925  31.781   9.526
 1198POPC   GL117497  29.989  31.551   9.180
 1198POPC   GL217498  30.091  31.197   9.234
 1198POPC   C1A17499  29.843  31.671   8.778
 1198POPC   D2A17500  29.923  31.522   8.387
 1198POPC   C3A17501  29.852  31.779   8.060
 1198POPC   C4A17502  29.763  31.597   7.665
 1198POPC   C1B17503  30.191  31.270   8.774
 1198POPC   C2B17504  30.060  31.040   8.396
 1198POPC   C3B17505  29.948  31.168   7.974
 1198POPC   C4B17506  30.212  31.360   7.654
 1199POPC   NC317507   4.873  35.754   9.313
 1199POPC   PO417508   5.190  35.165   9.429
 1199POPC   GL117509   5.381  35.206   9.071
 1199POPC   GL217510   5.035  35.358   8.940
 1199POPC   C1A17511   5.481  35.466   8.741
 1199POPC   D2A17512   5.145  35.650   8.501
 1199POPC   C3A17513   5.175  35.542   8.075
 1199POPC   C4A17514   5.114  35.145   7.858
 1199POPC   C1B17515   4.759  35.145   8.629
 1199POPC   C2B17516   4.638  34.934   8.245
 1199POPC   C3B17517   4.688  34.879   7.806
 1199POPC   C4B17518   4.666  35.072   7.391
 1200POPC   NC317519  15.628  10.713   9.450
 1200POPC   PO417520  16.294  10.280   9.631
 1200POPC   GL117521  16.212  10.240   9.138
 1200POPC   GL217522  16.178  10.559   8.939
 1200POPC   C1A17523  15.971  10.165   8.732
 1200POPC   D2A17524  15.780  10.460   8.435
 1200POPC   C3A17525  15.946  10.320   8.055
 1200POPC   C4A17526  16.133  10.404   7.658
 1200POPC   C1B17527  16.208  10.883   8.628
 1200POPC   C2B17528  15.939  10.973   8.297
 1200POPC   C3B17529  15.970  10.823   7.891
 1200POPC   C4B17530  16.403  10.835   7.714
 1201POPC   NC317531  11.176   6.334   9.430
 1201POPC   PO417532  11.590   6.896   9.443
 1201POPC   GL117533  11.354   6.701   9.115
 1201POPC   GL217534  11.487   6.404   9.047
 1201POPC   C1A17535  11.163   6.578   8.700
 1201POPC   D2A17536  10.924   6.521   8.318
 1201POPC   C3A17537  11.118   6.677   7.961
 1201POPC   C4A17538  11.554   6.811   7.866
 1201POPC   C1B17539  11.687   6.452   8.666
 1201POPC   C2B17540  11.466   6.501   8.304
 1201POPC   C3B17541  11.457   6.297   7.949
 1201POPC   C4B17542  11.674   6.378   7.612
 1202POPC   NC317543   7.828  34.577   9.661
 1202POPC   PO417544   8.424  34.481   9.430
 1202POPC   GL117545   8.179  34.440   9.088
 1202POPC   GL217546   7.896  34.637   9.146
 1202POPC   C1A17547   8.261  34.571   8.664
 1202POPC   D2A17548   8.347  34.918   8.338
 1202POPC   C3A17549   8.434  34.732   7.963
 1202POPC   C4A17550   8.334  34.319   7.796
 1202POPC   C1B17551   7.734  34.586   8.723
 1202POPC   C2B17552   7.890  34.638   8.323
 1202POPC   C3B17553   7.932  34.669   7.917
 1202POPC   C4B17554   7.868  34.356   7.627
 1203POPC   NC317555   1.411  29.776   9.476
 1203POPC   PO417556   1.025  30.345   9.499
 1203POPC   GL117557   1.155  30.108   9.155
 1203POPC   GL217558   1.046  29.745   9.121
 1203POPC   C1A17559   1.198  30.065   8.737
 1203POPC   D2A17560   1.305  30.210   8.369
 1203POPC   C3A17561   1.126  29.968   8.066
 1203POPC   C4A17562   1.019  29.945   7.659
 1203POPC   C1B17563   1.369  29.590   8.809
 1203POPC   C2B17564   1.343  29.578   8.340
 1203POPC   C3B17565   1.430  29.596   7.870
 1203POPC   C4B17566   1.150  29.467   7.513
 1204POPC   NC317567  37.823  38.061   9.581
 1204POPC   PO417568  37.395  38.584   9.499
 1204POPC   GL117569  37.658  38.501   9.133
 1204POPC   GL217570  37.894  38.230   9.115
 1204POPC   C1A17571  37.571  38.517   8.692
 1204POPC   D2A17572  37.411  38.242   8.370
 1204POPC   C3A17573  37.516  38.378   7.957
 1204POPC   C4A17574  37.705  38.753   7.769
 1204POPC   C1B17575  38.050  38.352   8.728
 1204POPC   C2B17576  37.930  38.273   8.337
 1204POPC   C3B17577  38.050  38.377   7.936
 1204POPC   C4B17578  37.856  38.181   7.610
 1205POPC   NC317579   0.703  31.436   9.321
 1205POPC   PO417580   1.271  31.328   9.641
 1205POPC   GL117581   1.368  31.396   9.203
 1205POPC   GL217582   1.111  31.611   9.102
 1205POPC   C1A17583   1.486  31.487   8.783
 1205POPC   D2A17584   1.254  31.483   8.412
 1205POPC   C3A17585   1.198  31.168   8.110
 1205POPC   C4A17586   1.093  31.259   7.697
 1205POPC   C1B17587   0.877  31.645   8.718
 1205POPC   C2B17588   0.903  31.860   8.328
 1205POPC   C3B17589   1.119  31.708   7.966
 1205POPC   C4B17590   1.170  31.724   7.520
 1206POPC   NC317591   9.333   4.103   9.499
 1206POPC   PO417592   8.685   4.071   9.249
 1206POPC   GL117593   9.073   4.188   9.056
 1206POPC   GL217594   9.276   4.497   9.141
 1206POPC   C1A17595   9.014   4.211   8.643
 1206POPC   D2A17596   8.939   3.978   8.315
 1206POPC   C3A17597   8.846   4.171   7.950
 1206POPC   C4A17598   8.833   4.532   7.761
 1206POPC   C1B17599   9.421   4.497   8.696
 1206POPC   C2B17600   9.194   4.576   8.283
 1206POPC   C3B17601   9.299   4.409   7.875
 1206POPC   C4B17602   9.304   4.542   7.421
 1207POPC   NC317603  15.651  40.818   9.492
 1207POPC   PO417604  16.266  41.117   9.460
 1207POPC   GL117605  16.097  40.872   9.133
 1207POPC   GL217606  15.870  40.611   9.076
 1207POPC   C1A17607  16.180  40.812   8.712
 1207POPC   D2A17608  16.009  41.017   8.370
 1207POPC   C3A17609  16.099  40.727   8.075
 1207POPC   C4A17610  16.078  40.731   7.675
 1207POPC   C1B17611  15.652  40.692   8.701
 1207POPC   C2B17612  15.500  40.974   8.376
 1207POPC   C3B17613  15.633  40.886   7.949
 1207POPC   C4B17614  15.690  40.440   7.830
 1208POPC   NC317615  30.256  22.352   9.425
 1208POPC   PO417616  30.876  22.001   9.555
 1208POPC   GL117617  30.928  22.121   9.169
 1208POPC   GL217618  30.672  22.380   9.111
 1208POPC   C1A17619  30.728  21.926   8.836
 1208POPC   D2A17620  30.717  22.127   8.451
 1208POPC   C3A17621  31.016  22.019   8.169
 1208POPC   C4A17622  30.852  21.806   7.832
 1208POPC   C1B17623  30.409  22.596   8.792
 1208POPC   C2B17624  30.481  22.564   8.358
 1208POPC   C3B17625  30.372  22.502   7.958
 1208POPC   C4B17626  30.702  22.290   7.773
 1209POPC   NC317627  18.362  42.624   9.609
 1209POPC   PO417628  17.967  42.117   9.580
 1209POPC   GL117629  18.235  42.174   9.190
 1209POPC   GL217630  18.399  42.455   9.140
 1209POPC   C1A17631  18.100  42.255   8.754
 1209POPC   D2A17632  18.304  42.170   8.360
 1209POPC   C3A17633  18.157  42.288   7.976
 1209POPC   C4A17634  18.338  42.472   7.631
 1209POPC   C1B17635  18.593  42.303   8.781
 1209POPC   C2B17636  18.685  42.522   8.446
 1209POPC   C3B17637  18.591  42.573   8.081
 1209POPC   C4B17638  18.692  42.830   7.738
 1210POPC   NC317639   5.729  39.917   9.647
 1210POPC   PO417640   5.681  40.542   9.713
 1210POPC   GL117641   5.767  40.211   9.267
 1210POPC   GL217642   6.050  40.297   9.092
 1210POPC   C1A17643   5.913  39.850   8.905
 1210POPC   D2A17644   6.045  39.838   8.422
 1210POPC   C3A17645   5.825  39.689   8.056
 1210POPC   C4A17646   5.886  39.655   7.591
 1210POPC   C1B17647   5.899  40.282   8.655
 1210POPC   C2B17648   6.116  40.437   8.325
 1210POPC   C3B17649   6.106  40.261   7.959
 1210POPC   C4B17650   5.747  40.104   7.758
 1211POPC   NC317651   8.206  23.789   9.507
 1211POPC   PO417652   8.251  23.102   9.697
 1211POPC   GL117653   8.262  23.355   9.242
 1211POPC   GL217654   8.434  23.679   9.062
 1211POPC   C1A17655   8.011  23.511   8.851
 1211POPC   D2A17656   7.815  23.460   8.425
 1211POPC   C3A17657   7.912  23.610   7.985
 1211POPC   C4A17658   8.080  24.008   7.800
 1211POPC   C1B17659   8.540  23.321   8.783
 1211POPC   C2B17660   8.399  23.340   8.340
 1211POPC   C3B17661   8.439  23.626   7.984
 1211POPC   C4B17662   8.546  23.826   7.583
 1212POPC   NC317663   1.810  15.734   9.520
 1212POPC   PO417664   2.371  16.081   9.695
 1212POPC   GL117665   2.219  16.153   9.206
 1212POPC   GL217666   1.875  16.135   9.204
 1212POPC   C1A17667   2.087  15.995   8.768
 1212POPC   D2A17668   2.197  15.766   8.390
 1212POPC   C3A17669   2.106  15.923   7.963
 1212POPC   C4A17670   2.168  15.800   7.491
 1212POPC   C1B17671   1.601  15.959   8.867
 1212POPC   C2B17672   1.722  16.038   8.420
 1212POPC   C3B17673   1.596  15.859   8.031
 1212POPC   C4B17674   1.706  15.616   7.639
 1213POPC   NC317675  25.907  42.524   9.576
 1213POPC   PO417676  26.292  41.940   9.500
 1213POPC   GL117677  26.059  42.210   9.201
 1213POPC   GL217678  26.200  42.537   9.154
 1213POPC   C1A17679  25.824  42.439   8.849
 1213POPC   D2A17680  25.862  42.520   8.404
 1213POPC   C3A17681  25.832  42.240   8.017
 1213POPC   C4A17682  26.022  42.135   7.635
 1213POPC   C1B17683  26.314  42.645   8.767
 1213POPC   C2B17684  26.394  42.575   8.345
 1213POPC   C3B17685  26.116  42.648   7.989
 1213POPC   C4B17686  26.260  42.608   7.583
 1214POPC   NC317687  42.837  23.437   9.361
 1214POPC   PO417688  43.474  23.611   9.281
 1214POPC   GL117689  43.509  23.944   8.968
 1214POPC   GL217690  43.162  24.028   8.903
 1214POPC   C1A17691  43.496  23.864   8.534
 1214POPC   D2A17692  43.106  23.818   8.312
 1214POPC   C3A17693  43.208  23.692   7.932
 1214POPC   C4A17694  43.090  23.963   7.666
 1214POPC   C1B17695  42.990  23.617   8.769
 1214POPC   C2B17696  42.803  23.389   8.437
 1214POPC   C3B17697  42.751  23.488   8.009
 1214POPC   C4B17698  42.613  23.205   7.757
 1215POPC   NC317699  32.728  41.803   9.681
 1215POPC   PO417700  33.274  41.605   9.511
 1215POPC   GL117701  33.299  41.551   9.117
 1215POPC   GL217702  33.243  41.195   9.162
 1215POPC   C1A17703  33.189  41.738   8.694
 1215POPC   D2A17704  32.891  41.718   8.319
 1215POPC   C3A17705  33.072  41.943   7.954
 1215POPC   C4A17706  33.414  41.856   7.650
 1215POPC   C1B17707  33.094  41.251   8.768
 1215POPC   C2B17708  33.251  41.268   8.360
 1215POPC   C3B17709  33.129  41.420   7.970
 1215POPC   C4B17710  32.979  41.316   7.597
 1216POPC   NC317711  22.127  22.234   9.597
 1216POPC   PO417712  22.539  21.825   9.196
 1216POPC   GL117713  22.372  22.165   9.059
 1216POPC   GL217714  22.044  22.217   9.107
 1216POPC   C1A17715  22.272  22.134   8.643
 1216POPC   D2A17716  22.054  22.400   8.435
 1216POPC   C3A17717  22.224  22.467   8.037
 1216POPC   C4A17718  22.270  22.116   7.727
 1216POPC   C1B17719  21.848  21.944   8.858
 1216POPC   C2B17720  21.749  21.966   8.420
 1216POPC   C3B17721  21.830  21.833   7.989
 1216POPC   C4B17722  21.656  21.889   7.580
 1217POPC   NC317723  17.350   1.486   9.515
 1217POPC   PO417724  17.623   0.911   9.655
 1217POPC   GL117725  17.658   1.148   9.285
 1217POPC   GL217726  17.314   1.062   9.217
 1217POPC   C1A17727  17.730   1.130   8.840
 1217POPC   D2A17728  17.720   0.917   8.457
 1217POPC   C3A17729  17.740   1.182   8.102
 1217POPC   C4A17730  17.668   1.124   7.649
 1217POPC   C1B17731  17.282   1.366   8.868
 1217POPC   C2B17732  17.409   1.400   8.445
 1217POPC   C3B17733  17.243   1.379   8.026
 1217POPC   C4B17734  17.162   1.633   7.662
 1218POPC   NC317735  40.446  23.156   9.381
 1218POPC   PO417736  41.034  22.955   9.493
 1218POPC   GL117737  40.779  22.871   9.130
 1218POPC   GL217738  41.037  22.977   8.956
 1218POPC   C1A17739  40.798  22.631   8.705
 1218POPC   D2A17740  40.647  22.725   8.301
 1218POPC   C3A17741  40.920  22.699   7.955
 1218POPC   C4A17742  40.885  22.553   7.521
 1218POPC   C1B17743  40.699  23.133   8.702
 1218POPC   C2B17744  40.716  23.240   8.298
 1218POPC   C3B17745  40.600  23.098   7.894
 1218POPC   C4B17746  40.832  23.070   7.532
 1219POPC   NC317747  21.181  23.668   9.551
 1219POPC   PO417748  21.749  24.058   9.498
 1219POPC   GL117749  21.434  23.889   9.174
 1219POPC   GL217750  21.507  23.512   9.165
 1219POPC   C1A17751  21.238  23.704   8.779
 1219POPC   D2A17752  21.462  23.664   8.392
 1219POPC   C3A17753  21.244  23.658   7.976
 1219POPC   C4A17754  21.086  23.626   7.546
 1219POPC   C1B17755  21.774  23.449   8.784
 1219POPC   C2B17756  21.844  23.242   8.406
 1219POPC   C3B17757  21.614  23.288   8.040
 1219POPC   C4B17758  21.637  23.416   7.633
 1220POPC   NC317759  12.679  14.663   9.821
 1220POPC   PO417760  13.133  14.331   9.416
 1220POPC   GL117761  13.130  14.262   8.987
 1220POPC   GL217762  12.791  14.272   8.812
 1220POPC   C1A17763  13.158  14.573   8.651
 1220POPC   D2A17764  12.875  14.528   8.298
 1220POPC   C3A17765  13.020  14.389   7.915
 1220POPC   C4A17766  12.911  14.016   7.743
 1220POPC   C1B17767  12.550  14.658   8.703
 1220POPC   C2B17768  12.495  14.852   8.375
 1220POPC   C3B17769  12.384  14.783   8.018
 1220POPC   C4B17770  12.692  14.734   7.715
 1221POPC   NC317771  13.127  15.461   9.493
 1221POPC   PO417772  12.793  16.063   9.380
 1221POPC   GL117773  12.866  15.805   9.088
 1221POPC   GL217774  12.699  15.498   9.235
 1221POPC   C1A17775  12.691  15.947   8.681
 1221POPC   D2A17776  12.739  16.170   8.292
 1221POPC   C3A17777  12.890  16.038   7.909
 1221POPC   C4A17778  12.731  16.180   7.473
 1221POPC   C1B17779  12.677  15.448   8.798
 1221POPC   C2B17780  12.667  15.559   8.361
 1221POPC   C3B17781  12.590  15.613   7.939
 1221POPC   C4B17782  12.817  15.703   7.532
 1222POPC   NC317783  15.840  32.988   9.477
 1222POPC   PO417784  16.473  33.020   9.565
 1222POPC   GL117785  16.222  32.762   9.138
 1222POPC   GL217786  15.835  32.730   9.029
 1222POPC   C1A17787  16.145  32.755   8.633
 1222POPC   D2A17788  16.241  33.166   8.443
 1222POPC   C3A17789  16.120  33.172   8.061
 1222POPC   C4A17790  16.080  33.005   7.646
 1222POPC   C1B17791  15.840  33.116   8.815
 1222POPC   C2B17792  15.730  33.048   8.404
 1222POPC   C3B17793  15.816  32.785   8.072
 1222POPC   C4B17794  15.606  32.791   7.709
 1223POPC   NC317795  25.712  12.787   9.447
 1223POPC   PO417796  25.041  12.791   9.405
 1223POPC   GL117797  25.197  12.858   9.012
 1223POPC   GL217798  25.482  13.099   9.127
 1223POPC   C1A17799  25.030  12.849   8.567
 1223POPC   D2A17800  25.142  12.550   8.235
 1223POPC   C3A17801  25.163  12.621   7.843
 1223POPC   C4A17802  25.486  12.903   7.712
 1223POPC   C1B17803  25.307  13.282   8.788
 1223POPC   C2B17804  25.182  13.323   8.403
 1223POPC   C3B17805  25.173  13.065   8.090
 1223POPC   C4B17806  25.013  13.086   7.681
 1224POPC   NC317807  11.748  28.246   9.542
 1224POPC   PO417808  11.073  28.517   9.611
 1224POPC   GL117809  11.242  28.504   9.190
 1224POPC   GL217810  11.418  28.193   9.162
 1224POPC   C1A17811  11.377  28.480   8.743
 1224POPC   D2A17812  11.163  28.526   8.355
 1224POPC   C3A17813  11.369  28.429   7.990
 1224POPC   C4A17814  11.297  28.616   7.631
 1224POPC   C1B17815  11.180  28.002   8.849
 1224POPC   C2B17816  11.008  28.044   8.455
 1224POPC   C3B17817  11.110  27.990   8.026
 1224POPC   C4B17818  11.252  28.086   7.597
 1225POPC   NC317819  29.325  26.380   9.749
 1225POPC   PO417820  29.068  26.921   9.374
 1225POPC   GL117821  29.166  26.862   8.971
 1225POPC   GL217822  28.805  26.826   8.934
 1225POPC   C1A17823  29.244  26.884   8.534
 1225POPC   D2A17824  29.167  26.644   8.189
 1225POPC   C3A17825  29.308  26.761   7.801
 1225POPC   C4A17826  29.062  26.804   7.439
 1225POPC   C1B17827  28.861  27.200   8.735
 1225POPC   C2B17828  28.992  27.258   8.322
 1225POPC   C3B17829  29.095  27.207   7.925
 1225POPC   C4B17830  28.823  27.220   7.603
 1226POPC   NC317831   4.268  39.349   9.460
 1226POPC   PO417832   4.394  38.666   9.425
 1226POPC   GL117833   4.163  38.932   9.169
 1226POPC   GL217834   4.515  39.063   9.114
 1226POPC   C1A17835   4.142  39.228   8.791
 1226POPC   D2A17836   4.096  39.473   8.391
 1226POPC   C3A17837   4.224  39.292   7.986
 1226POPC   C4A17838   4.041  39.202   7.591
 1226POPC   C1B17839   4.698  39.188   8.744
 1226POPC   C2B17840   4.634  39.424   8.391
 1226POPC   C3B17841   4.731  39.320   8.007
 1226POPC   C4B17842   4.704  38.969   7.754
 1227POPC   NC317843   3.788  42.164   9.572
 1227POPC   PO417844   3.223  42.392   9.432
 1227POPC   GL117845   3.466  42.588   9.114
 1227POPC   GL217846   3.743  42.415   9.131
 1227POPC   C1A17847   3.348  42.525   8.720
 1227POPC   D2A17848   3.327  42.119   8.551
 1227POPC   C3A17849   3.248  42.114   8.108
 1227POPC   C4A17850   3.128  42.444   7.800
 1227POPC   C1B17851   3.782  42.280   8.750
 1227POPC   C2B17852   3.652  42.434   8.322
 1227POPC   C3B17853   3.672  42.327   7.903
 1227POPC   C4B17854   3.805  42.652   7.680
 1228POPC   NC317855   2.472   2.953   9.479
 1228POPC   PO417856   3.023   2.583   9.611
 1228POPC   GL117857   2.925   2.494   9.197
 1228POPC   GL217858   2.584   2.537   9.202
 1228POPC   C1A17859   3.062   2.724   8.851
 1228POPC   D2A17860   3.182   2.958   8.474
 1228POPC   C3A17861   3.031   2.828   8.046
 1228POPC   C4A17862   2.761   2.842   7.706
 1228POPC   C1B17863   2.510   2.654   8.816
 1228POPC   C2B17864   2.745   2.641   8.461
 1228POPC   C3B17865   2.542   2.792   8.172
 1228POPC   C4B17866   2.301   2.680   7.887
 1229POPC   NC317867   0.851  37.627   9.514
 1229POPC   PO417868   0.214  37.823   9.468
 1229POPC   GL117869   0.436  37.874   9.110
 1229POPC   GL217870   0.546  37.563   9.065
 1229POPC   C1A17871   0.308  37.877   8.683
 1229POPC   D2A17872   0.444  37.939   8.280
 1229POPC   C3A17873   0.253  37.828   7.914
 1229POPC   C4A17874   0.389  37.700   7.505
 1229POPC   C1B17875   0.397  37.369   8.702
 1229POPC   C2B17876   0.231  37.457   8.288
 1229POPC   C3B17877   0.414  37.341   7.874
 1229POPC   C4B17878   0.602  37.242   7.455
 1230POPC   NC317879  41.726  25.074   9.473
 1230POPC   PO417880  41.313  25.499   9.788
 1230POPC   GL117881  41.368  25.445   9.309
 1230POPC   GL217882  41.662  25.290   9.034
 1230POPC   C1A17883  41.195  25.395   8.889
 1230POPC   D2A17884  41.443  25.081   8.609
 1230POPC   C3A17885  41.599  25.278   8.210
 1230POPC   C4A17886  41.448  25.155   7.786
 1230POPC   C1B17887  41.965  25.046   8.739
 1230POPC   C2B17888  42.098  24.976   8.287
 1230POPC   C3B17889  41.949  25.115   7.858
 1230POPC   C4B17890  41.799  25.015   7.431
 1231POPC   NC317891  10.302  27.229   9.573
 1231POPC   PO417892  10.831  27.630   9.531
 1231POPC   GL117893  10.722  27.576   9.161
 1231POPC   GL217894  10.370  27.478   9.113
 1231POPC   C1A17895  10.681  27.811   8.810
 1231POPC   D2A17896  10.397  27.737   8.524
 1231POPC   C3A17897  10.661  27.743   8.213
 1231POPC   C4A17898  10.707  27.816   7.804
 1231POPC   C1B17899  10.618  27.317   8.732
 1231POPC   C2B17900  10.476  27.268   8.311
 1231POPC   C3B17901  10.418  27.398   7.886
 1231POPC   C4B17902  10.341  27.263   7.458
 1232POPC   NC317903  40.615   3.620   9.956
 1232POPC   PO417904  41.035   3.389   9.487
 1232POPC   GL117905  40.788   3.460   9.120
 1232POPC   GL217906  40.675   3.140   8.987
 1232POPC   C1A17907  40.865   3.602   8.714
 1232POPC   D2A17908  40.970   3.452   8.317
 1232POPC   C3A17909  40.685   3.568   7.989
 1232POPC   C4A17910  40.729   3.678   7.565
 1232POPC   C1B17911  41.059   3.124   8.706
 1232POPC   C2B17912  41.277   2.982   8.350
 1232POPC   C3B17913  41.335   3.228   8.019
 1232POPC   C4B17914  41.108   3.392   7.708
 1233POPC   NC317915  34.164  27.332   9.487
 1233POPC   PO417916  33.606  27.655   9.730
 1233POPC   GL117917  33.721  27.535   9.250
 1233POPC   GL217918  34.038  27.532   9.042
 1233POPC   C1A17919  33.624  27.629   8.779
 1233POPC   D2A17920  33.804  27.483   8.372
 1233POPC   C3A17921  33.539  27.246   8.092
 1233POPC   C4A17922  33.666  27.516   7.787
 1233POPC   C1B17923  33.925  27.184   8.763
 1233POPC   C2B17924  33.978  26.970   8.344
 1233POPC   C3B17925  34.016  27.109   7.929
 1233POPC   C4B17926  33.844  27.132   7.533
 1234POPC   NC317927  11.839  37.960   9.375
 1234POPC   PO417928  11.956  37.403   9.556
 1234POPC   GL117929  12.229  37.588   9.213
 1234POPC   GL217930  12.122  37.863   8.999
 1234POPC   C1A17931  12.270  37.480   8.737
 1234POPC   D2A17932  12.085  37.455   8.310
 1234POPC   C3A17933  12.348  37.397   7.937
 1234POPC   C4A17934  12.495  37.607   7.520
 1234POPC   C1B17935  11.937  38.086   8.692
 1234POPC   C2B17936  11.840  37.930   8.301
 1234POPC   C3B17937  11.947  37.756   7.922
 1234POPC   C4B17938  11.958  38.158   7.756
 1235POPC   NC317939  40.320  40.848   9.271
 1235POPC   PO417940  40.923  41.012   9.499
 1235POPC   GL117941  40.773  40.957   9.104
 1235POPC   GL217942  40.767  40.670   9.023
 1235POPC   C1A17943  40.713  41.150   8.718
 1235POPC   D2A17944  40.535  41.079   8.340
 1235POPC   C3A17945  40.893  41.053   8.103
 1235POPC   C4A17946  40.944  41.010   7.673
 1235POPC   C1B17947  40.553  40.673   8.673
 1235POPC   C2B17948  40.689  40.571   8.283
 1235POPC   C3B17949  40.605  40.698   7.879
 1235POPC   C4B17950  40.714  40.525   7.469
 1236POPC   NC317951  35.284   0.208   9.305
 1236POPC   PO417952  35.835   0.541   9.414
 1236POPC   GL117953  35.589   0.512   9.037
 1236POPC   GL217954  35.410   0.854   8.964
 1236POPC   C1A17955  35.316   0.424   8.656
 1236POPC   D2A17956  35.132   0.486   8.234
 1236POPC   C3A17957  35.265   0.211   7.873
 1236POPC   C4A17958  35.586   0.219   7.534
 1236POPC   C1B17959  35.765   0.798   8.678
 1236POPC   C2B17960  35.806   0.432   8.402
 1236POPC   C3B17961  35.702   0.479   7.972
 1236POPC   C4B17962  35.364   0.735   7.812
 1237POPC   NC317963  29.296   4.718   9.558
 1237POPC   PO417964  28.987   5.348   9.413
 1237POPC   GL117965  29.109   5.183   9.064
 1237POPC   GL217966  29.357   4.961   9.116
 1237POPC   C1A17967  29.022   4.996   8.686
 1237POPC   D2A17968  29.281   5.073   8.347
 1237POPC   C3A17969  29.039   5.100   7.973
 1237POPC   C4A17970  29.024   5.324   7.592
 1237POPC   C1B17971  29.382   4.653   8.783
 1237POPC   C2B17972  29.197   4.567   8.379
 1237POPC   C3B17973  29.344   4.554   7.958
 1237POPC   C4B17974  29.335   4.851   7.608
 1238POPC   NC317975   6.421  29.362   9.432
 1238POPC   PO417976   6.548  28.752   9.295
 1238POPC   GL117977   6.674  29.098   9.071
 1238POPC   GL217978   6.958  29.358   9.167
 1238POPC   C1A17979   6.451  29.112   8.693
 1238POPC   D2A17980   6.530  28.900   8.308
 1238POPC   C3A17981   6.511  29.114   7.906
 1238POPC   C4A17982   6.485  28.966   7.496
 1238POPC   C1B17983   6.808  29.456   8.739
 1238POPC   C2B17984   6.655  29.413   8.302
 1238POPC   C3B17985   6.959  29.376   7.905
 1238POPC   C4B17986   6.873  29.293   7.473
 1239POPC   NC317987   9.156   5.345   9.544
 1239POPC   PO417988   8.816   4.824   9.546
 1239POPC   GL117989   9.023   4.969   9.208
 1239POPC   GL217990   8.863   5.286   9.151
 1239POPC   C1A17991   9.119   4.914   8.783
 1239POPC   D2A17992   8.998   5.145   8.439
 1239POPC   C3A17993   8.846   4.931   8.096
 1239POPC   C4A17994   9.173   4.908   7.786
 1239POPC   C1B17995   8.622   5.300   8.796
 1239POPC   C2B17996   8.505   5.266   8.393
 1239POPC   C3B17997   8.610   5.418   8.021
 1239POPC   C4B17998   8.694   5.168   7.651
 1240POPC   NC317999  22.818  15.841   9.547
 1240POPC   PO418000  23.304  16.039   9.160
 1240POPC   GL118001  22.847  16.005   9.063
 1240POPC   GL218002  22.729  15.678   9.002
 1240POPC   C1A18003  22.523  16.085   8.758
 1240POPC   D2A18004  22.538  16.191   8.320
 1240POPC   C3A18005  22.558  15.918   7.954
 1240POPC   C4A18006  22.766  16.004   7.529
 1240POPC   C1B18007  22.775  15.629   8.524
 1240POPC   C2B18008  23.106  15.560   8.198
 1240POPC   C3B18009  22.954  15.617   7.801
 1240POPC   C4B18010  22.567  15.508   7.651
 1241POPC   NC318011   5.549  13.127   9.405
 1241POPC   PO418012   6.149  12.824   9.438
 1241POPC   GL118013   5.832  12.773   9.141
 1241POPC   GL218014   5.475  12.652   9.192
 1241POPC   C1A18015   5.801  12.920   8.746
 1241POPC   D2A18016   5.854  12.855   8.347
 1241POPC   C3A18017   5.995  13.184   8.080
 1241POPC   C4A18018   5.959  12.992   7.694
 1241POPC   C1B18019   5.299  12.873   8.833
 1241POPC   C2B18020   5.391  13.061   8.440
 1241POPC   C3B18021   5.515  12.991   8.012
 1241POPC   C4B18022   5.333  13.135   7.669
 1242POPC   NC318023  16.660   1.656   9.512
 1242POPC   PO418024  16.263   2.272   9.426
 1242POPC   GL118025  16.531   2.166   9.058
 1242POPC   GL218026  16.815   1.921   9.075
 1242POPC   C1A18027  16.639   2.084   8.625
 1242POPC   D2A18028  16.484   2.312   8.312
 1242POPC   C3A18029  16.280   2.169   7.965
 1242POPC   C4A18030  16.296   2.123   7.544
 1242POPC   C1B18031  17.103   1.874   8.709
 1242POPC   C2B18032  16.976   1.697   8.331
 1242POPC   C3B18033  16.807   1.857   7.973
 1242POPC   C4B18034  16.755   2.257   7.759
 1243POPC   NC318035  39.607  26.033   9.505
 1243POPC   PO418036  38.976  26.335   9.377
 1243POPC   GL118037  39.259  26.155   9.163
 1243POPC   GL218038  39.185  25.823   9.284
 1243POPC   C1A18039  39.453  26.248   8.780
 1243POPC   D2A18040  39.197  26.445   8.472
 1243POPC   C3A18041  39.310  26.254   8.115
 1243POPC   C4A18042  39.331  26.250   7.707
 1243POPC   C1B18043  39.372  25.741   8.868
 1243POPC   C2B18044  39.326  25.835   8.424
 1243POPC   C3B18045  39.266  25.724   7.966
 1243POPC   C4B18046  39.099  25.808   7.525
 1244POPC   NC318047  30.577   9.546   9.521
 1244POPC   PO418048  30.972  10.018   9.331
 1244POPC   GL118049  30.739   9.771   9.029
 1244POPC   GL218050  30.404   9.580   9.056
 1244POPC   C1A18051  30.799   9.829   8.578
 1244POPC   D2A18052  30.737   9.557   8.224
 1244POPC   C3A18053  30.800   9.814   7.864
 1244POPC   C4A18054  31.095   9.867   7.572
 1244POPC   C1B18055  30.295   9.734   8.678
 1244POPC   C2B18056  30.345  10.058   8.382
 1244POPC   C3B18057  30.337   9.915   7.996
 1244POPC   C4B18058  30.273   9.775   7.614
 1245POPC   NC318059  14.402  20.616   9.772
 1245POPC   PO418060  14.841  21.167   9.570
 1245POPC   GL118061  14.647  20.841   9.284
 1245POPC   GL218062  14.278  20.798   9.294
 1245POPC   C1A18063  14.599  20.514   8.943
 1245POPC   D2A18064  14.701  20.522   8.491
 1245POPC   C3A18065  14.493  20.512   8.120
 1245POPC   C4A18066  14.607  20.447   7.728
 1245POPC   C1B18067  14.278  20.893   8.846
 1245POPC   C2B18068  14.382  20.943   8.387
 1245POPC   C3B18069  14.324  20.963   7.925
 1245POPC   C4B18070  14.342  20.856   7.475
 1246POPC   NC318071  14.945  15.042   9.389
 1246POPC   PO418072  15.351  15.534   9.309
 1246POPC   GL118073  15.312  15.367   8.904
 1246POPC   GL218074  15.060  15.099   8.908
 1246POPC   C1A18075  15.167  15.328   8.468
 1246POPC   D2A18076  14.990  14.996   8.235
 1246POPC   C3A18077  15.333  14.866   7.932
 1246POPC   C4A18078  15.649  15.107   7.769
 1246POPC   C1B18079  14.789  15.444   8.801
 1246POPC   C2B18080  14.681  15.604   8.396
 1246POPC   C3B18081  14.964  15.611   8.061
 1246POPC   C4B18082  15.077  15.275   7.783
 1247POPC   NC318083  42.863  44.239   9.615
 1247POPC   PO418084  43.264  43.691   9.611
 1247POPC   GL118085  43.172  43.688   9.208
 1247POPC   GL218086  42.880  43.869   9.212
 1247POPC   C1A18087  43.073  43.603   8.790
 1247POPC   D2A18088  43.141  43.851   8.439
 1247POPC   C3A18089  43.003  43.728   8.048
 1247POPC   C4A18090  43.161  44.002   7.746
 1247POPC   C1B18091  42.997  44.137   8.858
 1247POPC   C2B18092  42.836  44.293   8.454
 1247POPC   C3B18093  42.756  44.210   8.003
 1247POPC   C4B18094  42.805  44.272   7.521
 1248POPC   NC318095  36.228  40.978   9.433
 1248POPC   PO418096  36.225  40.274   9.434
 1248POPC   GL118097  36.264  40.576   9.108
 1248POPC   GL218098  35.958  40.733   9.041
 1248POPC   C1A18099  36.426  40.631   8.691
 1248POPC   D2A18100  36.279  40.415   8.332
 1248POPC   C3A18101  36.039  40.703   8.107
 1248POPC   C4A18102  36.315  40.777   7.803
 1248POPC   C1B18103  36.142  41.066   8.778
 1248POPC   C2B18104  36.308  41.085   8.372
 1248POPC   C3B18105  36.143  41.211   7.992
 1248POPC   C4B18106  35.942  41.094   7.610
 1249POPC   NC318107  18.814   9.809   9.686
 1249POPC   PO418108  19.541   9.610   9.503
 1249POPC   GL118109  19.352   9.589   9.074
 1249POPC   GL218110  19.064   9.816   9.080
 1249POPC   C1A18111  19.131   9.524   8.691
 1249POPC   D2A18112  19.173   9.709   8.288
 1249POPC   C3A18113  19.124   9.481   7.895
 1249POPC   C4A18114  19.433   9.426   7.545
 1249POPC   C1B18115  19.108  10.057   8.696
 1249POPC   C2B18116  18.789  10.078   8.384
 1249POPC   C3B18117  18.788   9.902   8.007
 1249POPC   C4B18118  19.185  10.022   7.825
 1250POPC   NC318119   4.594   3.556   9.537
 1250POPC   PO418120   5.250   3.562   9.406
 1250POPC   GL118121   5.072   3.611   9.019
 1250POPC   GL218122   5.076   3.319   8.908
 1250POPC   C1A18123   4.867   3.620   8.575
 1250POPC   D2A18124   4.681   3.878   8.254
 1250POPC   C3A18125   4.945   3.844   7.903
 1250POPC   C4A18126   5.171   3.741   7.543
 1250POPC   C1B18127   5.394   3.472   8.626
 1250POPC   C2B18128   5.327   3.654   8.247
 1250POPC   C3B18129   5.229   3.413   7.930
 1250POPC   C4B18130   4.919   3.136   7.867
 1251POPC   NC318131   0.449  10.961   9.447
 1251POPC   PO418132   0.401  11.604   9.517
 1251POPC   GL118133   0.448  11.360   9.146
 1251POPC   GL218134   0.772  11.331   9.155
 1251POPC   C1A18135   0.315  11.394   8.745
 1251POPC   D2A18136   0.502  11.501   8.375
 1251POPC   C3A18137   0.273  11.323   8.072
 1251POPC   C4A18138   0.269  11.536   7.682
 1251POPC   C1B18139   0.778  11.184   8.722
 1251POPC   C2B18140   0.691  11.045   8.287
 1251POPC   C3B18141   0.706  11.238   7.846
 1251POPC   C4B18142   0.780  11.145   7.394
 1252POPC   NC318143  22.893  40.961   9.598
 1252POPC   PO418144  22.697  40.303   9.432
 1252POPC   GL118145  22.849  40.567   9.099
 1252POPC   GL218146  23.025  40.914   9.123
 1252POPC   C1A18147  23.116  40.605   8.734
 1252POPC   D2A18148  22.949  40.872   8.439
 1252POPC   C3A18149  23.006  40.714   8.054
 1252POPC   C4A18150  22.916  40.556   7.674
 1252POPC   C1B18151  23.307  41.204   8.934
 1252POPC   C2B18152  23.367  41.166   8.501
 1252POPC   C3B18153  23.159  41.216   8.090
 1252POPC   C4B18154  23.299  40.971   7.717
 1253POPC   NC318155  41.771  10.157   9.539
 1253POPC   PO418156  41.088  10.181   9.681
 1253POPC   GL118157  41.386  10.212   9.202
 1253POPC   GL218158  41.647  10.432   9.132
 1253POPC   C1A18159  41.359  10.555   8.736
 1253POPC   D2A18160  41.149  10.666   8.346
 1253POPC   C3A18161  41.352  10.454   8.003
 1253POPC   C4A18162  41.432  10.676   7.677
 1253POPC   C1B18163  41.660  10.172   8.761
 1253POPC   C2B18164  41.719  10.422   8.357
 1253POPC   C3B18165  41.871  10.604   7.938
 1253POPC   C4B18166  41.813  10.431   7.480
 1254POPC   NC318167  21.251  35.639   9.446
 1254POPC   PO418168  21.537  35.069   9.283
 1254POPC   GL118169  21.407  35.337   9.051
 1254POPC   GL218170  21.087  35.420   9.010
 1254POPC   C1A18171  21.369  35.197   8.642
 1254POPC   D2A18172  21.698  35.101   8.380
 1254POPC   C3A18173  21.682  35.292   7.977
 1254POPC   C4A18174  21.662  35.003   7.655
 1254POPC   C1B18175  21.275  35.685   8.717
 1254POPC   C2B18176  21.362  35.575   8.306
 1254POPC   C3B18177  21.196  35.393   7.967
 1254POPC   C4B18178  21.358  35.690   7.741
 1255POPC   NC318179  42.205  44.307   9.521
 1255POPC   PO418180  41.541  44.141   9.451
 1255POPC   GL118181  41.731  43.925   9.144
 1255POPC   GL218182  41.980  44.172   9.090
 1255POPC   C1A18183  41.506  43.862   8.770
 1255POPC   D2A18184  41.596  43.665   8.387
 1255POPC   C3A18185  41.321  43.730   8.046
 1255POPC   C4A18186  41.593  43.749   7.733
 1255POPC   C1B18187  41.710  44.326   8.805
 1255POPC   C2B18188  41.717  44.366   8.377
 1255POPC   C3B18189  41.548  44.208   8.022
 1255POPC   C4B18190  41.776  44.219   7.677
 1256POPC   NC318191   0.772  21.700   9.506
 1256POPC   PO418192   0.589  21.010   9.694
 1256POPC   GL118193   0.592  21.203   9.293
 1256POPC   GL218194   0.342  21.462   9.279
 1256POPC   C1A18195   0.660  21.247   8.848
 1256POPC   D2A18196   0.576  21.476   8.459
 1256POPC   C3A18197   0.337  21.262   8.131
 1256POPC   C4A18198   0.471  21.065   7.768
 1256POPC   C1B18199   0.237  21.570   8.851
 1256POPC   C2B18200   0.177  21.775   8.453
 1256POPC   C3B18201   0.203  21.802   8.027
 1256POPC   C4B18202   0.396  21.571   7.692
 1257POPC   NC318203  40.014  22.016   9.486
 1257POPC   PO418204  40.295  22.707   9.480
 1257POPC   GL118205  40.017  22.477   9.162
 1257POPC   GL218206  40.094  22.148   9.020
 1257POPC   C1A18207  39.882  22.535   8.740
 1257POPC   D2A18208  40.165  22.494   8.380
 1257POPC   C3A18209  39.918  22.351   8.052
 1257POPC   C4A18210  39.889  22.129   7.664
 1257POPC   C1B18211  40.245  21.809   8.782
 1257POPC   C2B18212  40.169  21.960   8.364
 1257POPC   C3B18213  40.290  21.976   7.930
 1257POPC   C4B18214  40.191  21.685   7.640
 1258POPC   NC318215  32.212  37.447   9.468
 1258POPC   PO418216  32.581  38.006   9.410
 1258POPC   GL118217  32.298  37.794   9.116
 1258POPC   GL218218  32.397  37.451   8.998
 1258POPC   C1A18219  31.991  37.690   8.788
 1258POPC   D2A18220  32.014  37.795   8.390
 1258POPC   C3A18221  32.296  37.624   8.098
 1258POPC   C4A18222  32.028  37.684   7.763
 1258POPC   C1B18223  32.481  37.686   8.629
 1258POPC   C2B18224  32.711  37.858   8.313
 1258POPC   C3B18225  32.713  38.084   7.944
 1258POPC   C4B18226  32.429  37.977   7.636
 1259POPC   NC318227  33.421  40.250   9.666
 1259POPC   PO418228  33.608  40.834   9.525
 1259POPC   GL118229  33.694  40.719   9.139
 1259POPC   GL218230  33.834  40.388   9.309
 1259POPC   C1A18231  33.929  40.928   8.771
 1259POPC   D2A18232  34.055  40.971   8.325
 1259POPC   C3A18233  33.787  41.020   7.975
 1259POPC   C4A18234  33.740  40.858   7.545
 1259POPC   C1B18235  33.778  40.311   8.873
 1259POPC   C2B18236  33.764  40.522   8.499
 1259POPC   C3B18237  33.920  40.528   8.096
 1259POPC   C4B18238  33.847  40.374   7.718
 1260POPC   NC318239  12.872  29.543   9.407
 1260POPC   PO418240  12.918  30.240   9.533
 1260POPC   GL118241  13.067  30.017   9.204
 1260POPC   GL218242  12.727  29.947   9.116
 1260POPC   C1A18243  13.090  30.047   8.762
 1260POPC   D2A18244  12.848  30.169   8.418
 1260POPC   C3A18245  12.994  30.026   8.027
 1260POPC   C4A18246  12.718  30.141   7.712
 1260POPC   C1B18247  12.647  29.763   8.723
 1260POPC   C2B18248  12.827  29.614   8.326
 1260POPC   C3B18249  12.631  29.666   7.928
 1260POPC   C4B18250  12.669  29.703   7.475
 1261POPC   NC318251  18.862  38.184   9.558
 1261POPC   PO418252  19.437  38.591   9.554
 1261POPC   GL118253  19.194  38.474   9.197
 1261POPC   GL218254  18.845  38.603   9.203
 1261POPC   C1A18255  19.273  38.520   8.758
 1261POPC   D2A18256  19.443  38.379   8.359
 1261POPC   C3A18257  19.263  38.522   7.973
 1261POPC   C4A18258  19.356  38.537   7.540
 1261POPC   C1B18259  18.783  38.385   8.802
 1261POPC   C2B18260  18.928  38.469   8.387
 1261POPC   C3B18261  18.768  38.345   8.036
 1261POPC   C4B18262  18.806  38.515   7.662
 1262POPC   NC318263   0.443  41.769   9.576
 1262POPC   PO418264   0.422  41.154   9.422
 1262POPC   GL118265   0.473  41.506   9.109
 1262POPC   GL218266   0.247  41.323   8.897
 1262POPC   C1A18267   0.454  41.707   8.662
 1262POPC   D2A18268   0.297  41.618   8.223
 1262POPC   C3A18269   0.519  41.673   7.805
 1262POPC   C4A18270   0.660  41.741   7.349
 1262POPC   C1B18271   0.627  41.209   8.716
 1262POPC   C2B18272   0.742  41.387   8.340
 1262POPC   C3B18273   0.712  41.201   7.918
 1262POPC   C4B18274   0.536  41.247   7.488
 1263POPC   NC318275   6.475  35.854   9.475
 1263POPC   PO418276   6.869  36.324   9.566
 1263POPC   GL118277   6.723  36.156   9.135
 1263POPC   GL218278   6.337  36.183   9.099
 1263POPC   C1A18279   6.601  36.284   8.686
 1263POPC   D2A18280   6.587  36.047   8.334
 1263POPC   C3A18281   6.477  36.187   7.987
 1263POPC   C4A18282   6.590  36.157   7.589
 1263POPC   C1B18283   6.193  35.983   8.668
 1263POPC   C2B18284   6.107  35.913   8.205
 1263POPC   C3B18285   6.398  35.704   7.842
 1263POPC   C4B18286   6.395  35.743   7.363
 1264POPC   NC318287  21.537  16.974   9.489
 1264POPC   PO418288  21.504  17.616   9.492
 1264POPC   GL118289  21.365  17.436   9.132
 1264POPC   GL218290  21.681  17.271   9.110
 1264POPC   C1A18291  21.186  17.349   8.732
 1264POPC   D2A18292  21.152  17.588   8.366
 1264POPC   C3A18293  21.069  17.431   7.998
 1264POPC   C4A18294  21.218  17.480   7.584
 1264POPC   C1B18295  21.680  17.291   8.705
 1264POPC   C2B18296  21.639  17.474   8.327
 1264POPC   C3B18297  21.531  17.693   7.954
 1264POPC   C4B18298  21.826  17.860   7.659
 1265POPC   NC318299  18.701  28.223   9.430
 1265POPC   PO418300  19.367  28.345   9.307
 1265POPC   GL118301  19.030  28.468   9.061
 1265POPC   GL218302  19.318  28.511   8.814
 1265POPC   C1A18303  18.824  28.556   8.668
 1265POPC   D2A18304  18.834  28.264   8.298
 1265POPC   C3A18305  18.920  28.426   7.878
 1265POPC   C4A18306  19.187  28.538   7.536
 1265POPC   C1B18307  19.095  28.091   8.709
 1265POPC   C2B18308  19.023  27.796   8.369
 1265POPC   C3B18309  19.088  27.934   7.942
 1265POPC   C4B18310  19.246  28.045   7.535
 1266POPC   NC318311   1.651  43.341   9.370
 1266POPC   PO418312   1.000  43.027   9.375
 1266POPC   GL118313   1.262  43.137   9.085
 1266POPC   GL218314   1.475  42.862   9.163
 1266POPC   C1A18315   1.184  43.304   8.689
 1266POPC   D2A18316   1.076  43.027   8.378
 1266POPC   C3A18317   1.172  43.225   8.026
 1266POPC   C4A18318   1.057  43.102   7.674
 1266POPC   C1B18319   1.561  42.932   8.705
 1266POPC   C2B18320   1.599  43.134   8.282
 1266POPC   C3B18321   1.575  42.966   7.836
 1266POPC   C4B18322   1.490  43.136   7.419
 1267POPC   NC318323  25.673   7.518   9.423
 1267POPC   PO418324  25.007   7.403   9.615
 1267POPC   GL118325  25.015   7.360   9.162
 1267POPC   GL218326  25.355   7.270   9.092
 1267POPC   C1A18327  24.859   7.255   8.748
 1267POPC   D2A18328  24.931   7.408   8.349
 1267POPC   C3A18329  24.966   7.195   7.975
 1267POPC   C4A18330  25.137   7.509   7.726
 1267POPC   C1B18331  25.610   7.428   8.735
 1267POPC   C2B18332  25.650   7.262   8.305
 1267POPC   C3B18333  25.621   7.279   7.844
 1267POPC   C4B18334  25.497   6.986   7.522
 1268POPC   NC318335  23.965   4.006   9.461
 1268POPC   PO418336  23.784   4.567   9.638
 1268POPC   GL118337  23.737   4.422   9.248
 1268POPC   GL218338  23.508   4.680   9.161
 1268POPC   C1A18339  23.683   4.146   8.875
 1268POPC   D2A18340  23.597   4.255   8.437
 1268POPC   C3A18341  23.915   4.193   8.149
 1268POPC   C4A18342  23.679   4.098   7.810
 1268POPC   C1B18343  23.848   4.638   8.812
 1268POPC   C2B18344  23.908   4.721   8.382
 1268POPC   C3B18345  23.668   4.635   8.029
 1268POPC   C4B18346  23.974   4.524   7.729
 1269POPC   NC318347  15.025  24.193   9.333
 1269POPC   PO418348  15.402  24.794   9.379
 1269POPC   GL118349  15.263  24.542   9.058
 1269POPC   GL218350  15.163  24.802   8.830
 1269POPC   C1A18351  15.273  24.277   8.686
 1269POPC   D2A18352  15.268  24.504   8.319
 1269POPC   C3A18353  15.381  24.411   7.899
 1269POPC   C4A18354  15.370  24.395   7.447
 1269POPC   C1B18355  14.820  24.505   8.771
 1269POPC   C2B18356  14.796  24.309   8.403
 1269POPC   C3B18357  14.876  24.404   7.988
 1269POPC   C4B18358  14.932  24.593   7.593
 1270POPC   NC318359  41.372   5.521   9.506
 1270POPC   PO418360  41.734   4.933   9.422
 1270POPC   GL118361  41.586   5.051   9.061
 1270POPC   GL218362  41.660   5.390   9.102
 1270POPC   C1A18363  41.624   4.860   8.675
 1270POPC   D2A18364  41.602   5.090   8.309
 1270POPC   C3A18365  41.737   4.847   7.994
 1270POPC   C4A18366  41.674   4.665   7.612
 1270POPC   C1B18367  41.559   5.429   8.708
 1270POPC   C2B18368  41.351   5.556   8.387
 1270POPC   C3B18369  41.534   5.533   8.024
 1270POPC   C4B18370  41.423   5.152   7.759
 1271POPC   NC318371  15.903  18.460   9.336
 1271POPC   PO418372  15.501  17.889   9.357
 1271POPC   GL118373  15.834  18.016   9.055
 1271POPC   GL218374  16.201  18.124   9.067
 1271POPC   C1A18375  15.969  18.034   8.619
 1271POPC   D2A18376  16.080  18.000   8.180
 1271POPC   C3A18377  15.856  18.177   7.858
 1271POPC   C4A18378  15.711  18.286   7.469
 1271POPC   C1B18379  16.168  18.491   8.748
 1271POPC   C2B18380  15.996  18.503   8.324
 1271POPC   C3B18381  16.232  18.502   7.947
 1271POPC   C4B18382  16.217  18.339   7.553
 1272POPC   NC318383  33.357  27.289   9.565
 1272POPC   PO418384  33.931  26.920   9.387
 1272POPC   GL118385  33.728  26.796   9.040
 1272POPC   GL218386  33.446  26.608   9.168
 1272POPC   C1A18387  33.973  26.608   8.708
 1272POPC   D2A18388  34.243  26.467   8.380
 1272POPC   C3A18389  34.128  26.606   7.955
 1272POPC   C4A18390  33.844  26.655   7.581
 1272POPC   C1B18391  33.493  26.446   8.752
 1272POPC   C2B18392  33.514  26.729   8.424
 1272POPC   C3B18393  33.631  26.692   8.026
 1272POPC   C4B18394  33.441  26.377   7.718
 1273POPC   NC318395   7.214  12.618   9.395
 1273POPC   PO418396   7.272  11.938   9.545
 1273POPC   GL118397   7.333  11.986   9.097
 1273POPC   GL218398   7.475  12.294   9.119
 1273POPC   C1A18399   7.481  12.067   8.648
 1273POPC   D2A18400   7.781  12.002   8.286
 1273POPC   C3A18401   7.524  12.030   7.926
 1273POPC   C4A18402   7.600  12.101   7.461
 1273POPC   C1B18403   7.112  12.376   8.823
 1273POPC   C2B18404   7.019  12.249   8.453
 1273POPC   C3B18405   7.243  12.420   8.131
 1273POPC   C4B18406   7.225  12.373   7.697
 1274POPC   NC318407  19.332  15.757   9.243
 1274POPC   PO418408  19.779  16.111   9.622
 1274POPC   GL118409  19.860  16.003   9.213
 1274POPC   GL218410  19.900  15.626   9.255
 1274POPC   C1A18411  19.686  16.141   8.801
 1274POPC   D2A18412  19.455  16.161   8.421
 1274POPC   C3A18413  19.662  16.176   8.039
 1274POPC   C4A18414  19.527  16.008   7.643
 1274POPC   C1B18415  19.936  15.699   8.814
 1274POPC   C2B18416  19.731  15.719   8.420
 1274POPC   C3B18417  19.613  15.670   8.001
 1274POPC   C4B18418  19.928  15.697   7.657
 1275POPC   NC318419   5.744  31.095   9.423
 1275POPC   PO418420   6.322  31.414   9.507
 1275POPC   GL118421   6.203  31.533   9.097
 1275POPC   GL218422   5.844  31.513   9.100
 1275POPC   C1A18423   6.151  31.653   8.687
 1275POPC   D2A18424   5.885  31.687   8.360
 1275POPC   C3A18425   6.021  31.478   8.032
 1275POPC   C4A18426   5.991  31.384   7.625
 1275POPC   C1B18427   5.554  31.537   8.741
 1275POPC   C2B18428   5.383  31.541   8.312
 1275POPC   C3B18429   5.535  31.561   7.876
 1275POPC   C4B18430   5.532  31.503   7.402
 1276POPC   NC318431  37.357  20.222   9.377
 1276POPC   PO418432  37.969  20.120   9.480
 1276POPC   GL118433  37.904  19.865   9.121
 1276POPC   GL218434  37.571  19.708   9.076
 1276POPC   C1A18435  37.977  19.750   8.720
 1276POPC   D2A18436  37.801  19.859   8.338
 1276POPC   C3A18437  38.013  19.807   7.963
 1276POPC   C4A18438  37.854  19.861   7.573
 1276POPC   C1B18439  37.493  20.004   8.737
 1276POPC   C2B18440  37.328  20.099   8.330
 1276POPC   C3B18441  37.447  19.872   7.966
 1276POPC   C4B18442  37.299  19.648   7.638
 1277POPC   NC318443  33.370  21.364   9.513
 1277POPC   PO418444  32.739  21.092   9.508
 1277POPC   GL118445  32.668  21.156   9.084
 1277POPC   GL218446  33.003  21.345   9.131
 1277POPC   C1A18447  32.820  21.148   8.688
 1277POPC   D2A18448  33.159  21.316   8.439
 1277POPC   C3A18449  33.088  21.219   8.014
 1277POPC   C4A18450  32.860  21.213   7.608
 1277POPC   C1B18451  32.924  21.630   8.848
 1277POPC   C2B18452  32.816  21.712   8.441
 1277POPC   C3B18453  33.036  21.718   8.091
 1277POPC   C4B18454  33.123  21.623   7.712
 1278POPC   NC318455  28.006  36.126   9.515
 1278POPC   PO418456  27.330  36.248   9.446
 1278POPC   GL118457  27.526  36.196   9.098
 1278POPC   GL218458  27.846  36.158   9.048
 1278POPC   C1A18459  27.472  36.143   8.703
 1278POPC   D2A18460  27.282  36.159   8.362
 1278POPC   C3A18461  27.541  36.137   8.042
 1278POPC   C4A18462  27.441  36.170   7.621
 1278POPC   C1B18463  27.892  35.852   8.791
 1278POPC   C2B18464  27.696  35.792   8.423
 1278POPC   C3B18465  27.888  35.738   8.078
 1278POPC   C4B18466  27.921  35.971   7.730
 1279POPC   NC318467  16.922   3.223   9.464
 1279POPC   PO418468  16.620   3.807   9.688
 1279POPC   GL118469  16.623   3.685   9.199
 1279POPC   GL218470  16.630   3.320   9.067
 1279POPC   C1A18471  16.519   3.649   8.718
 1279POPC   D2A18472  16.493   3.249   8.504
 1279POPC   C3A18473  16.650   3.273   8.067
 1279POPC   C4A18474  16.756   3.594   7.744
 1279POPC   C1B18475  17.005   3.500   8.845
 1279POPC   C2B18476  17.012   3.496   8.386
 1279POPC   C3B18477  17.151   3.329   7.982
 1279POPC   C4B18478  16.948   3.126   7.651
 1280POPC   NC318479  14.201  34.168   9.312
 1280POPC   PO418480  14.508  34.622   9.705
 1280POPC   GL118481  14.567  34.519   9.200
 1280POPC   GL218482  14.228  34.602   9.049
 1280POPC   C1A18483  14.591  34.760   8.748
 1280POPC   D2A18484  14.700  34.886   8.329
 1280POPC   C3A18485  14.383  34.813   8.033
 1280POPC   C4A18486  14.480  34.825   7.608
 1280POPC   C1B18487  14.397  34.291   8.724
 1280POPC   C2B18488  14.554  34.395   8.340
 1280POPC   C3B18489  14.408  34.314   7.959
 1280POPC   C4B18490  14.119  34.030   7.856
 1281POPC   NC318491  37.573  22.338   9.332
 1281POPC   PO418492  37.896  21.763   9.430
 1281POPC   GL118493  37.852  21.793   9.027
 1281POPC   GL218494  37.504  21.898   9.028
 1281POPC   C1A18495  37.749  21.671   8.623
 1281POPC   D2A18496  37.487  21.888   8.346
 1281POPC   C3A18497  37.799  22.079   8.111
 1281POPC   C4A18498  38.012  21.826   7.798
 1281POPC   C1B18499  37.693  22.192   8.704
 1281POPC   C2B18500  37.482  22.421   8.375
 1281POPC   C3B18501  37.477  22.501   7.954
 1281POPC   C4B18502  37.284  22.206   7.693
 1282POPC   NC318503  20.231  12.520   9.250
 1282POPC   PO418504  20.653  12.936   9.632
 1282POPC   GL118505  20.689  12.860   9.197
 1282POPC   GL218506  20.431  13.069   9.143
 1282POPC   C1A18507  20.858  12.670   8.800
 1282POPC   D2A18508  20.741  12.795   8.390
 1282POPC   C3A18509  20.873  12.675   8.006
 1282POPC   C4A18510  20.569  12.768   7.687
 1282POPC   C1B18511  20.371  12.849   8.748
 1282POPC   C2B18512  20.233  12.661   8.409
 1282POPC   C3B18513  20.214  12.819   8.045
 1282POPC   C4B18514  19.939  12.871   7.729
 1283POPC   NC318515  43.140  32.843   9.753
 1283POPC   PO418516  43.240  33.351   9.515
 1283POPC   GL118517  43.068  33.087   9.203
 1283POPC   GL218518  43.146  32.771   9.258
 1283POPC   C1A18519  43.029  33.103   8.766
 1283POPC   D2A18520  42.974  32.946   8.346
 1283POPC   C3A18521  43.092  33.121   7.954
 1283POPC   C4A18522  43.019  32.875   7.610
 1283POPC   C1B18523  43.414  32.759   8.895
 1283POPC   C2B18524  43.483  32.977   8.490
 1283POPC   C3B18525  43.531  32.884   8.069
 1283POPC   C4B18526  43.479  32.701   7.694
 1284POPC   NC318527  29.710  20.058   9.507
 1284POPC   PO418528  30.363  19.748   9.488
 1284POPC   GL118529  30.143  19.835   9.105
 1284POPC   GL218530  29.805  19.696   9.150
 1284POPC   C1A18531  30.158  20.049   8.694
 1284POPC   D2A18532  30.237  20.181   8.270
 1284POPC   C3A18533  30.006  19.974   7.920
 1284POPC   C4A18534  29.639  20.151   7.714
 1284POPC   C1B18535  29.690  19.929   8.788
 1284POPC   C2B18536  29.783  19.791   8.396
 1284POPC   C3B18537  29.530  19.797   8.057
 1284POPC   C4B18538  29.612  19.602   7.706
 1285POPC   NC318539  35.827   3.257   9.613
 1285POPC   PO418540  36.212   3.794  10.015
 1285POPC   GL118541  36.285   3.634   9.485
 1285POPC   GL218542  35.973   3.546   9.220
 1285POPC   C1A18543  36.421   3.638   8.991
 1285POPC   D2A18544  36.225   3.739   8.569
 1285POPC   C3A18545  36.401   3.733   8.145
 1285POPC   C4A18546  36.286   3.778   7.734
 1285POPC   C1B18547  35.884   3.238   8.855
 1285POPC   C2B18548  35.987   3.160   8.391
 1285POPC   C3B18549  36.108   3.353   7.972
 1285POPC   C4B18550  35.921   3.467   7.558
 1286POPC   NC318551  40.255   2.703   9.781
 1286POPC   PO418552  39.709   2.439   9.464
 1286POPC   GL118553  39.871   2.829   9.241
 1286POPC   GL218554  40.247   2.779   9.270
 1286POPC   C1A18555  39.748   3.057   8.851
 1286POPC   D2A18556  39.608   2.899   8.433
 1286POPC   C3A18557  39.793   2.971   8.013
 1286POPC   C4A18558  39.798   2.709   7.639
 1286POPC   C1B18559  40.216   2.831   8.819
 1286POPC   C2B18560  40.134   2.833   8.388
 1286POPC   C3B18561  40.326   2.867   8.007
 1286POPC   C4B18562  40.347   2.660   7.658
 1287POPC   NC318563  33.032  37.289   9.438
 1287POPC   PO418564  33.371  36.790   9.633
 1287POPC   GL118565  33.252  36.863   9.229
 1287POPC   GL218566  33.470  37.134   9.152
 1287POPC   C1A18567  33.122  36.664   8.851
 1287POPC   D2A18568  32.977  36.889   8.501
 1287POPC   C3A18569  33.101  36.761   8.091
 1287POPC   C4A18570  32.873  36.817   7.752
 1287POPC   C1B18571  33.418  37.290   8.735
 1287POPC   C2B18572  33.357  37.155   8.322
 1287POPC   C3B18573  33.096  37.261   7.988
 1287POPC   C4B18574  33.212  37.190   7.596
 1288POPC   NC318575   7.053  36.645   9.272
 1288POPC   PO418576   7.387  37.179   9.584
 1288POPC   GL118577   7.384  37.019   9.156
 1288POPC   GL218578   7.699  36.866   9.067
 1288POPC   C1A18579   7.367  37.120   8.727
 1288POPC   D2A18580   7.588  36.969   8.406
 1288POPC   C3A18581   7.491  37.121   8.024
 1288POPC   C4A18582   7.274  37.114   7.634
 1288POPC   C1B18583   7.459  36.618   8.776
 1288POPC   C2B18584   7.352  36.456   8.415
 1288POPC   C3B18585   7.462  36.613   8.052
 1288POPC   C4B18586   7.166  36.678   7.813
 1289POPC   NC318587  39.636   4.122   9.817
 1289POPC   PO418588  39.163   4.126   9.381
 1289POPC   GL118589  39.065   4.142   9.007
 1289POPC   GL218590  38.893   3.803   9.036
 1289POPC   C1A18591  39.301   4.279   8.619
 1289POPC   D2A18592  39.556   4.121   8.263
 1289POPC   C3A18593  39.397   4.338   7.939
 1289POPC   C4A18594  39.538   4.457   7.572
 1289POPC   C1B18595  38.963   3.899   8.601
 1289POPC   C2B18596  39.018   4.111   8.212
 1289POPC   C3B18597  39.124   3.911   7.812
 1289POPC   C4B18598  39.022   3.909   7.369
 1290POPC   NC318599   0.656  22.477   9.803
 1290POPC   PO418600   0.398  21.965   9.469
 1290POPC   GL118601   0.618  22.143   9.146
 1290POPC   GL218602   0.646  22.491   9.250
 1290POPC   C1A18603   0.595  21.985   8.725
 1290POPC   D2A18604   0.503  22.166   8.341
 1290POPC   C3A18605   0.655  22.030   7.964
 1290POPC   C4A18606   0.401  22.098   7.602
 1290POPC   C1B18607   0.417  22.543   8.838
 1290POPC   C2B18608   0.294  22.626   8.391
 1290POPC   C3B18609   0.439  22.532   7.939
 1290POPC   C4B18610   0.516  22.633   7.480
 1291POPC   NC318611   6.128  14.051   9.548
 1291POPC   PO418612   5.716  13.558   9.406
 1291POPC   GL118613   6.082  13.613   9.196
 1291POPC   GL218614   6.067  13.257   9.092
 1291POPC   C1A18615   6.020  13.827   8.812
 1291POPC   D2A18616   6.025  13.951   8.374
 1291POPC   C3A18617   5.963  13.728   8.002
 1291POPC   C4A18618   6.207  13.727   7.623
 1291POPC   C1B18619   5.710  13.406   8.797
 1291POPC   C2B18620   5.707  13.496   8.390
 1291POPC   C3B18621   5.497  13.501   8.010
 1291POPC   C4B18622   5.742  13.436   7.664
 1292POPC   NC318623  16.731  17.821   9.587
 1292POPC   PO418624  16.600  17.198   9.442
 1292POPC   GL118625  16.626  17.522   9.175
 1292POPC   GL218626  16.961  17.587   9.162
 1292POPC   C1A18627  16.680  17.417   8.765
 1292POPC   D2A18628  16.943  17.123   8.562
 1292POPC   C3A18629  16.875  17.113   8.143
 1292POPC   C4A18630  16.930  17.286   7.743
 1292POPC   C1B18631  17.041  17.777   8.759
 1292POPC   C2B18632  16.909  17.619   8.370
 1292POPC   C3B18633  17.088  17.698   8.018
 1292POPC   C4B18634  16.858  17.805   7.700
 1293POPC   NC318635   0.086  24.891   9.567
 1293POPC   PO418636   0.447  24.333   9.484
 1293POPC   GL118637   0.590  24.499   9.149
 1293POPC   GL218638   0.355  24.757   9.148
 1293POPC   C1A18639   0.542  24.327   8.766
 1293POPC   D2A18640   0.782  24.324   8.411
 1293POPC   C3A18641   0.458  24.269   8.080
 1293POPC   C4A18642   0.211  24.508   7.797
 1293POPC   C1B18643   0.188  24.695   8.753
 1293POPC   C2B18644   0.063  24.982   8.485
 1293POPC   C3B18645   0.108  24.946   8.078
 1293POPC   C4B18646   0.103  24.970   7.652
 1294POPC   NC318647  13.398  41.516   9.311
 1294POPC   PO418648  13.830  41.381   9.773
 1294POPC   GL118649  13.877  41.527   9.106
 1294POPC   GL218650  14.116  41.224   9.027
 1294POPC   C1A18651  13.622  41.619   8.704
 1294POPC   D2A18652  13.703  41.775   8.293
 1294POPC   C3A18653  13.395  41.756   7.947
 1294POPC   C4A18654  13.511  41.673   7.529
 1294POPC   C1B18655  14.080  41.402   8.660
 1294POPC   C2B18656  13.901  41.307   8.300
 1294POPC   C3B18657  13.863  41.468   7.909
 1294POPC   C4B18658  13.878  41.301   7.503
 1295POPC   NC318659   2.279  35.778   9.526
 1295POPC   PO418660   1.854  35.304   9.499
 1295POPC   GL118661   2.024  35.478   9.152
 1295POPC   GL218662   1.851  35.813   9.191
 1295POPC   C1A18663   1.894  35.207   8.790
 1295POPC   D2A18664   1.630  35.179   8.420
 1295POPC   C3A18665   1.837  35.183   8.024
 1295POPC   C4A18666   2.186  35.285   7.758
 1295POPC   C1B18667   1.883  35.723   8.740
 1295POPC   C2B18668   2.060  35.503   8.398
 1295POPC   C3B18669   2.039  35.674   8.020
 1295POPC   C4B18670   1.833  35.908   7.752
 1296POPC   NC318671  42.694   8.377   9.413
 1296POPC   PO418672  42.125   8.125   9.468
 1296POPC   GL118673  42.287   8.199   9.126
 1296POPC   GL218674  42.575   7.939   9.157
 1296POPC   C1A18675  42.121   8.102   8.749
 1296POPC   D2A18676  42.339   8.137   8.369
 1296POPC   C3A18677  42.200   8.043   7.976
 1296POPC   C4A18678  42.078   8.224   7.583
 1296POPC   C1B18679  42.658   8.122   8.775
 1296POPC   C2B18680  42.850   8.050   8.387
 1296POPC   C3B18681  42.700   8.192   8.010
 1296POPC   C4B18682  42.583   8.020   7.621
 1297POPC   NC318683   7.103   6.120   9.209
 1297POPC   PO418684   6.793   5.605   9.556
 1297POPC   GL118685   6.686   5.808   9.100
 1297POPC   GL218686   6.348   6.000   9.054
 1297POPC   C1A18687   6.627   6.015   8.654
 1297POPC   D2A18688   6.371   5.997   8.279
 1297POPC   C3A18689   6.710   6.019   7.982
 1297POPC   C4A18690   6.890   5.726   7.652
 1297POPC   C1B18691   6.303   5.627   8.775
 1297POPC   C2B18692   6.509   5.474   8.411
 1297POPC   C3B18693   6.504   5.573   7.964
 1297POPC   C4B18694   6.388   5.697   7.538
 1298POPC   NC318695  18.433  15.643   9.665
 1298POPC   PO418696  18.357  15.030   9.834
 1298POPC   GL118697  18.433  15.125   9.377
 1298POPC   GL218698  18.359  14.833   9.140
 1298POPC   C1A18699  18.339  15.324   8.963
 1298POPC   D2A18700  18.298  15.140   8.537
 1298POPC   C3A18701  18.307  15.364   8.158
 1298POPC   C4A18702  18.494  15.165   7.810
 1298POPC   C1B18703  18.057  14.743   8.846
 1298POPC   C2B18704  17.921  14.806   8.428
 1298POPC   C3B18705  18.077  14.918   8.030
 1298POPC   C4B18706  17.947  14.635   7.735
 1299POPC   NC318707  36.502  22.870   9.802
 1299POPC   PO418708  35.795  22.736   9.538
 1299POPC   GL118709  36.170  22.686   9.187
 1299POPC   GL218710  36.532  22.600   9.295
 1299POPC   C1A18711  36.172  22.862   8.713
 1299POPC   D2A18712  36.333  23.246   8.497
 1299POPC   C3A18713  36.287  23.210   8.045
 1299POPC   C4A18714  36.275  22.990   7.611
 1299POPC   C1B18715  36.581  22.599   8.839
 1299POPC   C2B18716  36.362  22.465   8.449
 1299POPC   C3B18717  36.229  22.681   8.082
 1299POPC   C4B18718  36.348  22.502   7.682
 1300POPC   NC318719  35.266  18.992   9.404
 1300POPC   PO418720  35.809  18.652   9.136
 1300POPC   GL118721  35.450  18.779   8.983
 1300POPC   GL218722  35.610  19.119   9.035
 1300POPC   C1A18723  35.065  18.777   8.745
 1300POPC   D2A18724  34.987  19.037   8.379
 1300POPC   C3A18725  35.145  18.877   8.010
 1300POPC   C4A18726  35.006  18.833   7.609
 1300POPC   C1B18727  35.329  19.216   8.728
 1300POPC   C2B18728  35.513  19.049   8.358
 1300POPC   C3B18729  35.550  19.202   7.948
 1300POPC   C4B18730  35.268  19.258   7.632
 1301POPC   NC318731  39.705  31.161   9.511
 1301POPC   PO418732  39.082  31.341   9.507
 1301POPC   GL118733  39.298  31.328   9.101
 1301POPC   GL218734  39.612  31.087   9.036
 1301POPC   C1A18735  39.153  31.548   8.722
 1301POPC   D2A18736  39.057  31.812   8.396
 1301POPC   C3A18737  38.871  31.650   8.062
 1301POPC   C4A18738  39.102  31.563   7.710
 1301POPC   C1B18739  39.585  31.301   8.687
 1301POPC   C2B18740  39.350  31.263   8.309
 1301POPC   C3B18741  39.531  31.284   7.883
 1301POPC   C4B18742  39.693  31.101   7.526
 1302POPC   NC318743  31.030   5.772   9.263
 1302POPC   PO418744  31.665   5.753   9.656
 1302POPC   GL118745  31.699   5.866   9.205
 1302POPC   GL218746  31.530   6.184   9.217
 1302POPC   C1A18747  31.482   5.812   8.788
 1302POPC   D2A18748  31.217   5.742   8.420
 1302POPC   C3A18749  31.409   5.565   8.048
 1302POPC   C4A18750  31.234   5.610   7.640
 1302POPC   C1B18751  31.704   6.273   8.791
 1302POPC   C2B18752  31.586   6.260   8.349
 1302POPC   C3B18753  31.535   6.070   7.943
 1302POPC   C4B18754  31.821   6.079   7.580
 1303POPC   NC318755   6.983  24.622   9.438
 1303POPC   PO418756   6.356  24.312   9.508
 1303POPC   GL118757   6.612  24.366   9.179
 1303POPC   GL218758   6.542  24.725   9.142
 1303POPC   C1A18759   6.831  24.366   8.817
 1303POPC   D2A18760   6.863  24.578   8.446
 1303POPC   C3A18761   6.593  24.454   8.095
 1303POPC   C4A18762   6.781  24.239   7.745
 1303POPC   C1B18763   6.617  24.924   8.740
 1303POPC   C2B18764   6.613  24.972   8.270
 1303POPC   C3B18765   6.802  24.863   7.868
 1303POPC   C4B18766   6.521  24.634   7.586
 1304POPC   NC318767  13.901  43.233   9.614
 1304POPC   PO418768  14.513  43.555   9.594
 1304POPC   GL118769  14.374  43.166   9.330
 1304POPC   GL218770  14.645  43.207   9.074
 1304POPC   C1A18771  14.294  42.892   8.921
 1304POPC   D2A18772  14.454  43.066   8.520
 1304POPC   C3A18773  14.397  43.026   8.068
 1304POPC   C4A18774  14.304  43.230   7.669
 1304POPC   C1B18775  14.816  43.453   8.739
 1304POPC   C2B18776  14.650  43.517   8.327
 1304POPC   C3B18777  14.352  43.604   7.995
 1304POPC   C4B18778  14.450  43.760   7.555
 1305POPC   NC318779  15.390  20.098   9.457
 1305POPC   PO418780  15.178  19.630   9.813
 1305POPC   GL118781  15.097  19.744   9.253
 1305POPC   GL218782  14.969  20.048   9.129
 1305POPC   C1A18783  15.198  19.707   8.767
 1305POPC   D2A18784  15.416  19.767   8.372
 1305POPC   C3A18785  15.138  19.618   8.071
 1305POPC   C4A18786  15.166  19.440   7.696
 1305POPC   C1B18787  14.876  20.109   8.708
 1305POPC   C2B18788  14.987  20.079   8.291
 1305POPC   C3B18789  15.263  20.099   7.971
 1305POPC   C4B18790  14.989  19.938   7.681
 1306POPC   NC318791   0.271  14.118   9.702
 1306POPC   PO418792   0.669  14.585   9.431
 1306POPC   GL118793   0.560  14.287   9.106
 1306POPC   GL218794   0.236  14.115   9.207
 1306POPC   C1A18795   0.491  14.419   8.659
 1306POPC   D2A18796   0.087  14.610   8.462
 1306POPC   C3A18797   0.151  14.752   8.040
 1306POPC   C4A18798   0.456  14.577   7.774
 1306POPC   C1B18799   0.080  14.193   8.833
 1306POPC   C2B18800   0.212  14.022   8.453
 1306POPC   C3B18801   0.249  14.208   8.094
 1306POPC   C4B18802   0.387  14.061   7.699
 1307POPC   NC318803  12.877  28.570   9.398
 1307POPC   PO418804  12.568  28.100   9.712
 1307POPC   GL118805  12.687  28.115   9.223
 1307POPC   GL218806  12.998  28.292   8.991
 1307POPC   C1A18807  12.541  28.227   8.788
 1307POPC   D2A18808  12.862  28.221   8.447
 1307POPC   C3A18809  12.704  28.247   8.043
 1307POPC   C4A18810  12.850  28.233   7.606
 1307POPC   C1B18811  12.839  28.659   8.714
 1307POPC   C2B18812  12.723  28.703   8.278
 1307POPC   C3B18813  12.787  28.720   7.844
 1307POPC   C4B18814  12.634  28.706   7.449
 1308POPC   NC318815   0.941   3.170   9.577
 1308POPC   PO418816   1.451   3.589   9.452
 1308POPC   GL118817   1.229   3.566   9.097
 1308POPC   GL218818   0.901   3.513   9.175
 1308POPC   C1A18819   1.171   3.739   8.707
 1308POPC   D2A18820   1.275   3.691   8.289
 1308POPC   C3A18821   1.035   3.881   8.025
 1308POPC   C4A18822   0.889   3.878   7.634
 1308POPC   C1B18823   0.916   3.306   8.776
 1308POPC   C2B18824   1.179   3.208   8.392
 1308POPC   C3B18825   1.186   3.320   7.915
 1308POPC   C4B18826   0.977   3.087   7.545
 1309POPC   NC318827  17.760  28.186   9.792
 1309POPC   PO418828  17.326  28.429   9.305
 1309POPC   GL118829  17.410  28.545   8.964
 1309POPC   GL218830  17.606  28.265   8.908
 1309POPC   C1A18831  17.466  28.576   8.573
 1309POPC   D2A18832  17.539  28.315   8.313
 1309POPC   C3A18833  17.545  28.566   7.984
 1309POPC   C4A18834  17.379  28.233   7.783
 1309POPC   C1B18835  17.938  28.145   8.673
 1309POPC   C2B18836  18.018  28.154   8.261
 1309POPC   C3B18837  17.911  28.223   7.853
 1309POPC   C4B18838  17.851  28.309   7.412
 1310POPC   NC318839   6.084   2.611   9.351
 1310POPC   PO418840   5.482   2.877   9.473
 1310POPC   GL118841   5.778   3.007   9.163
 1310POPC   GL218842   5.564   3.266   9.048
 1310POPC   C1A18843   5.934   2.986   8.739
 1310POPC   D2A18844   5.749   3.154   8.364
 1310POPC   C3A18845   6.037   3.146   8.019
 1310POPC   C4A18846   6.151   2.853   7.725
 1310POPC   C1B18847   5.399   2.940   8.760
 1310POPC   C2B18848   5.581   2.654   8.467
 1310POPC   C3B18849   5.736   2.719   8.067
 1310POPC   C4B18850   5.740   2.570   7.673
 1311POPC   NC318851  44.688  16.845   9.556
 1311POPC   PO418852  44.780  16.203   9.442
 1311POPC   GL118853  44.671  16.539   9.127
 1311POPC   GL218854  44.481  16.888   9.104
 1311POPC   C1A18855  44.852  16.630   8.724
 1311POPC   D2A18856  44.885  16.411   8.294
 1311POPC   C3A18857  44.949  16.692   7.936
 1311POPC   C4A18858  44.630  16.624   7.608
 1311POPC   C1B18859  44.478  17.031   8.701
 1311POPC   C2B18860  44.597  16.845   8.320
 1311POPC   C3B18861  44.530  16.997   7.945
 1311POPC   C4B18862  44.760  17.114   7.637
 1312POPC   NC318863  32.553  15.326   9.352
 1312POPC   PO418864  32.091  14.814   9.482
 1312POPC   GL118865  32.207  14.920   9.044
 1312POPC   GL218866  32.412  15.151   8.909
 1312POPC   C1A18867  32.010  15.055   8.636
 1312POPC   D2A18868  32.040  15.367   8.354
 1312POPC   C3A18869  31.888  15.262   7.961
 1312POPC   C4A18870  32.269  15.429   7.809
 1312POPC   C1B18871  32.631  14.875   8.725
 1312POPC   C2B18872  32.755  14.826   8.335
 1312POPC   C3B18873  32.643  15.050   7.966
 1312POPC   C4B18874  32.490  14.900   7.611
 1313POPC   NC318875   7.951  31.042   9.417
 1313POPC   PO418876   7.269  31.323   9.493
 1313POPC   GL118877   7.521  31.178   9.153
 1313POPC   GL218878   7.786  31.438   9.104
 1313POPC   C1A18879   7.481  31.067   8.730
 1313POPC   D2A18880   7.591  31.319   8.376
 1313POPC   C3A18881   7.337  31.295   8.003
 1313POPC   C4A18882   7.202  31.249   7.607
 1313POPC   C1B18883   7.456  31.591   8.812
 1313POPC   C2B18884   7.462  31.836   8.444
 1313POPC   C3B18885   7.570  31.756   8.027
 1313POPC   C4B18886   7.215  31.740   7.753
 1314POPC   NC318887  19.514   8.459   9.633
 1314POPC   PO418888  18.986   8.125   9.561
 1314POPC   GL118889  19.005   8.061   9.135
 1314POPC   GL218890  19.264   8.270   9.101
 1314POPC   C1A18891  18.885   8.077   8.732
 1314POPC   D2A18892  19.212   8.240   8.495
 1314POPC   C3A18893  19.154   8.125   8.072
 1314POPC   C4A18894  19.327   7.927   7.719
 1314POPC   C1B18895  19.466   8.585   8.853
 1314POPC   C2B18896  19.536   8.797   8.462
 1314POPC   C3B18897  19.467   8.616   8.086
 1314POPC   C4B18898  19.253   8.493   7.726
 1315POPC   NC318899  32.424   3.722   9.340
 1315POPC   PO418900  32.152   4.259   9.654
 1315POPC   GL118901  32.306   4.274   9.262
 1315POPC   GL218902  32.390   4.615   9.179
 1315POPC   C1A18903  32.230   4.157   8.876
 1315POPC   D2A18904  32.310   4.033   8.503
 1315POPC   C3A18905  32.325   4.108   8.085
 1315POPC   C4A18906  32.478   3.862   7.745
 1315POPC   C1B18907  32.256   4.658   8.770
 1315POPC   C2B18908  32.403   4.524   8.406
 1315POPC   C3B18909  32.486   4.602   8.031
 1315POPC   C4B18910  32.454   4.407   7.673
 1316POPC   NC318911  35.923  14.969   9.393
 1316POPC   PO418912  35.242  15.299   9.460
 1316POPC   GL118913  35.264  15.055   9.090
 1316POPC   GL218914  35.611  15.083   8.988
 1316POPC   C1A18915  35.180  15.101   8.653
 1316POPC   D2A18916  35.365  15.364   8.354
 1316POPC   C3A18917  35.243  15.231   7.988
 1316POPC   C4A18918  35.240  15.229   7.590
 1316POPC   C1B18919  35.521  14.720   8.727
 1316POPC   C2B18920  35.341  14.655   8.291
 1316POPC   C3B18921  35.379  14.769   7.821
 1316POPC   C4B18922  35.255  14.773   7.338
 1317POPC   NC318923   7.034  16.494   9.163
 1317POPC   PO418924   6.682  16.845   9.606
 1317POPC   GL118925   6.558  16.736   9.190
 1317POPC   GL218926   6.756  17.015   9.111
 1317POPC   C1A18927   6.475  16.562   8.774
 1317POPC   D2A18928   6.272  16.734   8.405
 1317POPC   C3A18929   6.517  16.777   8.043
 1317POPC   C4A18930   6.870  16.627   7.788
 1317POPC   C1B18931   6.545  17.054   8.730
 1317POPC   C2B18932   6.813  17.035   8.390
 1317POPC   C3B18933   6.823  17.186   7.991
 1317POPC   C4B18934   6.639  17.029   7.598
 1318POPC   NC318935  25.801   0.102   9.377
 1318POPC   PO418936  26.023   0.672   9.633
 1318POPC   GL118937  26.099   0.515   9.238
 1318POPC   GL218938  25.786   0.645   9.100
 1318POPC   C1A18939  26.201   0.499   8.798
 1318POPC   D2A18940  26.120   0.280   8.402
 1318POPC   C3A18941  26.149   0.592   8.075
 1318POPC   C4A18942  26.352   0.682   7.686
 1318POPC   C1B18943  25.706   0.319   8.766
 1318POPC   C2B18944  25.573   0.230   8.339
 1318POPC   C3B18945  25.811   0.239   7.967
 1318POPC   C4B18946  25.894   0.475   7.621
 1319POPC   NC318947  20.861   9.881   9.680
 1319POPC   PO418948  20.452   9.377   9.591
 1319POPC   GL118949  20.492   9.646   9.262
 1319POPC   GL218950  20.500  10.005   9.245
 1319POPC   C1A18951  20.539   9.591   8.819
 1319POPC   D2A18952  20.433   9.754   8.397
 1319POPC   C3A18953  20.417   9.487   8.050
 1319POPC   C4A18954  20.676   9.560   7.693
 1319POPC   C1B18955  20.442  10.092   8.776
 1319POPC   C2B18956  20.696  10.212   8.384
 1319POPC   C3B18957  20.566  10.114   7.942
 1319POPC   C4B18958  20.593  10.191   7.475
 1320POPC   NC318959  23.516  25.350   9.504
 1320POPC   PO418960  23.998  24.904   9.543
 1320POPC   GL118961  24.054  25.179   9.136
 1320POPC   GL218962  23.889  25.491   9.141
 1320POPC   C1A18963  24.067  25.279   8.691
 1320POPC   D2A18964  23.740  25.166   8.402
 1320POPC   C3A18965  23.635  25.401   8.053
 1320POPC   C4A18966  23.465  25.194   7.717
 1320POPC   C1B18967  23.564  25.462   8.793
 1320POPC   C2B18968  23.438  25.731   8.420
 1320POPC   C3B18969  23.307  25.843   8.002
 1320POPC   C4B18970  23.560  25.722   7.653
 1321POPC   NC318971  43.007  29.672   9.474
 1321POPC   PO418972  43.388  30.184   9.358
 1321POPC   GL118973  43.285  29.818   9.093
 1321POPC   GL218974  43.044  30.046   8.987
 1321POPC   C1A18975  43.161  29.652   8.702
 1321POPC   D2A18976  43.166  30.035   8.443
 1321POPC   C3A18977  43.244  29.880   8.082
 1321POPC   C4A18978  43.024  29.789   7.750
 1321POPC   C1B18979  42.726  29.920   8.682
 1321POPC   C2B18980  42.715  29.835   8.229
 1321POPC   C3B18981  42.536  29.708   7.843
 1321POPC   C4B18982  42.700  29.581   7.435
 1322POPC   NC318983   1.596   0.818   9.227
 1322POPC   PO418984   1.373   0.348   9.632
 1322POPC   GL118985   1.140   0.315   9.223
 1322POPC   GL218986   1.442   0.353   9.014
 1322POPC   C1A18987   0.974   0.273   8.783
 1322POPC   D2A18988   1.196   0.293   8.363
 1322POPC   C3A18989   0.974   0.393   7.946
 1322POPC   C4A18990   1.161   0.314   7.549
 1322POPC   C1B18991   1.285   0.668   8.711
 1322POPC   C2B18992   1.415   0.844   8.364
 1322POPC   C3B18993   1.401   0.645   8.002
 1322POPC   C4B18994   1.379   0.784   7.573
 1323POPC   NC318995   7.945  36.604   9.541
 1323POPC   PO418996   8.438  36.096   9.456
 1323POPC   GL118997   8.348  36.356   9.150
 1323POPC   GL218998   8.029  36.248   9.148
 1323POPC   C1A18999   8.383  36.195   8.740
 1323POPC   D2A19000   8.121  36.100   8.416
 1323POPC   C3A19001   8.299  36.116   8.019
 1323POPC   C4A19002   7.949  35.981   7.767
 1323POPC   C1B19003   7.968  36.513   8.809
 1323POPC   C2B19004   7.850  36.526   8.398
 1323POPC   C3B19005   7.966  36.505   7.967
 1323POPC   C4B19006   8.044  36.434   7.531
 1324POPC   NC319007   5.175  12.438   9.632
 1324POPC   PO419008   4.792  11.946   9.493
 1324POPC   GL119009   4.968  12.045   9.103
 1324POPC   GL219010   5.298  12.156   9.160
 1324POPC   C1A19011   4.808  11.974   8.721
 1324POPC   D2A19012   5.081  11.955   8.454
 1324POPC   C3A19013   5.040  12.227   8.186
 1324POPC   C4A19014   4.835  12.169   7.817
 1324POPC   C1B19015   5.498  11.926   8.811
 1324POPC   C2B19016   5.571  12.061   8.387
 1324POPC   C3B19017   5.452  12.043   7.964
 1324POPC   C4B19018   5.331  12.142   7.549
 1325POPC   NC319019  31.910  23.389   9.427
 1325POPC   PO419020  32.339  22.860   9.550
 1325POPC   GL119021  32.044  22.889   9.219
 1325POPC   GL219022  32.235  23.166   9.112
 1325POPC   C1A19023  32.123  22.753   8.796
 1325POPC   D2A19024  32.408  22.779   8.431
 1325POPC   C3A19025  32.302  22.906   8.021
 1325POPC   C4A19026  32.124  22.842   7.620
 1325POPC   C1B19027  32.345  23.222   8.713
 1325POPC   C2B19028  32.267  23.381   8.317
 1325POPC   C3B19029  32.455  23.414   7.917
 1325POPC   C4B19030  32.492  23.343   7.490
 1326POPC   NC319031   6.838   6.899   9.479
 1326POPC   PO419032   6.671   6.221   9.411
 1326POPC   GL119033   6.764   6.531   9.124
 1326POPC   GL219034   6.517   6.816   9.067
 1326POPC   C1A19035   6.773   6.525   8.696
 1326POPC   D2A19036   6.420   6.502   8.416
 1326POPC   C3A19037   6.530   6.505   7.992
 1326POPC   C4A19038   6.919   6.480   7.752
 1326POPC   C1B19039   6.604   7.004   8.659
 1326POPC   C2B19040   6.619   6.989   8.216
 1326POPC   C3B19041   6.718   6.959   7.777
 1326POPC   C4B19042   7.104   6.865   7.479
 1327POPC   NC319043  38.369  10.998   9.448
 1327POPC   PO419044  38.566  11.625   9.478
 1327POPC   GL119045  38.493  11.378   9.129
 1327POPC   GL219046  38.141  11.396   9.185
 1327POPC   C1A19047  38.400  11.203   8.726
 1327POPC   D2A19048  38.591  11.191   8.333
 1327POPC   C3A19049  38.327  11.204   7.963
 1327POPC   C4A19050  38.547  11.285   7.591
 1327POPC   C1B19051  38.152  11.637   8.799
 1327POPC   C2B19052  38.305  11.643   8.377
 1327POPC   C3B19053  38.115  11.675   7.956
 1327POPC   C4B19054  38.153  11.614   7.533
 1328POPC   NC319055   3.366  11.413   9.285
 1328POPC   PO419056   2.742  11.048   9.431
 1328POPC   GL119057   2.714  11.179   9.056
 1328POPC   GL219058   2.883  11.503   9.139
 1328POPC   C1A19059   2.615  11.012   8.666
 1328POPC   D2A19060   2.681  11.197   8.312
 1328POPC   C3A19061   2.488  11.231   7.935
 1328POPC   C4A19062   2.518  11.604   7.668
 1328POPC   C1B19063   2.889  11.526   8.729
 1328POPC   C2B19064   3.119  11.424   8.386
 1328POPC   C3B19065   2.944  11.557   8.032
 1328POPC   C4B19066   3.121  11.509   7.682
 1329POPC   NC319067  36.912   9.044   9.735
 1329POPC   PO419068  36.331   9.315   9.414
 1329POPC   GL119069  36.715   9.084   9.252
 1329POPC   GL219070  36.964   8.841   9.281
 1329POPC   C1A19071  36.961   9.201   8.865
 1329POPC   D2A19072  36.847   9.093   8.434
 1329POPC   C3A19073  37.123   9.135   8.094
 1329POPC   C4A19074  37.008   9.477   7.840
 1329POPC   C1B19075  36.815   8.731   8.878
 1329POPC   C2B19076  36.721   8.579   8.487
 1329POPC   C3B19077  36.508   8.795   8.191
 1329POPC   C4B19078  36.648   9.080   7.875
 1330POPC   NC319079  12.025   8.769   9.729
 1330POPC   PO419080  11.902   8.128   9.449
 1330POPC   GL119081  12.088   8.360   9.163
 1330POPC   GL219082  12.223   8.083   9.001
 1330POPC   C1A19083  12.234   8.498   8.739
 1330POPC   D2A19084  12.379   8.192   8.447
 1330POPC   C3A19085  12.284   8.366   8.084
 1330POPC   C4A19086  12.192   8.387   7.695
 1330POPC   C1B19087  11.980   7.845   8.671
 1330POPC   C2B19088  11.797   7.785   8.264
 1330POPC   C3B19089  11.894   8.039   7.913
 1330POPC   C4B19090  11.967   7.968   7.460
 1331POPC   NC319091   4.641  25.009   9.543
 1331POPC   PO419092   5.359  25.324   9.547
 1331POPC   GL119093   5.289  25.224   9.130
 1331POPC   GL219094   5.039  24.986   9.211
 1331POPC   C1A19095   5.257  25.308   8.679
 1331POPC   D2A19096   5.104  25.131   8.281
 1331POPC   C3A19097   5.126  25.404   7.947
 1331POPC   C4A19098   4.821  25.525   7.651
 1331POPC   C1B19099   5.005  24.859   8.796
 1331POPC   C2B19100   4.710  24.815   8.481
 1331POPC   C3B19101   4.775  24.776   8.062
 1331POPC   C4B19102   4.862  25.021   7.716
 1332POPC   NC319103  31.610  32.952   9.317
 1332POPC   PO419104  31.036  33.215   9.335
 1332POPC   GL119105  31.281  33.254   9.018
 1332POPC   GL219106  31.592  33.407   9.117
 1332POPC   C1A19107  31.263  33.020   8.637
 1332POPC   D2A19108  31.313  33.257   8.266
 1332POPC   C3A19109  31.464  32.987   7.944
 1332POPC   C4A19110  31.400  32.867   7.507
 1332POPC   C1B19111  31.704  33.248   8.713
 1332POPC   C2B19112  31.796  33.075   8.328
 1332POPC   C3B19113  31.928  33.250   7.965
 1332POPC   C4B19114  31.762  33.207   7.559
 1333POPC   NC319115  20.047  36.077   9.599
 1333POPC   PO419116  19.648  36.544   9.378
 1333POPC   GL119117  19.979  36.302   9.154
 1333POPC   GL219118  19.929  35.914   9.125
 1333POPC   C1A19119  19.872  36.253   8.740
 1333POPC   D2A19120  19.550  36.091   8.469
 1333POPC   C3A19121  19.673  36.205   8.063
 1333POPC   C4A19122  19.543  36.028   7.696
 1333POPC   C1B19123  19.876  35.737   8.694
 1333POPC   C2B19124  19.937  35.754   8.249
 1333POPC   C3B19125  20.117  35.994   7.926
 1333POPC   C4B19126  20.073  36.036   7.507
 1334POPC   NC319127   8.917  18.594   9.477
 1334POPC   PO419128   9.190  17.975   9.529
 1334POPC   GL119129   8.982  18.169   9.151
 1334POPC   GL219130   8.629  18.210   9.164
 1334POPC   C1A19131   8.975  18.239   8.688
 1334POPC   D2A19132   8.804  18.144   8.286
 1334POPC   C3A19133   9.097  17.946   8.022
 1334POPC   C4A19134   9.376  18.159   7.695
 1334POPC   C1B19135   8.618  18.550   8.864
 1334POPC   C2B19136   8.685  18.620   8.446
 1334POPC   C3B19137   8.862  18.645   8.084
 1334POPC   C4B19138   8.903  18.353   7.814
 1335POPC   NC319139  29.334  37.249   9.151
 1335POPC   PO419140  29.188  37.739   9.556
 1335POPC   GL119141  29.123  37.898   9.147
 1335POPC   GL219142  28.798  37.872   9.042
 1335POPC   C1A19143  29.195  37.816   8.713
 1335POPC   D2A19144  29.086  37.524   8.410
 1335POPC   C3A19145  29.371  37.600   8.098
 1335POPC   C4A19146  29.355  37.761   7.700
 1335POPC   C1B19147  28.668  37.669   8.723
 1335POPC   C2B19148  28.700  37.859   8.339
 1335POPC   C3B19149  28.901  37.722   7.957
 1335POPC   C4B19150  28.902  37.581   7.519
 1336POPC   NC319151  15.012  38.578   9.659
 1336POPC   PO419152  15.377  38.060   9.497
 1336POPC   GL119153  15.479  38.337   9.132
 1336POPC   GL219154  15.606  38.686   9.208
 1336POPC   C1A19155  15.277  38.280   8.749
 1336POPC   D2A19156  14.895  38.245   8.509
 1336POPC   C3A19157  15.079  38.188   8.129
 1336POPC   C4A19158  15.010  38.380   7.725
 1336POPC   C1B19159  15.315  38.778   8.862
 1336POPC   C2B19160  15.106  38.713   8.478
 1336POPC   C3B19161  15.271  38.679   8.096
 1336POPC   C4B19162  15.413  38.806   7.711
 1337POPC   NC319163  13.897  30.958   9.409
 1337POPC   PO419164  13.824  30.388   9.806
 1337POPC   GL119165  13.541  30.681   9.231
 1337POPC   GL219166  13.412  31.004   9.157
 1337POPC   C1A19167  13.511  30.570   8.753
 1337POPC   D2A19168  13.816  30.702   8.397
 1337POPC   C3A19169  13.761  30.496   7.994
 1337POPC   C4A19170  13.397  30.285   7.832
 1337POPC   C1B19171  13.599  31.063   8.755
 1337POPC   C2B19172  13.431  31.056   8.349
 1337POPC   C3B19173  13.415  30.876   7.941
 1337POPC   C4B19174  13.180  30.876   7.579
 1338POPC   NC319175  22.827  10.594   9.453
 1338POPC   PO419176  22.508  10.053   9.230
 1338POPC   GL119177  22.827  10.356   8.990
 1338POPC   GL219178  23.185  10.484   9.120
 1338POPC   C1A19179  22.839  10.611   8.623
 1338POPC   D2A19180  22.889  10.822   8.237
 1338POPC   C3A19181  22.671  10.765   7.843
 1338POPC   C4A19182  23.008  10.899   7.603
 1338POPC   C1B19183  23.316  10.441   8.712
 1338POPC   C2B19184  23.152  10.346   8.278
 1338POPC   C3B19185  23.090  10.433   7.803
 1338POPC   C4B19186  23.191  10.184   7.358
 1339POPC   NC319187  13.615  23.978   9.472
 1339POPC   PO419188  13.806  23.292   9.394
 1339POPC   GL119189  13.757  23.594   9.036
 1339POPC   GL219190  13.900  23.941   9.041
 1339POPC   C1A19191  13.827  23.697   8.587
 1339POPC   D2A19192  13.683  23.501   8.209
 1339POPC   C3A19193  13.885  23.495   7.757
 1339POPC   C4A19194  13.997  23.351   7.335
 1339POPC   C1B19195  13.719  24.180   8.679
 1339POPC   C2B19196  13.749  24.146   8.229
 1339POPC   C3B19197  13.620  23.889   7.886
 1339POPC   C4B19198  13.366  23.494   7.790
 1340POPC   NC319199  33.833  18.431   9.584
 1340POPC   PO419200  33.739  17.785   9.649
 1340POPC   GL119201  33.746  18.071   9.231
 1340POPC   GL219202  33.666  18.431   9.125
 1340POPC   C1A19203  33.838  18.077   8.760
 1340POPC   D2A19204  33.689  17.981   8.343
 1340POPC   C3A19205  33.817  18.140   7.977
 1340POPC   C4A19206  33.740  18.035   7.592
 1340POPC   C1B19207  33.856  18.596   8.796
 1340POPC   C2B19208  33.769  18.498   8.384
 1340POPC   C3B19209  33.717  18.641   7.972
 1340POPC   C4B19210  33.753  18.565   7.525
 1341POPC   NC319211  27.355  20.042   9.519
 1341POPC   PO419212  27.904  19.731   9.541
 1341POPC   GL119213  27.608  19.774   9.186
 1341POPC   GL219214  27.565  19.443   9.163
 1341POPC   C1A19215  27.576  20.033   8.776
 1341POPC   D2A19216  27.693  20.032   8.306
 1341POPC   C3A19217  27.381  19.991   7.913
 1341POPC   C4A19218  27.569  20.219   7.577
 1341POPC   C1B19219  27.592  19.530   8.726
 1341POPC   C2B19220  27.334  19.667   8.369
 1341POPC   C3B19221  27.620  19.588   8.041
 1341POPC   C4B19222  27.725  19.722   7.624
 1342POPC   NC319223  40.081  17.297   9.540
 1342POPC   PO419224  40.443  17.787   9.372
 1342POPC   GL119225  40.081  17.596   9.113
 1342POPC   GL219226  39.972  17.922   9.141
 1342POPC   C1A19227  40.029  17.302   8.703
 1342POPC   D2A19228  40.118  17.364   8.230
 1342POPC   C3A19229  40.116  17.075   7.835
 1342POPC   C4A19230  40.301  17.294   7.451
 1342POPC   C1B19231  40.160  17.922   8.727
 1342POPC   C2B19232  39.873  17.729   8.490
 1342POPC   C3B19233  39.719  17.653   8.085
 1342POPC   C4B19234  39.977  17.540   7.756
 1343POPC   NC319235  26.523  30.988   9.421
 1343POPC   PO419236  25.927  30.612   9.311
 1343POPC   GL119237  25.915  30.828   8.981
 1343POPC   GL219238  26.249  30.895   9.009
 1343POPC   C1A19239  25.996  30.618   8.645
 1343POPC   D2A19240  26.036  30.385   8.342
 1343POPC   C3A19241  25.743  30.619   8.143
 1343POPC   C4A19242  25.771  30.796   7.766
 1343POPC   C1B19243  26.286  31.110   8.646
 1343POPC   C2B19244  26.045  31.031   8.322
 1343POPC   C3B19245  26.233  30.761   8.069
 1343POPC   C4B19246  26.245  30.897   7.712
 1344POPC   NC319247  16.170  36.372   9.490
 1344POPC   PO419248  15.713  36.876   9.436
 1344POPC   GL119249  15.916  36.813   9.067
 1344POPC   GL219250  16.229  36.630   9.047
 1344POPC   C1A19251  15.786  37.012   8.715
 1344POPC   D2A19252  15.499  37.026   8.392
 1344POPC   C3A19253  15.759  37.193   8.104
 1344POPC   C4A19254  15.878  37.098   7.733
 1344POPC   C1B19255  16.317  37.031   8.814
 1344POPC   C2B19256  16.184  37.086   8.391
 1344POPC   C3B19257  16.124  36.782   8.074
 1344POPC   C4B19258  16.316  36.793   7.686
 1345POPC   NC319259  11.830  12.259   9.570
 1345POPC   PO419260  12.336  11.789   9.649
 1345POPC   GL119261  12.125  11.906   9.243
 1345POPC   GL219262  12.025  12.253   9.124
 1345POPC   C1A19263  12.210  11.921   8.770
 1345POPC   D2A19264  12.198  11.749   8.340
 1345POPC   C3A19265  12.175  11.982   7.936
 1345POPC   C4A19266  12.318  11.798   7.521
 1345POPC   C1B19267  11.728  11.990   8.920
 1345POPC   C2B19268  11.772  11.998   8.492
 1345POPC   C3B19269  11.685  12.210   8.084
 1345POPC   C4B19270  11.842  12.284   7.671
 1346POPC   NC319271  21.220  28.119   9.607
 1346POPC   PO419272  21.391  28.855   9.523
 1346POPC   GL119273  21.462  28.537   9.202
 1346POPC   GL219274  21.198  28.295   9.124
 1346POPC   C1A19275  21.620  28.404   8.797
 1346POPC   D2A19276  21.410  28.544   8.462
 1346POPC   C3A19277  21.496  28.553   8.081
 1346POPC   C4A19278  21.317  28.678   7.730
 1346POPC   C1B19279  21.301  27.961   8.810
 1346POPC   C2B19280  21.593  27.881   8.443
 1346POPC   C3B19281  21.634  28.064   8.018
 1346POPC   C4B19282  21.273  28.150   7.774
 1347POPC   NC319283  36.803  25.165   9.651
 1347POPC   PO419284  37.146  25.632   9.407
 1347POPC   GL119285  36.782  25.427   9.197
 1347POPC   GL219286  36.883  25.050   9.110
 1347POPC   C1A19287  36.579  25.338   8.825
 1347POPC   D2A19288  36.768  25.108   8.515
 1347POPC   C3A19289  36.797  25.271   8.123
 1347POPC   C4A19290  36.763  25.471   7.703
 1347POPC   C1B19291  37.142  25.299   8.803
 1347POPC   C2B19292  37.285  25.387   8.366
 1347POPC   C3B19293  37.242  25.452   7.931
 1347POPC   C4B19294  37.090  25.048   7.780
 1348POPC   NC319295   1.532  39.234   9.672
 1348POPC   PO419296   1.018  39.538   9.329
 1348POPC   GL119297   1.377  39.308   9.146
 1348POPC   GL219298   1.275  38.923   9.087
 1348POPC   C1A19299   1.468  39.545   8.753
 1348POPC   D2A19300   1.229  39.701   8.369
 1348POPC   C3A19301   1.374  39.579   7.951
 1348POPC   C4A19302   1.378  39.167   7.739
 1348POPC   C1B19303   1.298  39.078   8.674
 1348POPC   C2B19304   1.284  39.184   8.258
 1348POPC   C3B19305   0.946  39.178   7.977
 1348POPC   C4B19306   0.810  38.873   7.707
 1349POPC   NC319307  26.697  32.593   9.462
 1349POPC   PO419308  27.121  32.154   9.706
 1349POPC   GL119309  27.040  32.129   9.237
 1349POPC   GL219310  26.673  32.144   9.202
 1349POPC   C1A19311  27.014  32.283   8.772
 1349POPC   D2A19312  27.168  32.215   8.317
 1349POPC   C3A19313  26.953  32.358   7.942
 1349POPC   C4A19314  27.029  32.386   7.494
 1349POPC   C1B19315  26.516  32.165   8.778
 1349POPC   C2B19316  26.651  32.271   8.365
 1349POPC   C3B19317  26.464  32.058   8.052
 1349POPC   C4B19318  26.548  32.121   7.655
 1350POPC   NC319319  33.492   6.011   9.443
 1350POPC   PO419320  34.118   5.820   9.427
 1350POPC   GL119321  33.831   5.726   9.140
 1350POPC   GL219322  33.569   5.530   9.303
 1350POPC   C1A19323  33.782   5.961   8.764
 1350POPC   D2A19324  34.032   5.915   8.402
 1350POPC   C3A19325  33.807   5.984   8.042
 1350POPC   C4A19326  34.021   5.967   7.657
 1350POPC   C1B19327  33.456   5.558   8.845
 1350POPC   C2B19328  33.405   5.760   8.437
 1350POPC   C3B19329  33.341   5.653   8.033
 1350POPC   C4B19330  33.476   5.404   7.697
 1351POPC   NC319331  14.688  40.683   9.590
 1351POPC   PO419332  14.642  41.365   9.426
 1351POPC   GL119333  14.529  40.967   9.180
 1351POPC   GL219334  14.223  40.718   9.233
 1351POPC   C1A19335  14.631  40.679   8.847
 1351POPC   D2A19336  14.796  40.645   8.431
 1351POPC   C3A19337  14.639  40.747   8.023
 1351POPC   C4A19338  14.873  40.432   7.786
 1351POPC   C1B19339  14.138  40.529   8.807
 1351POPC   C2B19340  14.272  40.588   8.363
 1351POPC   C3B19341  14.394  40.300   8.010
 1351POPC   C4B19342  14.222  40.193   7.618
 1352POPC   NC319343  16.630  24.700   9.463
 1352POPC   PO419344  17.016  24.154   9.464
 1352POPC   GL119345  16.748  24.290   9.155
 1352POPC   GL219346  17.045  24.206   8.956
 1352POPC   C1A19347  16.677  24.579   8.777
 1352POPC   D2A19348  16.377  24.646   8.414
 1352POPC   C3A19349  16.544  24.666   7.982
 1352POPC   C4A19350  16.832  24.629   7.596
 1352POPC   C1B19351  17.000  24.237   8.536
 1352POPC   C2B19352  16.950  24.548   8.276
 1352POPC   C3B19353  16.876  24.256   7.955
 1352POPC   C4B19354  16.619  23.876   7.884
 1353POPC   NC319355   9.870  38.710   9.325
 1353POPC   PO419356   9.547  38.365   9.823
 1353POPC   GL119357   9.632  38.289   9.297
 1353POPC   GL219358   9.938  38.091   9.159
 1353POPC   C1A19359   9.612  38.302   8.808
 1353POPC   D2A19360   9.794  38.530   8.438
 1353POPC   C3A19361   9.689  38.556   7.987
 1353POPC   C4A19362   9.527  38.534   7.548
 1353POPC   C1B19363  10.129  38.179   8.721
 1353POPC   C2B19364  10.134  38.163   8.251
 1353POPC   C3B19365  10.099  38.305   7.825
 1353POPC   C4B19366  10.169  38.144   7.361
 1354POPC   NC319367   2.478  18.463   9.411
 1354POPC   PO419368   3.132  18.143   9.388
 1354POPC   GL119369   2.763  18.198   9.093
 1354POPC   GL219370   2.689  18.536   8.942
 1354POPC   C1A19371   2.521  18.113   8.714
 1354POPC   D2A19372   2.716  18.148   8.325
 1354POPC   C3A19373   2.467  18.299   8.005
 1354POPC   C4A19374   2.488  18.159   7.593
 1354POPC   C1B19375   2.685  18.900   8.686
 1354POPC   C2B19376   2.883  18.940   8.319
 1354POPC   C3B19377   2.973  18.554   8.093
 1354POPC   C4B19378   2.886  18.435   7.705
 1355POPC   NC319379  21.491  10.769   9.886
 1355POPC   PO419380  21.572  10.154   9.569
 1355POPC   GL119381  21.599  10.360   9.143
 1355POPC   GL219382  21.596  10.019   9.049
 1355POPC   C1A19383  21.547  10.688   8.756
 1355POPC   D2A19384  21.487  10.886   8.313
 1355POPC   C3A19385  21.381  10.646   7.929
 1355POPC   C4A19386  21.447  10.463   7.515
 1355POPC   C1B19387  21.372  10.181   8.692
 1355POPC   C2B19388  21.526  10.235   8.298
 1355POPC   C3B19389  21.406  10.127   7.904
 1355POPC   C4B19390  21.052  10.123   7.668
 1356POPC   NC319391  22.240  35.725   9.313
 1356POPC   PO419392  21.994  35.318   9.770
 1356POPC   GL119393  21.963  35.322   9.257
 1356POPC   GL219394  22.269  35.326   9.017
 1356POPC   C1A19395  21.822  35.437   8.798
 1356POPC   D2A19396  21.872  35.613   8.377
 1356POPC   C3A19397  22.134  35.335   8.186
 1356POPC   C4A19398  22.143  35.182   7.752
 1356POPC   C1B19399  22.313  35.559   8.646
 1356POPC   C2B19400  22.534  35.672   8.274
 1356POPC   C3B19401  22.327  35.683   7.863
 1356POPC   C4B19402  22.211  35.647   7.443
 1357POPC   NC319403  33.463  22.227   9.778
 1357POPC   PO419404  34.108  22.327   9.624
 1357POPC   GL119405  33.820  22.232   9.237
 1357POPC   GL219406  33.994  22.024   9.032
 1357POPC   C1A19407  33.600  22.138   8.766
 1357POPC   D2A19408  33.761  22.132   8.352
 1357POPC   C3A19409  33.548  22.324   8.031
 1357POPC   C4A19410  33.649  22.276   7.613
 1357POPC   C1B19411  33.928  21.749   8.694
 1357POPC   C2B19412  34.023  21.698   8.259
 1357POPC   C3B19413  33.973  21.959   7.892
 1357POPC   C4B19414  34.357  21.895   7.596
 1358POPC   NC319415  30.868  10.443   9.235
 1358POPC   PO419416  30.523  10.894   9.529
 1358POPC   GL119417  30.376  10.720   9.131
 1358POPC   GL219418  30.672  10.834   8.971
 1358POPC   C1A19419  30.455  10.446   8.722
 1358POPC   D2A19420  30.781  10.369   8.381
 1358POPC   C3A19421  30.580  10.382   7.955
 1358POPC   C4A19422  30.405  10.762   7.712
 1358POPC   C1B19423  31.040  10.782   8.721
 1358POPC   C2B19424  31.037  10.934   8.329
 1358POPC   C3B19425  30.979  10.706   7.954
 1358POPC   C4B19426  30.848  10.610   7.520
 1359POPC   NC319427  23.564   5.522   9.372
 1359POPC   PO419428  24.019   6.043   9.396
 1359POPC   GL119429  23.870   5.783   9.071
 1359POPC   GL219430  23.591   6.027   9.007
 1359POPC   C1A19431  23.634   5.602   8.691
 1359POPC   D2A19432  23.566   5.394   8.267
 1359POPC   C3A19433  23.854   5.498   7.895
 1359POPC   C4A19434  23.972   5.723   7.532
 1359POPC   C1B19435  23.921   6.040   8.656
 1359POPC   C2B19436  23.885   5.822   8.291
 1359POPC   C3B19437  23.722   5.984   7.911
 1359POPC   C4B19438  23.927   6.362   7.735
 1360POPC   NC319439   0.235  40.697   9.536
 1360POPC   PO419440   0.849  40.523   9.359
 1360POPC   GL119441   0.646  40.804   9.057
 1360POPC   GL219442   0.274  40.813   9.054
 1360POPC   C1A19443   0.724  40.715   8.629
 1360POPC   D2A19444   0.428  40.519   8.380
 1360POPC   C3A19445   0.379  40.721   7.995
 1360POPC   C4A19446   0.674  40.749   7.659
 1360POPC   C1B19447   0.190  40.896   8.656
 1360POPC   C2B19448   0.300  41.116   8.307
 1360POPC   C3B19449   0.168  41.216   7.886
 1360POPC   C4B19450   0.174  40.897   7.556
 1361POPC   NC319451  21.918  24.490   9.587
 1361POPC   PO419452  22.551  24.655   9.488
 1361POPC   GL119453  22.203  24.661   9.164
 1361POPC   GL219454  22.093  24.924   8.909
 1361POPC   C1A19455  22.129  24.416   8.780
 1361POPC   D2A19456  22.050  24.285   8.359
 1361POPC   C3A19457  22.236  24.493   7.994
 1361POPC   C4A19458  22.238  24.374   7.571
 1361POPC   C1B19459  22.030  24.828   8.459
 1361POPC   C2B19460  21.749  24.603   8.148
 1361POPC   C3B19461  21.768  24.473   7.764
 1361POPC   C4B19462  21.946  24.768   7.495
 1362POPC   NC319463  11.676   7.310   9.621
 1362POPC   PO419464  11.136   7.613   9.704
 1362POPC   GL119465  11.480   7.534   9.237
 1362POPC   GL219466  11.428   7.228   9.110
 1362POPC   C1A19467  11.433   7.528   8.712
 1362POPC   D2A19468  11.053   7.583   8.401
 1362POPC   C3A19469  11.093   7.644   7.942
 1362POPC   C4A19470  11.516   7.737   7.783
 1362POPC   C1B19471  11.491   6.979   8.727
 1362POPC   C2B19472  11.226   6.990   8.369
 1362POPC   C3B19473  11.408   7.268   8.081
 1362POPC   C4B19474  11.408   7.264   7.648
 1363POPC   NC319475  21.741  19.726   9.519
 1363POPC   PO419476  22.318  19.994   9.618
 1363POPC   GL119477  22.145  19.905   9.227
 1363POPC   GL219478  22.064  20.234   9.201
 1363POPC   C1A19479  21.892  19.877   8.826
 1363POPC   D2A19480  21.819  19.778   8.375
 1363POPC   C3A19481  22.200  19.569   8.163
 1363POPC   C4A19482  22.258  19.314   7.787
 1363POPC   C1B19483  22.334  20.196   8.845
 1363POPC   C2B19484  22.296  20.002   8.465
 1363POPC   C3B19485  22.219  20.090   8.051
 1363POPC   C4B19486  22.284  19.839   7.716
 1364POPC   NC319487  33.898  31.242   9.511
 1364POPC   PO419488  33.502  31.691   9.264
 1364POPC   GL119489  33.659  31.279   9.074
 1364POPC   GL219490  33.992  31.361   8.972
 1364POPC   C1A19491  33.578  31.192   8.693
 1364POPC   D2A19492  33.573  31.589   8.469
 1364POPC   C3A19493  33.671  31.400   8.110
 1364POPC   C4A19494  33.338  31.250   7.865
 1364POPC   C1B19495  34.039  31.378   8.507
 1364POPC   C2B19496  34.228  31.475   8.103
 1364POPC   C3B19497  33.999  31.597   7.754
 1364POPC   C4B19498  33.856  31.200   7.665
 1365POPC   NC319499   7.240   0.833   9.599
 1365POPC   PO419500   7.706   1.376   9.412
 1365POPC   GL119501   7.512   1.037   9.225
 1365POPC   GL219502   7.191   1.155   9.125
 1365POPC   C1A19503   7.482   0.848   8.845
 1365POPC   D2A19504   7.353   1.010   8.454
 1365POPC   C3A19505   7.641   1.123   8.160
 1365POPC   C4A19506   7.401   1.039   7.798
 1365POPC   C1B19507   7.454   1.374   8.817
 1365POPC   C2B19508   7.390   1.559   8.457
 1365POPC   C3B19509   7.203   1.411   8.129
 1365POPC   C4B19510   7.202   1.549   7.754
 1366POPC   NC319511  43.881  25.694   9.539
 1366POPC   PO419512  44.083  26.307   9.638
 1366POPC   GL119513  43.896  26.125   9.237
 1366POPC   GL219514  44.152  25.924   9.083
 1366POPC   C1A19515  43.794  26.160   8.779
 1366POPC   D2A19516  43.446  26.142   8.468
 1366POPC   C3A19517  43.528  26.211   8.025
 1366POPC   C4A19518  43.803  26.230   7.664
 1366POPC   C1B19519  44.204  25.720   8.682
 1366POPC   C2B19520  44.055  25.659   8.244
 1366POPC   C3B19521  44.092  25.877   7.852
 1366POPC   C4B19522  44.292  25.801   7.424
 1367POPC   NC319523  32.693   2.188   9.521
 1367POPC   PO419524  32.217   1.719   9.385
 1367POPC   GL119525  32.074   1.958   9.068
 1367POPC   GL219526  32.366   2.137   9.093
 1367POPC   C1A19527  32.084   1.962   8.634
 1367POPC   D2A19528  32.295   1.901   8.290
 1367POPC   C3A19529  32.045   1.815   7.957
 1367POPC   C4A19530  32.326   1.883   7.640
 1367POPC   C1B19531  32.372   2.373   8.705
 1367POPC   C2B19532  32.099   2.399   8.342
 1367POPC   C3B19533  32.164   2.329   7.911
 1367POPC   C4B19534  32.488   2.394   7.630
 1368POPC   NC319535  36.236  24.673   9.338
 1368POPC   PO419536  36.337  24.033   9.538
 1368POPC   GL119537  36.047  24.211   9.144
 1368POPC   GL219538  36.254  24.429   8.894
 1368POPC   C1A19539  35.807  24.286   8.718
 1368POPC   D2A19540  36.024  24.506   8.362
 1368POPC   C3A19541  35.883  24.368   7.958
 1368POPC   C4A19542  36.095  24.222   7.624
 1368POPC   C1B19543  36.378  24.818   8.688
 1368POPC   C2B19544  36.350  24.923   8.258
 1368POPC   C3B19545  36.366  24.597   7.932
 1368POPC   C4B19546  36.308  24.649   7.481
 1369POPC   NC319547   5.189  42.635   9.513
 1369POPC   PO419548   4.906  41.992   9.531
 1369POPC   GL119549   5.082  42.227   9.161
 1369POPC   GL219550   5.155  42.582   9.023
 1369POPC   C1A19551   5.061  42.052   8.752
 1369POPC   D2A19552   5.162  42.072   8.322
 1369POPC   C3A19553   5.082  42.444   8.136
 1369POPC   C4A19554   4.989  42.290   7.770
 1369POPC   C1B19555   5.285  42.486   8.615
 1369POPC   C2B19556   5.598  42.338   8.332
 1369POPC   C3B19557   5.499  42.253   7.910
 1369POPC   C4B19558   5.418  42.539   7.597
 1370POPC   NC319559  28.191  27.663   9.585
 1370POPC   PO419560  28.847  27.819   9.513
 1370POPC   GL119561  28.553  27.639   9.209
 1370POPC   GL219562  28.185  27.774   9.111
 1370POPC   C1A19563  28.481  27.552   8.796
 1370POPC   D2A19564  28.636  27.589   8.425
 1370POPC   C3A19565  28.558  27.409   8.041
 1370POPC   C4A19566  28.505  27.842   7.913
 1370POPC   C1B19567  28.043  27.818   8.722
 1370POPC   C2B19568  28.098  27.529   8.392
 1370POPC   C3B19569  28.077  27.581   7.963
 1370POPC   C4B19570  28.045  27.916   7.633
 1371POPC   NC319571  27.047   1.149   9.480
 1371POPC   PO419572  27.703   1.360   9.497
 1371POPC   GL119573  27.495   1.172   9.155
 1371POPC   GL219574  27.277   1.427   9.106
 1371POPC   C1A19575  27.528   1.072   8.711
 1371POPC   D2A19576  27.714   0.877   8.339
 1371POPC   C3A19577  27.694   1.021   7.871
 1371POPC   C4A19578  27.754   0.891   7.399
 1371POPC   C1B19579  27.193   1.466   8.665
 1371POPC   C2B19580  27.267   1.267   8.281
 1371POPC   C3B19581  27.221   1.386   7.857
 1371POPC   C4B19582  27.470   1.312   7.499
 1372POPC   NC319583   0.988  24.465   9.505
 1372POPC   PO419584   1.737  24.265   9.428
 1372POPC   GL119585   1.390  24.420   9.201
 1372POPC   GL219586   1.583  24.406   8.950
 1372POPC   C1A19587   1.071  24.422   8.850
 1372POPC   D2A19588   1.217  24.626   8.465
 1372POPC   C3A19589   1.004  24.632   8.054
 1372POPC   C4A19590   1.067  24.856   7.652
 1372POPC   C1B19591   1.788  24.234   8.602
 1372POPC   C2B19592   1.500  24.234   8.269
 1372POPC   C3B19593   1.430  24.402   7.877
 1372POPC   C4B19594   1.546  24.191   7.509
 1373POPC   NC319595  20.455  25.754   9.494
 1373POPC   PO419596  20.912  26.096   9.200
 1373POPC   GL119597  20.501  26.071   9.086
 1373POPC   GL219598  20.504  26.409   9.059
 1373POPC   C1A19599  20.478  25.949   8.693
 1373POPC   D2A19600  20.781  26.069   8.432
 1373POPC   C3A19601  20.657  25.843   8.101
 1373POPC   C4A19602  20.733  25.904   7.713
 1373POPC   C1B19603  20.288  26.404   8.703
 1373POPC   C2B19604  20.344  26.260   8.272
 1373POPC   C3B19605  20.629  26.356   7.938
 1373POPC   C4B19606  20.599  26.317   7.465
 1374POPC   NC319607  22.980   6.993   9.571
 1374POPC   PO419608  23.070   6.320   9.542
 1374POPC   GL119609  23.016   6.619   9.195
 1374POPC   GL219610  22.684   6.726   9.220
 1374POPC   C1A19611  23.206   6.641   8.799
 1374POPC   D2A19612  23.190   6.393   8.452
 1374POPC   C3A19613  22.996   6.688   8.217
 1374POPC   C4A19614  23.045   6.810   7.829
 1374POPC   C1B19615  22.476   6.800   8.841
 1374POPC   C2B19616  22.394   6.663   8.417
 1374POPC   C3B19617  22.530   6.647   7.993
 1374POPC   C4B19618  22.670   6.559   7.584
 1375POPC   NC319619  13.573  12.380   9.941
 1375POPC   PO419620  13.806  11.842   9.524
 1375POPC   GL119621  13.538  12.093   9.242
 1375POPC   GL219622  13.647  12.427   9.191
 1375POPC   C1A19623  13.568  12.113   8.778
 1375POPC   D2A19624  13.828  11.849   8.489
 1375POPC   C3A19625  13.765  11.941   8.037
 1375POPC   C4A19626  13.509  11.749   7.712
 1375POPC   C1B19627  13.700  12.607   8.779
 1375POPC   C2B19628  13.466  12.531   8.409
 1375POPC   C3B19629  13.549  12.443   7.973
 1375POPC   C4B19630  13.237  12.147   7.770
 1376POPC   NC319631   1.449  26.362   9.473
 1376POPC   PO419632   1.061  25.761   9.506
 1376POPC   GL119633   1.259  25.966   9.193
 1376POPC   GL219634   1.044  26.194   9.144
 1376POPC   C1A19635   1.420  25.889   8.789
 1376POPC   D2A19636   1.234  26.026   8.413
 1376POPC   C3A19637   1.470  25.999   8.047
 1376POPC   C4A19638   1.273  25.837   7.736
 1376POPC   C1B19639   0.840  26.356   8.787
 1376POPC   C2B19640   0.758  26.208   8.378
 1376POPC   C3B19641   0.976  26.254   8.001
 1376POPC   C4B19642   0.875  26.134   7.587
 1377POPC   NC319643   3.341  15.375   9.465
 1377POPC   PO419644   3.788  14.933   9.385
 1377POPC   GL119645   3.480  15.086   9.054
 1377POPC   GL219646   3.539  15.449   9.008
 1377POPC   C1A19647   3.472  15.176   8.591
 1377POPC   D2A19648   3.717  15.389   8.278
 1377POPC   C3A19649   3.690  15.151   7.954
 1377POPC   C4A19650   3.326  15.035   7.728
 1377POPC   C1B19651   3.175  15.535   8.789
 1377POPC   C2B19652   3.064  15.454   8.373
 1377POPC   C3B19653   3.240  15.482   7.978
 1377POPC   C4B19654   3.536  15.531   7.662
 1378POPC   NC319655  37.351  29.176   9.492
 1378POPC   PO419656  36.675  29.068   9.557
 1378POPC   GL119657  36.861  29.204   9.200
 1378POPC   GL219658  37.056  29.478   9.191
 1378POPC   C1A19659  37.031  29.007   8.845
 1378POPC   D2A19660  37.004  28.783   8.463
 1378POPC   C3A19661  37.094  28.953   8.079
 1378POPC   C4A19662  36.850  29.004   7.691
 1378POPC   C1B19663  36.890  29.501   8.790
 1378POPC   C2B19664  36.811  29.281   8.430
 1378POPC   C3B19665  36.892  29.406   8.032
 1378POPC   C4B19666  37.052  29.666   7.772
 1379POPC   NC319667   6.607  25.588   9.612
 1379POPC   PO419668   6.859  25.081   9.434
 1379POPC   GL119669   6.662  25.349   9.149
 1379POPC   GL219670   6.307  25.454   9.218
 1379POPC   C1A19671   6.875  25.410   8.778
 1379POPC   D2A19672   7.061  25.106   8.498
 1379POPC   C3A19673   6.991  25.297   8.100
 1379POPC   C4A19674   6.777  25.362   7.728
 1379POPC   C1B19675   6.311  25.336   8.775
 1379POPC   C2B19676   6.515  25.434   8.418
 1379POPC   C3B19677   6.381  25.430   8.014
 1379POPC   C4B19678   6.307  25.005   7.863
 1380POPC   NC319679  35.444  15.702   9.620
 1380POPC   PO419680  35.646  16.210   9.539
 1380POPC   GL119681  35.524  15.954   9.158
 1380POPC   GL219682  35.622  15.558   9.180
 1380POPC   C1A19683  35.315  16.067   8.758
 1380POPC   D2A19684  35.157  16.299   8.385
 1380POPC   C3A19685  35.298  16.133   8.009
 1380POPC   C4A19686  35.398  15.709   7.837
 1380POPC   C1B19687  35.345  15.550   8.844
 1380POPC   C2B19688  34.978  15.643   8.612
 1380POPC   C3B19689  35.018  15.754   8.202
 1380POPC   C4B19690  34.902  15.606   7.818
 1381POPC   NC319691  12.609   0.855   9.550
 1381POPC   PO419692  12.898   1.441   9.433
 1381POPC   GL119693  13.003   1.304   9.028
 1381POPC   GL219694  13.118   0.965   9.054
 1381POPC   C1A19695  13.053   1.192   8.597
 1381POPC   D2A19696  13.287   1.061   8.272
 1381POPC   C3A19697  12.946   1.014   8.042
 1381POPC   C4A19698  12.879   1.263   7.709
 1381POPC   C1B19699  12.752   0.881   8.879
 1381POPC   C2B19700  12.618   0.885   8.469
 1381POPC   C3B19701  12.553   0.664   8.100
 1381POPC   C4B19702  12.653   0.798   7.686
 1382POPC   NC319703  33.168  39.772   9.389
 1382POPC   PO419704  32.783  39.287   9.779
 1382POPC   GL119705  32.848  39.276   9.292
 1382POPC   GL219706  32.596  39.541   9.216
 1382POPC   C1A19707  33.042  39.061   8.867
 1382POPC   D2A19708  33.048  39.204   8.429
 1382POPC   C3A19709  32.937  39.035   8.025
 1382POPC   C4A19710  33.191  39.193   7.683
 1382POPC   C1B19711  32.807  39.508   8.819
 1382POPC   C2B19712  32.720  39.616   8.411
 1382POPC   C3B19713  32.882  39.535   8.025
 1382POPC   C4B19714  32.715  39.381   7.667
 1383POPC   NC319715  27.348   4.262   9.401
 1383POPC   PO419716  27.886   4.690   9.370
 1383POPC   GL119717  27.676   4.476   9.033
 1383POPC   GL219718  27.733   4.131   9.092
 1383POPC   C1A19719  27.459   4.265   8.668
 1383POPC   D2A19720  27.199   4.425   8.297
 1383POPC   C3A19721  27.391   4.511   7.941
 1383POPC   C4A19722  27.498   4.639   7.548
 1383POPC   C1B19723  27.960   4.057   8.756
 1383POPC   C2B19724  27.869   4.172   8.364
 1383POPC   C3B19725  28.011   4.011   8.004
 1383POPC   C4B19726  27.827   4.066   7.631
 1384POPC   NC319727  27.124   1.897   9.470
 1384POPC   PO419728  26.521   2.230   9.433
 1384POPC   GL119729  26.668   1.960   9.095
 1384POPC   GL219730  27.013   1.841   8.991
 1384POPC   C1A19731  26.755   2.096   8.674
 1384POPC   D2A19732  27.030   2.303   8.438
 1384POPC   C3A19733  26.957   2.116   8.098
 1384POPC   C4A19734  26.837   1.874   7.791
 1384POPC   C1B19735  27.309   1.962   8.678
 1384POPC   C2B19736  27.352   1.806   8.256
 1384POPC   C3B19737  27.353   1.895   7.816
 1384POPC   C4B19738  27.184   1.716   7.430
 1385POPC   NC319739  13.430  30.286   9.482
 1385POPC   PO419740  13.344  29.608   9.406
 1385POPC   GL119741  13.698  29.861   9.190
 1385POPC   GL219742  13.541  30.124   9.011
 1385POPC   C1A19743  14.006  29.997   8.813
 1385POPC   D2A19744  13.870  30.190   8.409
 1385POPC   C3A19745  13.949  30.010   7.971
 1385POPC   C4A19746  13.911  29.714   7.587
 1385POPC   C1B19747  13.516  29.782   8.708
 1385POPC   C2B19748  13.488  29.879   8.274
 1385POPC   C3B19749  13.461  29.775   7.876
 1385POPC   C4B19750  13.110  29.533   7.803
 1386POPC   NC319751  34.140   3.199   9.392
 1386POPC   PO419752  33.474   3.208   9.509
 1386POPC   GL119753  33.673   3.458   9.173
 1386POPC   GL219754  33.924   3.722   9.284
 1386POPC   C1A19755  33.540   3.610   8.746
 1386POPC   D2A19756  33.712   3.559   8.326
 1386POPC   C3A19757  33.574   3.756   7.929
 1386POPC   C4A19758  33.763   3.417   7.738
 1386POPC   C1B19759  33.977   3.843   8.851
 1386POPC   C2B19760  34.043   3.971   8.438
 1386POPC   C3B19761  34.080   3.776   8.040
 1386POPC   C4B19762  33.969   3.890   7.616
 1387POPC   NC319763  13.821  28.486   9.473
 1387POPC   PO419764  13.309  28.098   9.354
 1387POPC   GL119765  13.522  28.352   9.089
 1387POPC   GL219766  13.413  28.692   9.204
 1387POPC   C1A19767  13.651  28.282   8.670
 1387POPC   D2A19768  13.365  28.128   8.372
 1387POPC   C3A19769  13.567  28.068   8.013
 1387POPC   C4A19770  13.677  28.394   7.769
 1387POPC   C1B19771  13.357  28.685   8.759
 1387POPC   C2B19772  13.216  28.649   8.351
 1387POPC   C3B19773  13.186  28.422   7.988
 1387POPC   C4B19774  13.223  28.591   7.611
 1388POPC   NC319775  36.349  37.491   9.515
 1388POPC   PO419776  35.785  37.911   9.445
 1388POPC   GL119777  36.015  37.623   9.147
 1388POPC   GL219778  36.346  37.660   9.037
 1388POPC   C1A19779  35.922  37.425   8.776
 1388POPC   D2A19780  35.760  37.737   8.456
 1388POPC   C3A19781  35.730  37.642   8.016
 1388POPC   C4A19782  35.882  37.279   7.782
 1388POPC   C1B19783  36.338  37.616   8.585
 1388POPC   C2B19784  36.205  37.616   8.189
 1388POPC   C3B19785  36.334  37.566   7.809
 1388POPC   C4B19786  36.664  37.790   7.665
 1389POPC   NC319787  21.346  26.187   9.364
 1389POPC   PO419788  21.004  25.609   9.556
 1389POPC   GL119789  21.304  25.733   9.114
 1389POPC   GL219790  21.469  26.072   8.914
 1389POPC   C1A19791  21.474  25.666   8.646
 1389POPC   D2A19792  21.391  25.474   8.261
 1389POPC   C3A19793  21.169  25.720   7.950
 1389POPC   C4A19794  21.476  25.952   7.717
 1389POPC   C1B19795  21.238  26.259   8.605
 1389POPC   C2B19796  21.218  26.170   8.179
 1389POPC   C3B19797  21.098  26.273   7.768
 1389POPC   C4B19798  21.357  26.384   7.416
 1390POPC   NC319799   2.248  44.170   9.716
 1390POPC   PO419800   2.035  43.639   9.328
 1390POPC   GL119801   1.917  43.858   9.034
 1390POPC   GL219802   1.877  44.158   9.236
 1390POPC   C1A19803   2.070  43.877   8.620
 1390POPC   D2A19804   1.937  43.671   8.276
 1390POPC   C3A19805   2.289  43.707   7.989
 1390POPC   C4A19806   1.980  43.772   7.699
 1390POPC   C1B19807   1.867  44.319   8.845
 1390POPC   C2B19808   1.855  44.300   8.428
 1390POPC   C3B19809   1.998  44.136   8.061
 1390POPC   C4B19810   2.088  44.281   7.644
 1391POPC   NC319811  17.047  21.154   9.496
 1391POPC   PO419812  17.677  21.470   9.420
 1391POPC   GL119813  17.554  21.197   9.129
 1391POPC   GL219814  17.261  21.385   9.106
 1391POPC   C1A19815  17.706  21.206   8.711
 1391POPC   D2A19816  17.590  21.491   8.434
 1391POPC   C3A19817  17.716  21.461   8.049
 1391POPC   C4A19818  17.559  21.589   7.679
 1391POPC   C1B19819  17.184  21.386   8.724
 1391POPC   C2B19820  17.101  21.585   8.363
 1391POPC   C3B19821  17.196  21.412   7.992
 1391POPC   C4B19822  17.297  21.132   7.662
 1392POPC   NC319823   6.026  34.199   9.490
 1392POPC   PO419824   5.632  34.696   9.374
 1392POPC   GL119825   5.672  34.437   9.057
 1392POPC   GL219826   6.047  34.413   9.023
 1392POPC   C1A19827   5.641  34.436   8.618
 1392POPC   D2A19828   6.052  34.388   8.501
 1392POPC   C3A19829   6.094  34.386   8.088
 1392POPC   C4A19830   5.745  34.530   7.853
 1392POPC   C1B19831   6.267  34.751   8.807
 1392POPC   C2B19832   6.194  35.004   8.461
 1392POPC   C3B19833   6.004  34.902   8.100
 1392POPC   C4B19834   6.063  34.977   7.708
 1393POPC   NC319835   9.794  25.278   9.618
 1393POPC   PO419836  10.390  25.421   9.463
 1393POPC   GL119837  10.043  25.347   9.161
 1393POPC   GL219838   9.705  25.538   9.180
 1393POPC   C1A19839   9.952  25.452   8.725
 1393POPC   D2A19840  10.113  25.654   8.348
 1393POPC   C3A19841   9.839  25.499   8.054
 1393POPC   C4A19842   9.818  25.082   7.881
 1393POPC   C1B19843   9.492  25.270   8.852
 1393POPC   C2B19844   9.582  25.206   8.417
 1393POPC   C3B19845   9.371  25.254   8.029
 1393POPC   C4B19846   9.515  25.495   7.653
 1394POPC   NC319847  15.186  11.435   9.544
 1394POPC   PO419848  15.809  11.110   9.626
 1394POPC   GL119849  15.492  11.180   9.196
 1394POPC   GL219850  15.281  11.469   9.069
 1394POPC   C1A19851  15.317  11.109   8.729
 1394POPC   D2A19852  15.420  10.876   8.363
 1394POPC   C3A19853  15.147  10.907   7.989
 1394POPC   C4A19854  15.194  11.184   7.633
 1394POPC   C1B19855  14.921  11.694   8.882
 1394POPC   C2B19856  14.939  11.613   8.444
 1394POPC   C3B19857  15.144  11.445   8.095
 1394POPC   C4B19858  14.946  11.631   7.711
 1395POPC   NC319859   6.531   0.971   9.344
 1395POPC   PO419860   6.922   0.435   9.537
 1395POPC   GL119861   6.715   0.310   9.112
 1395POPC   GL219862   6.455   0.470   9.165
 1395POPC   C1A19863   6.786   0.212   8.670
 1395POPC   D2A19864   6.943   0.257   8.239
 1395POPC   C3A19865   6.717   0.367   7.890
 1395POPC   C4A19866   6.815   0.661   7.605
 1395POPC   C1B19867   6.309   0.434   8.758
 1395POPC   C2B19868   6.406   0.326   8.336
 1395POPC   C3B19869   6.206   0.461   7.967
 1395POPC   C4B19870   6.165   0.662   7.582
 1396POPC   NC319871  18.894  35.708   9.509
 1396POPC   PO419872  18.754  35.126   9.584
 1396POPC   GL119873  19.046  35.115   9.190
 1396POPC   GL219874  18.960  35.445   9.071
 1396POPC   C1A19875  19.176  35.140   8.710
 1396POPC   D2A19876  18.995  35.151   8.273
 1396POPC   C3A19877  19.156  35.058   7.857
 1396POPC   C4A19878  19.045  35.250   7.436
 1396POPC   C1B19879  18.831  35.561   8.653
 1396POPC   C2B19880  19.052  35.648   8.275
 1396POPC   C3B19881  19.058  35.570   7.839
 1396POPC   C4B19882  19.206  35.760   7.426
 1397POPC   NC319883   2.036   6.361   9.656
 1397POPC   PO419884   2.218   5.746   9.405
 1397POPC   GL119885   2.207   5.949   9.047
 1397POPC   GL219886   1.880   6.076   9.042
 1397POPC   C1A19887   2.046   5.774   8.671
 1397POPC   D2A19888   1.998   5.760   8.254
 1397POPC   C3A19889   2.399   5.691   8.097
 1397POPC   C4A19890   2.361   5.699   7.715
 1397POPC   C1B19891   1.570   5.982   8.735
 1397POPC   C2B19892   1.500   5.651   8.431
 1397POPC   C3B19893   1.589   5.587   7.981
 1397POPC   C4B19894   1.863   5.840   7.725
 1398POPC   NC319895   1.071   3.930   9.445
 1398POPC   PO419896   1.472   4.485   9.486
 1398POPC   GL119897   1.280   4.308   9.149
 1398POPC   GL219898   1.463   4.026   9.142
 1398POPC   C1A19899   1.042   4.226   8.765
 1398POPC   D2A19900   0.943   4.511   8.401
 1398POPC   C3A19901   0.986   4.384   7.960
 1398POPC   C4A19902   0.962   4.382   7.507
 1398POPC   C1B19903   1.553   4.094   8.725
 1398POPC   C2B19904   1.353   4.196   8.348
 1398POPC   C3B19905   1.478   4.225   7.953
 1398POPC   C4B19906   1.436   4.161   7.540
 1399POPC   NC319907  23.268   9.698   9.500
 1399POPC   PO419908  23.853  10.089   9.621
 1399POPC   GL119909  23.898   9.916   9.186
 1399POPC   GL219910  23.782   9.574   9.118
 1399POPC   C1A19911  23.718   9.960   8.736
 1399POPC   D2A19912  23.513   9.838   8.324
 1399POPC   C3A19913  23.707   9.726   7.926
 1399POPC   C4A19914  23.946   9.970   7.648
 1399POPC   C1B19915  23.483   9.514   8.743
 1399POPC   C2B19916  23.215   9.391   8.413
 1399POPC   C3B19917  23.275   9.424   7.946
 1399POPC   C4B19918  23.485   9.290   7.559
 1400POPC   NC319919   3.375   2.359   9.432
 1400POPC   PO419920   3.831   2.846   9.532
 1400POPC   GL119921   3.601   2.774   9.173
 1400POPC   GL219922   3.684   2.440   9.032
 1400POPC   C1A19923   3.530   3.059   8.843
 1400POPC   D2A19924   3.704   3.008   8.436
 1400POPC   C3A19925   3.485   3.077   8.068
 1400POPC   C4A19926   3.660   2.991   7.722
 1400POPC   C1B19927   3.531   2.567   8.645
 1400POPC   C2B19928   3.441   2.580   8.211
 1400POPC   C3B19929   3.370   2.589   7.744
 1400POPC   C4B19930   3.379   2.313   7.320
 1401POPC   NC319931  10.044  33.030   9.318
 1401POPC   PO419932   9.344  33.152   9.408
 1401POPC   GL119933   9.577  33.147   9.073
 1401POPC   GL219934   9.608  32.793   9.051
 1401POPC   C1A19935   9.761  33.144   8.688
 1401POPC   D2A19936   9.892  33.363   8.356
 1401POPC   C3A19937   9.774  33.126   8.005
 1401POPC   C4A19938   9.777  33.242   7.562
 1401POPC   C1B19939   9.881  32.650   8.701
 1401POPC   C2B19940   9.859  32.359   8.347
 1401POPC   C3B19941  10.045  32.429   7.943
 1401POPC   C4B19942   9.862  32.733   7.686
 1402POPC   NC319943  19.972  28.985   9.661
 1402POPC   PO419944  19.473  29.261   9.295
 1402POPC   GL119945  19.714  29.093   9.014
 1402POPC   GL219946  20.013  29.055   9.151
 1402POPC   C1A19947  19.680  29.199   8.617
 1402POPC   D2A19948  19.613  28.961   8.301
 1402POPC   C3A19949  19.766  29.218   7.970
 1402POPC   C4A19950  20.110  29.122   7.710
 1402POPC   C1B19951  20.174  29.080   8.724
 1402POPC   C2B19952  20.127  28.918   8.282
 1402POPC   C3B19953  19.886  28.716   7.906
 1402POPC   C4B19954  20.002  28.706   7.420
 1403POPC   NC319955   5.853  33.524   9.479
 1403POPC   PO419956   6.424  33.915   9.498
 1403POPC   GL119957   6.125  33.830   9.148
 1403POPC   GL219958   5.994  33.510   8.998
 1403POPC   C1A19959   5.849  33.974   8.810
 1403POPC   D2A19960   5.619  33.879   8.435
 1403POPC   C3A19961   5.771  33.904   8.000
 1403POPC   C4A19962   6.141  34.017   7.751
 1403POPC   C1B19963   5.794  33.426   8.626
 1403POPC   C2B19964   5.982  33.442   8.243
 1403POPC   C3B19965   6.032  33.521   7.788
 1403POPC   C4B19966   5.712  33.649   7.498
 1404POPC   NC319967  31.420  40.550   9.522
 1404POPC   PO419968  31.764  41.167   9.614
 1404POPC   GL119969  31.556  41.122   9.215
 1404POPC   GL219970  31.211  40.963   9.182
 1404POPC   C1A19971  31.575  40.970   8.790
 1404POPC   D2A19972  31.599  41.030   8.349
 1404POPC   C3A19973  31.652  40.659   8.122
 1404POPC   C4A19974  31.638  40.634   7.712
 1404POPC   C1B19975  31.053  40.884   8.721
 1404POPC   C2B19976  31.109  40.854   8.238
 1404POPC   C3B19977  31.157  40.802   7.771
 1404POPC   C4B19978  31.213  40.979   7.345
 1405POPC   NC319979  26.970   6.672   9.556
 1405POPC   PO419980  26.341   6.575   9.517
 1405POPC   GL119981  26.637   6.628   9.173
 1405POPC   GL219982  26.880   6.331   9.177
 1405POPC   C1A19983  26.845   6.780   8.813
 1405POPC   D2A19984  26.980   6.652   8.411
 1405POPC   C3A19985  26.843   6.850   8.018
 1405POPC   C4A19986  27.003   6.777   7.590
 1405POPC   C1B19987  26.702   6.274   8.770
 1405POPC   C2B19988  26.790   6.126   8.357
 1405POPC   C3B19989  26.993   6.327   8.005
 1405POPC   C4B19990  26.838   6.288   7.608
 1406POPC   NC319991  15.415  35.828   9.858
 1406POPC   PO419992  15.023  36.226   9.560
 1406POPC   GL119993  15.207  35.971   9.276
 1406POPC   GL219994  14.969  35.691   9.279
 1406POPC   C1A19995  15.254  35.964   8.832
 1406POPC   D2A19996  15.128  36.193   8.453
 1406POPC   C3A19997  15.430  36.266   8.133
 1406POPC   C4A19998  15.266  36.277   7.746
 1406POPC   C1B19999  14.863  35.629   8.822
 1406POPC   C2B20000  15.125  35.681   8.421
 1406POPC   C3B20001  15.180  35.822   8.005
 1406POPC   C4B20002  15.551  35.863   7.780
 1407POPC   NC320003  10.426  43.057   9.455
 1407POPC   PO420004  10.881  43.447   9.284
 1407POPC   GL120005  10.579  43.336   9.053
 1407POPC   GL220006  10.280  43.495   9.218
 1407POPC   C1A20007  10.581  43.047   8.725
 1407POPC   D2A20008  10.689  43.158   8.315
 1407POPC   C3A20009  10.791  42.932   7.983
 1407POPC   C4A20010  10.575  43.066   7.617
 1407POPC   C1B20011  10.141  43.338   8.797
 1407POPC   C2B20012  10.182  43.128   8.378
 1407POPC   C3B20013  10.272  43.315   7.938
 1407POPC   C4B20014  10.217  43.382   7.437
 1408POPC   NC320015   4.243  34.367   9.291
 1408POPC   PO420016   4.444  33.892   9.737
 1408POPC   GL120017   4.524  33.877   9.237
 1408POPC   GL220018   4.793  33.638   9.125
 1408POPC   C1A20019   4.402  33.838   8.749
 1408POPC   D2A20020   4.444  33.926   8.259
 1408POPC   C3A20021   4.257  33.667   7.892
 1408POPC   C4A20022   4.263  33.788   7.445
 1408POPC   C1B20023   4.905  33.776   8.700
 1408POPC   C2B20024   4.798  33.553   8.305
 1408POPC   C3B20025   4.773  33.658   7.870
 1408POPC   C4B20026   4.829  33.808   7.451
 1409POPC   NC320027  38.143  22.617   9.567
 1409POPC   PO420028  38.454  23.198   9.471
 1409POPC   GL120029  38.300  22.953   9.159
 1409POPC   GL220030  37.963  23.073   9.168
 1409POPC   C1A20031  38.313  22.982   8.708
 1409POPC   D2A20032  38.432  23.229   8.337
 1409POPC   C3A20033  38.575  22.982   7.984
 1409POPC   C4A20034  38.350  22.862   7.606
 1409POPC   C1B20035  37.986  23.370   8.815
 1409POPC   C2B20036  37.925  23.353   8.351
 1409POPC   C3B20037  38.036  23.140   7.940
 1409POPC   C4B20038  38.004  23.179   7.453
 1410POPC   NC320039  27.306  35.415   9.438
 1410POPC   PO420040  27.791  35.018   9.503
 1410POPC   GL120041  27.904  35.294   9.177
 1410POPC   GL220042  27.744  35.644   9.217
 1410POPC   C1A20043  27.779  35.353   8.752
 1410POPC   D2A20044  27.484  35.337   8.405
 1410POPC   C3A20045  27.531  35.204   7.978
 1410POPC   C4A20046  27.909  35.334   7.762
 1410POPC   C1B20047  27.403  35.677   8.871
 1410POPC   C2B20048  27.139  35.696   8.520
 1410POPC   C3B20049  27.224  35.683   8.077
 1410POPC   C4B20050  27.519  35.665   7.739
 1411POPC   NC320051   8.424  31.451   9.576
 1411POPC   PO420052   8.903  31.824   9.288
 1411POPC   GL120053   8.487  31.680   9.107
 1411POPC   GL220054   8.329  31.310   9.088
 1411POPC   C1A20055   8.143  31.703   8.822
 1411POPC   D2A20056   7.953  31.698   8.431
 1411POPC   C3A20057   8.210  31.590   8.109
 1411POPC   C4A20058   8.147  31.610   7.689
 1411POPC   C1B20059   8.037  31.140   8.736
 1411POPC   C2B20060   8.058  31.121   8.264
 1411POPC   C3B20061   7.829  31.298   7.921
 1411POPC   C4B20062   7.717  31.410   7.496
 1412POPC   NC320063  44.197   8.016   9.520
 1412POPC   PO420064  43.584   8.387   9.570
 1412POPC   GL120065  43.860   8.306   9.232
 1412POPC   GL220066  43.851   7.943   9.152
 1412POPC   C1A20067  43.764   8.364   8.802
 1412POPC   D2A20068  43.499   8.521   8.428
 1412POPC   C3A20069  43.694   8.412   8.023
 1412POPC   C4A20070  44.012   8.256   7.736
 1412POPC   C1B20071  43.967   7.872   8.753
 1412POPC   C2B20072  43.884   8.080   8.383
 1412POPC   C3B20073  44.041   7.881   8.073
 1412POPC   C4B20074  44.042   7.685   7.689
 1413POPC   NC320075  12.312  37.094   9.541
 1413POPC   PO420076  11.745  36.730   9.361
 1413POPC   GL120077  12.107  36.817   9.174
 1413POPC   GL220078  12.024  37.139   9.118
 1413POPC   C1A20079  12.374  36.877   8.845
 1413POPC   D2A20080  12.356  37.049   8.439
 1413POPC   C3A20081  12.202  36.872   8.059
 1413POPC   C4A20082  12.113  36.836   7.615
 1413POPC   C1B20083  11.906  37.112   8.720
 1413POPC   C2B20084  11.780  37.055   8.319
 1413POPC   C3B20085  11.826  37.213   7.908
 1413POPC   C4B20086  11.653  37.055   7.520
 1414POPC   NC320087   9.708  36.721   9.628
 1414POPC   PO420088   9.736  37.407   9.610
 1414POPC   GL120089   9.779  37.095   9.231
 1414POPC   GL220090   9.582  36.778   9.139
 1414POPC   C1A20091   9.714  37.092   8.750
 1414POPC   D2A20092   9.750  37.202   8.292
 1414POPC   C3A20093   9.739  36.926   7.897
 1414POPC   C4A20094   9.588  36.842   7.419
 1414POPC   C1B20095   9.851  36.594   8.836
 1414POPC   C2B20096   9.849  36.696   8.389
 1414POPC   C3B20097  10.055  36.540   8.028
 1414POPC   C4B20098  10.027  36.630   7.553
 1415POPC   NC320099  41.536  43.017   9.640
 1415POPC   PO420100  42.040  43.410   9.769
 1415POPC   GL120101  41.747  43.408   9.338
 1415POPC   GL220102  41.609  43.076   9.166
 1415POPC   C1A20103  41.727  43.423   8.850
 1415POPC   D2A20104  41.805  43.153   8.497
 1415POPC   C3A20105  41.650  43.253   8.081
 1415POPC   C4A20106  41.904  43.348   7.718
 1415POPC   C1B20107  41.624  42.804   8.845
 1415POPC   C2B20108  41.544  42.705   8.425
 1415POPC   C3B20109  41.789  42.716   8.079
 1415POPC   C4B20110  41.698  42.895   7.711
 1416POPC   NC320111  35.239   4.158   9.530
 1416POPC   PO420112  34.737   4.498   9.167
 1416POPC   GL120113  35.177   4.453   9.117
 1416POPC   GL220114  35.165   4.082   9.027
 1416POPC   C1A20115  35.535   4.568   8.838
 1416POPC   D2A20116  35.537   4.715   8.393
 1416POPC   C3A20117  35.281   4.522   8.040
 1416POPC   C4A20118  35.150   4.524   7.601
 1416POPC   C1B20119  35.588   4.049   8.819
 1416POPC   C2B20120  35.818   4.128   8.413
 1416POPC   C3B20121  35.758   3.935   8.015
 1416POPC   C4B20122  35.461   4.124   7.728
 1417POPC   NC320123  26.790  34.695   9.449
 1417POPC   PO420124  26.547  33.981   9.502
 1417POPC   GL120125  26.626  34.288   9.181
 1417POPC   GL220126  26.381  34.592   9.195
 1417POPC   C1A20127  26.833  34.441   8.813
 1417POPC   D2A20128  26.732  34.327   8.407
 1417POPC   C3A20129  26.907  34.534   8.060
 1417POPC   C4A20130  27.031  34.371   7.703
 1417POPC   C1B20131  26.498  34.853   8.836
 1417POPC   C2B20132  26.644  34.823   8.410
 1417POPC   C3B20133  26.517  34.840   7.965
 1417POPC   C4B20134  26.773  34.825   7.587
 1418POPC   NC320135  36.685  20.963   9.349
 1418POPC   PO420136  36.541  20.434   9.630
 1418POPC   GL120137  36.751  20.444   9.198
 1418POPC   GL220138  37.073  20.604   9.158
 1418POPC   C1A20139  36.732  20.585   8.727
 1418POPC   D2A20140  36.464  20.825   8.396
 1418POPC   C3A20141  36.636  20.832   7.988
 1418POPC   C4A20142  36.838  20.505   7.778
 1418POPC   C1B20143  37.271  20.493   8.753
 1418POPC   C2B20144  37.257  20.622   8.308
 1418POPC   C3B20145  37.235  20.795   7.868
 1418POPC   C4B20146  37.152  20.590   7.386
 1419POPC   NC320147  14.349  27.263   9.495
 1419POPC   PO420148  14.747  27.737   9.653
 1419POPC   GL120149  14.674  27.566   9.237
 1419POPC   GL220150  14.914  27.709   9.087
 1419POPC   C1A20151  14.457  27.443   8.835
 1419POPC   D2A20152  14.365  27.613   8.396
 1419POPC   C3A20153  14.341  27.379   8.010
 1419POPC   C4A20154  14.406  27.645   7.663
 1419POPC   C1B20155  14.741  27.851   8.687
 1419POPC   C2B20156  14.876  27.899   8.253
 1419POPC   C3B20157  14.810  27.956   7.815
 1419POPC   C4B20158  14.768  27.835   7.352
 1420POPC   NC320159   0.331   4.486   9.502
 1420POPC   PO420160   0.610   3.829   9.469
 1420POPC   GL120161   0.706   4.226   9.210
 1420POPC   GL220162   0.376   4.203   9.075
 1420POPC   C1A20163   0.670   4.553   8.858
 1420POPC   D2A20164   0.464   4.399   8.518
 1420POPC   C3A20165   0.498   4.510   8.104
 1420POPC   C4A20166   0.528   4.255   7.724
 1420POPC   C1B20167   0.112   4.116   8.746
 1420POPC   C2B20168  44.989   4.271   8.383
 1420POPC   C3B20169   0.089   4.206   7.981
 1420POPC   C4B20170  44.824   4.201   7.686
 1421POPC   NC320171  13.571   0.584   9.521
 1421POPC   PO420172  13.270   0.009   9.548
 1421POPC   GL120173  13.611   0.157   9.216
 1421POPC   GL220174  13.896   0.460   9.177
 1421POPC   C1A20175  13.562   0.344   8.817
 1421POPC   D2A20176  13.399   0.238   8.426
 1421POPC   C3A20177  13.628   0.204   8.033
 1421POPC   C4A20178  13.513   0.332   7.640
 1421POPC   C1B20179  13.934   0.691   8.758
 1421POPC   C2B20180  13.675   0.690   8.336
 1421POPC   C3B20181  13.684   0.732   7.894
 1421POPC   C4B20182  13.792   0.943   7.483
 1422POPC   NC320183  42.954  16.083   9.561
 1422POPC   PO420184  43.652  16.149   9.426
 1422POPC   GL120185  43.319  15.887   9.136
 1422POPC   GL220186  42.950  15.831   9.130
 1422POPC   C1A20187  43.168  15.653   8.717
 1422POPC   D2A20188  42.933  15.751   8.338
 1422POPC   C3A20189  43.134  15.832   7.959
 1422POPC   C4A20190  43.079  15.795   7.513
 1422POPC   C1B20191  42.975  16.113   8.789
 1422POPC   C2B20192  43.175  16.198   8.402
 1422POPC   C3B20193  42.956  16.338   8.090
 1422POPC   C4B20194  42.935  16.264   7.691
 1423POPC   NC320195  10.332  20.247   9.643
 1423POPC   PO420196  10.606  20.837   9.572
 1423POPC   GL120197  10.609  20.589   9.208
 1423POPC   GL220198  10.309  20.430   9.161
 1423POPC   C1A20199  10.501  20.753   8.799
 1423POPC   D2A20200  10.314  20.721   8.399
 1423POPC   C3A20201  10.595  20.773   8.071
 1423POPC   C4A20202  10.481  20.609   7.688
 1423POPC   C1B20203  10.461  20.255   8.777
 1423POPC   C2B20204  10.708  20.396   8.438
 1423POPC   C3B20205  10.691  20.279   8.015
 1423POPC   C4B20206  10.555  20.117   7.606
 1424POPC   NC320207  26.787  26.268   9.410
 1424POPC   PO420208  27.140  25.744   9.663
 1424POPC   GL120209  27.142  25.808   9.171
 1424POPC   GL220210  26.803  25.856   9.112
 1424POPC   C1A20211  27.116  25.915   8.671
 1424POPC   D2A20212  26.782  25.923   8.319
 1424POPC   C3A20213  26.918  25.965   7.901
 1424POPC   C4A20214  27.100  26.314   7.742
 1424POPC   C1B20215  26.646  26.132   8.766
 1424POPC   C2B20216  26.497  26.377   8.390
 1424POPC   C3B20217  26.646  26.388   8.027
 1424POPC   C4B20218  26.490  26.181   7.717
 1425POPC   NC320219  14.134  38.123   9.511
 1425POPC   PO420220  14.563  38.622   9.727
 1425POPC   GL120221  14.645  38.486   9.296
 1425POPC   GL220222  14.332  38.535   9.136
 1425POPC   C1A20223  14.784  38.611   8.874
 1425POPC   D2A20224  14.543  38.663   8.510
 1425POPC   C3A20225  14.733  38.579   8.120
 1425POPC   C4A20226  14.460  38.535   7.758
 1425POPC   C1B20227  14.131  38.872   8.876
 1425POPC   C2B20228  14.108  38.994   8.449
 1425POPC   C3B20229  14.135  38.652   8.180
 1425POPC   C4B20230  13.954  38.571   7.818
 1426POPC   NC320231  22.225  40.425   9.474
 1426POPC   PO420232  22.398  41.033   9.621
 1426POPC   GL120233  22.173  40.996   9.210
 1426POPC   GL220234  22.244  40.672   9.031
 1426POPC   C1A20235  22.067  41.088   8.767
 1426POPC   D2A20236  21.871  40.900   8.398
 1426POPC   C3A20237  22.038  41.039   7.995
 1426POPC   C4A20238  22.336  41.182   7.699
 1426POPC   C1B20239  22.488  40.616   8.651
 1426POPC   C2B20240  22.454  40.823   8.246
 1426POPC   C3B20241  22.453  40.703   7.838
 1426POPC   C4B20242  22.486  40.264   7.761
 1427POPC   NC320243  10.459   1.302   9.765
 1427POPC   PO420244  10.857   0.888   9.436
 1427POPC   GL120245  10.558   1.123   9.205
 1427POPC   GL220246  10.429   0.842   8.973
 1427POPC   C1A20247  10.507   1.340   8.808
 1427POPC   D2A20248  10.625   1.290   8.379
 1427POPC   C3A20249  10.426   1.376   7.960
 1427POPC   C4A20250  10.495   1.107   7.574
 1427POPC   C1B20251  10.824   0.929   8.774
 1427POPC   C2B20252  10.949   0.861   8.367
 1427POPC   C3B20253  10.811   1.016   8.001
 1427POPC   C4B20254  10.605   0.704   7.838
 1428POPC   NC320255  30.323   1.859   9.543
 1428POPC   PO420256  29.663   1.803   9.414
 1428POPC   GL120257  29.964   1.842   9.108
 1428POPC   GL220258  30.142   2.156   9.180
 1428POPC   C1A20259  29.771   1.786   8.718
 1428POPC   D2A20260  29.769   1.525   8.360
 1428POPC   C3A20261  30.009   1.711   8.052
 1428POPC   C4A20262  29.809   2.003   7.793
 1428POPC   C1B20263  30.244   2.198   8.776
 1428POPC   C2B20264  30.010   2.110   8.399
 1428POPC   C3B20265  30.209   2.233   8.047
 1428POPC   C4B20266  30.175   2.381   7.667
 1429POPC   NC320267  30.781   7.713   9.470
 1429POPC   PO420268  30.918   7.034   9.452
 1429POPC   GL120269  30.628   7.226   9.154
 1429POPC   GL220270  30.864   7.454   9.065
 1429POPC   C1A20271  30.504   7.421   8.742
 1429POPC   D2A20272  30.409   7.415   8.339
 1429POPC   C3A20273  30.666   7.197   8.103
 1429POPC   C4A20274  30.516   7.314   7.739
 1429POPC   C1B20275  31.103   7.656   8.777
 1429POPC   C2B20276  30.958   7.538   8.409
 1429POPC   C3B20277  31.094   7.559   8.030
 1429POPC   C4B20278  31.014   7.306   7.727
 1430POPC   NC320279  10.041  19.619   9.446
 1430POPC   PO420280  10.538  19.845   9.676
 1430POPC   GL120281  10.622  20.000   9.234
 1430POPC   GL220282  10.362  19.833   9.065
 1430POPC   C1A20283  10.782  19.871   8.769
 1430POPC   D2A20284  10.525  19.911   8.383
 1430POPC   C3A20285  10.666  19.771   7.971
 1430POPC   C4A20286  11.030  19.980   7.762
 1430POPC   C1B20287  10.111  19.776   8.676
 1430POPC   C2B20288  10.142  19.605   8.228
 1430POPC   C3B20289  10.146  19.365   7.833
 1430POPC   C4B20290  10.340  19.403   7.404
 1431POPC   NC320291  17.206  43.662   9.525
 1431POPC   PO420292  17.248  44.328   9.573
 1431POPC   GL120293  17.272  44.133   9.190
 1431POPC   GL220294  17.643  44.201   9.173
 1431POPC   C1A20295  17.445  43.773   8.925
 1431POPC   D2A20296  17.368  43.494   8.576
 1431POPC   C3A20297  17.676  43.564   8.255
 1431POPC   C4A20298  17.516  43.726   7.884
 1431POPC   C1B20299  17.509  44.248   8.763
 1431POPC   C2B20300  17.616  44.055   8.416
 1431POPC   C3B20301  17.631  44.218   8.034
 1431POPC   C4B20302  17.718  44.088   7.606
 1432POPC   NC320303  22.148  35.733   9.878
 1432POPC   PO420304  22.529  36.107   9.444
 1432POPC   GL120305  22.234  36.194   9.093
 1432POPC   GL220306  21.904  36.295   9.162
 1432POPC   C1A20307  22.225  36.077   8.664
 1432POPC   D2A20308  22.453  36.175   8.283
 1432POPC   C3A20309  22.136  36.158   7.947
 1432POPC   C4A20310  21.849  35.826   7.808
 1432POPC   C1B20311  21.808  36.445   8.770
 1432POPC   C2B20312  21.858  36.316   8.355
 1432POPC   C3B20313  21.789  36.573   7.967
 1432POPC   C4B20314  21.826  36.366   7.570
 1433POPC   NC320315  22.755  11.479   9.496
 1433POPC   PO420316  23.259  10.893   9.479
 1433POPC   GL120317  22.986  11.049   9.162
 1433POPC   GL220318  22.636  11.064   9.193
 1433POPC   C1A20319  22.901  11.114   8.729
 1433POPC   D2A20320  23.065  11.307   8.377
 1433POPC   C3A20321  22.834  11.566   8.109
 1433POPC   C4A20322  22.848  11.357   7.720
 1433POPC   C1B20323  22.509  11.403   8.890
 1433POPC   C2B20324  22.379  11.367   8.488
 1433POPC   C3B20325  22.506  11.172   8.142
 1433POPC   C4B20326  22.375  11.206   7.749
 1434POPC   NC320327   9.121   7.662   9.420
 1434POPC   PO420328   9.015   6.968   9.431
 1434POPC   GL120329   8.879   7.274   9.132
 1434POPC   GL220330   9.171   7.457   8.967
 1434POPC   C1A20331   8.823   7.218   8.688
 1434POPC   D2A20332   8.908   7.383   8.290
 1434POPC   C3A20333   9.102   7.178   7.937
 1434POPC   C4A20334   9.222   7.315   7.511
 1434POPC   C1B20335   8.990   7.751   8.681
 1434POPC   C2B20336   8.856   7.885   8.263
 1434POPC   C3B20337   9.072   7.695   7.902
 1434POPC   C4B20338   9.351   7.826   7.588
 1435POPC   NC320339  27.692  14.037   9.754
 1435POPC   PO420340  27.429  14.597   9.419
 1435POPC   GL120341  27.454  14.584   9.029
 1435POPC   GL220342  27.290  14.325   8.897
 1435POPC   C1A20343  27.749  14.470   8.735
 1435POPC   D2A20344  27.748  14.700   8.400
 1435POPC   C3A20345  27.819  14.441   8.082
 1435POPC   C4A20346  28.120  14.582   7.858
 1435POPC   C1B20347  27.128  14.538   8.592
 1435POPC   C2B20348  27.306  14.512   8.189
 1435POPC   C3B20349  27.384  14.271   7.830
 1435POPC   C4B20350  27.415  14.177   7.365
 1436POPC   NC320351  31.633  18.043   9.306
 1436POPC   PO420352  31.316  17.378   9.562
 1436POPC   GL120353  31.316  17.579   9.210
 1436POPC   GL220354  31.635  17.592   9.007
 1436POPC   C1A20355  31.204  17.474   8.795
 1436POPC   D2A20356  31.447  17.482   8.400
 1436POPC   C3A20357  31.186  17.320   8.085
 1436POPC   C4A20358  31.126  17.426   7.673
 1436POPC   C1B20359  31.923  17.727   8.668
 1436POPC   C2B20360  31.851  17.802   8.218
 1436POPC   C3B20361  31.615  17.565   7.889
 1436POPC   C4B20362  31.513  17.652   7.423
 1437POPC   NC320363   8.346   8.602   9.329
 1437POPC   PO420364   8.011   9.060   9.486
 1437POPC   GL120365   8.185   9.099   9.075
 1437POPC   GL220366   8.527   9.284   9.067
 1437POPC   C1A20367   8.155   8.788   8.729
 1437POPC   D2A20368   8.289   8.659   8.323
 1437POPC   C3A20369   8.012   8.858   7.997
 1437POPC   C4A20370   8.009   8.775   7.541
 1437POPC   C1B20371   8.426   9.192   8.614
 1437POPC   C2B20372   8.435   9.124   8.164
 1437POPC   C3B20373   8.380   9.086   7.716
 1437POPC   C4B20374   8.312   9.175   7.291
 1438POPC   NC320375  16.152   2.713   9.493
 1438POPC   PO420376  15.529   2.559   9.402
 1438POPC   GL120377  15.862   2.522   9.105
 1438POPC   GL220378  16.010   2.873   9.043
 1438POPC   C1A20379  16.128   2.442   8.773
 1438POPC   D2A20380  16.163   2.727   8.418
 1438POPC   C3A20381  15.909   2.718   8.054
 1438POPC   C4A20382  16.063   2.583   7.666
 1438POPC   C1B20383  15.758   2.861   8.704
 1438POPC   C2B20384  15.836   3.132   8.384
 1438POPC   C3B20385  16.155   3.152   8.094
 1438POPC   C4B20386  16.005   3.208   7.708
 1439POPC   NC320387  43.673   4.744   9.568
 1439POPC   PO420388  44.038   4.116   9.437
 1439POPC   GL120389  43.970   4.409   9.117
 1439POPC   GL220390  43.609   4.454   9.155
 1439POPC   C1A20391  44.115   4.379   8.689
 1439POPC   D2A20392  43.943   4.144   8.346
 1439POPC   C3A20393  44.011   4.272   7.926
 1439POPC   C4A20394  43.853   4.066   7.526
 1439POPC   C1B20395  43.594   4.294   8.750
 1439POPC   C2B20396  43.597   4.516   8.363
 1439POPC   C3B20397  43.510   4.410   7.954
 1439POPC   C4B20398  43.728   4.549   7.625
 1440POPC   NC320399  15.486  26.855   9.409
 1440POPC   PO420400  14.807  26.806   9.291
 1440POPC   GL120401  15.153  26.758   9.013
 1440POPC   GL220402  15.450  27.008   8.919
 1440POPC   C1A20403  15.126  26.795   8.578
 1440POPC   D2A20404  15.436  26.905   8.311
 1440POPC   C3A20405  15.222  27.096   7.988
 1440POPC   C4A20406  14.854  26.965   7.807
 1440POPC   C1B20407  15.546  26.565   8.748
 1440POPC   C2B20408  15.448  26.376   8.351
 1440POPC   C3B20409  15.628  26.548   7.982
 1440POPC   C4B20410  15.419  26.745   7.653
 1441POPC   NC320411  44.735   8.795   9.373
 1441POPC   PO420412  44.647   8.135   9.531
 1441POPC   GL120413  44.541   8.117   9.127
 1441POPC   GL220414  44.376   8.445   9.134
 1441POPC   C1A20415  44.781   8.170   8.759
 1441POPC   D2A20416  44.843   8.437   8.413
 1441POPC   C3A20417  44.835   8.190   8.017
 1441POPC   C4A20418  44.472   7.950   7.826
 1441POPC   C1B20419  44.275   8.291   8.710
 1441POPC   C2B20420  44.371   8.235   8.272
 1441POPC   C3B20421  44.430   8.462   7.896
 1441POPC   C4B20422  44.363   8.725   7.563
 1442POPC   NC320423  10.837  28.708   9.992
 1442POPC   PO420424  10.610  29.257   9.553
 1442POPC   GL120425  10.557  29.179   9.141
 1442POPC   GL220426  10.449  28.865   9.230
 1442POPC   C1A20427  10.690  29.278   8.710
 1442POPC   D2A20428  10.731  29.199   8.291
 1442POPC   C3A20429  10.430  29.158   7.962
 1442POPC   C4A20430  10.439  29.122   7.511
 1442POPC   C1B20431  10.541  28.783   8.815
 1442POPC   C2B20432  10.694  28.705   8.422
 1442POPC   C3B20433  10.801  28.778   8.009
 1442POPC   C4B20434  10.439  28.677   7.767
 1443POPC   NC320435  35.871  24.033   9.601
 1443POPC   PO420436  35.772  24.694   9.443
 1443POPC   GL120437  35.618  24.591   9.059
 1443POPC   GL220438  35.311  24.417   9.086
 1443POPC   C1A20439  35.394  24.686   8.664
 1443POPC   D2A20440  35.496  24.435   8.294
 1443POPC   C3A20441  35.463  24.663   7.905
 1443POPC   C4A20442  35.073  24.722   7.768
 1443POPC   C1B20443  35.203  24.208   8.678
 1443POPC   C2B20444  35.184  23.956   8.282
 1443POPC   C3B20445  35.484  23.985   7.932
 1443POPC   C4B20446  35.605  24.184   7.526
 1444POPC   NC320447   4.552  12.485   9.411
 1444POPC   PO420448   5.154  12.878   9.521
 1444POPC   GL120449   4.866  12.864   9.231
 1444POPC   GL220450   4.967  12.548   9.116
 1444POPC   C1A20451   4.789  12.895   8.806
 1444POPC   D2A20452   4.936  12.751   8.417
 1444POPC   C3A20453   5.004  13.050   8.082
 1444POPC   C4A20454   4.881  12.911   7.670
 1444POPC   C1B20455   5.168  12.389   8.721
 1444POPC   C2B20456   5.404  12.548   8.341
 1444POPC   C3B20457   5.266  12.566   7.891
 1444POPC   C4B20458   5.565  12.658   7.604
 1445POPC   NC320459  40.326  41.229   9.720
 1445POPC   PO420460  39.901  40.798   9.492
 1445POPC   GL120461  39.838  40.689   9.111
 1445POPC   GL220462  39.587  40.472   9.103
 1445POPC   C1A20463  40.033  40.695   8.708
 1445POPC   D2A20464  40.198  40.637   8.305
 1445POPC   C3A20465  40.118  40.840   7.953
 1445POPC   C4A20466  39.995  40.685   7.573
 1445POPC   C1B20467  39.772  40.255   8.768
 1445POPC   C2B20468  39.966  40.200   8.377
 1445POPC   C3B20469  39.873  40.371   7.977
 1445POPC   C4B20470  39.554  40.411   7.651
 1446POPC   NC320471   3.047  16.864   9.552
 1446POPC   PO420472   2.503  16.576   9.355
 1446POPC   GL120473   2.742  16.811   9.105
 1446POPC   GL220474   3.006  16.545   9.143
 1446POPC   C1A20475   2.556  16.873   8.695
 1446POPC   D2A20476   2.617  16.640   8.302
 1446POPC   C3A20477   2.534  16.852   7.892
 1446POPC   C4A20478   2.529  16.587   7.520
 1446POPC   C1B20479   2.906  16.490   8.718
 1446POPC   C2B20480   3.075  16.400   8.323
 1446POPC   C3B20481   2.938  16.509   7.900
 1446POPC   C4B20482   2.994  16.912   7.662
 1447POPC   NC320483  28.788  30.943   9.268
 1447POPC   PO420484  29.172  31.439   9.567
 1447POPC   GL120485  29.030  31.383   9.149
 1447POPC   GL220486  28.934  31.687   9.047
 1447POPC   C1A20487  29.108  31.233   8.712
 1447POPC   D2A20488  29.040  31.438   8.322
 1447POPC   C3A20489  29.012  31.195   7.931
 1447POPC   C4A20490  28.864  31.341   7.567
 1447POPC   C1B20491  29.330  31.683   8.837
 1447POPC   C2B20492  29.461  31.735   8.418
 1447POPC   C3B20493  29.471  31.447   8.060
 1447POPC   C4B20494  29.233  31.648   7.732
 1448POPC   NC320495  38.665  31.516   9.615
 1448POPC   PO420496  38.224  31.629   9.082
 1448POPC   GL120497  38.609  31.390   9.132
 1448POPC   GL220498  38.872  31.643   9.147
 1448POPC   C1A20499  38.825  31.152   8.861
 1448POPC   D2A20500  38.761  31.338   8.462
 1448POPC   C3A20501  38.658  31.116   8.092
 1448POPC   C4A20502  38.559  31.370   7.754
 1448POPC   C1B20503  38.764  31.912   8.804
 1448POPC   C2B20504  38.550  31.924   8.393
 1448POPC   C3B20505  38.352  31.797   8.002
 1448POPC   C4B20506  38.155  31.953   7.612
 1449POPC   NC320507  38.214  30.573   9.612
 1449POPC   PO420508  38.595  31.095   9.815
 1449POPC   GL120509  38.489  30.925   9.348
 1449POPC   GL220510  38.399  30.573   9.147
 1449POPC   C1A20511  38.316  30.999   8.930
 1449POPC   D2A20512  38.463  30.901   8.546
 1449POPC   C3A20513  38.205  30.813   8.240
 1449POPC   C4A20514  38.370  30.723   7.865
 1449POPC   C1B20515  38.298  30.393   8.715
 1449POPC   C2B20516  38.380  30.290   8.283
 1449POPC   C3B20517  38.547  30.248   7.883
 1449POPC   C4B20518  38.577  30.434   7.481
 1450POPC   NC320519  29.526  23.785   9.328
 1450POPC   PO420520  29.914  23.335   9.683
 1450POPC   GL120521  29.953  23.532   9.205
 1450POPC   GL220522  30.013  23.908   9.230
 1450POPC   C1A20523  29.783  23.559   8.744
 1450POPC   D2A20524  29.789  23.903   8.409
 1450POPC   C3A20525  29.624  23.817   7.999
 1450POPC   C4A20526  29.789  23.430   7.852
 1450POPC   C1B20527  30.179  23.879   8.809
 1450POPC   C2B20528  30.251  23.505   8.531
 1450POPC   C3B20529  30.267  23.469   8.082
 1450POPC   C4B20530  30.127  23.855   7.867
 1451POPC   NC320531  21.796  42.013   9.236
 1451POPC   PO420532  21.905  42.630   9.565
 1451POPC   GL120533  22.121  42.458   9.170
 1451POPC   GL220534  22.420  42.673   9.113
 1451POPC   C1A20535  22.114  42.215   8.739
 1451POPC   D2A20536  22.222  41.867   8.461
 1451POPC   C3A20537  22.036  41.952   8.086
 1451POPC   C4A20538  21.926  42.218   7.752
 1451POPC   C1B20539  22.282  42.684   8.662
 1451POPC   C2B20540  22.182  42.399   8.270
 1451POPC   C3B20541  22.372  42.389   7.903
 1451POPC   C4B20542  22.321  42.754   7.746
 1452POPC   NC320543  37.525  44.663   9.619
 1452POPC   PO420544  38.038  44.301   9.538
 1452POPC   GL120545  37.741  44.361   9.153
 1452POPC   GL220546  37.391  44.530   9.115
 1452POPC   C1A20547  37.776  44.357   8.688
 1452POPC   D2A20548  37.805  44.667   8.331
 1452POPC   C3A20549  37.454  44.677   8.059
 1452POPC   C4A20550  37.453  44.659   7.627
 1452POPC   C1B20551  37.440  44.750   8.688
 1452POPC   C2B20552  37.476   0.100   8.323
 1452POPC   C3B20553  37.522   0.330   7.878
 1452POPC   C4B20554  37.461   0.310   7.375
 1453POPC   NC320555  40.474   4.589   9.535
 1453POPC   PO420556  40.651   3.901   9.599
 1453POPC   GL120557  40.728   4.007   9.156
 1453POPC   GL220558  40.658   4.372   9.120
 1453POPC   C1A20559  40.851   4.112   8.726
 1453POPC   D2A20560  40.822   3.957   8.319
 1453POPC   C3A20561  41.008   4.202   7.988
 1453POPC   C4A20562  40.685   4.169   7.708
 1453POPC   C1B20563  40.856   4.617   8.807
 1453POPC   C2B20564  40.799   4.493   8.396
 1453POPC   C3B20565  40.758   4.626   8.013
 1453POPC   C4B20566  40.813   4.636   7.589
 1454POPC   NC320567  19.159   1.528   9.469
 1454POPC   PO420568  18.601   1.142   9.713
 1454POPC   GL120569  18.772   1.123   9.256
 1454POPC   GL220570  18.833   1.403   9.091
 1454POPC   C1A20571  18.861   1.040   8.772
 1454POPC   D2A20572  19.020   1.216   8.380
 1454POPC   C3A20573  18.832   0.963   8.086
 1454POPC   C4A20574  18.999   0.810   7.713
 1454POPC   C1B20575  19.221   1.433   8.801
 1454POPC   C2B20576  19.550   1.573   8.467
 1454POPC   C3B20577  19.550   1.377   8.060
 1454POPC   C4B20578  19.136   1.323   7.859
 1455POPC   NC320579  31.402   7.029   9.518
 1455POPC   PO420580  31.271   7.742   9.432
 1455POPC   GL120581  31.341   7.379   9.159
 1455POPC   GL220582  31.635   7.306   9.123
 1455POPC   C1A20583  31.377   7.220   8.719
 1455POPC   D2A20584  31.471   7.435   8.351
 1455POPC   C3A20585  31.463   7.220   7.937
 1455POPC   C4A20586  31.504   7.551   7.671
 1455POPC   C1B20587  31.663   7.643   8.804
 1455POPC   C2B20588  31.970   7.524   8.507
 1455POPC   C3B20589  31.917   7.304   8.137
 1455POPC   C4B20590  32.013   7.381   7.723
 1456POPC   NC320591  20.348  19.238   9.647
 1456POPC   PO420592  20.705  19.789   9.380
 1456POPC   GL120593  20.623  19.899   9.015
 1456POPC   GL220594  20.295  19.771   9.031
 1456POPC   C1A20595  20.857  20.035   8.675
 1456POPC   D2A20596  20.847  20.220   8.305
 1456POPC   C3A20597  20.731  19.883   8.065
 1456POPC   C4A20598  20.563  19.930   7.683
 1456POPC   C1B20599  20.413  19.662   8.604
 1456POPC   C2B20600  20.143  19.578   8.246
 1456POPC   C3B20601  20.215  19.565   7.800
 1456POPC   C4B20602  20.450  19.536   7.398
 1457POPC   NC320603  13.028  39.328   9.407
 1457POPC   PO420604  12.988  38.663   9.293
 1457POPC   GL120605  12.901  38.998   9.015
 1457POPC   GL220606  12.625  39.237   9.078
 1457POPC   C1A20607  12.981  39.278   8.680
 1457POPC   D2A20608  12.749  39.229   8.312
 1457POPC   C3A20609  12.993  39.206   7.982
 1457POPC   C4A20610  13.016  38.916   7.637
 1457POPC   C1B20611  12.535  39.523   8.732
 1457POPC   C2B20612  12.577  39.705   8.310
 1457POPC   C3B20613  12.529  39.504   7.898
 1457POPC   C4B20614  12.788  39.356   7.543
 1458POPC   NC320615   2.925  29.590   9.623
 1458POPC   PO420616   2.588  30.185   9.373
 1458POPC   GL120617   2.685  29.822   9.156
 1458POPC   GL220618   3.025  29.769   9.156
 1458POPC   C1A20619   2.596  29.762   8.718
 1458POPC   D2A20620   2.799  29.930   8.364
 1458POPC   C3A20621   2.547  29.979   8.013
 1458POPC   C4A20622   2.370  29.668   7.745
 1458POPC   C1B20623   3.121  29.708   8.745
 1458POPC   C2B20624   3.273  29.736   8.336
 1458POPC   C3B20625   3.108  29.848   7.957
 1458POPC   C4B20626   2.848  29.848   7.618
 1459POPC   NC320627   6.858  23.008   9.512
 1459POPC   PO420628   6.319  22.639   9.481
 1459POPC   GL120629   6.356  22.963   9.139
 1459POPC   GL220630   6.653  22.957   9.058
 1459POPC   C1A20631   6.359  23.174   8.716
 1459POPC   D2A20632   6.378  22.856   8.382
 1459POPC   C3A20633   6.536  22.945   7.989
 1459POPC   C4A20634   6.351  22.947   7.624
 1459POPC   C1B20635   6.806  22.902   8.667
 1459POPC   C2B20636   6.872  23.144   8.311
 1459POPC   C3B20637   7.011  23.157   7.878
 1459POPC   C4B20638   6.866  22.953   7.513
 1460POPC   NC320639  12.782   0.153   9.699
 1460POPC   PO420640  13.133   0.771   9.512
 1460POPC   GL120641  13.152   0.449   9.219
 1460POPC   GL220642  12.801   0.425   9.212
 1460POPC   C1A20643  13.087   0.501   8.774
 1460POPC   D2A20644  12.920   0.437   8.367
 1460POPC   C3A20645  13.213   0.583   8.039
 1460POPC   C4A20646  13.137   0.688   7.602
 1460POPC   C1B20647  12.580   0.414   8.806
 1460POPC   C2B20648  12.448   0.169   8.463
 1460POPC   C3B20649  12.602   0.061   8.070
 1460POPC   C4B20650  12.496   0.316   7.720
 1461POPC   NC320651  34.083  44.227   9.524
 1461POPC   PO420652  33.575  43.822   9.566
 1461POPC   GL120653  33.692  44.080   9.219
 1461POPC   GL220654  33.628  43.791   9.032
 1461POPC   C1A20655  33.929  44.179   8.831
 1461POPC   D2A20656  34.071  44.089   8.409
 1461POPC   C3A20657  33.920  44.147   7.976
 1461POPC   C4A20658  33.502  44.103   7.812
 1461POPC   C1B20659  33.870  43.671   8.689
 1461POPC   C2B20660  33.809  43.516   8.288
 1461POPC   C3B20661  33.768  43.671   7.870
 1461POPC   C4B20662  33.785  43.870   7.429
 1462POPC   NC320663   4.711  44.870   9.516
 1462POPC   PO420664   5.185  44.507   9.517
 1462POPC   GL120665   5.162  44.793   9.200
 1462POPC   GL220666   4.862  44.631   9.054
 1462POPC   C1A20667   5.281  44.777   8.772
 1462POPC   D2A20668   5.076  44.738   8.416
 1462POPC   C3A20669   5.290  44.667   8.048
 1462POPC   C4A20670   5.258  44.724   7.630
 1462POPC   C1B20671   4.843   0.029   8.816
 1462POPC   C2B20672   4.801   0.154   8.366
 1462POPC   C3B20673   4.875  44.948   7.989
 1462POPC   C4B20674   4.807  44.994   7.591
 1463POPC   NC320675   3.047  12.195   9.552
 1463POPC   PO420676   2.440  12.530   9.547
 1463POPC   GL120677   2.491  12.237   9.172
 1463POPC   GL220678   2.746  11.989   9.204
 1463POPC   C1A20679   2.480  11.946   8.783
 1463POPC   D2A20680   2.583  11.734   8.390
 1463POPC   C3A20681   2.632  11.994   8.034
 1463POPC   C4A20682   2.892  11.963   7.678
 1463POPC   C1B20683   2.966  12.094   8.791
 1463POPC   C2B20684   3.058  11.992   8.351
 1463POPC   C3B20685   3.077  12.300   8.014
 1463POPC   C4B20686   3.226  12.339   7.618
 1464POPC   NC320687  38.129   2.031   9.574
 1464POPC   PO420688  38.677   2.353   9.382
 1464POPC   GL120689  38.471   2.099   9.063
 1464POPC   GL220690  38.242   1.787   9.129
 1464POPC   C1A20691  38.594   2.164   8.634
 1464POPC   D2A20692  38.589   1.969   8.263
 1464POPC   C3A20693  38.809   2.124   7.881
 1464POPC   C4A20694  38.740   2.073   7.421
 1464POPC   C1B20695  38.378   1.691   8.687
 1464POPC   C2B20696  38.112   1.706   8.347
 1464POPC   C3B20697  38.152   1.832   7.914
 1464POPC   C4B20698  38.112   1.779   7.435
 1465POPC   NC320699  30.952  24.082   9.498
 1465POPC   PO420700  30.514  24.565   9.623
 1465POPC   GL120701  30.621  24.505   9.194
 1465POPC   GL220702  30.885  24.748   9.109
 1465POPC   C1A20703  30.685  24.226   8.800
 1465POPC   D2A20704  30.967  24.188   8.374
 1465POPC   C3A20705  30.815  24.226   7.912
 1465POPC   C4A20706  30.370  24.297   7.725
 1465POPC   C1B20707  30.885  24.664   8.670
 1465POPC   C2B20708  30.584  24.518   8.353
 1465POPC   C3B20709  30.648  24.680   7.959
 1465POPC   C4B20710  31.019  24.783   7.761
 1466POPC   NC320711  41.330   3.747   9.446
 1466POPC   PO420712  41.695   3.153   9.540
 1466POPC   GL120713  41.625   3.423   9.183
 1466POPC   GL220714  41.293   3.451   9.022
 1466POPC   C1A20715  41.716   3.642   8.795
 1466POPC   D2A20716  41.479   3.519   8.442
 1466POPC   C3A20717  41.723   3.653   8.118
 1466POPC   C4A20718  41.618   3.615   7.711
 1466POPC   C1B20719  41.290   3.887   8.801
 1466POPC   C2B20720  41.326   4.006   8.368
 1466POPC   C3B20721  41.237   3.767   8.015
 1466POPC   C4B20722  41.190   3.878   7.579
 1467POPC   NC320723  35.782  22.239   9.572
 1467POPC   PO420724  36.358  21.957   9.795
 1467POPC   GL120725  36.277  22.132   9.301
 1467POPC   GL220726  35.979  22.226   9.135
 1467POPC   C1A20727  36.341  22.129   8.826
 1467POPC   D2A20728  36.267  21.955   8.410
 1467POPC   C3A20729  36.124  22.193   8.067
 1467POPC   C4A20730  36.161  22.013   7.693
 1467POPC   C1B20731  35.824  22.481   8.851
 1467POPC   C2B20732  35.845  22.506   8.436
 1467POPC   C3B20733  35.676  22.489   8.076
 1467POPC   C4B20734  35.852  22.508   7.673
 1468POPC   NC320735   6.812  30.045   9.581
 1468POPC   PO420736   6.312  29.754   9.235
 1468POPC   GL120737   6.698  29.877   9.090
 1468POPC   GL220738   6.638  30.232   9.154
 1468POPC   C1A20739   6.925  29.927   8.687
 1468POPC   D2A20740   6.998  29.778   8.266
 1468POPC   C3A20741   6.665  29.782   7.929
 1468POPC   C4A20742   6.800  29.810   7.487
 1468POPC   C1B20743   6.524  30.231   8.763
 1468POPC   C2B20744   6.455  29.949   8.429
 1468POPC   C3B20745   6.379  30.178   8.073
 1468POPC   C4B20746   6.511  30.200   7.647
 1469POPC   NC320747  25.195  13.133   9.678
 1469POPC   PO420748  25.551  13.651   9.403
 1469POPC   GL120749  25.213  13.614   9.162
 1469POPC   GL220750  25.015  13.304   9.209
 1469POPC   C1A20751  25.270  13.798   8.750
 1469POPC   D2A20752  25.140  13.850   8.344
 1469POPC   C3A20753  25.439  13.650   8.098
 1469POPC   C4A20754  25.351  13.449   7.724
 1469POPC   C1B20755  24.852  13.512   8.814
 1469POPC   C2B20756  24.696  13.437   8.425
 1469POPC   C3B20757  24.882  13.491   8.006
 1469POPC   C4B20758  25.088  13.877   7.827
 1470POPC   NC320759  10.217  44.863   9.732
 1470POPC   PO420760  10.566  44.305   9.691
 1470POPC   GL120761  10.507  44.647   9.348
 1470POPC   GL220762  10.178  44.782   9.237
 1470POPC   C1A20763  10.731  44.668   8.949
 1470POPC   D2A20764  10.749  44.399   8.570
 1470POPC   C3A20765  10.558  44.332   8.160
 1470POPC   C4A20766  10.764  44.381   7.731
 1470POPC   C1B20767  10.284  44.856   8.831
 1470POPC   C2B20768  10.548  44.894   8.462
 1470POPC   C3B20769  10.434  44.795   8.025
 1470POPC   C4B20770  10.218   0.032   7.749
 1471POPC   NC320771  28.311  15.506   9.596
 1471POPC   PO420772  28.693  15.023   9.497
 1471POPC   GL120773  28.479  15.230   9.151
 1471POPC   GL220774  28.676  15.552   9.192
 1471POPC   C1A20775  28.208  15.060   8.763
 1471POPC   D2A20776  28.226  14.867   8.298
 1471POPC   C3A20777  28.459  14.954   7.916
 1471POPC   C4A20778  28.334  15.326   7.791
 1471POPC   C1B20779  28.485  15.598   8.778
 1471POPC   C2B20780  28.467  15.329   8.425
 1471POPC   C3B20781  28.735  15.321   8.144
 1471POPC   C4B20782  28.700  15.663   7.949
 1472POPC   NC320783   6.249   9.284   9.342
 1472POPC   PO420784   5.939   8.817   9.777
 1472POPC   GL120785   5.930   8.901   9.320
 1472POPC   GL220786   6.234   8.800   9.115
 1472POPC   C1A20787   5.820   8.977   8.865
 1472POPC   D2A20788   5.929   8.710   8.490
 1472POPC   C3A20789   5.905   8.902   8.068
 1472POPC   C4A20790   5.598   9.179   7.846
 1472POPC   C1B20791   6.336   9.062   8.723
 1472POPC   C2B20792   6.271   9.230   8.305
 1472POPC   C3B20793   6.151   9.311   7.877
 1472POPC   C4B20794   6.296   9.195   7.476
 1473POPC   NC320795  16.451  43.150   9.584
 1473POPC   PO420796  16.961  42.665   9.817
 1473POPC   GL120797  16.894  42.792   9.328
 1473POPC   GL220798  16.845  43.160   9.252
 1473POPC   C1A20799  16.813  42.815   8.829
 1473POPC   D2A20800  16.722  42.730   8.343
 1473POPC   C3A20801  16.993  42.866   7.994
 1473POPC   C4A20802  16.897  43.002   7.572
 1473POPC   C1B20803  16.752  43.356   8.843
 1473POPC   C2B20804  16.895  43.224   8.428
 1473POPC   C3B20805  16.761  43.330   8.007
 1473POPC   C4B20806  16.738  43.503   7.589
 1474POPC   NC320807  36.386  13.968   9.523
 1474POPC   PO420808  35.827  14.490   9.498
 1474POPC   GL120809  36.068  14.555   9.091
 1474POPC   GL220810  36.315  14.232   8.975
 1474POPC   C1A20811  35.986  14.462   8.685
 1474POPC   D2A20812  35.791  14.459   8.360
 1474POPC   C3A20813  36.033  14.350   8.084
 1474POPC   C4A20814  36.152  14.385   7.695
 1474POPC   C1B20815  36.471  14.599   8.759
 1474POPC   C2B20816  36.313  14.718   8.357
 1474POPC   C3B20817  36.393  14.768   7.943
 1474POPC   C4B20818  36.549  14.616   7.523
 1475POPC   NC320819  44.870  44.151   9.557
 1475POPC   PO420820  44.601  44.787   9.521
 1475POPC   GL120821  44.612  44.690   9.108
 1475POPC   GL220822  44.711  44.320   9.093
 1475POPC   C1A20823  44.570  44.765   8.650
 1475POPC   D2A20824  44.434  44.427   8.355
 1475POPC   C3A20825  44.647  44.463   7.968
 1475POPC   C4A20826  44.888  44.836   7.857
 1475POPC   C1B20827   0.000  44.561   8.814
 1475POPC   C2B20828   0.004  44.647   8.356
 1475POPC   C3B20829   0.166  44.422   7.979
 1475POPC   C4B20830   0.051  44.417   7.498
 1476POPC   NC320831  17.895  31.681   9.521
 1476POPC   PO420832  17.301  31.315   9.695
 1476POPC   GL120833  17.577  31.323   9.314
 1476POPC   GL220834  17.346  31.488   9.059
 1476POPC   C1A20835  17.817  31.318   8.919
 1476POPC   D2A20836  17.605  31.261   8.536
 1476POPC   C3A20837  17.750  31.189   8.115
 1476POPC   C4A20838  17.527  31.264   7.713
 1476POPC   C1B20839  17.564  31.739   8.724
 1476POPC   C2B20840  17.558  31.725   8.254
 1476POPC   C3B20841  17.438  31.774   7.814
 1476POPC   C4B20842  17.595  31.941   7.408
 1477POPC   NC320843   6.106  23.062   9.558
 1477POPC   PO420844   5.474  22.852   9.562
 1477POPC   GL120845   5.808  22.816   9.218
 1477POPC   GL220846   5.885  23.175   9.122
 1477POPC   C1A20847   6.013  22.812   8.779
 1477POPC   D2A20848   5.902  22.637   8.376
 1477POPC   C3A20849   5.948  22.810   7.940
 1477POPC   C4A20850   5.584  22.753   7.645
 1477POPC   C1B20851   5.853  23.339   8.719
 1477POPC   C2B20852   5.956  23.157   8.352
 1477POPC   C3B20853   6.126  23.270   7.979
 1477POPC   C4B20854   5.782  23.271   7.701
 1478POPC   NC320855  40.968  38.892   9.438
 1478POPC   PO420856  40.642  39.466   9.463
 1478POPC   GL120857  40.666  39.179   9.139
 1478POPC   GL220858  40.381  38.973   9.227
 1478POPC   C1A20859  40.858  39.221   8.704
 1478POPC   D2A20860  40.829  39.250   8.254
 1478POPC   C3A20861  41.078  39.302   7.944
 1478POPC   C4A20862  40.651  39.326   7.745
 1478POPC   C1B20863  40.464  38.897   8.791
 1478POPC   C2B20864  40.595  38.832   8.398
 1478POPC   C3B20865  40.405  38.999   8.058
 1478POPC   C4B20866  40.448  38.817   7.675
 1479POPC   NC320867   9.579  35.842   9.422
 1479POPC   PO420868   9.856  36.324   9.833
 1479POPC   GL120869   9.857  36.271   9.311
 1479POPC   GL220870   9.520  36.249   9.101
 1479POPC   C1A20871   9.923  36.071   8.858
 1479POPC   D2A20872   9.718  36.203   8.489
 1479POPC   C3A20873   9.746  36.062   8.082
 1479POPC   C4A20874   9.917  36.166   7.719
 1479POPC   C1B20875   9.283  36.043   8.715
 1479POPC   C2B20876   9.253  35.962   8.240
 1479POPC   C3B20877   9.341  35.946   7.770
 1479POPC   C4B20878   9.296  35.917   7.300
 1480POPC   NC320879  22.295   6.713   9.597
 1480POPC   PO420880  21.890   7.265   9.610
 1480POPC   GL120881  22.061   6.934   9.213
 1480POPC   GL220882  22.192   6.536   9.150
 1480POPC   C1A20883  21.968   6.775   8.774
 1480POPC   D2A20884  21.936   6.995   8.400
 1480POPC   C3A20885  22.034   6.789   8.010
 1480POPC   C4A20886  22.174   6.629   7.621
 1480POPC   C1B20887  22.241   6.318   8.773
 1480POPC   C2B20888  22.017   6.335   8.397
 1480POPC   C3B20889  22.052   6.254   7.980
 1480POPC   C4B20890  22.422   6.140   7.765
 1481POPC   NC320891   5.076   8.007   9.466
 1481POPC   PO420892   4.455   8.033   9.526
 1481POPC   GL120893   4.435   7.932   9.111
 1481POPC   GL220894   4.216   8.189   9.013
 1481POPC   C1A20895   4.516   7.966   8.660
 1481POPC   D2A20896   4.247   8.186   8.354
 1481POPC   C3A20897   4.178   8.130   7.915
 1481POPC   C4A20898   4.471   8.028   7.595
 1481POPC   C1B20899   4.427   8.514   8.737
 1481POPC   C2B20900   4.378   8.681   8.284
 1481POPC   C3B20901   4.534   8.499   7.892
 1481POPC   C4B20902   4.480   8.542   7.444
 1482POPC   NC320903  44.464  23.727   9.638
 1482POPC   PO420904   0.092  23.779   9.457
 1482POPC   GL120905  44.765  23.593   9.237
 1482POPC   GL220906  44.989  23.419   9.025
 1482POPC   C1A20907  44.412  23.503   8.976
 1482POPC   D2A20908  44.345  23.491   8.539
 1482POPC   C3A20909  44.551  23.797   8.260
 1482POPC   C4A20910  44.588  23.736   7.816
 1482POPC   C1B20911  44.837  23.777   8.759
 1482POPC   C2B20912   0.054  23.929   8.395
 1482POPC   C3B20913   0.027  23.652   8.050
 1482POPC   C4B20914   0.046  23.792   7.631
 1483POPC   NC320915  14.380  39.873   9.508
 1483POPC   PO420916  14.429  40.452   9.881
 1483POPC   GL120917  14.537  40.303   9.325
 1483POPC   GL220918  14.292  40.133   9.075
 1483POPC   C1A20919  14.763  40.173   8.901
 1483POPC   D2A20920  14.593  40.139   8.466
 1483POPC   C3A20921  14.768  39.981   8.056
 1483POPC   C4A20922  14.624  39.904   7.686
 1483POPC   C1B20923  14.398  39.784   8.815
 1483POPC   C2B20924  14.360  39.650   8.388
 1483POPC   C3B20925  14.217  39.794   7.983
 1483POPC   C4B20926  14.166  39.631   7.573
 1484POPC   NC320927  27.249  26.791   9.313
 1484POPC   PO420928  26.616  26.680   9.567
 1484POPC   GL120929  26.757  26.762   9.172
 1484POPC   GL220930  26.836  27.119   9.278
 1484POPC   C1A20931  26.774  26.645   8.710
 1484POPC   D2A20932  27.049  26.450   8.372
 1484POPC   C3A20933  27.056  26.740   8.017
 1484POPC   C4A20934  26.743  26.771   7.716
 1484POPC   C1B20935  26.744  27.137   8.839
 1484POPC   C2B20936  26.927  27.059   8.437
 1484POPC   C3B20937  26.737  27.143   8.062
 1484POPC   C4B20938  26.821  27.280   7.644
 1485POPC   NC320939  44.227  24.801   9.254
 1485POPC   PO420940  43.718  25.242   9.461
 1485POPC   GL120941  44.004  25.363   9.169
 1485POPC   GL220942  43.766  25.593   9.046
 1485POPC   C1A20943  44.053  25.234   8.777
 1485POPC   D2A20944  43.881  25.204   8.404
 1485POPC   C3A20945  44.105  25.176   8.019
 1485POPC   C4A20946  43.896  25.020   7.659
 1485POPC   C1B20947  43.685  25.647   8.626
 1485POPC   C2B20948  43.487  25.689   8.231
 1485POPC   C3B20949  43.585  25.730   7.811
 1485POPC   C4B20950  43.879  25.513   7.570
 1486POPC   NC320951   7.608  27.912   9.529
 1486POPC   PO420952   7.042  27.477   9.523
 1486POPC   GL120953   7.313  27.633   9.143
 1486POPC   GL220954   7.674  27.736   9.069
 1486POPC   C1A20955   7.424  27.424   8.717
 1486POPC   D2A20956   7.139  27.258   8.381
 1486POPC   C3A20957   7.067  27.495   8.013
 1486POPC   C4A20958   7.228  27.396   7.586
 1486POPC   C1B20959   7.560  27.920   8.692
 1486POPC   C2B20960   7.398  27.781   8.316
 1486POPC   C3B20961   7.541  27.653   7.925
 1486POPC   C4B20962   7.544  27.807   7.557
 1487POPC   NC320963  37.483  14.607   9.591
 1487POPC   PO420964  38.038  14.397   9.405
 1487POPC   GL120965  37.727  14.499   9.070
 1487POPC   GL220966  37.349  14.408   9.142
 1487POPC   C1A20967  37.873  14.388   8.632
 1487POPC   D2A20968  37.793  14.061   8.327
 1487POPC   C3A20969  37.774  14.236   7.935
 1487POPC   C4A20970  37.785  14.559   7.726
 1487POPC   C1B20971  37.385  14.269   8.737
 1487POPC   C2B20972  37.433  14.535   8.397
 1487POPC   C3B20973  37.341  14.479   8.007
 1487POPC   C4B20974  37.272  14.396   7.606
 1488POPC   NC320975  27.641  29.694   9.544
 1488POPC   PO420976  27.386  30.222   9.459
 1488POPC   GL120977  27.437  29.929   9.133
 1488POPC   GL220978  27.763  29.810   9.077
 1488POPC   C1A20979  27.448  30.011   8.692
 1488POPC   D2A20980  27.587  29.832   8.295
 1488POPC   C3A20981  27.272  29.881   7.990
 1488POPC   C4A20982  27.276  29.767   7.582
 1488POPC   C1B20983  27.945  29.732   8.700
 1488POPC   C2B20984  28.018  30.096   8.472
 1488POPC   C3B20985  27.933  30.210   8.073
 1488POPC   C4B20986  27.654  30.111   7.719
 1489POPC   NC320987  30.485  12.296   9.282
 1489POPC   PO420988  31.015  12.022   9.384
 1489POPC   GL120989  30.860  11.784   9.049
 1489POPC   GL220990  30.507  11.781   9.148
 1489POPC   C1A20991  30.913  11.936   8.617
 1489POPC   D2A20992  30.753  12.274   8.370
 1489POPC   C3A20993  30.863  12.207   7.957
 1489POPC   C4A20994  30.557  12.126   7.643
 1489POPC   C1B20995  30.404  11.995   8.730
 1489POPC   C2B20996  30.398  11.839   8.332
 1489POPC   C3B20997  30.710  11.747   8.058
 1489POPC   C4B20998  30.710  11.627   7.636
 1490POPC   NC320999  20.041  20.144   9.481
 1490POPC   PO421000  20.028  19.506   9.400
 1490POPC   GL121001  19.770  19.784   9.104
 1490POPC   GL221002  19.890  20.080   9.008
 1490POPC   C1A21003  19.556  19.879   8.696
 1490POPC   D2A21004  19.667  20.057   8.264
 1490POPC   C3A21005  19.660  19.827   7.861
 1490POPC   C4A21006  19.594  19.933   7.389
 1490POPC   C1B21007  20.062  20.021   8.624
 1490POPC   C2B21008  20.280  20.055   8.241
 1490POPC   C3B21009  20.105  20.077   7.846
 1490POPC   C4B21010  20.090  19.915   7.436
 1491POPC   NC321011  42.017  33.130   9.459
 1491POPC   PO421012  42.711  32.930   9.544
 1491POPC   GL121013  42.637  32.782   9.117
 1491POPC   GL221014  42.280  32.833   9.112
 1491POPC   C1A21015  42.552  32.929   8.682
 1491POPC   D2A21016  42.322  32.922   8.300
 1491POPC   C3A21017  42.545  33.028   7.907
 1491POPC   C4A21018  42.551  32.938   7.443
 1491POPC   C1B21019  42.013  32.911   8.749
 1491POPC   C2B21020  41.821  32.704   8.394
 1491POPC   C3B21021  42.001  32.677   7.988
 1491POPC   C4B21022  42.074  32.953   7.659
 1492POPC   NC321023  26.490  23.757   9.402
 1492POPC   PO421024  27.027  24.201   9.378
 1492POPC   GL121025  26.739  24.069   9.064
 1492POPC   GL221026  26.717  23.695   8.963
 1492POPC   C1A21027  26.892  24.079   8.657
 1492POPC   D2A21028  26.798  23.891   8.301
 1492POPC   C3A21029  26.914  23.999   7.905
 1492POPC   C4A21030  26.880  23.796   7.501
 1492POPC   C1B21031  26.594  23.520   8.588
 1492POPC   C2B21032  26.773  23.403   8.185
 1492POPC   C3B21033  26.604  23.399   7.772
 1492POPC   C4B21034  26.275  23.317   7.491
 1493POPC   NC321035   6.474  15.592   9.518
 1493POPC   PO421036   6.790  16.200   9.412
 1493POPC   GL121037   6.614  16.163   9.054
 1493POPC   GL221038   6.396  15.909   9.134
 1493POPC   C1A21039   6.695  16.035   8.639
 1493POPC   D2A21040   7.015  15.948   8.308
 1493POPC   C3A21041   6.836  16.131   7.936
 1493POPC   C4A21042   6.777  15.939   7.548
 1493POPC   C1B21043   6.319  15.676   8.749
 1493POPC   C2B21044   6.433  15.705   8.291
 1493POPC   C3B21045   6.344  15.853   7.853
 1493POPC   C4B21046   6.385  15.639   7.446
 1494POPC   NC321047  24.546  15.162   9.937
 1494POPC   PO421048  24.716  15.135   9.303
 1494POPC   GL121049  24.346  15.167   9.117
 1494POPC   GL221050  24.230  14.829   9.007
 1494POPC   C1A21051  24.296  15.430   8.757
 1494POPC   D2A21052  24.579  15.502   8.410
 1494POPC   C3A21053  24.487  15.469   7.962
 1494POPC   C4A21054  24.757  15.345   7.642
 1494POPC   C1B21055  24.487  14.966   8.666
 1494POPC   C2B21056  24.632  14.766   8.330
 1494POPC   C3B21057  24.657  14.997   8.022
 1494POPC   C4B21058  24.350  14.985   7.710
 1495POPC   NC321059  23.024  12.698   9.186
 1495POPC   PO421060  22.565  12.895   9.684
 1495POPC   GL121061  22.665  13.032   9.206
 1495POPC   GL221062  22.578  12.755   8.956
 1495POPC   C1A21063  22.835  13.128   8.733
 1495POPC   D2A21064  22.591  12.968   8.363
 1495POPC   C3A21065  22.698  12.975   7.913
 1495POPC   C4A21066  23.049  12.758   7.705
 1495POPC   C1B21067  22.646  12.458   8.602
 1495POPC   C2B21068  22.783  12.499   8.156
 1495POPC   C3B21069  22.619  12.488   7.737
 1495POPC   C4B21070  22.821  12.431   7.312
 1496POPC   NC321071   4.897  33.788   9.607
 1496POPC   PO421072   5.613  33.933   9.514
 1496POPC   GL121073   5.294  33.781   9.249
 1496POPC   GL221074   5.052  34.080   9.208
 1496POPC   C1A21075   5.364  33.607   8.852
 1496POPC   D2A21076   5.283  33.484   8.442
 1496POPC   C3A21077   5.257  33.729   8.091
 1496POPC   C4A21078   5.250  33.600   7.690
 1496POPC   C1B21079   5.307  34.117   8.854
 1496POPC   C2B21080   5.185  34.131   8.438
 1496POPC   C3B21081   5.386  34.232   8.080
 1496POPC   C4B21082   5.210  34.099   7.680
 1497POPC   NC321083  44.292   3.041   9.293
 1497POPC   PO421084  43.952   2.643   9.713
 1497POPC   GL121085  43.873   2.709   9.235
 1497POPC   GL221086  44.137   2.548   9.104
 1497POPC   C1A21087  43.709   2.982   8.844
 1497POPC   D2A21088  43.809   3.112   8.385
 1497POPC   C3A21089  43.712   2.860   8.013
 1497POPC   C4A21090  43.638   2.652   7.600
 1497POPC   C1B21091  44.181   2.775   8.699
 1497POPC   C2B21092  44.311   3.034   8.356
 1497POPC   C3B21093  44.216   2.985   7.937
 1497POPC   C4B21094  44.108   2.547   7.796
 1498POPC   NC321095  42.414  22.538   9.478
 1498POPC   PO421096  42.218  21.837   9.455
 1498POPC   GL121097  42.392  22.008   9.124
 1498POPC   GL221098  42.177  22.294   9.104
 1498POPC   C1A21099  42.167  21.974   8.731
 1498POPC   D2A21100  42.326  21.970   8.348
 1498POPC   C3A21101  42.113  21.983   7.994
 1498POPC   C4A21102  42.125  22.023   7.531
 1498POPC   C1B21103  42.451  22.417   8.774
 1498POPC   C2B21104  42.507  22.514   8.337
 1498POPC   C3B21105  42.517  22.301   7.982
 1498POPC   C4B21106  42.621  22.176   7.586
 1499POPC   NC321107  36.054  35.889   9.484
 1499POPC   PO421108  36.525  36.335   9.616
 1499POPC   GL121109  36.346  36.238   9.197
 1499POPC   GL221110  35.999  36.339   9.099
 1499POPC   C1A21111  36.233  35.970   8.838
 1499POPC   D2A21112  36.199  36.117   8.436
 1499POPC   C3A21113  36.093  35.922   8.068
 1499POPC   C4A21114  36.351  36.044   7.766
 1499POPC   C1B21115  35.817  36.347   8.668
 1499POPC   C2B21116  35.808  36.350   8.186
 1499POPC   C3B21117  35.858  36.290   7.731
 1499POPC   C4B21118  35.773  36.500   7.292
 1500POPC   NC321119  35.093  36.109   9.651
 1500POPC   PO421120  35.736  36.327   9.516
 1500POPC   GL121121  35.366  36.262   9.203
 1500POPC   GL221122  35.247  35.904   9.189
 1500POPC   C1A21123  35.331  36.476   8.789
 1500POPC   D2A21124  35.331  36.266   8.374
 1500POPC   C3A21125  35.365  36.459   7.936
 1500POPC   C4A21126  35.256  36.489   7.459
 1500POPC   C1B21127  35.495  35.964   8.807
 1500POPC   C2B21128  35.688  35.888   8.400
 1500POPC   C3B21129  35.496  35.953   7.989
 1500POPC   C4B21130  35.259  35.626   7.752
 1501POPC   NC321131   0.226  14.839   9.410
 1501POPC   PO421132   0.713  15.331   9.412
 1501POPC   GL121133   0.460  15.169   9.121
 1501POPC   GL221134   0.131  15.346   9.198
 1501POPC   C1A21135   0.513  14.973   8.718
 1501POPC   D2A21136   0.719  15.235   8.393
 1501POPC   C3A21137   0.864  15.158   7.979
 1501POPC   C4A21138   0.562  15.092   7.638
 1501POPC   C1B21139   0.017  15.158   8.805
 1501POPC   C2B21140   0.169  15.152   8.383
 1501POPC   C3B21141  44.982  15.261   8.001
 1501POPC   C4B21142   0.063  15.304   7.524
 1502POPC   NC321143  31.420  37.215   9.767
 1502POPC   PO421144  31.237  36.609   9.549
 1502POPC   GL121145  31.476  36.911   9.270
 1502POPC   GL221146  31.293  37.186   9.113
 1502POPC   C1A21147  31.655  36.893   8.836
 1502POPC   D2A21148  31.551  36.727   8.413
 1502POPC   C3A21149  31.606  36.905   7.984
 1502POPC   C4A21150  31.447  36.675   7.629
 1502POPC   C1B21151  31.189  37.074   8.681
 1502POPC   C2B21152  31.227  37.164   8.225
 1502POPC   C3B21153  31.118  37.235   7.791
 1502POPC   C4B21154  31.303  37.097   7.387
 1503POPC   NC321155  30.692  21.583   9.469
 1503POPC   PO421156  30.576  21.000   9.725
 1503POPC   GL121157  30.552  21.135   9.272
 1503POPC   GL221158  30.855  21.100   9.092
 1503POPC   C1A21159  30.494  21.398   8.848
 1503POPC   D2A21160  30.460  21.668   8.460
 1503POPC   C3A21161  30.506  21.472   8.057
 1503POPC   C4A21162  30.252  21.209   7.816
 1503POPC   C1B21163  30.965  21.271   8.684
 1503POPC   C2B21164  30.963  21.505   8.283
 1503POPC   C3B21165  31.106  21.388   7.850
 1503POPC   C4B21166  30.913  21.509   7.409
 1504POPC   NC321167  29.490  43.823   9.450
 1504POPC   PO421168  28.977  44.237   9.522
 1504POPC   GL121169  28.826  44.013   9.161
 1504POPC   GL221170  29.142  43.879   9.001
 1504POPC   C1A21171  28.725  43.958   8.710
 1504POPC   D2A21172  29.021  43.786   8.414
 1504POPC   C3A21173  29.090  43.984   8.013
 1504POPC   C4A21174  28.946  44.317   7.736
 1504POPC   C1B21175  29.381  43.591   8.725
 1504POPC   C2B21176  29.545  43.562   8.325
 1504POPC   C3B21177  29.402  43.444   7.937
 1504POPC   C4B21178  29.256  43.681   7.637
 1505POPC   NC321179   0.805  44.876   9.352
 1505POPC   PO421180   0.270  44.502   9.531
 1505POPC   GL121181   0.361  44.682   9.161
 1505POPC   GL221182   0.633  44.467   9.081
 1505POPC   C1A21183   0.455  44.854   8.759
 1505POPC   D2A21184   0.509  44.667   8.402
 1505POPC   C3A21185   0.395  44.884   8.046
 1505POPC   C4A21186   0.398  44.721   7.652
 1505POPC   C1B21187   0.851  44.324   8.736
 1505POPC   C2B21188   0.963  44.461   8.340
 1505POPC   C3B21189   0.738  44.517   7.969
 1505POPC   C4B21190   0.828  44.416   7.566
 1506POPC   NC321191  17.381  37.902   9.500
 1506POPC   PO421192  17.865  37.496   9.702
 1506POPC   GL121193  17.619  37.548   9.238
 1506POPC   GL221194  17.279  37.363   9.247
 1506POPC   C1A21195  17.682  37.882   8.858
 1506POPC   D2A21196  17.734  38.084   8.393
 1506POPC   C3A21197  17.718  37.843   7.964
 1506POPC   C4A21198  17.679  37.777   7.473
 1506POPC   C1B21199  17.240  37.416   8.790
 1506POPC   C2B21200  17.392  37.709   8.480
 1506POPC   C3B21201  17.233  37.930   8.124
 1506POPC   C4B21202  17.258  37.659   7.759
 1507POPC   NC321203  24.466  25.956   9.674
 1507POPC   PO421204  24.106  26.466   9.387
 1507POPC   GL121205  24.315  26.149   9.068
 1507POPC   GL221206  24.659  26.014   9.197
 1507POPC   C1A21207  24.343  26.076   8.609
 1507POPC   D2A21208  24.415  26.317   8.228
 1507POPC   C3A21209  24.339  26.110   7.868
 1507POPC   C4A21210  24.230  25.730   7.763
 1507POPC   C1B21211  24.801  26.180   8.808
 1507POPC   C2B21212  24.832  25.952   8.442
 1507POPC   C3B21213  24.758  25.889   8.057
 1507POPC   C4B21214  24.826  26.283   7.911
 1508POPC   NC321215  37.075  43.249   9.364
 1508POPC   PO421216  37.694  43.087   9.710
 1508POPC   GL121217  37.576  43.186   9.244
 1508POPC   GL221218  37.799  43.411   9.088
 1508POPC   C1A21219  37.626  43.061   8.774
 1508POPC   D2A21220  37.954  42.909   8.476
 1508POPC   C3A21221  37.881  42.830   8.020
 1508POPC   C4A21222  37.629  42.853   7.649
 1508POPC   C1B21223  37.949  43.499   8.672
 1508POPC   C2B21224  37.767  43.362   8.282
 1508POPC   C3B21225  37.644  43.310   7.848
 1508POPC   C4B21226  37.681  43.270   7.372
 1509POPC   NC321227  31.129  31.948   9.440
 1509POPC   PO421228  31.397  32.562   9.453
 1509POPC   GL121229  31.406  32.249   9.125
 1509POPC   GL221230  31.033  32.322   9.098
 1509POPC   C1A21231  31.657  32.257   8.724
 1509POPC   D2A21232  31.648  32.571   8.339
 1509POPC   C3A21233  31.652  32.534   7.853
 1509POPC   C4A21234  31.600  32.226   7.468
 1509POPC   C1B21235  31.142  32.333   8.644
 1509POPC   C2B21236  31.394  32.115   8.315
 1509POPC   C3B21237  31.397  32.107   7.903
 1509POPC   C4B21238  31.167  32.452   7.657
 1510POPC   NC321239   3.359   5.585   9.489
 1510POPC   PO421240   3.330   6.294   9.458
 1510POPC   GL121241   3.520   6.000   9.207
 1510POPC   GL221242   3.810   6.152   9.146
 1510POPC   C1A21243   3.507   5.951   8.761
 1510POPC   D2A21244   3.252   5.913   8.415
 1510POPC   C3A21245   3.472   5.902   8.032
 1510POPC   C4A21246   3.346   5.653   7.676
 1510POPC   C1B21247   3.836   6.377   8.789
 1510POPC   C2B21248   3.741   6.203   8.380
 1510POPC   C3B21249   3.913   6.247   7.978
 1510POPC   C4B21250   3.614   6.251   7.679
 1511POPC   NC321251   1.715  17.857   9.334
 1511POPC   PO421252   1.279  18.408   9.356
 1511POPC   GL121253   1.036  18.478   9.029
 1511POPC   GL221254   0.928  18.150   9.059
 1511POPC   C1A21255   1.107  18.567   8.610
 1511POPC   D2A21256   1.233  18.807   8.277
 1511POPC   C3A21257   1.382  18.552   7.987
 1511POPC   C4A21258   1.137  18.187   7.872
 1511POPC   C1B21259   1.279  18.093   8.751
 1511POPC   C2B21260   1.460  18.174   8.318
 1511POPC   C3B21261   1.579  17.944   7.903
 1511POPC   C4B21262   1.723  17.861   7.483
 1512POPC   NC321263  33.708  23.411   9.560
 1512POPC   PO421264  33.724  24.051   9.500
 1512POPC   GL121265  33.594  23.761   9.172
 1512POPC   GL221266  33.910  23.585   9.104
 1512POPC   C1A21267  33.523  23.581   8.768
 1512POPC   D2A21268  33.786  23.563   8.413
 1512POPC   C3A21269  33.559  23.615   8.030
 1512POPC   C4A21270  33.723  23.599   7.626
 1512POPC   C1B21271  33.884  23.952   8.772
 1512POPC   C2B21272  34.018  24.053   8.350
 1512POPC   C3B21273  34.035  23.863   7.943
 1512POPC   C4B21274  33.906  24.047   7.533
 1513POPC   NC321275  20.237  26.718   9.345
 1513POPC   PO421276  19.565  26.827   9.453
 1513POPC   GL121277  19.775  26.810   9.111
 1513POPC   GL221278  19.917  27.129   9.163
 1513POPC   C1A21279  19.995  26.814   8.729
 1513POPC   D2A21280  19.955  26.571   8.361
 1513POPC   C3A21281  20.097  26.776   8.032
 1513POPC   C4A21282  19.971  26.857   7.654
 1513POPC   C1B21283  19.628  27.169   8.767
 1513POPC   C2B21284  19.589  26.920   8.397
 1513POPC   C3B21285  19.580  26.702   8.009
 1513POPC   C4B21286  19.491  26.891   7.589
 1514POPC   NC321287   6.926  42.732   9.459
 1514POPC   PO421288   6.393  42.252   9.468
 1514POPC   GL121289   6.442  42.463   9.050
 1514POPC   GL221290   6.785  42.558   9.008
 1514POPC   C1A21291   6.523  42.422   8.600
 1514POPC   D2A21292   6.613  42.608   8.222
 1514POPC   C3A21293   6.412  42.436   7.857
 1514POPC   C4A21294   6.614  42.199   7.545
 1514POPC   C1B21295   7.058  42.539   8.640
 1514POPC   C2B21296   7.226  42.545   8.203
 1514POPC   C3B21297   6.966  42.452   7.842
 1514POPC   C4B21298   7.002  42.523   7.370
 1515POPC   NC321299   6.601  43.311   9.946
 1515POPC   PO421300   6.696  43.944   9.568
 1515POPC   GL121301   6.553  43.987   9.168
 1515POPC   GL221302   6.248  43.819   9.168
 1515POPC   C1A21303   6.712  43.873   8.772
 1515POPC   D2A21304   6.948  43.806   8.410
 1515POPC   C3A21305   6.845  43.939   8.007
 1515POPC   C4A21306   6.702  43.800   7.617
 1515POPC   C1B21307   6.225  44.035   8.756
 1515POPC   C2B21308   6.431  43.981   8.333
 1515POPC   C3B21309   6.348  44.051   7.889
 1515POPC   C4B21310   6.308  44.062   7.413
 1516POPC   NC321311  36.466  30.432   9.662
 1516POPC   PO421312  37.123  30.558   9.526
 1516POPC   GL121313  36.941  30.523   9.111
 1516POPC   GL221314  37.050  30.862   9.037
 1516POPC   C1A21315  36.895  30.517   8.648
 1516POPC   D2A21316  37.097  30.567   8.254
 1516POPC   C3A21317  36.818  30.575   7.929
 1516POPC   C4A21318  36.740  30.672   7.493
 1516POPC   C1B21319  36.992  31.032   8.634
 1516POPC   C2B21320  36.707  30.936   8.291
 1516POPC   C3B21321  36.627  31.043   7.839
 1516POPC   C4B21322  36.772  31.212   7.414
 1517POPC   NC321323  32.130  35.029   9.508
 1517POPC   PO421324  32.633  35.421   9.512
 1517POPC   GL121325  32.331  35.435   9.129
 1517POPC   GL221326  32.012  35.291   9.079
 1517POPC   C1A21327  32.226  35.510   8.679
 1517POPC   D2A21328  32.429  35.668   8.320
 1517POPC   C3A21329  32.259  35.418   8.004
 1517POPC   C4A21330  32.073  35.438   7.606
 1517POPC   C1B21331  31.873  35.074   8.751
 1517POPC   C2B21332  31.895  35.149   8.310
 1517POPC   C3B21333  31.906  35.055   7.884
 1517POPC   C4B21334  32.236  34.975   7.600
 1518POPC   NC321335  22.491  32.560   9.429
 1518POPC   PO421336  21.961  32.163   9.624
 1518POPC   GL121337  22.129  32.224   9.217
 1518POPC   GL221338  22.450  32.208   9.048
 1518POPC   C1A21339  22.047  32.023   8.818
 1518POPC   D2A21340  22.353  31.979   8.484
 1518POPC   C3A21341  22.138  31.900   8.090
 1518POPC   C4A21342  22.013  32.099   7.736
 1518POPC   C1B21343  22.187  32.507   8.765
 1518POPC   C2B21344  22.072  32.475   8.318
 1518POPC   C3B21345  22.221  32.567   7.898
 1518POPC   C4B21346  22.509  32.410   7.603
 1519POPC   NC321347  38.628  38.643   9.465
 1519POPC   PO421348  38.264  38.092   9.456
 1519POPC   GL121349  38.410  38.314   9.113
 1519POPC   GL221350  38.209  38.633   9.114
 1519POPC   C1A21351  38.543  38.238   8.693
 1519POPC   D2A21352  38.433  38.321   8.279
 1519POPC   C3A21353  38.600  38.136   7.919
 1519POPC   C4A21354  38.547  38.247   7.501
 1519POPC   C1B21355  38.441  38.739   8.745
 1519POPC   C2B21356  38.564  38.798   8.308
 1519POPC   C3B21357  38.556  38.636   7.851
 1519POPC   C4B21358  38.612  38.722   7.351
 1520POPC   NC321359   6.983   6.073   9.714
 1520POPC   PO421360   7.477   5.827   9.321
 1520POPC   GL121361   7.321   5.689   8.986
 1520POPC   GL221362   7.083   5.466   9.113
 1520POPC   C1A21363   7.406   5.777   8.554
 1520POPC   D2A21364   7.700   5.719   8.240
 1520POPC   C3A21365   7.627   6.043   7.973
 1520POPC   C4A21366   7.198   6.077   7.875
 1520POPC   C1B21367   6.930   5.597   8.679
 1520POPC   C2B21368   6.986   5.579   8.203
 1520POPC   C3B21369   7.336   5.580   7.908
 1520POPC   C4B21370   7.749   5.593   7.716
 1521POPC   NC321371  25.248  29.451   9.344
 1521POPC   PO421372  25.565  28.898   9.475
 1521POPC   GL121373  25.465  29.041   9.077
 1521POPC   GL221374  25.100  28.995   9.098
 1521POPC   C1A21375  25.292  29.303   8.723
 1521POPC   D2A21376  25.051  29.424   8.378
 1521POPC   C3A21377  25.302  29.303   8.025
 1521POPC   C4A21378  25.227  29.413   7.612
 1521POPC   C1B21379  24.900  28.978   8.658
 1521POPC   C2B21380  24.944  28.944   8.194
 1521POPC   C3B21381  24.937  28.970   7.741
 1521POPC   C4B21382  24.866  28.826   7.288
 1522POPC   NC321383  23.735  21.077   9.510
 1522POPC   PO421384  24.090  21.570   9.556
 1522POPC   GL121385  23.795  21.465   9.206
 1522POPC   GL221386  23.945  21.176   9.070
 1522POPC   C1A21387  23.741  21.582   8.777
 1522POPC   D2A21388  23.488  21.421   8.443
 1522POPC   C3A21389  23.637  21.614   8.108
 1522POPC   C4A21390  23.605  21.529   7.707
 1522POPC   C1B21391  23.648  21.061   8.762
 1522POPC   C2B21392  23.666  20.886   8.349
 1522POPC   C3B21393  23.673  21.081   7.947
 1522POPC   C4B21394  23.782  20.935   7.530
 1523POPC   NC321395  43.827  23.326   9.376
 1523POPC   PO421396  43.710  22.669   9.519
 1523POPC   GL121397  43.861  22.740   9.108
 1523POPC   GL221398  44.188  22.892   9.161
 1523POPC   C1A21399  43.752  22.880   8.685
 1523POPC   D2A21400  43.585  22.951   8.252
 1523POPC   C3A21401  43.801  22.834   7.873
 1523POPC   C4A21402  43.701  22.934   7.448
 1523POPC   C1B21403  44.264  22.637   8.770
 1523POPC   C2B21404  44.078  22.696   8.336
 1523POPC   C3B21405  44.085  23.127   8.147
 1523POPC   C4B21406  44.261  23.116   7.757
 1524POPC   NC321407  28.484  36.876   9.523
 1524POPC   PO421408  27.926  36.556   9.332
 1524POPC   GL121409  28.194  36.789   9.068
 1524POPC   GL221410  28.559  36.813   9.033
 1524POPC   C1A21411  28.295  36.702   8.637
 1524POPC   D2A21412  28.533  36.816   8.292
 1524POPC   C3A21413  28.227  36.758   8.029
 1524POPC   C4A21414  28.184  36.878   7.663
 1524POPC   C1B21415  28.651  37.130   8.696
 1524POPC   C2B21416  28.582  37.361   8.324
 1524POPC   C3B21417  28.659  37.278   7.936
 1524POPC   C4B21418  28.697  36.879   7.801
 1525POPC   NC321419  27.829  43.535   9.432
 1525POPC   PO421420  27.478  44.060   9.510
 1525POPC   GL121421  27.537  44.078   9.102
 1525POPC   GL221422  27.310  44.323   9.020
 1525POPC   C1A21423  27.760  43.900   8.759
 1525POPC   D2A21424  27.696  43.586   8.444
 1525POPC   C3A21425  27.776  43.591   8.033
 1525POPC   C4A21426  27.618  43.791   7.651
 1525POPC   C1B21427  27.508  44.351   8.657
 1525POPC   C2B21428  27.601  44.109   8.300
 1525POPC   C3B21429  27.319  43.962   7.995
 1525POPC   C4B21430  27.183  44.094   7.533
 1526POPC   NC321431  31.664  39.479   9.298
 1526POPC   PO421432  31.067  39.143   9.646
 1526POPC   GL121433  31.140  38.907   9.188
 1526POPC   GL221434  31.492  38.997   9.105
 1526POPC   C1A21435  31.146  39.024   8.728
 1526POPC   D2A21436  31.469  39.246   8.468
 1526POPC   C3A21437  31.614  38.994   8.135
 1526POPC   C4A21438  31.459  39.174   7.767
 1526POPC   C1B21439  31.815  39.048   8.772
 1526POPC   C2B21440  32.028  39.195   8.379
 1526POPC   C3B21441  31.820  39.472   8.080
 1526POPC   C4B21442  31.739  39.591   7.659
 1527POPC   NC321443  37.134  18.617   9.453
 1527POPC   PO421444  36.635  18.153   9.515
 1527POPC   GL121445  36.980  18.192   9.202
 1527POPC   GL221446  37.265  18.054   9.014
 1527POPC   C1A21447  36.908  18.375   8.792
 1527POPC   D2A21448  36.725  18.560   8.443
 1527POPC   C3A21449  36.846  18.354   8.080
 1527POPC   C4A21450  36.945  18.020   7.823
 1527POPC   C1B21451  37.412  18.409   8.741
 1527POPC   C2B21452  37.268  18.555   8.340
 1527POPC   C3B21453  37.295  18.488   7.894
 1527POPC   C4B21454  36.960  18.515   7.608
 1528POPC   NC321455  17.997  40.948   9.490
 1528POPC   PO421456  18.461  40.503   9.407
 1528POPC   GL121457  18.319  40.730   9.075
 1528POPC   GL221458  18.069  40.496   9.012
 1528POPC   C1A21459  18.533  40.951   8.742
 1528POPC   D2A21460  18.622  41.166   8.353
 1528POPC   C3A21461  18.562  40.984   7.951
 1528POPC   C4A21462  18.222  40.956   7.685
 1528POPC   C1B21463  18.098  40.676   8.587
 1528POPC   C2B21464  18.115  40.630   8.124
 1528POPC   C3B21465  17.780  40.720   7.815
 1528POPC   C4B21466  17.814  40.800   7.387
 1529POPC   NC321467   0.101  15.851   9.469
 1529POPC   PO421468   0.726  16.188   9.538
 1529POPC   GL121469   0.677  16.007   9.142
 1529POPC   GL221470   0.489  15.714   9.146
 1529POPC   C1A21471   0.598  15.952   8.693
 1529POPC   D2A21472   0.280  16.136   8.458
 1529POPC   C3A21473   0.308  16.026   8.026
 1529POPC   C4A21474   0.675  15.908   7.818
 1529POPC   C1B21475   0.423  15.489   8.747
 1529POPC   C2B21476   0.368  15.618   8.322
 1529POPC   C3B21477   0.411  15.501   7.895
 1529POPC   C4B21478   0.327  15.732   7.498
 1530POPC   NC321479  42.714  38.991   9.454
 1530POPC   PO421480  42.818  39.636   9.569
 1530POPC   GL121481  42.625  39.457   9.169
 1530POPC   GL221482  42.613  39.080   8.982
 1530POPC   C1A21483  42.354  39.463   8.798
 1530POPC   D2A21484  42.355  39.239   8.408
 1530POPC   C3A21485  42.224  39.441   8.017
 1530POPC   C4A21486  42.507  39.491   7.667
 1530POPC   C1B21487  42.255  38.853   8.801
 1530POPC   C2B21488  42.129  38.776   8.377
 1530POPC   C3B21489  42.275  38.924   7.980
 1530POPC   C4B21490  42.196  38.710   7.620
 1531POPC   NC321491  27.811  21.650   9.302
 1531POPC   PO421492  27.244  21.375   9.471
 1531POPC   GL121493  27.489  21.279   9.119
 1531POPC   GL221494  27.862  21.155   9.105
 1531POPC   C1A21495  27.470  21.544   8.765
 1531POPC   D2A21496  27.179  21.627   8.448
 1531POPC   C3A21497  27.343  21.646   8.017
 1531POPC   C4A21498  27.412  21.247   7.828
 1531POPC   C1B21499  27.667  21.073   8.690
 1531POPC   C2B21500  27.624  21.347   8.336
 1531POPC   C3B21501  27.923  21.483   8.090
 1531POPC   C4B21502  27.855  21.488   7.691
 1532POPC   NC321503  24.998   4.381   9.429
 1532POPC   PO421504  24.302   4.270   9.282
 1532POPC   GL121505  24.635   4.380   9.082
 1532POPC   GL221506  24.774   4.029   9.132
 1532POPC   C1A21507  24.635   4.609   8.710
 1532POPC   D2A21508  24.438   4.500   8.311
 1532POPC   C3A21509  24.559   4.372   7.890
 1532POPC   C4A21510  24.238   4.084   7.749
 1532POPC   C1B21511  24.614   4.025   8.692
 1532POPC   C2B21512  24.731   3.987   8.244
 1532POPC   C3B21513  24.712   3.870   7.789
 1532POPC   C4B21514  24.741   4.138   7.396
 1533POPC   NC321515   8.443  20.736   9.598
 1533POPC   PO421516   9.086  20.792   9.507
 1533POPC   GL121517   9.003  20.514   9.135
 1533POPC   GL221518   9.370  20.524   8.982
 1533POPC   C1A21519   8.972  20.416   8.698
 1533POPC   D2A21520   9.277  20.464   8.379
 1533POPC   C3A21521   9.033  20.456   8.015
 1533POPC   C4A21522   8.660  20.695   7.880
 1533POPC   C1B21523   9.145  20.883   8.765
 1533POPC   C2B21524   8.933  20.876   8.349
 1533POPC   C3B21525   9.106  20.950   7.930
 1533POPC   C4B21526   8.962  20.843   7.477
 1534POPC   NC321527   1.508  12.706   9.460
 1534POPC   PO421528   0.981  13.059   9.706
 1534POPC   GL121529   0.968  12.822   9.293
 1534POPC   GL221530   0.931  13.088   9.065
 1534POPC   C1A21531   1.168  12.692   8.849
 1534POPC   D2A21532   1.379  12.818   8.449
 1534POPC   C3A21533   1.251  12.649   8.036
 1534POPC   C4A21534   1.409  12.719   7.601
 1534POPC   C1B21535   0.720  13.021   8.650
 1534POPC   C2B21536   0.753  13.283   8.297
 1534POPC   C3B21537   1.083  13.135   8.053
 1534POPC   C4B21538   0.951  12.889   7.693
 1535POPC   NC321539  20.025   3.301   9.771
 1535POPC   PO421540  20.107   2.699   9.420
 1535POPC   GL121541  19.813   2.722   9.104
 1535POPC   GL221542  19.571   2.501   9.260
 1535POPC   C1A21543  19.745   2.875   8.677
 1535POPC   D2A21544  19.932   2.985   8.286
 1535POPC   C3A21545  19.826   2.998   7.869
 1535POPC   C4A21546  20.145   2.760   7.694
 1535POPC   C1B21547  19.527   2.424   8.806
 1535POPC   C2B21548  19.387   2.607   8.407
 1535POPC   C3B21549  19.576   2.571   8.000
 1535POPC   C4B21550  19.690   2.607   7.566
 1536POPC   NC321551   8.504  24.735   9.633
 1536POPC   PO421552   8.033  24.274   9.427
 1536POPC   GL121553   8.285  24.431   9.129
 1536POPC   GL221554   8.552  24.281   9.284
 1536POPC   C1A21555   8.223  24.318   8.706
 1536POPC   D2A21556   8.327  24.541   8.365
 1536POPC   C3A21557   8.172  24.467   8.007
 1536POPC   C4A21558   8.055  24.622   7.656
 1536POPC   C1B21559   8.668  24.142   8.904
 1536POPC   C2B21560   8.705  24.205   8.449
 1536POPC   C3B21561   8.607  24.127   7.999
 1536POPC   C4B21562   8.461  24.317   7.588
 1537POPC   NC321563  28.765   9.542   9.272
 1537POPC   PO421564  28.155   9.117   9.413
 1537POPC   GL121565  28.277   9.422   9.091
 1537POPC   GL221566  28.337   9.795   9.137
 1537POPC   C1A21567  28.170   9.578   8.687
 1537POPC   D2A21568  28.245   9.807   8.308
 1537POPC   C3A21569  28.175   9.515   7.993
 1537POPC   C4A21570  28.451   9.509   7.736
 1537POPC   C1B21571  28.575   9.897   8.743
 1537POPC   C2B21572  28.677  10.100   8.334
 1537POPC   C3B21573  28.611   9.988   7.904
 1537POPC   C4B21574  28.784  10.172   7.514
 1538POPC   NC321575   2.127  16.454   9.589
 1538POPC   PO421576   1.890  17.073   9.586
 1538POPC   GL121577   1.880  16.943   9.148
 1538POPC   GL221578   2.057  16.657   9.127
 1538POPC   C1A21579   2.016  16.946   8.703
 1538POPC   D2A21580   2.184  16.902   8.284
 1538POPC   C3A21581   1.944  16.872   7.887
 1538POPC   C4A21582   2.065  16.921   7.463
 1538POPC   C1B21583   2.238  16.480   8.752
 1538POPC   C2B21584   2.244  16.283   8.365
 1538POPC   C3B21585   2.240  16.452   7.974
 1538POPC   C4B21586   2.138  16.283   7.605
 1539POPC   NC321587   9.861   9.327   9.469
 1539POPC   PO421588   9.746  10.026   9.605
 1539POPC   GL121589   9.773   9.769   9.240
 1539POPC   GL221590   9.461   9.773   9.127
 1539POPC   C1A21591   9.913   9.660   8.822
 1539POPC   D2A21592  10.177   9.952   8.582
 1539POPC   C3A21593  10.055   9.940   8.146
 1539POPC   C4A21594  10.001   9.898   7.688
 1539POPC   C1B21595   9.540   9.986   8.772
 1539POPC   C2B21596   9.448  10.044   8.374
 1539POPC   C3B21597   9.545   9.871   8.007
 1539POPC   C4B21598   9.485   9.981   7.612
 1540POPC   NC321599  14.143   3.938   9.704
 1540POPC   PO421600  14.643   3.435   9.749
 1540POPC   GL121601  14.510   3.616   9.326
 1540POPC   GL221602  14.329   3.381   9.064
 1540POPC   C1A21603  14.598   3.771   8.896
 1540POPC   D2A21604  14.425   3.573   8.522
 1540POPC   C3A21605  14.417   3.812   8.131
 1540POPC   C4A21606  14.199   3.695   7.769
 1540POPC   C1B21607  14.063   3.206   8.736
 1540POPC   C2B21608  13.920   3.136   8.309
 1540POPC   C3B21609  14.103   3.197   7.881
 1540POPC   C4B21610  14.038   3.213   7.433
 1541POPC   NC321611  25.276  25.150   9.801
 1541POPC   PO421612  24.929  25.059   9.254
 1541POPC   GL121613  25.055  25.384   9.039
 1541POPC   GL221614  25.353  25.521   9.025
 1541POPC   C1A21615  24.943  25.512   8.673
 1541POPC   D2A21616  24.879  25.395   8.257
 1541POPC   C3A21617  25.138  25.544   7.950
 1541POPC   C4A21618  25.136  25.287   7.681
 1541POPC   C1B21619  25.440  25.307   8.674
 1541POPC   C2B21620  25.386  25.218   8.259
 1541POPC   C3B21621  25.605  25.298   7.883
 1541POPC   C4B21622  25.538  25.421   7.441
 1542POPC   NC321623  12.587  22.774   9.484
 1542POPC   PO421624  12.852  23.362   9.254
 1542POPC   GL121625  12.784  22.970   9.058
 1542POPC   GL221626  12.871  22.609   9.061
 1542POPC   C1A21627  12.621  22.884   8.671
 1542POPC   D2A21628  12.862  23.004   8.329
 1542POPC   C3A21629  12.718  23.125   7.954
 1542POPC   C4A21630  12.680  22.883   7.596
 1542POPC   C1B21631  13.117  22.761   8.721
 1542POPC   C2B21632  13.210  22.622   8.336
 1542POPC   C3B21633  13.031  22.651   7.950
 1542POPC   C4B21634  13.189  23.016   7.784
 1543POPC   NC321635   1.867  23.094   9.461
 1543POPC   PO421636   1.845  22.386   9.559
 1543POPC   GL121637   1.982  22.693   9.125
 1543POPC   GL221638   1.988  23.101   8.989
 1543POPC   C1A21639   2.338  22.819   8.779
 1543POPC   D2A21640   2.470  22.735   8.375
 1543POPC   C3A21641   2.256  22.938   8.055
 1543POPC   C4A21642   2.286  22.716   7.688
 1543POPC   C1B21643   1.714  22.981   8.643
 1543POPC   C2B21644   1.745  23.031   8.191
 1543POPC   C3B21645   1.783  22.937   7.770
 1543POPC   C4B21646   2.054  23.057   7.418
 1544POPC   NC321647  21.831  30.720   9.558
 1544POPC   PO421648  21.159  30.771   9.509
 1544POPC   GL121649  21.509  30.749   9.159
 1544POPC   GL221650  21.798  30.994   9.143
 1544POPC   C1A21651  21.568  30.619   8.721
 1544POPC   D2A21652  21.268  30.436   8.416
 1544POPC   C3A21653  21.272  30.637   8.008
 1544POPC   C4A21654  21.486  30.636   7.592
 1544POPC   C1B21655  21.998  31.115   8.767
 1544POPC   C2B21656  21.837  30.955   8.389
 1544POPC   C3B21657  21.763  30.796   8.000
 1544POPC   C4B21658  21.808  31.054   7.645
 1545POPC   NC321659  23.054  36.284   9.472
 1545POPC   PO421660  23.365  35.807   9.766
 1545POPC   GL121661  23.177  35.817   9.300
 1545POPC   GL221662  22.830  35.733   9.324
 1545POPC   C1A21663  23.215  36.065   8.845
 1545POPC   D2A21664  22.935  36.310   8.494
 1545POPC   C3A21665  23.024  36.382   8.015
 1545POPC   C4A21666  23.093  36.159   7.627
 1545POPC   C1B21667  22.768  35.790   8.868
 1545POPC   C2B21668  23.022  35.752   8.481
 1545POPC   C3B21669  22.993  35.886   8.069
 1545POPC   C4B21670  22.643  36.070   7.816
 1546POPC   NC321671  19.098  15.064   9.402
 1546POPC   PO421672  18.869  15.715   9.339
 1546POPC   GL121673  18.984  15.392   9.037
 1546POPC   GL221674  18.792  15.079   8.991
 1546POPC   C1A21675  19.208  15.335   8.656
 1546POPC   D2A21676  19.212  15.670   8.348
 1546POPC   C3A21677  19.038  15.568   7.954
 1546POPC   C4A21678  19.274  15.575   7.572
 1546POPC   C1B21679  18.773  14.970   8.556
 1546POPC   C2B21680  19.080  15.058   8.219
 1546POPC   C3B21681  19.269  15.128   7.818
 1546POPC   C4B21682  18.893  15.242   7.522
 1547POPC   NC321683  24.205   9.649   9.584
 1547POPC   PO421684  24.528  10.138   9.348
 1547POPC   GL121685  24.385   9.757   9.143
 1547POPC   GL221686  24.699   9.633   9.207
 1547POPC   C1A21687  24.159   9.608   8.775
 1547POPC   D2A21688  23.995   9.625   8.349
 1547POPC   C3A21689  24.220   9.510   7.942
 1547POPC   C4A21690  24.426   9.797   7.599
 1547POPC   C1B21691  24.670   9.837   8.766
 1547POPC   C2B21692  24.519   9.664   8.409
 1547POPC   C3B21693  24.674   9.726   8.047
 1547POPC   C4B21694  24.832   9.470   7.698
 1548POPC   NC321695  44.116  34.118   9.442
 1548POPC   PO421696  44.808  34.061   9.496
 1548POPC   GL121697  44.697  33.874   9.089
 1548POPC   GL221698  44.414  34.010   9.063
 1548POPC   C1A21699  44.569  33.801   8.637
 1548POPC   D2A21700  44.841  33.695   8.292
 1548POPC   C3A21701  44.826  33.691   7.859
 1548POPC   C4A21702  44.889  33.710   7.406
 1548POPC   C1B21703  44.392  34.298   8.739
 1548POPC   C2B21704  44.250  34.281   8.324
 1548POPC   C3B21705  44.416  34.030   8.009
 1548POPC   C4B21706  44.375  33.803   7.650
 1549POPC   NC321707  16.335  18.738   9.637
 1549POPC   PO421708  16.919  19.066   9.621
 1549POPC   GL121709  16.961  19.070   9.205
 1549POPC   GL221710  16.622  18.935   9.175
 1549POPC   C1A21711  16.945  19.180   8.774
 1549POPC   D2A21712  16.729  19.230   8.370
 1549POPC   C3A21713  16.915  19.192   7.939
 1549POPC   C4A21714  16.721  19.230   7.491
 1549POPC   C1B21715  16.491  18.917   8.749
 1549POPC   C2B21716  16.412  18.824   8.321
 1549POPC   C3B21717  16.489  18.938   7.869
 1549POPC   C4B21718  16.368  18.849   7.457
 1550POPC   NC321719  24.253  28.998   9.435
 1550POPC   PO421720  24.914  29.211   9.551
 1550POPC   GL121721  24.715  29.323   9.213
 1550POPC   GL221722  24.582  29.036   9.060
 1550POPC   C1A21723  24.727  29.455   8.791
 1550POPC   D2A21724  24.539  29.274   8.404
 1550POPC   C3A21725  24.669  29.390   7.992
 1550POPC   C4A21726  24.307  29.387   7.687
 1550POPC   C1B21727  24.257  29.003   8.749
 1550POPC   C2B21728  24.329  28.775   8.363
 1550POPC   C3B21729  24.468  28.910   7.960
 1550POPC   C4B21730  24.432  28.919   7.516
 1551POPC   NC321731  27.826   2.631   9.581
 1551POPC   PO421732  27.497   3.216   9.460
 1551POPC   GL121733  27.522   2.836   9.220
 1551POPC   GL221734  27.170   2.801   9.164
 1551POPC   C1A21735  27.736   2.755   8.836
 1551POPC   D2A21736  27.817   2.941   8.412
 1551POPC   C3A21737  27.767   2.713   8.019
 1551POPC   C4A21738  27.727   2.873   7.599
 1551POPC   C1B21739  27.325   2.449   8.886
 1551POPC   C2B21740  27.529   2.452   8.484
 1551POPC   C3B21741  27.426   2.320   8.115
 1551POPC   C4B21742  27.384   2.495   7.741
 1552POPC   NC321743   7.643  19.633   9.614
 1552POPC   PO421744   7.232  20.104   9.659
 1552POPC   GL121745   7.263  19.958   9.233
 1552POPC   GL221746   7.333  19.588   9.181
 1552POPC   C1A21747   7.382  20.005   8.806
 1552POPC   D2A21748   7.486  19.843   8.402
 1552POPC   C3A21749   7.202  19.784   8.051
 1552POPC   C4A21750   7.446  19.875   7.686
 1552POPC   C1B21751   7.579  19.503   8.791
 1552POPC   C2B21752   7.671  19.354   8.352
 1552POPC   C3B21753   7.581  19.414   7.896
 1552POPC   C4B21754   7.472  19.446   7.412
 1553POPC   NC321755  36.975  41.387   9.512
 1553POPC   PO421756  36.833  42.005   9.497
 1553POPC   GL121757  36.879  41.703   9.130
 1553POPC   GL221758  36.611  41.421   9.117
 1553POPC   C1A21759  36.900  41.547   8.701
 1553POPC   D2A21760  36.692  41.438   8.354
 1553POPC   C3A21761  36.918  41.546   7.983
 1553POPC   C4A21762  36.987  41.609   7.547
 1553POPC   C1B21763  36.665  41.094   8.785
 1553POPC   C2B21764  36.799  40.914   8.395
 1553POPC   C3B21765  36.691  41.065   8.000
 1553POPC   C4B21766  36.511  41.257   7.645
 1554POPC   NC321767  14.259   8.221   9.691
 1554POPC   PO421768  14.922   8.459   9.512
 1554POPC   GL121769  14.668   8.538   9.157
 1554POPC   GL221770  14.386   8.318   9.120
 1554POPC   C1A21771  14.725   8.358   8.736
 1554POPC   D2A21772  14.445   8.412   8.401
 1554POPC   C3A21773  14.413   8.116   8.149
 1554POPC   C4A21774  14.600   8.267   7.786
 1554POPC   C1B21775  14.381   8.000   8.758
 1554POPC   C2B21776  14.095   7.803   8.506
 1554POPC   C3B21777  13.920   7.858   8.124
 1554POPC   C4B21778  14.172   7.915   7.762
 1555POPC   NC321779  44.534  26.450   9.576
 1555POPC   PO421780  44.419  25.731   9.470
 1555POPC   GL121781  44.669  25.940   9.147
 1555POPC   GL221782  44.769  26.265   9.159
 1555POPC   C1A21783  44.724  25.897   8.699
 1555POPC   D2A21784  44.575  25.753   8.292
 1555POPC   C3A21785  44.559  26.066   7.950
 1555POPC   C4A21786  44.276  26.390   7.786
 1555POPC   C1B21787  44.456  26.358   8.869
 1555POPC   C2B21788  44.577  26.343   8.436
 1555POPC   C3B21789  44.976  26.233   8.217
 1555POPC   C4B21790   0.001  26.280   7.774
 1556POPC   NC321791  17.410  42.692   9.398
 1556POPC   PO421792  17.568  43.380   9.468
 1556POPC   GL121793  17.353  43.152   9.158
 1556POPC   GL221794  17.656  43.012   9.070
 1556POPC   C1A21795  17.279  43.000   8.727
 1556POPC   D2A21796  17.462  43.042   8.317
 1556POPC   C3A21797  17.265  43.320   8.072
 1556POPC   C4A21798  17.214  43.384   7.659
 1556POPC   C1B21799  17.797  42.864   8.680
 1556POPC   C2B21800  17.972  43.129   8.374
 1556POPC   C3B21801  17.822  43.164   7.977
 1556POPC   C4B21802  17.468  42.944   7.780
 1557POPC   NC321803  15.565   7.574   9.699
 1557POPC   PO421804  14.995   7.158   9.594
 1557POPC   GL121805  15.255   7.318   9.193
 1557POPC   GL221806  15.111   7.651   9.114
 1557POPC   C1A21807  15.293   7.410   8.696
 1557POPC   D2A21808  15.162   7.706   8.317
 1557POPC   C3A21809  15.299   7.606   7.926
 1557POPC   C4A21810  15.180   7.244   7.690
 1557POPC   C1B21811  14.886   7.810   8.740
 1557POPC   C2B21812  14.630   7.700   8.399
 1557POPC   C3B21813  14.760   7.716   7.973
 1557POPC   C4B21814  15.006   7.931   7.677
 1558POPC   NC321815  19.632  40.577   9.369
 1558POPC   PO421816  19.776  41.230   9.528
 1558POPC   GL121817  19.861  40.952   9.114
 1558POPC   GL221818  19.627  41.069   8.916
 1558POPC   C1A21819  20.024  40.728   8.715
 1558POPC   D2A21820  20.058  40.815   8.241
 1558POPC   C3A21821  19.904  40.556   7.908
 1558POPC   C4A21822  19.582  40.348   7.678
 1558POPC   C1B21823  19.540  40.884   8.544
 1558POPC   C2B21824  19.275  40.569   8.349
 1558POPC   C3B21825  19.392  40.691   7.977
 1558POPC   C4B21826  19.667  41.026   7.838
 1559POPC   NC321827  11.073  43.265   9.655
 1559POPC   PO421828  11.602  43.602   9.495
 1559POPC   GL121829  11.519  43.331   9.090
 1559POPC   GL221830  11.157  43.184   8.975
 1559POPC   C1A21831  11.510  43.203   8.633
 1559POPC   D2A21832  11.170  42.998   8.373
 1559POPC   C3A21833  11.328  42.924   7.953
 1559POPC   C4A21834  11.769  43.022   7.894
 1559POPC   C1B21835  10.982  43.436   8.640
 1559POPC   C2B21836  11.043  43.543   8.246
 1559POPC   C3B21837  10.813  43.441   7.898
 1559POPC   C4B21838  11.130  43.444   7.633
 1560POPC   NC321839  21.930  29.935   9.294
 1560POPC   PO421840  22.414  30.304   9.685
 1560POPC   GL121841  22.433  30.130   9.224
 1560POPC   GL221842  22.344  29.762   9.097
 1560POPC   C1A21843  22.326  30.148   8.760
 1560POPC   D2A21844  22.228  29.823   8.439
 1560POPC   C3A21845  22.018  29.941   8.061
 1560POPC   C4A21846  22.182  30.011   7.652
 1560POPC   C1B21847  22.110  29.477   8.811
 1560POPC   C2B21848  22.110  29.310   8.380
 1560POPC   C3B21849  22.252  29.487   7.981
 1560POPC   C4B21850  22.014  29.381   7.635
 1561POPC   NC321851   0.071  12.387   9.425
 1561POPC   PO421852  44.665  11.842   9.570
 1561POPC   GL121853  44.558  11.901   9.136
 1561POPC   GL221854  44.859  12.061   9.121
 1561POPC   C1A21855  44.545  12.030   8.673
 1561POPC   D2A21856  44.465  11.823   8.244
 1561POPC   C3A21857  44.461  12.044   7.831
 1561POPC   C4A21858  44.419  11.990   7.363
 1561POPC   C1B21859   0.014  12.290   8.784
 1561POPC   C2B21860   0.142  12.442   8.387
 1561POPC   C3B21861  44.999  12.321   7.983
 1561POPC   C4B21862  44.874  12.185   7.576
 1562POPC   NC321863  30.934  44.278   9.520
 1562POPC   PO421864  30.637  43.658   9.476
 1562POPC   GL121865  30.582  43.998   9.212
 1562POPC   GL221866  30.359  44.274   9.335
 1562POPC   C1A21867  30.709  43.939   8.788
 1562POPC   D2A21868  30.512  43.669   8.456
 1562POPC   C3A21869  30.661  43.689   8.037
 1562POPC   C4A21870  30.464  43.470   7.705
 1562POPC   C1B21871  30.400  44.335   8.861
 1562POPC   C2B21872  30.433  44.166   8.413
 1562POPC   C3B21873  30.619  44.231   7.994
 1562POPC   C4B21874  30.527  44.388   7.575
 1563POPC   NC321875   2.716  39.683   9.540
 1563POPC   PO421876   3.125  40.200   9.451
 1563POPC   GL121877   3.017  39.906   9.117
 1563POPC   GL221878   2.671  39.765   9.055
 1563POPC   C1A21879   2.946  39.979   8.679
 1563POPC   D2A21880   2.635  40.211   8.473
 1563POPC   C3A21881   2.694  40.213   8.040
 1563POPC   C4A21882   2.510  40.239   7.642
 1563POPC   C1B21883   2.453  39.776   8.694
 1563POPC   C2B21884   2.549  39.703   8.309
 1563POPC   C3B21885   2.411  39.798   7.910
 1563POPC   C4B21886   2.373  39.592   7.540
 1564POPC   NC321887  11.572  37.173   9.416
 1564POPC   PO421888  11.399  37.916   9.544
 1564POPC   GL121889  11.385  37.627   9.210
 1564POPC   GL221890  11.711  37.550   9.105
 1564POPC   C1A21891  11.277  37.503   8.779
 1564POPC   D2A21892  11.002  37.583   8.417
 1564POPC   C3A21893  10.984  37.851   8.025
 1564POPC   C4A21894  11.138  37.781   7.611
 1564POPC   C1B21895  11.775  37.602   8.698
 1564POPC   C2B21896  11.557  37.526   8.336
 1564POPC   C3B21897  11.387  37.486   7.958
 1564POPC   C4B21898  11.623  37.561   7.569
 1565POPC   NC321899  18.439  20.396   9.486
 1565POPC   PO421900  18.223  19.781   9.524
 1565POPC   GL121901  18.343  19.945   9.165
 1565POPC   GL221902  18.714  19.934   9.133
 1565POPC   C1A21903  18.096  19.933   8.785
 1565POPC   D2A21904  18.243  19.794   8.409
 1565POPC   C3A21905  18.078  19.960   8.043
 1565POPC   C4A21906  18.134  19.710   7.707
 1565POPC   C1B21907  18.593  20.028   8.727
 1565POPC   C2B21908  18.750  20.116   8.336
 1565POPC   C3B21909  18.594  19.904   8.020
 1565POPC   C4B21910  18.713  19.825   7.651
 1566POPC   NC321911  43.282  20.227   9.574
 1566POPC   PO421912  42.976  19.684   9.427
 1566POPC   GL121913  43.269  19.566   9.110
 1566POPC   GL221914  43.422  19.889   9.198
 1566POPC   C1A21915  43.197  19.567   8.644
 1566POPC   D2A21916  42.916  19.697   8.323
 1566POPC   C3A21917  42.747  19.453   8.014
 1566POPC   C4A21918  42.966  19.620   7.680
 1566POPC   C1B21919  43.370  20.101   8.772
 1566POPC   C2B21920  43.318  20.020   8.334
 1566POPC   C3B21921  43.196  20.032   7.900
 1566POPC   C4B21922  43.378  20.220   7.545
 1567POPC   NC321923  30.122  27.608   9.268
 1567POPC   PO421924  30.748  27.919   9.465
 1567POPC   GL121925  30.711  27.632   9.135
 1567POPC   GL221926  30.604  27.294   9.243
 1567POPC   C1A21927  30.508  27.616   8.740
 1567POPC   D2A21928  30.303  27.834   8.419
 1567POPC   C3A21929  30.592  27.713   8.111
 1567POPC   C4A21930  30.557  27.784   7.711
 1567POPC   C1B21931  30.794  27.209   8.841
 1567POPC   C2B21932  30.864  27.287   8.417
 1567POPC   C3B21933  30.842  27.082   8.043
 1567POPC   C4B21934  30.718  27.289   7.690
 1568POPC   NC321935  36.443  11.454   9.514
 1568POPC   PO421936  35.887  11.104   9.493
 1568POPC   GL121937  36.043  11.396   9.187
 1568POPC   GL221938  36.336  11.360   9.025
 1568POPC   C1A21939  35.886  11.535   8.807
 1568POPC   D2A21940  36.070  11.391   8.433
 1568POPC   C3A21941  35.852  11.588   8.084
 1568POPC   C4A21942  35.876  11.455   7.674
 1568POPC   C1B21943  36.464  11.046   8.742
 1568POPC   C2B21944  36.561  11.095   8.312
 1568POPC   C3B21945  36.557  10.963   7.887
 1568POPC   C4B21946  36.297  11.124   7.578
 1569POPC   NC321947  25.113  22.489   9.833
 1569POPC   PO421948  25.533  21.996   9.775
 1569POPC   GL121949  25.584  22.154   9.309
 1569POPC   GL221950  25.568  21.854   9.128
 1569POPC   C1A21951  25.508  22.324   8.837
 1569POPC   D2A21952  25.551  22.327   8.376
 1569POPC   C3A21953  25.185  22.456   8.090
 1569POPC   C4A21954  25.275  22.299   7.673
 1569POPC   C1B21955  25.162  22.028   9.034
 1569POPC   C2B21956  25.079  22.100   8.580
 1569POPC   C3B21957  25.191  21.968   8.157
 1569POPC   C4B21958  24.890  22.030   7.859
 1570POPC   NC321959  28.252   0.280   9.747
 1570POPC   PO421960  28.154  44.637   9.554
 1570POPC   GL121961  28.305  44.655   9.157
 1570POPC   GL221962  28.128  44.908   8.976
 1570POPC   C1A21963  28.507  44.550   8.791
 1570POPC   D2A21964  28.486  44.757   8.444
 1570POPC   C3A21965  28.628  44.543   8.092
 1570POPC   C4A21966  28.397  44.445   7.740
 1570POPC   C1B21967  28.069   0.089   8.593
 1570POPC   C2B21968  28.056  44.933   8.199
 1570POPC   C3B21969  28.014   0.013   7.781
 1570POPC   C4B21970  28.087  44.746   7.401
 1571POPC   NC321971  37.738  13.476   9.695
 1571POPC   PO421972  37.223  13.813   9.525
 1571POPC   GL121973  37.710  13.813   9.287
 1571POPC   GL221974  37.819  13.440   9.179
 1571POPC   C1A21975  37.728  13.876   8.809
 1571POPC   D2A21976  37.345  13.818   8.487
 1571POPC   C3A21977  37.375  13.908   8.032
 1571POPC   C4A21978  37.760  13.749   7.845
 1571POPC   C1B21979  37.731  13.323   8.744
 1571POPC   C2B21980  37.771  13.532   8.378
 1571POPC   C3B21981  37.499  13.410   8.096
 1571POPC   C4B21982  37.727  13.188   7.812
 1572POPC   NC321983  18.095  32.919   9.485
 1572POPC   PO421984  18.189  33.630   9.536
 1572POPC   GL121985  18.306  33.302   9.221
 1572POPC   GL221986  17.976  33.216   9.088
 1572POPC   C1A21987  18.355  33.082   8.784
 1572POPC   D2A21988  18.052  33.028   8.417
 1572POPC   C3A21989  18.205  33.148   8.000
 1572POPC   C4A21990  18.512  33.124   7.661
 1572POPC   C1B21991  17.962  32.761   8.867
 1572POPC   C2B21992  18.014  32.502   8.459
 1572POPC   C3B21993  17.982  32.655   8.028
 1572POPC   C4B21994  18.253  32.686   7.715
 1573POPC   NC321995  37.909  11.863   9.460
 1573POPC   PO421996  37.301  12.189   9.437
 1573POPC   GL121997  37.578  12.107   9.113
 1573POPC   GL221998  37.513  11.810   9.038
 1573POPC   C1A21999  37.779  12.153   8.712
 1573POPC   D2A22000  37.932  11.991   8.340
 1573POPC   C3A22001  37.743  12.147   7.970
 1573POPC   C4A22002  37.725  11.860   7.668
 1573POPC   C1B22003  37.329  11.882   8.635
 1573POPC   C2B22004  37.464  11.801   8.215
 1573POPC   C3B22005  37.245  11.810   7.812
 1573POPC   C4B22006  37.318  11.767   7.364
 1574POPC   NC322007   7.409  13.150   9.687
 1574POPC   PO422008   7.395  13.839   9.566
 1574POPC   GL122009   7.635  13.627   9.267
 1574POPC   GL222010   7.872  13.889   9.302
 1574POPC   C1A22011   7.530  13.463   8.838
 1574POPC   D2A22012   7.452  13.699   8.455
 1574POPC   C3A22013   7.418  13.461   8.060
 1574POPC   C4A22014   7.300  13.635   7.667
 1574POPC   C1B22015   7.782  13.903   8.870
 1574POPC   C2B22016   7.914  13.929   8.455
 1574POPC   C3B22017   7.728  13.891   8.052
 1574POPC   C4B22018   7.806  13.707   7.676
 1575POPC   NC322019   6.889  39.659   9.838
 1575POPC   PO422020   6.720  39.098   9.584
 1575POPC   GL122021   6.623  39.063   9.133
 1575POPC   GL222022   6.673  39.409   9.103
 1575POPC   C1A22023   6.638  39.173   8.653
 1575POPC   D2A22024   6.554  39.213   8.181
 1575POPC   C3A22025   6.762  39.058   7.804
 1575POPC   C4A22026   7.026  38.973   7.418
 1575POPC   C1B22027   6.723  39.682   8.736
 1575POPC   C2B22028   6.566  39.705   8.329
 1575POPC   C3B22029   6.774  39.599   7.926
 1575POPC   C4B22030   6.997  39.459   7.549
 1576POPC   NC322031  28.017  33.571   9.436
 1576POPC   PO422032  28.749  33.768   9.448
 1576POPC   GL122033  28.433  33.860   9.145
 1576POPC   GL222034  28.562  34.157   8.976
 1576POPC   C1A22035  28.292  33.602   8.780
 1576POPC   D2A22036  28.532  33.430   8.419
 1576POPC   C3A22037  28.506  33.638   8.026
 1576POPC   C4A22038  28.110  33.656   7.829
 1576POPC   C1B22039  28.591  33.967   8.554
 1576POPC   C2B22040  28.211  33.976   8.292
 1576POPC   C3B22041  27.983  34.175   7.954
 1576POPC   C4B22042  28.121  34.089   7.536
 1577POPC   NC322043  31.324  12.779   9.528
 1577POPC   PO422044  31.887  12.627   9.252
 1577POPC   GL122045  31.695  12.936   9.048
 1577POPC   GL222046  31.340  13.035   9.048
 1577POPC   C1A22047  31.723  13.106   8.680
 1577POPC   D2A22048  31.383  13.069   8.406
 1577POPC   C3A22049  31.421  12.883   8.015
 1577POPC   C4A22050  31.615  12.700   7.692
 1577POPC   C1B22051  31.377  12.688   8.754
 1577POPC   C2B22052  31.253  12.426   8.419
 1577POPC   C3B22053  31.355  12.367   8.020
 1577POPC   C4B22054  31.188  12.437   7.649
 1578POPC   NC322055  11.816  34.119   9.623
 1578POPC   PO422056  12.267  33.567   9.522
 1578POPC   GL122057  12.131  33.704   9.153
 1578POPC   GL222058  11.840  33.698   9.242
 1578POPC   C1A22059  12.229  33.862   8.738
 1578POPC   D2A22060  12.063  33.811   8.329
 1578POPC   C3A22061  12.261  33.943   7.975
 1578POPC   C4A22062  11.925  33.838   7.754
 1578POPC   C1B22063  11.738  33.493   8.861
 1578POPC   C2B22064  11.563  33.661   8.476
 1578POPC   C3B22065  11.510  33.803   8.057
 1578POPC   C4B22066  11.522  33.573   7.635
 1579POPC   NC322067  18.605  44.877   9.536
 1579POPC   PO422068  18.105  44.408   9.494
 1579POPC   GL122069  18.284  44.524   9.127
 1579POPC   GL222070  18.200  44.870   9.130
 1579POPC   C1A22071  18.318  44.667   8.664
 1579POPC   D2A22072  18.506  44.715   8.248
 1579POPC   C3A22073  18.397  44.579   7.869
 1579POPC   C4A22074  18.300  44.936   7.709
 1579POPC   C1B22075  17.977   0.057   8.746
 1579POPC   C2B22076  18.065   0.113   8.300
 1579POPC   C3B22077  17.872   0.122   7.854
 1579POPC   C4B22078  17.931  44.878   7.383
 1580POPC   NC322079  36.047  39.178   9.659
 1580POPC   PO422080  35.821  38.791   9.220
 1580POPC   GL122081  36.116  39.098   9.130
 1580POPC   GL222082  35.915  39.353   9.183
 1580POPC   C1A22083  36.314  39.249   8.766
 1580POPC   D2A22084  36.401  39.416   8.362
 1580POPC   C3A22085  36.410  39.122   8.004
 1580POPC   C4A22086  36.354  39.039   7.571
 1580POPC   C1B22087  35.795  39.315   8.763
 1580POPC   C2B22088  35.894  39.464   8.401
 1580POPC   C3B22089  35.953  39.320   8.032
 1580POPC   C4B22090  36.132  39.482   7.670
 1581POPC   NC322091   3.372   7.505   9.542
 1581POPC   PO422092   3.867   7.976   9.391
 1581POPC   GL122093   3.571   7.736   9.148
 1581POPC   GL222094   3.195   7.674   9.113
 1581POPC   C1A22095   3.592   7.502   8.813
 1581POPC   D2A22096   3.765   7.440   8.431
 1581POPC   C3A22097   3.570   7.168   8.120
 1581POPC   C4A22098   3.608   7.500   7.784
 1581POPC   C1B22099   3.113   7.335   8.856
 1581POPC   C2B22100   3.246   7.415   8.450
 1581POPC   C3B22101   3.169   7.467   8.037
 1581POPC   C4B22102   2.963   7.655   7.723
 1582POPC   NC322103  13.558  33.707   9.625
 1582POPC   PO422104  13.883  34.242   9.622
 1582POPC   GL122105  13.772  33.897   9.220
 1582POPC   GL222106  13.400  33.922   9.161
 1582POPC   C1A22107  13.666  33.654   8.831
 1582POPC   D2A22108  13.449  33.885   8.485
 1582POPC   C3A22109  13.658  33.927   8.095
 1582POPC   C4A22110  13.690  33.866   7.663
 1582POPC   C1B22111  13.159  33.684   8.860
 1582POPC   C2B22112  13.068  33.537   8.433
 1582POPC   C3B22113  13.243  33.481   8.041
 1582POPC   C4B22114  13.238  33.632   7.655
 1583POPC   NC322115  44.275   7.320   9.555
 1583POPC   PO422116  44.897   7.471   9.519
 1583POPC   GL122117  44.703   7.568   9.129
 1583POPC   GL222118  44.352   7.473   9.067
 1583POPC   C1A22119  44.838   7.427   8.712
 1583POPC   D2A22120   0.100   7.542   8.341
 1583POPC   C3A22121  44.850   7.669   8.005
 1583POPC   C4A22122  44.888   7.850   7.558
 1583POPC   C1B22123  44.339   7.175   8.722
 1583POPC   C2B22124  44.556   7.210   8.307
 1583POPC   C3B22125  44.410   7.420   7.919
 1583POPC   C4B22126  44.243   7.198   7.561
 1584POPC   NC322127  27.740   8.908   9.395
 1584POPC   PO422128  27.177   8.899   9.131
 1584POPC   GL122129  27.607   8.910   8.916
 1584POPC   GL222130  27.812   9.220   8.960
 1584POPC   C1A22131  27.783   8.865   8.522
 1584POPC   D2A22132  27.550   8.663   8.177
 1584POPC   C3A22133  27.638   8.817   7.796
 1584POPC   C4A22134  27.425   9.026   7.495
 1584POPC   C1B22135  27.495   9.289   8.612
 1584POPC   C2B22136  27.528   9.174   8.162
 1584POPC   C3B22137  27.737   9.317   7.786
 1584POPC   C4B22138  27.535   9.521   7.420
 1585POPC   NC322139   6.972  32.420   9.475
 1585POPC   PO422140   6.341  32.370   9.292
 1585POPC   GL122141   6.669  32.512   9.064
 1585POPC   GL222142   6.765  32.157   9.072
 1585POPC   C1A22143   6.807  32.414   8.657
 1585POPC   D2A22144   6.607  32.343   8.307
 1585POPC   C3A22145   6.784  32.414   7.977
 1585POPC   C4A22146   6.424  32.383   7.721
 1585POPC   C1B22147   6.794  31.875   8.750
 1585POPC   C2B22148   6.957  31.971   8.396
 1585POPC   C3B22149   6.831  31.915   8.047
 1585POPC   C4B22150   6.795  32.014   7.668
 1586POPC   NC322151  43.002   1.764   9.514
 1586POPC   PO422152  43.261   2.410   9.593
 1586POPC   GL122153  43.130   2.165   9.210
 1586POPC   GL222154  42.805   2.218   9.087
 1586POPC   C1A22155  43.310   1.935   8.808
 1586POPC   D2A22156  43.363   1.748   8.342
 1586POPC   C3A22157  43.240   1.976   7.936
 1586POPC   C4A22158  43.302   1.893   7.436
 1586POPC   C1B22159  42.741   2.025   8.705
 1586POPC   C2B22160  42.638   1.722   8.375
 1586POPC   C3B22161  42.699   1.879   7.961
 1586POPC   C4B22162  42.822   2.094   7.590
 1587POPC   NC322163  27.968  25.195   9.499
 1587POPC   PO422164  28.530  25.503   9.344
 1587POPC   GL122165  28.178  25.457   9.068
 1587POPC   GL222166  28.013  25.147   8.997
 1587POPC   C1A22167  28.316  25.332   8.629
 1587POPC   D2A22168  28.283  25.000   8.315
 1587POPC   C3A22169  28.479  25.173   7.913
 1587POPC   C4A22170  28.794  24.992   7.634
 1587POPC   C1B22171  27.824  25.388   8.673
 1587POPC   C2B22172  27.902  25.339   8.247
 1587POPC   C3B22173  27.973  25.052   7.912
 1587POPC   C4B22174  28.105  25.194   7.484
 1588POPC   NC322175  15.190  14.074   9.345
 1588POPC   PO422176  15.229  14.720   9.539
 1588POPC   GL122177  15.122  14.599   9.111
 1588POPC   GL222178  15.422  14.391   9.001
 1588POPC   C1A22179  15.200  14.690   8.656
 1588POPC   D2A22180  15.353  14.503   8.297
 1588POPC   C3A22181  15.010  14.515   8.049
 1588POPC   C4A22182  14.797  14.810   7.793
 1588POPC   C1B22183  15.188  14.142   8.667
 1588POPC   C2B22184  14.945  14.070   8.277
 1588POPC   C3B22185  15.130  14.067   7.867
 1588POPC   C4B22186  15.525  14.242   7.848
 1589POPC   NC322187  42.498  31.711   9.557
 1589POPC   PO422188  42.053  31.254   9.518
 1589POPC   GL122189  42.163  31.411   9.155
 1589POPC   GL222190  42.509  31.378   9.166
 1589POPC   C1A22191  42.178  31.271   8.738
 1589POPC   D2A22192  42.348  31.153   8.352
 1589POPC   C3A22193  42.077  31.199   8.054
 1589POPC   C4A22194  42.187  31.371   7.706
 1589POPC   C1B22195  42.456  31.691   8.831
 1589POPC   C2B22196  42.639  31.626   8.449
 1589POPC   C3B22197  42.496  31.564   8.053
 1589POPC   C4B22198  42.666  31.565   7.628
 1590POPC   NC322199  29.685   9.304   9.585
 1590POPC   PO422200  29.890   8.653   9.495
 1590POPC   GL122201  30.042   8.883   9.161
 1590POPC   GL222202  30.287   8.638   9.076
 1590POPC   C1A22203  30.266   9.108   8.839
 1590POPC   D2A22204  30.314   9.265   8.424
 1590POPC   C3A22205  29.935   9.158   8.188
 1590POPC   C4A22206  30.050   9.060   7.786
 1590POPC   C1B22207  30.046   8.599   8.733
 1590POPC   C2B22208  30.189   8.752   8.365
 1590POPC   C3B22209  30.163   8.605   7.964
 1590POPC   C4B22210  29.989   8.504   7.579
 1591POPC   NC322211  31.305   3.405   9.441
 1591POPC   PO422212  31.930   3.717   9.441
 1591POPC   GL122213  31.637   3.681   9.083
 1591POPC   GL222214  31.272   3.688   8.991
 1591POPC   C1A22215  31.597   3.483   8.669
 1591POPC   D2A22216  31.422   3.613   8.290
 1591POPC   C3A22217  31.721   3.385   8.054
 1591POPC   C4A22218  31.718   3.430   7.640
 1591POPC   C1B22219  31.130   3.302   8.741
 1591POPC   C2B22220  31.286   3.132   8.363
 1591POPC   C3B22221  31.258   3.267   7.924
 1591POPC   C4B22222  31.270   3.654   7.740
 1592POPC   NC322223  10.507  40.602   9.457
 1592POPC   PO422224  10.878  41.092   9.492
 1592POPC   GL122225  10.945  40.845   9.124
 1592POPC   GL222226  10.620  40.742   8.982
 1592POPC   C1A22227  11.006  40.719   8.669
 1592POPC   D2A22228  10.655  40.841   8.392
 1592POPC   C3A22229  10.604  40.756   7.970
 1592POPC   C4A22230  10.768  40.785   7.602
 1592POPC   C1B22231  10.528  40.421   8.650
 1592POPC   C2B22232  10.399  40.338   8.193
 1592POPC   C3B22233  10.121  40.497   7.834
 1592POPC   C4B22234   9.891  40.735   7.475
 1593POPC   NC322235  35.099  12.348   9.563
 1593POPC   PO422236  35.757  12.095   9.446
 1593POPC   GL122237  35.319  12.062   9.206
 1593POPC   GL222238  35.010  12.318   9.091
 1593POPC   C1A22239  35.320  12.027   8.785
 1593POPC   D2A22240  35.569  11.830   8.486
 1593POPC   C3A22241  35.468  11.976   8.127
 1593POPC   C4A22242  35.527  12.203   7.780
 1593POPC   C1B22243  34.885  12.382   8.721
 1593POPC   C2B22244  35.091  12.239   8.390
 1593POPC   C3B22245  35.079  12.358   8.019
 1593POPC   C4B22246  35.028  12.209   7.632
 1594POPC   NC322247  19.101   2.247   9.356
 1594POPC   PO422248  18.717   1.770   9.404
 1594POPC   GL122249  19.080   1.835   9.080
 1594POPC   GL222250  18.926   2.037   8.887
 1594POPC   C1A22251  19.386   1.947   8.759
 1594POPC   D2A22252  19.519   2.106   8.348
 1594POPC   C3A22253  19.349   1.853   8.029
 1594POPC   C4A22254  19.175   2.006   7.626
 1594POPC   C1B22255  18.995   1.753   8.467
 1594POPC   C2B22256  18.854   1.806   8.016
 1594POPC   C3B22257  18.720   2.154   7.778
 1594POPC   C4B22258  18.696   2.531   7.574
 1595POPC   NC322259  44.006  12.939   9.393
 1595POPC   PO422260  43.769  12.280   9.501
 1595POPC   GL122261  43.826  12.523   9.119
 1595POPC   GL222262  43.651  12.795   9.032
 1595POPC   C1A22263  43.978  12.571   8.682
 1595POPC   D2A22264  44.211  12.851   8.375
 1595POPC   C3A22265  44.075  12.786   7.947
 1595POPC   C4A22266  43.669  12.699   7.750
 1595POPC   C1B22267  43.761  13.037   8.707
 1595POPC   C2B22268  43.662  12.887   8.298
 1595POPC   C3B22269  43.729  13.157   7.971
 1595POPC   C4B22270  44.165  13.285   7.840
 1596POPC   NC322271  26.419  40.722   9.433
 1596POPC   PO422272  27.003  40.449   9.573
 1596POPC   GL122273  26.903  40.562   9.168
 1596POPC   GL222274  26.873  40.917   9.185
 1596POPC   C1A22275  26.779  40.634   8.742
 1596POPC   D2A22276  26.628  40.987   8.534
 1596POPC   C3A22277  26.615  40.850   8.127
 1596POPC   C4A22278  26.786  40.851   7.746
 1596POPC   C1B22279  27.103  41.035   8.822
 1596POPC   C2B22280  27.119  40.918   8.405
 1596POPC   C3B22281  27.165  41.055   7.994
 1596POPC   C4B22282  27.247  40.998   7.539
 1597POPC   NC322283  16.996  28.103   9.440
 1597POPC   PO422284  16.468  27.559   9.409
 1597POPC   GL122285  16.823  27.684   9.157
 1597POPC   GL222286  17.144  27.582   9.304
 1597POPC   C1A22287  16.921  27.783   8.736
 1597POPC   D2A22288  16.691  27.759   8.358
 1597POPC   C3A22289  16.625  27.409   8.101
 1597POPC   C4A22290  16.656  27.638   7.731
 1597POPC   C1B22291  17.201  27.381   8.894
 1597POPC   C2B22292  17.008  27.353   8.479
 1597POPC   C3B22293  17.157  27.459   8.074
 1597POPC   C4B22294  17.165  27.743   7.726
 1598POPC   NC322295  26.387  17.028   9.655
 1598POPC   PO422296  26.360  16.416   9.266
 1598POPC   GL122297  26.020  16.676   9.057
 1598POPC   GL222298  25.917  16.972   9.189
 1598POPC   C1A22299  25.899  16.606   8.667
 1598POPC   D2A22300  26.132  16.491   8.309
 1598POPC   C3A22301  25.997  16.638   7.910
 1598POPC   C4A22302  26.018  16.572   7.478
 1598POPC   C1B22303  25.952  17.119   8.753
 1598POPC   C2B22304  25.826  16.983   8.331
 1598POPC   C3B22305  25.819  17.141   7.925
 1598POPC   C4B22306  26.111  17.071   7.582
 1599POPC   NC322307  10.930  22.798   9.421
 1599POPC   PO422308  10.722  23.489   9.469
 1599POPC   GL122309  10.581  23.179   9.120
 1599POPC   GL222310  10.682  22.823   8.976
 1599POPC   C1A22311  10.324  23.080   8.743
 1599POPC   D2A22312  10.565  22.833   8.412
 1599POPC   C3A22313  10.431  22.893   7.986
 1599POPC   C4A22314  10.318  22.652   7.649
 1599POPC   C1B22315  10.987  22.544   8.783
 1599POPC   C2B22316  11.007  22.318   8.411
 1599POPC   C3B22317  10.788  22.417   8.043
 1599POPC   C4B22318  10.839  22.593   7.655
 1600POPC   NC322319  26.801  28.091   9.618
 1600POPC   PO422320  27.183  28.617   9.279
 1600POPC   GL122321  26.905  28.405   8.961
 1600POPC   GL222322  26.891  28.086   9.060
 1600POPC   C1A22323  26.523  28.592   8.731
 1600POPC   D2A22324  26.544  28.830   8.356
 1600POPC   C3A22325  26.779  28.568   8.077
 1600POPC   C4A22326  26.530  28.397   7.760
 1600POPC   C1B22327  26.561  28.081   8.700
 1600POPC   C2B22328  26.460  28.203   8.292
 1600POPC   C3B22329  26.746  28.044   8.019
 1600POPC   C4B22330  27.006  28.205   7.672
 1601POPC   NC322331  41.179   2.943   9.482
 1601POPC   PO422332  40.659   2.480   9.664
 1601POPC   GL122333  40.744   2.581   9.173
 1601POPC   GL222334  41.015   2.774   9.039
 1601POPC   C1A22335  40.688   2.683   8.681
 1601POPC   D2A22336  40.611   3.074   8.437
 1601POPC   C3A22337  40.818   3.054   8.030
 1601POPC   C4A22338  40.612   3.148   7.644
 1601POPC   C1B22339  41.208   2.606   8.693
 1601POPC   C2B22340  41.096   2.447   8.310
 1601POPC   C3B22341  41.208   2.640   7.949
 1601POPC   C4B22342  41.127   2.904   7.632
 1602POPC   NC322343  12.496  35.558   9.386
 1602POPC   PO422344  13.200  35.659   9.517
 1602POPC   GL122345  12.971  35.426   9.182
 1602POPC   GL222346  12.827  35.070   9.206
 1602POPC   C1A22347  12.920  35.496   8.738
 1602POPC   D2A22348  12.902  35.217   8.375
 1602POPC   C3A22349  12.877  35.428   7.992
 1602POPC   C4A22350  13.208  35.682   7.866
 1602POPC   C1B22351  13.130  35.043   8.840
 1602POPC   C2B22352  13.233  34.841   8.439
 1602POPC   C3B22353  13.260  35.056   8.017
 1602POPC   C4B22354  12.971  35.048   7.662
 1603POPC   NC322355   1.944   3.912   9.408
 1603POPC   PO422356   2.138   3.288   9.526
 1603POPC   GL122357   1.957   3.403   9.131
 1603POPC   GL222358   1.742   3.623   9.029
 1603POPC   C1A22359   2.173   3.556   8.743
 1603POPC   D2A22360   2.388   3.492   8.370
 1603POPC   C3A22361   2.262   3.703   7.978
 1603POPC   C4A22362   1.969   3.487   7.741
 1603POPC   C1B22363   1.685   3.616   8.593
 1603POPC   C2B22364   1.750   3.847   8.199
 1603POPC   C3B22365   1.514   3.727   7.808
 1603POPC   C4B22366   1.689   3.744   7.388
 1604POPC   NC322367   2.846  37.320   9.287
 1604POPC   PO422368   2.464  36.857   9.559
 1604POPC   GL122369   2.546  36.934   9.122
 1604POPC   GL222370   2.867  36.745   9.084
 1604POPC   C1A22371   2.641  37.173   8.703
 1604POPC   D2A22372   3.019  37.094   8.431
 1604POPC   C3A22373   2.886  36.930   8.029
 1604POPC   C4A22374   2.511  37.084   7.811
 1604POPC   C1B22375   2.629  36.664   8.687
 1604POPC   C2B22376   2.461  36.824   8.293
 1604POPC   C3B22377   2.529  36.580   7.893
 1604POPC   C4B22378   2.914  36.571   7.639
 1605POPC   NC322379   0.051   2.723   9.489
 1605POPC   PO422380   0.570   2.419   9.618
 1605POPC   GL122381   0.360   2.540   9.152
 1605POPC   GL222382   0.568   2.801   8.926
 1605POPC   C1A22383   0.101   2.697   8.797
 1605POPC   D2A22384   0.123   2.531   8.379
 1605POPC   C3A22385   0.118   2.686   7.933
 1605POPC   C4A22386   0.279   2.537   7.529
 1605POPC   C1B22387   0.578   2.556   8.603
 1605POPC   C2B22388   0.524   2.830   8.249
 1605POPC   C3B22389   0.569   2.886   7.802
 1605POPC   C4B22390   0.452   3.046   7.421
 1606POPC   NC322391  19.239  17.895   9.577
 1606POPC   PO422392  18.782  17.308   9.505
 1606POPC   GL122393  19.064  17.434   9.151
 1606POPC   GL222394  19.238  17.705   9.118
 1606POPC   C1A22395  19.271  17.379   8.738
 1606POPC   D2A22396  18.997  17.290   8.398
 1606POPC   C3A22397  19.053  17.209   7.997
 1606POPC   C4A22398  18.811  17.476   7.738
 1606POPC   C1B22399  19.113  17.934   8.778
 1606POPC   C2B22400  19.273  17.778   8.383
 1606POPC   C3B22401  19.305  17.644   7.966
 1606POPC   C4B22402  19.436  17.712   7.541
 1607POPC   NC322403  11.387  25.638   9.881
 1607POPC   PO422404  11.453  26.234   9.589
 1607POPC   GL122405  11.189  26.057   9.288
 1607POPC   GL222406  11.419  25.909   9.078
 1607POPC   C1A22407  11.093  26.116   8.805
 1607POPC   D2A22408  11.303  26.142   8.464
 1607POPC   C3A22409  11.206  25.883   8.132
 1607POPC   C4A22410  11.266  26.041   7.718
 1607POPC   C1B22411  11.674  25.956   8.766
 1607POPC   C2B22412  11.698  25.845   8.349
 1607POPC   C3B22413  11.712  26.034   7.958
 1607POPC   C4B22414  11.707  25.865   7.534
 1608POPC   NC322415  34.871   4.800   9.481
 1608POPC   PO422416  35.474   5.070   9.580
 1608POPC   GL122417  35.274   4.983   9.200
 1608POPC   GL222418  35.018   5.261   9.153
 1608POPC   C1A22419  35.220   4.969   8.767
 1608POPC   D2A22420  35.364   5.225   8.430
 1608POPC   C3A22421  35.323   5.062   8.038
 1608POPC   C4A22422  35.239   5.015   7.630
 1608POPC   C1B22423  34.857   5.326   8.694
 1608POPC   C2B22424  34.906   5.336   8.190
 1608POPC   C3B22425  35.125   5.481   7.760
 1608POPC   C4B22426  34.989   5.355   7.285
 1609POPC   NC322427  25.760  41.701   9.602
 1609POPC   PO422428  26.162  41.106   9.603
 1609POPC   GL122429  26.057  41.445   9.260
 1609POPC   GL222430  25.757  41.627   9.125
 1609POPC   C1A22431  26.093  41.449   8.824
 1609POPC   D2A22432  25.955  41.424   8.427
 1609POPC   C3A22433  26.171  41.182   8.147
 1609POPC   C4A22434  26.029  41.326   7.745
 1609POPC   C1B22435  25.897  41.921   8.822
 1609POPC   C2B22436  25.826  41.925   8.413
 1609POPC   C3B22437  26.023  41.764   8.034
 1609POPC   C4B22438  25.725  41.725   7.710
 1610POPC   NC322439   1.184   4.847   9.472
 1610POPC   PO422440   1.276   5.513   9.375
 1610POPC   GL122441   1.201   5.189   9.065
 1610POPC   GL222442   0.916   4.958   9.065
 1610POPC   C1A22443   1.088   5.137   8.634
 1610POPC   D2A22444   0.843   5.016   8.323
 1610POPC   C3A22445   0.947   5.317   8.008
 1610POPC   C4A22446   1.270   5.289   7.713
 1610POPC   C1B22447   1.219   4.699   8.838
 1610POPC   C2B22448   1.408   4.701   8.461
 1610POPC   C3B22449   1.377   4.700   8.068
 1610POPC   C4B22450   1.235   4.778   7.681
 1611POPC   NC322451  36.641   6.698   9.634
 1611POPC   PO422452  36.765   7.290   9.496
 1611POPC   GL122453  36.771   6.894   9.164
 1611POPC   GL222454  36.640   6.527   9.157
 1611POPC   C1A22455  36.877   6.710   8.746
 1611POPC   D2A22456  37.057   6.798   8.318
 1611POPC   C3A22457  36.738   6.701   8.076
 1611POPC   C4A22458  36.652   6.445   7.655
 1611POPC   C1B22459  36.491   6.257   8.836
 1611POPC   C2B22460  36.656   6.352   8.443
 1611POPC   C3B22461  36.855   6.230   8.075
 1611POPC   C4B22462  36.823   5.886   7.894
 1612POPC   NC322463  44.436  13.937   9.471
 1612POPC   PO422464  44.308  13.279   9.474
 1612POPC   GL122465  44.591  13.495   9.169
 1612POPC   GL222466  44.834  13.780   9.213
 1612POPC   C1A22467  44.469  13.548   8.742
 1612POPC   D2A22468  44.335  13.401   8.324
 1612POPC   C3A22469  44.540  13.613   7.963
 1612POPC   C4A22470  44.596  13.461   7.529
 1612POPC   C1B22471  44.975  13.691   8.813
 1612POPC   C2B22472  44.815  13.717   8.406
 1612POPC   C3B22473   0.036  13.733   8.024
 1612POPC   C4B22474  44.906  13.869   7.614
 1613POPC   NC322475   0.737  12.650   9.768
 1613POPC   PO422476   0.202  13.000   9.511
 1613POPC   GL122477   0.446  12.726   9.284
 1613POPC   GL222478   0.440  12.958   9.069
 1613POPC   C1A22479   0.690  12.567   8.927
 1613POPC   D2A22480   0.692  12.522   8.471
 1613POPC   C3A22481   0.706  12.772   8.133
 1613POPC   C4A22482   0.595  12.505   7.782
 1613POPC   C1B22483   0.250  12.787   8.758
 1613POPC   C2B22484   0.243  12.947   8.373
 1613POPC   C3B22485   0.218  12.796   7.971
 1613POPC   C4B22486   0.432  12.943   7.582
 1614POPC   NC322487  13.002  10.455   9.537
 1614POPC   PO422488  12.447  10.813   9.465
 1614POPC   GL122489  12.685  10.517   9.136
 1614POPC   GL222490  13.008  10.285   9.075
 1614POPC   C1A22491  12.876  10.658   8.754
 1614POPC   D2A22492  12.695  10.826   8.396
 1614POPC   C3A22493  12.943  10.798   8.043
 1614POPC   C4A22494  12.910  10.706   7.624
 1614POPC   C1B22495  12.772  10.139   8.751
 1614POPC   C2B22496  12.889  10.289   8.373
 1614POPC   C3B22497  12.770  10.339   7.982
 1614POPC   C4B22498  13.087  10.259   7.736
 1615POPC   NC322499  37.882  18.687   9.773
 1615POPC   PO422500  37.477  18.298   9.457
 1615POPC   GL122501  37.727  18.256   9.147
 1615POPC   GL222502  37.697  18.612   9.131
 1615POPC   C1A22503  37.771  18.017   8.777
 1615POPC   D2A22504  37.884  18.186   8.374
 1615POPC   C3A22505  37.532  18.089   8.118
 1615POPC   C4A22506  37.437  18.035   7.696
 1615POPC   C1B22507  37.901  18.557   8.755
 1615POPC   C2B22508  37.770  18.694   8.374
 1615POPC   C3B22509  37.818  18.530   7.961
 1615POPC   C4B22510  37.945  18.637   7.539
 1616POPC   NC322511  32.034  18.597   9.340
 1616POPC   PO422512  32.478  18.211   9.608
 1616POPC   GL122513  32.447  18.355   9.177
 1616POPC   GL222514  32.118  18.164   9.087
 1616POPC   C1A22515  32.355  18.465   8.732
 1616POPC   D2A22516  32.160  18.145   8.457
 1616POPC   C3A22517  32.090  18.232   8.036
 1616POPC   C4A22518  32.272  18.566   7.876
 1616POPC   C1B22519  32.425  17.944   8.861
 1616POPC   C2B22520  32.441  17.703   8.484
 1616POPC   C3B22521  32.481  17.903   8.095
 1616POPC   C4B22522  32.310  17.907   7.706
 1617POPC   NC322523   0.675  35.659   9.448
 1617POPC   PO422524   0.915  36.439   9.430
 1617POPC   GL122525   0.580  36.164   9.236
 1617POPC   GL222526   0.225  36.303   9.213
 1617POPC   C1A22527   0.454  35.950   8.838
 1617POPC   D2A22528   0.494  36.138   8.412
 1617POPC   C3A22529   0.403  35.945   8.018
 1617POPC   C4A22530   0.615  36.073   7.630
 1617POPC   C1B22531   0.305  36.464   8.792
 1617POPC   C2B22532   0.284  36.608   8.351
 1617POPC   C3B22533   0.332  36.454   7.913
 1617POPC   C4B22534   0.275  36.405   7.466
 1618POPC   NC322535  16.543  23.862   9.417
 1618POPC   PO422536  16.617  23.266   9.693
 1618POPC   GL122537  16.894  23.471   9.268
 1618POPC   GL222538  16.770  23.771   9.005
 1618POPC   C1A22539  16.883  23.355   8.800
 1618POPC   D2A22540  16.481  23.309   8.582
 1618POPC   C3A22541  16.479  23.443   8.152
 1618POPC   C4A22542  16.703  23.389   7.763
 1618POPC   C1B22543  16.578  24.073   8.750
 1618POPC   C2B22544  16.508  24.156   8.323
 1618POPC   C3B22545  16.255  24.242   7.958
 1618POPC   C4B22546  16.283  24.054   7.533
 1619POPC   NC322547   8.148  43.636   9.383
 1619POPC   PO422548   8.642  43.205   9.583
 1619POPC   GL122549   8.350  43.164   9.197
 1619POPC   GL222550   7.943  43.200   9.205
 1619POPC   C1A22551   8.444  43.003   8.768
 1619POPC   D2A22552   8.329  43.174   8.379
 1619POPC   C3A22553   8.359  42.995   7.978
 1619POPC   C4A22554   8.364  43.262   7.589
 1619POPC   C1B22555   8.050  43.372   8.787
 1619POPC   C2B22556   7.906  43.479   8.378
 1619POPC   C3B22557   7.999  43.351   7.958
 1619POPC   C4B22558   7.854  43.051   7.635
 1620POPC   NC322559   9.679  32.182   9.703
 1620POPC   PO422560  10.178  32.606   9.492
 1620POPC   GL122561   9.934  32.407   9.167
 1620POPC   GL222562   9.865  32.070   9.220
 1620POPC   C1A22563   9.557  32.300   8.845
 1620POPC   D2A22564   9.345  32.318   8.395
 1620POPC   C3A22565   9.486  32.042   8.063
 1620POPC   C4A22566   9.619  32.262   7.732
 1620POPC   C1B22567  10.037  32.105   8.780
 1620POPC   C2B22568  10.017  31.861   8.430
 1620POPC   C3B22569   9.985  31.907   7.990
 1620POPC   C4B22570   9.883  31.831   7.557
 1621POPC   NC322571  30.087  36.556   9.381
 1621POPC   PO422572  29.643  37.027   9.425
 1621POPC   GL122573  29.914  37.253   9.162
 1621POPC   GL222574  30.080  36.938   9.069
 1621POPC   C1A22575  30.035  37.270   8.725
 1621POPC   D2A22576  29.938  36.969   8.413
 1621POPC   C3A22577  30.063  37.113   7.999
 1621POPC   C4A22578  29.671  37.221   7.821
 1621POPC   C1B22579  29.731  36.695   8.849
 1621POPC   C2B22580  29.817  36.468   8.484
 1621POPC   C3B22581  30.073  36.565   8.110
 1621POPC   C4B22582  30.040  36.681   7.676
 1622POPC   NC322583  12.535  27.678   9.509
 1622POPC   PO422584  13.076  27.251   9.566
 1622POPC   GL122585  12.871  27.458   9.160
 1622POPC   GL222586  13.035  27.768   9.052
 1622POPC   C1A22587  12.598  27.701   8.808
 1622POPC   D2A22588  12.454  27.902   8.392
 1622POPC   C3A22589  12.573  27.762   7.992
 1622POPC   C4A22590  12.818  27.432   7.877
 1622POPC   C1B22591  13.055  27.521   8.677
 1622POPC   C2B22592  12.970  27.721   8.321
 1622POPC   C3B22593  13.080  27.892   7.955
 1622POPC   C4B22594  13.019  27.723   7.537
 1623POPC   NC322595  11.644  13.052   9.624
 1623POPC   PO422596  11.085  12.665   9.516
 1623POPC   GL122597  11.159  12.803   9.113
 1623POPC   GL222598  11.501  12.933   9.128
 1623POPC   C1A22599  11.234  12.841   8.677
 1623POPC   D2A22600  11.249  13.149   8.346
 1623POPC   C3A22601  11.274  13.037   7.926
 1623POPC   C4A22602  11.035  12.801   7.651
 1623POPC   C1B22603  11.725  12.954   8.714
 1623POPC   C2B22604  11.648  12.808   8.278
 1623POPC   C3B22605  11.689  12.745   7.818
 1623POPC   C4B22606  11.476  12.769   7.375
 1624POPC   NC322607  21.754  42.213   9.710
 1624POPC   PO422608  21.188  41.972   9.350
 1624POPC   GL122609  21.380  42.193   9.032
 1624POPC   GL222610  21.508  42.435   9.272
 1624POPC   C1A22611  21.570  42.139   8.619
 1624POPC   D2A22612  21.589  41.806   8.334
 1624POPC   C3A22613  21.530  41.989   7.950
 1624POPC   C4A22614  21.327  42.288   7.693
 1624POPC   C1B22615  21.713  42.601   8.910
 1624POPC   C2B22616  21.795  42.595   8.507
 1624POPC   C3B22617  21.659  42.498   8.097
 1624POPC   C4B22618  21.347  42.750   7.900
 1625POPC   NC322619  34.693   0.861   9.404
 1625POPC   PO422620  34.856   0.174   9.472
 1625POPC   GL122621  34.840   0.454   9.136
 1625POPC   GL222622  34.457   0.477   9.125
 1625POPC   C1A22623  34.756   0.567   8.716
 1625POPC   D2A22624  34.443   0.337   8.479
 1625POPC   C3A22625  34.653   0.300   8.111
 1625POPC   C4A22626  34.850   0.543   7.799
 1625POPC   C1B22627  34.251   0.727   8.786
 1625POPC   C2B22628  34.071   0.645   8.367
 1625POPC   C3B22629  34.247   0.628   7.972
 1625POPC   C4B22630  34.373   0.342   7.710
 1626POPC   NC322631  33.235  30.384   9.717
 1626POPC   PO422632  33.558  30.923   9.467
 1626POPC   GL122633  33.250  30.796   9.196
 1626POPC   GL222634  33.330  30.430   9.185
 1626POPC   C1A22635  33.089  30.996   8.811
 1626POPC   D2A22636  32.890  30.848   8.449
 1626POPC   C3A22637  33.025  30.866   8.024
 1626POPC   C4A22638  32.724  30.634   7.847
 1626POPC   C1B22639  33.261  30.518   8.749
 1626POPC   C2B22640  33.376  30.670   8.353
 1626POPC   C3B22641  33.298  30.453   7.963
 1626POPC   C4B22642  33.124  30.258   7.637
 1627POPC   NC322643   0.979  15.720   9.459
 1627POPC   PO422644   1.561  16.128   9.605
 1627POPC   GL122645   1.257  16.103   9.236
 1627POPC   GL222646   1.033  16.393   9.193
 1627POPC   C1A22647   1.092  15.942   8.840
 1627POPC   D2A22648   1.264  15.791   8.457
 1627POPC   C3A22649   0.981  15.658   8.131
 1627POPC   C4A22650   1.154  15.771   7.698
 1627POPC   C1B22651   1.207  16.437   8.786
 1627POPC   C2B22652   1.322  16.347   8.371
 1627POPC   C3B22653   1.077  16.161   8.066
 1627POPC   C4B22654   0.945  16.286   7.669
 1628POPC   NC322655  33.030  35.669   9.570
 1628POPC   PO422656  33.457  35.070   9.667
 1628POPC   GL122657  33.240  35.382   9.253
 1628POPC   GL222658  32.951  35.222   9.164
 1628POPC   C1A22659  33.214  35.440   8.776
 1628POPC   D2A22660  33.363  35.596   8.367
 1628POPC   C3A22661  33.297  35.329   8.065
 1628POPC   C4A22662  33.202  35.323   7.664
 1628POPC   C1B22663  32.695  35.286   8.796
 1628POPC   C2B22664  32.626  35.191   8.359
 1628POPC   C3B22665  32.788  35.436   8.016
 1628POPC   C4B22666  32.589  35.550   7.631
 1629POPC   NC322667  24.572  12.855   9.485
 1629POPC   PO422668  23.938  13.178   9.467
 1629POPC   GL122669  24.228  13.104   9.156
 1629POPC   GL222670  24.285  12.778   9.073
 1629POPC   C1A22671  24.538  13.132   8.832
 1629POPC   D2A22672  24.446  13.003   8.431
 1629POPC   C3A22673  24.670  12.990   8.070
 1629POPC   C4A22674  24.530  13.199   7.694
 1629POPC   C1B22675  24.595  12.627   8.781
 1629POPC   C2B22676  24.685  12.459   8.386
 1629POPC   C3B22677  24.669  12.473   7.930
 1629POPC   C4B22678  24.711  12.716   7.541
 1630POPC   NC322679  14.751   9.009   9.542
 1630POPC   PO422680  14.162   8.611   9.478
 1630POPC   GL122681  14.263   8.875   9.116
 1630POPC   GL222682  14.602   9.066   9.068
 1630POPC   C1A22683  14.436   8.803   8.701
 1630POPC   D2A22684  14.500   8.969   8.318
 1630POPC   C3A22685  14.386   8.720   7.969
 1630POPC   C4A22686  14.286   8.867   7.513
 1630POPC   C1B22687  14.763   9.275   8.657
 1630POPC   C2B22688  14.833   9.324   8.191
 1630POPC   C3B22689  14.537   9.186   7.846
 1630POPC   C4B22690  14.479   9.336   7.412
 1631POPC   NC322691   9.523  44.141   9.604
 1631POPC   PO422692  10.031  43.702   9.744
 1631POPC   GL122693   9.838  43.754   9.282
 1631POPC   GL222694   9.763  44.085   9.166
 1631POPC   C1A22695   9.926  43.795   8.793
 1631POPC   D2A22696   9.950  43.600   8.338
 1631POPC   C3A22697   9.924  43.718   7.876
 1631POPC   C4A22698   9.613  43.683   7.534
 1631POPC   C1B22699   9.537  44.218   8.805
 1631POPC   C2B22700   9.657  44.043   8.422
 1631POPC   C3B22701   9.528  44.031   8.014
 1631POPC   C4B22702   9.751  44.163   7.658
 1632POPC   NC322703  32.821  38.863   9.600
 1632POPC   PO422704  33.302  38.490   9.359
 1632POPC   GL122705  32.971  38.577   9.076
 1632POPC   GL222706  32.693  38.805   9.102
 1632POPC   C1A22707  33.104  38.497   8.668
 1632POPC   D2A22708  33.091  38.202   8.338
 1632POPC   C3A22709  33.348  38.266   8.002
 1632POPC   C4A22710  33.240  38.286   7.586
 1632POPC   C1B22711  32.610  38.600   8.677
 1632POPC   C2B22712  32.701  38.554   8.237
 1632POPC   C3B22713  32.873  38.567   7.835
 1632POPC   C4B22714  32.727  38.899   7.548
 1633POPC   NC322715   5.653  18.637   9.352
 1633POPC   PO422716   5.949  18.067   9.643
 1633POPC   GL122717   5.813  18.014   9.201
 1633POPC   GL222718   5.980  17.691   9.182
 1633POPC   C1A22719   5.793  18.213   8.776
 1633POPC   D2A22720   5.970  18.316   8.365
 1633POPC   C3A22721   5.643  18.296   8.037
 1633POPC   C4A22722   5.544  18.472   7.624
 1633POPC   C1B22723   6.122  17.837   8.782
 1633POPC   C2B22724   6.229  17.781   8.384
 1633POPC   C3B22725   6.059  17.958   8.006
 1633POPC   C4B22726   6.099  18.323   7.733
 1634POPC   NC322727  31.800  29.788   9.537
 1634POPC   PO422728  31.272  30.107   9.407
 1634POPC   GL122729  31.375  30.043   9.018
 1634POPC   GL222730  31.709  30.038   9.071
 1634POPC   C1A22731  31.430  29.860   8.620
 1634POPC   D2A22732  31.345  29.610   8.247
 1634POPC   C3A22733  31.455  29.829   7.847
 1634POPC   C4A22734  31.242  29.883   7.407
 1634POPC   C1B22735  31.857  30.218   8.730
 1634POPC   C2B22736  31.769  30.097   8.295
 1634POPC   C3B22737  31.920  30.052   7.879
 1634POPC   C4B22738  31.731  30.035   7.447
 1635POPC   NC322739  18.311  32.130   9.737
 1635POPC   PO422740  18.516  32.720   9.492
 1635POPC   GL122741  18.474  32.296   9.256
 1635POPC   GL222742  18.193  32.031   9.252
 1635POPC   C1A22743  18.290  32.288   8.837
 1635POPC   D2A22744  18.452  32.168   8.461
 1635POPC   C3A22745  18.414  32.386   8.099
 1635POPC   C4A22746  18.472  32.206   7.700
 1635POPC   C1B22747  18.079  31.812   8.866
 1635POPC   C2B22748  17.974  31.974   8.454
 1635POPC   C3B22749  18.074  32.011   8.033
 1635POPC   C4B22750  17.936  32.258   7.706
 1636POPC   NC322751  17.037  13.630   9.387
 1636POPC   PO422752  16.429  13.958   9.340
 1636POPC   GL122753  16.708  13.868   9.068
 1636POPC   GL222754  16.654  13.502   9.070
 1636POPC   C1A22755  16.907  13.721   8.710
 1636POPC   D2A22756  16.742  13.510   8.358
 1636POPC   C3A22757  16.935  13.530   7.969
 1636POPC   C4A22758  16.882  13.735   7.594
 1636POPC   C1B22759  16.435  13.327   8.727
 1636POPC   C2B22760  16.221  13.453   8.345
 1636POPC   C3B22761  16.417  13.387   7.953
 1636POPC   C4B22762  16.626  13.070   7.739
 1637POPC   NC322763   0.283  34.107   9.418
 1637POPC   PO422764   0.195  33.374   9.435
 1637POPC   GL122765   0.308  33.523   9.066
 1637POPC   GL222766   0.574  33.753   9.157
 1637POPC   C1A22767   0.082  33.748   8.764
 1637POPC   D2A22768   0.228  33.990   8.420
 1637POPC   C3A22769   0.310  33.777   8.056
 1637POPC   C4A22770   0.246  33.959   7.681
 1637POPC   C1B22771   0.532  34.001   8.812
 1637POPC   C2B22772   0.739  34.033   8.402
 1637POPC   C3B22773   0.637  34.191   7.988
 1637POPC   C4B22774   0.740  33.924   7.607
 1638POPC   NC322775  11.139  37.519   9.694
 1638POPC   PO422776  10.479  37.598   9.570
 1638POPC   GL122777  10.558  37.580   9.161
 1638POPC   GL222778  10.885  37.416   9.125
 1638POPC   C1A22779  10.473  37.758   8.764
 1638POPC   D2A22780  10.508  37.549   8.349
 1638POPC   C3A22781  10.471  37.775   7.996
 1638POPC   C4A22782  10.157  37.815   7.750
 1638POPC   C1B22783  10.618  37.258   8.771
 1638POPC   C2B22784  10.719  37.095   8.376
 1638POPC   C3B22785  10.884  37.292   7.999
 1638POPC   C4B22786  10.725  37.501   7.659
 1639POPC   NC322787  19.960  22.571   9.601
 1639POPC   PO422788  19.948  21.971   9.340
 1639POPC   GL122789  20.121  22.178   9.024
 1639POPC   GL222790  20.314  22.417   9.187
 1639POPC   C1A22791  19.975  22.192   8.610
 1639POPC   D2A22792  19.762  21.911   8.327
 1639POPC   C3A22793  19.855  22.152   8.010
 1639POPC   C4A22794  19.611  22.468   7.813
 1639POPC   C1B22795  20.436  22.451   8.722
 1639POPC   C2B22796  20.326  22.387   8.269
 1639POPC   C3B22797  20.274  22.434   7.825
 1639POPC   C4B22798  19.978  22.238   7.529
 1640POPC   NC322799  18.530  16.179   9.499
 1640POPC   PO422800  17.904  15.873   9.544
 1640POPC   GL122801  18.223  15.828   9.210
 1640POPC   GL222802  18.177  16.140   9.073
 1640POPC   C1A22803  18.316  15.804   8.744
 1640POPC   D2A22804  18.251  16.105   8.406
 1640POPC   C3A22805  18.203  15.857   8.068
 1640POPC   C4A22806  18.421  15.669   7.722
 1640POPC   C1B22807  17.891  16.261   8.752
 1640POPC   C2B22808  17.734  16.369   8.350
 1640POPC   C3B22809  17.916  16.322   7.945
 1640POPC   C4B22810  18.235  16.148   7.663
 1641POPC   NC322811  43.454   7.888   9.515
 1641POPC   PO422812  43.108   7.216   9.492
 1641POPC   GL122813  43.100   7.340   9.094
 1641POPC   GL222814  43.104   7.667   9.156
 1641POPC   C1A22815  43.343   7.205   8.737
 1641POPC   D2A22816  43.511   7.115   8.325
 1641POPC   C3A22817  43.260   7.308   7.994
 1641POPC   C4A22818  43.237   7.141   7.603
 1641POPC   C1B22819  43.041   7.790   8.785
 1641POPC   C2B22820  43.123   7.612   8.401
 1641POPC   C3B22821  42.987   7.749   7.986
 1641POPC   C4B22822  43.080   7.643   7.575
 1642POPC   NC322823  14.525   5.561   9.591
 1642POPC   PO422824  14.093   6.068   9.487
 1642POPC   GL122825  14.084   5.836   9.092
 1642POPC   GL222826  14.437   5.762   9.060
 1642POPC   C1A22827  14.185   5.868   8.643
 1642POPC   D2A22828  14.562   5.943   8.493
 1642POPC   C3A22829  14.520   6.060   8.082
 1642POPC   C4A22830  14.180   6.004   7.756
 1642POPC   C1B22831  14.747   5.540   8.782
 1642POPC   C2B22832  14.837   5.537   8.356
 1642POPC   C3B22833  14.670   5.580   7.973
 1642POPC   C4B22834  14.649   5.879   7.636
 1643POPC   NC322835  32.116  34.355   9.728
 1643POPC   PO422836  32.673  34.525   9.493
 1643POPC   GL122837  32.331  34.368   9.243
 1643POPC   GL222838  32.569  34.190   9.058
 1643POPC   C1A22839  32.084  34.607   8.912
 1643POPC   D2A22840  32.266  34.823   8.528
 1643POPC   C3A22841  32.147  34.662   8.123
 1643POPC   C4A22842  31.964  34.574   7.722
 1643POPC   C1B22843  32.449  34.341   8.666
 1643POPC   C2B22844  32.550  34.160   8.283
 1643POPC   C3B22845  32.697  34.384   7.971
 1643POPC   C4B22846  32.497  34.593   7.748
 1644POPC   NC322847  41.983  30.808   9.555
 1644POPC   PO422848  42.435  30.453   9.398
 1644POPC   GL122849  42.312  30.862   9.158
 1644POPC   GL222850  41.955  30.927   9.053
 1644POPC   C1A22851  42.450  30.834   8.743
 1644POPC   D2A22852  42.309  30.622   8.384
 1644POPC   C3A22853  42.535  30.730   8.030
 1644POPC   C4A22854  42.650  31.103   7.832
 1644POPC   C1B22855  41.923  30.497   8.918
 1644POPC   C2B22856  41.866  30.375   8.494
 1644POPC   C3B22857  41.898  30.540   8.089
 1644POPC   C4B22858  41.808  30.373   7.728
 1645POPC   NC322859  33.731  12.589   9.814
 1645POPC   PO422860  33.863  11.964   9.497
 1645POPC   GL122861  33.924  12.027   9.066
 1645POPC   GL222862  33.705  12.287   9.086
 1645POPC   C1A22863  33.657  11.994   8.677
 1645POPC   D2A22864  33.663  12.232   8.282
 1645POPC   C3A22865  33.948  11.963   8.047
 1645POPC   C4A22866  33.874  11.760   7.650
 1645POPC   C1B22867  33.888  12.465   8.724
 1645POPC   C2B22868  34.105  12.486   8.348
 1645POPC   C3B22869  33.907  12.625   7.985
 1645POPC   C4B22870  33.912  12.325   7.683
 1646POPC   NC322871  22.519  29.149   9.478
 1646POPC   PO422872  23.229  29.160   9.476
 1646POPC   GL122873  22.965  29.220   9.144
 1646POPC   GL222874  23.122  29.480   8.960
 1646POPC   C1A22875  22.791  28.973   8.742
 1646POPC   D2A22876  22.861  28.705   8.377
 1646POPC   C3A22877  22.993  28.898   7.990
 1646POPC   C4A22878  22.842  28.812   7.549
 1646POPC   C1B22879  22.648  29.448   8.847
 1646POPC   C2B22880  22.589  29.359   8.446
 1646POPC   C3B22881  22.767  29.485   8.078
 1646POPC   C4B22882  22.859  29.300   7.686
 1647POPC   NC322883  24.557   7.343   9.574
 1647POPC   PO422884  24.032   7.740   9.440
 1647POPC   GL122885  24.216   7.373   9.174
 1647POPC   GL222886  24.533   7.512   9.077
 1647POPC   C1A22887  24.343   7.121   8.804
 1647POPC   D2A22888  24.422   7.343   8.432
 1647POPC   C3A22889  24.439   7.208   8.000
 1647POPC   C4A22890  24.641   7.357   7.604
 1647POPC   C1B22891  24.280   7.755   8.766
 1647POPC   C2B22892  24.099   7.766   8.333
 1647POPC   C3B22893  24.135   7.628   7.899
 1647POPC   C4B22894  24.296   7.721   7.483
 1648POPC   NC322895  34.273  28.229   9.436
 1648POPC   PO422896  34.856  28.601   9.451
 1648POPC   GL122897  34.730  28.388   9.126
 1648POPC   GL222898  34.759  28.032   9.210
 1648POPC   C1A22899  34.764  28.514   8.715
 1648POPC   D2A22900  34.522  28.426   8.370
 1648POPC   C3A22901  34.842  28.488   8.115
 1648POPC   C4A22902  34.851  28.475   7.716
 1648POPC   C1B22903  34.546  28.019   8.792
 1648POPC   C2B22904  34.390  27.896   8.381
 1648POPC   C3B22905  34.286  28.129   8.003
 1648POPC   C4B22906  34.496  28.092   7.615
 1649POPC   NC322907  31.377   9.084   9.783
 1649POPC   PO422908  31.917   8.965   9.433
 1649POPC   GL122909  31.640   8.861   9.182
 1649POPC   GL222910  31.332   9.067   9.197
 1649POPC   C1A22911  31.749   8.755   8.779
 1649POPC   D2A22912  31.457   8.808   8.467
 1649POPC   C3A22913  31.589   8.596   8.135
 1649POPC   C4A22914  31.470   8.697   7.749
 1649POPC   C1B22915  31.588   9.241   8.828
 1649POPC   C2B22916  31.819   9.187   8.435
 1649POPC   C3B22917  31.653   9.112   8.004
 1649POPC   C4B22918  31.714   9.065   7.531
 1650POPC   NC322919  17.846  19.633   9.313
 1650POPC   PO422920  17.242  19.969   9.473
 1650POPC   GL122921  17.437  19.850   9.135
 1650POPC   GL222922  17.197  19.599   9.030
 1650POPC   C1A22923  17.562  19.780   8.711
 1650POPC   D2A22924  17.269  19.736   8.409
 1650POPC   C3A22925  17.536  19.616   8.108
 1650POPC   C4A22926  17.631  19.821   7.773
 1650POPC   C1B22927  17.133  20.056   8.809
 1650POPC   C2B22928  17.277  20.251   8.419
 1650POPC   C3B22929  17.224  20.059   8.005
 1650POPC   C4B22930  17.115  19.659   7.793
 1651POPC   NC322931  25.291  33.139   9.340
 1651POPC   PO422932  25.327  32.551   9.689
 1651POPC   GL122933  25.396  32.653   9.203
 1651POPC   GL222934  25.625  32.882   9.076
 1651POPC   C1A22935  25.268  32.817   8.710
 1651POPC   D2A22936  25.077  33.091   8.363
 1651POPC   C3A22937  25.140  32.941   7.921
 1651POPC   C4A22938  25.111  33.115   7.470
 1651POPC   C1B22939  25.687  33.111   8.680
 1651POPC   C2B22940  25.577  33.007   8.286
 1651POPC   C3B22941  25.589  33.186   7.915
 1651POPC   C4B22942  25.621  33.028   7.510
 1652POPC   NC322943  40.369   3.608   9.370
 1652POPC   PO422944  40.089   3.106   9.644
 1652POPC   GL122945  39.923   3.357   9.285
 1652POPC   GL222946  40.179   3.247   9.081
 1652POPC   C1A22947  39.892   3.581   8.854
 1652POPC   D2A22948  39.736   3.409   8.457
 1652POPC   C3A22949  39.781   3.650   8.095
 1652POPC   C4A22950  39.763   3.407   7.728
 1652POPC   C1B22951  40.375   3.455   8.729
 1652POPC   C2B22952  40.269   3.611   8.352
 1652POPC   C3B22953  40.199   3.356   8.016
 1652POPC   C4B22954  40.259   3.535   7.646
 1653POPC   NC322955  23.484   6.519   9.409
 1653POPC   PO422956  24.041   6.854   9.580
 1653POPC   GL122957  23.886   6.834   9.139
 1653POPC   GL222958  23.912   6.469   9.130
 1653POPC   C1A22959  23.657   6.964   8.743
 1653POPC   D2A22960  23.488   6.815   8.351
 1653POPC   C3A22961  23.814   6.743   8.070
 1653POPC   C4A22962  24.032   6.869   7.713
 1653POPC   C1B22963  23.689   6.470   8.728
 1653POPC   C2B22964  23.665   6.309   8.302
 1653POPC   C3B22965  23.415   6.421   7.942
 1653POPC   C4B22966  23.514   6.771   7.665
 1654POPC   NC322967  21.155   4.494   9.460
 1654POPC   PO422968  20.944   3.893   9.242
 1654POPC   GL122969  21.199   4.181   9.037
 1654POPC   GL222970  21.509   4.254   9.177
 1654POPC   C1A22971  21.242   4.270   8.616
 1654POPC   D2A22972  20.974   4.242   8.273
 1654POPC   C3A22973  21.194   3.968   8.042
 1654POPC   C4A22974  21.464   4.048   7.715
 1654POPC   C1B22975  21.655   4.500   8.839
 1654POPC   C2B22976  21.566   4.642   8.435
 1654POPC   C3B22977  21.460   4.461   8.049
 1654POPC   C4B22978  21.669   4.511   7.641
 1655POPC   NC322979  15.160  30.451   9.780
 1655POPC   PO422980  15.303  29.774   9.641
 1655POPC   GL122981  15.180  29.904   9.239
 1655POPC   GL222982  14.937  29.676   9.140
 1655POPC   C1A22983  15.100  30.036   8.819
 1655POPC   D2A22984  15.170  30.157   8.397
 1655POPC   C3A22985  14.947  30.107   8.042
 1655POPC   C4A22986  15.195  29.906   7.794
 1655POPC   C1B22987  14.888  29.544   8.757
 1655POPC   C2B22988  14.812  29.732   8.380
 1655POPC   C3B22989  14.878  29.562   8.010
 1655POPC   C4B22990  14.946  29.364   7.631
 1656POPC   NC322991  41.947   4.467   9.409
 1656POPC   PO422992  42.584   4.524   9.383
 1656POPC   GL122993  42.344   4.406   9.048
 1656POPC   GL222994  42.228   4.097   9.180
 1656POPC   C1A22995  42.051   4.565   8.751
 1656POPC   D2A22996  42.073   4.794   8.378
 1656POPC   C3A22997  42.129   4.531   8.002
 1656POPC   C4A22998  42.309   4.378   7.628
 1656POPC   C1B22999  42.168   3.971   8.756
 1656POPC   C2B23000  42.373   3.887   8.366
 1656POPC   C3B23001  42.081   4.027   8.089
 1656POPC   C4B23002  41.998   3.934   7.693
 1657POPC   NC323003  24.370  42.795   9.843
 1657POPC   PO423004  24.274  43.333   9.431
 1657POPC   GL123005  24.419  43.264   9.027
 1657POPC   GL223006  24.645  43.515   9.003
 1657POPC   C1A23007  24.338  42.945   8.674
 1657POPC   D2A23008  24.401  42.715   8.296
 1657POPC   C3A23009  24.524  42.987   7.985
 1657POPC   C4A23010  24.359  42.881   7.622
 1657POPC   C1B23011  24.851  43.442   8.654
 1657POPC   C2B23012  24.731  43.417   8.242
 1657POPC   C3B23013  24.900  43.322   7.848
 1657POPC   C4B23014  24.588  43.373   7.500
 1658POPC   NC323015  30.180  20.854   9.887
 1658POPC   PO423016  29.694  20.550   9.588
 1658POPC   GL123017  29.729  20.554   9.138
 1658POPC   GL223018  29.972  20.310   9.142
 1658POPC   C1A23019  29.645  20.477   8.702
 1658POPC   D2A23020  29.595  20.260   8.332
 1658POPC   C3A23021  29.841  20.465   8.075
 1658POPC   C4A23022  29.779  20.637   7.675
 1658POPC   C1B23023  30.153  20.536   8.823
 1658POPC   C2B23024  30.112  20.797   8.484
 1658POPC   C3B23025  30.324  20.703   8.135
 1658POPC   C4B23026  30.265  20.409   7.791
 1659POPC   NC323027  36.242  28.835   9.482
 1659POPC   PO423028  36.381  28.116   9.476
 1659POPC   GL123029  36.181  28.406   9.169
 1659POPC   GL223030  36.054  28.740   9.010
 1659POPC   C1A23031  36.348  28.401   8.770
 1659POPC   D2A23032  36.227  28.170   8.420
 1659POPC   C3A23033  36.149  28.410   8.057
 1659POPC   C4A23034  35.918  28.117   7.815
 1659POPC   C1B23035  36.010  28.724   8.567
 1659POPC   C2B23036  35.719  28.616   8.257
 1659POPC   C3B23037  35.718  28.622   7.836
 1659POPC   C4B23038  35.970  28.528   7.536
 1660POPC   NC323039  12.341  13.247   9.409
 1660POPC   PO423040  11.954  12.713   9.615
 1660POPC   GL123041  12.001  12.806   9.185
 1660POPC   GL223042  12.354  12.806   9.155
 1660POPC   C1A23043  12.086  12.596   8.776
 1660POPC   D2A23044  12.010  12.432   8.404
 1660POPC   C3A23045  12.290  12.513   8.075
 1660POPC   C4A23046  12.190  12.643   7.670
 1660POPC   C1B23047  12.238  13.080   8.787
 1660POPC   C2B23048  12.130  12.939   8.378
 1660POPC   C3B23049  12.079  13.056   7.965
 1660POPC   C4B23050  12.415  13.297   7.848
 1661POPC   NC323051  39.796  43.416   9.639
 1661POPC   PO423052  40.134  42.879   9.469
 1661POPC   GL123053  40.004  42.900   9.090
 1661POPC   GL223054  39.796  43.196   9.178
 1661POPC   C1A23055  40.127  42.868   8.676
 1661POPC   D2A23056  40.299  43.132   8.390
 1661POPC   C3A23057  40.211  43.016   8.014
 1661POPC   C4A23058  40.404  42.889   7.677
 1661POPC   C1B23059  39.710  43.143   8.761
 1661POPC   C2B23060  39.757  42.985   8.337
 1661POPC   C3B23061  39.690  43.072   7.903
 1661POPC   C4B23062  39.979  43.213   7.597
 1662POPC   NC323063  18.508   6.200   9.458
 1662POPC   PO423064  17.989   5.728   9.375
 1662POPC   GL123065  18.296   5.868   9.111
 1662POPC   GL223066  18.140   6.147   9.109
 1662POPC   C1A23067  18.375   5.701   8.721
 1662POPC   D2A23068  18.129   5.723   8.364
 1662POPC   C3A23069  18.358   5.830   8.020
 1662POPC   C4A23070  18.300   5.737   7.586
 1662POPC   C1B23071  18.284   6.200   8.706
 1662POPC   C2B23072  18.247   6.262   8.277
 1662POPC   C3B23073  18.141   6.287   7.814
 1662POPC   C4B23074  18.110   6.158   7.363
 1663POPC   NC323075   8.933  10.785   9.487
 1663POPC   PO423076   9.188  11.432   9.406
 1663POPC   GL123077   8.943  11.169   9.140
 1663POPC   GL223078   9.232  10.981   9.105
 1663POPC   C1A23079   8.698  11.169   8.746
 1663POPC   D2A23080   8.864  11.351   8.357
 1663POPC   C3A23081   8.782  11.309   7.919
 1663POPC   C4A23082   8.956  11.643   7.708
 1663POPC   C1B23083   9.243  11.244   8.723
 1663POPC   C2B23084   9.294  11.057   8.353
 1663POPC   C3B23085   9.120  10.941   7.997
 1663POPC   C4B23086   9.259  11.095   7.626
 1664POPC   NC323087  29.518  34.852   9.283
 1664POPC   PO423088  28.830  34.976   9.458
 1664POPC   GL123089  29.039  34.879   9.088
 1664POPC   GL223090  29.146  34.544   9.135
 1664POPC   C1A23091  29.201  34.899   8.657
 1664POPC   D2A23092  29.206  34.925   8.190
 1664POPC   C3A23093  28.951  34.679   7.948
 1664POPC   C4A23094  29.106  34.338   7.803
 1664POPC   C1B23095  29.437  34.464   8.741
 1664POPC   C2B23096  29.434  34.452   8.293
 1664POPC   C3B23097  29.512  34.117   8.004
 1664POPC   C4B23098  29.596  34.135   7.575
 1665POPC   NC323099  30.828  14.244   9.901
 1665POPC   PO423100  30.482  14.801   9.487
 1665POPC   GL123101  30.646  14.507   9.211
 1665POPC   GL223102  30.390  14.251   9.188
 1665POPC   C1A23103  30.794  14.290   8.850
 1665POPC   D2A23104  30.839  14.448   8.441
 1665POPC   C3A23105  30.718  14.237   8.113
 1665POPC   C4A23106  30.771  14.066   7.746
 1665POPC   C1B23107  30.303  14.491   8.796
 1665POPC   C2B23108  30.270  14.499   8.366
 1665POPC   C3B23109  30.512  14.708   8.090
 1665POPC   C4B23110  30.669  14.555   7.701
 1666POPC   NC323111  39.512  32.142   9.472
 1666POPC   PO423112  38.964  32.331   9.583
 1666POPC   GL123113  39.098  32.301   9.152
 1666POPC   GL223114  39.389  32.484   9.067
 1666POPC   C1A23115  39.230  32.140   8.736
 1666POPC   D2A23116  39.387  32.215   8.317
 1666POPC   C3A23117  39.178  32.060   7.958
 1666POPC   C4A23118  39.136  32.186   7.564
 1666POPC   C1B23119  39.651  32.444   8.692
 1666POPC   C2B23120  39.759  32.577   8.251
 1666POPC   C3B23121  39.539  32.424   7.865
 1666POPC   C4B23122  39.543  32.481   7.419
 1667POPC   NC323123  10.245  24.628   9.205
 1667POPC   PO423124  10.886  24.713   9.411
 1667POPC   GL123125  10.736  24.445   9.059
 1667POPC   GL223126  10.480  24.384   8.840
 1667POPC   C1A23127  10.903  24.134   8.738
 1667POPC   D2A23128  10.954  24.221   8.289
 1667POPC   C3A23129  10.581  24.284   7.989
 1667POPC   C4A23130  10.338  24.446   7.603
 1667POPC   C1B23131  10.706  24.765   8.680
 1667POPC   C2B23132  10.587  24.889   8.295
 1667POPC   C3B23133  10.624  24.793   7.883
 1667POPC   C4B23134  10.847  24.573   7.630
 1668POPC   NC323135  24.131  34.745   9.448
 1668POPC   PO423136  24.756  34.470   9.435
 1668POPC   GL123137  24.509  34.640   9.128
 1668POPC   GL223138  24.774  34.797   8.993
 1668POPC   C1A23139  24.339  34.612   8.729
 1668POPC   D2A23140  24.551  34.709   8.351
 1668POPC   C3A23141  24.365  34.555   7.991
 1668POPC   C4A23142  24.134  34.690   7.621
 1668POPC   C1B23143  24.755  34.344   8.773
 1668POPC   C2B23144  24.892  34.315   8.340
 1668POPC   C3B23145  24.833  34.364   7.905
 1668POPC   C4B23146  24.628  34.567   7.558
 1669POPC   NC323147  44.880  22.641   9.561
 1669POPC   PO423148  44.510  23.255   9.645
 1669POPC   GL123149  44.684  23.071   9.257
 1669POPC   GL223150  44.677  22.739   9.127
 1669POPC   C1A23151  44.656  23.103   8.798
 1669POPC   D2A23152  44.465  23.003   8.450
 1669POPC   C3A23153  44.588  23.287   8.126
 1669POPC   C4A23154  44.786  23.245   7.758
 1669POPC   C1B23155  44.822  22.599   8.732
 1669POPC   C2B23156  44.594  22.512   8.372
 1669POPC   C3B23157  44.690  22.753   8.049
 1669POPC   C4B23158  44.628  22.762   7.674
 1670POPC   NC323159   1.263  41.913   9.565
 1670POPC   PO423160   1.389  41.252   9.445
 1670POPC   GL123161   1.248  41.579   9.169
 1670POPC   GL223162   1.517  41.842   9.137
 1670POPC   C1A23163   1.005  41.551   8.795
 1670POPC   D2A23164   1.237  41.540   8.423
 1670POPC   C3A23165   1.105  41.531   8.024
 1670POPC   C4A23166   1.406  41.419   7.782
 1670POPC   C1B23167   1.339  41.939   8.743
 1670POPC   C2B23168   1.326  42.075   8.318
 1670POPC   C3B23169   1.402  41.952   7.901
 1670POPC   C4B23170   1.096  41.821   7.596
 1671POPC   NC323171  23.837  27.309   9.369
 1671POPC   PO423172  23.454  27.783   9.572
 1671POPC   GL123173  23.598  27.700   9.147
 1671POPC   GL223174  23.924  27.807   9.059
 1671POPC   C1A23175  23.642  27.459   8.745
 1671POPC   D2A23176  23.837  27.342   8.332
 1671POPC   C3A23177  23.441  27.235   8.123
 1671POPC   C4A23178  23.309  27.336   7.697
 1671POPC   C1B23179  23.959  27.834   8.621
 1671POPC   C2B23180  23.618  27.806   8.329
 1671POPC   C3B23181  23.673  27.634   7.917
 1671POPC   C4B23182  23.924  27.898   7.680
 1672POPC   NC323183  26.100  12.953  10.064
 1672POPC   PO423184  26.158  12.856   9.405
 1672POPC   GL123185  25.974  12.784   9.005
 1672POPC   GL223186  25.657  12.641   8.959
 1672POPC   C1A23187  26.017  12.654   8.592
 1672POPC   D2A23188  26.030  13.006   8.365
 1672POPC   C3A23189  26.087  12.960   7.942
 1672POPC   C4A23190  26.327  13.251   7.734
 1672POPC   C1B23191  25.549  12.867   8.572
 1672POPC   C2B23192  25.640  12.691   8.162
 1672POPC   C3B23193  25.625  12.410   7.781
 1672POPC   C4B23194  25.673  12.561   7.345
 1673POPC   NC323195  44.371  32.522   9.512
 1673POPC   PO423196   0.040  32.387   9.470
 1673POPC   GL123197  44.765  32.524   9.151
 1673POPC   GL223198  44.604  32.205   9.129
 1673POPC   C1A23199  44.673  32.426   8.713
 1673POPC   D2A23200  44.558  32.207   8.403
 1673POPC   C3A23201  44.576  32.434   8.075
 1673POPC   C4A23202  44.727  32.439   7.676
 1673POPC   C1B23203  44.268  32.066   8.803
 1673POPC   C2B23204  44.153  31.908   8.424
 1673POPC   C3B23205  44.371  31.904   8.044
 1673POPC   C4B23206  44.338  32.141   7.713
 1674POPC   NC323207  41.369  29.322   9.318
 1674POPC   PO423208  41.642  29.868   9.567
 1674POPC   GL123209  41.751  29.980   9.159
 1674POPC   GL223210  41.416  29.863   9.058
 1674POPC   C1A23211  41.863  29.894   8.739
 1674POPC   D2A23212  41.602  29.840   8.405
 1674POPC   C3A23213  41.689  30.049   8.092
 1674POPC   C4A23214  41.577  29.927   7.695
 1674POPC   C1B23215  41.369  29.540   8.730
 1674POPC   C2B23216  41.165  29.562   8.353
 1674POPC   C3B23217  41.200  29.863   8.044
 1674POPC   C4B23218  41.083  29.959   7.635
 1675POPC   NC323219  25.064  44.634   9.400
 1675POPC   PO423220  25.624  44.334   9.532
 1675POPC   GL123221  25.490  44.361   9.123
 1675POPC   GL223222  25.719  44.655   9.080
 1675POPC   C1A23223  25.174  44.402   8.792
 1675POPC   D2A23224  25.123  44.631   8.403
 1675POPC   C3A23225  25.228  44.458   8.024
 1675POPC   C4A23226  25.374  44.287   7.652
 1675POPC   C1B23227  25.529  44.814   8.691
 1675POPC   C2B23228  25.627  44.712   8.267
 1675POPC   C3B23229  25.505  44.865   7.874
 1675POPC   C4B23230  25.147  44.844   7.684
 1676POPC   NC323231  22.680  41.929   9.461
 1676POPC   PO423232  23.041  41.401   9.536
 1676POPC   GL123233  22.849  41.433   9.135
 1676POPC   GL223234  23.093  41.693   9.043
 1676POPC   C1A23235  22.904  41.358   8.668
 1676POPC   D2A23236  23.206  41.637   8.442
 1676POPC   C3A23237  23.104  41.741   8.010
 1676POPC   C4A23238  22.775  41.477   7.835
 1676POPC   C1B23239  22.843  41.856   8.739
 1676POPC   C2B23240  22.704  41.724   8.341
 1676POPC   C3B23241  22.570  41.934   7.981
 1676POPC   C4B23242  22.599  41.993   7.535
 1677POPC   NC323243  33.457  33.669   9.525
 1677POPC   PO423244  34.174  33.564   9.417
 1677POPC   GL123245  33.941  33.747   9.056
 1677POPC   GL223246  33.592  33.874   9.077
 1677POPC   C1A23247  33.779  33.673   8.620
 1677POPC   D2A23248  33.498  33.609   8.277
 1677POPC   C3A23249  33.786  33.658   7.948
 1677POPC   C4A23250  33.958  34.041   7.764
 1677POPC   C1B23251  33.405  33.992   8.670
 1677POPC   C2B23252  33.569  34.121   8.257
 1677POPC   C3B23253  33.450  34.027   7.830
 1677POPC   C4B23254  33.399  33.629   7.624
 1678POPC   NC323255  30.095  24.596   9.459
 1678POPC   PO423256  29.592  24.241   9.408
 1678POPC   GL123257  29.846  24.365   9.045
 1678POPC   GL223258  29.929  24.726   9.004
 1678POPC   C1A23259  29.977  24.346   8.611
 1678POPC   D2A23260  30.162  24.225   8.223
 1678POPC   C3A23261  29.852  24.303   7.924
 1678POPC   C4A23262  29.632  24.695   7.921
 1678POPC   C1B23263  30.331  24.656   8.807
 1678POPC   C2B23264  30.207  24.849   8.466
 1678POPC   C3B23265  30.153  24.717   8.063
 1678POPC   C4B23266  30.275  24.853   7.662
 1679POPC   NC323267  38.791  16.591   9.427
 1679POPC   PO423268  38.087  16.842   9.472
 1679POPC   GL123269  38.189  16.874   9.076
 1679POPC   GL223270  38.537  16.840   9.052
 1679POPC   C1A23271  38.220  17.048   8.687
 1679POPC   D2A23272  38.135  16.804   8.356
 1679POPC   C3A23273  38.337  16.976   7.994
 1679POPC   C4A23274  38.544  16.751   7.697
 1679POPC   C1B23275  38.750  17.026   8.701
 1679POPC   C2B23276  38.782  17.000   8.242
 1679POPC   C3B23277  38.871  17.149   7.840
 1679POPC   C4B23278  38.924  17.242   7.415
 1680POPC   NC323279  28.505   3.457   9.709
 1680POPC   PO423280  29.183   3.574   9.532
 1680POPC   GL123281  29.267   3.556   9.118
 1680POPC   GL223282  29.571   3.395   9.127
 1680POPC   C1A23283  29.140   3.639   8.708
 1680POPC   D2A23284  29.182   3.776   8.300
 1680POPC   C3A23285  28.953   3.698   7.924
 1680POPC   C4A23286  29.051   3.735   7.486
 1680POPC   C1B23287  29.575   3.287   8.700
 1680POPC   C2B23288  29.342   3.296   8.313
 1680POPC   C3B23289  29.415   3.448   7.884
 1680POPC   C4B23290  29.106   3.217   7.672
 1681POPC   NC323291  16.782  44.298   9.405
 1681POPC   PO423292  16.747  43.598   9.527
 1681POPC   GL123293  16.495  43.771   9.188
 1681POPC   GL223294  16.747  43.993   9.011
 1681POPC   C1A23295  16.371  43.791   8.739
 1681POPC   D2A23296  16.575  43.974   8.359
 1681POPC   C3A23297  16.569  43.815   7.930
 1681POPC   C4A23298  16.644  44.006   7.479
 1681POPC   C1B23299  17.019  43.905   8.677
 1681POPC   C2B23300  17.094  44.051   8.270
 1681POPC   C3B23301  16.873  44.230   7.924
 1681POPC   C4B23302  17.078  43.891   7.685
 1682POPC   NC323303  39.434  40.833   9.504
 1682POPC   PO423304  38.765  40.737   9.357
 1682POPC   GL123305  39.096  40.634   9.145
 1682POPC   GL223306  39.208  40.965   9.081
 1682POPC   C1A23307  39.065  40.655   8.717
 1682POPC   D2A23308  39.173  40.804   8.331
 1682POPC   C3A23309  39.212  40.480   8.051
 1682POPC   C4A23310  39.109  40.767   7.753
 1682POPC   C1B23311  39.528  40.867   8.757
 1682POPC   C2B23312  39.648  40.629   8.385
 1682POPC   C3B23313  39.601  40.805   7.988
 1682POPC   C4B23314  39.567  40.935   7.565
 1683POPC   NC323315  13.402   3.364   9.355
 1683POPC   PO423316  13.727   3.831   9.561
 1683POPC   GL123317  13.550   3.794   9.151
 1683POPC   GL223318  13.803   3.536   9.044
 1683POPC   C1A23319  13.602   3.873   8.720
 1683POPC   D2A23320  13.920   3.708   8.432
 1683POPC   C3A23321  13.752   3.559   8.044
 1683POPC   C4A23322  13.720   3.558   7.614
 1683POPC   C1B23323  13.572   3.350   8.675
 1683POPC   C2B23324  13.412   3.241   8.257
 1683POPC   C3B23325  13.608   3.049   7.874
 1683POPC   C4B23326  13.547   3.097   7.406
 1684POPC   NC323327   4.079  43.120   9.524
 1684POPC   PO423328   4.721  42.741   9.536
 1684POPC   GL123329   4.472  42.985   9.194
 1684POPC   GL223330   4.269  43.265   9.058
 1684POPC   C1A23331   4.321  42.831   8.788
 1684POPC   D2A23332   4.442  42.752   8.364
 1684POPC   C3A23333   4.298  43.027   7.980
 1684POPC   C4A23334   4.478  43.154   7.568
 1684POPC   C1B23335   4.025  43.272   8.666
 1684POPC   C2B23336   3.982  43.471   8.228
 1684POPC   C3B23337   4.030  43.500   7.754
 1684POPC   C4B23338   3.823  43.521   7.274
 1685POPC   NC323339  36.717  21.939   9.510
 1685POPC   PO423340  37.195  22.460   9.580
 1685POPC   GL123341  37.101  22.178   9.216
 1685POPC   GL223342  36.775  22.189   9.078
 1685POPC   C1A23343  37.177  22.217   8.762
 1685POPC   D2A23344  36.900  22.426   8.476
 1685POPC   C3A23345  36.973  22.443   8.039
 1685POPC   C4A23346  36.859  22.486   7.587
 1685POPC   C1B23347  36.781  21.901   8.714
 1685POPC   C2B23348  36.754  21.974   8.273
 1685POPC   C3B23349  36.617  22.127   7.880
 1685POPC   C4B23350  36.568  22.120   7.392
 1686POPC   NC323351  15.649  29.467   9.651
 1686POPC   PO423352  15.953  28.962   9.544
 1686POPC   GL123353  15.790  29.205   9.197
 1686POPC   GL223354  16.075  29.335   9.037
 1686POPC   C1A23355  15.703  29.072   8.762
 1686POPC   D2A23356  15.868  28.940   8.334
 1686POPC   C3A23357  15.753  29.163   7.964
 1686POPC   C4A23358  15.932  29.521   7.778
 1686POPC   C1B23359  16.213  29.004   8.774
 1686POPC   C2B23360  16.346  29.158   8.384
 1686POPC   C3B23361  16.266  29.195   7.963
 1686POPC   C4B23362  16.184  28.879   7.672
 1687POPC   NC323363  35.640  29.275   9.383
 1687POPC   PO423364  34.909  29.436   9.485
 1687POPC   GL123365  35.070  29.204   9.130
 1687POPC   GL223366  35.328  28.924   9.134
 1687POPC   C1A23367  35.207  29.212   8.708
 1687POPC   D2A23368  35.311  29.391   8.340
 1687POPC   C3A23369  35.338  29.260   7.934
 1687POPC   C4A23370  35.587  29.205   7.608
 1687POPC   C1B23371  35.467  28.786   8.687
 1687POPC   C2B23372  35.257  28.847   8.242
 1687POPC   C3B23373  35.254  28.799   7.751
 1687POPC   C4B23374  35.564  28.767   7.356
 1688POPC   NC323375   9.081   9.970   9.387
 1688POPC   PO423376   9.316   9.391   9.464
 1688POPC   GL123377   8.989   9.591   9.077
 1688POPC   GL223378   8.733   9.930   9.028
 1688POPC   C1A23379   9.057   9.797   8.652
 1688POPC   D2A23380   8.968   9.973   8.216
 1688POPC   C3A23381   8.984   9.713   7.878
 1688POPC   C4A23382   9.088   9.681   7.469
 1688POPC   C1B23383   8.561   9.672   8.731
 1688POPC   C2B23384   8.666   9.561   8.321
 1688POPC   C3B23385   8.480   9.569   7.926
 1688POPC   C4B23386   8.630   9.491   7.528
 1689POPC   NC323387  18.331   9.303   9.409
 1689POPC   PO423388  18.337   8.656   9.253
 1689POPC   GL123389  18.296   9.006   8.964
 1689POPC   GL223390  18.473   9.347   8.930
 1689POPC   C1A23391  18.205   8.995   8.529
 1689POPC   D2A23392  18.222   8.614   8.266
 1689POPC   C3A23393  18.141   8.814   7.908
 1689POPC   C4A23394  17.872   9.166   7.879
 1689POPC   C1B23395  18.699   9.061   8.643
 1689POPC   C2B23396  18.635   8.981   8.216
 1689POPC   C3B23397  18.604   9.020   7.800
 1689POPC   C4B23398  18.300   9.220   7.624
 1690POPC   NC323399  29.863  41.219   9.376
 1690POPC   PO423400  30.156  40.577   9.457
 1690POPC   GL123401  29.936  40.556   9.074
 1690POPC   GL223402  29.740  40.851   9.039
 1690POPC   C1A23403  29.680  40.448   8.728
 1690POPC   D2A23404  29.649  40.797   8.443
 1690POPC   C3A23405  29.958  40.788   8.105
 1690POPC   C4A23406  29.968  40.535   7.746
 1690POPC   C1B23407  30.020  41.045   8.734
 1690POPC   C2B23408  29.934  41.251   8.344
 1690POPC   C3B23409  30.010  41.274   7.920
 1690POPC   C4B23410  29.755  41.015   7.675
 1691POPC   NC323411   1.848  40.179   9.581
 1691POPC   PO423412   2.276  39.673   9.413
 1691POPC   GL123413   2.166  39.883   9.084
 1691POPC   GL223414   1.899  40.048   9.105
 1691POPC   C1A23415   1.941  39.737   8.691
 1691POPC   D2A23416   1.737  39.592   8.328
 1691POPC   C3A23417   1.863  39.803   7.956
 1691POPC   C4A23418   2.007  39.941   7.547
 1691POPC   C1B23419   2.109  40.223   8.730
 1691POPC   C2B23420   2.154  40.045   8.332
 1691POPC   C3B23421   2.127  40.238   7.970
 1691POPC   C4B23422   1.969  40.460   7.663
 1692POPC   NC323423  21.500  27.412   9.719
 1692POPC   PO423424  21.715  27.975   9.869
 1692POPC   GL123425  21.627  27.721   9.337
 1692POPC   GL223426  21.329  27.535   9.225
 1692POPC   C1A23427  21.594  27.515   8.829
 1692POPC   D2A23428  21.402  27.286   8.452
 1692POPC   C3A23429  21.596  27.356   8.039
 1692POPC   C4A23430  21.550  27.647   7.690
 1692POPC   C1B23431  21.068  27.458   8.835
 1692POPC   C2B23432  21.034  27.660   8.459
 1692POPC   C3B23433  21.233  27.730   8.099
 1692POPC   C4B23434  21.047  27.640   7.737
 1693POPC   NC323435  14.267  32.396   9.750
 1693POPC   PO423436  13.604  32.304   9.590
 1693POPC   GL123437  13.736  32.318   9.132
 1693POPC   GL223438  13.747  31.979   8.961
 1693POPC   C1A23439  13.722  32.504   8.716
 1693POPC   D2A23440  13.767  32.406   8.285
 1693POPC   C3A23441  13.625  32.693   7.974
 1693POPC   C4A23442  13.436  32.586   7.586
 1693POPC   C1B23443  13.437  32.019   8.605
 1693POPC   C2B23444  13.390  32.001   8.159
 1693POPC   C3B23445  13.648  32.193   7.841
 1693POPC   C4B23446  13.969  32.030   7.554
 1694POPC   NC323447   1.198  32.631   9.366
 1694POPC   PO423448   1.190  33.340   9.342
 1694POPC   GL123449   1.310  33.029   9.058
 1694POPC   GL223450   0.953  32.946   9.027
 1694POPC   C1A23451   1.275  32.805   8.652
 1694POPC   D2A23452   0.940  32.803   8.328
 1694POPC   C3A23453   1.099  32.719   7.916
 1694POPC   C4A23454   1.512  32.672   7.783
 1694POPC   C1B23455   1.012  33.261   8.713
 1694POPC   C2B23456   1.289  33.274   8.379
 1694POPC   C3B23457   1.180  33.225   7.966
 1694POPC   C4B23458   1.330  33.097   7.590
 1695POPC   NC323459  36.378  18.542   9.517
 1695POPC   PO423460  36.119  17.931   9.392
 1695POPC   GL123461  36.177  18.287   9.105
 1695POPC   GL223462  36.492  18.214   9.035
 1695POPC   C1A23463  36.220  18.488   8.651
 1695POPC   D2A23464  35.886  18.434   8.302
 1695POPC   C3A23465  35.990  18.255   7.869
 1695POPC   C4A23466  36.059  18.641   7.633
 1695POPC   C1B23467  36.298  17.971   8.722
 1695POPC   C2B23468  36.279  18.110   8.307
 1695POPC   C3B23469  36.369  18.485   8.065
 1695POPC   C4B23470  36.472  18.322   7.646
 1696POPC   NC323471  17.023   9.281   9.501
 1696POPC   PO423472  16.618   8.680   9.591
 1696POPC   GL123473  16.643   8.621   9.171
 1696POPC   GL223474  16.997   8.644   9.137
 1696POPC   C1A23475  16.713   8.558   8.726
 1696POPC   D2A23476  16.725   8.810   8.393
 1696POPC   C3A23477  16.791   8.688   7.993
 1696POPC   C4A23478  16.632   8.714   7.561
 1696POPC   C1B23479  16.814   9.036   8.917
 1696POPC   C2B23480  16.950   9.246   8.542
 1696POPC   C3B23481  16.901   9.271   8.126
 1696POPC   C4B23482  16.967   9.065   7.711
 1697POPC   NC323483  13.904   4.823   9.976
 1697POPC   PO423484  14.423   5.165   9.767
 1697POPC   GL123485  14.281   5.303   9.218
 1697POPC   GL223486  14.197   4.963   8.989
 1697POPC   C1A23487  14.280   5.368   8.727
 1697POPC   D2A23488  14.456   5.209   8.324
 1697POPC   C3A23489  14.302   5.203   7.930
 1697POPC   C4A23490  14.305   5.508   7.610
 1697POPC   C1B23491  14.352   4.782   8.608
 1697POPC   C2B23492  14.628   4.710   8.253
 1697POPC   C3B23493  14.521   4.670   7.834
 1697POPC   C4B23494  14.093   4.724   7.754
 1698POPC   NC323495  31.964   2.862   9.546
 1698POPC   PO423496  31.313   2.930   9.464
 1698POPC   GL123497  31.597   2.839   9.169
 1698POPC   GL223498  31.376   2.581   9.100
 1698POPC   C1A23499  31.548   2.934   8.754
 1698POPC   D2A23500  31.693   2.720   8.412
 1698POPC   C3A23501  31.498   2.831   8.034
 1698POPC   C4A23502  31.581   2.947   7.648
 1698POPC   C1B23503  31.317   2.441   8.745
 1698POPC   C2B23504  31.202   2.573   8.374
 1698POPC   C3B23505  31.233   2.425   7.960
 1698POPC   C4B23506  31.177   2.623   7.592
 1699POPC   NC323507  12.071   2.609   9.613
 1699POPC   PO423508  12.173   3.250   9.487
 1699POPC   GL123509  12.014   2.906   9.216
 1699POPC   GL223510  12.326   2.744   9.182
 1699POPC   C1A23511  11.834   2.888   8.816
 1699POPC   D2A23512  11.979   3.110   8.461
 1699POPC   C3A23513  11.876   2.994   8.058
 1699POPC   C4A23514  12.161   3.052   7.711
 1699POPC   C1B23515  12.289   2.565   8.795
 1699POPC   C2B23516  12.089   2.612   8.452
 1699POPC   C3B23517  12.171   2.579   8.073
 1699POPC   C4B23518  11.823   2.536   7.805
 1700POPC   NC323519  20.473  13.387   9.565
 1700POPC   PO423520  20.967  13.876   9.504
 1700POPC   GL123521  20.633  13.707   9.209
 1700POPC   GL223522  20.832  13.407   9.148
 1700POPC   C1A23523  20.486  13.687   8.776
 1700POPC   D2A23524  20.718  13.637   8.404
 1700POPC   C3A23525  20.535  13.685   8.016
 1700POPC   C4A23526  20.735  13.857   7.623
 1700POPC   C1B23527  20.721  13.221   8.748
 1700POPC   C2B23528  20.459  13.209   8.381
 1700POPC   C3B23529  20.603  13.161   8.003
 1700POPC   C4B23530  20.696  13.367   7.659
 1701POPC   NC323531   7.152  13.503   9.371
 1701POPC   PO423532   6.545  13.735   9.547
 1701POPC   GL123533   6.689  13.672   9.164
 1701POPC   GL223534   6.810  13.337   9.035
 1701POPC   C1A23535   6.532  13.817   8.793
 1701POPC   D2A23536   6.322  13.558   8.505
 1701POPC   C3A23537   6.439  13.673   8.128
 1701POPC   C4A23538   6.446  13.339   7.847
 1701POPC   C1B23539   7.037  13.714   8.791
 1701POPC   C2B23540   6.912  13.800   8.393
 1701POPC   C3B23541   6.921  13.577   8.018
 1701POPC   C4B23542   6.716  13.772   7.700
 1702POPC   NC323543  28.763  35.428   9.442
 1702POPC   PO423544  29.477  35.368   9.387
 1702POPC   GL123545  29.304  35.313   9.007
 1702POPC   GL223546  29.079  35.560   9.074
 1702POPC   C1A23547  29.131  35.392   8.591
 1702POPC   D2A23548  29.254  35.610   8.270
 1702POPC   C3A23549  29.245  35.370   7.959
 1702POPC   C4A23550  29.578  35.351   7.716
 1702POPC   C1B23551  28.738  35.682   8.818
 1702POPC   C2B23552  28.657  35.566   8.413
 1702POPC   C3B23553  28.797  35.621   8.033
 1702POPC   C4B23554  28.823  35.452   7.664
 1703POPC   NC323555   4.133  31.400   9.470
 1703POPC   PO423556   4.232  32.043   9.588
 1703POPC   GL123557   4.543  31.926   9.221
 1703POPC   GL223558   4.454  31.576   9.099
 1703POPC   C1A23559   4.595  31.905   8.746
 1703POPC   D2A23560   4.386  31.567   8.520
 1703POPC   C3A23561   4.273  31.556   8.122
 1703POPC   C4A23562   4.544  31.758   7.878
 1703POPC   C1B23563   4.355  31.192   8.837
 1703POPC   C2B23564   4.558  30.949   8.533
 1703POPC   C3B23565   4.535  31.080   8.107
 1703POPC   C4B23566   4.293  31.225   7.739
 1704POPC   NC323567  28.620   5.519   9.654
 1704POPC   PO423568  28.223   5.993   9.361
 1704POPC   GL123569  28.554   5.855   9.053
 1704POPC   GL223570  28.602   5.515   9.139
 1704POPC   C1A23571  28.737   6.078   8.699
 1704POPC   D2A23572  28.841   6.093   8.260
 1704POPC   C3A23573  28.479   6.019   8.000
 1704POPC   C4A23574  28.114   5.739   8.014
 1704POPC   C1B23575  28.802   5.495   8.748
 1704POPC   C2B23576  28.659   5.643   8.377
 1704POPC   C3B23577  28.903   5.622   8.014
 1704POPC   C4B23578  28.646   5.663   7.654
 1705POPC   NC323579  24.282   8.127   9.405
 1705POPC   PO423580  24.909   8.415   9.480
 1705POPC   GL123581  24.622   8.405   9.146
 1705POPC   GL223582  24.633   8.039   9.063
 1705POPC   C1A23583  24.315   8.382   8.781
 1705POPC   D2A23584  24.137   8.449   8.331
 1705POPC   C3A23585  24.281   8.126   8.009
 1705POPC   C4A23586  24.433   8.210   7.579
 1705POPC   C1B23587  24.807   7.805   8.738
 1705POPC   C2B23588  24.614   7.800   8.355
 1705POPC   C3B23589  24.661   7.680   7.978
 1705POPC   C4B23590  24.782   7.845   7.592
 1706POPC   NC323591   5.349  40.639   9.401
 1706POPC   PO423592   4.718  40.388   9.492
 1706POPC   GL123593   4.918  40.522   9.131
 1706POPC   GL223594   4.963  40.886   9.152
 1706POPC   C1A23595   4.976  40.414   8.713
 1706POPC   D2A23596   5.078  40.596   8.344
 1706POPC   C3A23597   4.957  40.450   7.968
 1706POPC   C4A23598   5.038  40.582   7.575
 1706POPC   C1B23599   4.992  41.223   8.842
 1706POPC   C2B23600   5.011  41.119   8.410
 1706POPC   C3B23601   5.101  40.960   7.982
 1706POPC   C4B23602   4.903  41.162   7.640
 1707POPC   NC323603  24.162   4.721   9.400
 1707POPC   PO423604  24.820   4.800   9.531
 1707POPC   GL123605  24.615   4.908   9.168
 1707POPC   GL223606  24.771   5.205   9.115
 1707POPC   C1A23607  24.366   5.043   8.811
 1707POPC   D2A23608  24.466   5.011   8.372
 1707POPC   C3A23609  24.464   5.299   8.003
 1707POPC   C4A23610  24.562   4.947   7.769
 1707POPC   C1B23611  24.711   5.411   8.738
 1707POPC   C2B23612  24.848   5.348   8.354
 1707POPC   C3B23613  24.969   5.256   7.962
 1707POPC   C4B23614  24.790   5.349   7.561
 1708POPC   NC323615  12.053  42.594   9.297
 1708POPC   PO423616  12.226  41.956   9.516
 1708POPC   GL123617  12.136  42.026   9.099
 1708POPC   GL223618  12.392  42.231   9.109
 1708POPC   C1A23619  12.039  42.201   8.686
 1708POPC   D2A23620  12.128  42.579   8.442
 1708POPC   C3A23621  11.828  42.583   8.118
 1708POPC   C4A23622  11.856  42.554   7.653
 1708POPC   C1B23623  12.534  42.277   8.717
 1708POPC   C2B23624  12.473  42.228   8.306
 1708POPC   C3B23625  12.199  42.254   8.010
 1708POPC   C4B23626  12.374  42.292   7.662
 1709POPC   NC323627  42.898   4.851   9.480
 1709POPC   PO423628  43.450   5.260   9.490
 1709POPC   GL123629  43.162   5.171   9.174
 1709POPC   GL223630  43.309   4.870   9.171
 1709POPC   C1A23631  42.958   5.028   8.778
 1709POPC   D2A23632  42.769   4.789   8.381
 1709POPC   C3A23633  42.810   5.045   8.029
 1709POPC   C4A23634  42.943   5.043   7.632
 1709POPC   C1B23635  43.382   4.758   8.776
 1709POPC   C2B23636  43.259   4.900   8.367
 1709POPC   C3B23637  43.419   4.934   7.966
 1709POPC   C4B23638  43.669   5.137   7.711
 1710POPC   NC323639  30.901  36.299   9.530
 1710POPC   PO423640  30.386  36.477   9.041
 1710POPC   GL123641  30.633  36.175   8.879
 1710POPC   GL223642  30.922  36.222   9.028
 1710POPC   C1A23643  30.883  36.069   8.553
 1710POPC   D2A23644  30.674  35.868   8.288
 1710POPC   C3A23645  30.713  36.010   7.879
 1710POPC   C4A23646  30.534  35.757   7.541
 1710POPC   C1B23647  31.166  36.474   8.677
 1710POPC   C2B23648  31.190  36.379   8.223
 1710POPC   C3B23649  31.182  36.269   7.799
 1710POPC   C4B23650  30.846  36.394   7.557
 1711POPC   NC323651  29.594  30.383   9.460
 1711POPC   PO423652  29.079  30.121   9.842
 1711POPC   GL123653  29.176  29.865   9.410
 1711POPC   GL223654  29.424  29.956   9.160
 1711POPC   C1A23655  28.951  29.909   8.965
 1711POPC   D2A23656  28.932  29.806   8.505
 1711POPC   C3A23657  29.004  29.997   8.080
 1711POPC   C4A23658  28.888  29.894   7.646
 1711POPC   C1B23659  29.351  30.148   8.747
 1711POPC   C2B23660  29.406  30.260   8.313
 1711POPC   C3B23661  29.418  30.231   7.882
 1711POPC   C4B23662  29.365  30.025   7.496
 1712POPC   NC323663   3.843  10.115   9.662
 1712POPC   PO423664   3.568  10.812   9.619
 1712POPC   GL123665   3.650  10.612   9.204
 1712POPC   GL223666   3.702  10.251   9.178
 1712POPC   C1A23667   3.449  10.537   8.783
 1712POPC   D2A23668   3.353  10.393   8.359
 1712POPC   C3A23669   3.377  10.672   7.972
 1712POPC   C4A23670   3.719  10.890   7.735
 1712POPC   C1B23671   3.946  10.397   8.838
 1712POPC   C2B23672   3.870  10.613   8.466
 1712POPC   C3B23673   3.847  10.499   8.044
 1712POPC   C4B23674   3.774  10.282   7.671
 1713POPC   NC323675  25.882  29.229   9.527
 1713POPC   PO423676  26.249  28.650   9.473
 1713POPC   GL123677  26.347  28.944   9.104
 1713POPC   GL223678  26.067  29.185   9.058
 1713POPC   C1A23679  26.436  29.201   8.703
 1713POPC   D2A23680  26.161  29.211   8.324
 1713POPC   C3A23681  26.237  29.322   7.882
 1713POPC   C4A23682  26.171  29.125   7.510
 1713POPC   C1B23683  25.805  29.273   8.720
 1713POPC   C2B23684  25.644  29.071   8.373
 1713POPC   C3B23685  25.798  29.057   7.962
 1713POPC   C4B23686  25.734  29.382   7.682
 1714POPC   NC323687  19.737  23.142   9.675
 1714POPC   PO423688  19.852  23.696   9.326
 1714POPC   GL123689  19.879  23.865   8.976
 1714POPC   GL223690  19.543  23.849   8.839
 1714POPC   C1A23691  20.004  23.933   8.580
 1714POPC   D2A23692  19.761  23.834   8.199
 1714POPC   C3A23693  19.914  24.092   7.845
 1714POPC   C4A23694  20.241  23.975   7.560
 1714POPC   C1B23695  19.702  23.493   8.624
 1714POPC   C2B23696  19.786  23.188   8.310
 1714POPC   C3B23697  19.956  23.280   7.931
 1714POPC   C4B23698  19.824  23.636   7.689
 1715POPC   NC323699  16.147  39.787   9.435
 1715POPC   PO423700  15.740  40.343   9.490
 1715POPC   GL123701  15.623  40.161   9.080
 1715POPC   GL223702  15.819  39.851   9.019
 1715POPC   C1A23703  15.731  40.169   8.603
 1715POPC   D2A23704  15.978  39.876   8.333
 1715POPC   C3A23705  15.777  39.833   7.916
 1715POPC   C4A23706  15.620  40.013   7.513
 1715POPC   C1B23707  16.163  40.192   8.865
 1715POPC   C2B23708  16.249  40.355   8.420
 1715POPC   C3B23709  16.140  40.230   7.973
 1715POPC   C4B23710  16.073  40.237   7.527
 1716POPC   NC323711  13.776  36.720   9.482
 1716POPC   PO423712  13.447  37.264   9.446
 1716POPC   GL123713  13.645  37.082   9.128
 1716POPC   GL223714  13.409  36.841   9.140
 1716POPC   C1A23715  13.541  37.000   8.691
 1716POPC   D2A23716  13.645  36.842   8.338
 1716POPC   C3A23717  13.454  37.051   8.048
 1716POPC   C4A23718  13.685  36.954   7.743
 1716POPC   C1B23719  13.233  36.615   8.843
 1716POPC   C2B23720  13.220  36.562   8.424
 1716POPC   C3B23721  13.344  36.547   8.006
 1716POPC   C4B23722  13.263  36.667   7.610
 1717POPC   NC323723  33.077   5.305   9.565
 1717POPC   PO423724  33.094   4.594   9.686
 1717POPC   GL123725  33.095   4.850   9.294
 1717POPC   GL223726  32.755   4.983   9.269
 1717POPC   C1A23727  33.107   5.177   8.932
 1717POPC   D2A23728  33.159   5.263   8.507
 1717POPC   C3A23729  32.883   5.450   8.238
 1717POPC   C4A23730  33.010   5.278   7.857
 1717POPC   C1B23731  32.780   4.786   8.862
 1717POPC   C2B23732  32.800   4.890   8.418
 1717POPC   C3B23733  32.961   4.798   8.032
 1717POPC   C4B23734  32.790   4.846   7.643
 1718POPC   NC323735  17.443  18.080  10.240
 1718POPC   PO423736  17.491  18.382   9.594
 1718POPC   GL123737  17.605  18.322   9.144
 1718POPC   GL223738  17.456  18.018   9.018
 1718POPC   C1A23739  17.678  18.306   8.667
 1718POPC   D2A23740  17.446  18.403   8.282
 1718POPC   C3A23741  17.658  18.238   7.932
 1718POPC   C4A23742  17.864  18.417   7.601
 1718POPC   C1B23743  17.174  18.272   8.732
 1718POPC   C2B23744  16.973  18.172   8.332
 1718POPC   C3B23745  17.147  18.193   7.898
 1718POPC   C4B23746  17.415  17.936   7.601
 1719POPC   NC323747  44.325  14.553   9.490
 1719POPC   PO423748  44.821  14.124   9.624
 1719POPC   GL123749  44.723  14.294   9.204
 1719POPC   GL223750  44.382  14.248   9.092
 1719POPC   C1A23751  44.684  14.557   8.809
 1719POPC   D2A23752  44.426  14.600   8.431
 1719POPC   C3A23753  44.649  14.612   8.081
 1719POPC   C4A23754  44.454  14.547   7.678
 1719POPC   C1B23755  44.607  14.046   8.777
 1719POPC   C2B23756  44.749  14.213   8.411
 1719POPC   C3B23757  44.727  14.129   8.002
 1719POPC   C4B23758  44.957  14.386   7.718
 1720POPC   NC323759   7.906  24.723   9.309
 1720POPC   PO423760   8.363  25.215   9.491
 1720POPC   GL123761   8.237  25.410   9.118
 1720POPC   GL223762   8.176  25.079   9.012
 1720POPC   C1A23763   8.201  25.477   8.681
 1720POPC   D2A23764   8.013  25.278   8.365
 1720POPC   C3A23765   7.983  25.498   7.980
 1720POPC   C4A23766   8.153  25.642   7.567
 1720POPC   C1B23767   8.082  24.827   8.692
 1720POPC   C2B23768   7.878  24.796   8.300
 1720POPC   C3B23769   7.838  25.006   7.925
 1720POPC   C4B23770   8.124  25.128   7.618
 1721POPC   NC323771  20.057  37.572   9.421
 1721POPC   PO423772  19.479  37.897   9.537
 1721POPC   GL123773  19.758  37.883   9.144
 1721POPC   GL223774  19.587  38.168   9.039
 1721POPC   C1A23775  19.917  37.603   8.756
 1721POPC   D2A23776  19.895  37.376   8.312
 1721POPC   C3A23777  19.813  37.608   7.901
 1721POPC   C4A23778  19.835  37.744   7.442
 1721POPC   C1B23779  19.524  37.950   8.668
 1721POPC   C2B23780  19.684  37.931   8.267
 1721POPC   C3B23781  19.581  38.092   7.834
 1721POPC   C4B23782  19.456  38.075   7.371
 1722POPC   NC323783  28.362  32.699   9.785
 1722POPC   PO423784  28.009  33.095   9.451
 1722POPC   GL123785  28.058  33.004   9.083
 1722POPC   GL223786  28.416  32.945   9.136
 1722POPC   C1A23787  27.966  33.180   8.697
 1722POPC   D2A23788  28.076  32.962   8.334
 1722POPC   C3A23789  28.274  33.165   8.054
 1722POPC   C4A23790  28.116  33.118   7.689
 1722POPC   C1B23791  28.342  32.780   8.713
 1722POPC   C2B23792  28.556  32.768   8.299
 1722POPC   C3B23793  28.697  32.901   7.893
 1722POPC   C4B23794  28.587  33.270   7.649
 1723POPC   NC323795  26.693  22.636   9.542
 1723POPC   PO423796  26.816  21.985   9.689
 1723POPC   GL123797  26.849  22.231   9.278
 1723POPC   GL223798  26.550  22.387   9.135
 1723POPC   C1A23799  26.924  22.166   8.850
 1723POPC   D2A23800  27.172  22.134   8.503
 1723POPC   C3A23801  26.937  21.956   8.140
 1723POPC   C4A23802  26.684  22.088   7.822
 1723POPC   C1B23803  26.619  22.568   8.739
 1723POPC   C2B23804  26.745  22.401   8.344
 1723POPC   C3B23805  26.505  22.576   7.998
 1723POPC   C4B23806  26.417  22.452   7.608
 1724POPC   NC323807  14.564  36.299   9.538
 1724POPC   PO423808  14.199  35.660   9.544
 1724POPC   GL123809  14.243  36.004   9.241
 1724POPC   GL223810  14.593  36.009   9.103
 1724POPC   C1A23811  14.213  36.310   8.889
 1724POPC   D2A23812  14.127  36.194   8.475
 1724POPC   C3A23813  14.331  36.281   8.088
 1724POPC   C4A23814  14.122  36.163   7.704
 1724POPC   C1B23815  14.626  36.055   8.638
 1724POPC   C2B23816  14.724  35.916   8.219
 1724POPC   C3B23817  14.759  36.097   7.809
 1724POPC   C4B23818  14.816  36.543   7.787
 1725POPC   NC323819  40.925  35.060   9.482
 1725POPC   PO423820  41.036  35.730   9.476
 1725POPC   GL123821  41.101  35.442   9.145
 1725POPC   GL223822  40.748  35.446   9.068
 1725POPC   C1A23823  41.068  35.445   8.688
 1725POPC   D2A23824  40.753  35.321   8.423
 1725POPC   C3A23825  40.818  35.426   8.002
 1725POPC   C4A23826  40.863  35.483   7.565
 1725POPC   C1B23827  40.464  35.628   8.721
 1725POPC   C2B23828  40.412  35.723   8.262
 1725POPC   C3B23829  40.480  35.748   7.798
 1725POPC   C4B23830  40.514  35.788   7.344
 1726POPC   NC323831  22.103  10.120   9.434
 1726POPC   PO423832  22.340  10.794   9.518
 1726POPC   GL123833  22.396  10.596   9.133
 1726POPC   GL223834  22.079  10.509   9.096
 1726POPC   C1A23835  22.386  10.395   8.710
 1726POPC   D2A23836  22.652  10.148   8.475
 1726POPC   C3A23837  22.667  10.287   8.074
 1726POPC   C4A23838  22.325  10.372   7.794
 1726POPC   C1B23839  21.891  10.317   8.727
 1726POPC   C2B23840  21.891  10.574   8.348
 1726POPC   C3B23841  21.834  10.427   7.919
 1726POPC   C4B23842  21.882  10.022   7.750
 1727POPC   NC323843  12.923  33.402   9.496
 1727POPC   PO423844  13.141  32.729   9.405
 1727POPC   GL123845  12.863  33.000   9.178
 1727POPC   GL223846  13.102  33.216   9.034
 1727POPC   C1A23847  12.567  32.930   8.834
 1727POPC   D2A23848  12.436  33.022   8.422
 1727POPC   C3A23849  12.766  33.184   8.160
 1727POPC   C4A23850  12.829  33.328   7.738
 1727POPC   C1B23851  13.047  32.857   8.729
 1727POPC   C2B23852  12.811  32.672   8.372
 1727POPC   C3B23853  12.689  32.704   7.938
 1727POPC   C4B23854  12.940  32.618   7.544
 1728POPC   NC323855  42.737  40.791   9.563
 1728POPC   PO423856  43.275  40.416   9.500
 1728POPC   GL123857  43.102  40.552   9.126
 1728POPC   GL223858  42.779  40.499   9.125
 1728POPC   C1A23859  43.239  40.785   8.760
 1728POPC   D2A23860  43.125  40.934   8.367
 1728POPC   C3A23861  43.332  40.713   8.032
 1728POPC   C4A23862  43.489  40.908   7.663
 1728POPC   C1B23863  42.733  40.741   8.719
 1728POPC   C2B23864  42.647  40.783   8.254
 1728POPC   C3B23865  42.880  40.902   7.850
 1728POPC   C4B23866  43.045  40.896   7.401
 1729POPC   NC323867  18.699   4.631   9.840
 1729POPC   PO423868  18.143   4.240   9.590
 1729POPC   GL123869  18.284   4.389   9.205
 1729POPC   GL223870  18.344   4.038   9.044
 1729POPC   C1A23871  18.219   4.435   8.773
 1729POPC   D2A23872  18.368   4.209   8.440
 1729POPC   C3A23873  18.282   4.460   8.150
 1729POPC   C4A23874  17.849   4.581   8.021
 1729POPC   C1B23875  18.589   3.832   8.688
 1729POPC   C2B23876  18.700   3.903   8.216
 1729POPC   C3B23877  18.436   4.074   7.828
 1729POPC   C4B23878  18.486   3.943   7.351
 1730POPC   NC323879  28.973  15.768   9.568
 1730POPC   PO423880  29.206  16.351   9.593
 1730POPC   GL123881  29.184  16.086   9.208
 1730POPC   GL223882  28.837  16.091   9.180
 1730POPC   C1A23883  29.278  15.859   8.799
 1730POPC   D2A23884  29.073  15.693   8.363
 1730POPC   C3A23885  29.333  15.796   7.973
 1730POPC   C4A23886  29.065  15.708   7.623
 1730POPC   C1B23887  28.893  16.187   8.746
 1730POPC   C2B23888  29.163  16.171   8.383
 1730POPC   C3B23889  28.954  16.108   8.012
 1730POPC   C4B23890  29.130  16.216   7.631
 1731POPC   NC323891  36.979  17.016   9.502
 1731POPC   PO423892  36.712  16.526   9.811
 1731POPC   GL123893  36.873  16.574   9.307
 1731POPC   GL223894  36.640  16.774   9.114
 1731POPC   C1A23895  37.147  16.626   8.918
 1731POPC   D2A23896  37.188  16.412   8.509
 1731POPC   C3A23897  37.035  16.641   8.134
 1731POPC   C4A23898  36.965  16.578   7.692
 1731POPC   C1B23899  36.775  16.883   8.683
 1731POPC   C2B23900  36.557  16.942   8.299
 1731POPC   C3B23901  36.533  16.750   7.909
 1731POPC   C4B23902  36.616  16.881   7.452
 1732POPC   NC323903   9.523  34.395   9.428
 1732POPC   PO423904   9.964  34.946   9.500
 1732POPC   GL123905   9.794  34.764   9.147
 1732POPC   GL223906   9.896  34.417   9.040
 1732POPC   C1A23907   9.517  34.669   8.816
 1732POPC   D2A23908   9.635  34.387   8.509
 1732POPC   C3A23909   9.579  34.538   8.114
 1732POPC   C4A23910   9.580  34.297   7.754
 1732POPC   C1B23911  10.029  34.692   8.670
 1732POPC   C2B23912  10.055  34.740   8.213
 1732POPC   C3B23913  10.073  34.402   7.905
 1732POPC   C4B23914   9.976  34.301   7.464
 1733POPC   NC323915  33.059   0.847   9.476
 1733POPC   PO423916  33.189   1.489   9.433
 1733POPC   GL123917  33.075   1.199   9.092
 1733POPC   GL223918  32.808   0.926   9.052
 1733POPC   C1A23919  33.124   1.318   8.679
 1733POPC   D2A23920  32.961   1.643   8.409
 1733POPC   C3A23921  32.971   1.419   8.032
 1733POPC   C4A23922  32.733   1.162   7.751
 1733POPC   C1B23923  33.096   0.795   8.729
 1733POPC   C2B23924  33.101   0.936   8.275
 1733POPC   C3B23925  33.143   0.880   7.825
 1733POPC   C4B23926  32.979   0.864   7.380
 1734POPC   NC323927  11.719  44.075   9.508
 1734POPC   PO423928  12.308  43.847   9.469
 1734POPC   GL123929  12.374  44.012   9.079
 1734POPC   GL223930  12.024  43.929   9.041
 1734POPC   C1A23931  12.355  43.924   8.641
 1734POPC   D2A23932  12.130  43.818   8.295
 1734POPC   C3A23933  12.146  44.111   7.957
 1734POPC   C4A23934  12.315  43.818   7.668
 1734POPC   C1B23935  11.867  44.121   8.666
 1734POPC   C2B23936  11.708  44.105   8.245
 1734POPC   C3B23937  11.742  43.832   7.875
 1734POPC   C4B23938  11.882  44.058   7.493
 1735POPC   NC323939  25.480  43.900   9.610
 1735POPC   PO423940  24.843  44.154   9.471
 1735POPC   GL123941  25.016  44.005   9.107
 1735POPC   GL223942  25.341  43.837   9.121
 1735POPC   C1A23943  24.831  43.992   8.709
 1735POPC   D2A23944  24.864  44.173   8.272
 1735POPC   C3A23945  25.159  43.931   8.017
 1735POPC   C4A23946  25.134  43.718   7.612
 1735POPC   C1B23947  25.314  43.824   8.686
 1735POPC   C2B23948  25.420  44.168   8.417
 1735POPC   C3B23949  25.651  44.150   8.069
 1735POPC   C4B23950  25.597  43.841   7.739
 1736POPC   NC323951  36.431  21.496   9.735
 1736POPC   PO423952  37.114  21.309   9.700
 1736POPC   GL123953  37.106  21.295   9.232
 1736POPC   GL223954  36.988  21.657   9.144
 1736POPC   C1A23955  37.146  21.005   8.833
 1736POPC   D2A23956  36.939  21.012   8.403
 1736POPC   C3A23957  36.925  21.277   8.005
 1736POPC   C4A23958  37.166  21.428   7.624
 1736POPC   C1B23959  36.795  21.386   8.807
 1736POPC   C2B23960  36.570  21.382   8.406
 1736POPC   C3B23961  36.434  21.622   8.053
 1736POPC   C4B23962  36.679  21.659   7.734
 1737POPC   NC323963  18.907  21.062   9.362
 1737POPC   PO423964  18.933  20.382   9.504
 1737POPC   GL123965  19.021  20.533   9.112
 1737POPC   GL223966  18.671  20.448   9.035
 1737POPC   C1A23967  19.138  20.870   8.790
 1737POPC   D2A23968  19.077  21.167   8.449
 1737POPC   C3A23969  19.144  20.983   8.036
 1737POPC   C4A23970  18.936  20.801   7.641
 1737POPC   C1B23971  18.804  20.512   8.652
 1737POPC   C2B23972  19.163  20.505   8.410
 1737POPC   C3B23973  19.064  20.473   8.009
 1737POPC   C4B23974  18.899  20.303   7.612
 1738POPC   NC323975  38.541  39.523   9.490
 1738POPC   PO423976  38.244  38.897   9.534
 1738POPC   GL123977  38.493  39.087   9.206
 1738POPC   GL223978  38.192  39.310   9.122
 1738POPC   C1A23979  38.604  39.221   8.790
 1738POPC   D2A23980  38.295  39.231   8.454
 1738POPC   C3A23981  38.538  39.243   8.071
 1738POPC   C4A23982  38.453  39.084   7.668
 1738POPC   C1B23983  38.302  39.645   8.817
 1738POPC   C2B23984  38.591  39.634   8.445
 1738POPC   C3B23985  38.382  39.735   8.103
 1738POPC   C4B23986  38.306  39.573   7.740
 1739POPC   NC323987  20.269  35.259   9.581
 1739POPC   PO423988  20.929  35.307   9.468
 1739POPC   GL123989  20.609  35.321   9.173
 1739POPC   GL223990  20.383  35.614   9.217
 1739POPC   C1A23991  20.692  35.174   8.755
 1739POPC   D2A23992  20.907  35.323   8.415
 1739POPC   C3A23993  20.761  35.141   8.045
 1739POPC   C4A23994  20.773  35.320   7.658
 1739POPC   C1B23995  20.282  35.469   8.815
 1739POPC   C2B23996  20.415  35.632   8.428
 1739POPC   C3B23997  20.385  35.528   8.021
 1739POPC   C4B23998  20.453  35.705   7.632
 1740POPC   NC323999  13.442  41.141   9.690
 1740POPC   PO424000  12.890  41.488   9.447
 1740POPC   GL124001  12.880  41.312   9.080
 1740POPC   GL224002  13.165  41.103   9.119
 1740POPC   C1A24003  13.036  41.546   8.746
 1740POPC   D2A24004  13.177  41.775   8.424
 1740POPC   C3A24005  12.964  41.522   8.097
 1740POPC   C4A24006  12.896  41.632   7.714
 1740POPC   C1B24007  13.383  41.143   8.702
 1740POPC   C2B24008  13.401  41.344   8.290
 1740POPC   C3B24009  13.392  41.250   7.845
 1740POPC   C4B24010  13.165  41.289   7.457
 1741POPC   NC324011  44.957  21.878   9.412
 1741POPC   PO424012  44.551  22.323   9.460
 1741POPC   GL124013  44.769  22.244   9.109
 1741POPC   GL224014   0.114  22.347   9.191
 1741POPC   C1A24015  44.610  22.106   8.706
 1741POPC   D2A24016  44.687  21.839   8.351
 1741POPC   C3A24017  44.440  21.868   8.037
 1741POPC   C4A24018  44.456  21.968   7.626
 1741POPC   C1B24019   0.111  22.169   8.742
 1741POPC   C2B24020  44.999  22.229   8.274
 1741POPC   C3B24021  44.866  22.293   7.826
 1741POPC   C4B24022   0.046  22.411   7.397
 1742POPC   NC324023  10.207   9.959   9.677
 1742POPC   PO424024  10.708  10.207   9.400
 1742POPC   GL124025  10.553  10.025   9.022
 1742POPC   GL224026  10.289   9.818   9.134
 1742POPC   C1A24027  10.690   9.834   8.615
 1742POPC   D2A24028  10.547   9.798   8.213
 1742POPC   C3A24029  10.416   9.624   7.832
 1742POPC   C4A24030  10.495   9.915   7.503
 1742POPC   C1B24031  10.392   9.501   8.813
 1742POPC   C2B24032  10.222   9.470   8.411
 1742POPC   C3B24033   9.920   9.447   8.105
 1742POPC   C4B24034   9.978   9.356   7.702
 1743POPC   NC324035  17.489  29.286   9.654
 1743POPC   PO424036  17.580  28.624   9.722
 1743POPC   GL124037  17.537  28.909   9.278
 1743POPC   GL224038  17.210  29.065   9.155
 1743POPC   C1A24039  17.542  29.017   8.796
 1743POPC   D2A24040  17.489  29.013   8.333
 1743POPC   C3A24041  17.213  29.065   8.010
 1743POPC   C4A24042  17.424  28.958   7.646
 1743POPC   C1B24043  17.167  29.360   8.741
 1743POPC   C2B24044  17.150  29.519   8.267
 1743POPC   C3B24045  17.103  29.535   7.782
 1743POPC   C4B24046  17.191  29.317   7.393
 1744POPC   NC324047  30.197   2.872   9.413
 1744POPC   PO424048  29.560   2.668   9.385
 1744POPC   GL124049  29.785   2.927   9.116
 1744POPC   GL224050  29.972   2.618   9.026
 1744POPC   C1A24051  30.027   3.010   8.733
 1744POPC   D2A24052  30.043   2.625   8.436
 1744POPC   C3A24053  30.104   2.778   8.002
 1744POPC   C4A24054  30.091   2.927   7.587
 1744POPC   C1B24055  29.739   2.308   8.819
 1744POPC   C2B24056  29.564   2.354   8.422
 1744POPC   C3B24057  29.733   2.445   8.049
 1744POPC   C4B24058  29.616   2.445   7.634
 1745POPC   NC324059  17.395  24.891   9.556
 1745POPC   PO424060  17.745  24.342   9.507
 1745POPC   GL124061  17.507  24.525   9.179
 1745POPC   GL224062  17.119  24.629   9.232
 1745POPC   C1A24063  17.722  24.687   8.814
 1745POPC   D2A24064  17.540  24.789   8.385
 1745POPC   C3A24065  17.780  24.694   8.012
 1745POPC   C4A24066  17.665  24.851   7.636
 1745POPC   C1B24067  17.211  24.650   8.786
 1745POPC   C2B24068  17.485  24.314   8.588
 1745POPC   C3B24069  17.459  24.330   8.165
 1745POPC   C4B24070  17.263  24.618   7.875
 1746POPC   NC324071   5.091  44.062   9.521
 1746POPC   PO424072   5.147  43.483   9.616
 1746POPC   GL124073   4.976  43.653   9.214
 1746POPC   GL224074   5.266  43.849   9.076
 1746POPC   C1A24075   4.971  43.636   8.737
 1746POPC   D2A24076   5.151  43.318   8.446
 1746POPC   C3A24077   5.244  43.411   8.016
 1746POPC   C4A24078   5.056  43.721   7.722
 1746POPC   C1B24079   5.114  44.205   8.838
 1746POPC   C2B24080   4.860  44.295   8.471
 1746POPC   C3B24081   4.850  44.417   8.043
 1746POPC   C4B24082   5.166  44.227   7.771
 1747POPC   NC324083   5.698   5.000   9.372
 1747POPC   PO424084   6.245   5.316   9.406
 1747POPC   GL124085   6.018   5.207   9.018
 1747POPC   GL224086   5.897   4.867   8.934
 1747POPC   C1A24087   5.915   5.328   8.590
 1747POPC   D2A24088   6.041   5.584   8.279
 1747POPC   C3A24089   6.083   5.316   7.929
 1747POPC   C4A24090   6.114   4.893   7.817
 1747POPC   C1B24091   5.520   5.064   8.757
 1747POPC   C2B24092   5.439   5.091   8.340
 1747POPC   C3B24093   5.635   5.010   7.965
 1747POPC   C4B24094   5.704   5.265   7.600
 1748POPC   NC324095  28.634  36.093   9.722
 1748POPC   PO424096  28.235  36.521   9.735
 1748POPC   GL124097  28.410  36.369   9.286
 1748POPC   GL224098  28.627  36.078   9.213
 1748POPC   C1A24099  28.290  36.195   8.837
 1748POPC   D2A24100  28.226  35.943   8.427
 1748POPC   C3A24101  28.111  36.256   8.096
 1748POPC   C4A24102  28.376  36.394   7.697
 1748POPC   C1B24103  28.784  36.193   8.794
 1748POPC   C2B24104  28.567  36.317   8.405
 1748POPC   C3B24105  28.573  36.071   8.039
 1748POPC   C4B24106  28.733  35.959   7.646
 1749POPC   NC324107  17.752  16.341   9.445
 1749POPC   PO424108  17.176  15.944   9.436
 1749POPC   GL124109  17.369  15.880   9.050
 1749POPC   GL224110  17.688  15.943   9.094
 1749POPC   C1A24111  17.326  15.951   8.618
 1749POPC   D2A24112  17.207  16.268   8.323
 1749POPC   C3A24113  17.421  16.125   8.020
 1749POPC   C4A24114  17.343  16.012   7.642
 1749POPC   C1B24115  17.795  15.731   8.709
 1749POPC   C2B24116  17.742  15.823   8.266
 1749POPC   C3B24117  17.798  15.840   7.774
 1749POPC   C4B24118  18.023  15.785   7.358
 1750POPC   NC324119  36.702  29.521   9.600
 1750POPC   PO424120  36.107  29.301   9.444
 1750POPC   GL124121  36.349  29.151   9.086
 1750POPC   GL224122  36.563  28.798   9.094
 1750POPC   C1A24123  36.057  29.243   8.740
 1750POPC   D2A24124  35.742  29.131   8.401
 1750POPC   C3A24125  35.923  29.056   7.999
 1750POPC   C4A24126  36.068  29.390   7.760
 1750POPC   C1B24127  36.518  28.894   8.672
 1750POPC   C2B24128  36.330  29.104   8.345
 1750POPC   C3B24129  36.454  29.150   7.972
 1750POPC   C4B24130  36.382  28.791   7.731
 1751POPC   NC324131  17.128  11.306   9.609
 1751POPC   PO424132  17.717  11.022   9.472
 1751POPC   GL124133  17.469  11.261   9.198
 1751POPC   GL224134  17.242  10.996   9.228
 1751POPC   C1A24135  17.576  11.458   8.800
 1751POPC   D2A24136  17.792  11.427   8.390
 1751POPC   C3A24137  17.589  11.511   8.001
 1751POPC   C4A24138  17.554  11.266   7.639
 1751POPC   C1B24139  17.299  10.819   8.850
 1751POPC   C2B24140  17.559  10.979   8.544
 1751POPC   C3B24141  17.559  10.990   8.100
 1751POPC   C4B24142  17.314  10.831   7.709
 1752POPC   NC324143  23.679  11.113   9.512
 1752POPC   PO424144  23.925  11.637   9.423
 1752POPC   GL124145  23.741  11.518   9.044
 1752POPC   GL224146  23.452  11.296   9.098
 1752POPC   C1A24147  23.881  11.331   8.672
 1752POPC   D2A24148  24.118  11.366   8.278
 1752POPC   C3A24149  23.889  11.215   7.931
 1752POPC   C4A24150  23.845  11.414   7.556
 1752POPC   C1B24151  23.210  11.578   8.828
 1752POPC   C2B24152  23.352  11.727   8.419
 1752POPC   C3B24153  23.346  11.539   7.984
 1752POPC   C4B24154  23.240  11.637   7.556
 1753POPC   NC324155   6.154   4.161   9.670
 1753POPC   PO424156   5.579   4.543   9.453
 1753POPC   GL124157   5.692   4.336   9.083
 1753POPC   GL224158   5.960   4.155   9.119
 1753POPC   C1A24159   5.797   4.431   8.676
 1753POPC   D2A24160   5.884   4.787   8.429
 1753POPC   C3A24161   5.902   4.534   8.090
 1753POPC   C4A24162   5.945   4.426   7.691
 1753POPC   C1B24163   6.170   4.031   8.733
 1753POPC   C2B24164   6.073   4.116   8.345
 1753POPC   C3B24165   5.960   4.005   7.970
 1753POPC   C4B24166   6.309   4.050   7.761
 1754POPC   NC324167  26.475   3.878   9.413
 1754POPC   PO424168  26.149   4.366   9.721
 1754POPC   GL124169  26.110   4.335   9.246
 1754POPC   GL224170  26.173   4.093   9.039
 1754POPC   C1A24171  25.982   4.553   8.850
 1754POPC   D2A24172  26.093   4.713   8.432
 1754POPC   C3A24173  26.001   4.401   8.118
 1754POPC   C4A24174  26.028   4.413   7.681
 1754POPC   C1B24175  26.485   4.002   8.736
 1754POPC   C2B24176  26.324   4.004   8.330
 1754POPC   C3B24177  26.343   4.061   7.900
 1754POPC   C4B24178  26.132   3.941   7.507
 1755POPC   NC324179  31.037  43.453   9.423
 1755POPC   PO424180  30.397  43.151   9.479
 1755POPC   GL124181  30.641  43.190   9.132
 1755POPC   GL224182  30.517  43.497   9.000
 1755POPC   C1A24183  30.556  43.061   8.696
 1755POPC   D2A24184  30.689  43.207   8.291
 1755POPC   C3A24185  30.902  42.921   8.045
 1755POPC   C4A24186  30.700  42.767   7.700
 1755POPC   C1B24187  30.890  43.467   8.709
 1755POPC   C2B24188  31.143  43.484   8.338
 1755POPC   C3B24189  31.075  43.384   7.930
 1755POPC   C4B24190  30.903  43.211   7.555
 1756POPC   NC324191  29.571  41.720   9.735
 1756POPC   PO424192  30.185  41.555   9.457
 1756POPC   GL124193  29.972  41.648   9.095
 1756POPC   GL224194  29.653  41.688   9.217
 1756POPC   C1A24195  30.064  41.605   8.678
 1756POPC   D2A24196  30.334  41.594   8.288
 1756POPC   C3A24197  30.124  41.781   7.921
 1756POPC   C4A24198  30.306  41.852   7.498
 1756POPC   C1B24199  29.553  41.792   8.779
 1756POPC   C2B24200  29.672  41.697   8.348
 1756POPC   C3B24201  29.533  41.760   7.925
 1756POPC   C4B24202  29.664  41.532   7.606
 1757POPC   NC324203  36.247   8.864   9.482
 1757POPC   PO424204  35.730   9.155   9.638
 1757POPC   GL124205  35.929   9.113   9.146
 1757POPC   GL224206  36.279   8.986   9.007
 1757POPC   C1A24207  35.982   9.175   8.669
 1757POPC   D2A24208  35.776   9.203   8.275
 1757POPC   C3A24209  36.119   9.089   7.995
 1757POPC   C4A24210  36.238   9.227   7.584
 1757POPC   C1B24211  35.942   8.702   8.835
 1757POPC   C2B24212  35.986   8.725   8.407
 1757POPC   C3B24213  36.098   8.536   8.047
 1757POPC   C4B24214  36.332   8.669   7.726
 1758POPC   NC324215  30.671  42.782   9.511
 1758POPC   PO424216  30.938  42.211   9.406
 1758POPC   GL124217  30.647  42.330   9.114
 1758POPC   GL224218  30.537  42.679   9.035
 1758POPC   C1A24219  30.843  42.332   8.735
 1758POPC   D2A24220  30.756  42.625   8.429
 1758POPC   C3A24221  30.779  42.406   8.053
 1758POPC   C4A24222  30.985  42.364   7.650
 1758POPC   C1B24223  30.352  42.437   8.702
 1758POPC   C2B24224  30.282  42.494   8.294
 1758POPC   C3B24225  30.269  42.292   7.961
 1758POPC   C4B24226  30.494  42.285   7.631
 1759POPC   NC324227  29.158  24.264   9.575
 1759POPC   PO424228  28.698  24.688   9.424
 1759POPC   GL124229  28.838  24.323   9.148
 1759POPC   GL224230  29.190  24.145   9.097
 1759POPC   C1A24231  29.033  24.480   8.755
 1759POPC   D2A24232  28.976  24.491   8.336
 1759POPC   C3A24233  29.142  24.728   8.050
 1759POPC   C4A24234  29.101  24.580   7.654
 1759POPC   C1B24235  29.454  24.140   8.733
 1759POPC   C2B24236  29.499  24.349   8.332
 1759POPC   C3B24237  29.330  24.241   7.943
 1759POPC   C4B24238  29.452  24.089   7.540
 1760POPC   NC324239   4.519  24.260   9.454
 1760POPC   PO424240   4.208  24.773   9.503
 1760POPC   GL124241   4.184  24.532   9.159
 1760POPC   GL224242   4.027  24.243   9.266
 1760POPC   C1A24243   4.372  24.492   8.759
 1760POPC   D2A24244   4.553  24.310   8.387
 1760POPC   C3A24245   4.381  24.438   8.016
 1760POPC   C4A24246   4.541  24.276   7.641
 1760POPC   C1B24247   3.992  24.132   8.828
 1760POPC   C2B24248   4.064  24.234   8.398
 1760POPC   C3B24249   3.881  24.135   8.010
 1760POPC   C4B24250   4.011  24.346   7.672
 1761POPC   NC324251  31.424  38.837   9.606
 1761POPC   PO424252  31.691  38.217   9.505
 1761POPC   GL124253  31.621  38.510   9.189
 1761POPC   GL224254  31.288  38.380   9.150
 1761POPC   C1A24255  31.476  38.611   8.746
 1761POPC   D2A24256  31.313  38.387   8.391
 1761POPC   C3A24257  31.522  38.497   8.015
 1761POPC   C4A24258  31.672  38.700   7.681
 1761POPC   C1B24259  31.142  38.102   8.802
 1761POPC   C2B24260  31.008  37.972   8.353
 1761POPC   C3B24261  31.175  38.133   7.932
 1761POPC   C4B24262  31.176  38.099   7.437
 1762POPC   NC324263  42.860  16.880   9.498
 1762POPC   PO424264  43.572  17.056   9.446
 1762POPC   GL124265  43.248  16.817   9.181
 1762POPC   GL224266  43.238  16.401   9.185
 1762POPC   C1A24267  43.032  17.032   8.830
 1762POPC   D2A24268  42.973  17.301   8.476
 1762POPC   C3A24269  43.017  17.128   8.078
 1762POPC   C4A24270  42.893  16.778   7.797
 1762POPC   C1B24271  43.238  16.540   8.776
 1762POPC   C2B24272  43.198  16.780   8.420
 1762POPC   C3B24273  43.323  16.679   8.068
 1762POPC   C4B24274  43.375  16.513   7.681
 1763POPC   NC324275  24.743  35.520   9.602
 1763POPC   PO424276  24.119  35.240   9.435
 1763POPC   GL124277  24.454  35.181   9.126
 1763POPC   GL224278  24.801  35.309   9.139
 1763POPC   C1A24279  24.542  35.119   8.678
 1763POPC   D2A24280  24.326  35.389   8.402
 1763POPC   C3A24281  24.545  35.426   7.991
 1763POPC   C4A24282  24.657  35.015   7.794
 1763POPC   C1B24283  24.695  35.587   8.792
 1763POPC   C2B24284  24.860  35.485   8.384
 1763POPC   C3B24285  25.030  35.320   7.985
 1763POPC   C4B24286  24.958  35.629   7.688
 1764POPC   NC324287   3.227   0.279   9.647
 1764POPC   PO424288   3.770   0.576   9.396
 1764POPC   GL124289   3.576   0.288   9.144
 1764POPC   GL224290   3.868   0.209   8.958
 1764POPC   C1A24291   3.433   0.316   8.700
 1764POPC   D2A24292   3.599   0.101   8.315
 1764POPC   C3A24293   3.444  44.981   7.899
 1764POPC   C4A24294   3.163   0.279   7.781
 1764POPC   C1B24295   3.897   0.487   8.623
 1764POPC   C2B24296   3.695   0.638   8.258
 1764POPC   C3B24297   3.701   0.421   7.864
 1764POPC   C4B24298   3.592   0.237   7.447
 1765POPC   NC324299  18.508  39.202   9.627
 1765POPC   PO424300  17.862  39.012   9.492
 1765POPC   GL124301  18.186  39.122   9.168
 1765POPC   GL224302  18.120  39.463   9.196
 1765POPC   C1A24303  18.371  39.187   8.721
 1765POPC   D2A24304  18.250  39.126   8.268
 1765POPC   C3A24305  18.450  39.136   7.855
 1765POPC   C4A24306  18.591  38.922   7.477
 1765POPC   C1B24307  17.892  39.542   8.835
 1765POPC   C2B24308  18.066  39.557   8.449
 1765POPC   C3B24309  17.964  39.647   8.041
 1765POPC   C4B24310  18.026  39.410   7.735
 1766POPC   NC324311   6.173  11.487   9.353
 1766POPC   PO424312   6.822  11.291   9.545
 1766POPC   GL124313   6.558  11.157   9.208
 1766POPC   GL224314   6.630  11.488   9.090
 1766POPC   C1A24315   6.560  11.109   8.738
 1766POPC   D2A24316   6.808  11.225   8.362
 1766POPC   C3A24317   6.634  11.210   7.948
 1766POPC   C4A24318   6.659  11.415   7.538
 1766POPC   C1B24319   6.411  11.651   8.740
 1766POPC   C2B24320   6.376  11.857   8.360
 1766POPC   C3B24321   6.387  11.660   7.957
 1766POPC   C4B24322   6.266  11.752   7.531
 1767POPC   NC324323   2.699  40.393   9.331
 1767POPC   PO424324   3.050  40.969   9.444
 1767POPC   GL124325   2.909  40.804   9.108
 1767POPC   GL224326   2.547  40.842   9.114
 1767POPC   C1A24327   2.829  40.641   8.724
 1767POPC   D2A24328   2.715  40.884   8.423
 1767POPC   C3A24329   2.807  40.734   8.045
 1767POPC   C4A24330   2.841  40.973   7.613
 1767POPC   C1B24331   2.313  40.694   8.729
 1767POPC   C2B24332   2.350  40.582   8.275
 1767POPC   C3B24333   2.361  40.712   7.837
 1767POPC   C4B24334   2.439  40.750   7.391
 1768POPC   NC324335  11.117  40.136   9.518
 1768POPC   PO424336  11.754  39.837   9.502
 1768POPC   GL124337  11.499  40.020   9.188
 1768POPC   GL224338  11.263  39.710   9.266
 1768POPC   C1A24339  11.416  40.266   8.781
 1768POPC   D2A24340  11.182  40.375   8.331
 1768POPC   C3A24341  11.320  40.152   7.985
 1768POPC   C4A24342  11.623  39.869   7.913
 1768POPC   C1B24343  11.243  39.757   8.840
 1768POPC   C2B24344  11.320  39.865   8.428
 1768POPC   C3B24345  11.158  39.656   8.085
 1768POPC   C4B24346  10.842  39.543   7.799
 1769POPC   NC324347  22.077  33.913   9.524
 1769POPC   PO424348  21.621  33.493   9.628
 1769POPC   GL124349  21.882  33.476   9.220
 1769POPC   GL224350  22.235  33.447   9.089
 1769POPC   C1A24351  21.842  33.756   8.846
 1769POPC   D2A24352  21.999  34.029   8.511
 1769POPC   C3A24353  22.065  33.789   8.155
 1769POPC   C4A24354  22.135  33.715   7.732
 1769POPC   C1B24355  22.356  33.810   8.810
 1769POPC   C2B24356  22.524  33.813   8.409
 1769POPC   C3B24357  22.532  33.997   7.999
 1769POPC   C4B24358  22.478  34.250   7.662
 1770POPC   NC324359  31.125   5.145   9.492
 1770POPC   PO424360  30.550   4.707   9.450
 1770POPC   GL124361  30.703   5.073   9.146
 1770POPC   GL224362  30.995   5.302   9.039
 1770POPC   C1A24363  30.720   5.088   8.688
 1770POPC   D2A24364  30.570   4.907   8.327
 1770POPC   C3A24365  30.480   5.162   7.996
 1770POPC   C4A24366  30.541   4.984   7.614
 1770POPC   C1B24367  31.159   4.906   8.842
 1770POPC   C2B24368  31.073   4.699   8.417
 1770POPC   C3B24369  30.942   4.793   7.976
 1770POPC   C4B24370  31.001   5.167   7.737
 1771POPC   NC324371  37.222   1.963   9.291
 1771POPC   PO424372  36.559   2.143   9.511
 1771POPC   GL124373  36.756   2.113   9.127
 1771POPC   GL224374  36.742   1.799   9.034
 1771POPC   C1A24375  36.973   2.159   8.721
 1771POPC   D2A24376  37.106   1.947   8.388
 1771POPC   C3A24377  37.051   2.129   8.008
 1771POPC   C4A24378  37.324   2.172   7.675
 1771POPC   C1B24379  36.491   2.004   8.703
 1771POPC   C2B24380  36.587   1.927   8.295
 1771POPC   C3B24381  36.559   2.050   7.893
 1771POPC   C4B24382  36.795   1.879   7.578
 1772POPC   NC324383  11.610   1.306   9.698
 1772POPC   PO424384  12.149   0.975   9.563
 1772POPC   GL124385  12.148   1.202   9.208
 1772POPC   GL224386  12.496   1.208   9.167
 1772POPC   C1A24387  12.002   1.258   8.793
 1772POPC   D2A24388  12.178   1.169   8.388
 1772POPC   C3A24389  11.940   1.181   7.986
 1772POPC   C4A24390  11.565   1.073   7.761
 1772POPC   C1B24391  12.548   1.359   8.743
 1772POPC   C2B24392  12.662   1.389   8.296
 1772POPC   C3B24393  12.447   1.184   7.951
 1772POPC   C4B24394  12.294   1.159   7.513
 1773POPC   NC324395   0.569  32.337   9.397
 1773POPC   PO424396   0.927  31.774   9.575
 1773POPC   GL124397   0.638  31.892   9.145
 1773POPC   GL224398   0.263  31.997   9.163
 1773POPC   C1A24399   0.637  32.099   8.722
 1773POPC   D2A24400   0.568  32.427   8.416
 1773POPC   C3A24401   0.589  32.282   8.006
 1773POPC   C4A24402   0.665  31.896   7.825
 1773POPC   C1B24403   0.174  32.330   8.830
 1773POPC   C2B24404   0.065  32.299   8.394
 1773POPC   C3B24405   0.111  32.502   8.021
 1773POPC   C4B24406   0.229  32.430   7.609
 1774POPC   NC324407  28.800  17.336   9.366
 1774POPC   PO424408  29.476  17.654   9.380
 1774POPC   GL124409  29.218  17.467   9.082
 1774POPC   GL224410  29.025  17.765   8.982
 1774POPC   C1A24411  29.100  17.389   8.652
 1774POPC   D2A24412  29.104  17.116   8.322
 1774POPC   C3A24413  29.006  17.278   7.939
 1774POPC   C4A24414  29.213  17.239   7.528
 1774POPC   C1B24415  29.394  17.790   8.714
 1774POPC   C2B24416  29.368  17.624   8.273
 1774POPC   C3B24417  29.372  17.602   7.830
 1774POPC   C4B24418  28.953  17.666   7.558
 1775POPC   NC324419  14.362   3.120   9.489
 1775POPC   PO424420  13.864   2.563   9.504
 1775POPC   GL124421  14.105   2.795   9.149
 1775POPC   GL224422  14.482   2.844   9.090
 1775POPC   C1A24423  14.195   2.707   8.732
 1775POPC   D2A24424  14.111   2.666   8.368
 1775POPC   C3A24425  14.471   2.577   8.155
 1775POPC   C4A24426  14.541   2.850   7.834
 1775POPC   C1B24427  14.557   3.078   8.685
 1775POPC   C2B24428  14.452   3.121   8.266
 1775POPC   C3B24429  14.598   3.354   7.893
 1775POPC   C4B24430  14.557   3.188   7.471
 1776POPC   NC324431  31.058  10.903   9.646
 1776POPC   PO424432  30.893  11.559   9.669
 1776POPC   GL124433  30.834  11.289   9.248
 1776POPC   GL224434  30.458  11.262   9.131
 1776POPC   C1A24435  30.848  11.280   8.782
 1776POPC   D2A24436  31.030  11.465   8.402
 1776POPC   C3A24437  30.917  11.296   7.999
 1776POPC   C4A24438  30.787  11.104   7.667
 1776POPC   C1B24439  30.399  11.481   8.745
 1776POPC   C2B24440  30.512  11.330   8.341
 1776POPC   C3B24441  30.369  11.368   7.923
 1776POPC   C4B24442  30.357  11.291   7.487
 1777POPC   NC324443  13.582   2.207   9.482
 1777POPC   PO424444  13.712   1.579   9.410
 1777POPC   GL124445  13.493   1.846   9.130
 1777POPC   GL224446  13.783   2.093   9.029
 1777POPC   C1A24447  13.349   2.011   8.753
 1777POPC   D2A24448  13.600   2.242   8.500
 1777POPC   C3A24449  13.545   2.040   8.100
 1777POPC   C4A24450  13.472   1.985   7.649
 1777POPC   C1B24451  13.822   1.787   8.687
 1777POPC   C2B24452  13.935   1.679   8.265
 1777POPC   C3B24453  13.875   1.699   7.822
 1777POPC   C4B24454  13.866   1.847   7.358
 1778POPC   NC324455  42.103  11.074   9.512
 1778POPC   PO424456  42.763  10.822   9.498
 1778POPC   GL124457  42.488  11.122   9.155
 1778POPC   GL224458  42.118  11.319   9.087
 1778POPC   C1A24459  42.486  11.385   8.791
 1778POPC   D2A24460  42.397  11.129   8.464
 1778POPC   C3A24461  42.490  11.277   8.092
 1778POPC   C4A24462  42.768  11.134   7.818
 1778POPC   C1B24463  41.899  11.324   8.712
 1778POPC   C2B24464  41.949  11.252   8.283
 1778POPC   C3B24465  42.037  11.093   7.903
 1778POPC   C4B24466  41.976  11.383   7.582
 1779POPC   NC324467  12.488  41.108   9.392
 1779POPC   PO424468  11.811  41.322   9.372
 1779POPC   GL124469  12.100  41.496   9.109
 1779POPC   GL224470  12.421  41.586   9.218
 1779POPC   C1A24471  12.058  41.676   8.728
 1779POPC   D2A24472  12.136  41.845   8.324
 1779POPC   C3A24473  12.000  41.732   7.905
 1779POPC   C4A24474  11.688  41.752   7.575
 1779POPC   C1B24475  12.553  41.783   8.854
 1779POPC   C2B24476  12.661  41.786   8.422
 1779POPC   C3B24477  12.505  41.824   7.971
 1779POPC   C4B24478  12.397  41.462   7.740
 1780POPC   NC324479  30.517  20.182   9.409
 1780POPC   PO424480  30.819  19.531   9.338
 1780POPC   GL124481  30.678  19.812   9.051
 1780POPC   GL224482  30.885  20.096   9.065
 1780POPC   C1A24483  30.531  19.723   8.641
 1780POPC   D2A24484  30.285  19.654   8.266
 1780POPC   C3A24485  30.515  19.789   7.903
 1780POPC   C4A24486  30.652  19.603   7.510
 1780POPC   C1B24487  30.640  20.238   8.711
 1780POPC   C2B24488  30.730  20.056   8.296
 1780POPC   C3B24489  31.009  19.941   7.972
 1780POPC   C4B24490  30.907  20.036   7.511
 1781POPC   NC324491  18.141  37.876   9.566
 1781POPC   PO424492  18.047  37.279   9.240
 1781POPC   GL124493  18.105  37.630   9.087
 1781POPC   GL224494  18.394  37.715   9.145
 1781POPC   C1A24495  18.137  37.782   8.694
 1781POPC   D2A24496  17.946  37.628   8.378
 1781POPC   C3A24497  18.199  37.723   8.066
 1781POPC   C4A24498  18.152  37.778   7.660
 1781POPC   C1B24499  18.606  37.883   8.843
 1781POPC   C2B24500  18.573  37.668   8.457
 1781POPC   C3B24501  18.706  37.824   8.123
 1781POPC   C4B24502  18.657  37.838   7.747
 1782POPC   NC324503  11.696  25.796   9.459
 1782POPC   PO424504  12.214  26.280   9.485
 1782POPC   GL124505  11.954  26.299   9.127
 1782POPC   GL224506  12.066  25.960   9.101
 1782POPC   C1A24507  12.037  26.308   8.671
 1782POPC   D2A24508  12.151  26.096   8.270
 1782POPC   C3A24509  12.120  26.422   7.946
 1782POPC   C4A24510  11.664  26.554   7.814
 1782POPC   C1B24511  12.174  25.789   8.717
 1782POPC   C2B24512  12.493  25.676   8.431
 1782POPC   C3B24513  12.411  25.664   7.993
 1782POPC   C4B24514  12.164  25.950   7.727
 1783POPC   NC324515  23.590  26.340   9.384
 1783POPC   PO424516  24.059  25.894   9.497
 1783POPC   GL124517  23.840  26.000   9.114
 1783POPC   GL224518  23.515  25.858   9.105
 1783POPC   C1A24519  23.901  25.841   8.716
 1783POPC   D2A24520  23.986  25.660   8.335
 1783POPC   C3A24521  23.831  25.898   8.024
 1783POPC   C4A24522  23.885  26.104   7.630
 1783POPC   C1B24523  23.494  26.146   8.734
 1783POPC   C2B24524  23.370  26.281   8.352
 1783POPC   C3B24525  23.507  26.295   7.947
 1783POPC   C4B24526  23.448  26.339   7.516
 1784POPC   NC324527   7.029   4.410   9.413
 1784POPC   PO424528   6.496   4.452   9.842
 1784POPC   GL124529   6.483   4.386   9.314
 1784POPC   GL224530   6.165   4.596   9.285
 1784POPC   C1A24531   6.662   4.147   8.860
 1784POPC   D2A24532   7.015   4.201   8.516
 1784POPC   C3A24533   6.962   4.220   8.063
 1784POPC   C4A24534   6.783   4.198   7.658
 1784POPC   C1B24535   6.267   4.527   8.847
 1784POPC   C2B24536   6.476   4.428   8.470
 1784POPC   C3B24537   6.427   4.449   8.038
 1784POPC   C4B24538   6.432   4.554   7.599
 1785POPC   NC324539  14.372  30.614   9.675
 1785POPC   PO424540  13.885  30.367   9.308
 1785POPC   GL124541  14.290  30.396   9.200
 1785POPC   GL224542  14.569  30.673   9.190
 1785POPC   C1A24543  14.324  30.433   8.783
 1785POPC   D2A24544  14.343  30.712   8.481
 1785POPC   C3A24545  14.251  30.446   8.147
 1785POPC   C4A24546  14.234  30.712   7.813
 1785POPC   C1B24547  14.831  30.483   8.844
 1785POPC   C2B24548  14.719  30.383   8.413
 1785POPC   C3B24549  14.713  30.650   8.078
 1785POPC   C4B24550  14.772  30.715   7.660
 1786POPC   NC324551  38.289  14.022   9.505
 1786POPC   PO424552  38.680  14.589   9.564
 1786POPC   GL124553  38.566  14.462   9.139
 1786POPC   GL224554  38.607  14.149   9.143
 1786POPC   C1A24555  38.703  14.296   8.684
 1786POPC   D2A24556  38.561  14.545   8.377
 1786POPC   C3A24557  38.176  14.468   8.181
 1786POPC   C4A24558  38.289  14.433   7.761
 1786POPC   C1B24559  38.261  14.113   8.838
 1786POPC   C2B24560  38.313  14.011   8.410
 1786POPC   C3B24561  38.193  13.974   7.994
 1786POPC   C4B24562  38.104  14.030   7.540
 1787POPC   NC324563  31.829   5.055   9.495
 1787POPC   PO424564  31.377   5.496   9.329
 1787POPC   GL124565  31.501   5.202   9.103
 1787POPC   GL224566  31.801   5.349   9.072
 1787POPC   C1A24567  31.474   5.286   8.659
 1787POPC   D2A24568  31.144   5.213   8.375
 1787POPC   C3A24569  31.391   5.040   8.060
 1787POPC   C4A24570  31.624   5.196   7.726
 1787POPC   C1B24571  31.827   4.932   8.834
 1787POPC   C2B24572  31.745   4.835   8.404
 1787POPC   C3B24573  31.915   4.799   8.001
 1787POPC   C4B24574  31.827   4.684   7.589
 1788POPC   NC324575  19.289   6.104   9.615
 1788POPC   PO424576  18.729   5.764   9.409
 1788POPC   GL124577  19.005   6.017   9.176
 1788POPC   GL224578  18.735   6.155   8.970
 1788POPC   C1A24579  19.278   6.059   8.791
 1788POPC   D2A24580  19.302   5.757   8.399
 1788POPC   C3A24581  19.232   5.982   7.983
 1788POPC   C4A24582  19.078   6.289   7.669
 1788POPC   C1B24583  18.883   5.739   8.757
 1788POPC   C2B24584  18.775   5.471   8.414
 1788POPC   C3B24585  18.659   5.412   7.983
 1788POPC   C4B24586  18.799   5.803   7.784
 1789POPC   NC324587  40.990   2.185   9.527
 1789POPC   PO424588  40.971   1.572   9.383
 1789POPC   GL124589  41.079   1.870   9.011
 1789POPC   GL224590  41.107   2.215   8.996
 1789POPC   C1A24591  40.845   2.075   8.594
 1789POPC   D2A24592  40.610   2.281   8.226
 1789POPC   C3A24593  40.556   1.954   7.907
 1789POPC   C4A24594  40.906   1.647   7.799
 1789POPC   C1B24595  41.346   2.095   8.612
 1789POPC   C2B24596  41.187   1.930   8.199
 1789POPC   C3B24597  41.012   2.175   7.851
 1789POPC   C4B24598  41.131   2.411   7.464
 1790POPC   NC324599  44.357   2.291   9.517
 1790POPC   PO424600  44.631   2.897   9.579
 1790POPC   GL124601  44.749   2.909   9.145
 1790POPC   GL224602  44.648   2.590   9.150
 1790POPC   C1A24603  44.678   2.994   8.740
 1790POPC   D2A24604  44.983   3.064   8.433
 1790POPC   C3A24605  44.757   3.020   8.066
 1790POPC   C4A24606  44.609   2.713   7.769
 1790POPC   C1B24607  44.664   2.455   8.756
 1790POPC   C2B24608  44.630   2.627   8.381
 1790POPC   C3B24609  44.761   2.361   8.082
 1790POPC   C4B24610  44.820   2.248   7.673
 1791POPC   NC324611  35.159  20.818   9.503
 1791POPC   PO424612  35.558  20.273   9.544
 1791POPC   GL124613  35.378  20.492   9.163
 1791POPC   GL224614  35.497  20.831   9.121
 1791POPC   C1A24615  35.067  20.741   8.862
 1791POPC   D2A24616  34.989  20.849   8.432
 1791POPC   C3A24617  35.266  20.649   8.095
 1791POPC   C4A24618  35.199  20.589   7.632
 1791POPC   C1B24619  35.546  20.712   8.666
 1791POPC   C2B24620  35.557  21.004   8.301
 1791POPC   C3B24621  35.659  20.993   7.879
 1791POPC   C4B24622  35.690  20.538   7.781
 1792POPC   NC324623  13.785  22.635   9.413
 1792POPC   PO424624  13.094  22.795   9.468
 1792POPC   GL124625  13.389  22.823   9.131
 1792POPC   GL224626  13.388  22.478   9.124
 1792POPC   C1A24627  13.503  23.095   8.739
 1792POPC   D2A24628  13.363  23.115   8.280
 1792POPC   C3A24629  13.670  23.075   7.936
 1792POPC   C4A24630  14.019  22.817   7.827
 1792POPC   C1B24631  13.692  22.483   8.793
 1792POPC   C2B24632  13.927  22.473   8.441
 1792POPC   C3B24633  13.677  22.630   8.157
 1792POPC   C4B24634  13.515  22.601   7.756
 1793POPC   NC324635  10.181  31.314   9.454
 1793POPC   PO424636   9.766  31.746   9.642
 1793POPC   GL124637   9.743  31.559   9.236
 1793POPC   GL224638   9.789  31.202   9.141
 1793POPC   C1A24639   9.616  31.791   8.894
 1793POPC   D2A24640   9.490  31.847   8.525
 1793POPC   C3A24641   9.654  31.544   8.237
 1793POPC   C4A24642   9.670  31.450   7.811
 1793POPC   C1B24643   9.912  31.403   8.755
 1793POPC   C2B24644  10.176  31.286   8.441
 1793POPC   C3B24645  10.116  30.897   8.206
 1793POPC   C4B24646   9.993  31.052   7.865
 1794POPC   NC324647  37.395  15.128   9.881
 1794POPC   PO424648  37.105  14.795   9.381
 1794POPC   GL124649  36.955  14.996   9.045
 1794POPC   GL224650  36.841  15.311   9.121
 1794POPC   C1A24651  36.772  15.026   8.656
 1794POPC   D2A24652  37.059  14.922   8.335
 1794POPC   C3A24653  36.887  15.121   7.997
 1794POPC   C4A24654  36.579  15.169   7.684
 1794POPC   C1B24655  37.146  15.373   8.754
 1794POPC   C2B24656  37.039  15.482   8.339
 1794POPC   C3B24657  37.293  15.471   7.957
 1794POPC   C4B24658  37.121  15.300   7.602
 1795POPC   NC324659  14.051  34.593   9.907
 1795POPC   PO424660  13.509  34.775   9.501
 1795POPC   GL124661  13.736  34.639   9.184
 1795POPC   GL224662  13.640  34.366   9.163
 1795POPC   C1A24663  13.588  34.646   8.746
 1795POPC   D2A24664  13.551  34.384   8.375
 1795POPC   C3A24665  13.341  34.548   8.030
 1795POPC   C4A24666  13.312  34.681   7.593
 1795POPC   C1B24667  13.801  34.165   8.779
 1795POPC   C2B24668  14.035  34.177   8.379
 1795POPC   C3B24669  13.953  34.474   8.068
 1795POPC   C4B24670  13.722  34.369   7.740
 1796POPC   NC324671  28.276  29.366   9.516
 1796POPC   PO424672  28.170  28.680   9.425
 1796POPC   GL124673  28.168  29.022   9.124
 1796POPC   GL224674  28.010  29.355   9.087
 1796POPC   C1A24675  28.355  29.071   8.735
 1796POPC   D2A24676  28.606  29.011   8.410
 1796POPC   C3A24677  28.465  29.137   8.035
 1796POPC   C4A24678  28.684  29.077   7.646
 1796POPC   C1B24679  27.866  29.209   8.706
 1796POPC   C2B24680  27.991  29.346   8.301
 1796POPC   C3B24681  27.975  29.154   7.906
 1796POPC   C4B24682  28.042  29.113   7.467
 1797POPC   NC324683  28.182  20.974   9.488
 1797POPC   PO424684  28.825  20.945   9.410
 1797POPC   GL124685  28.652  20.558   9.199
 1797POPC   GL224686  28.291  20.513   9.172
 1797POPC   C1A24687  28.624  20.404   8.768
 1797POPC   D2A24688  28.757  20.619   8.359
 1797POPC   C3A24689  28.551  20.610   7.997
 1797POPC   C4A24690  28.514  20.374   7.666
 1797POPC   C1B24691  28.348  20.839   8.857
 1797POPC   C2B24692  28.268  20.662   8.485
 1797POPC   C3B24693  28.082  20.704   8.130
 1797POPC   C4B24694  27.967  20.464   7.808
 1798POPC   NC324695   6.267  30.489   9.464
 1798POPC   PO424696   6.894  30.521   9.506
 1798POPC   GL124697   6.807  30.716   9.118
 1798POPC   GL224698   6.497  30.723   9.076
 1798POPC   C1A24699   6.884  30.912   8.735
 1798POPC   D2A24700   6.752  31.025   8.334
 1798POPC   C3A24701   6.964  30.917   7.971
 1798POPC   C4A24702   6.759  30.607   7.777
 1798POPC   C1B24703   6.282  30.760   8.721
 1798POPC   C2B24704   6.415  30.593   8.426
 1798POPC   C3B24705   6.396  30.697   8.088
 1798POPC   C4B24706   6.182  30.550   7.776
 1799POPC   NC324707  32.516  33.330   9.504
 1799POPC   PO424708  32.205  33.918   9.590
 1799POPC   GL124709  32.277  33.693   9.200
 1799POPC   GL224710  32.631  33.677   9.140
 1799POPC   C1A24711  32.035  33.612   8.828
 1799POPC   D2A24712  32.169  33.404   8.435
 1799POPC   C3A24713  32.278  33.654   8.107
 1799POPC   C4A24714  31.975  33.723   7.783
 1799POPC   C1B24715  32.470  33.829   8.714
 1799POPC   C2B24716  32.098  34.003   8.475
 1799POPC   C3B24717  32.087  34.150   8.045
 1799POPC   C4B24718  32.406  34.029   7.749
 1800POPC   NC324719  14.482  21.469   9.574
 1800POPC   PO424720  13.876  21.216   9.492
 1800POPC   GL124721  14.212  21.304   9.141
 1800POPC   GL224722  14.602  21.335   9.126
 1800POPC   C1A24723  14.383  21.351   8.695
 1800POPC   D2A24724  14.637  21.401   8.367
 1800POPC   C3A24725  14.405  21.464   8.008
 1800POPC   C4A24726  14.297  21.359   7.588
 1800POPC   C1B24727  14.853  21.564   8.824
 1800POPC   C2B24728  14.764  21.864   8.522
 1800POPC   C3B24729  14.819  21.827   8.067
 1800POPC   C4B24730  14.723  21.645   7.655
 1801POPC   NC324731  20.058   3.147   9.274
 1801POPC   PO424732  19.539   3.506   9.580
 1801POPC   GL124733  19.729   3.588   9.173
 1801POPC   GL224734  19.692   3.287   8.967
 1801POPC   C1A24735  19.979   3.839   8.863
 1801POPC   D2A24736  20.255   3.797   8.518
 1801POPC   C3A24737  19.999   3.683   8.167
 1801POPC   C4A24738  20.054   3.655   7.736
 1801POPC   C1B24739  20.026   3.355   8.656
 1801POPC   C2B24740  20.321   3.319   8.322
 1801POPC   C3B24741  20.264   3.223   7.906
 1801POPC   C4B24742  20.154   3.222   7.494
 1802POPC   NC324743  42.881   6.733   9.471
 1802POPC   PO424744  43.508   6.596   9.447
 1802POPC   GL124745  43.229   6.479   9.170
 1802POPC   GL224746  43.212   6.837   9.089
 1802POPC   C1A24747  43.041   6.448   8.778
 1802POPC   D2A24748  43.156   6.647   8.430
 1802POPC   C3A24749  43.086   6.380   8.102
 1802POPC   C4A24750  43.002   6.452   7.671
 1802POPC   C1B24751  42.899   6.937   8.796
 1802POPC   C2B24752  42.969   7.119   8.390
 1802POPC   C3B24753  43.002   6.881   7.994
 1802POPC   C4B24754  42.751   6.937   7.634
 1803POPC   NC324755   3.685   8.445   9.465
 1803POPC   PO424756   3.085   8.567   9.193
 1803POPC   GL124757   3.347   8.197   9.101
 1803POPC   GL224758   3.697   8.230   8.981
 1803POPC   C1A24759   3.375   7.938   8.709
 1803POPC   D2A24760   3.810   7.946   8.540
 1803POPC   C3A24761   3.756   7.891   8.101
 1803POPC   C4A24762   3.330   7.945   7.917
 1803POPC   C1B24763   3.446   8.432   8.656
 1803POPC   C2B24764   3.215   8.370   8.298
 1803POPC   C3B24765   3.348   8.460   7.894
 1803POPC   C4B24766   3.693   8.251   7.726
 1804POPC   NC324767  23.598  21.843   9.540
 1804POPC   PO424768  24.091  22.302   9.428
 1804POPC   GL124769  23.694  22.238   9.215
 1804POPC   GL224770  23.874  21.952   9.123
 1804POPC   C1A24771  23.477  22.092   8.832
 1804POPC   D2A24772  23.700  22.058   8.434
 1804POPC   C3A24773  23.505  22.097   8.014
 1804POPC   C4A24774  23.537  22.020   7.534
 1804POPC   C1B24775  24.113  22.003   8.774
 1804POPC   C2B24776  24.151  21.800   8.379
 1804POPC   C3B24777  24.003  21.993   8.010
 1804POPC   C4B24778  24.001  21.838   7.605
 1805POPC   NC324779  43.857  28.799   9.838
 1805POPC   PO424780  43.707  29.276   9.432
 1805POPC   GL124781  44.075  29.127   9.217
 1805POPC   GL224782  43.824  29.033   8.987
 1805POPC   C1A24783  44.228  29.284   8.813
 1805POPC   D2A24784  43.970  29.062   8.484
 1805POPC   C3A24785  43.924  29.203   8.064
 1805POPC   C4A24786  44.242  29.015   7.856
 1805POPC   C1B24787  43.629  29.364   8.723
 1805POPC   C2B24788  43.583  29.533   8.293
 1805POPC   C3B24789  43.488  29.504   7.848
 1805POPC   C4B24790  43.677  29.550   7.466
 1806POPC   NC324791  10.752   5.462   9.673
 1806POPC   PO424792  10.342   6.034   9.571
 1806POPC   GL124793  10.442   5.882   9.141
 1806POPC   GL224794  10.307   5.548   9.202
 1806POPC   C1A24795  10.613   5.857   8.684
 1806POPC   D2A24796  10.739   5.561   8.381
 1806POPC   C3A24797  10.755   5.740   7.989
 1806POPC   C4A24798  10.919   5.758   7.572
 1806POPC   C1B24799  10.301   5.458   8.740
 1806POPC   C2B24800  10.239   5.648   8.336
 1806POPC   C3B24801  10.283   5.540   7.942
 1806POPC   C4B24802  10.406   5.793   7.600
 1807POPC   NC324803   2.471  12.974   9.464
 1807POPC   PO424804   3.100  12.590   9.322
 1807POPC   GL124805   2.962  12.829   9.025
 1807POPC   GL224806   2.682  12.745   9.073
 1807POPC   C1A24807   3.025  12.909   8.634
 1807POPC   D2A24808   2.771  12.945   8.272
 1807POPC   C3A24809   2.988  12.900   7.885
 1807POPC   C4A24810   2.861  12.942   7.480
 1807POPC   C1B24811   2.593  12.484   8.752
 1807POPC   C2B24812   2.750  12.426   8.374
 1807POPC   C3B24813   2.616  12.521   7.958
 1807POPC   C4B24814   2.736  12.437   7.528
 1808POPC   NC324815   6.807  20.106   9.472
 1808POPC   PO424816   6.428  19.529   9.615
 1808POPC   GL124817   6.579  19.652   9.216
 1808POPC   GL224818   6.444  19.961   9.138
 1808POPC   C1A24819   6.911  19.740   8.889
 1808POPC   D2A24820   6.954  19.967   8.495
 1808POPC   C3A24821   6.618  19.937   8.176
 1808POPC   C4A24822   6.576  19.797   7.747
 1808POPC   C1B24823   6.436  19.872   8.686
 1808POPC   C2B24824   6.157  20.097   8.382
 1808POPC   C3B24825   6.146  20.044   7.957
 1808POPC   C4B24826   6.155  20.010   7.504
 1809POPC   NC324827  42.507  24.137   9.587
 1809POPC   PO424828  42.037  24.682   9.559
 1809POPC   GL124829  42.179  24.710   9.131
 1809POPC   GL224830  42.464  24.478   9.164
 1809POPC   C1A24831  42.225  24.576   8.690
 1809POPC   D2A24832  42.474  24.344   8.370
 1809POPC   C3A24833  42.438  24.513   7.954
 1809POPC   C4A24834  42.061  24.650   7.716
 1809POPC   C1B24835  42.216  24.143   8.966
 1809POPC   C2B24836  42.105  23.943   8.569
 1809POPC   C3B24837  42.121  23.985   8.119
 1809POPC   C4B24838  42.145  24.156   7.710
 1810POPC   NC324839   5.180  34.711   9.348
 1810POPC   PO424840   4.685  34.304   9.494
 1810POPC   GL124841   4.723  34.535   9.122
 1810POPC   GL224842   4.811  34.902   9.071
 1810POPC   C1A24843   4.918  34.456   8.743
 1810POPC   D2A24844   5.030  34.607   8.326
 1810POPC   C3A24845   4.886  34.332   7.999
 1810POPC   C4A24846   4.819  34.455   7.520
 1810POPC   C1B24847   5.173  34.896   8.745
 1810POPC   C2B24848   5.225  35.116   8.387
 1810POPC   C3B24849   5.443  34.834   8.135
 1810POPC   C4B24850   5.232  34.619   7.794
 1811POPC   NC324851  11.812  33.321   9.592
 1811POPC   PO424852  11.775  32.719   9.395
 1811POPC   GL124853  11.976  33.070   9.163
 1811POPC   GL224854  12.337  33.177   9.210
 1811POPC   C1A24855  12.071  32.887   8.777
 1811POPC   D2A24856  11.922  32.793   8.404
 1811POPC   C3A24857  12.118  32.949   8.028
 1811POPC   C4A24858  11.982  32.730   7.668
 1811POPC   C1B24859  12.231  33.354   8.818
 1811POPC   C2B24860  12.013  33.313   8.448
 1811POPC   C3B24861  11.817  33.398   8.074
 1811POPC   C4B24862  11.963  33.315   7.703
 1812POPC   NC324863  39.783  22.773   9.504
 1812POPC   PO424864  40.088  23.410   9.275
 1812POPC   GL124865  40.065  22.986   9.112
 1812POPC   GL224866  39.724  22.973   9.065
 1812POPC   C1A24867  40.307  22.806   8.779
 1812POPC   D2A24868  40.266  23.039   8.377
 1812POPC   C3A24869  40.184  22.831   7.984
 1812POPC   C4A24870  40.027  22.629   7.637
 1812POPC   C1B24871  39.841  23.062   8.665
 1812POPC   C2B24872  39.800  22.836   8.312
 1812POPC   C3B24873  39.678  22.994   7.925
 1812POPC   C4B24874  39.666  23.292   7.610
 1813POPC   NC324875  12.985   6.441   9.335
 1813POPC   PO424876  12.480   6.657   9.665
 1813POPC   GL124877  12.517   6.814   9.230
 1813POPC   GL224878  12.838   6.983   9.125
 1813POPC   C1A24879  12.562   6.713   8.768
 1813POPC   D2A24880  12.693   6.428   8.441
 1813POPC   C3A24881  12.550   6.487   8.017
 1813POPC   C4A24882  12.693   6.682   7.664
 1813POPC   C1B24883  13.081   6.800   8.756
 1813POPC   C2B24884  13.192   6.552   8.379
 1813POPC   C3B24885  13.068   6.449   7.957
 1813POPC   C4B24886  13.195   6.799   7.687
 1814POPC   NC324887   3.255  28.173   9.525
 1814POPC   PO424888   3.825  27.873   9.470
 1814POPC   GL124889   3.601  28.150   9.120
 1814POPC   GL224890   3.277  28.406   9.090
 1814POPC   C1A24891   3.471  28.199   8.698
 1814POPC   D2A24892   3.561  28.421   8.365
 1814POPC   C3A24893   3.252  28.380   8.100
 1814POPC   C4A24894   3.335  28.357   7.710
 1814POPC   C1B24895   3.392  28.713   8.771
 1814POPC   C2B24896   3.221  28.842   8.351
 1814POPC   C3B24897   3.237  28.839   7.873
 1814POPC   C4B24898   3.258  28.755   7.389
 1815POPC   NC324899  32.784  10.671   9.743
 1815POPC   PO424900  32.173  10.855   9.661
 1815POPC   GL124901  32.477  10.726   9.289
 1815POPC   GL224902  32.176  10.526   9.201
 1815POPC   C1A24903  32.550  10.481   8.869
 1815POPC   D2A24904  32.438  10.563   8.439
 1815POPC   C3A24905  32.614  10.526   8.038
 1815POPC   C4A24906  32.476  10.561   7.610
 1815POPC   C1B24907  32.038  10.525   8.771
 1815POPC   C2B24908  31.942  10.767   8.399
 1815POPC   C3B24909  32.114  10.659   8.013
 1815POPC   C4B24910  32.058  10.295   7.781
 1816POPC   NC324911  24.345   0.048   9.953
 1816POPC   PO424912  24.385   0.593   9.515
 1816POPC   GL124913  24.528   0.444   9.129
 1816POPC   GL224914  24.325   0.665   8.995
 1816POPC   C1A24915  24.657   0.227   8.761
 1816POPC   D2A24916  24.477   0.198   8.348
 1816POPC   C3A24917  24.658   0.151   7.941
 1816POPC   C4A24918  24.459   0.251   7.560
 1816POPC   C1B24919  24.642   0.748   8.691
 1816POPC   C2B24920  24.773   0.609   8.312
 1816POPC   C3B24921  24.509   0.649   7.977
 1816POPC   C4B24922  24.621   0.709   7.591
 1817POPC   NC324923   0.990  14.938   9.439
 1817POPC   PO424924   1.417  15.465   9.522
 1817POPC   GL124925   1.212  15.322   9.171
 1817POPC   GL224926   1.391  15.010   9.096
 1817POPC   C1A24927   1.025  15.420   8.773
 1817POPC   D2A24928   1.227  15.276   8.393
 1817POPC   C3A24929   1.392  15.406   7.992
 1817POPC   C4A24930   1.212  15.257   7.585
 1817POPC   C1B24931   1.517  14.935   8.674
 1817POPC   C2B24932   1.646  15.037   8.275
 1817POPC   C3B24933   1.361  14.921   7.948
 1817POPC   C4B24934   1.451  14.787   7.556
 1818POPC   NC324935  36.791   0.224  10.003
 1818POPC   PO424936  36.793   0.641   9.472
 1818POPC   GL124937  36.889   0.673   9.050
 1818POPC   GL224938  36.979   0.329   9.065
 1818POPC   C1A24939  36.717   0.490   8.634
 1818POPC   D2A24940  36.577   0.506   8.195
 1818POPC   C3A24941  36.937   0.560   7.931
 1818POPC   C4A24942  37.004   0.411   7.530
 1818POPC   C1B24943  37.080   0.125   8.687
 1818POPC   C2B24944  36.972   0.184   8.259
 1818POPC   C3B24945  37.115   0.026   7.848
 1818POPC   C4B24946  37.084  44.911   7.401
 1819POPC   NC324947  30.412   3.562   9.411
 1819POPC   PO424948  31.113   3.880   9.436
 1819POPC   GL124949  30.795   3.808   9.151
 1819POPC   GL224950  30.819   3.423   9.118
 1819POPC   C1A24951  30.829   3.727   8.717
 1819POPC   D2A24952  30.705   3.447   8.383
 1819POPC   C3A24953  30.812   3.527   7.980
 1819POPC   C4A24954  30.721   3.885   7.780
 1819POPC   C1B24955  30.519   3.208   8.795
 1819POPC   C2B24956  30.340   3.085   8.346
 1819POPC   C3B24957  30.444   3.176   7.908
 1819POPC   C4B24958  30.340   3.554   7.645
 1820POPC   NC324959  32.837  18.505   9.544
 1820POPC   PO424960  33.027  17.887   9.509
 1820POPC   GL124961  32.900  18.119   9.203
 1820POPC   GL224962  33.179  18.353   9.215
 1820POPC   C1A24963  32.852  18.338   8.826
 1820POPC   D2A24964  32.703  18.161   8.472
 1820POPC   C3A24965  32.733  18.366   8.114
 1820POPC   C4A24966  32.718  18.369   7.704
 1820POPC   C1B24967  33.330  18.082   8.912
 1820POPC   C2B24968  33.227  18.132   8.503
 1820POPC   C3B24969  33.332  18.333   8.144
 1820POPC   C4B24970  33.327  18.338   7.705
 1821POPC   NC324971  13.995  10.690   9.484
 1821POPC   PO424972  13.379  10.719   9.559
 1821POPC   GL124973  13.476  10.551   9.161
 1821POPC   GL224974  13.827  10.460   9.065
 1821POPC   C1A24975  13.395  10.392   8.760
 1821POPC   D2A24976  13.566  10.240   8.392
 1821POPC   C3A24977  13.355  10.473   8.106
 1821POPC   C4A24978  13.430  10.687   7.738
 1821POPC   C1B24979  13.827  10.705   8.678
 1821POPC   C2B24980  13.872  10.693   8.216
 1821POPC   C3B24981  13.835  10.356   7.914
 1821POPC   C4B24982  13.744  10.371   7.484
 1822POPC   NC324983   1.400  31.815   9.521
 1822POPC   PO424984   1.000  32.239   9.234
 1822POPC   GL124985   1.351  32.044   9.076
 1822POPC   GL224986   1.633  32.167   9.220
 1822POPC   C1A24987   1.285  31.974   8.683
 1822POPC   D2A24988   1.069  32.318   8.527
 1822POPC   C3A24989   1.100  32.270   8.126
 1822POPC   C4A24990   1.131  32.216   7.730
 1822POPC   C1B24991   1.575  32.398   8.809
 1822POPC   C2B24992   1.544  32.435   8.380
 1822POPC   C3B24993   1.607  32.234   8.025
 1822POPC   C4B24994   1.563  31.895   7.786
 1823POPC   NC324995   9.603  35.208   9.660
 1823POPC   PO424996  10.001  35.672   9.364
 1823POPC   GL124997   9.752  35.549   9.045
 1823POPC   GL224998   9.575  35.257   9.152
 1823POPC   C1A24999   9.919  35.578   8.657
 1823POPC   D2A25000   9.936  35.623   8.260
 1823POPC   C3A25001   9.956  35.305   7.979
 1823POPC   C4A25002   9.637  35.518   7.763
 1823POPC   C1B25003   9.753  35.112   8.764
 1823POPC   C2B25004   9.649  34.993   8.384
 1823POPC   C3B25005   9.509  35.052   7.987
 1823POPC   C4B25006   9.587  35.044   7.565
 1824POPC   NC325007   1.516  20.287   9.420
 1824POPC   PO425008   1.568  20.993   9.491
 1824POPC   GL125009   1.313  20.702   9.168
 1824POPC   GL225010   1.090  20.361   9.096
 1824POPC   C1A25011   1.367  20.556   8.735
 1824POPC   D2A25012   1.222  20.753   8.384
 1824POPC   C3A25013   1.309  20.693   7.968
 1824POPC   C4A25014   0.974  20.836   7.751
 1824POPC   C1B25015   0.712  20.348   8.774
 1824POPC   C2B25016   0.602  20.346   8.356
 1824POPC   C3B25017   0.957  20.359   8.107
 1824POPC   C4B25018   1.031  20.330   7.699
 1825POPC   NC325019   5.613  44.455   9.401
 1825POPC   PO425020   6.135  44.819   9.511
 1825POPC   GL125021   6.028  44.617   9.141
 1825POPC   GL225022   5.717  44.771   9.021
 1825POPC   C1A25023   6.069  44.534   8.724
 1825POPC   D2A25024   5.813  44.620   8.373
 1825POPC   C3A25025   6.108  44.545   8.050
 1825POPC   C4A25026   6.224  44.508   7.642
 1825POPC   C1B25027   5.587  44.380   8.774
 1825POPC   C2B25028   5.400  44.292   8.381
 1825POPC   C3B25029   5.639  44.325   7.986
 1825POPC   C4B25030   5.692  44.441   7.548
 1826POPC   NC325031  22.170  23.806   9.512
 1826POPC   PO425032  22.181  23.157   9.459
 1826POPC   GL125033  22.177  23.473   9.111
 1826POPC   GL225034  21.938  23.809   9.084
 1826POPC   C1A25035  22.274  23.675   8.720
 1826POPC   D2A25036  22.439  23.989   8.412
 1826POPC   C3A25037  22.259  23.964   7.972
 1826POPC   C4A25038  22.134  23.548   7.798
 1826POPC   C1B25039  21.856  23.956   8.703
 1826POPC   C2B25040  21.955  23.756   8.331
 1826POPC   C3B25041  21.745  23.798   7.982
 1826POPC   C4B25042  21.841  23.961   7.613
 1827POPC   NC325043  16.996  25.547   9.483
 1827POPC   PO425044  17.716  25.336   9.531
 1827POPC   GL125045  17.666  25.095   9.156
 1827POPC   GL225046  17.290  25.085   9.089
 1827POPC   C1A25047  17.640  25.165   8.719
 1827POPC   D2A25048  17.532  25.399   8.390
 1827POPC   C3A25049  17.578  25.188   8.024
 1827POPC   C4A25050  17.719  25.342   7.653
 1827POPC   C1B25051  17.241  25.477   8.872
 1827POPC   C2B25052  17.103  25.641   8.476
 1827POPC   C3B25053  17.123  25.469   8.079
 1827POPC   C4B25054  17.351  25.676   7.781
 1828POPC   NC325055  23.944  24.446   9.481
 1828POPC   PO425056  23.330  24.143   9.506
 1828POPC   GL125057  23.481  24.451   9.171
 1828POPC   GL225058  23.829  24.382   8.993
 1828POPC   C1A25059  23.408  24.417   8.699
 1828POPC   D2A25060  23.603  24.620   8.315
 1828POPC   C3A25061  23.432  24.558   7.882
 1828POPC   C4A25062  23.678  24.407   7.495
 1828POPC   C1B25063  23.992  24.738   8.738
 1828POPC   C2B25064  24.115  24.830   8.295
 1828POPC   C3B25065  23.863  24.924   7.916
 1828POPC   C4B25066  23.790  24.912   7.447
 1829POPC   NC325067  40.028  12.923   9.559
 1829POPC   PO425068  40.542  12.620   9.324
 1829POPC   GL125069  40.099  12.684   9.103
 1829POPC   GL225070  39.725  12.825   9.153
 1829POPC   C1A25071  40.021  12.765   8.674
 1829POPC   D2A25072  40.165  12.974   8.299
 1829POPC   C3A25073  40.050  12.710   7.981
 1829POPC   C4A25074  40.046  12.529   7.632
 1829POPC   C1B25075  39.579  12.992   8.740
 1829POPC   C2B25076  39.649  12.863   8.279
 1829POPC   C3B25077  39.691  13.080   7.845
 1829POPC   C4B25078  39.561  13.147   7.336
 1830POPC   NC325079  12.531   5.052   9.602
 1830POPC   PO425080  11.950   5.436   9.498
 1830POPC   GL125081  12.084   5.168   9.136
 1830POPC   GL225082  12.408   5.061   9.070
 1830POPC   C1A25083  11.935   4.993   8.770
 1830POPC   D2A25084  12.152   4.919   8.394
 1830POPC   C3A25085  11.930   5.017   8.038
 1830POPC   C4A25086  11.746   4.816   7.719
 1830POPC   C1B25087  12.303   5.386   8.724
 1830POPC   C2B25088  12.376   5.548   8.302
 1830POPC   C3B25089  12.272   5.369   7.881
 1830POPC   C4B25090  12.269   4.973   7.665
 1831POPC   NC325091  20.169  14.169   9.455
 1831POPC   PO425092  19.656  14.588   9.523
 1831POPC   GL125093  19.704  14.281   9.203
 1831POPC   GL225094  19.444  14.371   8.948
 1831POPC   C1A25095  19.933  14.273   8.832
 1831POPC   D2A25096  19.789  14.348   8.442
 1831POPC   C3A25097  20.064  14.391   8.136
 1831POPC   C4A25098  20.008  14.343   7.720
 1831POPC   C1B25099  19.711  14.737   8.741
 1831POPC   C2B25100  19.921  14.837   8.334
 1831POPC   C3B25101  19.775  14.747   7.906
 1831POPC   C4B25102  19.670  14.682   7.466
 1832POPC   NC325103  25.175   5.122   9.546
 1832POPC   PO425104  25.449   4.524   9.431
 1832POPC   GL125105  25.163   4.817   9.134
 1832POPC   GL225106  25.302   5.218   9.080
 1832POPC   C1A25107  25.017   4.957   8.733
 1832POPC   D2A25108  25.207   4.995   8.349
 1832POPC   C3A25109  25.086   4.762   7.964
 1832POPC   C4A25110  25.140   4.970   7.584
 1832POPC   C1B25111  25.231   5.457   8.703
 1832POPC   C2B25112  25.348   5.489   8.264
 1832POPC   C3B25113  25.333   5.571   7.814
 1832POPC   C4B25114  25.249   5.429   7.364
 1833POPC   NC325115  28.732  34.260   9.460
 1833POPC   PO425116  28.221  34.632   9.637
 1833POPC   GL125117  28.223  34.709   9.208
 1833POPC   GL225118  28.580  34.652   9.154
 1833POPC   C1A25119  28.315  34.811   8.764
 1833POPC   D2A25120  28.227  34.589   8.392
 1833POPC   C3A25121  28.425  34.702   8.018
 1833POPC   C4A25122  28.213  34.568   7.671
 1833POPC   C1B25123  28.785  34.574   8.747
 1833POPC   C2B25124  28.719  34.409   8.320
 1833POPC   C3B25125  28.546  34.194   7.936
 1833POPC   C4B25126  28.592  34.258   7.483
 1834POPC   NC325127  28.019  30.338   9.470
 1834POPC   PO425128  28.728  30.493   9.504
 1834POPC   GL125129  28.428  30.585   9.171
 1834POPC   GL225130  28.434  30.237   9.136
 1834POPC   C1A25131  28.359  30.871   8.776
 1834POPC   D2A25132  28.296  31.117   8.406
 1834POPC   C3A25133  28.544  30.991   8.062
 1834POPC   C4A25134  28.229  30.857   7.789
 1834POPC   C1B25135  28.387  30.382   8.698
 1834POPC   C2B25136  28.454  30.550   8.309
 1834POPC   C3B25137  28.453  30.377   7.910
 1834POPC   C4B25138  28.550  30.284   7.491
 1835POPC   NC325139  35.749  42.656   9.403
 1835POPC   PO425140  36.293  42.398   9.498
 1835POPC   GL125141  36.162  42.370   9.118
 1835POPC   GL225142  35.875  42.200   9.143
 1835POPC   C1A25143  36.329  42.302   8.709
 1835POPC   D2A25144  36.517  42.412   8.309
 1835POPC   C3A25145  36.264  42.363   7.937
 1835POPC   C4A25146  36.010  42.035   7.860
 1835POPC   C1B25147  35.806  42.419   8.752
 1835POPC   C2B25148  36.008  42.552   8.378
 1835POPC   C3B25149  35.753  42.547   8.056
 1835POPC   C4B25150  35.701  42.427   7.685
 1836POPC   NC325151  20.710  36.817   9.482
 1836POPC   PO425152  21.120  36.246   9.475
 1836POPC   GL125153  20.806  36.481   9.113
 1836POPC   GL225154  20.418  36.628   9.126
 1836POPC   C1A25155  20.749  36.848   8.776
 1836POPC   D2A25156  20.987  37.066   8.420
 1836POPC   C3A25157  20.857  37.123   7.971
 1836POPC   C4A25158  20.606  37.299   7.623
 1836POPC   C1B25159  20.370  36.501   8.745
 1836POPC   C2B25160  20.525  36.585   8.352
 1836POPC   C3B25161  20.279  36.539   7.991
 1836POPC   C4B25162  20.408  36.829   7.715
 1837POPC   NC325163  30.950  29.217   9.613
 1837POPC   PO425164  31.578  29.168   9.563
 1837POPC   GL125165  31.448  29.208   9.121
 1837POPC   GL225166  31.308  29.522   9.020
 1837POPC   C1A25167  31.665  29.246   8.710
 1837POPC   D2A25168  31.781  29.369   8.330
 1837POPC   C3A25169  31.679  29.077   8.092
 1837POPC   C4A25170  31.705  28.957   7.700
 1837POPC   C1B25171  31.159  29.233   8.666
 1837POPC   C2B25172  31.159  29.103   8.227
 1837POPC   C3B25173  31.292  29.297   7.835
 1837POPC   C4B25174  31.086  29.393   7.454
 1838POPC   NC325175  13.188  13.778   9.416
 1838POPC   PO425176  12.642  13.429   9.730
 1838POPC   GL125177  12.684  13.671   9.273
 1838POPC   GL225178  12.560  14.009   9.193
 1838POPC   C1A25179  12.891  13.771   8.828
 1838POPC   D2A25180  12.949  13.920   8.372
 1838POPC   C3A25181  12.931  13.591   8.039
 1838POPC   C4A25182  13.242  13.349   7.851
 1838POPC   C1B25183  12.377  13.721   8.845
 1838POPC   C2B25184  12.464  13.759   8.390
 1838POPC   C3B25185  12.463  13.793   7.938
 1838POPC   C4B25186  12.579  13.671   7.545
 1839POPC   NC325187   0.970  14.171   9.429
 1839POPC   PO425188   1.455  14.664   9.474
 1839POPC   GL125189   1.346  14.434   9.147
 1839POPC   GL225190   1.028  14.564   9.084
 1839POPC   C1A25191   1.335  14.439   8.711
 1839POPC   D2A25192   1.587  14.378   8.383
 1839POPC   C3A25193   1.377  14.438   8.032
 1839POPC   C4A25194   1.224  14.326   7.670
 1839POPC   C1B25195   1.017  14.885   8.776
 1839POPC   C2B25196   1.110  14.782   8.376
 1839POPC   C3B25197   0.892  14.627   8.054
 1839POPC   C4B25198   0.940  14.752   7.654
 1840POPC   NC325199  29.289   3.046   9.445
 1840POPC   PO425200  28.926   2.408   9.500
 1840POPC   GL125201  29.113   2.601   9.129
 1840POPC   GL225202  29.277   2.921   8.968
 1840POPC   C1A25203  29.127   2.516   8.706
 1840POPC   D2A25204  29.202   2.760   8.342
 1840POPC   C3A25205  29.250   2.565   7.973
 1840POPC   C4A25206  29.163   2.735   7.554
 1840POPC   C1B25207  29.582   2.782   8.678
 1840POPC   C2B25208  29.712   2.960   8.278
 1840POPC   C3B25209  29.588   2.939   7.842
 1840POPC   C4B25210  29.606   2.934   7.391
 1841POPC   NC325211  11.151  43.767   9.468
 1841POPC   PO425212  11.442  44.274   9.209
 1841POPC   GL125213  11.515  43.864   9.011
 1841POPC   GL225214  11.212  43.710   8.988
 1841POPC   C1A25215  11.428  43.784   8.550
 1841POPC   D2A25216  11.206  44.099   8.310
 1841POPC   C3A25217  11.317  44.124   7.867
 1841POPC   C4A25218  11.385  44.207   7.434
 1841POPC   C1B25219  10.962  43.965   8.776
 1841POPC   C2B25220  10.751  43.929   8.406
 1841POPC   C3B25221  10.851  43.942   7.962
 1841POPC   C4B25222  10.966  43.908   7.513
 1842POPC   NC325223   9.608  38.816   9.842
 1842POPC   PO425224  10.139  39.111   9.516
 1842POPC   GL125225  10.043  39.135   9.082
 1842POPC   GL225226   9.670  39.100   9.070
 1842POPC   C1A25227   9.965  38.970   8.657
 1842POPC   D2A25228   9.803  39.018   8.216
 1842POPC   C3A25229   9.962  39.323   7.891
 1842POPC   C4A25230   9.994  39.218   7.418
 1842POPC   C1B25231   9.469  38.867   8.705
 1842POPC   C2B25232   9.303  39.116   8.355
 1842POPC   C3B25233   9.427  39.310   7.961
 1842POPC   C4B25234   9.610  39.024   7.681
 1843POPC   NC325235  37.121  40.529   9.471
 1843POPC   PO425236  36.698  41.015   9.469
 1843POPC   GL125237  36.983  40.912   9.139
 1843POPC   GL225238  37.103  41.226   9.061
 1843POPC   C1A25239  37.033  40.614   8.762
 1843POPC   D2A25240  36.810  40.378   8.422
 1843POPC   C3A25241  36.757  40.555   8.005
 1843POPC   C4A25242  37.109  40.599   7.724
 1843POPC   C1B25243  37.188  41.098   8.689
 1843POPC   C2B25244  37.200  41.262   8.332
 1843POPC   C3B25245  37.227  41.129   7.961
 1843POPC   C4B25246  37.022  41.105   7.623
 1844POPC   NC325247  12.442  28.983   9.657
 1844POPC   PO425248  13.144  28.909   9.595
 1844POPC   GL125249  13.136  29.157   9.139
 1844POPC   GL225250  13.113  29.547   8.963
 1844POPC   C1A25251  13.305  29.177   8.693
 1844POPC   D2A25252  13.349  29.362   8.297
 1844POPC   C3A25253  13.112  29.086   8.037
 1844POPC   C4A25254  13.215  29.082   7.594
 1844POPC   C1B25255  12.814  29.291   8.748
 1844POPC   C2B25256  12.577  29.152   8.448
 1844POPC   C3B25257  12.601  29.158   8.047
 1844POPC   C4B25258  12.738  29.213   7.672
 1845POPC   NC325259   9.361  37.373   9.337
 1845POPC   PO425260   8.798  37.762   9.549
 1845POPC   GL125261   8.916  37.792   9.106
 1845POPC   GL225262   9.164  38.024   9.000
 1845POPC   C1A25263   8.749  37.718   8.667
 1845POPC   D2A25264   8.810  37.459   8.289
 1845POPC   C3A25265   8.840  37.585   7.862
 1845POPC   C4A25266   8.473  37.626   7.569
 1845POPC   C1B25267   9.228  37.878   8.616
 1845POPC   C2B25268   9.029  37.919   8.228
 1845POPC   C3B25269   9.205  38.057   7.876
 1845POPC   C4B25270   9.365  37.708   7.741
 1846POPC   NC325271  37.387  27.228   9.430
 1846POPC   PO425272  37.441  26.511   9.403
 1846POPC   GL125273  37.641  26.654   9.074
 1846POPC   GL225274  37.946  26.853   9.172
 1846POPC   C1A25275  37.806  26.553   8.668
 1846POPC   D2A25276  38.132  26.410   8.393
 1846POPC   C3A25277  37.895  26.615   8.101
 1846POPC   C4A25278  38.020  26.964   7.898
 1846POPC   C1B25279  37.719  27.069   8.809
 1846POPC   C2B25280  37.568  26.918   8.398
 1846POPC   C3B25281  37.556  27.108   7.996
 1846POPC   C4B25282  37.333  27.355   7.699
 1847POPC   NC325283  26.588  43.932   9.692
 1847POPC   PO425284  25.927  43.785   9.528
 1847POPC   GL125285  25.865  43.977   9.146
 1847POPC   GL225286  26.227  43.994   9.146
 1847POPC   C1A25287  25.859  43.916   8.682
 1847POPC   D2A25288  25.996  43.556   8.397
 1847POPC   C3A25289  26.019  43.655   7.971
 1847POPC   C4A25290  26.046  44.062   7.765
 1847POPC   C1B25291  26.335  43.793   8.824
 1847POPC   C2B25292  26.443  43.795   8.437
 1847POPC   C3B25293  26.456  43.926   8.045
 1847POPC   C4B25294  26.405  43.737   7.648
 1848POPC   NC325295  42.036  36.771   9.552
 1848POPC   PO425296  41.429  36.646   9.513
 1848POPC   GL125297  41.656  36.988   9.262
 1848POPC   GL225298  41.385  37.092   9.095
 1848POPC   C1A25299  41.830  37.002   8.820
 1848POPC   D2A25300  41.663  36.921   8.417
 1848POPC   C3A25301  41.918  36.879   8.071
 1848POPC   C4A25302  41.747  36.930   7.695
 1848POPC   C1B25303  41.244  36.862   8.743
 1848POPC   C2B25304  41.053  36.882   8.322
 1848POPC   C3B25305  41.268  36.964   7.913
 1848POPC   C4B25306  41.346  37.318   7.599
 1849POPC   NC325307  29.949  15.550   9.539
 1849POPC   PO425308  29.681  14.892   9.411
 1849POPC   GL125309  29.922  15.186   9.176
 1849POPC   GL225310  29.687  15.465   9.099
 1849POPC   C1A25311  30.067  15.279   8.770
 1849POPC   D2A25312  30.135  15.041   8.397
 1849POPC   C3A25313  29.929  15.239   8.026
 1849POPC   C4A25314  30.150  15.345   7.633
 1849POPC   C1B25315  29.502  15.156   8.817
 1849POPC   C2B25316  29.603  15.020   8.392
 1849POPC   C3B25317  29.508  14.888   7.973
 1849POPC   C4B25318  29.766  14.977   7.608
 1850POPC   NC325319  29.096  30.578   9.777
 1850POPC   PO425320  29.256  30.930   9.281
 1850POPC   GL125321  29.332  30.578   9.061
 1850POPC   GL225322  29.125  30.353   9.240
 1850POPC   C1A25323  29.268  30.642   8.631
 1850POPC   D2A25324  29.253  30.922   8.286
 1850POPC   C3A25325  29.376  30.764   7.874
 1850POPC   C4A25326  29.187  30.895   7.462
 1850POPC   C1B25327  28.871  30.401   8.871
 1850POPC   C2B25328  28.897  30.330   8.450
 1850POPC   C3B25329  28.947  30.521   8.036
 1850POPC   C4B25330  29.041  30.415   7.597
 1851POPC   NC325331  19.241   6.867   9.468
 1851POPC   PO425332  18.880   6.344   9.729
 1851POPC   GL125333  18.934   6.498   9.312
 1851POPC   GL225334  18.729   6.764   9.201
 1851POPC   C1A25335  19.083   6.556   8.873
 1851POPC   D2A25336  18.874   6.633   8.470
 1851POPC   C3A25337  19.062   6.521   8.116
 1851POPC   C4A25338  19.230   6.774   7.786
 1851POPC   C1B25339  18.809   7.010   8.805
 1851POPC   C2B25340  18.985   7.147   8.431
 1851POPC   C3B25341  18.861   7.016   8.034
 1851POPC   C4B25342  18.908   7.161   7.594
 1852POPC   NC325343  17.192   0.188   9.206
 1852POPC   PO425344  16.573   0.400   9.586
 1852POPC   GL125345  16.761   0.461   9.219
 1852POPC   GL225346  16.701   0.135   9.141
 1852POPC   C1A25347  16.839   0.556   8.783
 1852POPC   D2A25348  16.684   0.547   8.383
 1852POPC   C3A25349  16.797   0.826   8.066
 1852POPC   C4A25350  16.900   0.664   7.704
 1852POPC   C1B25351  16.779   0.012   8.728
 1852POPC   C2B25352  16.652   0.036   8.335
 1852POPC   C3B25353  16.842   0.229   7.998
 1852POPC   C4B25354  16.556   0.152   7.723
 1853POPC   NC325355  10.647  14.925   9.314
 1853POPC   PO425356  10.204  15.403   9.497
 1853POPC   GL125357  10.382  15.340   9.102
 1853POPC   GL225358  10.749  15.358   9.002
 1853POPC   C1A25359  10.378  15.184   8.694
 1853POPC   D2A25360  10.446  15.433   8.343
 1853POPC   C3A25361  10.723  15.280   8.060
 1853POPC   C4A25362  10.495  15.247   7.743
 1853POPC   C1B25363  10.896  15.008   8.711
 1853POPC   C2B25364  10.639  14.891   8.361
 1853POPC   C3B25365  10.265  14.968   8.127
 1853POPC   C4B25366  10.364  14.776   7.731
 1854POPC   NC325367  23.395  32.988   9.420
 1854POPC   PO425368  24.078  33.019   9.416
 1854POPC   GL125369  23.776  33.275   9.133
 1854POPC   GL225370  23.410  33.219   8.979
 1854POPC   C1A25371  23.915  33.448   8.743
 1854POPC   D2A25372  24.068  33.243   8.348
 1854POPC   C3A25373  23.741  33.002   8.108
 1854POPC   C4A25374  23.777  32.996   7.685
 1854POPC   C1B25375  23.574  33.103   8.602
 1854POPC   C2B25376  23.602  33.446   8.308
 1854POPC   C3B25377  23.428  33.442   7.929
 1854POPC   C4B25378  23.338  33.201   7.570
 1855POPC   NC325379  12.502   3.497   9.771
 1855POPC   PO425380  13.029   3.758   9.389
 1855POPC   GL125381  12.946   3.589   9.024
 1855POPC   GL225382  12.645   3.876   9.066
 1855POPC   C1A25383  12.791   3.286   8.706
 1855POPC   D2A25384  12.941   3.431   8.348
 1855POPC   C3A25385  12.866   3.282   7.958
 1855POPC   C4A25386  13.249   3.408   7.771
 1855POPC   C1B25387  12.651   3.772   8.653
 1855POPC   C2B25388  12.666   3.867   8.281
 1855POPC   C3B25389  12.895   3.801   7.983
 1855POPC   C4B25390  12.697   3.960   7.679
 1856POPC   NC325391  40.321  31.680   9.532
 1856POPC   PO425392  40.145  31.014   9.585
 1856POPC   GL125393  40.074  31.323   9.189
 1856POPC   GL225394  39.780  31.543   9.200
 1856POPC   C1A25395  40.017  31.578   8.766
 1856POPC   D2A25396  39.940  31.406   8.353
 1856POPC   C3A25397  39.994  31.639   8.017
 1856POPC   C4A25398  39.990  31.466   7.683
 1856POPC   C1B25399  39.566  31.785   8.923
 1856POPC   C2B25400  39.613  31.805   8.513
 1856POPC   C3B25401  39.492  31.714   8.134
 1856POPC   C4B25402  39.569  31.801   7.720
 1857POPC   NC325403  44.348  37.184   9.546
 1857POPC   PO425404   0.004  36.823   9.577
 1857POPC   GL125405  44.699  36.938   9.250
 1857POPC   GL225406  44.721  37.297   9.174
 1857POPC   C1A25407  44.586  36.961   8.794
 1857POPC   D2A25408  44.412  36.929   8.350
 1857POPC   C3A25409  44.605  36.935   7.938
 1857POPC   C4A25410  44.487  36.941   7.470
 1857POPC   C1B25411  44.844  37.404   8.737
 1857POPC   C2B25412  44.616  37.440   8.367
 1857POPC   C3B25413  44.794  37.447   7.987
 1857POPC   C4B25414  44.844  37.252   7.608
 1858POPC   NC325415  37.755  17.194   9.494
 1858POPC   PO425416  37.367  16.624   9.546
 1858POPC   GL125417  37.606  16.793   9.184
 1858POPC   GL225418  37.378  17.015   9.172
 1858POPC   C1A25419  37.755  16.814   8.756
 1858POPC   D2A25420  37.600  16.722   8.318
 1858POPC   C3A25421  37.835  16.911   7.965
 1858POPC   C4A25422  38.044  16.815   7.571
 1858POPC   C1B25423  37.315  17.109   8.783
 1858POPC   C2B25424  37.197  17.073   8.385
 1858POPC   C3B25425  37.394  17.148   8.029
 1858POPC   C4B25426  37.391  16.844   7.724
 1859POPC   NC325427  28.520  44.334   9.554
 1859POPC   PO425428  28.272  43.650   9.441
 1859POPC   GL125429  28.331  43.843   9.113
 1859POPC   GL225430  28.144  44.158   9.182
 1859POPC   C1A25431  28.327  43.603   8.741
 1859POPC   D2A25432  28.548  43.543   8.378
 1859POPC   C3A25433  28.588  43.939   8.145
 1859POPC   C4A25434  28.587  43.958   7.698
 1859POPC   C1B25435  28.228  44.120   8.717
 1859POPC   C2B25436  28.113  43.882   8.358
 1859POPC   C3B25437  27.995  44.028   7.978
 1859POPC   C4B25438  28.089  43.980   7.612
 1860POPC   NC325439  29.888  38.331   9.505
 1860POPC   PO425440  30.245  38.955   9.474
 1860POPC   GL125441  30.049  38.717   9.146
 1860POPC   GL225442  29.729  38.534   9.067
 1860POPC   C1A25443  30.091  38.638   8.722
 1860POPC   D2A25444  30.176  38.458   8.360
 1860POPC   C3A25445  29.940  38.588   8.021
 1860POPC   C4A25446  30.211  38.482   7.685
 1860POPC   C1B25447  29.559  38.160   8.886
 1860POPC   C2B25448  29.565  38.249   8.457
 1860POPC   C3B25449  29.577  38.078   8.064
 1860POPC   C4B25450  29.737  38.224   7.721
 1861POPC   NC325451  25.499  26.791   9.317
 1861POPC   PO425452  25.052  27.179   9.595
 1861POPC   GL125453  25.030  27.033   9.226
 1861POPC   GL225454  24.869  27.370   9.142
 1861POPC   C1A25455  25.019  26.729   8.863
 1861POPC   D2A25456  25.338  26.669   8.546
 1861POPC   C3A25457  25.223  26.646   8.090
 1861POPC   C4A25458  25.386  26.876   7.742
 1861POPC   C1B25459  25.010  27.230   8.762
 1861POPC   C2B25460  24.992  27.028   8.369
 1861POPC   C3B25461  24.996  27.130   7.936
 1861POPC   C4B25462  25.049  27.131   7.457
 1862POPC   NC325463   5.491  16.935   9.420
 1862POPC   PO425464   5.008  16.439   9.488
 1862POPC   GL125465   5.136  16.667   9.123
 1862POPC   GL225466   5.481  16.643   8.970
 1862POPC   C1A25467   5.107  16.926   8.759
 1862POPC   D2A25468   5.288  16.950   8.353
 1862POPC   C3A25469   4.986  16.875   8.060
 1862POPC   C4A25470   4.885  16.660   7.710
 1862POPC   C1B25471   5.266  16.433   8.632
 1862POPC   C2B25472   5.248  16.458   8.191
 1862POPC   C3B25473   5.520  16.479   7.883
 1862POPC   C4B25474   5.439  16.422   7.460
 1863POPC   NC325475   2.514  36.449   9.354
 1863POPC   PO425476   1.897  36.305   9.562
 1863POPC   GL125477   2.062  36.293   9.164
 1863POPC   GL225478   2.294  36.034   9.090
 1863POPC   C1A25479   1.923  36.228   8.756
 1863POPC   D2A25480   1.956  36.059   8.341
 1863POPC   C3A25481   1.813  36.361   7.996
 1863POPC   C4A25482   1.573  36.307   7.603
 1863POPC   C1B25483   2.447  36.183   8.719
 1863POPC   C2B25484   2.400  36.320   8.328
 1863POPC   C3B25485   2.270  36.133   7.953
 1863POPC   C4B25486   2.153  36.272   7.552
 1864POPC   NC325487  28.972  20.029   9.347
 1864POPC   PO425488  29.496  19.570   9.550
 1864POPC   GL125489  29.281  19.519   9.176
 1864POPC   GL225490  28.923  19.593   9.088
 1864POPC   C1A25491  29.325  19.580   8.763
 1864POPC   D2A25492  29.255  19.899   8.467
 1864POPC   C3A25493  29.004  19.781   8.127
 1864POPC   C4A25494  29.104  19.733   7.731
 1864POPC   C1B25495  28.838  19.907   8.741
 1864POPC   C2B25496  28.700  20.112   8.352
 1864POPC   C3B25497  28.922  20.252   7.984
 1864POPC   C4B25498  28.970  20.163   7.520
 1865POPC   NC325499  24.664  21.091   9.879
 1865POPC   PO425500  24.754  21.555   9.378
 1865POPC   GL125501  24.572  21.427   9.030
 1865POPC   GL225502  24.270  21.599   9.049
 1865POPC   C1A25503  24.695  21.314   8.622
 1865POPC   D2A25504  24.522  21.413   8.237
 1865POPC   C3A25505  24.598  21.164   7.836
 1865POPC   C4A25506  24.503  21.265   7.381
 1865POPC   C1B25507  24.200  21.342   8.683
 1865POPC   C2B25508  23.989  21.297   8.337
 1865POPC   C3B25509  24.088  21.450   7.936
 1865POPC   C4B25510  24.039  21.341   7.523
 1866POPC   NC325511  22.656  22.174   9.491
 1866POPC   PO425512  23.346  22.237   9.592
 1866POPC   GL125513  23.147  22.410   9.223
 1866POPC   GL225514  22.989  22.104   9.083
 1866POPC   C1A25515  23.249  22.559   8.809
 1866POPC   D2A25516  23.110  22.309   8.447
 1866POPC   C3A25517  23.131  22.430   8.003
 1866POPC   C4A25518  23.067  22.081   7.751
 1866POPC   C1B25519  22.760  22.412   8.838
 1866POPC   C2B25520  22.598  22.484   8.428
 1866POPC   C3B25521  22.666  22.229   8.043
 1866POPC   C4B25522  22.681  22.399   7.602
 1867POPC   NC325523  43.332  25.456   9.327
 1867POPC   PO425524  42.900  25.023   9.523
 1867POPC   GL125525  43.099  24.960   9.117
 1867POPC   GL225526  43.467  24.925   9.131
 1867POPC   C1A25527  42.997  25.231   8.764
 1867POPC   D2A25528  42.876  25.442   8.389
 1867POPC   C3A25529  43.063  25.396   7.991
 1867POPC   C4A25530  42.826  25.321   7.620
 1867POPC   C1B25531  43.519  25.174   8.782
 1867POPC   C2B25532  43.360  25.234   8.400
 1867POPC   C3B25533  43.541  25.177   8.030
 1867POPC   C4B25534  43.426  25.220   7.662
 1868POPC   NC325535  31.102  19.881   9.465
 1868POPC   PO425536  31.657  19.546   9.404
 1868POPC   GL125537  31.479  19.828   9.115
 1868POPC   GL225538  31.186  19.656   9.015
 1868POPC   C1A25539  31.512  20.000   8.716
 1868POPC   D2A25540  31.412  20.169   8.297
 1868POPC   C3A25541  31.636  19.872   8.019
 1868POPC   C4A25542  31.763  19.470   7.787
 1868POPC   C1B25543  31.038  19.861   8.652
 1868POPC   C2B25544  31.273  19.667   8.356
 1868POPC   C3B25545  31.273  19.482   7.969
 1868POPC   C4B25546  31.302  19.725   7.617
 1869POPC   NC325547  25.601   3.584   9.455
 1869POPC   PO425548  24.949   3.174   9.447
 1869POPC   GL125549  25.154   3.484   9.119
 1869POPC   GL225550  25.495   3.631   8.973
 1869POPC   C1A25551  25.059   3.784   8.796
 1869POPC   D2A25552  25.291   3.951   8.486
 1869POPC   C3A25553  25.168   3.761   8.099
 1869POPC   C4A25554  25.200   3.745   7.679
 1869POPC   C1B25555  25.481   3.158   8.890
 1869POPC   C2B25556  25.429   3.027   8.472
 1869POPC   C3B25557  25.302   3.246   8.082
 1869POPC   C4B25558  25.593   3.248   7.725
 1870POPC   NC325559  19.532  36.907   9.118
 1870POPC   PO425560  18.979  37.032   9.506
 1870POPC   GL125561  18.867  36.980   9.104
 1870POPC   GL225562  19.109  37.090   8.934
 1870POPC   C1A25563  18.712  36.931   8.650
 1870POPC   D2A25564  18.806  37.204   8.332
 1870POPC   C3A25565  18.990  36.968   8.018
 1870POPC   C4A25566  18.854  36.851   7.654
 1870POPC   C1B25567  19.081  36.619   8.804
 1870POPC   C2B25568  19.096  36.552   8.394
 1870POPC   C3B25569  19.357  36.615   8.047
 1870POPC   C4B25570  19.217  36.436   7.687
 1871POPC   NC325571   8.142  22.652   9.528
 1871POPC   PO425572   7.795  23.142   9.351
 1871POPC   GL125573   7.968  22.973   9.060
 1871POPC   GL225574   8.329  22.862   9.089
 1871POPC   C1A25575   8.101  23.044   8.648
 1871POPC   D2A25576   8.464  22.846   8.508
 1871POPC   C3A25577   8.586  22.910   8.091
 1871POPC   C4A25578   8.346  22.956   7.729
 1871POPC   C1B25579   8.089  22.568   8.816
 1871POPC   C2B25580   8.141  22.465   8.422
 1871POPC   C3B25581   8.094  22.693   8.092
 1871POPC   C4B25582   8.082  22.541   7.678
 1872POPC   NC325583  30.601  41.123   9.493
 1872POPC   PO425584  30.931  40.592   9.472
 1872POPC   GL125585  30.725  40.761   9.139
 1872POPC   GL225586  30.466  40.543   9.064
 1872POPC   C1A25587  30.547  40.999   8.804
 1872POPC   D2A25588  30.680  41.180   8.421
 1872POPC   C3A25589  30.507  41.007   8.020
 1872POPC   C4A25590  30.732  41.027   7.600
 1872POPC   C1B25591  30.702  40.438   8.734
 1872POPC   C2B25592  30.664  40.620   8.365
 1872POPC   C3B25593  30.756  40.566   7.966
 1872POPC   C4B25594  30.518  40.545   7.635
 1873POPC   NC325595  38.930  11.347   9.443
 1873POPC   PO425596  39.524  11.594   9.585
 1873POPC   GL125597  39.405  11.446   9.166
 1873POPC   GL225598  39.299  11.084   9.194
 1873POPC   C1A25599  39.113  11.412   8.805
 1873POPC   D2A25600  39.112  11.213   8.406
 1873POPC   C3A25601  39.216  11.511   8.101
 1873POPC   C4A25602  39.055  11.364   7.755
 1873POPC   C1B25603  39.359  10.921   8.785
 1873POPC   C2B25604  39.506  10.811   8.384
 1873POPC   C3B25605  39.355  11.013   7.984
 1873POPC   C4B25606  39.418  11.050   7.548
 1874POPC   NC325607  19.567  19.498   9.475
 1874POPC   PO425608  20.052  18.957   9.400
 1874POPC   GL125609  19.650  18.993   9.207
 1874POPC   GL225610  19.639  19.295   9.024
 1874POPC   C1A25611  19.657  18.837   8.782
 1874POPC   D2A25612  19.849  19.043   8.418
 1874POPC   C3A25613  19.781  18.805   8.072
 1874POPC   C4A25614  19.914  18.766   7.682
 1874POPC   C1B25615  19.863  19.486   8.687
 1874POPC   C2B25616  19.636  19.514   8.294
 1874POPC   C3B25617  19.774  19.307   7.920
 1874POPC   C4B25618  19.798  19.482   7.513
 1875POPC   NC325619  34.102   5.363   9.473
 1875POPC   PO425620  33.476   5.068   9.579
 1875POPC   GL125621  33.575   5.070   9.114
 1875POPC   GL225622  33.923   5.197   9.037
 1875POPC   C1A25623  33.610   5.100   8.661
 1875POPC   D2A25624  33.614   5.302   8.278
 1875POPC   C3A25625  33.718   5.032   7.951
 1875POPC   C4A25626  33.369   4.900   7.716
 1875POPC   C1B25627  33.945   5.479   8.680
 1875POPC   C2B25628  34.095   5.409   8.264
 1875POPC   C3B25629  33.948   5.508   7.873
 1875POPC   C4B25630  33.938   5.256   7.514
 1876POPC   NC325631   6.148   6.682   9.422
 1876POPC   PO425632   5.527   6.848   9.299
 1876POPC   GL125633   5.798   6.573   9.037
 1876POPC   GL225634   6.144   6.451   8.978
 1876POPC   C1A25635   5.708   6.442   8.638
 1876POPC   D2A25636   5.444   6.766   8.446
 1876POPC   C3A25637   5.619   7.095   8.190
 1876POPC   C4A25638   5.891   6.994   7.826
 1876POPC   C1B25639   6.123   6.795   8.707
 1876POPC   C2B25640   5.962   6.733   8.294
 1876POPC   C3B25641   5.980   6.454   7.952
 1876POPC   C4B25642   6.218   6.584   7.605
 1877POPC   NC325643   6.157  12.352   9.464
 1877POPC   PO425644   5.537  11.990   9.598
 1877POPC   GL125645   5.846  11.970   9.266
 1877POPC   GL225646   5.788  12.259   9.145
 1877POPC   C1A25647   6.034  12.005   8.794
 1877POPC   D2A25648   5.908  11.685   8.458
 1877POPC   C3A25649   5.947  11.909   8.049
 1877POPC   C4A25650   5.838  12.006   7.617
 1877POPC   C1B25651   5.705  12.418   8.761
 1877POPC   C2B25652   5.972  12.369   8.412
 1877POPC   C3B25653   5.818  12.431   8.007
 1877POPC   C4B25654   6.055  12.507   7.652
 1878POPC   NC325655  11.044  26.539   9.612
 1878POPC   PO425656  11.557  26.968   9.717
 1878POPC   GL125657  11.283  26.773   9.259
 1878POPC   GL225658  11.406  26.481   9.124
 1878POPC   C1A25659  11.092  26.973   8.804
 1878POPC   D2A25660  10.915  27.035   8.370
 1878POPC   C3A25661  11.162  26.924   7.984
 1878POPC   C4A25662  11.536  27.088   7.778
 1878POPC   C1B25663  10.930  26.540   8.973
 1878POPC   C2B25664  10.956  26.537   8.492
 1878POPC   C3B25665  11.177  26.415   8.060
 1878POPC   C4B25666  11.096  26.516   7.605
 1879POPC   NC325667  39.073  24.363   9.408
 1879POPC   PO425668  39.490  24.854   9.544
 1879POPC   GL125669  39.320  24.689   9.156
 1879POPC   GL225670  39.210  24.896   9.014
 1879POPC   C1A25671  39.145  24.482   8.731
 1879POPC   D2A25672  38.910  24.149   8.452
 1879POPC   C3A25673  38.863  24.260   8.017
 1879POPC   C4A25674  39.235  24.388   7.772
 1879POPC   C1B25675  39.621  24.793   8.790
 1879POPC   C2B25676  39.695  24.728   8.414
 1879POPC   C3B25677  39.395  24.777   8.105
 1879POPC   C4B25678  39.378  24.886   7.705
 1880POPC   NC325679  37.590  30.238   9.777
 1880POPC   PO425680  37.459  29.662   9.422
 1880POPC   GL125681  37.607  29.853   9.082
 1880POPC   GL225682  37.737  30.178   9.209
 1880POPC   C1A25683  37.761  29.721   8.693
 1880POPC   D2A25684  37.954  29.928   8.376
 1880POPC   C3A25685  37.739  29.864   8.026
 1880POPC   C4A25686  37.843  29.721   7.611
 1880POPC   C1B25687  37.729  30.243   8.772
 1880POPC   C2B25688  37.438  30.189   8.422
 1880POPC   C3B25689  37.469  30.306   7.992
 1880POPC   C4B25690  37.392  30.013   7.673
 1881POPC   NC325691  10.386   0.680   9.458
 1881POPC   PO425692  10.641   0.071   9.647
 1881POPC   GL125693  10.615   0.218   9.207
 1881POPC   GL225694  10.279   0.310   9.121
 1881POPC   C1A25695  10.690   0.414   8.784
 1881POPC   D2A25696  10.914   0.266   8.389
 1881POPC   C3A25697  10.689   0.234   8.005
 1881POPC   C4A25698  10.867   0.348   7.592
 1881POPC   C1B25699  10.207   0.326   8.687
 1881POPC   C2B25700  10.401   0.516   8.341
 1881POPC   C3B25701  10.187   0.475   7.969
 1881POPC   C4B25702  10.203   0.629   7.543
 1882POPC   NC325703  21.033  17.632   9.479
 1882POPC   PO425704  21.062  16.912   9.528
 1882POPC   GL125705  20.864  17.242   9.160
 1882POPC   GL225706  20.840  17.574   9.012
 1882POPC   C1A25707  20.422  17.270   8.888
 1882POPC   D2A25708  20.298  17.170   8.430
 1882POPC   C3A25709  20.487  17.390   8.044
 1882POPC   C4A25710  20.702  17.385   7.645
 1882POPC   C1B25711  20.706  17.504   8.563
 1882POPC   C2B25712  20.699  17.797   8.237
 1882POPC   C3B25713  20.823  17.843   7.826
 1882POPC   C4B25714  20.774  17.857   7.372
 1883POPC   NC325715   3.196  17.690   9.387
 1883POPC   PO425716   2.753  17.226   9.509
 1883POPC   GL125717   2.687  17.349   9.097
 1883POPC   GL225718   2.718  17.689   9.202
 1883POPC   C1A25719   2.892  17.249   8.702
 1883POPC   D2A25720   2.669  17.175   8.288
 1883POPC   C3A25721   2.641  17.506   7.972
 1883POPC   C4A25722   2.831  17.418   7.552
 1883POPC   C1B25723   2.879  17.767   8.804
 1883POPC   C2B25724   2.894  17.654   8.402
 1883POPC   C3B25725   3.042  17.828   8.069
 1883POPC   C4B25726   2.885  17.896   7.700
 1884POPC   NC325727  29.070  40.745   9.757
 1884POPC   PO425728  29.431  41.326   9.538
 1884POPC   GL125729  29.284  40.961   9.286
 1884POPC   GL225730  28.922  40.973   9.201
 1884POPC   C1A25731  29.270  40.844   8.825
 1884POPC   D2A25732  29.043  40.797   8.426
 1884POPC   C3A25733  29.314  40.802   8.058
 1884POPC   C4A25734  29.366  40.702   7.645
 1884POPC   C1B25735  28.860  41.181   8.782
 1884POPC   C2B25736  28.861  41.267   8.334
 1884POPC   C3B25737  28.840  40.974   7.958
 1884POPC   C4B25738  28.492  40.915   7.670
 1885POPC   NC325739  16.510  42.262   9.475
 1885POPC   PO425740  17.201  42.288   9.316
 1885POPC   GL125741  16.865  42.343   9.050
 1885POPC   GL225742  16.538  42.184   8.977
 1885POPC   C1A25743  16.888  42.330   8.627
 1885POPC   D2A25744  16.686  42.181   8.271
 1885POPC   C3A25745  16.790  42.382   7.870
 1885POPC   C4A25746  16.835  42.240   7.437
 1885POPC   C1B25747  16.414  42.494   8.679
 1885POPC   C2B25748  16.235  42.439   8.250
 1885POPC   C3B25749  16.298  42.514   7.823
 1885POPC   C4B25750  16.515  42.680   7.440
 1886POPC   NC325751  35.204  19.954   9.670
 1886POPC   PO425752  35.554  19.475   9.371
 1886POPC   GL125753  35.197  19.634   9.101
 1886POPC   GL225754  35.132  20.014   9.139
 1886POPC   C1A25755  35.271  19.726   8.657
 1886POPC   D2A25756  35.236  19.478   8.255
 1886POPC   C3A25757  35.085  19.676   7.856
 1886POPC   C4A25758  35.186  19.713   7.408
 1886POPC   C1B25759  35.202  20.246   8.758
 1886POPC   C2B25760  35.376  20.177   8.369
 1886POPC   C3B25761  35.220  20.159   7.972
 1886POPC   C4B25762  35.420  20.130   7.603
 1887POPC   NC325763  44.476  40.485   9.551
 1887POPC   PO425764  44.870  40.965   9.467
 1887POPC   GL125765  44.760  40.696   9.111
 1887POPC   GL225766  44.391  40.663   9.093
 1887POPC   C1A25767  44.664  40.732   8.650
 1887POPC   D2A25768  44.928  40.688   8.286
 1887POPC   C3A25769  44.802  40.831   7.894
 1887POPC   C4A25770  44.763  40.537   7.550
 1887POPC   C1B25771  44.157  40.543   8.742
 1887POPC   C2B25772  44.195  40.705   8.325
 1887POPC   C3B25773  44.324  40.658   7.885
 1887POPC   C4B25774  44.316  40.771   7.438
 1888POPC   NC325775  13.028  16.446   9.500
 1888POPC   PO425776  12.397  16.595   9.669
 1888POPC   GL125777  12.628  16.586   9.187
 1888POPC   GL225778  12.982  16.744   9.054
 1888POPC   C1A25779  12.690  16.476   8.714
 1888POPC   D2A25780  12.784  16.692   8.297
 1888POPC   C3A25781  12.770  16.547   7.845
 1888POPC   C4A25782  13.040  16.559   7.433
 1888POPC   C1B25783  13.089  17.000   8.640
 1888POPC   C2B25784  12.821  17.207   8.304
 1888POPC   C3B25785  12.605  17.060   7.921
 1888POPC   C4B25786  12.886  17.005   7.598
 1889POPC   NC325787  33.108  11.074   9.376
 1889POPC   PO425788  32.958  10.422   9.390
 1889POPC   GL125789  33.036  10.451   9.048
 1889POPC   GL225790  33.236  10.732   9.011
 1889POPC   C1A25791  33.001  10.256   8.699
 1889POPC   D2A25792  33.075  10.513   8.398
 1889POPC   C3A25793  33.075  10.307   8.070
 1889POPC   C4A25794  32.917  10.306   7.657
 1889POPC   C1B25795  33.461  10.461   8.759
 1889POPC   C2B25796  33.555  10.327   8.402
 1889POPC   C3B25797  33.572  10.439   8.027
 1889POPC   C4B25798  33.342  10.622   7.782
 1890POPC   NC325799  26.961  31.633   9.554
 1890POPC   PO425800  27.000  30.920   9.416
 1890POPC   GL125801  26.888  31.270   9.156
 1890POPC   GL225802  27.131  31.499   9.103
 1890POPC   C1A25803  26.777  31.288   8.700
 1890POPC   D2A25804  26.634  31.447   8.281
 1890POPC   C3A25805  26.935  31.352   7.965
 1890POPC   C4A25806  26.659  31.141   7.791
 1890POPC   C1B25807  26.807  31.747   8.920
 1890POPC   C2B25808  26.849  31.837   8.508
 1890POPC   C3B25809  26.925  31.844   8.067
 1890POPC   C4B25810  27.009  31.906   7.650
 1891POPC   NC325811   8.658  16.768   9.471
 1891POPC   PO425812   9.194  16.389   9.482
 1891POPC   GL125813   8.869  16.432   9.162
 1891POPC   GL225814   8.973  16.764   9.057
 1891POPC   C1A25815   8.747  16.268   8.775
 1891POPC   D2A25816   8.957  16.505   8.490
 1891POPC   C3A25817   8.822  16.489   8.072
 1891POPC   C4A25818   8.930  16.605   7.676
 1891POPC   C1B25819   8.984  17.031   8.707
 1891POPC   C2B25820   9.025  17.180   8.322
 1891POPC   C3B25821   8.909  17.020   7.941
 1891POPC   C4B25822   8.638  17.026   7.546
 1892POPC   NC325823   7.286   0.178   9.672
 1892POPC   PO425824   7.589  44.541   9.597
 1892POPC   GL125825   7.570  44.424   9.139
 1892POPC   GL225826   7.358  44.679   8.975
 1892POPC   C1A25827   7.512  44.304   8.672
 1892POPC   D2A25828   7.384  44.658   8.400
 1892POPC   C3A25829   7.503  44.662   7.967
 1892POPC   C4A25830   7.086  44.852   7.802
 1892POPC   C1B25831   7.730  44.833   8.742
 1892POPC   C2B25832   7.730   0.057   8.370
 1892POPC   C3B25833   7.437   0.144   8.086
 1892POPC   C4B25834   7.521   0.094   7.670
 1893POPC   NC325835  23.476  22.689   9.506
 1893POPC   PO425836  24.044  23.142   9.622
 1893POPC   GL125837  23.777  23.072   9.239
 1893POPC   GL225838  23.861  22.717   9.166
 1893POPC   C1A25839  23.541  23.003   8.818
 1893POPC   D2A25840  23.443  23.085   8.352
 1893POPC   C3A25841  23.833  23.132   8.135
 1893POPC   C4A25842  23.900  23.066   7.706
 1893POPC   C1B25843  23.786  22.503   8.761
 1893POPC   C2B25844  23.539  22.582   8.377
 1893POPC   C3B25845  23.571  22.699   7.953
 1893POPC   C4B25846  23.794  22.400   7.733
 1894POPC   NC325847  34.229  40.089   9.550
 1894POPC   PO425848  33.601  39.838   9.611
 1894POPC   GL125849  33.630  39.746   9.184
 1894POPC   GL225850  33.942  39.882   9.126
 1894POPC   C1A25851  33.468  39.905   8.807
 1894POPC   D2A25852  33.679  40.026   8.442
 1894POPC   C3A25853  33.483  40.240   8.114
 1894POPC   C4A25854  33.496  39.993   7.756
 1894POPC   C1B25855  33.903  39.654   8.728
 1894POPC   C2B25856  33.956  39.603   8.278
 1894POPC   C3B25857  33.987  39.765   7.845
 1894POPC   C4B25858  34.162  39.553   7.467
 1895POPC   NC325859  44.180  18.068   9.763
 1895POPC   PO425860  44.232  18.398   9.168
 1895POPC   GL125861  43.859  18.252   9.053
 1895POPC   GL225862  43.755  17.992   9.165
 1895POPC   C1A25863  43.751  18.367   8.686
 1895POPC   D2A25864  44.002  18.347   8.369
 1895POPC   C3A25865  43.867  18.311   8.030
 1895POPC   C4A25866  43.989  18.276   7.665
 1895POPC   C1B25867  43.567  17.895   8.788
 1895POPC   C2B25868  43.599  17.998   8.337
 1895POPC   C3B25869  43.708  17.828   7.918
 1895POPC   C4B25870  43.692  17.914   7.473
 1896POPC   NC325871  30.394   5.831   9.576
 1896POPC   PO425872  29.735   5.962   9.507
 1896POPC   GL125873  29.890   5.862   9.158
 1896POPC   GL225874  30.072   5.583   9.275
 1896POPC   C1A25875  29.728   5.844   8.747
 1896POPC   D2A25876  29.903   6.011   8.379
 1896POPC   C3A25877  29.747   5.898   8.018
 1896POPC   C4A25878  29.688   6.267   7.761
 1896POPC   C1B25879  30.154   5.574   8.835
 1896POPC   C2B25880  30.159   5.590   8.410
 1896POPC   C3B25881  30.315   5.796   8.050
 1896POPC   C4B25882  30.091   5.852   7.651
 1897POPC   NC325883   7.277   9.884   9.436
 1897POPC   PO425884   7.920  10.028   9.450
 1897POPC   GL125885   7.666   9.758   9.125
 1897POPC   GL225886   7.346   9.482   9.056
 1897POPC   C1A25887   7.521   9.821   8.746
 1897POPC   D2A25888   7.673   9.707   8.387
 1897POPC   C3A25889   7.466   9.714   8.013
 1897POPC   C4A25890   7.323   9.950   7.673
 1897POPC   C1B25891   7.355   9.349   8.619
 1897POPC   C2B25892   7.122   9.365   8.245
 1897POPC   C3B25893   7.181   9.352   7.813
 1897POPC   C4B25894   7.503   9.485   7.533
 1898POPC   NC325895  23.156  32.279   9.549
 1898POPC   PO425896  22.649  31.894   9.424
 1898POPC   GL125897  22.953  32.100   9.131
 1898POPC   GL225898  22.911  32.426   9.121
 1898POPC   C1A25899  22.840  32.169   8.701
 1898POPC   D2A25900  22.870  32.092   8.309
 1898POPC   C3A25901  22.575  32.198   8.053
 1898POPC   C4A25902  22.798  31.987   7.728
 1898POPC   C1B25903  23.166  32.573   8.780
 1898POPC   C2B25904  23.065  32.589   8.324
 1898POPC   C3B25905  23.054  32.415   7.885
 1898POPC   C4B25906  22.996  32.360   7.425
 1899POPC   NC325907  11.215  14.838   9.554
 1899POPC   PO425908  11.460  14.177   9.508
 1899POPC   GL125909  11.285  14.311   9.163
 1899POPC   GL225910  11.605  14.357   8.991
 1899POPC   C1A25911  11.110  14.486   8.811
 1899POPC   D2A25912  11.085  14.626   8.401
 1899POPC   C3A25913  11.338  14.435   8.130
 1899POPC   C4A25914  11.257  14.401   7.734
 1899POPC   C1B25915  11.493  14.151   8.631
 1899POPC   C2B25916  11.575  14.014   8.226
 1899POPC   C3B25917  11.599  14.037   7.829
 1899POPC   C4B25918  11.608  14.209   7.416
 1900POPC   NC325919  40.682   5.491   9.289
 1900POPC   PO425920  40.880   4.832   9.422
 1900POPC   GL125921  41.035   5.050   9.105
 1900POPC   GL225922  40.726   5.093   8.966
 1900POPC   C1A25923  41.150   5.035   8.686
 1900POPC   D2A25924  40.799   5.020   8.385
 1900POPC   C3A25925  40.965   5.085   7.978
 1900POPC   C4A25926  40.861   5.138   7.559
 1900POPC   C1B25927  40.424   4.835   8.730
 1900POPC   C2B25928  40.343   4.736   8.302
 1900POPC   C3B25929  40.447   5.004   7.935
 1900POPC   C4B25930  40.401   4.939   7.511
 1901POPC   NC325931  30.454  36.149   9.345
 1901POPC   PO425932  29.736  36.229   9.417
 1901POPC   GL125933  29.919  36.214   9.033
 1901POPC   GL225934  30.107  35.935   9.047
 1901POPC   C1A25935  29.730  36.007   8.706
 1901POPC   D2A25936  29.737  35.675   8.433
 1901POPC   C3A25937  29.642  35.798   7.974
 1901POPC   C4A25938  29.672  35.973   7.504
 1901POPC   C1B25939  30.240  35.882   8.627
 1901POPC   C2B25940  30.029  36.046   8.257
 1901POPC   C3B25941  30.027  36.134   7.840
 1901POPC   C4B25942  30.342  36.241   7.626
 1902POPC   NC325943  35.949  27.914   9.525
 1902POPC   PO425944  36.344  27.437   9.758
 1902POPC   GL125945  36.298  27.540   9.312
 1902POPC   GL225946  35.936  27.549   9.150
 1902POPC   C1A25947  36.378  27.448   8.880
 1902POPC   D2A25948  36.183  27.486   8.473
 1902POPC   C3A25949  36.317  27.687   8.118
 1902POPC   C4A25950  36.401  27.391   7.819
 1902POPC   C1B25951  35.985  27.856   8.776
 1902POPC   C2B25952  35.840  27.837   8.307
 1902POPC   C3B25953  35.854  27.559   7.923
 1902POPC   C4B25954  35.770  27.740   7.511
 1903POPC   NC325955  20.871  22.791   9.499
 1903POPC   PO425956  20.137  22.973   9.475
 1903POPC   GL125957  20.443  22.913   9.130
 1903POPC   GL225958  20.755  22.686   9.034
 1903POPC   C1A25959  20.389  23.105   8.746
 1903POPC   D2A25960  20.636  23.391   8.501
 1903POPC   C3A25961  20.492  23.276   8.081
 1903POPC   C4A25962  20.361  22.966   7.796
 1903POPC   C1B25963  20.877  23.009   8.762
 1903POPC   C2B25964  20.701  22.909   8.365
 1903POPC   C3B25965  20.762  22.716   7.986
 1903POPC   C4B25966  20.720  22.703   7.540
 1904POPC   NC325967   3.068  30.274   9.302
 1904POPC   PO425968   2.795  30.794   9.568
 1904POPC   GL125969   2.857  30.725   9.175
 1904POPC   GL225970   3.217  30.788   9.156
 1904POPC   C1A25971   2.610  30.681   8.783
 1904POPC   D2A25972   2.738  30.436   8.447
 1904POPC   C3A25973   2.567  30.494   8.067
 1904POPC   C4A25974   2.528  30.769   7.776
 1904POPC   C1B25975   3.112  30.703   8.733
 1904POPC   C2B25976   3.157  30.812   8.322
 1904POPC   C3B25977   3.017  30.733   7.927
 1904POPC   C4B25978   2.945  30.793   7.508
 1905POPC   NC325979  23.494  15.113   9.658
 1905POPC   PO425980  24.172  15.043   9.686
 1905POPC   GL125981  23.863  15.086   9.256
 1905POPC   GL225982  23.491  15.087   9.137
 1905POPC   C1A25983  23.913  15.088   8.737
 1905POPC   D2A25984  24.164  15.207   8.314
 1905POPC   C3A25985  23.968  15.274   7.904
 1905POPC   C4A25986  23.855  15.017   7.541
 1905POPC   C1B25987  23.425  15.241   8.726
 1905POPC   C2B25988  23.568  15.093   8.327
 1905POPC   C3B25989  23.329  15.071   7.968
 1905POPC   C4B25990  23.382  15.384   7.695
 1906POPC   NC325991  18.312   7.237   9.500
 1906POPC   PO425992  18.607   7.774   9.288
 1906POPC   GL125993  18.295   7.475   9.059
 1906POPC   GL225994  18.136   7.112   9.059
 1906POPC   C1A25995  18.340   7.293   8.651
 1906POPC   D2A25996  18.505   7.286   8.292
 1906POPC   C3A25997  18.345   7.537   7.967
 1906POPC   C4A25998  18.463   7.371   7.592
 1906POPC   C1B25999  18.010   6.913   8.677
 1906POPC   C2B26000  17.982   7.122   8.291
 1906POPC   C3B26001  18.211   7.030   7.931
 1906POPC   C4B26002  18.140   7.009   7.490
 1907POPC   NC326003  25.379   1.525   9.267
 1907POPC   PO426004  25.076   0.940   9.487
 1907POPC   GL126005  25.382   1.007   9.155
 1907POPC   GL226006  25.092   1.203   9.019
 1907POPC   C1A26007  25.560   1.199   8.758
 1907POPC   D2A26008  25.345   1.482   8.478
 1907POPC   C3A26009  25.404   1.272   8.075
 1907POPC   C4A26010  25.446   1.045   7.692
 1907POPC   C1B26011  24.835   1.243   8.654
 1907POPC   C2B26012  24.797   1.143   8.252
 1907POPC   C3B26013  24.942   1.378   7.918
 1907POPC   C4B26014  24.971   1.254   7.497
 1908POPC   NC326015   1.586  22.033   9.386
 1908POPC   PO426016   1.113  22.437   9.739
 1908POPC   GL126017   1.154  22.287   9.288
 1908POPC   GL226018   1.484  22.476   9.166
 1908POPC   C1A26019   1.077  22.003   8.907
 1908POPC   D2A26020   1.007  22.084   8.413
 1908POPC   C3A26021   1.166  22.042   7.941
 1908POPC   C4A26022   1.286  21.672   7.743
 1908POPC   C1B26023   1.427  22.484   8.700
 1908POPC   C2B26024   1.459  22.333   8.251
 1908POPC   C3B26025   1.478  22.512   7.838
 1908POPC   C4B26026   1.335  22.544   7.395
 1909POPC   NC326027  27.930  22.754   9.541
 1909POPC   PO426028  27.215  22.624   9.523
 1909POPC   GL126029  27.476  22.837   9.155
 1909POPC   GL226030  27.796  23.062   9.143
 1909POPC   C1A26031  27.461  23.071   8.752
 1909POPC   D2A26032  27.595  23.390   8.432
 1909POPC   C3A26033  27.541  23.249   7.998
 1909POPC   C4A26034  27.322  22.888   7.812
 1909POPC   C1B26035  27.999  22.909   8.760
 1909POPC   C2B26036  28.067  22.541   8.451
 1909POPC   C3B26037  27.915  22.512   8.009
 1909POPC   C4B26038  27.840  22.874   7.750
 1910POPC   NC326039  38.709  10.420   9.392
 1910POPC   PO426040  38.066  10.651   9.456
 1910POPC   GL126041  38.260  10.648   9.072
 1910POPC   GL226042  38.559  10.811   9.023
 1910POPC   C1A26043  38.332  10.344   8.758
 1910POPC   D2A26044  38.354  10.283   8.332
 1910POPC   C3A26045  38.738  10.265   8.121
 1910POPC   C4A26046  38.830  10.475   7.756
 1910POPC   C1B26047  38.840  10.936   8.743
 1910POPC   C2B26048  38.630  10.684   8.472
 1910POPC   C3B26049  38.495  10.725   8.087
 1910POPC   C4B26050  38.806  10.969   7.921
 1911POPC   NC326051  24.972  10.229   9.310
 1911POPC   PO426052  25.173   9.650   9.417
 1911POPC   GL126053  25.143   9.818   9.005
 1911POPC   GL226054  25.406  10.045   9.053
 1911POPC   C1A26055  25.090   9.634   8.566
 1911POPC   D2A26056  25.098   9.470   8.129
 1911POPC   C3A26057  25.323   9.639   7.764
 1911POPC   C4A26058  25.284   9.925   7.373
 1911POPC   C1B26059  25.509   9.904   8.641
 1911POPC   C2B26060  25.342   9.923   8.220
 1911POPC   C3B26061  25.451  10.109   7.835
 1911POPC   C4B26062  25.764   9.872   7.531
 1912POPC   NC326063   6.101  27.053   9.386
 1912POPC   PO426064   5.495  26.875   9.624
 1912POPC   GL126065   5.696  26.739   9.237
 1912POPC   GL226066   6.029  26.550   9.158
 1912POPC   C1A26067   5.712  26.853   8.818
 1912POPC   D2A26068   5.877  27.132   8.500
 1912POPC   C3A26069   5.714  27.000   8.096
 1912POPC   C4A26070   5.768  26.893   7.646
 1912POPC   C1B26071   6.169  26.703   8.750
 1912POPC   C2B26072   5.951  26.635   8.372
 1912POPC   C3B26073   6.132  26.715   7.989
 1912POPC   C4B26074   6.161  26.556   7.576
 1913POPC   NC326075  27.483  36.685   9.300
 1913POPC   PO426076  26.898  36.888   9.553
 1913POPC   GL126077  26.825  36.939   9.139
 1913POPC   GL226078  26.988  36.618   9.115
 1913POPC   C1A26079  26.880  36.889   8.700
 1913POPC   D2A26080  26.982  37.050   8.327
 1913POPC   C3A26081  26.924  37.003   7.882
 1913POPC   C4A26082  27.302  37.022   7.633
 1913POPC   C1B26083  27.092  36.440   8.779
 1913POPC   C2B26084  27.311  36.648   8.487
 1913POPC   C3B26085  27.161  36.607   8.102
 1913POPC   C4B26086  27.085  36.530   7.693
 1914POPC   NC326087  38.395  17.209   9.423
 1914POPC   PO426088  38.830  17.560   9.721
 1914POPC   GL126089  38.678  17.611   9.221
 1914POPC   GL226090  38.468  17.378   8.978
 1914POPC   C1A26091  38.624  17.808   8.801
 1914POPC   D2A26092  38.586  17.461   8.484
 1914POPC   C3A26093  38.595  17.523   8.048
 1914POPC   C4A26094  38.445  17.347   7.648
 1914POPC   C1B26095  38.155  17.638   8.732
 1914POPC   C2B26096  38.241  17.817   8.329
 1914POPC   C3B26097  38.168  17.745   7.875
 1914POPC   C4B26098  38.154  17.730   7.400
 1915POPC   NC326099  33.371  25.670   9.374
 1915POPC   PO426100  32.823  25.320   9.596
 1915POPC   GL126101  32.860  25.159   9.186
 1915POPC   GL226102  33.172  25.246   9.134
 1915POPC   C1A26103  32.836  25.250   8.741
 1915POPC   D2A26104  32.676  25.282   8.335
 1915POPC   C3A26105  32.862  25.159   7.992
 1915POPC   C4A26106  32.792  25.394   7.626
 1915POPC   C1B26107  33.349  25.121   8.767
 1915POPC   C2B26108  33.259  25.226   8.347
 1915POPC   C3B26109  33.361  25.045   7.948
 1915POPC   C4B26110  33.099  24.933   7.609
 1916POPC   NC326111  34.145  12.339   9.416
 1916POPC   PO426112  34.760  12.037   9.476
 1916POPC   GL126113  34.504  12.156   9.115
 1916POPC   GL226114  34.433  11.802   9.074
 1916POPC   C1A26115  34.339  12.125   8.684
 1916POPC   D2A26116  34.626  12.067   8.345
 1916POPC   C3A26117  34.583  12.226   7.935
 1916POPC   C4A26118  34.317  12.027   7.676
 1916POPC   C1B26119  34.822  11.902   8.815
 1916POPC   C2B26120  35.023  11.727   8.442
 1916POPC   C3B26121  34.981  11.846   8.028
 1916POPC   C4B26122  34.769  11.759   7.681
 1917POPC   NC326123   3.692  16.101   9.558
 1917POPC   PO426124   3.057  15.751   9.464
 1917POPC   GL126125   3.391  15.896   9.197
 1917POPC   GL226126   3.436  16.262   9.148
 1917POPC   C1A26127   3.671  15.920   8.812
 1917POPC   D2A26128   3.916  15.836   8.415
 1917POPC   C3A26129   3.610  15.849   8.056
 1917POPC   C4A26130   3.626  16.030   7.622
 1917POPC   C1B26131   3.419  16.371   8.739
 1917POPC   C2B26132   3.636  16.259   8.366
 1917POPC   C3B26133   3.486  16.360   7.987
 1917POPC   C4B26134   3.334  16.476   7.591
 1918POPC   NC326135  23.823  26.722   9.636
 1918POPC   PO426136  23.398  27.157   9.296
 1918POPC   GL126137  23.681  26.996   9.017
 1918POPC   GL226138  23.762  26.686   9.071
 1918POPC   C1A26139  23.709  26.940   8.615
 1918POPC   D2A26140  23.697  26.680   8.290
 1918POPC   C3A26141  23.519  26.786   7.909
 1918POPC   C4A26142  23.752  27.068   7.760
 1918POPC   C1B26143  23.945  26.410   8.761
 1918POPC   C2B26144  23.922  26.243   8.363
 1918POPC   C3B26145  23.994  26.467   7.953
 1918POPC   C4B26146  23.872  26.613   7.535
 1919POPC   NC326147   9.745  21.000   9.939
 1919POPC   PO426148   9.882  20.379   9.606
 1919POPC   GL126149   9.827  20.594   9.213
 1919POPC   GL226150   9.716  20.938   9.213
 1919POPC   C1A26151  10.000  20.757   8.819
 1919POPC   D2A26152   9.808  20.675   8.415
 1919POPC   C3A26153  10.010  20.561   8.009
 1919POPC   C4A26154   9.762  20.265   7.784
 1919POPC   C1B26155   9.621  21.075   8.764
 1919POPC   C2B26156   9.440  21.005   8.332
 1919POPC   C3B26157   9.658  20.926   7.932
 1919POPC   C4B26158   9.808  20.743   7.509
 1920POPC   NC326159  39.023  20.302   9.656
 1920POPC   PO426160  39.487  19.799   9.427
 1920POPC   GL126161  39.380  19.972   9.097
 1920POPC   GL226162  39.095  20.088   9.194
 1920POPC   C1A26163  39.466  19.918   8.691
 1920POPC   D2A26164  39.443  19.776   8.296
 1920POPC   C3A26165  39.480  20.054   7.966
 1920POPC   C4A26166  39.311  19.695   7.776
 1920POPC   C1B26167  38.958  20.042   8.779
 1920POPC   C2B26168  39.043  20.116   8.326
 1920POPC   C3B26169  38.961  20.046   7.875
 1920POPC   C4B26170  38.862  20.228   7.452
 1921POPC   NC326171   7.330  31.804   9.485
 1921POPC   PO426172   7.438  32.510   9.472
 1921POPC   GL126173   7.313  32.199   9.179
 1921POPC   GL226174   7.613  31.985   9.088
 1921POPC   C1A26175   7.226  32.145   8.788
 1921POPC   D2A26176   7.364  32.348   8.436
 1921POPC   C3A26177   7.288  32.188   8.066
 1921POPC   C4A26178   7.192  32.315   7.693
 1921POPC   C1B26179   7.670  32.399   8.878
 1921POPC   C2B26180   7.765  32.649   8.550
 1921POPC   C3B26181   7.679  32.659   8.120
 1921POPC   C4B26182   7.693  32.388   7.795
 1922POPC   NC326183  24.497  33.266   9.445
 1922POPC   PO426184  24.908  32.797   9.245
 1922POPC   GL126185  24.735  33.178   8.992
 1922POPC   GL226186  24.341  33.285   8.974
 1922POPC   C1A26187  24.566  33.093   8.560
 1922POPC   D2A26188  24.663  32.825   8.202
 1922POPC   C3A26189  24.666  33.094   7.806
 1922POPC   C4A26190  24.619  33.202   7.350
 1922POPC   C1B26191  24.095  32.930   8.758
 1922POPC   C2B26192  24.097  32.696   8.352
 1922POPC   C3B26193  24.222  32.892   7.970
 1922POPC   C4B26194  24.357  32.781   7.558
 1923POPC   NC326195  15.321  36.619   9.493
 1923POPC   PO426196  15.041  37.222   9.656
 1923POPC   GL126197  15.202  37.176   9.200
 1923POPC   GL226198  15.392  36.901   9.043
 1923POPC   C1A26199  15.142  37.218   8.736
 1923POPC   D2A26200  14.911  37.229   8.364
 1923POPC   C3A26201  15.142  37.164   8.007
 1923POPC   C4A26202  15.043  37.333   7.644
 1923POPC   C1B26203  15.203  36.693   8.669
 1923POPC   C2B26204  15.134  36.689   8.210
 1923POPC   C3B26205  15.417  36.768   7.853
 1923POPC   C4B26206  15.441  36.619   7.429
 1924POPC   NC326207  34.812  15.439   9.295
 1924POPC   PO426208  34.577  16.028   9.465
 1924POPC   GL126209  34.272  15.979   9.114
 1924POPC   GL226210  34.201  15.622   9.113
 1924POPC   C1A26211  34.272  16.089   8.678
 1924POPC   D2A26212  34.677  16.076   8.431
 1924POPC   C3A26213  34.648  16.052   7.979
 1924POPC   C4A26214  34.318  16.219   7.703
 1924POPC   C1B26215  34.416  15.609   8.703
 1924POPC   C2B26216  34.484  15.620   8.227
 1924POPC   C3B26217  34.400  15.667   7.776
 1924POPC   C4B26218  34.612  15.826   7.440
 1925POPC   NC326219  19.099  26.681   9.517
 1925POPC   PO426220  18.965  27.314   9.385
 1925POPC   GL126221  19.100  26.959   9.100
 1925POPC   GL226222  18.904  26.600   9.059
 1925POPC   C1A26223  19.233  26.763   8.715
 1925POPC   D2A26224  19.059  26.935   8.327
 1925POPC   C3A26225  19.087  26.782   7.905
 1925POPC   C4A26226  19.041  27.083   7.579
 1925POPC   C1B26227  18.719  26.901   8.739
 1925POPC   C2B26228  18.507  26.896   8.341
 1925POPC   C3B26229  18.638  26.997   7.929
 1925POPC   C4B26230  18.672  26.760   7.548
 1926POPC   NC326231  15.568  30.131   9.486
 1926POPC   PO426232  16.048  29.670   9.480
 1926POPC   GL126233  15.773  29.725   9.175
 1926POPC   GL226234  15.975  29.935   8.985
 1926POPC   C1A26235  15.798  29.569   8.690
 1926POPC   D2A26236  15.958  29.494   8.305
 1926POPC   C3A26237  16.037  29.897   8.095
 1926POPC   C4A26238  16.200  29.967   7.676
 1926POPC   C1B26239  15.599  30.019   8.818
 1926POPC   C2B26240  15.668  30.064   8.420
 1926POPC   C3B26241  15.560  30.168   8.039
 1926POPC   C4B26242  15.686  29.950   7.697
 1927POPC   NC326243  39.231  28.803   9.561
 1927POPC   PO426244  39.197  28.140   9.517
 1927POPC   GL126245  39.274  28.400   9.153
 1927POPC   GL226246  38.989  28.583   9.083
 1927POPC   C1A26247  39.211  28.287   8.704
 1927POPC   D2A26248  38.904  28.079   8.431
 1927POPC   C3A26249  39.046  28.043   7.982
 1927POPC   C4A26250  39.429  28.275   7.900
 1927POPC   C1B26251  38.939  28.750   8.650
 1927POPC   C2B26252  39.106  28.817   8.211
 1927POPC   C3B26253  39.148  28.698   7.751
 1927POPC   C4B26254  38.940  28.725   7.342
 1928POPC   NC326255  27.877  15.996   9.467
 1928POPC   PO426256  28.514  15.927   9.563
 1928POPC   GL126257  28.224  15.768   9.189
 1928POPC   GL226258  28.327  16.048   9.098
 1928POPC   C1A26259  27.988  15.804   8.792
 1928POPC   D2A26260  28.059  15.981   8.388
 1928POPC   C3A26261  28.210  15.698   8.116
 1928POPC   C4A26262  28.183  15.797   7.661
 1928POPC   C1B26263  28.398  16.131   8.723
 1928POPC   C2B26264  28.591  15.957   8.377
 1928POPC   C3B26265  28.445  16.119   7.995
 1928POPC   C4B26266  28.635  16.034   7.615
 1929POPC   NC326267   4.535   8.498   9.551
 1929POPC   PO426268   3.957   8.900   9.554
 1929POPC   GL126269   4.055   9.004   9.132
 1929POPC   GL226270   3.989   8.659   9.046
 1929POPC   C1A26271   4.157   8.988   8.677
 1929POPC   D2A26272   3.913   8.961   8.291
 1929POPC   C3A26273   4.183   9.108   7.960
 1929POPC   C4A26274   4.556   8.995   7.724
 1929POPC   C1B26275   3.940   8.512   8.614
 1929POPC   C2B26276   3.820   8.455   8.188
 1929POPC   C3B26277   4.052   8.614   7.827
 1929POPC   C4B26278   4.070   8.869   7.469
 1930POPC   NC326279  14.155   4.910   9.473
 1930POPC   PO426280  14.308   4.377   9.782
 1930POPC   GL126281  14.362   4.244   9.343
 1930POPC   GL226282  14.428   4.500   9.086
 1930POPC   C1A26283  14.135   4.043   8.995
 1930POPC   D2A26284  14.295   4.076   8.572
 1930POPC   C3A26285  14.254   4.357   8.216
 1930POPC   C4A26286  14.255   4.230   7.797
 1930POPC   C1B26287  14.710   4.428   8.711
 1930POPC   C2B26288  14.746   4.191   8.313
 1930POPC   C3B26289  14.770   4.209   7.873
 1930POPC   C4B26290  14.864   4.463   7.484
 1931POPC   NC326291  21.298  41.448   9.895
 1931POPC   PO426292  21.793  41.750   9.617
 1931POPC   GL126293  21.498  41.566   9.275
 1931POPC   GL226294  21.309  41.226   9.264
 1931POPC   C1A26295  21.403  41.688   8.820
 1931POPC   D2A26296  21.097  41.819   8.510
 1931POPC   C3A26297  21.130  41.711   8.047
 1931POPC   C4A26298  21.202  41.794   7.575
 1931POPC   C1B26299  21.567  41.200   8.905
 1931POPC   C2B26300  21.433  41.293   8.494
 1931POPC   C3B26301  21.497  41.159   8.113
 1931POPC   C4B26302  21.389  41.324   7.731
 1932POPC   NC326303  37.092  37.382   9.653
 1932POPC   PO426304  36.704  37.864   9.442
 1932POPC   GL126305  36.805  37.485   9.244
 1932POPC   GL226306  37.178  37.464   9.172
 1932POPC   C1A26307  36.764  37.476   8.839
 1932POPC   D2A26308  36.801  37.795   8.496
 1932POPC   C3A26309  36.794  37.587   8.113
 1932POPC   C4A26310  37.096  37.531   7.753
 1932POPC   C1B26311  37.198  37.753   8.821
 1932POPC   C2B26312  37.302  37.727   8.376
 1932POPC   C3B26313  37.122  37.979   8.042
 1932POPC   C4B26314  37.067  38.090   7.622
 1933POPC   NC326315  18.472   3.024   9.332
 1933POPC   PO426316  17.948   2.573   9.446
 1933POPC   GL126317  18.189   2.666   9.058
 1933POPC   GL226318  18.535   2.675   8.974
 1933POPC   C1A26319  18.093   2.891   8.684
 1933POPC   D2A26320  18.089   3.149   8.323
 1933POPC   C3A26321  18.426   2.963   8.085
 1933POPC   C4A26322  18.543   3.000   7.683
 1933POPC   C1B26323  18.479   2.468   8.624
 1933POPC   C2B26324  18.552   2.395   8.211
 1933POPC   C3B26325  18.313   2.430   7.898
 1933POPC   C4B26326  18.200   2.670   7.531
 1934POPC   NC326327  10.967  24.234   9.442
 1934POPC   PO426328  11.462  23.748   9.639
 1934POPC   GL126329  11.484  23.670   9.205
 1934POPC   GL226330  11.450  24.005   9.115
 1934POPC   C1A26331  11.318  23.603   8.786
 1934POPC   D2A26332  11.175  23.433   8.384
 1934POPC   C3A26333  11.034  23.729   8.074
 1934POPC   C4A26334  10.885  23.611   7.664
 1934POPC   C1B26335  11.424  24.124   8.705
 1934POPC   C2B26336  11.481  23.892   8.367
 1934POPC   C3B26337  11.557  23.681   8.035
 1934POPC   C4B26338  11.377  23.749   7.687
 1935POPC   NC326339  20.065   8.647   9.277
 1935POPC   PO426340  19.864   8.143   9.672
 1935POPC   GL126341  19.774   8.135   9.230
 1935POPC   GL226342  20.050   7.940   9.089
 1935POPC   C1A26343  19.603   8.046   8.800
 1935POPC   D2A26344  19.521   7.864   8.367
 1935POPC   C3A26345  19.688   8.102   8.029
 1935POPC   C4A26346  19.812   8.018   7.584
 1935POPC   C1B26347  20.253   8.065   8.730
 1935POPC   C2B26348  20.104   8.218   8.347
 1935POPC   C3B26349  20.178   8.217   7.922
 1935POPC   C4B26350  20.279   7.846   7.705
 1936POPC   NC326351  30.192  28.567   9.542
 1936POPC   PO426352  29.800  28.024   9.765
 1936POPC   GL126353  29.752  28.371   9.396
 1936POPC   GL226354  29.476  28.395   9.197
 1936POPC   C1A26355  29.897  28.475   8.919
 1936POPC   D2A26356  29.978  28.225   8.532
 1936POPC   C3A26357  29.929  28.450   8.155
 1936POPC   C4A26358  29.967  28.370   7.709
 1936POPC   C1B26359  29.445  28.195   8.776
 1936POPC   C2B26360  29.461  28.282   8.383
 1936POPC   C3B26361  29.354  28.072   8.041
 1936POPC   C4B26362  29.568  28.031   7.678
 1937POPC   NC326363  31.865  28.813   9.750
 1937POPC   PO426364  31.532  28.173   9.649
 1937POPC   GL126365  31.511  28.048   9.203
 1937POPC   GL226366  31.165  27.945   9.129
 1937POPC   C1A26367  31.626  28.237   8.773
 1937POPC   D2A26368  31.449  28.652   8.526
 1937POPC   C3A26369  31.384  28.663   8.053
 1937POPC   C4A26370  31.579  28.465   7.698
 1937POPC   C1B26371  31.129  28.219   8.728
 1937POPC   C2B26372  31.272  28.228   8.292
 1937POPC   C3B26373  31.384  28.017   7.914
 1937POPC   C4B26374  31.360  28.055   7.459
 1938POPC   NC326375  28.880  27.330   9.518
 1938POPC   PO426376  29.573  27.401   9.490
 1938POPC   GL126377  29.275  27.340   9.140
 1938POPC   GL226378  29.160  27.609   9.170
 1938POPC   C1A26379  29.352  27.359   8.689
 1938POPC   D2A26380  29.510  27.264   8.257
 1938POPC   C3A26381  29.455  27.565   7.913
 1938POPC   C4A26382  29.292  27.386   7.478
 1938POPC   C1B26383  28.975  27.697   8.814
 1938POPC   C2B26384  29.143  27.763   8.422
 1938POPC   C3B26385  28.980  27.705   8.049
 1938POPC   C4B26386  29.078  27.807   7.667
 1939POPC   NC326387  43.328  10.836   9.532
 1939POPC   PO426388  43.406  10.116   9.463
 1939POPC   GL126389  43.049  10.311   9.295
 1939POPC   GL226390  43.229  10.532   9.134
 1939POPC   C1A26391  42.904  10.277   8.860
 1939POPC   D2A26392  43.160  10.253   8.467
 1939POPC   C3A26393  42.980  10.445   8.090
 1939POPC   C4A26394  43.046  10.561   7.652
 1939POPC   C1B26395  43.195  10.701   8.727
 1939POPC   C2B26396  43.413  10.717   8.359
 1939POPC   C3B26397  43.469  10.579   7.961
 1939POPC   C4B26398  43.564  10.766   7.611
 1940POPC   NC326399  12.092   5.934   9.472
 1940POPC   PO426400  12.654   6.118   9.298
 1940POPC   GL126401  12.315   5.887   9.011
 1940POPC   GL226402  12.025   5.669   9.063
 1940POPC   C1A26403  12.053   5.857   8.609
 1940POPC   D2A26404  11.721   6.030   8.334
 1940POPC   C3A26405  11.876   6.002   7.920
 1940POPC   C4A26406  12.280   6.107   7.813
 1940POPC   C1B26407  11.751   5.477   8.782
 1940POPC   C2B26408  11.874   5.399   8.370
 1940POPC   C3B26409  11.764   5.495   7.926
 1940POPC   C4B26410  11.952   5.595   7.522
 1941POPC   NC326411  13.474  17.734   9.445
 1941POPC   PO426412  13.866  17.250   9.363
 1941POPC   GL126413  13.573  17.381   9.099
 1941POPC   GL226414  13.796  17.669   9.044
 1941POPC   C1A26415  13.394  17.449   8.681
 1941POPC   D2A26416  13.277  17.496   8.231
 1941POPC   C3A26417  13.565  17.684   7.902
 1941POPC   C4A26418  13.412  17.805   7.455
 1941POPC   C1B26419  13.888  17.326   8.724
 1941POPC   C2B26420  13.777  17.399   8.325
 1941POPC   C3B26421  14.010  17.420   7.983
 1941POPC   C4B26422  13.878  17.130   7.705
 1942POPC   NC326423  20.988  41.565   9.436
 1942POPC   PO426424  20.288  41.539   9.400
 1942POPC   GL126425  20.596  41.509   9.076
 1942POPC   GL226426  20.868  41.791   9.000
 1942POPC   C1A26427  20.561  41.605   8.651
 1942POPC   D2A26428  20.658  41.803   8.261
 1942POPC   C3A26429  20.493  41.600   7.943
 1942POPC   C4A26430  20.497  41.318   7.601
 1942POPC   C1B26431  21.006  41.387   8.784
 1942POPC   C2B26432  20.887  41.353   8.331
 1942POPC   C3B26433  20.911  41.282   7.881
 1942POPC   C4B26434  20.975  41.316   7.408
 1943POPC   NC326435  42.718  21.688   9.534
 1943POPC   PO426436  42.812  22.383   9.656
 1943POPC   GL126437  42.859  22.373   9.193
 1943POPC   GL226438  43.074  22.071   9.169
 1943POPC   C1A26439  42.965  22.334   8.723
 1943POPC   D2A26440  42.821  22.020   8.402
 1943POPC   C3A26441  42.962  22.047   7.979
 1943POPC   C4A26442  43.227  22.398   7.964
 1943POPC   C1B26443  43.361  21.984   8.808
 1943POPC   C2B26444  43.351  22.022   8.338
 1943POPC   C3B26445  43.474  21.949   7.907
 1943POPC   C4B26446  43.310  21.674   7.624
 1944POPC   NC326447   4.466  26.692   9.538
 1944POPC   PO426448   4.044  27.160   9.464
 1944POPC   GL126449   4.354  27.026   9.116
 1944POPC   GL226450   4.364  26.657   9.055
 1944POPC   C1A26451   4.341  26.904   8.644
 1944POPC   D2A26452   4.551  27.028   8.328
 1944POPC   C3A26453   4.316  26.946   7.998
 1944POPC   C4A26454   4.423  26.930   7.597
 1944POPC   C1B26455   4.378  26.341   8.698
 1944POPC   C2B26456   4.452  26.491   8.270
 1944POPC   C3B26457   4.456  26.465   7.818
 1944POPC   C4B26458   4.478  26.470   7.388
 1945POPC   NC326459  12.321   8.773   9.311
 1945POPC   PO426460  11.644   8.657   9.506
 1945POPC   GL126461  11.745   8.787   9.059
 1945POPC   GL226462  12.045   8.993   8.961
 1945POPC   C1A26463  11.812   8.786   8.575
 1945POPC   D2A26464  12.197   8.821   8.331
 1945POPC   C3A26465  12.126   8.865   7.887
 1945POPC   C4A26466  11.828   8.929   7.546
 1945POPC   C1B26467  11.954   9.342   8.701
 1945POPC   C2B26468  12.111   9.508   8.324
 1945POPC   C3B26469  12.371   9.334   7.989
 1945POPC   C4B26470  12.237   9.249   7.563
 1946POPC   NC326471   7.175  35.968   9.503
 1946POPC   PO426472   7.483  36.627   9.464
 1946POPC   GL126473   7.532  36.312   9.176
 1946POPC   GL226474   7.248  36.222   9.084
 1946POPC   C1A26475   7.632  36.121   8.745
 1946POPC   D2A26476   7.654  35.895   8.335
 1946POPC   C3A26477   7.484  36.113   8.002
 1946POPC   C4A26478   7.568  36.331   7.622
 1946POPC   C1B26479   7.078  36.142   8.741
 1946POPC   C2B26480   7.104  36.019   8.348
 1946POPC   C3B26481   6.981  36.293   8.067
 1946POPC   C4B26482   7.089  36.202   7.660
 1947POPC   NC326483   0.534  30.351   9.441
 1947POPC   PO426484   0.302  29.655   9.459
 1947POPC   GL126485   0.526  29.695   9.081
 1947POPC   GL226486   0.640  30.055   9.023
 1947POPC   C1A26487   0.410  29.625   8.663
 1947POPC   D2A26488   0.645  29.633   8.279
 1947POPC   C3A26489   0.456  29.643   7.869
 1947POPC   C4A26490   0.655  29.662   7.468
 1947POPC   C1B26491   0.293  30.136   8.726
 1947POPC   C2B26492   0.228  29.977   8.284
 1947POPC   C3B26493   0.610  30.098   8.010
 1947POPC   C4B26494   0.900  30.411   7.878
 1948POPC   NC326495  10.925   3.848   9.601
 1948POPC   PO426496  11.439   4.334   9.593
 1948POPC   GL126497  11.361   4.292   9.177
 1948POPC   GL226498  11.690   4.420   9.113
 1948POPC   C1A26499  11.042   4.151   8.898
 1948POPC   D2A26500  10.880   4.233   8.503
 1948POPC   C3A26501  11.007   4.025   8.132
 1948POPC   C4A26502  11.040   4.349   7.843
 1948POPC   C1B26503  11.510   4.453   8.710
 1948POPC   C2B26504  11.411   4.241   8.350
 1948POPC   C3B26505  11.538   4.425   7.977
 1948POPC   C4B26506  11.838   4.306   7.685
 1949POPC   NC326507  21.677  18.015   9.600
 1949POPC   PO426508  21.082  18.357   9.584
 1949POPC   GL126509  21.073  18.145   9.177
 1949POPC   GL226510  21.452  18.141   9.155
 1949POPC   C1A26511  21.210  17.888   8.798
 1949POPC   D2A26512  21.470  17.969   8.429
 1949POPC   C3A26513  21.173  18.046   8.126
 1949POPC   C4A26514  20.987  18.370   7.902
 1949POPC   C1B26515  21.769  18.195   8.791
 1949POPC   C2B26516  21.709  18.415   8.380
 1949POPC   C3B26517  21.888  18.620   8.009
 1949POPC   C4B26518  21.733  18.723   7.573
 1950POPC   NC326519  15.092  19.192   9.758
 1950POPC   PO426520  15.023  18.767   9.333
 1950POPC   GL126521  15.031  19.027   9.011
 1950POPC   GL226522  15.111  19.300   9.056
 1950POPC   C1A26523  14.936  19.205   8.598
 1950POPC   D2A26524  14.992  18.875   8.345
 1950POPC   C3A26525  15.149  18.861   7.948
 1950POPC   C4A26526  15.025  18.980   7.556
 1950POPC   C1B26527  15.436  19.171   8.710
 1950POPC   C2B26528  15.374  19.221   8.259
 1950POPC   C3B26529  15.568  19.149   7.845
 1950POPC   C4B26530  15.495  19.076   7.399
 1951POPC   NC326531  42.111   9.504   9.481
 1951POPC   PO426532  41.457   9.524   9.410
 1951POPC   GL126533  41.559   9.734   9.051
 1951POPC   GL226534  41.858   9.840   9.130
 1951POPC   C1A26535  41.473   9.677   8.614
 1951POPC   D2A26536  41.629   9.409   8.306
 1951POPC   C3A26537  41.657   9.592   7.930
 1951POPC   C4A26538  41.287   9.568   7.683
 1951POPC   C1B26539  41.976   9.800   8.707
 1951POPC   C2B26540  41.812   9.910   8.316
 1951POPC   C3B26541  41.777  10.109   7.945
 1951POPC   C4B26542  41.559  10.004   7.615
 1952POPC   NC326543  26.912   5.159   9.463
 1952POPC   PO426544  26.384   4.766   9.408
 1952POPC   GL126545  26.704   4.849   9.075
 1952POPC   GL226546  26.969   5.104   8.955
 1952POPC   C1A26547  26.576   4.989   8.653
 1952POPC   D2A26548  26.845   5.066   8.337
 1952POPC   C3A26549  26.941   4.805   7.994
 1952POPC   C4A26550  26.761   4.882   7.593
 1952POPC   C1B26551  27.205   5.351   8.644
 1952POPC   C2B26552  27.221   5.361   8.191
 1952POPC   C3B26553  26.918   5.328   7.872
 1952POPC   C4B26554  26.939   5.325   7.409
 1953POPC   NC326555  38.092  18.863   9.300
 1953POPC   PO426556  37.488  18.925   9.575
 1953POPC   GL126557  37.614  19.128   9.173
 1953POPC   GL226558  37.944  19.311   9.086
 1953POPC   C1A26559  37.557  18.956   8.772
 1953POPC   D2A26560  37.377  19.056   8.393
 1953POPC   C3A26561  37.494  18.936   8.032
 1953POPC   C4A26562  37.410  18.942   7.642
 1953POPC   C1B26563  38.036  19.095   8.680
 1953POPC   C2B26564  37.776  19.347   8.433
 1953POPC   C3B26565  37.702  19.403   8.013
 1953POPC   C4B26566  37.944  19.068   7.815
 1954POPC   NC326567   9.006  15.282   9.327
 1954POPC   PO426568   8.766  14.711   9.524
 1954POPC   GL126569   8.780  14.919   9.063
 1954POPC   GL226570   8.552  15.205   8.970
 1954POPC   C1A26571   9.000  15.184   8.690
 1954POPC   D2A26572   8.895  15.376   8.262
 1954POPC   C3A26573   9.189  15.297   7.927
 1954POPC   C4A26574   9.508  15.407   7.665
 1954POPC   C1B26575   8.529  15.078   8.557
 1954POPC   C2B26576   8.830  14.857   8.275
 1954POPC   C3B26577   8.874  14.922   7.848
 1954POPC   C4B26578   8.708  15.328   7.711
 1955POPC   NC326579  37.159   0.935   9.481
 1955POPC   PO426580  36.962   1.626   9.465
 1955POPC   GL126581  36.870   1.310   9.180
 1955POPC   GL226582  36.628   1.106   9.322
 1955POPC   C1A26583  37.004   1.243   8.752
 1955POPC   D2A26584  36.974   1.461   8.355
 1955POPC   C3A26585  37.015   1.259   7.981
 1955POPC   C4A26586  36.978   1.390   7.589
 1955POPC   C1B26587  36.563   1.023   8.886
 1955POPC   C2B26588  36.625   0.971   8.444
 1955POPC   C3B26589  36.599   0.970   7.979
 1955POPC   C4B26590  36.848   0.917   7.578
 1956POPC   NC326591  20.406  11.781   9.477
 1956POPC   PO426592  20.698  12.391   9.415
 1956POPC   GL126593  20.569  12.133   9.111
 1956POPC   GL226594  20.776  11.818   9.140
 1956POPC   C1A26595  20.460  12.268   8.690
 1956POPC   D2A26596  20.292  12.168   8.292
 1956POPC   C3A26597  20.477  12.354   7.982
 1956POPC   C4A26598  20.702  12.292   7.610
 1956POPC   C1B26599  20.604  11.776   8.736
 1956POPC   C2B26600  20.684  11.845   8.306
 1956POPC   C3B26601  20.602  11.851   7.877
 1956POPC   C4B26602  20.885  11.828   7.504
 1957POPC   NC326603  24.675  36.325   9.503
 1957POPC   PO426604  24.354  35.776   9.626
 1957POPC   GL126605  24.391  35.996   9.207
 1957POPC   GL226606  24.746  35.988   9.107
 1957POPC   C1A26607  24.302  35.964   8.748
 1957POPC   D2A26608  24.499  35.858   8.349
 1957POPC   C3A26609  24.394  36.057   7.954
 1957POPC   C4A26610  24.479  35.823   7.576
 1957POPC   C1B26611  24.861  36.176   8.709
 1957POPC   C2B26612  24.724  36.297   8.304
 1957POPC   C3B26613  24.901  36.160   7.933
 1957POPC   C4B26614  24.766  36.272   7.539
 1958POPC   NC326615  25.436  15.504   9.629
 1958POPC   PO426616  25.471  16.157   9.460
 1958POPC   GL126617  25.458  15.847   9.187
 1958POPC   GL226618  25.169  15.957   9.037
 1958POPC   C1A26619  25.519  15.711   8.760
 1958POPC   D2A26620  25.279  15.886   8.440
 1958POPC   C3A26621  25.345  15.757   7.981
 1958POPC   C4A26622  25.132  15.667   7.559
 1958POPC   C1B26623  24.991  16.326   8.850
 1958POPC   C2B26624  24.994  16.375   8.437
 1958POPC   C3B26625  25.226  16.259   8.092
 1958POPC   C4B26626  25.054  16.128   7.730
 1959POPC   NC326627  38.483  17.887   9.581
 1959POPC   PO426628  38.314  18.577   9.590
 1959POPC   GL126629  38.229  18.370   9.188
 1959POPC   GL226630  38.544  18.203   9.164
 1959POPC   C1A26631  38.256  18.181   8.759
 1959POPC   D2A26632  38.563  18.207   8.457
 1959POPC   C3A26633  38.364  18.224   8.038
 1959POPC   C4A26634  38.506  18.040   7.628
 1959POPC   C1B26635  38.843  18.441   8.942
 1959POPC   C2B26636  38.863  18.627   8.572
 1959POPC   C3B26637  38.754  18.582   8.160
 1959POPC   C4B26638  38.918  18.636   7.766
 1960POPC   NC326639  22.652   9.655   9.386
 1960POPC   PO426640  23.118  10.166   9.521
 1960POPC   GL126641  23.043   9.926   9.116
 1960POPC   GL226642  23.041   9.551   9.052
 1960POPC   C1A26643  23.164   9.951   8.690
 1960POPC   D2A26644  22.990   9.827   8.300
 1960POPC   C3A26645  23.156   9.939   7.961
 1960POPC   C4A26646  23.073   9.774   7.618
 1960POPC   C1B26647  22.728   9.689   8.734
 1960POPC   C2B26648  22.544   9.585   8.352
 1960POPC   C3B26649  22.788   9.322   8.080
 1960POPC   C4B26650  22.856   9.305   7.639
 1961POPC   NC326651   6.482   7.613   9.574
 1961POPC   PO426652   7.056   7.290   9.589
 1961POPC   GL126653   6.850   7.533   9.214
 1961POPC   GL226654   6.471   7.493   9.092
 1961POPC   C1A26655   6.826   7.611   8.767
 1961POPC   D2A26656   6.581   7.482   8.428
 1961POPC   C3A26657   6.752   7.524   8.049
 1961POPC   C4A26658   6.595   7.575   7.626
 1961POPC   C1B26659   6.224   7.306   8.775
 1961POPC   C2B26660   6.139   7.210   8.364
 1961POPC   C3B26661   6.293   7.293   7.965
 1961POPC   C4B26662   6.305   7.152   7.541
 1962POPC   NC326663   4.658  13.340   9.669
 1962POPC   PO426664   4.143  13.744   9.644
 1962POPC   GL126665   4.340  13.561   9.285
 1962POPC   GL226666   4.030  13.606   9.097
 1962POPC   C1A26667   4.409  13.368   8.863
 1962POPC   D2A26668   4.085  13.342   8.531
 1962POPC   C3A26669   4.194  13.395   8.077
 1962POPC   C4A26670   4.608  13.311   7.864
 1962POPC   C1B26671   4.204  13.833   8.745
 1962POPC   C2B26672   4.041  13.844   8.324
 1962POPC   C3B26673   4.097  14.011   7.932
 1962POPC   C4B26674   4.344  13.990   7.544
 1963POPC   NC326675  13.374  35.219   9.481
 1963POPC   PO426676  13.727  35.623   9.172
 1963POPC   GL126677  13.812  35.400   8.859
 1963POPC   GL226678  13.648  35.101   9.021
 1963POPC   C1A26679  13.522  35.259   8.571
 1963POPC   D2A26680  13.376  35.492   8.297
 1963POPC   C3A26681  13.663  35.402   7.970
 1963POPC   C4A26682  13.600  35.566   7.588
 1963POPC   C1B26683  13.971  34.966   8.681
 1963POPC   C2B26684  13.734  34.879   8.290
 1963POPC   C3B26685  13.716  34.880   7.859
 1963POPC   C4B26686  13.994  35.097   7.654
 1964POPC   NC326687   5.663  35.882   9.523
 1964POPC   PO426688   5.882  36.475   9.608
 1964POPC   GL126689   5.820  36.275   9.217
 1964POPC   GL226690   5.889  35.918   9.069
 1964POPC   C1A26691   5.641  36.371   8.858
 1964POPC   D2A26692   5.649  36.462   8.418
 1964POPC   C3A26693   5.740  36.261   8.064
 1964POPC   C4A26694   5.668  36.278   7.621
 1964POPC   C1B26695   5.688  35.923   8.637
 1964POPC   C2B26696   5.627  35.705   8.270
 1964POPC   C3B26697   5.704  35.797   7.873
 1964POPC   C4B26698   6.079  36.037   7.700
 1965POPC   NC326699   0.105  28.497   9.582
 1965POPC   PO426700   0.534  27.975   9.483
 1965POPC   GL126701   0.291  28.187   9.206
 1965POPC   GL226702   0.447  28.482   9.109
 1965POPC   C1A26703   0.156  28.235   8.802
 1965POPC   D2A26704   0.368  28.130   8.462
 1965POPC   C3A26705   0.309  28.330   8.114
 1965POPC   C4A26706   0.453  28.286   7.725
 1965POPC   C1B26707   0.564  28.579   8.727
 1965POPC   C2B26708   0.596  28.750   8.336
 1965POPC   C3B26709   0.663  28.710   7.915
 1965POPC   C4B26710   0.711  28.697   7.466
 1966POPC   NC326711  22.643  23.151   9.278
 1966POPC   PO426712  22.414  22.599   9.620
 1966POPC   GL126713  22.208  22.696   9.203
 1966POPC   GL226714  22.466  22.800   8.957
 1966POPC   C1A26715  22.012  22.909   8.802
 1966POPC   D2A26716  22.224  22.879   8.365
 1966POPC   C3A26717  21.982  22.932   7.987
 1966POPC   C4A26718  21.661  22.818   7.678
 1966POPC   C1B26719  22.457  23.206   8.677
 1966POPC   C2B26720  22.354  23.387   8.269
 1966POPC   C3B26721  22.434  23.147   7.881
 1966POPC   C4B26722  22.528  22.904   7.482
 1967POPC   NC326723  19.764  32.864   9.333
 1967POPC   PO426724  19.907  33.449   9.443
 1967POPC   GL126725  19.804  33.319   9.056
 1967POPC   GL226726  19.453  33.314   9.147
 1967POPC   C1A26727  19.990  33.103   8.704
 1967POPC   D2A26728  20.090  32.889   8.323
 1967POPC   C3A26729  19.937  33.081   7.957
 1967POPC   C4A26730  19.988  33.494   7.789
 1967POPC   C1B26731  19.479  33.079   8.739
 1967POPC   C2B26732  19.591  32.932   8.352
 1967POPC   C3B26733  19.404  33.169   8.056
 1967POPC   C4B26734  19.540  33.307   7.700
 1968POPC   NC326735  41.339  41.215   9.457
 1968POPC   PO426736  41.155  41.807   9.385
 1968POPC   GL126737  41.496  41.589   9.116
 1968POPC   GL226738  41.699  41.257   9.111
 1968POPC   C1A26739  41.682  41.578   8.693
 1968POPC   D2A26740  41.818  41.795   8.313
 1968POPC   C3A26741  41.621  41.720   7.897
 1968POPC   C4A26742  41.394  41.696   7.495
 1968POPC   C1B26743  41.833  41.080   8.742
 1968POPC   C2B26744  41.882  41.265   8.328
 1968POPC   C3B26745  41.760  41.221   7.915
 1968POPC   C4B26746  41.703  41.290   7.461
 1969POPC   NC326747  11.634  22.605   9.510
 1969POPC   PO426748  11.014  22.261   9.567
 1969POPC   GL126749  11.230  22.276   9.122
 1969POPC   GL226750  11.402  22.569   9.082
 1969POPC   C1A26751  11.332  22.034   8.731
 1969POPC   D2A26752  11.507  21.929   8.309
 1969POPC   C3A26753  11.229  22.060   7.954
 1969POPC   C4A26754  10.930  22.095   7.609
 1969POPC   C1B26755  11.684  22.415   8.791
 1969POPC   C2B26756  11.511  22.430   8.417
 1969POPC   C3B26757  11.630  22.377   8.020
 1969POPC   C4B26758  11.362  22.526   7.659
 1970POPC   NC326759  39.730  33.354   9.439
 1970POPC   PO426760  39.661  32.624   9.459
 1970POPC   GL126761  39.921  32.702   9.091
 1970POPC   GL226762  40.122  33.025   9.146
 1970POPC   C1A26763  39.915  32.870   8.681
 1970POPC   D2A26764  39.958  33.126   8.329
 1970POPC   C3A26765  39.813  33.006   7.952
 1970POPC   C4A26766  39.981  32.652   7.748
 1970POPC   C1B26767  40.038  33.353   8.782
 1970POPC   C2B26768  40.237  33.555   8.416
 1970POPC   C3B26769  40.263  33.380   8.004
 1970POPC   C4B26770  40.197  33.132   7.647
 1971POPC   NC326771  10.195  13.489   9.511
 1971POPC   PO426772   9.538  13.543   9.517
 1971POPC   GL126773   9.817  13.589   9.162
 1971POPC   GL226774  10.004  13.269   9.084
 1971POPC   C1A26775   9.684  13.807   8.786
 1971POPC   D2A26776   9.368  13.740   8.457
 1971POPC   C3A26777   9.580  13.726   8.053
 1971POPC   C4A26778   9.719  13.417   7.756
 1971POPC   C1B26779   9.974  13.412   8.677
 1971POPC   C2B26780   9.860  13.357   8.271
 1971POPC   C3B26781  10.181  13.312   7.987
 1971POPC   C4B26782  10.118  13.154   7.593
 1972POPC   NC326783  20.757  38.474   9.656
 1972POPC   PO426784  20.277  38.034   9.464
 1972POPC   GL126785  20.573  38.247   9.151
 1972POPC   GL226786  20.799  38.542   9.150
 1972POPC   C1A26787  20.511  38.425   8.716
 1972POPC   D2A26788  20.323  38.640   8.333
 1972POPC   C3A26789  20.316  38.501   7.902
 1972POPC   C4A26790  20.479  38.136   7.656
 1972POPC   C1B26791  20.999  38.744   8.806
 1972POPC   C2B26792  21.066  38.673   8.365
 1972POPC   C3B26793  20.814  38.567   8.019
 1972POPC   C4B26794  20.708  38.561   7.581
 1973POPC   NC326795  39.843  27.503   9.544
 1973POPC   PO426796  40.450  27.483   9.356
 1973POPC   GL126797  40.084  27.565   9.079
 1973POPC   GL226798  39.692  27.597   9.090
 1973POPC   C1A26799  39.964  27.543   8.641
 1973POPC   D2A26800  39.928  27.566   8.209
 1973POPC   C3A26801  40.281  27.562   7.979
 1973POPC   C4A26802  40.438  27.727   7.644
 1973POPC   C1B26803  39.548  27.295   8.808
 1973POPC   C2B26804  39.480  27.410   8.376
 1973POPC   C3B26805  39.607  27.225   7.990
 1973POPC   C4B26806  39.883  27.440   7.677
 1974POPC   NC326807  16.905  31.551   9.561
 1974POPC   PO426808  16.452  31.003   9.444
 1974POPC   GL126809  16.693  31.293   9.154
 1974POPC   GL226810  16.623  31.664   9.130
 1974POPC   C1A26811  16.884  31.434   8.761
 1974POPC   D2A26812  17.120  31.345   8.402
 1974POPC   C3A26813  17.020  31.566   8.062
 1974POPC   C4A26814  17.017  31.333   7.703
 1974POPC   C1B26815  16.585  31.879   8.749
 1974POPC   C2B26816  16.613  31.793   8.328
 1974POPC   C3B26817  16.385  31.788   7.984
 1974POPC   C4B26818  16.669  31.695   7.704
 1975POPC   NC326819  25.860  25.926   9.563
 1975POPC   PO426820  26.473  25.679   9.501
 1975POPC   GL126821  26.337  26.050   9.201
 1975POPC   GL226822  26.006  26.079   9.116
 1975POPC   C1A26823  26.191  26.341   8.776
 1975POPC   D2A26824  26.022  26.109   8.453
 1975POPC   C3A26825  26.084  26.255   8.047
 1975POPC   C4A26826  26.002  26.083   7.648
 1975POPC   C1B26827  26.264  25.787   8.778
 1975POPC   C2B26828  26.289  25.705   8.321
 1975POPC   C3B26829  26.432  25.699   7.891
 1975POPC   C4B26830  26.367  25.799   7.400
 1976POPC   NC326831   1.875  27.266   9.475
 1976POPC   PO426832   2.124  27.917   9.502
 1976POPC   GL126833   1.997  27.688   9.159
 1976POPC   GL226834   1.659  27.677   9.149
 1976POPC   C1A26835   2.195  27.571   8.754
 1976POPC   D2A26836   2.385  27.410   8.368
 1976POPC   C3A26837   2.209  27.580   7.989
 1976POPC   C4A26838   2.025  27.463   7.627
 1976POPC   C1B26839   1.713  27.778   8.740
 1976POPC   C2B26840   1.877  27.670   8.363
 1976POPC   C3B26841   1.667  27.577   8.001
 1976POPC   C4B26842   1.634  27.802   7.619
 1977POPC   NC326843  33.591  19.156   9.462
 1977POPC   PO426844  34.098  18.802   9.656
 1977POPC   GL126845  33.975  18.890   9.224
 1977POPC   GL226846  34.267  19.082   9.130
 1977POPC   C1A26847  33.877  19.108   8.798
 1977POPC   D2A26848  33.902  19.062   8.337
 1977POPC   C3A26849  33.523  19.124   8.080
 1977POPC   C4A26850  33.469  18.959   7.672
 1977POPC   C1B26851  34.301  19.409   8.792
 1977POPC   C2B26852  34.112  19.602   8.449
 1977POPC   C3B26853  34.148  19.420   8.036
 1977POPC   C4B26854  33.835  19.355   7.739
 1978POPC   NC326855  13.147  31.245   9.524
 1978POPC   PO426856  12.454  31.120   9.428
 1978POPC   GL126857  12.705  31.393   9.095
 1978POPC   GL226858  13.055  31.384   9.061
 1978POPC   C1A26859  12.827  31.663   8.719
 1978POPC   D2A26860  12.675  31.659   8.300
 1978POPC   C3A26861  12.921  31.739   7.944
 1978POPC   C4A26862  12.876  31.756   7.466
 1978POPC   C1B26863  13.081  31.103   8.742
 1978POPC   C2B26864  12.813  31.101   8.401
 1978POPC   C3B26865  12.946  31.088   8.021
 1978POPC   C4B26866  12.965  31.311   7.663
 1979POPC   NC326867   1.305  19.564   9.668
 1979POPC   PO426868   1.085  20.151   9.568
 1979POPC   GL126869   1.243  19.883   9.228
 1979POPC   GL226870   1.304  19.546   9.135
 1979POPC   C1A26871   0.945  19.869   8.899
 1979POPC   D2A26872   1.015  20.037   8.502
 1979POPC   C3A26873   1.114  19.792   8.148
 1979POPC   C4A26874   1.057  19.804   7.691
 1979POPC   C1B26875   1.286  19.570   8.664
 1979POPC   C2B26876   1.585  19.731   8.350
 1979POPC   C3B26877   1.603  19.594   7.928
 1979POPC   C4B26878   1.488  19.634   7.499
 1980POPC   NC326879  41.147  38.003   9.359
 1980POPC   PO426880  40.654  38.570   9.530
 1980POPC   GL126881  40.686  38.575   9.114
 1980POPC   GL226882  41.013  38.467   9.089
 1980POPC   C1A26883  40.601  38.415   8.702
 1980POPC   D2A26884  40.877  38.370   8.393
 1980POPC   C3A26885  40.661  38.452   8.017
 1980POPC   C4A26886  40.742  38.405   7.570
 1980POPC   C1B26887  41.004  38.740   8.730
 1980POPC   C2B26888  41.093  38.830   8.277
 1980POPC   C3B26889  40.927  38.839   7.830
 1980POPC   C4B26890  41.165  38.698   7.452
 1981POPC   NC326891  40.472  27.939   9.362
 1981POPC   PO426892  40.601  28.601   9.458
 1981POPC   GL126893  40.745  28.480   9.080
 1981POPC   GL226894  40.924  28.192   9.104
 1981POPC   C1A26895  40.879  28.537   8.682
 1981POPC   D2A26896  40.750  28.348   8.330
 1981POPC   C3A26897  41.020  28.459   8.070
 1981POPC   C4A26898  40.941  28.561   7.680
 1981POPC   C1B26899  40.861  28.017   8.695
 1981POPC   C2B26900  41.131  27.924   8.347
 1981POPC   C3B26901  41.182  27.963   7.947
 1981POPC   C4B26902  40.844  28.072   7.696
 1982POPC   NC326903  40.646  37.460   9.411
 1982POPC   PO426904  40.721  38.069   9.215
 1982POPC   GL126905  40.869  37.696   9.025
 1982POPC   GL226906  40.557  37.535   8.910
 1982POPC   C1A26907  41.123  37.758   8.703
 1982POPC   D2A26908  41.230  37.990   8.373
 1982POPC   C3A26909  41.219  37.720   8.039
 1982POPC   C4A26910  40.941  37.663   7.741
 1982POPC   C1B26911  40.623  37.885   8.589
 1982POPC   C2B26912  40.754  37.941   8.157
 1982POPC   C3B26913  40.548  37.963   7.794
 1982POPC   C4B26914  40.245  37.846   7.472
 1983POPC   NC326915  15.711   1.343   9.537
 1983POPC   PO426916  15.975   0.751   9.433
 1983POPC   GL126917  16.036   1.137   9.189
 1983POPC   GL226918  16.358   1.297   9.062
 1983POPC   C1A26919  15.883   1.306   8.836
 1983POPC   D2A26920  15.917   1.110   8.460
 1983POPC   C3A26921  16.092   1.341   8.131
 1983POPC   C4A26922  15.965   1.367   7.682
 1983POPC   C1B26923  16.324   1.426   8.605
 1983POPC   C2B26924  16.400   1.744   8.278
 1983POPC   C3B26925  16.360   1.666   7.812
 1983POPC   C4B26926  16.271   1.658   7.330
 1984POPC   NC326927  19.798  16.574   9.585
 1984POPC   PO426928  20.083  17.103   9.452
 1984POPC   GL126929  19.943  16.794   9.135
 1984POPC   GL226930  19.638  16.541   9.113
 1984POPC   C1A26931  19.987  16.561   8.759
 1984POPC   D2A26932  19.759  16.574   8.375
 1984POPC   C3A26933  19.947  16.587   7.951
 1984POPC   C4A26934  19.648  16.495   7.619
 1984POPC   C1B26935  19.507  16.882   8.856
 1984POPC   C2B26936  19.400  16.964   8.433
 1984POPC   C3B26937  19.624  16.982   8.062
 1984POPC   C4B26938  19.572  17.257   7.748
 1985POPC   NC326939  33.393   4.369   9.409
 1985POPC   PO426940  32.909   3.878   9.398
 1985POPC   GL126941  32.814   4.279   9.200
 1985POPC   GL226942  33.093   4.412   9.020
 1985POPC   C1A26943  32.695   4.299   8.751
 1985POPC   D2A26944  32.930   4.398   8.377
 1985POPC   C3A26945  32.838   4.224   7.951
 1985POPC   C4A26946  32.881   4.062   7.513
 1985POPC   C1B26947  33.313   4.711   8.783
 1985POPC   C2B26948  33.412   4.746   8.336
 1985POPC   C3B26949  33.313   4.429   8.032
 1985POPC   C4B26950  33.160   4.464   7.607
 1986POPC   NC326951  12.497  31.615   9.509
 1986POPC   PO426952  11.827  31.464   9.603
 1986POPC   GL126953  12.069  31.561   9.237
 1986POPC   GL226954  12.195  31.327   9.047
 1986POPC   C1A26955  12.126  31.783   8.816
 1986POPC   D2A26956  12.338  32.004   8.473
 1986POPC   C3A26957  12.237  31.807   8.072
 1986POPC   C4A26958  12.167  31.712   7.629
 1986POPC   C1B26959  12.409  31.377   8.664
 1986POPC   C2B26960  12.340  31.270   8.254
 1986POPC   C3B26961  12.504  31.412   7.872
 1986POPC   C4B26962  12.508  31.370   7.415
 1987POPC   NC326963  28.363  24.280   9.421
 1987POPC   PO426964  27.814  24.764   9.479
 1987POPC   GL126965  28.201  24.733   9.211
 1987POPC   GL226966  28.213  24.443   8.983
 1987POPC   C1A26967  28.447  24.855   8.814
 1987POPC   D2A26968  28.492  24.548   8.475
 1987POPC   C3A26969  28.580  24.676   8.025
 1987POPC   C4A26970  28.318  24.747   7.660
 1987POPC   C1B26971  28.052  24.156   8.702
 1987POPC   C2B26972  28.259  24.108   8.323
 1987POPC   C3B26973  28.635  24.178   8.112
 1987POPC   C4B26974  28.517  24.212   7.726
 1988POPC   NC326975  11.320  32.625   9.432
 1988POPC   PO426976  11.309  33.292   9.597
 1988POPC   GL126977  11.465  33.098   9.239
 1988POPC   GL226978  11.148  33.024   9.147
 1988POPC   C1A26979  11.582  32.992   8.818
 1988POPC   D2A26980  11.536  33.151   8.427
 1988POPC   C3A26981  11.589  32.924   8.035
 1988POPC   C4A26982  11.554  33.033   7.630
 1988POPC   C1B26983  11.131  32.777   8.769
 1988POPC   C2B26984  11.160  32.828   8.322
 1988POPC   C3B26985  11.083  32.897   7.877
 1988POPC   C4B26986  11.167  32.807   7.394
 1989POPC   NC326987  17.560  30.980   9.951
 1989POPC   PO426988  17.300  30.488   9.570
 1989POPC   GL126989  17.421  30.797   9.233
 1989POPC   GL226990  17.140  31.047   9.262
 1989POPC   C1A26991  17.642  30.688   8.809
 1989POPC   D2A26992  17.554  30.353   8.476
 1989POPC   C3A26993  17.548  30.506   8.055
 1989POPC   C4A26994  17.628  30.588   7.643
 1989POPC   C1B26995  17.229  31.032   8.812
 1989POPC   C2B26996  17.349  30.850   8.398
 1989POPC   C3B26997  17.247  30.945   7.979
 1989POPC   C4B26998  17.206  30.865   7.525
 1990POPC   NC326999   4.478  14.061   9.482
 1990POPC   PO427000   4.750  14.787   9.614
 1990POPC   GL127001   4.598  14.720   9.165
 1990POPC   GL227002   4.211  14.650   9.088
 1990POPC   C1A27003   4.588  14.451   8.761
 1990POPC   D2A27004   4.457  14.168   8.387
 1990POPC   C3A27005   4.527  14.331   7.960
 1990POPC   C4A27006   4.572  14.433   7.518
 1990POPC   C1B27007   4.075  14.350   8.727
 1990POPC   C2B27008   3.965  14.370   8.305
 1990POPC   C3B27009   4.101  14.626   7.985
 1990POPC   C4B27010   4.084  14.410   7.615
 1991POPC   NC327011   2.719   2.201   9.570
 1991POPC   PO427012   2.391   1.705   9.134
 1991POPC   GL127013   2.739   1.995   9.096
 1991POPC   GL227014   3.035   1.781   9.020
 1991POPC   C1A27015   2.839   2.214   8.749
 1991POPC   D2A27016   2.669   2.042   8.348
 1991POPC   C3A27017   2.750   2.328   8.032
 1991POPC   C4A27018   3.012   2.263   7.716
 1991POPC   C1B27019   2.862   1.691   8.656
 1991POPC   C2B27020   2.866   1.502   8.270
 1991POPC   C3B27021   2.965   1.802   7.979
 1991POPC   C4B27022   2.655   1.893   7.705
 1992POPC   NC327023  36.568  19.988   9.538
 1992POPC   PO427024  37.171  19.769   9.400
 1992POPC   GL127025  37.030  19.968   9.072
 1992POPC   GL227026  36.657  19.960   9.042
 1992POPC   C1A27027  36.995  19.863   8.681
 1992POPC   D2A27028  36.659  20.049   8.518
 1992POPC   C3A27029  36.728  19.873   8.137
 1992POPC   C4A27030  36.927  20.006   7.758
 1992POPC   C1B27031  36.504  19.611   8.803
 1992POPC   C2B27032  36.517  19.425   8.403
 1992POPC   C3B27033  36.357  19.448   7.995
 1992POPC   C4B27034  36.348  19.853   7.809
 1993POPC   NC327035  38.837  34.067   9.882
 1993POPC   PO427036  38.342  33.774   9.558
 1993POPC   GL127037  38.393  33.948   9.137
 1993POPC   GL227038  38.730  33.924   9.103
 1993POPC   C1A27039  38.472  33.946   8.671
 1993POPC   D2A27040  38.271  33.774   8.314
 1993POPC   C3A27041  38.490  33.789   7.935
 1993POPC   C4A27042  38.442  33.897   7.518
 1993POPC   C1B27043  38.885  33.671   8.808
 1993POPC   C2B27044  38.784  33.590   8.419
 1993POPC   C3B27045  38.938  33.598   8.083
 1993POPC   C4B27046  39.028  33.593   7.695
 1994POPC   NC327047   6.280   0.997   9.824
 1994POPC   PO427048   6.889   1.265   9.507
 1994POPC   GL127049   6.577   1.403   9.132
 1994POPC   GL227050   6.752   1.466   8.945
 1994POPC   C1A27051   6.411   1.191   8.707
 1994POPC   D2A27052   6.358   0.834   8.400
 1994POPC   C3A27053   6.502   0.872   7.972
 1994POPC   C4A27054   6.298   1.162   7.706
 1994POPC   C1B27055   6.952   1.223   8.680
 1994POPC   C2B27056   6.759   1.185   8.303
 1994POPC   C3B27057   6.736   1.338   7.912
 1994POPC   C4B27058   6.912   1.168   7.561
 1995POPC   NC327059  44.058  33.185   9.550
 1995POPC   PO427060  43.905  32.605   9.531
 1995POPC   GL127061  43.861  32.865   9.183
 1995POPC   GL227062  43.592  33.060   9.286
 1995POPC   C1A27063  43.944  32.971   8.754
 1995POPC   D2A27064  44.196  33.034   8.378
 1995POPC   C3A27065  43.996  33.075   8.032
 1995POPC   C4A27066  43.936  32.895   7.635
 1995POPC   C1B27067  43.495  33.283   8.899
 1995POPC   C2B27068  43.709  33.477   8.544
 1995POPC   C3B27069  43.563  33.432   8.124
 1995POPC   C4B27070  43.622  33.285   7.726
 1996POPC   NC327071  39.724  28.486   9.405
 1996POPC   PO427072  39.967  27.933   9.446
 1996POPC   GL127073  40.086  28.226   9.126
 1996POPC   GL227074  40.221  28.564   9.110
 1996POPC   C1A27075  39.871  28.368   8.758
 1996POPC   D2A27076  39.864  28.024   8.501
 1996POPC   C3A27077  39.892  28.059   8.066
 1996POPC   C4A27078  39.934  28.436   7.832
 1996POPC   C1B27079  40.387  28.336   8.716
 1996POPC   C2B27080  40.244  28.364   8.260
 1996POPC   C3B27081  40.372  28.194   7.835
 1996POPC   C4B27082  40.482  28.119   7.343
 1997POPC   NC327083  34.005  13.902   9.391
 1997POPC   PO427084  33.759  14.533   9.398
 1997POPC   GL127085  33.854  14.433   9.020
 1997POPC   GL227086  34.177  14.318   9.110
 1997POPC   C1A27087  33.887  14.646   8.627
 1997POPC   D2A27088  34.086  14.530   8.263
 1997POPC   C3A27089  33.831  14.456   7.971
 1997POPC   C4A27090  33.497  14.550   7.775
 1997POPC   C1B27091  34.069  14.083   8.726
 1997POPC   C2B27092  34.042  13.961   8.290
 1997POPC   C3B27093  34.183  14.099   7.887
 1997POPC   C4B27094  34.201  14.065   7.410
 1998POPC   NC327095  34.874  37.526   9.681
 1998POPC   PO427096  34.383  37.855   9.374
 1998POPC   GL127097  34.656  37.579   9.171
 1998POPC   GL227098  35.014  37.579   9.093
 1998POPC   C1A27099  34.664  37.816   8.762
 1998POPC   D2A27100  34.385  37.975   8.442
 1998POPC   C3A27101  34.460  37.780   8.026
 1998POPC   C4A27102  34.133  37.561   7.789
 1998POPC   C1B27103  34.948  37.416   8.646
 1998POPC   C2B27104  34.935  37.322   8.223
 1998POPC   C3B27105  34.839  37.338   7.788
 1998POPC   C4B27106  34.690  37.238   7.383
 1999POPC   NC327107  12.223  34.726   9.530
 1999POPC   PO427108  11.751  34.379   9.249
 1999POPC   GL127109  12.069  34.693   9.053
 1999POPC   GL227110  12.447  34.709   9.074
 1999POPC   C1A27111  12.139  34.780   8.640
 1999POPC   D2A27112  11.814  34.638   8.354
 1999POPC   C3A27113  11.915  34.400   7.975
 1999POPC   C4A27114  12.065  34.599   7.601
 1999POPC   C1B27115  12.391  34.352   8.812
 1999POPC   C2B27116  12.213  34.314   8.402
 1999POPC   C3B27117  12.435  34.412   8.026
 1999POPC   C4B27118  12.476  34.292   7.609
 2000POPC   NC327119  11.822  21.126   9.498
 2000POPC   PO427120  12.313  21.576   9.485
 2000POPC   GL127121  12.105  21.392   9.139
 2000POPC   GL227122  11.799  21.547   9.166
 2000POPC   C1A27123  11.976  21.267   8.723
 2000POPC   D2A27124  12.144  21.152   8.329
 2000POPC   C3A27125  11.874  21.237   8.010
 2000POPC   C4A27126  11.957  21.362   7.589
 2000POPC   C1B27127  11.762  21.728   8.749
 2000POPC   C2B27128  11.981  21.655   8.348
 2000POPC   C3B27129  11.829  21.748   7.938
 2000POPC   C4B27130  11.855  21.831   7.496
 2001POPC   NC327131  41.919   7.727   9.431
 2001POPC   PO427132  41.231   7.681   9.408
 2001POPC   GL127133  41.544   7.379   9.161
 2001POPC   GL227134  41.898   7.353   9.054
 2001POPC   C1A27135  41.559   7.228   8.716
 2001POPC   D2A27136  41.557   7.503   8.352
 2001POPC   C3A27137  41.468   7.315   7.968
 2001POPC   C4A27138  41.610   6.988   7.725
 2001POPC   C1B27139  41.774   7.712   8.781
 2001POPC   C2B27140  41.851   7.930   8.361
 2001POPC   C3B27141  41.784   7.746   7.939
 2001POPC   C4B27142  41.660   7.536   7.542
 2002POPC   NC327143  16.202  19.522   9.359
 2002POPC   PO427144  15.572  19.597   9.285
 2002POPC   GL127145  15.898  19.715   8.983
 2002POPC   GL227146  16.117  19.974   9.118
 2002POPC   C1A27147  15.936  19.753   8.536
 2002POPC   D2A27148  15.863  19.459   8.172
 2002POPC   C3A27149  15.612  19.677   7.872
 2002POPC   C4A27150  15.766  20.097   7.857
 2002POPC   C1B27151  16.386  19.934   8.754
 2002POPC   C2B27152  16.328  20.138   8.331
 2002POPC   C3B27153  16.293  20.090   7.904
 2002POPC   C4B27154  16.109  19.723   7.762
 2003POPC   NC327155   3.715   6.567   9.483
 2003POPC   PO427156   3.796   7.261   9.497
 2003POPC   GL127157   3.491   7.127   9.147
 2003POPC   GL227158   3.461   6.740   9.083
 2003POPC   C1A27159   3.499   7.027   8.673
 2003POPC   D2A27160   3.646   6.705   8.442
 2003POPC   C3A27161   3.569   6.646   8.023
 2003POPC   C4A27162   3.831   6.703   7.683
 2003POPC   C1B27163   3.321   6.435   8.770
 2003POPC   C2B27164   3.224   6.414   8.331
 2003POPC   C3B27165   3.164   6.286   7.911
 2003POPC   C4B27166   3.138   6.189   7.474
 2004POPC   NC327167   9.972  15.727   9.273
 2004POPC   PO427168   9.431  15.442   9.373
 2004POPC   GL127169   9.549  15.794   9.014
 2004POPC   GL227170   9.859  16.054   8.908
 2004POPC   C1A27171   9.616  15.762   8.578
 2004POPC   D2A27172   9.435  15.510   8.312
 2004POPC   C3A27173   9.368  15.772   7.976
 2004POPC   C4A27174   9.495  15.897   7.533
 2004POPC   C1B27175  10.130  15.760   8.637
 2004POPC   C2B27176  10.023  15.720   8.200
 2004POPC   C3B27177   9.818  15.993   7.909
 2004POPC   C4B27178   9.986  16.079   7.499
 2005POPC   NC327179   9.310  31.803   9.491
 2005POPC   PO427180   8.846  31.359   9.717
 2005POPC   GL127181   8.902  31.325   9.230
 2005POPC   GL227182   9.259  31.188   9.208
 2005POPC   C1A27183   8.813  31.383   8.782
 2005POPC   D2A27184   8.565  31.638   8.486
 2005POPC   C3A27185   8.699  31.697   8.035
 2005POPC   C4A27186   8.612  31.366   7.769
 2005POPC   C1B27187   9.352  31.361   8.789
 2005POPC   C2B27188   9.159  31.480   8.397
 2005POPC   C3B27189   9.183  31.559   7.960
 2005POPC   C4B27190   9.192  31.232   7.641
 2006POPC   NC327191  14.883  12.386   9.453
 2006POPC   PO427192  15.411  11.932   9.600
 2006POPC   GL127193  15.206  11.971   9.251
 2006POPC   GL227194  15.540  11.912   9.089
 2006POPC   C1A27195  15.158  12.172   8.875
 2006POPC   D2A27196  14.991  12.129   8.481
 2006POPC   C3A27197  15.101  12.325   8.098
 2006POPC   C4A27198  15.244  12.049   7.782
 2006POPC   C1B27199  15.394  11.745   8.671
 2006POPC   C2B27200  15.383  11.863   8.252
 2006POPC   C3B27201  15.540  11.664   7.889
 2006POPC   C4B27202  15.402  11.644   7.457
 2007POPC   NC327203  40.540  35.736   9.460
 2007POPC   PO427204  40.787  36.440   9.389
 2007POPC   GL127205  40.767  36.055   9.128
 2007POPC   GL227206  40.397  36.025   9.076
 2007POPC   C1A27207  40.855  35.944   8.681
 2007POPC   D2A27208  40.946  36.121   8.251
 2007POPC   C3A27209  41.019  35.901   7.833
 2007POPC   C4A27210  41.015  35.896   7.348
 2007POPC   C1B27211  40.491  36.327   8.774
 2007POPC   C2B27212  40.389  36.239   8.382
 2007POPC   C3B27213  40.507  36.208   7.997
 2007POPC   C4B27214  40.664  36.195   7.618
 2008POPC   NC327215  37.493  39.894   9.531
 2008POPC   PO427216  38.243  39.896   9.502
 2008POPC   GL127217  37.918  39.750   9.244
 2008POPC   GL227218  37.797  40.071   9.125
 2008POPC   C1A27219  37.717  39.675   8.855
 2008POPC   D2A27220  37.861  39.886   8.490
 2008POPC   C3A27221  37.632  39.837   8.101
 2008POPC   C4A27222  37.921  39.894   7.787
 2008POPC   C1B27223  37.531  40.188   8.766
 2008POPC   C2B27224  37.625  40.318   8.335
 2008POPC   C3B27225  37.442  40.271   7.941
 2008POPC   C4B27226  37.321  39.986   7.639
 2009POPC   NC327227   2.058  12.301   9.445
 2009POPC   PO427228   1.844  13.009   9.353
 2009POPC   GL127229   1.874  12.662   9.098
 2009POPC   GL227230   2.194  12.675   9.104
 2009POPC   C1A27231   1.873  12.756   8.674
 2009POPC   D2A27232   1.873  12.997   8.324
 2009POPC   C3A27233   1.737  12.775   8.038
 2009POPC   C4A27234   1.774  13.018   7.746
 2009POPC   C1B27235   2.339  12.944   8.759
 2009POPC   C2B27236   2.315  12.737   8.377
 2009POPC   C3B27237   2.235  12.866   7.981
 2009POPC   C4B27238   2.374  12.827   7.607
 2010POPC   NC327239   2.841  27.011   9.507
 2010POPC   PO427240   2.597  26.390   9.670
 2010POPC   GL127241   2.690  26.564   9.233
 2010POPC   GL227242   2.562  26.869   9.078
 2010POPC   C1A27243   2.895  26.560   8.785
 2010POPC   D2A27244   2.894  26.588   8.328
 2010POPC   C3A27245   2.558  26.747   8.064
 2010POPC   C4A27246   2.619  26.627   7.641
 2010POPC   C1B27247   2.944  27.052   8.832
 2010POPC   C2B27248   2.893  27.170   8.385
 2010POPC   C3B27249   3.167  27.200   8.021
 2010POPC   C4B27250   2.943  26.975   7.769
 2011POPC   NC327251  17.192  40.453   9.552
 2011POPC   PO427252  17.439  39.822   9.550
 2011POPC   GL127253  17.597  39.860   9.170
 2011POPC   GL227254  17.620  40.221   9.130
 2011POPC   C1A27255  17.496  39.890   8.759
 2011POPC   D2A27256  17.603  39.753   8.382
 2011POPC   C3A27257  17.403  39.911   8.053
 2011POPC   C4A27258  17.124  39.758   7.771
 2011POPC   C1B27259  17.593  40.411   8.693
 2011POPC   C2B27260  17.662  40.352   8.217
 2011POPC   C3B27261  17.633  40.239   7.752
 2011POPC   C4B27262  17.812  40.288   7.319
 2012POPC   NC327263   9.966   5.718   9.604
 2012POPC   PO427264   9.666   6.301   9.547
 2012POPC   GL127265   9.652   6.045   9.150
 2012POPC   GL227266   9.833   5.756   9.126
 2012POPC   C1A27267   9.456   5.853   8.766
 2012POPC   D2A27268   9.301   5.970   8.358
 2012POPC   C3A27269   9.637   6.175   8.145
 2012POPC   C4A27270   9.744   6.259   7.732
 2012POPC   C1B27271   9.953   5.859   8.702
 2012POPC   C2B27272   9.713   5.675   8.324
 2012POPC   C3B27273   9.810   5.737   7.907
 2012POPC   C4B27274  10.120   6.027   7.958
 2013POPC   NC327275  29.900  27.583   9.762
 2013POPC   PO427276  29.790  27.910   9.194
 2013POPC   GL127277  29.715  27.533   8.988
 2013POPC   GL227278  29.860  27.210   9.038
 2013POPC   C1A27279  29.861  27.474   8.585
 2013POPC   D2A27280  29.660  27.780   8.351
 2013POPC   C3A27281  29.912  27.941   8.051
 2013POPC   C4A27282  30.052  27.864   7.640
 2013POPC   C1B27283  30.253  27.178   8.785
 2013POPC   C2B27284  30.340  27.336   8.360
 2013POPC   C3B27285  30.177  27.455   7.952
 2013POPC   C4B27286  30.253  27.432   7.491
 2014POPC   NC327287   3.214  31.033   9.620
 2014POPC   PO427288   3.541  30.441   9.381
 2014POPC   GL127289   3.766  30.496   9.053
 2014POPC   GL227290   3.734  30.861   9.097
 2014POPC   C1A27291   3.598  30.549   8.680
 2014POPC   D2A27292   3.670  30.815   8.371
 2014POPC   C3A27293   3.597  30.602   7.996
 2014POPC   C4A27294   3.441  30.790   7.636
 2014POPC   C1B27295   3.857  31.130   8.775
 2014POPC   C2B27296   4.091  31.104   8.383
 2014POPC   C3B27297   3.858  31.149   8.013
 2014POPC   C4B27298   3.816  31.119   7.578
 2015POPC   NC327299   4.193   4.946   9.537
 2015POPC   PO427300   3.737   5.387   9.667
 2015POPC   GL127301   4.101   5.303   9.227
 2015POPC   GL227302   4.174   4.971   9.030
 2015POPC   C1A27303   4.188   5.414   8.790
 2015POPC   D2A27304   3.960   5.512   8.437
 2015POPC   C3A27305   4.126   5.267   8.125
 2015POPC   C4A27306   4.147   5.343   7.721
 2015POPC   C1B27307   4.497   5.018   8.652
 2015POPC   C2B27308   4.573   5.015   8.178
 2015POPC   C3B27309   4.495   4.953   7.701
 2015POPC   C4B27310   4.500   4.782   7.233
 2016POPC   NC327311  12.050   6.752   9.506
 2016POPC   PO427312  11.666   6.117   9.452
 2016POPC   GL127313  11.977   6.353   9.160
 2016POPC   GL227314  11.899   6.733   9.028
 2016POPC   C1A27315  12.207   6.339   8.770
 2016POPC   D2A27316  12.210   6.248   8.332
 2016POPC   C3A27317  11.949   6.495   8.094
 2016POPC   C4A27318  12.113   6.614   7.714
 2016POPC   C1B27319  12.056   6.835   8.602
 2016POPC   C2B27320  12.302   6.894   8.215
 2016POPC   C3B27321  12.342   7.062   7.767
 2016POPC   C4B27322  12.361   6.903   7.350
 2017POPC   NC327323   4.249  21.544   9.613
 2017POPC   PO427324   3.851  21.000   9.768
 2017POPC   GL127325   4.093  21.106   9.310
 2017POPC   GL227326   4.465  21.286   9.243
 2017POPC   C1A27327   4.186  21.224   8.833
 2017POPC   D2A27328   4.516  21.138   8.496
 2017POPC   C3A27329   4.469  21.287   8.066
 2017POPC   C4A27330   4.145  21.298   7.733
 2017POPC   C1B27331   4.625  21.502   8.858
 2017POPC   C2B27332   4.340  21.633   8.495
 2017POPC   C3B27333   4.183  21.702   8.066
 2017POPC   C4B27334   4.461  21.729   7.728
 2018POPC   NC327335  20.477  20.962   9.615
 2018POPC   PO427336  20.865  21.587   9.442
 2018POPC   GL127337  20.654  21.478   9.083
 2018POPC   GL227338  20.607  21.166   9.123
 2018POPC   C1A27339  20.430  21.429   8.714
 2018POPC   D2A27340  20.439  21.257   8.357
 2018POPC   C3A27341  20.523  21.470   8.006
 2018POPC   C4A27342  20.306  21.258   7.717
 2018POPC   C1B27343  20.882  21.194   8.733
 2018POPC   C2B27344  20.960  21.300   8.301
 2018POPC   C3B27345  20.934  21.157   7.882
 2018POPC   C4B27346  20.779  21.326   7.513
 2019POPC   NC327347  42.745  41.722   9.424
 2019POPC   PO427348  42.023  41.577   9.383
 2019POPC   GL127349  42.183  41.463   9.012
 2019POPC   GL227350  42.566  41.452   9.009
 2019POPC   C1A27351  42.233  41.696   8.635
 2019POPC   D2A27352  42.329  41.915   8.240
 2019POPC   C3A27353  42.141  41.638   7.952
 2019POPC   C4A27354  42.189  41.339   7.645
 2019POPC   C1B27355  42.822  41.261   8.650
 2019POPC   C2B27356  42.823  41.299   8.172
 2019POPC   C3B27357  42.643  41.579   7.865
 2019POPC   C4B27358  42.887  41.808   7.561
 2020POPC   NC327359  37.384   3.922   9.461
 2020POPC   PO427360  37.661   3.367   9.510
 2020POPC   GL127361  37.711   3.433   9.104
 2020POPC   GL227362  37.774   3.782   9.120
 2020POPC   C1A27363  37.460   3.573   8.758
 2020POPC   D2A27364  37.643   3.605   8.372
 2020POPC   C3A27365  37.455   3.509   7.976
 2020POPC   C4A27366  37.400   3.794   7.666
 2020POPC   C1B27367  38.002   3.696   8.740
 2020POPC   C2B27368  38.153   3.631   8.312
 2020POPC   C3B27369  38.061   3.428   7.926
 2020POPC   C4B27370  38.006   3.666   7.560
 2021POPC   NC327371  22.199  42.998   9.458
 2021POPC   PO427372  21.867  43.558   9.334
 2021POPC   GL127373  22.024  43.237   9.010
 2021POPC   GL227374  22.377  43.170   8.994
 2021POPC   C1A27375  22.021  43.139   8.559
 2021POPC   D2A27376  22.097  42.887   8.182
 2021POPC   C3A27377  21.823  42.930   7.800
 2021POPC   C4A27378  21.726  43.368   7.618
 2021POPC   C1B27379  22.529  43.129   8.555
 2021POPC   C2B27380  22.349  43.340   8.188
 2021POPC   C3B27381  22.215  43.239   7.773
 2021POPC   C4B27382  22.429  43.108   7.392
 2022POPC   NC327383  29.627   1.344   9.506
 2022POPC   PO427384  30.340   1.370   9.570
 2022POPC   GL127385  30.043   1.327   9.206
 2022POPC   GL227386  29.910   0.970   9.173
 2022POPC   C1A27387  29.898   1.273   8.785
 2022POPC   D2A27388  30.098   1.057   8.462
 2022POPC   C3A27389  30.028   1.197   8.060
 2022POPC   C4A27390  30.111   1.129   7.630
 2022POPC   C1B27391  29.748   0.769   8.749
 2022POPC   C2B27392  29.622   0.796   8.297
 2022POPC   C3B27393  29.807   0.801   7.865
 2022POPC   C4B27394  29.665   1.076   7.446
 2023POPC   NC327395  12.696  44.182   9.461
 2023POPC   PO427396  13.307  43.820   9.420
 2023POPC   GL127397  13.006  43.870   9.156
 2023POPC   GL227398  12.748  43.680   9.289
 2023POPC   C1A27399  12.860  44.031   8.802
 2023POPC   D2A27400  12.808  43.840   8.424
 2023POPC   C3A27401  12.598  44.024   8.146
 2023POPC   C4A27402  12.795  44.142   7.804
 2023POPC   C1B27403  12.650  43.581   8.881
 2023POPC   C2B27404  12.473  43.440   8.506
 2023POPC   C3B27405  12.531  43.514   8.083
 2023POPC   C4B27406  12.774  43.600   7.736
 2024POPC   NC327407  20.724   6.519   9.579
 2024POPC   PO427408  20.353   7.019   9.469
 2024POPC   GL127409  20.540   6.613   9.126
 2024POPC   GL227410  20.818   6.300   9.134
 2024POPC   C1A27411  20.539   6.410   8.688
 2024POPC   D2A27412  20.409   6.649   8.315
 2024POPC   C3A27413  20.626   6.775   7.910
 2024POPC   C4A27414  20.537   6.736   7.404
 2024POPC   C1B27415  20.991   6.583   8.849
 2024POPC   C2B27416  21.073   6.505   8.429
 2024POPC   C3B27417  20.778   6.314   8.144
 2024POPC   C4B27418  20.832   6.366   7.715
 2025POPC   NC327419  40.610  42.875   9.427
 2025POPC   PO427420  41.182  43.296   9.469
 2025POPC   GL127421  40.987  43.068   9.141
 2025POPC   GL227422  41.193  43.174   8.868
 2025POPC   C1A27423  40.676  43.025   8.792
 2025POPC   D2A27424  40.907  43.075   8.438
 2025POPC   C3A27425  40.715  42.985   8.088
 2025POPC   C4A27426  40.872  43.136   7.721
 2025POPC   C1B27427  41.109  42.715   8.763
 2025POPC   C2B27428  41.036  42.600   8.321
 2025POPC   C3B27429  41.241  42.858   7.987
 2025POPC   C4B27430  41.223  42.821   7.514
 2026POPC   NC327431  11.367  11.383   9.430
 2026POPC   PO427432  10.953  10.938   9.755
 2026POPC   GL127433  11.227  10.841   9.200
 2026POPC   GL227434  11.492  11.116   9.021
 2026POPC   C1A27435  11.123  11.037   8.711
 2026POPC   D2A27436  11.335  11.343   8.399
 2026POPC   C3A27437  11.485  11.262   7.997
 2026POPC   C4A27438  11.613  11.187   7.591
 2026POPC   C1B27439  11.206  11.527   8.838
 2026POPC   C2B27440  10.891  11.639   8.493
 2026POPC   C3B27441  11.030  11.569   8.044
 2026POPC   C4B27442  11.112  11.335   7.654
 2027POPC   NC327443  44.120  38.696   9.589
 2027POPC   PO427444  43.436  38.840   9.582
 2027POPC   GL127445  43.652  38.563   9.197
 2027POPC   GL227446  44.002  38.425   9.145
 2027POPC   C1A27447  43.706  38.690   8.743
 2027POPC   D2A27448  43.657  38.529   8.326
 2027POPC   C3A27449  43.945  38.675   7.999
 2027POPC   C4A27450  43.627  38.903   7.813
 2027POPC   C1B27451  43.811  38.208   8.759
 2027POPC   C2B27452  43.967  38.126   8.336
 2027POPC   C3B27453  43.984  38.148   7.880
 2027POPC   C4B27454  43.761  38.130   7.505
 2028POPC   NC327455  25.652  35.110   9.524
 2028POPC   PO427456  25.908  35.726   9.466
 2028POPC   GL127457  25.854  35.416   9.165
 2028POPC   GL227458  26.126  35.194   9.223
 2028POPC   C1A27459  25.677  35.208   8.801
 2028POPC   D2A27460  25.847  35.232   8.412
 2028POPC   C3A27461  25.839  35.423   8.011
 2028POPC   C4A27462  25.996  35.435   7.612
 2028POPC   C1B27463  26.197  35.278   8.790
 2028POPC   C2B27464  26.346  35.221   8.377
 2028POPC   C3B27465  26.352  35.347   7.977
 2028POPC   C4B27466  26.461  35.220   7.591
 2029POPC   NC327467  21.633  33.037   9.710
 2029POPC   PO427468  22.234  32.939   9.474
 2029POPC   GL127469  22.080  32.931   9.117
 2029POPC   GL227470  21.852  32.653   9.145
 2029POPC   C1A27471  22.238  33.038   8.725
 2029POPC   D2A27472  22.196  33.339   8.413
 2029POPC   C3A27473  22.255  33.069   8.049
 2029POPC   C4A27474  22.117  33.184   7.643
 2029POPC   C1B27475  21.734  32.899   8.755
 2029POPC   C2B27476  21.858  32.949   8.342
 2029POPC   C3B27477  21.795  32.869   7.903
 2029POPC   C4B27478  21.813  32.554   7.594
 2030POPC   NC327479   0.902   7.762   9.486
 2030POPC   PO427480   1.558   7.754   9.532
 2030POPC   GL127481   1.397   7.597   9.131
 2030POPC   GL227482   1.052   7.461   9.105
 2030POPC   C1A27483   1.309   7.648   8.686
 2030POPC   D2A27484   1.065   7.589   8.308
 2030POPC   C3A27485   1.338   7.533   7.992
 2030POPC   C4A27486   1.413   7.857   7.765
 2030POPC   C1B27487   0.935   7.275   8.698
 2030POPC   C2B27488   0.744   7.174   8.308
 2030POPC   C3B27489   0.964   7.178   7.912
 2030POPC   C4B27490   1.140   7.354   7.501
 2031POPC   NC327491  37.610  23.325   9.487
 2031POPC   PO427492  37.974  23.931   9.521
 2031POPC   GL127493  37.692  23.923   9.146
 2031POPC   GL227494  37.565  23.580   9.056
 2031POPC   C1A27495  37.632  23.963   8.695
 2031POPC   D2A27496  37.612  23.772   8.300
 2031POPC   C3A27497  37.841  23.939   7.960
 2031POPC   C4A27498  37.954  23.607   7.711
 2031POPC   C1B27499  37.262  23.612   8.731
 2031POPC   C2B27500  37.108  23.779   8.401
 2031POPC   C3B27501  37.192  23.613   8.019
 2031POPC   C4B27502  37.464  23.704   7.710
 2032POPC   NC327503  16.200   8.467   9.406
 2032POPC   PO427504  15.936   7.844   9.608
 2032POPC   GL127505  15.867   8.131   9.202
 2032POPC   GL227506  16.076   7.947   8.949
 2032POPC   C1A27507  15.759   8.248   8.735
 2032POPC   D2A27508  16.092   7.985   8.441
 2032POPC   C3A27509  16.106   8.128   8.019
 2032POPC   C4A27510  15.858   8.403   7.747
 2032POPC   C1B27511  16.235   8.395   8.737
 2032POPC   C2B27512  16.219   8.682   8.354
 2032POPC   C3B27513  16.298   8.589   7.913
 2032POPC   C4B27514  16.323   8.282   7.536
 2033POPC   NC327515  30.035  29.555   9.560
 2033POPC   PO427516  29.943  28.940   9.391
 2033POPC   GL127517  29.919  29.322   9.095
 2033POPC   GL227518  29.607  29.462   9.157
 2033POPC   C1A27519  30.075  29.448   8.663
 2033POPC   D2A27520  30.319  29.409   8.267
 2033POPC   C3A27521  30.203  29.027   8.006
 2033POPC   C4A27522  29.871  28.879   7.685
 2033POPC   C1B27523  29.456  29.130   8.802
 2033POPC   C2B27524  29.417  28.936   8.370
 2033POPC   C3B27525  29.504  29.118   7.963
 2033POPC   C4B27526  29.851  29.396   7.834
 2034POPC   NC327527  22.470  34.701   9.462
 2034POPC   PO427528  23.170  34.417   9.358
 2034POPC   GL127529  23.070  34.583   9.007
 2034POPC   GL227530  22.895  34.835   9.204
 2034POPC   C1A27531  22.791  34.320   8.745
 2034POPC   D2A27532  22.905  34.148   8.333
 2034POPC   C3A27533  22.859  34.433   7.988
 2034POPC   C4A27534  23.200  34.653   7.766
 2034POPC   C1B27535  22.661  34.830   8.814
 2034POPC   C2B27536  22.915  34.723   8.457
 2034POPC   C3B27537  22.957  34.929   8.100
 2034POPC   C4B27538  22.834  34.979   7.674
 2035POPC   NC327539  34.223  36.101   9.409
 2035POPC   PO427540  33.507  35.903   9.482
 2035POPC   GL127541  33.641  36.153   9.112
 2035POPC   GL227542  33.963  36.041   8.990
 2035POPC   C1A27543  33.564  36.273   8.685
 2035POPC   D2A27544  33.447  36.155   8.250
 2035POPC   C3A27545  33.815  36.202   7.970
 2035POPC   C4A27546  34.062  35.881   7.757
 2035POPC   C1B27547  34.005  36.450   8.828
 2035POPC   C2B27548  33.970  36.558   8.387
 2035POPC   C3B27549  34.165  36.618   7.978
 2035POPC   C4B27550  34.168  36.370   7.600
 2036POPC   NC327551  39.205  17.780   9.556
 2036POPC   PO427552  38.851  17.125   9.365
 2036POPC   GL127553  39.153  17.444   9.199
 2036POPC   GL227554  39.537  17.571   9.228
 2036POPC   C1A27555  39.077  17.576   8.803
 2036POPC   D2A27556  39.097  17.338   8.446
 2036POPC   C3A27557  39.199  17.500   8.056
 2036POPC   C4A27558  38.956  17.679   7.714
 2036POPC   C1B27559  39.528  17.835   8.863
 2036POPC   C2B27560  39.387  17.814   8.445
 2036POPC   C3B27561  39.361  17.993   8.055
 2036POPC   C4B27562  39.446  17.792   7.669
 2037POPC   NC327563  37.803  16.450   9.495
 2037POPC   PO427564  37.710  15.787   9.504
 2037POPC   GL127565  37.501  15.956   9.157
 2037POPC   GL227566  37.315  16.246   9.205
 2037POPC   C1A27567  37.314  15.905   8.751
 2037POPC   D2A27568  37.495  15.687   8.408
 2037POPC   C3A27569  37.625  15.925   8.052
 2037POPC   C4A27570  38.037  15.876   7.872
 2037POPC   C1B27571  37.600  16.342   8.859
 2037POPC   C2B27572  37.856  16.150   8.552
 2037POPC   C3B27573  37.972  16.309   8.158
 2037POPC   C4B27574  37.719  16.439   7.819
 2038POPC   NC327575  20.015   7.677   9.517
 2038POPC   PO427576  19.471   7.266   9.401
 2038POPC   GL127577  19.663   7.553   9.068
 2038POPC   GL227578  19.755   7.249   8.855
 2038POPC   C1A27579  19.907   7.677   8.636
 2038POPC   D2A27580  19.918   7.512   8.229
 2038POPC   C3A27581  19.716   7.592   7.846
 2038POPC   C4A27582  19.878   7.566   7.395
 2038POPC   C1B27583  19.407   6.973   8.722
 2038POPC   C2B27584  19.418   6.848   8.286
 2038POPC   C3B27585  19.715   7.066   8.000
 2038POPC   C4B27586  19.702   7.137   7.587
 2039POPC   NC327587  10.831   5.498   9.153
 2039POPC   PO427588  10.485   5.058   9.540
 2039POPC   GL127589  10.472   5.076   9.087
 2039POPC   GL227590  10.108   5.089   9.018
 2039POPC   C1A27591  10.712   5.099   8.694
 2039POPC   D2A27592  10.983   5.121   8.360
 2039POPC   C3A27593  10.800   4.984   7.977
 2039POPC   C4A27594  10.684   5.311   7.726
 2039POPC   C1B27595  10.251   4.891   8.643
 2039POPC   C2B27596  10.409   5.134   8.269
 2039POPC   C3B27597  10.286   5.034   7.845
 2039POPC   C4B27598  10.109   4.683   7.652
 2040POPC   NC327599  39.870  35.506   9.440
 2040POPC   PO427600  40.477  35.206   9.442
 2040POPC   GL127601  40.240  35.425   9.116
 2040POPC   GL227602  40.344  35.148   8.905
 2040POPC   C1A27603  39.962  35.439   8.725
 2040POPC   D2A27604  39.987  35.213   8.313
 2040POPC   C3A27605  40.079  35.448   7.918
 2040POPC   C4A27606  40.033  35.709   7.510
 2040POPC   C1B27607  39.958  34.910   8.759
 2040POPC   C2B27608  39.656  34.813   8.383
 2040POPC   C3B27609  39.723  34.887   7.939
 2040POPC   C4B27610  40.011  35.036   7.617
 2041POPC   NC327611  35.322  24.838   9.375
 2041POPC   PO427612  35.206  25.518   9.414
 2041POPC   GL127613  35.303  25.313   9.074
 2041POPC   GL227614  35.617  25.202   9.167
 2041POPC   C1A27615  35.141  25.211   8.645
 2041POPC   D2A27616  35.187  24.966   8.269
 2041POPC   C3A27617  35.161  25.189   7.893
 2041POPC   C4A27618  35.438  25.085   7.497
 2041POPC   C1B27619  35.660  25.363   8.735
 2041POPC   C2B27620  35.512  25.368   8.334
 2041POPC   C3B27621  35.643  25.307   7.945
 2041POPC   C4B27622  35.432  25.567   7.675
 2042POPC   NC327623  11.796  26.582   9.556
 2042POPC   PO427624  11.519  27.182   9.260
 2042POPC   GL127625  11.792  26.857   9.114
 2042POPC   GL227626  12.152  26.801   9.196
 2042POPC   C1A27627  11.908  26.844   8.703
 2042POPC   D2A27628  11.849  26.647   8.318
 2042POPC   C3A27629  11.965  26.944   8.014
 2042POPC   C4A27630  12.033  26.900   7.596
 2042POPC   C1B27631  12.377  26.713   8.787
 2042POPC   C2B27632  12.336  26.858   8.359
 2042POPC   C3B27633  12.480  26.850   7.935
 2042POPC   C4B27634  12.442  26.616   7.550
 2043POPC   NC327635   8.861  16.061   9.511
 2043POPC   PO427636   8.576  15.449   9.403
 2043POPC   GL127637   8.824  15.677   9.057
 2043POPC   GL227638   9.068  15.963   9.066
 2043POPC   C1A27639   9.028  15.713   8.634
 2043POPC   D2A27640   8.946  16.007   8.298
 2043POPC   C3A27641   8.870  15.793   7.923
 2043POPC   C4A27642   9.043  15.693   7.526
 2043POPC   C1B27643   9.286  16.155   8.695
 2043POPC   C2B27644   9.403  16.232   8.225
 2043POPC   C3B27645   9.200  16.212   7.798
 2043POPC   C4B27646   9.201  16.227   7.293
 2044POPC   NC327647  43.185  41.607   9.927
 2044POPC   PO427648  42.721  41.248   9.509
 2044POPC   GL127649  43.059  41.346   9.187
 2044POPC   GL227650  43.247  41.676   9.176
 2044POPC   C1A27651  43.316  41.292   8.815
 2044POPC   D2A27652  43.259  41.472   8.423
 2044POPC   C3A27653  43.334  41.271   8.018
 2044POPC   C4A27654  43.130  41.338   7.651
 2044POPC   C1B27655  42.985  41.731   8.811
 2044POPC   C2B27656  42.815  41.766   8.396
 2044POPC   C3B27657  43.096  41.747   8.027
 2044POPC   C4B27658  43.423  41.863   7.755
 2045POPC   NC327659   0.855  11.797   9.437
 2045POPC   PO427660   1.489  12.226   9.485
 2045POPC   GL127661   1.202  12.098   9.183
 2045POPC   GL227662   1.236  11.786   9.031
 2045POPC   C1A27663   1.003  12.182   8.805
 2045POPC   D2A27664   1.165  12.322   8.428
 2045POPC   C3A27665   0.965  12.229   8.040
 2045POPC   C4A27666   1.044  12.358   7.622
 2045POPC   C1B27667   1.415  11.904   8.631
 2045POPC   C2B27668   1.312  11.847   8.183
 2045POPC   C3B27669   1.311  11.870   7.734
 2045POPC   C4B27670   1.578  11.774   7.328
 2046POPC   NC327671  44.073  17.098   9.450
 2046POPC   PO427672  43.954  17.720   9.528
 2046POPC   GL127673  43.857  17.444   9.166
 2046POPC   GL227674  44.003  17.644   8.950
 2046POPC   C1A27675  43.981  17.212   8.753
 2046POPC   D2A27676  43.932  17.519   8.411
 2046POPC   C3A27677  43.998  17.395   8.016
 2046POPC   C4A27678  44.017  17.437   7.598
 2046POPC   C1B27679  44.072  17.952   8.661
 2046POPC   C2B27680  44.329  17.948   8.305
 2046POPC   C3B27681  44.199  17.902   7.930
 2046POPC   C4B27682  44.262  17.870   7.503
 2047POPC   NC327683  39.489  39.577   9.802
 2047POPC   PO427684  38.987  39.229   9.466
 2047POPC   GL127685  39.051  39.224   9.058
 2047POPC   GL227686  39.391  39.145   9.098
 2047POPC   C1A27687  39.205  39.439   8.701
 2047POPC   D2A27688  39.421  39.372   8.309
 2047POPC   C3A27689  39.111  39.351   7.983
 2047POPC   C4A27690  38.794  39.442   7.676
 2047POPC   C1B27691  39.468  38.986   8.685
 2047POPC   C2B27692  39.530  38.843   8.259
 2047POPC   C3B27693  39.463  38.971   7.833
 2047POPC   C4B27694  39.588  38.838   7.389
 2048POPC   NC327695  30.290  34.591   9.439
 2048POPC   PO427696  30.990  34.921   9.519
 2048POPC   GL127697  30.737  34.692   9.203
 2048POPC   GL227698  30.791  34.331   9.119
 2048POPC   C1A27699  30.559  34.749   8.786
 2048POPC   D2A27700  30.703  34.686   8.376
 2048POPC   C3A27701  30.518  34.472   8.018
 2048POPC   C4A27702  30.595  34.783   7.714
 2048POPC   C1B27703  31.038  34.581   8.810
 2048POPC   C2B27704  31.226  34.547   8.417
 2048POPC   C3B27705  31.073  34.563   7.994
 2048POPC   C4B27706  30.917  34.291   7.691
 2049POPC   NC327707  28.718  29.993   9.572
 2049POPC   PO427708  28.090  29.833   9.489
 2049POPC   GL127709  28.290  29.758   9.127
 2049POPC   GL227710  28.587  29.660   9.206
 2049POPC   C1A27711  28.458  29.900   8.745
 2049POPC   D2A27712  28.506  30.016   8.318
 2049POPC   C3A27713  28.235  29.780   8.084
 2049POPC   C4A27714  28.191  29.961   7.698
 2049POPC   C1B27715  28.676  29.465   8.833
 2049POPC   C2B27716  28.523  29.500   8.429
 2049POPC   C3B27717  28.738  29.563   8.057
 2049POPC   C4B27718  28.495  29.550   7.693
 2050POPC   NC327719   5.238   8.456  10.064
 2050POPC   PO427720   5.410   8.321   9.454
 2050POPC   GL127721   5.197   8.237   9.055
 2050POPC   GL227722   4.817   8.278   9.108
 2050POPC   C1A27723   5.040   7.931   8.768
 2050POPC   D2A27724   5.196   8.046   8.371
 2050POPC   C3A27725   5.010   8.036   7.965
 2050POPC   C4A27726   5.269   7.786   7.720
 2050POPC   C1B27727   4.928   8.413   8.676
 2050POPC   C2B27728   4.912   8.472   8.253
 2050POPC   C3B27729   5.026   8.535   7.830
 2050POPC   C4B27730   4.900   8.282   7.484
 2051POPC   NC327731  35.543   5.539   9.531
 2051POPC   PO427732  34.969   5.953   9.597
 2051POPC   GL127733  35.189   5.750   9.217
 2051POPC   GL227734  35.158   5.987   8.931
 2051POPC   C1A27735  35.363   5.506   8.861
 2051POPC   D2A27736  35.151   5.695   8.498
 2051POPC   C3A27737  35.263   5.839   8.100
 2051POPC   C4A27738  35.030   5.997   7.721
 2051POPC   C1B27739  35.572   5.954   8.754
 2051POPC   C2B27740  35.689   5.702   8.432
 2051POPC   C3B27741  35.777   5.950   8.085
 2051POPC   C4B27742  35.533   6.080   7.728
 2052POPC   NC327743  24.324  41.354   9.878
 2052POPC   PO427744  24.698  41.783   9.485
 2052POPC   GL127745  24.477  41.614   9.152
 2052POPC   GL227746  24.345  41.295   9.289
 2052POPC   C1A27747  24.641  41.627   8.732
 2052POPC   D2A27748  24.943  41.681   8.371
 2052POPC   C3A27749  24.668  41.642   8.019
 2052POPC   C4A27750  24.641  41.328   7.706
 2052POPC   C1B27751  24.313  41.224   8.836
 2052POPC   C2B27752  24.384  41.318   8.380
 2052POPC   C3B27753  24.270  41.118   7.968
 2052POPC   C4B27754  24.222  41.168   7.467
 2053POPC   NC327755  20.620  24.495   9.577
 2053POPC   PO427756  21.152  24.851   9.373
 2053POPC   GL127757  20.871  24.556   9.117
 2053POPC   GL227758  20.579  24.277   9.131
 2053POPC   C1A27759  20.927  24.365   8.724
 2053POPC   D2A27760  21.043  24.053   8.392
 2053POPC   C3A27761  20.911  24.248   8.010
 2053POPC   C4A27762  20.792  24.686   7.997
 2053POPC   C1B27763  20.379  24.376   8.760
 2053POPC   C2B27764  20.552  24.399   8.367
 2053POPC   C3B27765  20.395  24.206   8.022
 2053POPC   C4B27766  20.548  24.356   7.651
 2054POPC   NC327767  40.456   8.975   9.375
 2054POPC   PO427768  41.072   8.666   9.340
 2054POPC   GL127769  41.110   9.077   9.110
 2054POPC   GL227770  40.771   9.173   9.026
 2054POPC   C1A27771  41.290   9.212   8.717
 2054POPC   D2A27772  41.310   9.008   8.337
 2054POPC   C3A27773  41.213   9.165   7.977
 2054POPC   C4A27774  40.844   9.312   7.816
 2054POPC   C1B27775  40.867   8.920   8.676
 2054POPC   C2B27776  40.936   8.676   8.308
 2054POPC   C3B27777  40.904   8.775   7.876
 2054POPC   C4B27778  40.589   8.686   7.590
 2055POPC   NC327779  10.094   6.452   9.698
 2055POPC   PO427780  10.625   6.808   9.404
 2055POPC   GL127781  10.835   6.661   9.069
 2055POPC   GL227782  10.862   6.294   9.001
 2055POPC   C1A27783  10.716   6.826   8.677
 2055POPC   D2A27784  10.404   6.736   8.363
 2055POPC   C3A27785  10.592   6.741   7.990
 2055POPC   C4A27786  10.469   6.989   7.685
 2055POPC   C1B27787  10.564   6.345   8.649
 2055POPC   C2B27788  10.529   6.184   8.217
 2055POPC   C3B27789  10.495   6.291   7.765
 2055POPC   C4B27790  10.757   6.537   7.542
 2056POPC   NC327791   2.815   4.397   9.488
 2056POPC   PO427792   2.354   3.966   9.202
 2056POPC   GL127793   2.645   4.235   9.036
 2056POPC   GL227794   2.610   4.621   9.071
 2056POPC   C1A27795   2.673   4.211   8.619
 2056POPC   D2A27796   2.531   3.981   8.349
 2056POPC   C3A27797   2.727   4.163   8.026
 2056POPC   C4A27798   2.584   4.120   7.608
 2056POPC   C1B27799   2.959   4.573   8.810
 2056POPC   C2B27800   2.873   4.658   8.400
 2056POPC   C3B27801   2.955   4.713   7.990
 2056POPC   C4B27802   3.009   4.413   7.683
 2057POPC   NC327803  22.419  36.574   9.411
 2057POPC   PO427804  21.852  36.927   9.448
 2057POPC   GL127805  22.015  37.089   9.086
 2057POPC   GL227806  22.308  36.908   9.028
 2057POPC   C1A27807  21.951  36.989   8.662
 2057POPC   D2A27808  22.210  37.111   8.338
 2057POPC   C3A27809  22.082  37.003   7.920
 2057POPC   C4A27810  22.156  37.188   7.534
 2057POPC   C1B27811  22.288  36.599   8.682
 2057POPC   C2B27812  22.233  36.620   8.240
 2057POPC   C3B27813  22.461  36.554   7.874
 2057POPC   C4B27814  22.237  36.661   7.520
 2058POPC   NC327815   8.080  35.754   9.384
 2058POPC   PO427816   8.521  35.325   9.300
 2058POPC   GL127817   8.154  35.378   9.042
 2058POPC   GL227818   7.851  35.155   9.141
 2058POPC   C1A27819   8.190  35.682   8.710
 2058POPC   D2A27820   8.436  35.700   8.330
 2058POPC   C3A27821   8.267  35.607   7.934
 2058POPC   C4A27822   8.215  35.182   7.815
 2058POPC   C1B27823   7.995  35.036   8.700
 2058POPC   C2B27824   8.039  35.339   8.350
 2058POPC   C3B27825   7.785  35.460   8.020
 2058POPC   C4B27826   7.717  35.115   7.769
 2059POPC   NC327827  16.291  29.267   9.484
 2059POPC   PO427828  17.001  29.332   9.584
 2059POPC   GL127829  16.736  29.243   9.226
 2059POPC   GL227830  16.698  28.890   9.136
 2059POPC   C1A27831  16.652  29.273   8.791
 2059POPC   D2A27832  16.855  29.115   8.416
 2059POPC   C3A27833  16.755  29.270   8.062
 2059POPC   C4A27834  16.703  29.150   7.669
 2059POPC   C1B27835  17.003  28.791   8.765
 2059POPC   C2B27836  17.062  28.656   8.290
 2059POPC   C3B27837  17.050  28.625   7.829
 2059POPC   C4B27838  16.986  28.829   7.405
 2060POPC   NC327839  35.236   6.240   9.355
 2060POPC   PO427840  35.242   6.915   9.591
 2060POPC   GL127841  35.267   6.834   9.154
 2060POPC   GL227842  35.577   6.634   9.168
 2060POPC   C1A27843  35.031   6.893   8.741
 2060POPC   D2A27844  34.990   6.672   8.359
 2060POPC   C3A27845  35.284   6.858   8.102
 2060POPC   C4A27846  35.322   7.017   7.700
 2060POPC   C1B27847  35.401   6.482   8.759
 2060POPC   C2B27848  35.435   6.261   8.375
 2060POPC   C3B27849  35.233   6.358   8.021
 2060POPC   C4B27850  35.345   6.534   7.684
 2061POPC   NC327851  15.005  18.254   9.421
 2061POPC   PO427852  15.570  18.696   9.545
 2061POPC   GL127853  15.437  18.406   9.161
 2061POPC   GL227854  15.253  18.578   8.946
 2061POPC   C1A27855  15.476  18.194   8.720
 2061POPC   D2A27856  15.598  18.159   8.289
 2061POPC   C3A27857  15.342  18.179   7.898
 2061POPC   C4A27858  15.269  18.508   7.580
 2061POPC   C1B27859  15.008  18.459   8.638
 2061POPC   C2B27860  14.993  18.252   8.282
 2061POPC   C3B27861  14.837  18.048   7.939
 2061POPC   C4B27862  14.929  18.098   7.530
 2062POPC   NC327863   5.896  11.788   9.824
 2062POPC   PO427864   5.824  11.242   9.532
 2062POPC   GL127865   5.640  11.470   9.174
 2062POPC   GL227866   5.888  11.571   8.963
 2062POPC   C1A27867   5.560  11.306   8.731
 2062POPC   D2A27868   5.742  11.141   8.356
 2062POPC   C3A27869   5.804  11.404   8.020
 2062POPC   C4A27870   5.716  11.143   7.699
 2062POPC   C1B27871   6.073  11.253   8.734
 2062POPC   C2B27872   6.254  11.286   8.330
 2062POPC   C3B27873   6.148  11.002   7.986
 2062POPC   C4B27874   6.198  11.269   7.667
 2063POPC   NC327875   3.753  33.335   9.316
 2063POPC   PO427876   3.224  32.933   9.482
 2063POPC   GL127877   3.301  33.167   9.139
 2063POPC   GL227878   3.445  32.864   9.020
 2063POPC   C1A27879   3.232  33.179   8.699
 2063POPC   D2A27880   3.069  32.991   8.315
 2063POPC   C3A27881   3.268  33.193   7.987
 2063POPC   C4A27882   3.743  33.226   7.942
 2063POPC   C1B27883   3.570  32.765   8.594
 2063POPC   C2B27884   3.551  32.803   8.146
 2063POPC   C3B27885   3.382  32.725   7.736
 2063POPC   C4B27886   3.324  32.770   7.239
 2064POPC   NC327887  19.252  37.464   9.563
 2064POPC   PO427888  18.631  37.755   9.569
 2064POPC   GL127889  18.890  37.532   9.190
 2064POPC   GL227890  19.296  37.622   9.099
 2064POPC   C1A27891  18.973  37.518   8.729
 2064POPC   D2A27892  19.284  37.553   8.385
 2064POPC   C3A27893  19.072  37.489   7.995
 2064POPC   C4A27894  18.693  37.333   7.804
 2064POPC   C1B27895  19.100  37.991   8.957
 2064POPC   C2B27896  19.006  37.996   8.528
 2064POPC   C3B27897  19.179  38.002   8.138
 2064POPC   C4B27898  19.089  38.086   7.733
 2065POPC   NC327899  15.741  17.815   9.728
 2065POPC   PO427900  15.726  17.175   9.550
 2065POPC   GL127901  15.810  17.499   9.233
 2065POPC   GL227902  16.136  17.672   9.327
 2065POPC   C1A27903  15.686  17.593   8.774
 2065POPC   D2A27904  15.630  17.430   8.332
 2065POPC   C3A27905  15.640  17.734   8.009
 2065POPC   C4A27906  15.673  17.791   7.574
 2065POPC   C1B27907  16.191  17.484   8.903
 2065POPC   C2B27908  16.122  17.567   8.476
 2065POPC   C3B27909  16.104  17.493   8.057
 2065POPC   C4B27910  16.454  17.324   7.878
 2066POPC   NC327911  36.292   0.705   9.419
 2066POPC   PO427912  36.388   0.113   9.780
 2066POPC   GL127913  36.256   0.195   9.297
 2066POPC   GL227914  36.463   0.386   9.066
 2066POPC   C1A27915  36.046   0.214   8.848
 2066POPC   D2A27916  36.269   0.227   8.468
 2066POPC   C3A27917  36.142   0.186   8.023
 2066POPC   C4A27918  36.096   0.218   7.566
 2066POPC   C1B27919  36.250   0.668   8.732
 2066POPC   C2B27920  36.143   0.813   8.299
 2066POPC   C3B27921  36.171   0.680   7.900
 2066POPC   C4B27922  36.496   0.537   7.678
 2067POPC   NC327923   3.687  11.237   9.826
 2067POPC   PO427924   3.728  11.712   9.322
 2067POPC   GL127925   3.816  11.455   9.010
 2067POPC   GL227926   3.753  11.107   9.081
 2067POPC   C1A27927   3.799  11.313   8.590
 2067POPC   D2A27928   3.645  11.024   8.287
 2067POPC   C3A27929   3.443  11.247   8.009
 2067POPC   C4A27930   3.607  11.412   7.658
 2067POPC   C1B27931   3.387  11.050   8.748
 2067POPC   C2B27932   3.126  10.903   8.386
 2067POPC   C3B27933   2.992  11.021   7.961
 2067POPC   C4B27934   3.246  11.027   7.572
 2068POPC   NC327935  26.226  27.773   9.447
 2068POPC   PO427936  25.775  27.141   9.464
 2068POPC   GL127937  25.973  27.364   9.113
 2068POPC   GL227938  26.350  27.393   9.100
 2068POPC   C1A27939  26.058  27.267   8.667
 2068POPC   D2A27940  26.030  27.231   8.219
 2068POPC   C3A27941  25.945  27.577   7.919
 2068POPC   C4A27942  26.015  27.488   7.482
 2068POPC   C1B27943  26.184  27.744   8.805
 2068POPC   C2B27944  26.172  27.775   8.368
 2068POPC   C3B27945  26.434  27.652   8.026
 2068POPC   C4B27946  26.445  27.795   7.602
 2069POPC   NC327947  18.003  11.394   9.519
 2069POPC   PO427948  18.228  10.690   9.493
 2069POPC   GL127949  18.152  11.018   9.182
 2069POPC   GL227950  18.409  11.296   9.088
 2069POPC   C1A27951  18.000  11.174   8.795
 2069POPC   D2A27952  18.164  11.076   8.399
 2069POPC   C3A27953  18.039  11.198   7.981
 2069POPC   C4A27954  18.361  11.017   7.719
 2069POPC   C1B27955  18.324  11.598   8.705
 2069POPC   C2B27956  18.265  11.582   8.217
 2069POPC   C3B27957  18.314  11.572   7.705
 2069POPC   C4B27958  18.570  11.766   7.276
 2070POPC   NC327959  10.388  42.431   9.589
 2070POPC   PO427960  10.904  42.862   9.497
 2070POPC   GL127961  10.619  42.665   9.173
 2070POPC   GL227962  10.657  42.292   9.159
 2070POPC   C1A27963  10.403  42.551   8.786
 2070POPC   D2A27964  10.494  42.633   8.372
 2070POPC   C3A27965  10.202  42.460   8.092
 2070POPC   C4A27966  10.435  42.616   7.799
 2070POPC   C1B27967  10.723  42.130   8.736
 2070POPC   C2B27968  10.865  42.242   8.329
 2070POPC   C3B27969  10.698  42.188   7.921
 2070POPC   C4B27970  10.888  42.126   7.485
 2071POPC   NC327971  43.715   5.427   9.839
 2071POPC   PO427972  44.093   5.884   9.427
 2071POPC   GL127973  43.910   5.995   9.068
 2071POPC   GL227974  43.765   5.736   8.857
 2071POPC   C1A27975  43.931   6.216   8.724
 2071POPC   D2A27976  44.139   6.171   8.361
 2071POPC   C3A27977  43.861   6.026   8.035
 2071POPC   C4A27978  43.937   6.225   7.658
 2071POPC   C1B27979  43.956   5.380   8.675
 2071POPC   C2B27980  44.163   5.334   8.300
 2071POPC   C3B27981  44.131   5.338   7.858
 2071POPC   C4B27982  44.052   5.709   7.598
 2072POPC   NC327983   9.981  24.176   9.599
 2072POPC   PO427984   9.895  24.846   9.441
 2072POPC   GL127985   9.741  24.450   9.207
 2072POPC   GL227986   9.386  24.418   9.169
 2072POPC   C1A27987   9.665  24.217   8.793
 2072POPC   D2A27988   9.685  24.414   8.363
 2072POPC   C3A27989   9.920  24.311   7.987
 2072POPC   C4A27990  10.143  24.697   8.008
 2072POPC   C1B27991   9.494  24.702   8.781
 2072POPC   C2B27992   9.324  24.774   8.349
 2072POPC   C3B27993   9.509  24.670   7.953
 2072POPC   C4B27994   9.475  24.282   7.696
 2073POPC   NC327995  16.811  37.139   9.446
 2073POPC   PO427996  16.931  37.795   9.506
 2073POPC   GL127997  16.911  37.727   9.105
 2073POPC   GL227998  17.217  37.856   9.019
 2073POPC   C1A27999  16.730  37.602   8.728
 2073POPC   D2A28000  16.928  37.569   8.329
 2073POPC   C3A28001  16.747  37.701   7.960
 2073POPC   C4A28002  16.417  37.967   7.830
 2073POPC   C1B28003  17.014  38.032   8.671
 2073POPC   C2B28004  16.693  38.056   8.372
 2073POPC   C3B28005  16.799  38.243   8.003
 2073POPC   C4B28006  17.004  38.078   7.668
 2074POPC   NC328007  10.902  35.611   9.547
 2074POPC   PO428008  11.398  35.215   9.670
 2074POPC   GL128009  11.164  35.310   9.234
 2074POPC   GL228010  11.023  35.628   9.061
 2074POPC   C1A28011  11.273  35.264   8.796
 2074POPC   D2A28012  11.501  35.514   8.507
 2074POPC   C3A28013  11.511  35.336   8.101
 2074POPC   C4A28014  11.597  35.652   7.805
 2074POPC   C1B28015  10.816  35.611   8.683
 2074POPC   C2B28016  10.990  35.421   8.351
 2074POPC   C3B28017  11.059  35.512   7.955
 2074POPC   C4B28018  10.967  35.602   7.569
 2075POPC   NC328019  43.578  24.066   9.449
 2075POPC   PO428020  44.027  23.585   9.713
 2075POPC   GL128021  44.051  23.789   9.275
 2075POPC   GL228022  44.387  23.957   9.172
 2075POPC   C1A28023  43.940  23.702   8.825
 2075POPC   D2A28024  43.816  23.377   8.501
 2075POPC   C3A28025  43.654  23.455   8.052
 2075POPC   C4A28026  43.667  23.808   7.719
 2075POPC   C1B28027  44.329  24.003   8.703
 2075POPC   C2B28028  44.028  23.833   8.342
 2075POPC   C3B28029  44.122  23.624   7.957
 2075POPC   C4B28030  44.172  23.823   7.543
 2076POPC   NC328031   2.074  29.181   9.594
 2076POPC   PO428032   2.350  28.753   9.188
 2076POPC   GL128033   2.248  29.155   9.051
 2076POPC   GL228034   1.889  29.145   9.128
 2076POPC   C1A28035   2.311  29.236   8.601
 2076POPC   D2A28036   2.174  28.948   8.256
 2076POPC   C3A28037   2.327  29.017   7.838
 2076POPC   C4A28038   2.191  29.267   7.507
 2076POPC   C1B28039   1.863  29.430   8.795
 2076POPC   C2B28040   1.821  29.366   8.353
 2076POPC   C3B28041   1.895  29.348   7.903
 2076POPC   C4B28042   1.743  29.459   7.432
 2077POPC   NC328043   9.264   2.226   9.347
 2077POPC   PO428044   9.438   1.573   9.546
 2077POPC   GL128045   9.219   1.587   9.082
 2077POPC   GL228046   9.238   1.923   8.943
 2077POPC   C1A28047   8.892   1.603   8.699
 2077POPC   D2A28048   8.783   1.562   8.233
 2077POPC   C3A28049   9.143   1.646   7.895
 2077POPC   C4A28050   9.032   1.683   7.427
 2077POPC   C1B28051   8.938   2.104   8.692
 2077POPC   C2B28052   8.817   2.076   8.281
 2077POPC   C3B28053   9.096   2.143   7.933
 2077POPC   C4B28054   9.091   2.391   7.615
 2078POPC   NC328055  29.380   7.847   9.612
 2078POPC   PO428056  28.951   8.323   9.597
 2078POPC   GL128057  29.090   8.287   9.186
 2078POPC   GL228058  29.354   8.048   9.116
 2078POPC   C1A28059  29.320   8.503   8.851
 2078POPC   D2A28060  29.203   8.343   8.451
 2078POPC   C3A28061  29.245   8.485   8.023
 2078POPC   C4A28062  29.038   8.365   7.621
 2078POPC   C1B28063  29.256   7.876   8.695
 2078POPC   C2B28064  29.411   7.935   8.252
 2078POPC   C3B28065  29.347   8.020   7.819
 2078POPC   C4B28066  29.374   8.091   7.364
 2079POPC   NC328067  19.870  41.680   9.546
 2079POPC   PO428068  19.334  41.880   9.223
 2079POPC   GL128069  19.714  41.733   9.029
 2079POPC   GL228070  19.904  41.463   9.082
 2079POPC   C1A28071  20.089  41.834   8.761
 2079POPC   D2A28072  20.158  41.730   8.335
 2079POPC   C3A28073  19.827  41.756   8.057
 2079POPC   C4A28074  19.862  42.011   7.722
 2079POPC   C1B28075  19.812  41.429   8.631
 2079POPC   C2B28076  19.875  41.281   8.237
 2079POPC   C3B28077  20.064  41.340   7.865
 2079POPC   C4B28078  20.014  41.224   7.407
 2080POPC   NC328079  39.668  42.751   9.446
 2080POPC   PO428080  39.780  42.027   9.489
 2080POPC   GL128081  39.954  42.378   9.239
 2080POPC   GL228082  40.319  42.457   9.216
 2080POPC   C1A28083  39.991  42.388   8.819
 2080POPC   D2A28084  40.117  42.227   8.439
 2080POPC   C3A28085  39.842  42.110   8.109
 2080POPC   C4A28086  39.960  42.139   7.714
 2080POPC   C1B28087  40.489  42.535   8.774
 2080POPC   C2B28088  40.444  42.603   8.315
 2080POPC   C3B28089  40.059  42.557   8.067
 2080POPC   C4B28090  39.922  42.688   7.684
 2081POPC   NC328091  18.366   2.392   9.459
 2081POPC   PO428092  17.937   1.832   9.423
 2081POPC   GL128093  18.083   2.115   9.085
 2081POPC   GL228094  18.446   2.144   9.022
 2081POPC   C1A28095  18.049   2.014   8.638
 2081POPC   D2A28096  17.887   1.759   8.277
 2081POPC   C3A28097  17.927   2.049   7.926
 2081POPC   C4A28098  18.135   2.160   7.528
 2081POPC   C1B28099  18.541   1.960   8.592
 2081POPC   C2B28100  18.367   1.926   8.191
 2081POPC   C3B28101  18.378   1.785   7.777
 2081POPC   C4B28102  18.544   1.908   7.374
 2082POPC   NC328103  22.776  25.090   9.454
 2082POPC   PO428104  23.160  25.611   9.664
 2082POPC   GL128105  23.134  25.512   9.207
 2082POPC   GL228106  22.982  25.222   8.997
 2082POPC   C1A28107  23.075  25.657   8.781
 2082POPC   D2A28108  22.933  25.342   8.481
 2082POPC   C3A28109  23.091  25.400   8.085
 2082POPC   C4A28110  23.096  25.513   7.641
 2082POPC   C1B28111  23.102  24.877   8.683
 2082POPC   C2B28112  23.102  24.784   8.245
 2082POPC   C3B28113  23.041  24.968   7.842
 2082POPC   C4B28114  22.880  25.101   7.452
 2083POPC   NC328115  22.433  37.946   9.484
 2083POPC   PO428116  21.845  37.577   9.462
 2083POPC   GL128117  22.123  37.693   9.155
 2083POPC   GL228118  22.369  37.452   9.224
 2083POPC   C1A28119  22.126  37.861   8.741
 2083POPC   D2A28120  22.032  38.064   8.367
 2083POPC   C3A28121  22.312  37.953   8.047
 2083POPC   C4A28122  22.270  37.812   7.607
 2083POPC   C1B28123  22.312  37.381   8.784
 2083POPC   C2B28124  22.411  37.582   8.395
 2083POPC   C3B28125  22.336  37.456   7.978
 2083POPC   C4B28126  22.601  37.422   7.638
 2084POPC   NC328127   9.554  14.254   9.439
 2084POPC   PO428128  10.120  13.949   9.588
 2084POPC   GL128129   9.943  14.132   9.141
 2084POPC   GL228130   9.871  14.503   9.114
 2084POPC   C1A28131   9.695  14.306   8.721
 2084POPC   D2A28132   9.634  14.150   8.352
 2084POPC   C3A28133   9.839  14.207   8.010
 2084POPC   C4A28134   9.540  14.335   7.760
 2084POPC   C1B28135   9.977  14.755   8.711
 2084POPC   C2B28136   9.795  14.690   8.295
 2084POPC   C3B28137   9.887  14.692   7.856
 2084POPC   C4B28138   9.994  14.774   7.411
 2085POPC   NC328139   8.522  34.127   9.713
 2085POPC   PO428140   8.743  33.534   9.450
 2085POPC   GL128141   8.836  33.659   9.086
 2085POPC   GL228142   9.071  33.918   9.030
 2085POPC   C1A28143   9.021  33.452   8.769
 2085POPC   D2A28144   8.848  33.424   8.414
 2085POPC   C3A28145   9.007  33.664   8.115
 2085POPC   C4A28146   8.902  33.580   7.671
 2085POPC   C1B28147   8.830  33.916   8.635
 2085POPC   C2B28148   8.508  33.955   8.343
 2085POPC   C3B28149   8.712  34.040   7.961
 2085POPC   C4B28150   8.724  34.061   7.524
 2086POPC   NC328151  27.756   6.076   9.389
 2086POPC   PO428152  27.339   5.523   9.452
 2086POPC   GL128153  27.440   5.760   9.101
 2086POPC   GL228154  27.335   6.087   9.068
 2086POPC   C1A28155  27.618   5.668   8.719
 2086POPC   D2A28156  27.701   5.432   8.353
 2086POPC   C3A28157  27.592   5.645   7.977
 2086POPC   C4A28158  27.752   5.915   7.684
 2086POPC   C1B28159  27.569   6.185   8.728
 2086POPC   C2B28160  27.749   6.025   8.355
 2086POPC   C3B28161  27.516   6.189   8.056
 2086POPC   C4B28162  27.574   6.421   7.705
 2087POPC   NC328163  20.885   9.108   9.611
 2087POPC   PO428164  20.255   8.810   9.670
 2087POPC   GL128165  20.534   8.892   9.281
 2087POPC   GL228166  20.704   9.205   9.150
 2087POPC   C1A28167  20.519   8.879   8.817
 2087POPC   D2A28168  20.424   9.182   8.516
 2087POPC   C3A28169  20.459   8.981   8.153
 2087POPC   C4A28170  20.512   9.044   7.757
 2087POPC   C1B28171  20.967   9.327   8.808
 2087POPC   C2B28172  20.849   9.440   8.403
 2087POPC   C3B28173  20.914   9.265   8.046
 2087POPC   C4B28174  20.989   9.150   7.652
 2088POPC   NC328175  21.546  39.837   9.439
 2088POPC   PO428176  21.092  40.297   9.341
 2088POPC   GL128177  21.403  40.137   9.060
 2088POPC   GL228178  21.164  39.836   9.077
 2088POPC   C1A28179  21.573  39.760   8.798
 2088POPC   D2A28180  21.482  39.641   8.379
 2088POPC   C3A28181  21.536  40.032   8.167
 2088POPC   C4A28182  21.572  40.190   7.765
 2088POPC   C1B28183  21.158  40.000   8.648
 2088POPC   C2B28184  21.026  39.898   8.266
 2088POPC   C3B28185  21.186  39.758   7.895
 2088POPC   C4B28186  20.862  39.724   7.620
 2089POPC   NC328187   7.967  32.526   9.472
 2089POPC   PO428188   8.136  31.821   9.504
 2089POPC   GL128189   8.104  32.111   9.140
 2089POPC   GL228190   8.371  32.272   9.060
 2089POPC   C1A28191   8.062  32.182   8.659
 2089POPC   D2A28192   7.826  32.194   8.292
 2089POPC   C3A28193   8.001  32.025   7.954
 2089POPC   C4A28194   8.068  32.099   7.519
 2089POPC   C1B28195   8.561  32.102   8.701
 2089POPC   C2B28196   8.434  32.090   8.262
 2089POPC   C3B28197   8.480  32.128   7.823
 2089POPC   C4B28198   8.496  31.840   7.425
 2090POPC   NC328199   1.005  40.962   9.392
 2090POPC   PO428200   1.518  40.509   9.562
 2090POPC   GL128201   1.388  40.702   9.180
 2090POPC   GL228202   1.531  40.979   9.037
 2090POPC   C1A28203   1.246  40.554   8.796
 2090POPC   D2A28204   1.374  40.598   8.378
 2090POPC   C3A28205   1.032  40.584   8.073
 2090POPC   C4A28206   1.107  40.468   7.659
 2090POPC   C1B28207   1.169  41.064   8.757
 2090POPC   C2B28208   1.114  41.039   8.324
 2090POPC   C3B28209   1.410  40.946   7.997
 2090POPC   C4B28210   1.148  40.973   7.689
 2091POPC   NC328211  42.289  34.090   9.386
 2091POPC   PO428212  42.638  34.716   9.455
 2091POPC   GL128213  42.495  34.597   9.096
 2091POPC   GL228214  42.581  34.270   9.012
 2091POPC   C1A28215  42.479  34.821   8.742
 2091POPC   D2A28216  42.730  34.824   8.383
 2091POPC   C3A28217  42.499  34.803   8.036
 2091POPC   C4A28218  42.186  34.660   7.797
 2091POPC   C1B28219  42.275  34.357   8.668
 2091POPC   C2B28220  42.145  34.352   8.232
 2091POPC   C3B28221  42.096  34.150   7.841
 2091POPC   C4B28222  42.233  34.319   7.424
 2092POPC   NC328223  42.029   2.287   9.791
 2092POPC   PO428224  42.589   1.982   9.517
 2092POPC   GL128225  42.308   2.061   9.185
 2092POPC   GL228226  42.037   2.331   9.203
 2092POPC   C1A28227  42.261   1.824   8.786
 2092POPC   D2A28228  42.089   1.655   8.419
 2092POPC   C3A28229  42.193   1.767   7.997
 2092POPC   C4A28230  42.322   2.008   7.643
 2092POPC   C1B28231  42.292   2.334   8.777
 2092POPC   C2B28232  42.294   2.140   8.364
 2092POPC   C3B28233  42.094   2.305   7.992
 2092POPC   C4B28234  41.890   2.273   7.611
 2093POPC   NC328235  40.714  27.136   9.533
 2093POPC   PO428236  40.942  27.811   9.453
 2093POPC   GL128237  40.810  27.672   9.061
 2093POPC   GL228238  40.931  27.357   9.132
 2093POPC   C1A28239  40.453  27.707   8.743
 2093POPC   D2A28240  40.332  27.881   8.381
 2093POPC   C3A28241  40.664  27.881   8.132
 2093POPC   C4A28242  40.863  27.580   7.905
 2093POPC   C1B28243  40.706  27.258   8.756
 2093POPC   C2B28244  40.435  27.291   8.403
 2093POPC   C3B28245  40.591  27.162   7.997
 2093POPC   C4B28246  40.652  27.291   7.550
 2094POPC   NC328247  32.541  32.655   9.533
 2094POPC   PO428248  32.023  33.186   9.432
 2094POPC   GL128249  32.072  33.170   9.070
 2094POPC   GL228250  32.383  32.997   9.116
 2094POPC   C1A28251  32.119  32.948   8.703
 2094POPC   D2A28252  32.370  32.753   8.459
 2094POPC   C3A28253  32.104  32.683   8.114
 2094POPC   C4A28254  32.148  32.836   7.736
 2094POPC   C1B28255  32.475  33.322   8.817
 2094POPC   C2B28256  32.632  33.212   8.405
 2094POPC   C3B28257  32.461  33.148   8.003
 2094POPC   C4B28258  32.630  32.998   7.593
 2095POPC   NC328259  32.149  38.192   9.463
 2095POPC   PO428260  32.378  38.850   9.495
 2095POPC   GL128261  32.194  38.606   9.176
 2095POPC   GL228262  32.439  38.365   9.086
 2095POPC   C1A28263  31.990  38.574   8.799
 2095POPC   D2A28264  32.173  38.701   8.416
 2095POPC   C3A28265  32.057  38.624   8.028
 2095POPC   C4A28266  32.389  38.512   7.688
 2095POPC   C1B28267  32.249  38.148   8.763
 2095POPC   C2B28268  32.348  38.205   8.380
 2095POPC   C3B28269  32.185  38.133   8.032
 2095POPC   C4B28270  31.945  38.268   7.697
 2096POPC   NC328271  10.039  37.763   9.599
 2096POPC   PO428272   9.513  37.810   9.261
 2096POPC   GL128273   9.724  37.602   8.993
 2096POPC   GL228274  10.038  37.556   9.118
 2096POPC   C1A28275   9.747  37.797   8.606
 2096POPC   D2A28276   9.528  37.719   8.233
 2096POPC   C3A28277   9.699  38.016   8.016
 2096POPC   C4A28278   9.713  38.076   7.621
 2096POPC   C1B28279  10.101  37.426   8.654
 2096POPC   C2B28280  10.029  37.616   8.216
 2096POPC   C3B28281   9.806  37.461   7.848
 2096POPC   C4B28282   9.948  37.183   7.516
 2097POPC   NC328283  33.647  24.504   9.521
 2097POPC   PO428284  34.258  24.613   9.444
 2097POPC   GL128285  33.959  24.421   9.133
 2097POPC   GL228286  33.568  24.285   9.076
 2097POPC   C1A28287  33.775  24.683   8.852
 2097POPC   D2A28288  33.733  24.431   8.547
 2097POPC   C3A28289  33.890  24.608   8.212
 2097POPC   C4A28290  33.794  24.746   7.836
 2097POPC   C1B28291  33.377  24.080   8.741
 2097POPC   C2B28292  33.512  24.032   8.340
 2097POPC   C3B28293  33.660  24.216   7.988
 2097POPC   C4B28294  33.440  24.021   7.708
 2098POPC   NC328295  36.635   3.716  10.254
 2098POPC   PO428296  36.934   3.831   9.628
 2098POPC   GL128297  36.886   3.592   9.247
 2098POPC   GL228298  36.691   3.292   9.314
 2098POPC   C1A28299  36.916   3.629   8.787
 2098POPC   D2A28300  37.105   3.514   8.372
 2098POPC   C3A28301  36.945   3.637   7.959
 2098POPC   C4A28302  37.057   3.444   7.534
 2098POPC   C1B28303  36.634   3.169   8.858
 2098POPC   C2B28304  36.603   3.379   8.445
 2098POPC   C3B28305  36.606   3.225   7.997
 2098POPC   C4B28306  36.737   2.946   7.623
 2099POPC   NC328307  37.307  22.608  10.116
 2099POPC   PO428308  37.702  22.748   9.516
 2099POPC   GL128309  37.527  22.808   9.129
 2099POPC   GL228310  37.330  23.095   9.099
 2099POPC   C1A28311  37.772  22.739   8.739
 2099POPC   D2A28312  37.727  22.868   8.295
 2099POPC   C3A28313  37.974  22.629   7.968
 2099POPC   C4A28314  37.807  22.739   7.569
 2099POPC   C1B28315  37.519  23.174   8.723
 2099POPC   C2B28316  37.406  23.294   8.338
 2099POPC   C3B28317  37.542  23.236   7.916
 2099POPC   C4B28318  37.442  23.146   7.478
 2100POPC   NC328319  30.035  42.879   9.533
 2100POPC   PO428320  29.756  43.466   9.579
 2100POPC   GL128321  29.787  43.185   9.189
 2100POPC   GL228322  30.131  43.054   9.069
 2100POPC   C1A28323  29.828  43.312   8.745
 2100POPC   D2A28324  30.039  43.450   8.385
 2100POPC   C3A28325  29.883  43.251   8.000
 2100POPC   C4A28326  29.993  43.261   7.559
 2100POPC   C1B28327  30.047  42.843   8.726
 2100POPC   C2B28328  30.151  42.968   8.332
 2100POPC   C3B28329  30.273  42.934   7.906
 2100POPC   C4B28330  30.158  42.663   7.570
 2101POPC   NC328331  37.139   7.556   9.501
 2101POPC   PO428332  36.533   7.843   9.594
 2101POPC   GL128333  36.613   7.669   9.161
 2101POPC   GL228334  36.502   7.327   9.077
 2101POPC   C1A28335  36.777   7.585   8.707
 2101POPC   D2A28336  36.987   7.272   8.461
 2101POPC   C3A28337  36.805   7.215   8.066
 2101POPC   C4A28338  36.929   7.389   7.673
 2101POPC   C1B28339  36.572   7.135   8.703
 2101POPC   C2B28340  36.424   7.377   8.380
 2101POPC   C3B28341  36.333   7.584   8.016
 2101POPC   C4B28342  36.432   7.472   7.632
 2102POPC   NC328343  10.348  22.137   9.445
 2102POPC   PO428344   9.673  22.271   9.441
 2102POPC   GL128345   9.933  22.012   9.138
 2102POPC   GL228346   9.668  21.912   8.918
 2102POPC   C1A28347  10.123  22.004   8.704
 2102POPC   D2A28348   9.837  22.083   8.353
 2102POPC   C3A28349   9.849  21.933   7.926
 2102POPC   C4A28350   9.609  22.061   7.574
 2102POPC   C1B28351   9.596  22.338   8.777
 2102POPC   C2B28352   9.562  22.537   8.400
 2102POPC   C3B28353   9.508  22.387   8.002
 2102POPC   C4B28354   9.290  22.457   7.661
 2103POPC   NC328355  12.735  21.575   9.652
 2103POPC   PO428356  12.608  22.294   9.537
 2103POPC   GL128357  12.651  22.159   9.135
 2103POPC   GL228358  12.980  22.101   9.031
 2103POPC   C1A28359  12.632  22.054   8.672
 2103POPC   D2A28360  12.845  22.284   8.348
 2103POPC   C3A28361  12.684  22.251   7.968
 2103POPC   C4A28362  12.710  21.805   7.878
 2103POPC   C1B28363  13.198  22.263   8.724
 2103POPC   C2B28364  13.471  22.193   8.418
 2103POPC   C3B28365  13.318  22.197   8.030
 2103POPC   C4B28366  13.096  22.138   7.684
 2104POPC   NC328367   5.047  20.972   9.523
 2104POPC   PO428368   4.706  21.518   9.681
 2104POPC   GL128369   4.965  21.463   9.270
 2104POPC   GL228370   5.094  21.762   9.144
 2104POPC   C1A28371   5.139  21.388   8.809
 2104POPC   D2A28372   5.029  21.186   8.417
 2104POPC   C3A28373   5.278  21.195   8.037
 2104POPC   C4A28374   5.046  21.203   7.656
 2104POPC   C1B28375   5.040  21.912   8.729
 2104POPC   C2B28376   4.849  21.679   8.415
 2104POPC   C3B28377   4.907  21.579   7.990
 2104POPC   C4B28378   5.159  21.697   7.639
 2105POPC   NC328379   1.418  36.319   9.541
 2105POPC   PO428380   1.116  35.697   9.593
 2105POPC   GL128381   1.119  35.993   9.249
 2105POPC   GL228382   0.932  35.828   9.048
 2105POPC   C1A28383   1.386  36.176   8.891
 2105POPC   D2A28384   1.501  36.250   8.440
 2105POPC   C3A28385   1.394  36.076   8.024
 2105POPC   C4A28386   1.081  36.239   7.775
 2105POPC   C1B28387   0.933  36.055   8.700
 2105POPC   C2B28388   1.069  35.900   8.356
 2105POPC   C3B28389   0.893  35.802   7.992
 2105POPC   C4B28390   1.013  35.738   7.633
 2106POPC   NC328391  37.027  39.042   9.512
 2106POPC   PO428392  36.417  39.368   9.473
 2106POPC   GL128393  36.714  39.222   9.147
 2106POPC   GL228394  37.089  39.357   9.123
 2106POPC   C1A28395  36.820  39.202   8.723
 2106POPC   D2A28396  36.720  39.011   8.385
 2106POPC   C3A28397  36.926  39.109   8.013
 2106POPC   C4A28398  36.838  38.905   7.634
 2106POPC   C1B28399  37.212  39.541   8.743
 2106POPC   C2B28400  37.006  39.539   8.345
 2106POPC   C3B28401  37.139  39.587   7.916
 2106POPC   C4B28402  37.091  39.523   7.457
 2107POPC   NC328403  26.844  21.532   9.627
 2107POPC   PO428404  26.652  20.917   9.522
 2107POPC   GL128405  26.813  21.160   9.215
 2107POPC   GL228406  26.546  21.378   9.241
 2107POPC   C1A28407  27.027  21.282   8.840
 2107POPC   D2A28408  27.199  21.071   8.490
 2107POPC   C3A28409  27.030  21.240   8.152
 2107POPC   C4A28410  26.825  21.310   7.797
 2107POPC   C1B28411  26.498  21.291   8.812
 2107POPC   C2B28412  26.647  21.515   8.453
 2107POPC   C3B28413  26.394  21.686   8.130
 2107POPC   C4B28414  26.454  21.656   7.703
 2108POPC   NC328415   3.483  29.142   9.628
 2108POPC   PO428416   3.564  28.515   9.482
 2108POPC   GL128417   3.680  28.911   9.197
 2108POPC   GL228418   3.424  29.174   9.129
 2108POPC   C1A28419   3.771  29.080   8.759
 2108POPC   D2A28420   3.863  28.846   8.389
 2108POPC   C3A28421   3.737  28.960   7.970
 2108POPC   C4A28422   3.551  29.127   7.598
 2108POPC   C1B28423   3.291  29.231   8.715
 2108POPC   C2B28424   3.521  29.274   8.327
 2108POPC   C3B28425   3.546  29.518   7.941
 2108POPC   C4B28426   3.246  29.525   7.595
 2109POPC   NC328427  20.723   7.508   9.435
 2109POPC   PO428428  20.135   7.430   9.162
 2109POPC   GL128429  20.484   7.440   9.000
 2109POPC   GL228430  20.497   7.098   8.950
 2109POPC   C1A28431  20.599   7.644   8.671
 2109POPC   D2A28432  20.373   7.742   8.307
 2109POPC   C3A28433  20.605   7.536   7.999
 2109POPC   C4A28434  20.762   7.673   7.620
 2109POPC   C1B28435  20.245   7.224   8.573
 2109POPC   C2B28436  20.215   7.117   8.157
 2109POPC   C3B28437  20.172   7.334   7.789
 2109POPC   C4B28438  20.552   7.184   7.623
 2110POPC   NC328439  11.121   1.269   9.305
 2110POPC   PO428440  11.481   0.856   9.682
 2110POPC   GL128441  11.536   0.949   9.237
 2110POPC   GL228442  11.632   1.297   9.188
 2110POPC   C1A28443  11.399   1.001   8.779
 2110POPC   D2A28444  11.125   1.300   8.537
 2110POPC   C3A28445  11.213   1.337   8.091
 2110POPC   C4A28446  11.102   1.319   7.679
 2110POPC   C1B28447  11.537   1.491   8.802
 2110POPC   C2B28448  11.630   1.319   8.402
 2110POPC   C3B28449  11.679   1.599   8.073
 2110POPC   C4B28450  11.534   1.581   7.691
 2111POPC   NC328451   1.958  37.349   9.488
 2111POPC   PO428452   1.951  38.033   9.558
 2111POPC   GL128453   1.999  37.815   9.173
 2111POPC   GL228454   1.703  37.656   9.145
 2111POPC   C1A28455   2.163  37.886   8.751
 2111POPC   D2A28456   2.144  37.564   8.414
 2111POPC   C3A28457   2.243  37.681   8.007
 2111POPC   C4A28458   2.177  37.421   7.639
 2111POPC   C1B28459   1.775  37.568   8.773
 2111POPC   C2B28460   1.708  37.848   8.461
 2111POPC   C3B28461   1.733  37.667   8.065
 2111POPC   C4B28462   1.883  37.852   7.681
 2112POPC   NC328463  22.973   4.049   9.580
 2112POPC   PO428464  23.057   4.673   9.684
 2112POPC   GL128465  22.992   4.480   9.241
 2112POPC   GL228466  23.260   4.224   9.203
 2112POPC   C1A28467  22.796   4.548   8.787
 2112POPC   D2A28468  22.583   4.362   8.423
 2112POPC   C3A28469  22.782   4.200   8.057
 2112POPC   C4A28470  22.846   4.414   7.653
 2112POPC   C1B28471  23.275   4.436   8.786
 2112POPC   C2B28472  23.123   4.524   8.354
 2112POPC   C3B28473  23.256   4.344   7.948
 2112POPC   C4B28474  23.322   4.228   7.463
 2113POPC   NC328475  35.437  36.688   9.455
 2113POPC   PO428476  34.990  37.165   9.429
 2113POPC   GL128477  35.299  37.147   9.128
 2113POPC   GL228478  35.623  37.055   9.116
 2113POPC   C1A28479  35.273  36.987   8.719
 2113POPC   D2A28480  35.121  36.738   8.386
 2113POPC   C3A28481  35.152  36.915   8.007
 2113POPC   C4A28482  34.944  36.855   7.625
 2113POPC   C1B28483  35.858  36.875   8.805
 2113POPC   C2B28484  35.657  36.774   8.439
 2113POPC   C3B28485  35.706  36.863   8.041
 2113POPC   C4B28486  35.516  36.871   7.653
 2114POPC   NC328487  19.735  10.149   9.876
 2114POPC   PO428488  19.943  10.765   9.568
 2114POPC   GL128489  19.733  10.751   9.157
 2114POPC   GL228490  19.680  10.400   9.022
 2114POPC   C1A28491  19.767  10.838   8.725
 2114POPC   D2A28492  19.871  10.620   8.337
 2114POPC   C3A28493  19.831  10.802   7.940
 2114POPC   C4A28494  19.565  10.808   7.631
 2114POPC   C1B28495  19.932  10.199   8.682
 2114POPC   C2B28496  20.199  10.235   8.324
 2114POPC   C3B28497  20.069  10.349   7.898
 2114POPC   C4B28498  19.690  10.187   7.769
 2115POPC   NC328499  31.660  20.832   9.379
 2115POPC   PO428500  31.173  20.342   9.445
 2115POPC   GL128501  31.438  20.450   9.092
 2115POPC   GL228502  31.370  20.821   8.948
 2115POPC   C1A28503  31.672  20.469   8.705
 2115POPC   D2A28504  31.490  20.705   8.380
 2115POPC   C3A28505  31.303  20.589   7.982
 2115POPC   C4A28506  31.374  20.236   7.719
 2115POPC   C1B28507  31.784  20.954   8.760
 2115POPC   C2B28508  31.909  21.006   8.338
 2115POPC   C3B28509  31.752  20.880   7.927
 2115POPC   C4B28510  31.929  21.009   7.502
 2116POPC   NC328511  33.683  38.794   9.362
 2116POPC   PO428512  34.091  38.269   9.612
 2116POPC   GL128513  33.981  38.397   9.173
 2116POPC   GL228514  33.940  38.726   8.921
 2116POPC   C1A28515  33.857  38.239   8.771
 2116POPC   D2A28516  33.584  38.384   8.461
 2116POPC   C3A28517  33.756  38.631   8.144
 2116POPC   C4A28518  33.796  38.461   7.749
 2116POPC   C1B28519  33.526  38.862   8.679
 2116POPC   C2B28520  33.278  38.759   8.273
 2116POPC   C3B28521  33.349  38.739   7.827
 2116POPC   C4B28522  33.618  38.875   7.527
 2117POPC   NC328523  19.432  10.029   9.318
 2117POPC   PO428524  18.997  10.440   9.579
 2117POPC   GL128525  19.099  10.385   9.137
 2117POPC   GL228526  18.797  10.239   9.053
 2117POPC   C1A28527  19.299  10.610   8.784
 2117POPC   D2A28528  19.375  10.800   8.400
 2117POPC   C3A28529  19.402  10.530   8.061
 2117POPC   C4A28530  19.129  10.536   7.730
 2117POPC   C1B28531  18.815  10.515   8.697
 2117POPC   C2B28532  18.896  10.659   8.284
 2117POPC   C3B28533  18.668  10.625   7.930
 2117POPC   C4B28534  18.704  10.266   7.666
 2118POPC   NC328535   3.044  25.057   9.306
 2118POPC   PO428536   3.579  25.456   9.316
 2118POPC   GL128537   3.665  25.135   8.988
 2118POPC   GL228538   3.346  25.132   8.923
 2118POPC   C1A28539   3.615  25.008   8.542
 2118POPC   D2A28540   3.314  25.204   8.312
 2118POPC   C3A28541   3.494  25.125   7.940
 2118POPC   C4A28542   3.319  25.096   7.578
 2118POPC   C1B28543   3.442  25.524   8.700
 2118POPC   C2B28544   3.265  25.738   8.379
 2118POPC   C3B28545   3.217  25.605   7.966
 2118POPC   C4B28546   3.549  25.569   7.674
 2119POPC   NC328547  39.748  41.500   9.332
 2119POPC   PO428548  40.294  41.694   9.700
 2119POPC   GL128549  40.221  41.801   9.208
 2119POPC   GL228550  39.932  41.902   9.029
 2119POPC   C1A28551  40.174  41.553   8.726
 2119POPC   D2A28552  40.015  41.160   8.417
 2119POPC   C3A28553  39.833  41.256   7.970
 2119POPC   C4A28554  40.016  41.208   7.558
 2119POPC   C1B28555  39.767  41.907   8.623
 2119POPC   C2B28556  39.923  41.651   8.282
 2119POPC   C3B28557  40.126  41.659   7.871
 2119POPC   C4B28558  39.954  41.704   7.453
 2120POPC   NC328559   0.469  36.634   9.527
 2120POPC   PO428560   0.676  37.213   9.392
 2120POPC   GL128561   0.528  37.007   9.084
 2120POPC   GL228562   0.222  36.860   9.129
 2120POPC   C1A28563   0.604  36.869   8.695
 2120POPC   D2A28564   0.542  37.042   8.313
 2120POPC   C3A28565   0.737  36.733   8.076
 2120POPC   C4A28566   0.638  36.797   7.679
 2120POPC   C1B28567   0.095  36.949   8.738
 2120POPC   C2B28568  44.945  37.035   8.340
 2120POPC   C3B28569   0.129  36.934   7.959
 2120POPC   C4B28570   0.164  36.894   7.518
 2121POPC   NC328571  32.901  22.233   9.351
 2121POPC   PO428572  33.477  21.826   9.532
 2121POPC   GL128573  33.309  21.983   9.145
 2121POPC   GL228574  33.347  22.362   9.120
 2121POPC   C1A28575  33.081  22.092   8.741
 2121POPC   D2A28576  33.128  22.163   8.326
 2121POPC   C3A28577  32.810  22.160   7.993
 2121POPC   C4A28578  33.164  22.131   7.716
 2121POPC   C1B28579  33.169  22.601   8.800
 2121POPC   C2B28580  32.899  22.606   8.453
 2121POPC   C3B28581  33.083  22.590   8.049
 2121POPC   C4B28582  32.931  22.576   7.649
 2122POPC   NC328583  35.865   4.810   9.554
 2122POPC   PO428584  36.093   5.426   9.624
 2122POPC   GL128585  36.125   5.236   9.235
 2122POPC   GL228586  35.795   5.195   9.209
 2122POPC   C1A28587  36.278   5.146   8.814
 2122POPC   D2A28588  36.517   5.049   8.431
 2122POPC   C3A28589  36.280   5.054   8.126
 2122POPC   C4A28590  36.197   5.154   7.719
 2122POPC   C1B28591  35.713   5.089   8.821
 2122POPC   C2B28592  35.868   5.104   8.422
 2122POPC   C3B28593  35.809   4.974   8.017
 2122POPC   C4B28594  35.695   5.228   7.717
 2123POPC   NC328595  17.825  13.024   9.277
 2123POPC   PO428596  17.594  13.384   9.845
 2123POPC   GL128597  17.557  13.613   9.386
 2123POPC   GL228598  17.837  13.526   9.236
 2123POPC   C1A28599  17.439  13.626   8.875
 2123POPC   D2A28600  17.284  13.536   8.432
 2123POPC   C3A28601  17.429  13.696   8.041
 2123POPC   C4A28602  17.405  13.362   7.717
 2123POPC   C1B28603  17.934  13.726   8.865
 2123POPC   C2B28604  17.794  13.733   8.468
 2123POPC   C3B28605  17.992  13.724   8.091
 2123POPC   C4B28606  17.804  13.755   7.702
 2124POPC   NC328607  43.121  13.251   9.381
 2124POPC   PO428608  43.273  13.847   9.635
 2124POPC   GL128609  43.355  13.657   9.194
 2124POPC   GL228610  43.079  13.773   9.093
 2124POPC   C1A28611  43.341  13.345   8.793
 2124POPC   D2A28612  43.590  13.414   8.405
 2124POPC   C3A28613  43.420  13.570   8.028
 2124POPC   C4A28614  43.269  13.298   7.726
 2124POPC   C1B28615  43.244  13.818   8.679
 2124POPC   C2B28616  43.063  13.611   8.362
 2124POPC   C3B28617  42.902  13.581   7.944
 2124POPC   C4B28618  43.135  13.761   7.613
 2125POPC   NC328619   5.044  10.739   9.508
 2125POPC   PO428620   5.507  10.366   9.750
 2125POPC   GL128621   5.119  10.253   9.368
 2125POPC   GL228622   5.148  10.541   9.066
 2125POPC   C1A28623   4.989  10.107   8.911
 2125POPC   D2A28624   5.281  10.218   8.535
 2125POPC   C3A28625   5.142  10.519   8.207
 2125POPC   C4A28626   5.152  10.523   7.759
 2125POPC   C1B28627   4.774  10.665   8.809
 2125POPC   C2B28628   4.720  10.842   8.378
 2125POPC   C3B28629   4.860  10.897   7.946
 2125POPC   C4B28630   4.759  10.747   7.516
 2126POPC   NC328631  11.883   0.584   9.632
 2126POPC   PO428632  12.518   0.492   9.912
 2126POPC   GL128633  12.294   0.515   9.339
 2126POPC   GL228634  11.989   0.706   9.164
 2126POPC   C1A28635  12.093   0.297   8.877
 2126POPC   D2A28636  11.937   0.164   8.410
 2126POPC   C3A28637  12.102   0.226   8.004
 2126POPC   C4A28638  11.962   0.363   7.578
 2126POPC   C1B28639  12.249   0.812   8.843
 2126POPC   C2B28640  12.160   0.629   8.454
 2126POPC   C3B28641  11.876   0.674   8.114
 2126POPC   C4B28642  12.156   0.760   7.804
 2127POPC   NC328643  32.454  36.477   9.447
 2127POPC   PO428644  32.570  37.148   9.389
 2127POPC   GL128645  32.159  37.015   9.194
 2127POPC   GL228646  31.913  37.265   9.079
 2127POPC   C1A28647  32.174  36.739   8.864
 2127POPC   D2A28648  32.552  36.632   8.633
 2127POPC   C3A28649  32.586  36.714   8.189
 2127POPC   C4A28650  32.335  36.743   7.809
 2127POPC   C1B28651  32.127  37.206   8.651
 2127POPC   C2B28652  32.167  37.040   8.225
 2127POPC   C3B28653  32.051  37.175   7.812
 2127POPC   C4B28654  31.789  37.004   7.472
 2128POPC   NC328655  35.508  30.397   9.377
 2128POPC   PO428656  35.666  29.768   9.361
 2128POPC   GL128657  35.290  29.690   9.164
 2128POPC   GL228658  35.253  30.033   9.123
 2128POPC   C1A28659  35.367  29.711   8.732
 2128POPC   D2A28660  35.702  29.736   8.435
 2128POPC   C3A28661  35.525  29.732   8.049
 2128POPC   C4A28662  35.673  29.700   7.693
 2128POPC   C1B28663  35.024  30.121   8.757
 2128POPC   C2B28664  34.774  30.239   8.382
 2128POPC   C3B28665  34.970  30.105   8.053
 2128POPC   C4B28666  35.258  30.041   7.734
 2129POPC   NC328667  12.273  15.378   9.520
 2129POPC   PO428668  11.688  14.988   9.480
 2129POPC   GL128669  11.956  15.112   9.138
 2129POPC   GL228670  12.354  15.048   9.146
 2129POPC   C1A28671  11.816  15.176   8.705
 2129POPC   D2A28672  11.968  14.895   8.369
 2129POPC   C3A28673  11.947  15.030   7.931
 2129POPC   C4A28674  12.319  15.195   7.711
 2129POPC   C1B28675  12.304  15.136   8.721
 2129POPC   C2B28676  12.262  15.293   8.264
 2129POPC   C3B28677  12.036  15.546   7.974
 2129POPC   C4B28678  11.889  15.418   7.573
 2130POPC   NC328679  38.322  28.961   9.538
 2130POPC   PO428680  38.451  29.551   9.326
 2130POPC   GL128681  38.437  29.149   9.075
 2130POPC   GL228682  38.111  28.968   9.071
 2130POPC   C1A28683  38.598  29.157   8.653
 2130POPC   D2A28684  38.815  29.394   8.314
 2130POPC   C3A28685  38.572  29.284   7.962
 2130POPC   C4A28686  38.667  28.858   7.827
 2130POPC   C1B28687  38.078  29.312   8.762
 2130POPC   C2B28688  38.125  29.444   8.342
 2130POPC   C3B28689  37.984  29.318   7.947
 2130POPC   C4B28690  38.164  28.985   7.692
 2131POPC   NC328691  44.189  31.313   9.662
 2131POPC   PO428692  43.638  31.713   9.582
 2131POPC   GL128693  43.946  31.502   9.275
 2131POPC   GL228694  43.719  31.436   9.096
 2131POPC   C1A28695  44.122  31.523   8.802
 2131POPC   D2A28696  43.922  31.470   8.389
 2131POPC   C3A28697  44.116  31.473   7.978
 2131POPC   C4A28698  44.098  31.730   7.612
 2131POPC   C1B28699  43.378  31.361   8.831
 2131POPC   C2B28700  43.370  31.229   8.415
 2131POPC   C3B28701  43.515  31.473   8.107
 2131POPC   C4B28702  43.663  31.499   7.733
 2132POPC   NC328703  17.265  38.697   9.645
 2132POPC   PO428704  17.735  38.204   9.456
 2132POPC   GL128705  17.437  38.314   9.147
 2132POPC   GL228706  17.322  38.665   9.145
 2132POPC   C1A28707  17.430  38.356   8.701
 2132POPC   D2A28708  17.660  38.633   8.383
 2132POPC   C3A28709  17.762  38.422   8.010
 2132POPC   C4A28710  17.495  38.198   7.693
 2132POPC   C1B28711  17.357  38.858   8.743
 2132POPC   C2B28712  17.229  38.962   8.349
 2132POPC   C3B28713  17.373  38.918   7.948
 2132POPC   C4B28714  17.601  38.686   7.608
 2133POPC   NC328715  33.398   1.728   9.783
 2133POPC   PO428716  33.964   2.001   9.377
 2133POPC   GL128717  33.887   1.856   8.974
 2133POPC   GL228718  33.999   1.511   9.148
 2133POPC   C1A28719  33.776   2.127   8.622
 2133POPC   D2A28720  33.901   2.244   8.218
 2133POPC   C3A28721  33.707   2.043   7.871
 2133POPC   C4A28722  33.559   1.661   7.768
 2133POPC   C1B28723  34.189   1.517   8.761
 2133POPC   C2B28724  33.935   1.663   8.425
 2133POPC   C3B28725  34.036   1.705   8.019
 2133POPC   C4B28726  34.043   1.669   7.597
 2134POPC   NC328727   1.100  10.322   9.831
 2134POPC   PO428728   1.765  10.520   9.601
 2134POPC   GL128729   1.519  10.345   9.246
 2134POPC   GL228730   1.168  10.397   9.205
 2134POPC   C1A28731   1.502  10.509   8.806
 2134POPC   D2A28732   1.318  10.448   8.401
 2134POPC   C3A28733   1.489  10.528   7.997
 2134POPC   C4A28734   1.316  10.477   7.597
 2134POPC   C1B28735   0.966  10.440   8.778
 2134POPC   C2B28736   0.814  10.547   8.346
 2134POPC   C3B28737   0.941  10.396   7.949
 2134POPC   C4B28738   1.031  10.057   7.677
 2135POPC   NC328739  44.140  44.715   9.528
 2135POPC   PO428740  43.533  44.377   9.622
 2135POPC   GL128741  43.812  44.287   9.249
 2135POPC   GL228742  44.183  44.371   9.142
 2135POPC   C1A28743  43.792  44.402   8.816
 2135POPC   D2A28744  43.785  44.739   8.532
 2135POPC   C3A28745  43.692  44.596   8.145
 2135POPC   C4A28746  43.840  44.667   7.754
 2135POPC   C1B28747  44.131  44.826   8.909
 2135POPC   C2B28748  44.191   0.098   8.543
 2135POPC   C3B28749  44.155  44.850   8.170
 2135POPC   C4B28750  44.320  44.885   7.770
 2136POPC   NC328751  13.437  21.030   9.414
 2136POPC   PO428752  13.343  20.306   9.383
 2136POPC   GL128753  13.481  20.641   9.084
 2136POPC   GL228754  13.792  20.874   9.088
 2136POPC   C1A28755  13.465  20.729   8.648
 2136POPC   D2A28756  13.366  20.476   8.264
 2136POPC   C3A28757  13.570  20.668   7.890
 2136POPC   C4A28758  13.398  20.828   7.516
 2136POPC   C1B28759  13.993  20.480   8.939
 2136POPC   C2B28760  14.191  20.486   8.550
 2136POPC   C3B28761  13.999  20.618   8.181
 2136POPC   C4B28762  14.068  20.528   7.756
 2137POPC   NC328763  37.896  31.780   9.361
 2137POPC   PO428764  37.320  31.485   9.484
 2137POPC   GL128765  37.482  31.179   9.086
 2137POPC   GL228766  37.843  31.206   8.993
 2137POPC   C1A28767  37.493  31.157   8.606
 2137POPC   D2A28768  37.662  31.282   8.187
 2137POPC   C3A28769  37.573  31.346   7.756
 2137POPC   C4A28770  37.656  31.765   7.551
 2137POPC   C1B28771  38.023  31.203   8.552
 2137POPC   C2B28772  38.181  31.327   8.136
 2137POPC   C3B28773  38.066  31.465   7.711
 2137POPC   C4B28774  37.879  31.374   7.316
 2138POPC   NC328775  24.589  27.143   9.537
 2138POPC   PO428776  24.188  27.742   9.478
 2138POPC   GL128777  24.429  27.669   9.122
 2138POPC   GL228778  24.320  27.357   9.151
 2138POPC   C1A28779  24.729  27.735   8.789
 2138POPC   D2A28780  24.682  27.996   8.427
 2138POPC   C3A28781  24.419  27.872   8.091
 2138POPC   C4A28782  24.544  27.637   7.737
 2138POPC   C1B28783  24.136  27.350   8.783
 2138POPC   C2B28784  24.362  27.535   8.482
 2138POPC   C3B28785  24.444  27.345   8.140
 2138POPC   C4B28786  24.119  27.408   7.807
 2139POPC   NC328787  43.068  21.037   9.447
 2139POPC   PO428788  43.200  21.649   9.488
 2139POPC   GL128789  42.976  21.556   9.118
 2139POPC   GL228790  42.888  21.234   9.008
 2139POPC   C1A28791  43.011  21.629   8.703
 2139POPC   D2A28792  42.938  21.340   8.406
 2139POPC   C3A28793  43.056  21.543   8.056
 2139POPC   C4A28794  42.886  21.368   7.708
 2139POPC   C1B28795  43.282  21.158   8.770
 2139POPC   C2B28796  43.417  21.021   8.355
 2139POPC   C3B28797  43.214  21.042   7.989
 2139POPC   C4B28798  43.371  21.175   7.623
 2140POPC   NC328799  18.360  35.370   9.628
 2140POPC   PO428800  17.852  35.729   9.665
 2140POPC   GL128801  18.005  35.434   9.272
 2140POPC   GL228802  18.400  35.404   9.132
 2140POPC   C1A28803  17.889  35.350   8.833
 2140POPC   D2A28804  18.109  35.524   8.467
 2140POPC   C3A28805  18.006  35.479   8.049
 2140POPC   C4A28806  17.871  35.106   7.850
 2140POPC   C1B28807  18.389  35.201   8.768
 2140POPC   C2B28808  18.500  35.224   8.362
 2140POPC   C3B28809  18.564  35.534   8.089
 2140POPC   C4B28810  18.659  35.280   7.773
 2141POPC   NC328811   3.226  38.387   9.543
 2141POPC   PO428812   3.697  38.027   9.372
 2141POPC   GL128813   3.566  38.322   9.093
 2141POPC   GL228814   3.849  38.532   8.984
 2141POPC   C1A28815   3.522  38.326   8.654
 2141POPC   D2A28816   3.513  38.581   8.309
 2141POPC   C3A28817   3.793  38.394   8.066
 2141POPC   C4A28818   3.486  38.260   7.769
 2141POPC   C1B28819   3.678  38.823   8.722
 2141POPC   C2B28820   3.778  39.023   8.350
 2141POPC   C3B28821   3.628  38.907   7.911
 2141POPC   C4B28822   3.795  38.618   7.621
 2142POPC   NC328823  27.451  39.290   9.419
 2142POPC   PO428824  27.928  38.921   9.477
 2142POPC   GL128825  27.832  39.098   9.095
 2142POPC   GL228826  27.901  39.435   9.152
 2142POPC   C1A28827  27.675  39.055   8.662
 2142POPC   D2A28828  27.474  38.921   8.268
 2142POPC   C3A28829  27.574  39.172   7.902
 2142POPC   C4A28830  27.918  39.118   7.605
 2142POPC   C1B28831  27.648  39.541   8.778
 2142POPC   C2B28832  27.732  39.566   8.321
 2142POPC   C3B28833  27.985  39.487   7.952
 2142POPC   C4B28834  28.179  39.558   7.554
 2143POPC   NC328835  14.529  12.790   9.859
 2143POPC   PO428836  14.564  12.628   9.243
 2143POPC   GL128837  14.362  12.919   9.040
 2143POPC   GL228838  14.191  12.648   8.878
 2143POPC   C1A28839  14.480  12.964   8.623
 2143POPC   D2A28840  14.285  12.724   8.361
 2143POPC   C3A28841  14.461  12.895   8.047
 2143POPC   C4A28842  14.349  12.984   7.657
 2143POPC   C1B28843  14.110  12.260   8.716
 2143POPC   C2B28844  13.923  12.334   8.362
 2143POPC   C3B28845  14.076  12.372   8.006
 2143POPC   C4B28846  14.403  12.489   7.763
 2144POPC   NC328847   3.995  28.304   9.442
 2144POPC   PO428848   4.593  28.520   9.463
 2144POPC   GL128849   4.376  28.442   9.092
 2144POPC   GL228850   4.265  28.103   9.078
 2144POPC   C1A28851   4.494  28.373   8.663
 2144POPC   D2A28852   4.578  28.534   8.254
 2144POPC   C3A28853   4.390  28.414   7.873
 2144POPC   C4A28854   4.243  28.639   7.518
 2144POPC   C1B28855   3.982  28.296   8.757
 2144POPC   C2B28856   4.076  28.391   8.331
 2144POPC   C3B28857   3.899  28.473   7.945
 2144POPC   C4B28858   3.995  28.166   7.606
 2145POPC   NC328859  15.001  25.011   9.834
 2145POPC   PO428860  14.481  25.096   9.477
 2145POPC   GL128861  14.596  25.326   9.120
 2145POPC   GL228862  14.274  25.383   9.089
 2145POPC   C1A28863  14.525  25.465   8.681
 2145POPC   D2A28864  14.548  25.270   8.315
 2145POPC   C3A28865  14.721  25.587   8.120
 2145POPC   C4A28866  14.667  25.429   7.763
 2145POPC   C1B28867  14.117  25.111   8.836
 2145POPC   C2B28868  14.101  25.019   8.438
 2145POPC   C3B28869  14.090  25.137   8.039
 2145POPC   C4B28870  14.154  25.393   7.677
 2146POPC   NC328871   1.732  40.921   9.517
 2146POPC   PO428872   2.241  40.363   9.397
 2146POPC   GL128873   1.898  40.559   9.179
 2146POPC   GL228874   2.037  40.885   9.133
 2146POPC   C1A28875   1.766  40.631   8.759
 2146POPC   D2A28876   1.865  40.489   8.359
 2146POPC   C3A28877   1.917  40.812   8.095
 2146POPC   C4A28878   1.919  40.978   7.694
 2146POPC   C1B28879   2.007  41.130   8.794
 2146POPC   C2B28880   2.249  41.119   8.434
 2146POPC   C3B28881   2.282  41.208   8.034
 2146POPC   C4B28882   2.393  41.191   7.657
 2147POPC   NC328883  23.368  41.709   9.471
 2147POPC   PO428884  23.997  41.495   9.588
 2147POPC   GL128885  23.953  41.586   9.134
 2147POPC   GL228886  23.633  41.737   8.975
 2147POPC   C1A28887  24.088  41.653   8.696
 2147POPC   D2A28888  23.725  41.643   8.413
 2147POPC   C3A28889  23.811  41.554   7.982
 2147POPC   C4A28890  23.462  41.475   7.705
 2147POPC   C1B28891  23.819  42.075   8.668
 2147POPC   C2B28892  23.898  42.062   8.171
 2147POPC   C3B28893  23.838  41.982   7.698
 2147POPC   C4B28894  23.973  42.072   7.263
 2148POPC   NC328895  39.719  29.627   9.713
 2148POPC   PO428896  39.665  28.953   9.457
 2148POPC   GL128897  39.828  28.965   9.056
 2148POPC   GL228898  40.171  29.081   9.074
 2148POPC   C1A28899  39.747  29.156   8.647
 2148POPC   D2A28900  39.900  29.136   8.234
 2148POPC   C3A28901  39.794  29.404   7.900
 2148POPC   C4A28902  39.913  29.288   7.499
 2148POPC   C1B28903  40.308  29.311   8.686
 2148POPC   C2B28904  40.381  29.287   8.243
 2148POPC   C3B28905  40.304  29.316   7.837
 2148POPC   C4B28906  40.090  28.918   7.795
 2149POPC   NC328907  16.265  23.013   9.433
 2149POPC   PO428908  15.630  23.329   9.545
 2149POPC   GL128909  15.787  23.185   9.143
 2149POPC   GL228910  15.797  22.821   9.152
 2149POPC   C1A28911  16.009  23.025   8.744
 2149POPC   D2A28912  15.832  22.797   8.390
 2149POPC   C3A28913  15.947  23.010   8.011
 2149POPC   C4A28914  16.350  23.012   7.845
 2149POPC   C1B28915  15.565  22.576   8.823
 2149POPC   C2B28916  15.443  22.411   8.388
 2149POPC   C3B28917  15.589  22.546   7.978
 2149POPC   C4B28918  16.032  22.566   7.802
 2150POPC   NC328919  22.407  20.471   9.541
 2150POPC   PO428920  21.859  20.882   9.652
 2150POPC   GL128921  22.010  20.748   9.231
 2150POPC   GL228922  22.355  20.662   9.076
 2150POPC   C1A28923  21.968  20.554   8.803
 2150POPC   D2A28924  22.256  20.541   8.456
 2150POPC   C3A28925  22.040  20.584   8.079
 2150POPC   C4A28926  22.142  20.477   7.670
 2150POPC   C1B28927  22.373  20.976   8.760
 2150POPC   C2B28928  22.255  21.077   8.348
 2150POPC   C3B28929  22.365  20.968   7.915
 2150POPC   C4B28930  22.486  20.947   7.436
 2151POPC   NC328931   9.346   8.614   9.318
 2151POPC   PO428932   9.985   8.885   9.336
 2151POPC   GL128933   9.902   9.180   8.992
 2151POPC   GL228934   9.604   9.295   9.051
 2151POPC   C1A28935   9.841   9.187   8.578
 2151POPC   D2A28936   9.824   8.802   8.430
 2151POPC   C3A28937  10.044   8.764   8.084
 2151POPC   C4A28938   9.848   8.873   7.734
 2151POPC   C1B28939   9.409   9.414   8.739
 2151POPC   C2B28940   9.350   9.033   8.491
 2151POPC   C3B28941   9.535   9.103   8.094
 2151POPC   C4B28942   9.441   9.424   7.767
 2152POPC   NC328943  23.129  42.874   9.334
 2152POPC   PO428944  23.208  42.158   9.490
 2152POPC   GL128945  22.964  42.199   9.141
 2152POPC   GL228946  23.047  42.487   9.036
 2152POPC   C1A28947  22.608  42.278   8.874
 2152POPC   D2A28948  22.599  42.218   8.450
 2152POPC   C3A28949  22.937  42.211   8.194
 2152POPC   C4A28950  22.867  42.338   7.790
 2152POPC   C1B28951  23.349  42.654   8.764
 2152POPC   C2B28952  23.244  42.557   8.388
 2152POPC   C3B28953  23.095  42.705   8.028
 2152POPC   C4B28954  23.265  42.616   7.613
 2153POPC   NC328955  31.917  19.952   9.400
 2153POPC   PO428956  32.482  19.564   9.479
 2153POPC   GL128957  32.326  19.827   9.112
 2153POPC   GL228958  32.044  19.601   9.034
 2153POPC   C1A28959  32.049  20.072   8.768
 2153POPC   D2A28960  31.971  20.256   8.334
 2153POPC   C3A28961  32.249  20.077   8.020
 2153POPC   C4A28962  32.226  19.724   7.750
 2153POPC   C1B28963  32.289  19.629   8.636
 2153POPC   C2B28964  32.219  19.414   8.252
 2153POPC   C3B28965  32.511  19.344   7.963
 2153POPC   C4B28966  32.739  19.580   7.737
 2154POPC   NC328967   7.194  30.860   9.404
 2154POPC   PO428968   7.780  30.581   9.404
 2154POPC   GL128969   7.490  30.558   9.095
 2154POPC   GL228970   7.203  30.365   9.144
 2154POPC   C1A28971   7.515  30.530   8.682
 2154POPC   D2A28972   7.762  30.741   8.414
 2154POPC   C3A28973   7.575  30.855   8.063
 2154POPC   C4A28974   7.609  30.929   7.635
 2154POPC   C1B28975   7.008  30.418   8.747
 2154POPC   C2B28976   6.822  30.298   8.337
 2154POPC   C3B28977   6.978  30.191   7.952
 2154POPC   C4B28978   7.275  30.508   7.832
 2155POPC   NC328979  16.893  30.586   9.376
 2155POPC   PO428980  16.158  30.527   9.442
 2155POPC   GL128981  16.249  30.642   9.049
 2155POPC   GL228982  16.531  30.432   9.049
 2155POPC   C1A28983  16.472  30.872   8.723
 2155POPC   D2A28984  16.839  30.906   8.457
 2155POPC   C3A28985  16.790  30.739   8.043
 2155POPC   C4A28986  17.000  30.467   7.749
 2155POPC   C1B28987  16.395  30.226   8.690
 2155POPC   C2B28988  16.386  30.452   8.303
 2155POPC   C3B28989  16.524  30.291   7.900
 2155POPC   C4B28990  16.453  30.389   7.470
 2156POPC   NC328991   7.534  43.288   9.588
 2156POPC   PO428992   6.876  43.191   9.573
 2156POPC   GL128993   7.212  43.114   9.249
 2156POPC   GL228994   7.423  43.403   9.120
 2156POPC   C1A28995   7.177  43.019   8.830
 2156POPC   D2A28996   7.445  42.893   8.513
 2156POPC   C3A28997   7.399  43.069   8.111
 2156POPC   C4A28998   7.240  42.910   7.731
 2156POPC   C1B28999   7.542  43.354   8.721
 2156POPC   C2B29000   7.195  43.381   8.457
 2156POPC   C3B29001   7.125  43.491   8.017
 2156POPC   C4B29002   7.520  43.438   7.775
 2157POPC   NC329003  38.223  19.722   9.502
 2157POPC   PO429004  38.861  19.893   9.794
 2157POPC   GL129005  38.654  19.909   9.336
 2157POPC   GL229006  38.670  19.574   9.169
 2157POPC   C1A29007  38.463  19.928   8.885
 2157POPC   D2A29008  38.657  19.766   8.491
 2157POPC   C3A29009  38.500  19.900   8.096
 2157POPC   C4A29010  38.542  19.829   7.641
 2157POPC   C1B29011  38.395  19.434   8.805
 2157POPC   C2B29012  38.252  19.492   8.368
 2157POPC   C3B29013  38.374  19.417   7.967
 2157POPC   C4B29014  38.171  19.471   7.596
 2158POPC   NC329015  40.307  19.839   9.621
 2158POPC   PO429016  40.794  19.443   9.618
 2158POPC   GL129017  40.613  19.607   9.217
 2158POPC   GL229018  40.768  19.921   9.140
 2158POPC   C1A29019  40.513  19.768   8.738
 2158POPC   D2A29020  40.708  19.857   8.344
 2158POPC   C3A29021  40.466  19.752   7.989
 2158POPC   C4A29022  40.532  19.575   7.587
 2158POPC   C1B29023  41.036  19.857   8.756
 2158POPC   C2B29024  41.243  19.642   8.431
 2158POPC   C3B29025  41.045  19.613   8.040
 2158POPC   C4B29026  40.896  19.904   7.743
 2159POPC   NC329027  32.825  31.947   9.661
 2159POPC   PO429028  32.989  32.563   9.514
 2159POPC   GL129029  32.829  32.248   9.211
 2159POPC   GL229030  33.177  32.255   9.141
 2159POPC   C1A29031  32.957  32.062   8.758
 2159POPC   D2A29032  33.139  32.174   8.369
 2159POPC   C3A29033  32.902  32.124   7.956
 2159POPC   C4A29034  32.936  32.080   7.504
 2159POPC   C1B29035  32.964  32.573   8.842
 2159POPC   C2B29036  32.932  32.743   8.447
 2159POPC   C3B29037  33.086  32.576   8.084
 2159POPC   C4B29038  33.038  32.660   7.668
 2160POPC   NC329039   9.094  24.079   9.466
 2160POPC   PO429040   8.711  23.530   9.449
 2160POPC   GL129041   8.950  23.701   9.077
 2160POPC   GL229042   9.184  23.981   8.977
 2160POPC   C1A29043   8.841  23.748   8.643
 2160POPC   D2A29044   9.036  23.867   8.245
 2160POPC   C3A29045   8.940  23.724   7.871
 2160POPC   C4A29046   9.019  23.659   7.415
 2160POPC   C1B29047   9.359  23.759   8.635
 2160POPC   C2B29048   9.412  23.504   8.247
 2160POPC   C3B29049   9.389  23.515   7.793
 2160POPC   C4B29050   9.535  23.822   7.458
 2161POPC   NC329051  40.205  42.139   9.618
 2161POPC   PO429052  40.797  42.455   9.523
 2161POPC   GL129053  40.838  42.429   9.117
 2161POPC   GL229054  40.692  42.105   9.116
 2161POPC   C1A29055  40.897  42.243   8.690
 2161POPC   D2A29056  40.879  42.021   8.332
 2161POPC   C3A29057  40.864  42.265   7.978
 2161POPC   C4A29058  40.848  42.614   7.766
 2161POPC   C1B29059  40.402  42.022   8.797
 2161POPC   C2B29060  40.411  41.824   8.377
 2161POPC   C3B29061  40.389  42.064   8.022
 2161POPC   C4B29062  40.407  42.381   7.739
 2162POPC   NC329063  11.251  35.953   9.975
 2162POPC   PO429064  11.026  36.035   9.372
 2162POPC   GL129065  11.219  36.103   9.026
 2162POPC   GL229066  11.119  36.417   8.889
 2162POPC   C1A29067  11.200  35.925   8.622
 2162POPC   D2A29068  11.191  36.192   8.285
 2162POPC   C3A29069  11.162  36.003   7.889
 2162POPC   C4A29070  11.249  36.177   7.507
 2162POPC   C1B29071  11.527  36.294   8.687
 2162POPC   C2B29072  11.666  36.032   8.345
 2162POPC   C3B29073  11.654  36.162   7.932
 2162POPC   C4B29074  11.745  36.023   7.504
 2163POPC   NC329075  35.365   2.376   9.409
 2163POPC   PO429076  35.042   2.850   9.697
 2163POPC   GL129077  35.166   2.807   9.211
 2163POPC   GL229078  35.473   3.036   9.208
 2163POPC   C1A29079  35.274   2.555   8.799
 2163POPC   D2A29080  35.092   2.656   8.428
 2163POPC   C3A29081  35.254   2.606   8.019
 2163POPC   C4A29082  35.454   2.666   7.621
 2163POPC   C1B29083  35.414   3.036   8.752
 2163POPC   C2B29084  35.492   2.972   8.319
 2163POPC   C3B29085  35.252   3.126   7.965
 2163POPC   C4B29086  35.296   3.166   7.557
 2164POPC   NC329087  11.981  31.068   9.436
 2164POPC   PO429088  12.128  30.449   9.455
 2164POPC   GL129089  11.897  30.652   9.137
 2164POPC   GL229090  12.211  30.798   9.076
 2164POPC   C1A29091  11.858  30.537   8.708
 2164POPC   D2A29092  11.891  30.266   8.335
 2164POPC   C3A29093  11.868  30.515   7.962
 2164POPC   C4A29094  12.221  30.555   7.695
 2164POPC   C1B29095  12.097  30.979   8.702
 2164POPC   C2B29096  11.967  30.909   8.303
 2164POPC   C3B29097  12.077  31.033   7.883
 2164POPC   C4B29098  11.875  30.917   7.539
 2165POPC   NC329099  41.864  23.628   9.232
 2165POPC   PO429100  42.454  23.631   9.528
 2165POPC   GL129101  42.465  23.717   9.127
 2165POPC   GL229102  42.712  23.970   9.146
 2165POPC   C1A29103  42.411  23.545   8.736
 2165POPC   D2A29104  42.120  23.413   8.436
 2165POPC   C3A29105  42.245  23.471   8.053
 2165POPC   C4A29106  42.242  23.672   7.706
 2165POPC   C1B29107  42.655  24.008   8.718
 2165POPC   C2B29108  42.567  23.838   8.320
 2165POPC   C3B29109  42.616  23.993   7.886
 2165POPC   C4B29110  42.619  23.932   7.421
 2166POPC   NC329111   7.686  14.338   9.503
 2166POPC   PO429112   7.102  14.560   9.579
 2166POPC   GL129113   7.254  14.430   9.171
 2166POPC   GL229114   7.339  14.069   9.104
 2166POPC   C1A29115   7.228  14.685   8.792
 2166POPC   D2A29116   7.536  14.786   8.488
 2166POPC   C3A29117   7.343  14.845   8.106
 2166POPC   C4A29118   7.211  14.543   7.810
 2166POPC   C1B29119   7.467  14.245   8.674
 2166POPC   C2B29120   7.484  14.331   8.221
 2166POPC   C3B29121   7.708  14.357   7.828
 2166POPC   C4B29122   7.431  14.158   7.544
 2167POPC   NC329123   5.352  31.954   9.563
 2167POPC   PO429124   5.330  31.309   9.432
 2167POPC   GL129125   4.966  31.469   9.195
 2167POPC   GL229126   5.038  31.815   9.133
 2167POPC   C1A29127   4.826  31.368   8.782
 2167POPC   D2A29128   5.042  31.122   8.462
 2167POPC   C3A29129   5.053  31.252   8.057
 2167POPC   C4A29130   4.786  31.332   7.734
 2167POPC   C1B29131   5.103  31.783   8.693
 2167POPC   C2B29132   4.871  31.642   8.332
 2167POPC   C3B29133   5.044  31.755   7.940
 2167POPC   C4B29134   4.915  32.152   7.769
 2168POPC   NC329135  19.334  16.073   9.730
 2168POPC   PO429136  18.762  15.944   9.819
 2168POPC   GL129137  18.987  16.184   9.320
 2168POPC   GL229138  18.703  16.100   9.031
 2168POPC   C1A29139  19.145  16.197   8.835
 2168POPC   D2A29140  18.941  16.169   8.401
 2168POPC   C3A29141  19.164  16.075   7.999
 2168POPC   C4A29142  19.159  16.348   7.602
 2168POPC   C1B29143  18.829  15.768   8.704
 2168POPC   C2B29144  18.658  15.737   8.297
 2168POPC   C3B29145  18.661  16.045   7.971
 2168POPC   C4B29146  18.872  15.920   7.604
 2169POPC   NC329147   0.043  24.223   9.287
 2169POPC   PO429148  44.409  24.409   9.433
 2169POPC   GL129149  44.560  24.432   9.043
 2169POPC   GL229150  44.824  24.670   9.097
 2169POPC   C1A29151  44.775  24.312   8.655
 2169POPC   D2A29152   0.003  24.459   8.284
 2169POPC   C3A29153  44.852  24.170   7.951
 2169POPC   C4A29154  44.464  24.231   7.689
 2169POPC   C1B29155  44.623  24.800   8.697
 2169POPC   C2B29156  44.228  24.813   8.441
 2169POPC   C3B29157  44.291  24.672   7.999
 2169POPC   C4B29158  44.717  24.667   7.828
 2170POPC   NC329159   6.399  20.989   9.440
 2170POPC   PO429160   6.551  20.416   9.725
 2170POPC   GL129161   6.321  20.465   9.289
 2170POPC   GL229162   6.465  20.750   9.019
 2170POPC   C1A29163   6.266  20.342   8.829
 2170POPC   D2A29164   6.574  20.386   8.475
 2170POPC   C3A29165   6.363  20.493   8.083
 2170POPC   C4A29166   6.500  20.329   7.702
 2170POPC   C1B29167   6.706  20.855   8.663
 2170POPC   C2B29168   6.630  20.902   8.233
 2170POPC   C3B29169   6.769  20.812   7.799
 2170POPC   C4B29170   6.731  20.949   7.346
 2171POPC   NC329171  31.725  32.265   9.607
 2171POPC   PO429172  32.355  32.079   9.563
 2171POPC   GL129173  32.313  32.119   9.158
 2171POPC   GL229174  32.271  32.481   9.106
 2171POPC   C1A29175  32.130  32.019   8.775
 2171POPC   D2A29176  32.101  32.284   8.442
 2171POPC   C3A29177  31.919  32.160   8.074
 2171POPC   C4A29178  32.080  32.323   7.702
 2171POPC   C1B29179  32.527  32.340   8.764
 2171POPC   C2B29180  32.643  32.328   8.354
 2171POPC   C3B29181  32.602  32.639   8.021
 2171POPC   C4B29182  32.574  32.451   7.674
 2172POPC   NC329183  24.544  26.516   9.295
 2172POPC   PO429184  24.155  27.003   9.481
 2172POPC   GL129185  24.241  26.855   9.037
 2172POPC   GL229186  24.582  26.943   9.030
 2172POPC   C1A29187  24.443  26.574   8.682
 2172POPC   D2A29188  24.823  26.539   8.423
 2172POPC   C3A29189  24.673  26.746   8.061
 2172POPC   C4A29190  24.436  26.594   7.690
 2172POPC   C1B29191  24.538  27.069   8.627
 2172POPC   C2B29192  24.186  26.942   8.392
 2172POPC   C3B29193  24.191  26.934   7.967
 2172POPC   C4B29194  24.547  27.104   7.710
 2173POPC   NC329195   3.960   5.746   9.429
 2173POPC   PO429196   4.541   5.303   9.491
 2173POPC   GL129197   4.485   5.652   9.168
 2173POPC   GL229198   4.343   5.999   9.172
 2173POPC   C1A29199   4.576   5.732   8.733
 2173POPC   D2A29200   4.508   5.548   8.326
 2173POPC   C3A29201   4.634   5.848   8.002
 2173POPC   C4A29202   4.587   6.098   7.629
 2173POPC   C1B29203   4.102   5.936   8.783
 2173POPC   C2B29204   4.224   5.986   8.366
 2173POPC   C3B29205   4.126   5.775   8.002
 2173POPC   C4B29206   3.850   5.802   7.689
 2174POPC   NC329207  28.238  35.083   9.583
 2174POPC   PO429208  28.418  35.718   9.566
 2174POPC   GL129209  28.349  35.557   9.150
 2174POPC   GL229210  28.433  35.183   9.126
 2174POPC   C1A29211  28.270  35.450   8.727
 2174POPC   D2A29212  28.295  35.159   8.399
 2174POPC   C3A29213  28.283  35.404   8.096
 2174POPC   C4A29214  28.332  35.677   7.788
 2174POPC   C1B29215  28.717  35.147   8.788
 2174POPC   C2B29216  28.750  34.948   8.404
 2174POPC   C3B29217  28.715  35.121   8.023
 2174POPC   C4B29218  28.398  35.125   7.689
 2175POPC   NC329219  44.258  28.001   9.388
 2175POPC   PO429220  44.657  28.411   9.684
 2175POPC   GL129221  44.681  28.370   9.242
 2175POPC   GL229222  44.352  28.412   9.125
 2175POPC   C1A29223  44.723  28.517   8.805
 2175POPC   D2A29224  44.782  28.305   8.464
 2175POPC   C3A29225  44.821  28.434   8.124
 2175POPC   C4A29226  44.946  28.463   7.729
 2175POPC   C1B29227  44.289  28.259   8.685
 2175POPC   C2B29228  44.439  27.952   8.369
 2175POPC   C3B29229  44.524  28.055   7.931
 2175POPC   C4B29230  44.418  28.512   7.851
 2176POPC   NC329231  20.797  14.947   9.503
 2176POPC   PO429232  20.311  15.343   9.555
 2176POPC   GL129233  20.618  15.317   9.210
 2176POPC   GL229234  20.438  15.016   9.135
 2176POPC   C1A29235  20.792  15.144   8.786
 2176POPC   D2A29236  20.899  14.980   8.344
 2176POPC   C3A29237  20.711  15.190   7.956
 2176POPC   C4A29238  20.683  15.028   7.500
 2176POPC   C1B29239  20.284  15.305   8.830
 2176POPC   C2B29240  20.237  15.537   8.440
 2176POPC   C3B29241  20.200  15.418   8.026
 2176POPC   C4B29242  20.389  15.423   7.615
 2177POPC   NC329243  28.929  41.436   9.442
 2177POPC   PO429244  29.283  41.986   9.494
 2177POPC   GL129245  29.145  41.774   9.119
 2177POPC   GL229246  29.253  41.419   9.057
 2177POPC   C1A29247  28.993  41.693   8.701
 2177POPC   D2A29248  29.177  41.758   8.315
 2177POPC   C3A29249  29.073  41.541   7.974
 2177POPC   C4A29250  29.000  41.648   7.586
 2177POPC   C1B29251  29.556  41.284   8.784
 2177POPC   C2B29252  29.381  41.239   8.415
 2177POPC   C3B29253  29.500  41.268   8.030
 2177POPC   C4B29254  29.273  41.199   7.643
 2178POPC   NC329255   1.030  20.978   9.512
 2178POPC   PO429256   1.323  21.644   9.476
 2178POPC   GL129257   1.209  21.368   9.174
 2178POPC   GL229258   1.503  21.207   9.054
 2178POPC   C1A29259   1.137  21.474   8.740
 2178POPC   D2A29260   1.032  21.271   8.363
 2178POPC   C3A29261   0.875  21.535   8.029
 2178POPC   C4A29262   0.887  21.326   7.647
 2178POPC   C1B29263   1.601  21.011   8.679
 2178POPC   C2B29264   1.523  21.158   8.285
 2178POPC   C3B29265   1.308  21.201   7.921
 2178POPC   C4B29266   1.472  21.173   7.506
 2179POPC   NC329267  36.166   2.377   9.627
 2179POPC   PO429268  35.581   1.973   9.459
 2179POPC   GL129269  35.958   1.787   9.193
 2179POPC   GL229270  36.238   1.982   9.137
 2179POPC   C1A29271  36.045   1.695   8.740
 2179POPC   D2A29272  36.078   1.937   8.380
 2179POPC   C3A29273  36.154   1.741   8.045
 2179POPC   C4A29274  36.215   1.747   7.642
 2179POPC   C1B29275  36.036   2.241   8.784
 2179POPC   C2B29276  36.149   2.435   8.350
 2179POPC   C3B29277  36.090   2.233   7.915
 2179POPC   C4B29278  36.260   2.210   7.467
 2180POPC   NC329279  27.774  34.536   9.529
 2180POPC   PO429280  27.080  34.314   9.490
 2180POPC   GL129281  27.391  34.495   9.154
 2180POPC   GL229282  27.752  34.376   9.045
 2180POPC   C1A29283  27.411  34.581   8.691
 2180POPC   D2A29284  27.679  34.488   8.307
 2180POPC   C3A29285  27.422  34.642   7.980
 2180POPC   C4A29286  27.277  34.867   7.624
 2180POPC   C1B29287  27.821  34.809   8.885
 2180POPC   C2B29288  27.836  34.948   8.464
 2180POPC   C3B29289  27.962  34.908   8.054
 2180POPC   C4B29290  27.786  34.843   7.665
 2181POPC   NC329291  24.459  14.752   9.446
 2181POPC   PO429292  24.294  14.102   9.326
 2181POPC   GL129293  24.527  14.378   9.066
 2181POPC   GL229294  24.727  14.697   9.027
 2181POPC   C1A29295  24.398  14.467   8.675
 2181POPC   D2A29296  24.331  14.286   8.305
 2181POPC   C3A29297  24.366  14.526   7.947
 2181POPC   C4A29298  24.459  14.310   7.580
 2181POPC   C1B29299  24.972  14.618   8.689
 2181POPC   C2B29300  24.890  14.307   8.396
 2181POPC   C3B29301  24.829  14.311   7.969
 2181POPC   C4B29302  24.791  14.672   7.676
 2182POPC   NC329303  32.402  25.172   9.441
 2182POPC   PO429304  31.834  25.366   9.452
 2182POPC   GL129305  32.098  25.427   9.109
 2182POPC   GL229306  32.400  25.631   9.175
 2182POPC   C1A29307  32.323  25.336   8.727
 2182POPC   D2A29308  32.181  25.118   8.345
 2182POPC   C3A29309  32.363  25.129   7.922
 2182POPC   C4A29310  32.137  25.142   7.536
 2182POPC   C1B29311  32.160  25.840   8.832
 2182POPC   C2B29312  31.993  25.642   8.466
 2182POPC   C3B29313  32.055  25.532   8.027
 2182POPC   C4B29314  32.326  25.587   7.679
 2183POPC   NC329315  17.828  17.897   9.405
 2183POPC   PO429316  17.210  17.739   9.568
 2183POPC   GL129317  17.466  17.552   9.204
 2183POPC   GL229318  17.729  17.301   9.110
 2183POPC   C1A29319  17.318  17.356   8.826
 2183POPC   D2A29320  17.398  17.542   8.422
 2183POPC   C3A29321  17.370  17.263   8.076
 2183POPC   C4A29322  17.377  17.447   7.677
 2183POPC   C1B29323  17.773  17.606   8.785
 2183POPC   C2B29324  17.913  17.637   8.366
 2183POPC   C3B29325  17.718  17.684   7.979
 2183POPC   C4B29326  17.854  17.478   7.607
 2184POPC   NC329327   8.660  14.045   9.317
 2184POPC   PO429328   8.144  14.243   9.614
 2184POPC   GL129329   8.214  14.257   9.181
 2184POPC   GL229330   8.422  14.519   9.219
 2184POPC   C1A29331   8.049  14.340   8.776
 2184POPC   D2A29332   7.937  14.463   8.372
 2184POPC   C3A29333   8.147  14.216   8.114
 2184POPC   C4A29334   8.246  14.196   7.727
 2184POPC   C1B29335   8.461  14.642   8.810
 2184POPC   C2B29336   8.438  14.540   8.424
 2184POPC   C3B29337   8.584  14.466   8.057
 2184POPC   C4B29338   8.566  14.574   7.669
 2185POPC   NC329339   7.351  12.618   9.922
 2185POPC   PO429340   7.181  13.060   9.300
 2185POPC   GL129341   7.197  12.868   8.952
 2185POPC   GL229342   7.524  12.801   9.020
 2185POPC   C1A29343   7.323  12.768   8.546
 2185POPC   D2A29344   7.585  12.963   8.275
 2185POPC   C3A29345   7.384  12.885   7.933
 2185POPC   C4A29346   7.339  13.128   7.613
 2185POPC   C1B29347   7.709  12.513   8.732
 2185POPC   C2B29348   7.799  12.499   8.311
 2185POPC   C3B29349   7.727  12.487   7.884
 2185POPC   C4B29350   7.580  12.680   7.517
 2186POPC   NC329351  19.789  38.266   9.513
 2186POPC   PO429352  19.815  38.953   9.450
 2186POPC   GL129353  19.785  38.627   9.144
 2186POPC   GL229354  20.072  38.376   9.110
 2186POPC   C1A29355  19.781  38.544   8.717
 2186POPC   D2A29356  19.808  38.742   8.342
 2186POPC   C3A29357  19.798  38.535   7.968
 2186POPC   C4A29358  19.950  38.719   7.602
 2186POPC   C1B29359  20.057  38.112   8.752
 2186POPC   C2B29360  20.258  38.099   8.349
 2186POPC   C3B29361  20.075  38.056   7.954
 2186POPC   C4B29362  19.980  38.212   7.554
 2187POPC   NC329363  14.768  16.518   9.437
 2187POPC   PO429364  14.280  16.861   9.628
 2187POPC   GL129365  14.183  16.753   9.166
 2187POPC   GL229366  14.536  16.786   9.082
 2187POPC   C1A29367  14.238  16.950   8.701
 2187POPC   D2A29368  14.139  17.021   8.263
 2187POPC   C3A29369  14.382  16.929   7.890
 2187POPC   C4A29370  14.229  16.876   7.465
 2187POPC   C1B29371  14.460  16.493   8.748
 2187POPC   C2B29372  14.570  16.623   8.333
 2187POPC   C3B29373  14.711  16.506   7.938
 2187POPC   C4B29374  14.533  16.500   7.537
 2188POPC   NC329375  43.674   3.812   9.447
 2188POPC   PO429376  43.891   3.131   9.518
 2188POPC   GL129377  43.879   3.383   9.146
 2188POPC   GL229378  44.142   3.624   9.210
 2188POPC   C1A29379  43.738   3.499   8.718
 2188POPC   D2A29380  43.668   3.683   8.299
 2188POPC   C3A29381  43.704   3.433   7.911
 2188POPC   C4A29382  43.698   3.573   7.445
 2188POPC   C1B29383  44.109   3.856   8.805
 2188POPC   C2B29384  44.173   3.699   8.382
 2188POPC   C3B29385  44.059   3.772   7.958
 2188POPC   C4B29386  44.158   3.518   7.631
 2189POPC   NC329387  28.306   8.679   9.480
 2189POPC   PO429388  28.831   9.091   9.475
 2189POPC   GL129389  28.517   8.962   9.081
 2189POPC   GL229390  28.127   8.801   9.025
 2189POPC   C1A29391  28.314   9.092   8.664
 2189POPC   D2A29392  28.177   9.014   8.223
 2189POPC   C3A29393  28.568   8.933   7.991
 2189POPC   C4A29394  28.862   9.244   7.852
 2189POPC   C1B29395  28.200   8.579   8.656
 2189POPC   C2B29396  28.030   8.493   8.245
 2189POPC   C3B29397  28.107   8.657   7.841
 2189POPC   C4B29398  28.204   9.076   7.681
 2190POPC   NC329399  10.292  32.084   9.480
 2190POPC   PO429400  10.829  32.517   9.379
 2190POPC   GL129401  10.489  32.428   9.136
 2190POPC   GL229402  10.495  32.125   9.004
 2190POPC   C1A29403  10.373  32.531   8.725
 2190POPC   D2A29404  10.365  32.292   8.343
 2190POPC   C3A29405  10.553  32.553   8.008
 2190POPC   C4A29406  10.819  32.537   7.646
 2190POPC   C1B29407  10.529  31.853   8.661
 2190POPC   C2B29408  10.481  31.700   8.280
 2190POPC   C3B29409  10.610  32.014   7.981
 2190POPC   C4B29410  10.353  32.114   7.680
 2191POPC   NC329411  12.224  22.041   9.470
 2191POPC   PO429412  11.554  22.152   9.481
 2191POPC   GL129413  11.822  22.081   9.152
 2191POPC   GL229414  12.006  22.390   9.176
 2191POPC   C1A29415  12.119  22.068   8.806
 2191POPC   D2A29416  11.972  22.163   8.424
 2191POPC   C3A29417  12.293  22.016   8.188
 2191POPC   C4A29418  12.234  22.026   7.782
 2191POPC   C1B29419  12.353  22.507   8.900
 2191POPC   C2B29420  12.375  22.487   8.449
 2191POPC   C3B29421  12.152  22.494   8.056
 2191POPC   C4B29422  12.327  22.515   7.657
 2192POPC   NC329423  20.125  28.201   9.481
 2192POPC   PO429424  20.803  28.292   9.486
 2192POPC   GL129425  20.683  28.450   9.107
 2192POPC   GL229426  20.320  28.578   9.192
 2192POPC   C1A29427  20.929  28.413   8.709
 2192POPC   D2A29428  21.100  28.170   8.354
 2192POPC   C3A29429  20.971  28.450   8.051
 2192POPC   C4A29430  20.599  28.335   7.897
 2192POPC   C1B29431  20.364  28.600   8.757
 2192POPC   C2B29432  20.568  28.602   8.383
 2192POPC   C3B29433  20.585  28.837   8.046
 2192POPC   C4B29434  20.455  28.765   7.663
 2193POPC   NC329435  18.973  32.814   9.505
 2193POPC   PO429436  19.054  33.511   9.461
 2193POPC   GL129437  18.951  33.169   9.133
 2193POPC   GL229438  19.221  32.855   9.083
 2193POPC   C1A29439  18.844  32.912   8.767
 2193POPC   D2A29440  19.089  32.942   8.412
 2193POPC   C3A29441  18.868  32.945   8.066
 2193POPC   C4A29442  19.042  33.077   7.710
 2193POPC   C1B29443  19.259  32.559   8.723
 2193POPC   C2B29444  19.356  32.484   8.289
 2193POPC   C3B29445  19.316  32.699   7.904
 2193POPC   C4B29446  19.239  32.673   7.449
 2194POPC   NC329447  41.786  37.560   9.506
 2194POPC   PO429448  41.123  37.381   9.419
 2194POPC   GL129449  41.417  37.623   9.133
 2194POPC   GL229450  41.753  37.467   9.018
 2194POPC   C1A29451  41.601  37.907   8.794
 2194POPC   D2A29452  41.722  37.838   8.387
 2194POPC   C3A29453  41.605  38.061   8.026
 2194POPC   C4A29454  41.557  37.839   7.681
 2194POPC   C1B29455  41.461  37.375   8.696
 2194POPC   C2B29456  41.342  37.309   8.315
 2194POPC   C3B29457  41.627  37.343   8.011
 2194POPC   C4B29458  41.860  37.462   7.646
 2195POPC   NC329459  16.513   5.748   9.440
 2195POPC   PO429460  17.080   5.507   9.330
 2195POPC   GL129461  16.817   5.729   9.030
 2195POPC   GL229462  16.494   5.956   9.005
 2195POPC   C1A29463  16.869   5.891   8.646
 2195POPC   D2A29464  16.737   6.097   8.291
 2195POPC   C3A29465  16.879   5.916   7.935
 2195POPC   C4A29466  16.782   5.778   7.545
 2195POPC   C1B29467  16.383   5.804   8.616
 2195POPC   C2B29468  16.402   5.709   8.174
 2195POPC   C3B29469  16.385   6.043   7.869
 2195POPC   C4B29470  16.505   6.183   7.469
 2196POPC   NC329471   4.236  40.442   9.515
 2196POPC   PO429472   4.279  39.809   9.365
 2196POPC   GL129473   4.080  40.144   9.126
 2196POPC   GL229474   4.441  40.226   9.096
 2196POPC   C1A29475   4.069  40.084   8.675
 2196POPC   D2A29476   4.436  39.894   8.440
 2196POPC   C3A29477   4.364  39.788   7.993
 2196POPC   C4A29478   3.987  39.701   7.706
 2196POPC   C1B29479   4.469  40.382   8.727
 2196POPC   C2B29480   4.622  40.343   8.330
 2196POPC   C3B29481   4.441  40.319   7.924
 2196POPC   C4B29482   4.583  40.408   7.480
 2197POPC   NC329483   2.168  28.360   9.357
 2197POPC   PO429484   2.795  28.187   9.597
 2197POPC   GL129485   2.768  28.257   9.178
 2197POPC   GL229486   2.969  27.968   9.131
 2197POPC   C1A29487   2.908  28.361   8.750
 2197POPC   D2A29488   2.837  28.195   8.345
 2197POPC   C3A29489   2.736  28.471   8.018
 2197POPC   C4A29490   2.473  28.507   7.661
 2197POPC   C1B29491   3.105  27.835   8.741
 2197POPC   C2B29492   3.270  27.917   8.322
 2197POPC   C3B29493   3.079  27.907   7.914
 2197POPC   C4B29494   2.858  28.165   7.603
 2198POPC   NC329495  32.581   4.515   9.645
 2198POPC   PO429496  32.313   5.193   9.509
 2198POPC   GL129497  32.268   5.128   9.097
 2198POPC   GL229498  32.283   5.478   9.013
 2198POPC   C1A29499  32.456   5.139   8.695
 2198POPC   D2A29500  32.275   5.012   8.337
 2198POPC   C3A29501  32.499   5.098   7.986
 2198POPC   C4A29502  32.290   4.903   7.648
 2198POPC   C1B29503  32.009   5.367   8.612
 2198POPC   C2B29504  31.883   5.304   8.168
 2198POPC   C3B29505  32.101   5.362   7.757
 2198POPC   C4B29506  32.363   5.315   7.377
 2199POPC   NC329507  33.942  15.889   9.499
 2199POPC   PO429508  33.414  15.852   9.839
 2199POPC   GL129509  33.433  15.871   9.265
 2199POPC   GL229510  33.744  15.933   9.052
 2199POPC   C1A29511  33.336  16.018   8.795
 2199POPC   D2A29512  33.557  15.908   8.386
 2199POPC   C3A29513  33.501  16.074   7.965
 2199POPC   C4A29514  33.778  16.212   7.649
 2199POPC   C1B29515  33.797  15.621   8.755
 2199POPC   C2B29516  34.007  15.641   8.387
 2199POPC   C3B29517  33.995  15.848   8.010
 2199POPC   C4B29518  33.731  15.696   7.739
 2200POPC   NC329519  26.990  14.741   9.466
 2200POPC   PO429520  26.855  15.372   9.682
 2200POPC   GL129521  26.914  15.410   9.255
 2200POPC   GL229522  26.772  15.109   9.113
 2200POPC   C1A29523  27.127  15.434   8.857
 2200POPC   D2A29524  27.189  15.518   8.435
 2200POPC   C3A29525  26.919  15.309   8.162
 2200POPC   C4A29526  26.810  15.469   7.769
 2200POPC   C1B29527  26.892  15.019   8.659
 2200POPC   C2B29528  26.889  14.808   8.243
 2200POPC   C3B29529  27.162  14.919   7.908
 2200POPC   C4B29530  27.322  15.362   7.850
 2201POPC   NC329531  28.570  28.414   9.436
 2201POPC   PO429532  27.975  28.076   9.462
 2201POPC   GL129533  28.224  28.281   9.094
 2201POPC   GL229534  28.555  28.135   9.001
 2201POPC   C1A29535  28.210  28.275   8.643
 2201POPC   D2A29536  28.187  28.052   8.245
 2201POPC   C3A29537  28.320  28.318   7.876
 2201POPC   C4A29538  28.287  28.767   7.723
 2201POPC   C1B29539  28.597  28.561   8.761
 2201POPC   C2B29540  28.475  28.546   8.313
 2201POPC   C3B29541  28.696  28.680   7.983
 2201POPC   C4B29542  28.713  28.565   7.571
 2202POPC   NC329543  34.883   3.214   9.942
 2202POPC   PO429544  35.384   3.444   9.577
 2202POPC   GL129545  35.261   3.532   9.217
 2202POPC   GL229546  34.990   3.698   9.373
 2202POPC   C1A29547  35.395   3.545   8.810
 2202POPC   D2A29548  35.722   3.614   8.511
 2202POPC   C3A29549  35.626   3.444   8.127
 2202POPC   C4A29550  35.462   3.593   7.761
 2202POPC   C1B29551  34.874   3.668   8.940
 2202POPC   C2B29552  34.981   3.655   8.531
 2202POPC   C3B29553  35.113   3.626   8.127
 2202POPC   C4B29554  35.011   3.895   7.793
 2203POPC   NC329555  29.320  13.550   9.322
 2203POPC   PO429556  28.837  14.035   9.450
 2203POPC   GL129557  29.041  13.886   9.081
 2203POPC   GL229558  29.416  13.939   8.989
 2203POPC   C1A29559  29.077  13.671   8.704
 2203POPC   D2A29560  28.927  13.824   8.347
 2203POPC   C3A29561  28.858  13.558   8.013
 2203POPC   C4A29562  29.099  13.592   7.621
 2203POPC   C1B29563  29.573  13.634   8.662
 2203POPC   C2B29564  29.399  13.445   8.286
 2203POPC   C3B29565  29.498  13.365   7.848
 2203POPC   C4B29566  29.618  13.582   7.439
 2204POPC   NC329567   1.678  18.454   9.559
 2204POPC   PO429568   2.157  18.027   9.451
 2204POPC   GL129569   1.930  18.270   9.146
 2204POPC   GL229570   2.197  18.384   9.002
 2204POPC   C1A29571   1.802  18.204   8.734
 2204POPC   D2A29572   2.099  18.254   8.398
 2204POPC   C3A29573   1.912  18.315   8.014
 2204POPC   C4A29574   2.002  18.270   7.598
 2204POPC   C1B29575   2.188  18.679   8.702
 2204POPC   C2B29576   2.250  18.945   8.390
 2204POPC   C3B29577   2.286  18.805   8.010
 2204POPC   C4B29578   2.369  18.650   7.630
 2205POPC   NC329579  19.430  11.955   9.448
 2205POPC   PO429580  20.101  12.155   9.517
 2205POPC   GL129581  20.054  12.067   9.074
 2205POPC   GL229582  19.731  12.188   9.103
 2205POPC   C1A29583  19.944  12.277   8.659
 2205POPC   D2A29584  19.736  12.497   8.320
 2205POPC   C3A29585  19.942  12.383   7.977
 2205POPC   C4A29586  20.098  11.991   7.834
 2205POPC   C1B29587  19.674  11.837   8.777
 2205POPC   C2B29588  19.586  11.662   8.356
 2205POPC   C3B29589  19.575  11.846   7.940
 2205POPC   C4B29590  19.337  11.757   7.559
 2206POPC   NC329591  42.404  20.706   9.551
 2206POPC   PO429592  41.795  20.965   9.329
 2206POPC   GL129593  42.207  20.757   9.085
 2206POPC   GL229594  42.586  20.828   9.097
 2206POPC   C1A29595  42.280  20.548   8.674
 2206POPC   D2A29596  42.202  20.254   8.300
 2206POPC   C3A29597  42.465  20.437   7.982
 2206POPC   C4A29598  42.233  20.774   7.810
 2206POPC   C1B29599  42.568  20.996   8.692
 2206POPC   C2B29600  42.433  20.917   8.270
 2206POPC   C3B29601  42.720  20.907   7.906
 2206POPC   C4B29602  42.724  20.927   7.430
 2207POPC   NC329603   4.552   9.870   9.464
 2207POPC   PO429604   3.999   9.635   9.696
 2207POPC   GL129605   4.107   9.608   9.260
 2207POPC   GL229606   4.120   9.957   9.163
 2207POPC   C1A29607   4.354   9.601   8.845
 2207POPC   D2A29608   4.363   9.838   8.436
 2207POPC   C3A29609   4.368   9.615   8.035
 2207POPC   C4A29610   4.617   9.846   7.741
 2207POPC   C1B29611   3.929   9.896   8.744
 2207POPC   C2B29612   3.918  10.108   8.369
 2207POPC   C3B29613   4.167  10.100   8.001
 2207POPC   C4B29614   4.090   9.857   7.672
 2208POPC   NC329615   9.538  42.718   9.368
 2208POPC   PO429616  10.100  42.787   9.739
 2208POPC   GL129617   9.952  42.408   9.330
 2208POPC   GL229618   9.657  42.200   9.245
 2208POPC   C1A29619   9.840  42.433   8.811
 2208POPC   D2A29620   9.737  42.633   8.370
 2208POPC   C3A29621   9.699  42.448   7.941
 2208POPC   C4A29622   9.933  42.047   7.799
 2208POPC   C1B29623   9.577  42.012   8.807
 2208POPC   C2B29624   9.650  42.113   8.341
 2208POPC   C3B29625   9.400  42.019   7.942
 2208POPC   C4B29626   9.215  42.033   7.507
 2209POPC   NC329627  31.312  37.944   9.492
 2209POPC   PO429628  31.773  37.451   9.604
 2209POPC   GL129629  31.565  37.581   9.268
 2209POPC   GL229630  31.768  37.842   9.193
 2209POPC   C1A29631  31.382  37.645   8.865
 2209POPC   D2A29632  31.484  37.851   8.474
 2209POPC   C3A29633  31.357  37.642   8.071
 2209POPC   C4A29634  31.587  37.397   7.747
 2209POPC   C1B29635  31.707  38.138   8.837
 2209POPC   C2B29636  31.820  38.272   8.408
 2209POPC   C3B29637  31.691  38.021   8.047
 2209POPC   C4B29638  31.587  37.898   7.631
 2210POPC   NC329639  38.026   4.534   9.480
 2210POPC   PO429640  37.322   4.396   9.454
 2210POPC   GL129641  37.486   4.268   9.080
 2210POPC   GL229642  37.821   4.286   9.107
 2210POPC   C1A29643  37.642   4.073   8.702
 2210POPC   D2A29644  37.849   4.065   8.325
 2210POPC   C3A29645  37.805   3.877   7.976
 2210POPC   C4A29646  37.785   4.128   7.635
 2210POPC   C1B29647  37.793   4.581   8.797
 2210POPC   C2B29648  37.789   4.565   8.388
 2210POPC   C3B29649  37.872   4.489   7.974
 2210POPC   C4B29650  37.771   4.624   7.550
 2211POPC   NC329651  15.180   2.914   9.374
 2211POPC   PO429652  14.668   2.498   9.401
 2211POPC   GL129653  14.990   2.539   9.082
 2211POPC   GL229654  14.960   2.875   8.915
 2211POPC   C1A29655  15.330   2.589   8.755
 2211POPC   D2A29656  15.528   2.538   8.358
 2211POPC   C3A29657  15.343   2.657   7.967
 2211POPC   C4A29658  14.929   2.515   7.826
 2211POPC   C1B29659  14.718   2.577   8.665
 2211POPC   C2B29660  14.976   2.572   8.332
 2211POPC   C3B29661  14.945   2.963   8.106
 2211POPC   C4B29662  15.022   3.070   7.694
 2212POPC   NC329663  16.359  25.486   9.487
 2212POPC   PO429664  16.953  25.057   9.509
 2212POPC   GL129665  16.718  25.152   9.159
 2212POPC   GL229666  16.662  25.497   9.074
 2212POPC   C1A29667  16.834  25.141   8.717
 2212POPC   D2A29668  16.630  25.080   8.307
 2212POPC   C3A29669  16.907  25.020   7.948
 2212POPC   C4A29670  17.193  25.055   7.609
 2212POPC   C1B29671  16.473  25.523   8.666
 2212POPC   C2B29672  16.630  25.591   8.277
 2212POPC   C3B29673  16.519  25.408   7.899
 2212POPC   C4B29674  16.464  25.718   7.630
 2213POPC   NC329675  27.040  44.161   9.407
 2213POPC   PO429676  26.783  43.520   9.605
 2213POPC   GL129677  26.734  43.785   9.201
 2213POPC   GL229678  27.096  43.774   9.092
 2213POPC   C1A29679  26.757  44.050   8.781
 2213POPC   D2A29680  26.646  44.270   8.377
 2213POPC   C3A29681  26.879  44.263   7.990
 2213POPC   C4A29682  26.678  44.173   7.604
 2213POPC   C1B29683  27.228  43.910   8.668
 2213POPC   C2B29684  26.939  43.846   8.311
 2213POPC   C3B29685  26.884  43.763   7.858
 2213POPC   C4B29686  27.146  43.596   7.568
 2214POPC   NC329687  19.879  39.858   9.480
 2214POPC   PO429688  20.127  40.552   9.389
 2214POPC   GL129689  19.960  40.204   9.113
 2214POPC   GL229690  19.694  39.937   9.023
 2214POPC   C1A29691  20.081  40.071   8.697
 2214POPC   D2A29692  19.996  40.284   8.325
 2214POPC   C3A29693  19.932  40.047   7.942
 2214POPC   C4A29694  20.017  39.762   7.622
 2214POPC   C1B29695  19.779  39.657   8.709
 2214POPC   C2B29696  19.844  39.736   8.329
 2214POPC   C3B29697  19.693  39.555   7.963
 2214POPC   C4B29698  19.469  39.863   7.718
 2215POPC   NC329699   6.267  36.678   9.491
 2215POPC   PO429700   5.750  37.090   9.490
 2215POPC   GL129701   5.622  36.914   9.138
 2215POPC   GL229702   5.951  36.771   9.103
 2215POPC   C1A29703   5.622  36.857   8.720
 2215POPC   D2A29704   5.920  36.901   8.388
 2215POPC   C3A29705   5.716  36.815   8.058
 2215POPC   C4A29706   5.749  36.763   7.667
 2215POPC   C1B29707   6.116  36.529   8.767
 2215POPC   C2B29708   6.170  36.409   8.355
 2215POPC   C3B29709   6.135  36.562   7.946
 2215POPC   C4B29710   6.209  36.548   7.519
 2216POPC   NC329711  26.623  24.505   9.489
 2216POPC   PO429712  27.144  24.939   9.576
 2216POPC   GL129713  27.064  24.885   9.114
 2216POPC   GL229714  26.810  24.606   9.043
 2216POPC   C1A29715  27.114  24.702   8.668
 2216POPC   D2A29716  26.864  24.511   8.348
 2216POPC   C3A29717  27.008  24.520   7.926
 2216POPC   C4A29718  27.040  24.756   7.539
 2216POPC   C1B29719  26.518  24.418   8.732
 2216POPC   C2B29720  26.435  24.237   8.294
 2216POPC   C3B29721  26.463  24.281   7.843
 2216POPC   C4B29722  26.317  24.308   7.404
 2217POPC   NC329723  13.077  36.110   9.440
 2217POPC   PO429724  12.431  36.005   9.298
 2217POPC   GL129725  12.832  35.916   9.034
 2217POPC   GL229726  13.244  35.851   9.034
 2217POPC   C1A29727  12.856  36.054   8.607
 2217POPC   D2A29728  12.779  36.358   8.274
 2217POPC   C3A29729  12.571  36.121   7.990
 2217POPC   C4A29730  12.525  36.175   7.593
 2217POPC   C1B29731  13.342  36.122   8.693
 2217POPC   C2B29732  13.231  36.070   8.234
 2217POPC   C3B29733  13.081  36.160   7.811
 2217POPC   C4B29734  13.251  35.954   7.419
 2218POPC   NC329735  18.160  25.132   9.497
 2218POPC   PO429736  18.681  25.580   9.428
 2218POPC   GL129737  18.400  25.426   9.114
 2218POPC   GL229738  18.077  25.558   9.230
 2218POPC   C1A29739  18.159  25.115   8.849
 2218POPC   D2A29740  18.036  24.889   8.465
 2218POPC   C3A29741  18.110  25.063   8.091
 2218POPC   C4A29742  18.293  24.999   7.750
 2218POPC   C1B29743  17.896  25.572   8.851
 2218POPC   C2B29744  18.027  25.428   8.458
 2218POPC   C3B29745  17.976  25.546   8.049
 2218POPC   C4B29746  18.208  25.535   7.646
 2219POPC   NC329747  36.414  27.029   9.543
 2219POPC   PO429748  35.797  26.965   9.307
 2219POPC   GL129749  36.206  26.989   9.081
 2219POPC   GL229750  36.395  26.653   9.194
 2219POPC   C1A29751  36.164  26.998   8.637
 2219POPC   D2A29752  35.950  26.627   8.468
 2219POPC   C3A29753  35.984  26.630   8.044
 2219POPC   C4A29754  36.131  26.971   7.847
 2219POPC   C1B29755  36.337  26.559   8.797
 2219POPC   C2B29756  36.464  26.594   8.384
 2219POPC   C3B29757  36.420  26.350   8.042
 2219POPC   C4B29758  36.314  26.522   7.650
 2220POPC   NC329759  22.868   7.415   9.204
 2220POPC   PO429760  23.395   6.972   9.370
 2220POPC   GL129761  23.219   7.115   8.996
 2220POPC   GL229762  22.889   7.084   8.820
 2220POPC   C1A29763  23.301   7.326   8.614
 2220POPC   D2A29764  23.265   7.252   8.178
 2220POPC   C3A29765  22.867   7.271   8.016
 2220POPC   C4A29766  22.626   7.067   7.692
 2220POPC   C1B29767  22.811   7.502   8.555
 2220POPC   C2B29768  22.639   7.725   8.176
 2220POPC   C3B29769  22.559   7.576   7.751
 2220POPC   C4B29770  22.423   7.453   7.340
 2221POPC   NC329771  29.372   6.047   9.791
 2221POPC   PO429772  29.276   6.668   9.470
 2221POPC   GL129773  29.152   6.535   9.098
 2221POPC   GL229774  28.802   6.486   9.034
 2221POPC   C1A29775  29.364   6.596   8.718
 2221POPC   D2A29776  29.170   6.460   8.368
 2221POPC   C3A29777  29.338   6.624   7.991
 2221POPC   C4A29778  29.334   6.691   7.576
 2221POPC   C1B29779  28.904   6.811   8.680
 2221POPC   C2B29780  29.061   6.964   8.283
 2221POPC   C3B29781  28.927   6.919   7.847
 2221POPC   C4B29782  28.938   6.940   7.335
 2222POPC   NC329783  16.348   7.660   9.480
 2222POPC   PO429784  17.066   7.786   9.575
 2222POPC   GL129785  16.848   7.553   9.215
 2222POPC   GL229786  16.899   7.171   9.234
 2222POPC   C1A29787  16.570   7.572   8.812
 2222POPC   D2A29788  16.391   7.505   8.376
 2222POPC   C3A29789  16.492   7.766   8.084
 2222POPC   C4A29790  16.877   7.730   7.858
 2222POPC   C1B29791  16.930   7.203   8.788
 2222POPC   C2B29792  16.718   7.099   8.425
 2222POPC   C3B29793  16.661   7.263   8.013
 2222POPC   C4B29794  16.919   7.142   7.657
 2223POPC   NC329795  41.209  25.921   9.620
 2223POPC   PO429796  41.758  26.347   9.511
 2223POPC   GL129797  41.483  26.251   9.158
 2223POPC   GL229798  41.277  25.931   9.117
 2223POPC   C1A29799  41.503  26.200   8.709
 2223POPC   D2A29800  41.605  26.408   8.332
 2223POPC   C3A29801  41.308  26.338   7.996
 2223POPC   C4A29802  41.429  25.981   7.747
 2223POPC   C1B29803  41.101  25.865   8.692
 2223POPC   C2B29804  41.181  25.894   8.244
 2223POPC   C3B29805  41.166  25.570   7.900
 2223POPC   C4B29806  41.092  25.658   7.472
 2224POPC   NC329807  28.009  23.562   9.445
 2224POPC   PO429808  28.649  23.828   9.410
 2224POPC   GL129809  28.339  23.781   9.125
 2224POPC   GL229810  28.338  23.401   9.072
 2224POPC   C1A29811  28.393  23.777   8.707
 2224POPC   D2A29812  28.617  23.741   8.355
 2224POPC   C3A29813  28.383  23.740   7.979
 2224POPC   C4A29814  28.587  23.683   7.633
 2224POPC   C1B29815  27.995  23.467   8.788
 2224POPC   C2B29816  28.050  23.613   8.365
 2224POPC   C3B29817  28.041  23.353   8.013
 2224POPC   C4B29818  28.024  23.349   7.574
 2225POPC   NC329819  30.891  32.780   9.406
 2225POPC   PO429820  30.419  33.141   9.602
 2225POPC   GL129821  30.557  33.229   9.184
 2225POPC   GL229822  30.277  33.093   9.120
 2225POPC   C1A29823  30.746  33.026   8.783
 2225POPC   D2A29824  30.873  32.750   8.419
 2225POPC   C3A29825  30.862  33.010   8.086
 2225POPC   C4A29826  31.036  33.148   7.726
 2225POPC   C1B29827  30.251  32.843   8.804
 2225POPC   C2B29828  30.393  32.952   8.396
 2225POPC   C3B29829  30.397  32.815   7.962
 2225POPC   C4B29830  30.697  32.801   7.605
 2226POPC   NC329831  31.276  26.605   9.532
 2226POPC   PO429832  31.617  26.099   9.640
 2226POPC   GL129833  31.798  25.921   9.250
 2226POPC   GL229834  31.707  26.247   9.146
 2226POPC   C1A29835  31.669  25.905   8.789
 2226POPC   D2A29836  31.486  25.757   8.425
 2226POPC   C3A29837  31.738  25.922   8.134
 2226POPC   C4A29838  31.722  25.926   7.726
 2226POPC   C1B29839  31.291  26.202   8.928
 2226POPC   C2B29840  31.231  26.215   8.466
 2226POPC   C3B29841  31.395  26.269   8.042
 2226POPC   C4B29842  31.478  26.365   7.612
 2227POPC   NC329843   5.759  38.319   9.501
 2227POPC   PO429844   5.809  38.970   9.310
 2227POPC   GL129845   5.851  38.615   9.076
 2227POPC   GL229846   5.554  38.402   9.021
 2227POPC   C1A29847   5.903  38.641   8.652
 2227POPC   D2A29848   6.067  38.558   8.285
 2227POPC   C3A29849   5.915  38.796   7.972
 2227POPC   C4A29850   5.550  38.715   7.730
 2227POPC   C1B29851   5.880  38.145   8.816
 2227POPC   C2B29852   6.027  38.064   8.375
 2227POPC   C3B29853   6.146  38.169   7.956
 2227POPC   C4B29854   6.053  38.443   7.632
 2228POPC   NC329855  40.914  12.375   9.455
 2228POPC   PO429856  40.449  11.846   9.468
 2228POPC   GL129857  40.668  11.894   9.056
 2228POPC   GL229858  40.750  12.233   8.998
 2228POPC   C1A29859  40.803  11.864   8.593
 2228POPC   D2A29860  40.797  11.694   8.145
 2228POPC   C3A29861  40.833  11.957   7.783
 2228POPC   C4A29862  40.838  12.364   7.609
 2228POPC   C1B29863  40.521  12.290   8.631
 2228POPC   C2B29864  40.728  12.304   8.229
 2228POPC   C3B29865  40.430  12.296   7.909
 2228POPC   C4B29866  40.374  12.175   7.505
 2229POPC   NC329867  33.122  24.970   9.605
 2229POPC   PO429868  33.010  24.342   9.505
 2229POPC   GL129869  33.045  24.652   9.202
 2229POPC   GL229870  33.379  24.782   9.174
 2229POPC   C1A29871  32.802  24.743   8.851
 2229POPC   D2A29872  32.906  24.839   8.430
 2229POPC   C3A29873  32.781  24.650   8.060
 2229POPC   C4A29874  32.789  24.517   7.662
 2229POPC   C1B29875  33.280  24.598   8.745
 2229POPC   C2B29876  33.363  24.671   8.308
 2229POPC   C3B29877  33.259  24.527   7.919
 2229POPC   C4B29878  33.417  24.519   7.536
 2230POPC   NC329879  41.210  36.218   9.455
 2230POPC   PO429880  41.842  35.899   9.493
 2230POPC   GL129881  41.655  36.167   9.215
 2230POPC   GL229882  41.783  36.503   9.164
 2230POPC   C1A29883  41.493  36.025   8.837
 2230POPC   D2A29884  41.705  35.880   8.478
 2230POPC   C3A29885  41.490  36.009   8.091
 2230POPC   C4A29886  41.521  35.867   7.658
 2230POPC   C1B29887  41.665  36.508   8.736
 2230POPC   C2B29888  41.825  36.408   8.309
 2230POPC   C3B29889  41.777  36.361   7.836
 2230POPC   C4B29890  41.911  36.211   7.402
 2231POPC   NC329891  17.776  25.815   9.583
 2231POPC   PO429892  17.080  26.014   9.600
 2231POPC   GL129893  17.326  25.890   9.252
 2231POPC   GL229894  17.597  26.126   9.217
 2231POPC   C1A29895  17.314  25.984   8.819
 2231POPC   D2A29896  17.212  26.256   8.516
 2231POPC   C3A29897  17.327  26.045   8.151
 2231POPC   C4A29898  17.236  26.181   7.751
 2231POPC   C1B29899  17.846  26.079   8.843
 2231POPC   C2B29900  17.714  25.885   8.468
 2231POPC   C3B29901  17.856  26.040   8.085
 2231POPC   C4B29902  17.809  25.872   7.687
 2232POPC   NC329903   0.414  34.963   9.243
 2232POPC   PO429904   0.152  35.587   9.349
 2232POPC   GL129905   0.326  35.448   8.966
 2232POPC   GL229906   0.640  35.388   9.015
 2232POPC   C1A29907   0.433  35.197   8.586
 2232POPC   D2A29908   0.158  35.000   8.303
 2232POPC   C3A29909   0.094  35.132   7.894
 2232POPC   C4A29910   0.338  35.115   7.595
 2232POPC   C1B29911   0.893  35.483   8.683
 2232POPC   C2B29912   0.634  35.635   8.399
 2232POPC   C3B29913   0.483  35.425   8.054
 2232POPC   C4B29914   0.474  35.589   7.644
 2233POPC   NC329915  19.261  14.314   9.496
 2233POPC   PO429916  18.783  14.719   9.385
 2233POPC   GL129917  18.915  14.369   9.144
 2233POPC   GL229918  18.972  14.594   8.905
 2233POPC   C1A29919  19.001  14.086   8.811
 2233POPC   D2A29920  19.235  14.247   8.444
 2233POPC   C3A29921  19.047  14.141   8.059
 2233POPC   C4A29922  18.825  14.277   7.728
 2233POPC   C1B29923  19.232  14.796   8.656
 2233POPC   C2B29924  19.441  14.696   8.293
 2233POPC   C3B29925  19.287  14.589   7.925
 2233POPC   C4B29926  18.918  14.778   7.795
 2234POPC   NC329927  42.929  35.098   9.511
 2234POPC   PO429928  43.490  35.507   9.566
 2234POPC   GL129929  43.237  35.380   9.187
 2234POPC   GL229930  42.883  35.471   9.124
 2234POPC   C1A29931  43.357  35.425   8.743
 2234POPC   D2A29932  43.430  35.678   8.354
 2234POPC   C3A29933  43.301  35.475   7.976
 2234POPC   C4A29934  42.949  35.455   7.693
 2234POPC   C1B29935  42.920  35.153   8.788
 2234POPC   C2B29936  43.006  35.267   8.371
 2234POPC   C3B29937  43.032  35.045   8.002
 2234POPC   C4B29938  42.767  34.995   7.649
 2235POPC   NC329939  22.752  25.847   9.620
 2235POPC   PO429940  23.171  26.183   9.282
 2235POPC   GL129941  22.804  26.081   9.091
 2235POPC   GL229942  22.695  25.738   9.122
 2235POPC   C1A29943  22.943  26.142   8.681
 2235POPC   D2A29944  22.882  26.436   8.409
 2235POPC   C3A29945  22.946  26.237   8.037
 2235POPC   C4A29946  22.962  26.370   7.639
 2235POPC   C1B29947  22.557  25.694   8.707
 2235POPC   C2B29948  22.767  25.814   8.329
 2235POPC   C3B29949  22.761  25.778   7.907
 2235POPC   C4B29950  22.798  25.889   7.483
 2236POPC   NC329951  42.895  30.363   9.446
 2236POPC   PO429952  43.366  30.813   9.473
 2236POPC   GL129953  43.105  31.007   9.171
 2236POPC   GL229954  42.821  30.787   9.122
 2236POPC   C1A29955  43.167  30.889   8.745
 2236POPC   D2A29956  43.156  30.619   8.378
 2236POPC   C3A29957  43.072  30.818   7.982
 2236POPC   C4A29958  43.443  30.804   7.737
 2236POPC   C1B29959  42.840  30.473   8.779
 2236POPC   C2B29960  42.730  30.336   8.367
 2236POPC   C3B29961  42.958  30.296   7.985
 2236POPC   C4B29962  43.095  30.439   7.568
 2237POPC   NC329963  37.791  24.460   9.624
 2237POPC   PO429964  38.408  24.687   9.721
 2237POPC   GL129965  38.131  24.553   9.273
 2237POPC   GL229966  37.738  24.617   9.144
 2237POPC   C1A29967  37.993  24.315   8.852
 2237POPC   D2A29968  37.668  24.438   8.501
 2237POPC   C3A29969  37.767  24.436   8.070
 2237POPC   C4A29970  37.898  24.405   7.667
 2237POPC   C1B29971  37.417  24.849   8.899
 2237POPC   C2B29972  37.257  24.854   8.484
 2237POPC   C3B29973  37.317  24.673   8.076
 2237POPC   C4B29974  37.548  24.790   7.717
 2238POPC   NC329975   8.306  12.912   9.333
 2238POPC   PO429976   7.638  12.759   9.588
 2238POPC   GL129977   7.944  12.567   9.180
 2238POPC   GL229978   8.021  12.884   8.922
 2238POPC   C1A29979   8.211  12.454   8.741
 2238POPC   D2A29980   8.374  12.701   8.388
 2238POPC   C3A29981   8.083  12.883   8.115
 2238POPC   C4A29982   8.055  12.825   7.689
 2238POPC   C1B29983   8.382  13.103   8.704
 2238POPC   C2B29984   8.439  13.245   8.286
 2238POPC   C3B29985   8.327  13.251   7.846
 2238POPC   C4B29986   8.221  13.230   7.415
 2239POPC   NC329987  29.610  16.097   9.506
 2239POPC   PO429988  30.194  16.290   9.731
 2239POPC   GL129989  30.178  16.085   9.249
 2239POPC   GL229990  30.119  15.751   9.115
 2239POPC   C1A29991  29.941  16.096   8.810
 2239POPC   D2A29992  29.719  16.297   8.472
 2239POPC   C3A29993  29.793  16.042   8.130
 2239POPC   C4A29994  29.820  16.172   7.714
 2239POPC   C1B29995  30.315  15.738   8.745
 2239POPC   C2B29996  30.097  15.667   8.402
 2239POPC   C3B29997  30.175  15.681   8.008
 2239POPC   C4B29998  29.808  15.680   7.750
 2240POPC   NC329999  26.451  33.604   9.250
 2240POPC   PO430000  25.939  33.695   9.631
 2240POPC   GL130001  25.971  33.784   9.166
 2240POPC   GL230002  26.196  34.014   9.092
 2240POPC   C1A30003  26.078  33.637   8.729
 2240POPC   D2A30004  26.412  33.639   8.421
 2240POPC   C3A30005  26.275  33.722   8.004
 2240POPC   C4A30006  25.950  33.491   7.736
 2240POPC   C1B30007  25.849  34.082   8.756
 2240POPC   C2B30008  25.801  34.282   8.349
 2240POPC   C3B30009  25.914  34.105   7.949
 2240POPC   C4B30010  26.224  34.035   7.606
 2241POPC   NC330011   0.230   6.321   9.565
 2241POPC   PO430012   0.595   5.721   9.601
 2241POPC   GL130013   0.603   5.836   9.183
 2241POPC   GL230014   0.320   6.059   9.116
 2241POPC   C1A30015   0.547   5.690   8.775
 2241POPC   D2A30016   0.559   5.860   8.368
 2241POPC   C3A30017   0.438   5.680   7.995
 2241POPC   C4A30018   0.541   5.793   7.583
 2241POPC   C1B30019   0.208   6.092   8.666
 2241POPC   C2B30020   0.237   6.216   8.200
 2241POPC   C3B30021   0.202   6.206   7.751
 2241POPC   C4B30022  44.924   6.113   7.381
 2242POPC   NC330023  42.255  42.585   9.544
 2242POPC   PO430024  42.791  43.013   9.601
 2242POPC   GL130025  42.458  43.015   9.302
 2242POPC   GL230026  42.564  42.729   9.162
 2242POPC   C1A30027  42.166  43.021   8.939
 2242POPC   D2A30028  42.310  43.066   8.516
 2242POPC   C3A30029  42.157  43.087   8.105
 2242POPC   C4A30030  42.372  43.086   7.726
 2242POPC   C1B30031  42.598  42.710   8.766
 2242POPC   C2B30032  42.764  42.893   8.379
 2242POPC   C3B30033  42.721  42.757   7.949
 2242POPC   C4B30034  42.485  42.608   7.577
 2243POPC   NC330035  32.589  20.685   9.295
 2243POPC   PO430036  33.161  20.261   9.403
 2243POPC   GL130037  33.039  20.529   9.064
 2243POPC   GL230038  33.075  20.845   9.175
 2243POPC   C1A30039  32.827  20.610   8.670
 2243POPC   D2A30040  32.964  20.828   8.319
 2243POPC   C3A30041  32.836  20.792   7.909
 2243POPC   C4A30042  33.015  20.477   7.730
 2243POPC   C1B30043  33.270  20.930   8.774
 2243POPC   C2B30044  33.467  20.907   8.347
 2243POPC   C3B30045  33.368  20.801   7.914
 2243POPC   C4B30046  33.231  20.897   7.506
 2244POPC   NC330047  18.908  43.223   9.564
 2244POPC   PO430048  19.450  42.768   9.401
 2244POPC   GL130049  18.988  42.800   9.259
 2244POPC   GL230050  18.970  43.167   9.063
 2244POPC   C1A30051  18.761  42.774   8.879
 2244POPC   D2A30052  19.065  42.836   8.540
 2244POPC   C3A30053  18.915  43.007   8.164
 2244POPC   C4A30054  19.155  43.114   7.813
 2244POPC   C1B30055  18.891  43.312   8.604
 2244POPC   C2B30056  18.974  43.530   8.198
 2244POPC   C3B30057  19.330  43.579   7.911
 2244POPC   C4B30058  19.569  43.372   7.556
 2245POPC   NC330059   5.907  29.755   9.470
 2245POPC   PO430060   6.049  29.116   9.580
 2245POPC   GL130061   6.046  29.087   9.153
 2245POPC   GL230062   5.682  29.040   9.202
 2245POPC   C1A30063   5.968  29.307   8.770
 2245POPC   D2A30064   6.071  29.180   8.349
 2245POPC   C3A30065   6.111  29.429   8.011
 2245POPC   C4A30066   6.066  29.235   7.621
 2245POPC   C1B30067   5.574  28.965   8.800
 2245POPC   C2B30068   5.639  28.874   8.375
 2245POPC   C3B30069   5.765  28.988   7.975
 2245POPC   C4B30070   5.534  28.814   7.667
 2246POPC   NC330071  16.233  38.955   9.781
 2246POPC   PO430072  15.782  39.507   9.512
 2246POPC   GL130073  16.018  39.366   9.152
 2246POPC   GL230074  16.010  39.030   9.263
 2246POPC   C1A30075  16.112  39.425   8.692
 2246POPC   D2A30076  15.963  39.342   8.253
 2246POPC   C3A30077  16.188  39.508   7.863
 2246POPC   C4A30078  16.074  39.730   7.457
 2246POPC   C1B30079  16.208  38.921   8.875
 2246POPC   C2B30080  16.130  38.862   8.464
 2246POPC   C3B30081  16.305  38.987   8.080
 2246POPC   C4B30082  16.255  39.009   7.663
 2247POPC   NC330083  30.581  16.109   9.576
 2247POPC   PO430084  31.101  16.442   9.285
 2247POPC   GL130085  30.976  16.026   9.079
 2247POPC   GL230086  30.647  15.865   9.119
 2247POPC   C1A30087  30.845  15.853   8.653
 2247POPC   D2A30088  30.732  16.115   8.283
 2247POPC   C3A30089  30.738  15.940   7.859
 2247POPC   C4A30090  30.965  16.081   7.492
 2247POPC   C1B30091  30.503  16.199   8.834
 2247POPC   C2B30092  30.250  16.208   8.421
 2247POPC   C3B30093  30.273  16.172   7.986
 2247POPC   C4B30094  30.268  15.956   7.594
 2248POPC   NC330095  29.185  15.019   9.572
 2248POPC   PO430096  29.454  15.645   9.541
 2248POPC   GL130097  29.176  15.442   9.203
 2248POPC   GL230098  29.006  15.098   9.115
 2248POPC   C1A30099  28.987  15.440   8.780
 2248POPC   D2A30100  29.108  15.149   8.465
 2248POPC   C3A30101  29.250  15.306   8.096
 2248POPC   C4A30102  29.421  15.343   7.724
 2248POPC   C1B30103  28.722  14.999   8.760
 2248POPC   C2B30104  28.738  14.833   8.327
 2248POPC   C3B30105  28.991  14.885   7.971
 2248POPC   C4B30106  28.919  15.193   7.683
 2249POPC   NC330107  35.015  44.795   9.682
 2249POPC   PO430108  34.511  44.433   9.543
 2249POPC   GL130109  34.477  44.579   9.150
 2249POPC   GL230110  34.750  44.780   9.173
 2249POPC   C1A30111  34.399  44.387   8.766
 2249POPC   D2A30112  34.572  44.161   8.452
 2249POPC   C3A30113  34.399  44.363   8.114
 2249POPC   C4A30114  34.571  44.508   7.747
 2249POPC   C1B30115  34.681   0.059   8.855
 2249POPC   C2B30116  34.889   0.100   8.502
 2249POPC   C3B30117  34.897  44.816   8.145
 2249POPC   C4B30118  34.832  44.963   7.742
 2250POPC   NC330119  35.457   8.782   9.632
 2250POPC   PO430120  34.847   8.848   9.283
 2250POPC   GL130121  35.267   8.973   9.170
 2250POPC   GL230122  35.550   8.779   9.133
 2250POPC   C1A30123  35.423   9.132   8.770
 2250POPC   D2A30124  35.168   8.976   8.426
 2250POPC   C3A30125  35.302   9.128   8.004
 2250POPC   C4A30126  35.088   9.279   7.674
 2250POPC   C1B30127  35.457   8.639   8.683
 2250POPC   C2B30128  35.536   8.733   8.198
 2250POPC   C3B30129  35.758   8.817   7.768
 2250POPC   C4B30130  35.735   8.575   7.356
 2251POPC   NC330131   2.300  17.249   9.444
 2251POPC   PO430132   1.744  17.449   9.115
 2251POPC   GL130133   2.146  17.372   8.994
 2251POPC   GL230134   2.231  17.678   9.094
 2251POPC   C1A30135   2.369  17.360   8.655
 2251POPC   D2A30136   2.012  17.370   8.408
 2251POPC   C3A30137   2.072  17.374   8.016
 2251POPC   C4A30138   1.879  17.378   7.624
 2251POPC   C1B30139   2.116  17.805   8.689
 2251POPC   C2B30140   2.341  17.781   8.312
 2251POPC   C3B30141   2.180  17.871   7.917
 2251POPC   C4B30142   2.211  17.745   7.513
 2252POPC   NC330143  19.357  28.803   9.266
 2252POPC   PO430144  18.620  28.743   9.355
 2252POPC   GL130145  18.890  28.981   9.098
 2252POPC   GL230146  18.955  29.286   9.277
 2252POPC   C1A30147  19.090  29.020   8.696
 2252POPC   D2A30148  18.872  29.179   8.350
 2252POPC   C3A30149  18.905  28.937   7.973
 2252POPC   C4A30150  19.349  28.838   7.891
 2252POPC   C1B30151  18.942  29.481   8.873
 2252POPC   C2B30152  19.226  29.520   8.538
 2252POPC   C3B30153  19.305  29.337   8.149
 2252POPC   C4B30154  19.156  29.302   7.732
 2253POPC   NC330155  33.911  16.836   9.892
 2253POPC   PO430156  33.725  17.292   9.343
 2253POPC   GL130157  33.753  17.595   9.066
 2253POPC   GL230158  34.103  17.738   9.033
 2253POPC   C1A30159  33.529  17.647   8.687
 2253POPC   D2A30160  33.665  17.481   8.276
 2253POPC   C3A30161  33.488  17.698   7.899
 2253POPC   C4A30162  33.603  17.545   7.435
 2253POPC   C1B30163  34.065  17.543   8.638
 2253POPC   C2B30164  34.125  17.665   8.206
 2253POPC   C3B30165  33.990  17.637   7.809
 2253POPC   C4B30166  34.097  17.742   7.399
 2254POPC   NC330167  11.018  10.531   9.548
 2254POPC   PO430168  11.665  10.292   9.494
 2254POPC   GL130169  11.463  10.306   9.089
 2254POPC   GL230170  11.110  10.285   9.095
 2254POPC   C1A30171  11.326  10.563   8.728
 2254POPC   D2A30172  11.554  10.875   8.460
 2254POPC   C3A30173  11.519  10.763   8.026
 2254POPC   C4A30174  11.131  10.711   7.769
 2254POPC   C1B30175  10.846  10.306   8.726
 2254POPC   C2B30176  10.820  10.229   8.288
 2254POPC   C3B30177  11.200  10.241   8.072
 2254POPC   C4B30178  11.477  10.341   7.751
 2255POPC   NC330179  10.425  30.401   9.449
 2255POPC   PO430180  10.420  30.927   9.883
 2255POPC   GL130181  10.648  30.823   9.295
 2255POPC   GL230182  10.906  30.614   9.232
 2255POPC   C1A30183  10.600  30.576   8.840
 2255POPC   D2A30184  10.415  30.435   8.413
 2255POPC   C3A30185  10.601  30.619   8.005
 2255POPC   C4A30186  10.552  30.569   7.492
 2255POPC   C1B30187  10.977  30.935   8.892
 2255POPC   C2B30188  11.066  30.857   8.469
 2255POPC   C3B30189  11.036  30.963   8.047
 2255POPC   C4B30190  10.928  30.820   7.684
 2256POPC   NC330191  40.774  33.179  10.061
 2256POPC   PO430192  40.568  32.910   9.493
 2256POPC   GL130193  40.661  32.769   9.081
 2256POPC   GL230194  41.038  32.791   8.982
 2256POPC   C1A30195  40.434  32.927   8.754
 2256POPC   D2A30196  40.468  33.117   8.404
 2256POPC   C3A30197  40.391  32.865   8.048
 2256POPC   C4A30198  40.625  32.818   7.668
 2256POPC   C1B30199  40.969  33.029   8.608
 2256POPC   C2B30200  40.887  33.034   8.164
 2256POPC   C3B30201  41.077  32.958   7.845
 2256POPC   C4B30202  41.144  32.561   7.735
 2257POPC   NC330203   4.214  29.561   9.595
 2257POPC   PO430204   4.171  30.173   9.517
 2257POPC   GL130205   4.208  29.918   9.152
 2257POPC   GL230206   4.400  29.657   9.101
 2257POPC   C1A30207   4.067  29.980   8.739
 2257POPC   D2A30208   4.118  29.828   8.323
 2257POPC   C3A30209   4.118  30.159   8.032
 2257POPC   C4A30210   4.285  30.214   7.647
 2257POPC   C1B30211   4.578  29.973   8.801
 2257POPC   C2B30212   4.635  29.984   8.367
 2257POPC   C3B30213   4.539  29.879   7.949
 2257POPC   C4B30214   4.787  29.894   7.565
 2258POPC   NC330215  31.136   8.196   9.366
 2258POPC   PO430216  30.554   8.381   9.495
 2258POPC   GL130217  30.672   8.307   9.083
 2258POPC   GL230218  30.776   7.982   9.022
 2258POPC   C1A30219  30.519   8.403   8.662
 2258POPC   D2A30220  30.500   8.355   8.246
 2258POPC   C3A30221  30.703   8.470   7.861
 2258POPC   C4A30222  30.809   8.578   7.415
 2258POPC   C1B30223  30.706   7.941   8.580
 2258POPC   C2B30224  30.846   7.992   8.152
 2258POPC   C3B30225  30.696   7.782   7.783
 2258POPC   C4B30226  30.498   7.692   7.372
 2259POPC   NC330227  21.159  33.452   9.586
 2259POPC   PO430228  21.284  32.737   9.712
 2259POPC   GL130229  21.367  32.774   9.285
 2259POPC   GL230230  21.546  33.076   9.213
 2259POPC   C1A30231  21.240  32.795   8.863
 2259POPC   D2A30232  21.146  33.119   8.572
 2259POPC   C3A30233  21.384  33.096   8.210
 2259POPC   C4A30234  21.376  33.186   7.802
 2259POPC   C1B30235  21.499  33.358   8.868
 2259POPC   C2B30236  21.684  33.439   8.449
 2259POPC   C3B30237  21.816  33.367   8.018
 2259POPC   C4B30238  21.725  33.462   7.563
 2260POPC   NC330239   9.988   8.060   9.592
 2260POPC   PO430240   9.355   8.271   9.626
 2260POPC   GL130241   9.671   8.253   9.223
 2260POPC   GL230242   9.935   8.020   9.102
 2260POPC   C1A30243   9.812   8.441   8.824
 2260POPC   D2A30244   9.762   8.295   8.413
 2260POPC   C3A30245   9.629   8.477   8.061
 2260POPC   C4A30246   9.889   8.375   7.732
 2260POPC   C1B30247  10.034   7.975   8.696
 2260POPC   C2B30248   9.878   7.813   8.317
 2260POPC   C3B30249   9.674   7.958   7.977
 2260POPC   C4B30250  10.004   7.858   7.724
 2261POPC   NC330251  30.458  18.462   9.473
 2261POPC   PO430252  31.039  18.073   9.519
 2261POPC   GL130253  30.800  18.262   9.158
 2261POPC   GL230254  30.456  18.131   9.054
 2261POPC   C1A30255  30.799  18.397   8.722
 2261POPC   D2A30256  30.732  18.196   8.309
 2261POPC   C3A30257  30.939  18.319   7.904
 2261POPC   C4A30258  30.889  18.374   7.427
 2261POPC   C1B30259  30.285  18.352   8.674
 2261POPC   C2B30260  30.266  18.612   8.312
 2261POPC   C3B30261  30.401  18.437   7.965
 2261POPC   C4B30262  30.498  18.001   7.879
 2262POPC   NC330263   3.771  30.048   9.349
 2262POPC   PO430264   3.370  29.575   9.495
 2262POPC   GL130265   3.523  29.685   9.073
 2262POPC   GL230266   3.452  30.052   8.959
 2262POPC   C1A30267   3.669  29.667   8.654
 2262POPC   D2A30268   3.654  30.082   8.422
 2262POPC   C3A30269   3.602  30.051   7.987
 2262POPC   C4A30270   3.881  29.876   7.690
 2262POPC   C1B30271   3.187  30.202   8.622
 2262POPC   C2B30272   3.171  30.304   8.191
 2262POPC   C3B30273   3.223  30.308   7.745
 2262POPC   C4B30274   3.574  30.312   7.507
 2263POPC   NC330275   3.192  23.612   9.576
 2263POPC   PO430276   3.833  23.842   9.564
 2263POPC   GL130277   3.617  23.644   9.240
 2263POPC   GL230278   3.319  23.851   9.155
 2263POPC   C1A30279   3.713  23.677   8.817
 2263POPC   D2A30280   3.679  23.913   8.453
 2263POPC   C3A30281   3.879  23.645   8.170
 2263POPC   C4A30282   3.806  23.559   7.758
 2263POPC   C1B30283   3.206  23.590   8.796
 2263POPC   C2B30284   3.335  23.548   8.355
 2263POPC   C3B30285   3.424  23.811   7.974
 2263POPC   C4B30286   3.330  23.722   7.509
 2264POPC   NC330287   8.010  18.172   9.485
 2264POPC   PO430288   8.456  18.654   9.490
 2264POPC   GL130289   8.174  18.516   9.128
 2264POPC   GL230290   8.144  18.139   8.989
 2264POPC   C1A30291   8.138  18.571   8.676
 2264POPC   D2A30292   8.331  18.267   8.434
 2264POPC   C3A30293   8.421  18.381   8.029
 2264POPC   C4A30294   8.158  18.541   7.761
 2264POPC   C1B30295   7.886  18.108   8.597
 2264POPC   C2B30296   7.704  18.432   8.344
 2264POPC   C3B30297   7.748  18.307   7.931
 2264POPC   C4B30298   8.098  18.038   7.755
 2265POPC   NC330299  25.107   2.739   9.540
 2265POPC   PO430300  25.617   2.386   9.410
 2265POPC   GL130301  25.384   2.647   9.087
 2265POPC   GL230302  25.008   2.724   9.064
 2265POPC   C1A30303  25.323   2.550   8.665
 2265POPC   D2A30304  25.587   2.538   8.336
 2265POPC   C3A30305  25.457   2.764   8.010
 2265POPC   C4A30306  25.455   2.533   7.637
 2265POPC   C1B30307  24.983   2.987   8.754
 2265POPC   C2B30308  24.978   2.802   8.372
 2265POPC   C3B30309  24.918   2.904   7.991
 2265POPC   C4B30310  25.176   2.961   7.645
 2266POPC   NC330311   0.779  28.368   9.471
 2266POPC   PO430312   1.428  28.407   9.364
 2266POPC   GL130313   1.069  28.392   9.055
 2266POPC   GL230314   0.932  28.716   9.124
 2266POPC   C1A30315   0.741  28.100   8.848
 2266POPC   D2A30316   0.819  27.884   8.441
 2266POPC   C3A30317   0.818  28.230   8.114
 2266POPC   C4A30318   1.010  28.381   7.721
 2266POPC   C1B30319   1.029  28.825   8.692
 2266POPC   C2B30320   1.107  28.726   8.232
 2266POPC   C3B30321   1.395  28.644   7.893
 2266POPC   C4B30322   1.308  28.698   7.418
 2267POPC   NC330323   7.954  12.054   9.482
 2267POPC   PO430324   8.428  12.468   9.348
 2267POPC   GL130325   8.277  12.081   9.092
 2267POPC   GL230326   7.902  12.046   8.977
 2267POPC   C1A30327   8.274  11.933   8.660
 2267POPC   D2A30328   8.379  12.167   8.309
 2267POPC   C3A30329   8.245  12.405   7.966
 2267POPC   C4A30330   8.526  12.306   7.616
 2267POPC   C1B30331   7.828  11.693   8.676
 2267POPC   C2B30332   7.843  11.453   8.303
 2267POPC   C3B30333   7.811  11.606   7.933
 2267POPC   C4B30334   8.013  11.991   7.795
 2268POPC   NC330335   0.011  41.365   9.328
 2268POPC   PO430336  44.346  41.586   9.390
 2268POPC   GL130337  44.577  41.466   9.051
 2268POPC   GL230338  44.522  41.149   9.153
 2268POPC   C1A30339  44.776  41.223   8.720
 2268POPC   D2A30340  44.785  41.172   8.300
 2268POPC   C3A30341  44.772  41.571   8.158
 2268POPC   C4A30342  44.990  41.731   7.830
 2268POPC   C1B30343  44.250  41.067   8.806
 2268POPC   C2B30344  44.116  41.206   8.406
 2268POPC   C3B30345  44.340  41.158   8.031
 2268POPC   C4B30346  44.630  41.333   7.740
 2269POPC   NC330347  20.055  30.398   9.368
 2269POPC   PO430348  19.681  30.845   9.753
 2269POPC   GL130349  19.710  30.887   9.251
 2269POPC   GL230350  19.537  30.723   9.043
 2269POPC   C1A30351  19.980  30.826   8.827
 2269POPC   D2A30352  20.115  30.609   8.454
 2269POPC   C3A30353  19.882  30.722   8.103
 2269POPC   C4A30354  20.031  30.530   7.751
 2269POPC   C1B30355  19.571  30.635   8.610
 2269POPC   C2B30356  19.373  30.801   8.294
 2269POPC   C3B30357  19.314  30.480   8.064
 2269POPC   C4B30358  19.531  30.467   7.725
 2270POPC   NC330359  31.678  14.577   9.491
 2270POPC   PO430360  31.219  14.143   9.641
 2270POPC   GL130361  31.217  14.390   9.231
 2270POPC   GL230362  31.531  14.323   9.071
 2270POPC   C1A30363  31.216  14.561   8.782
 2270POPC   D2A30364  31.369  14.353   8.427
 2270POPC   C3A30365  31.216  14.543   8.086
 2270POPC   C4A30366  31.166  14.474   7.674
 2270POPC   C1B30367  31.777  14.179   8.692
 2270POPC   C2B30368  31.882  14.392   8.297
 2270POPC   C3B30369  31.765  14.693   7.957
 2270POPC   C4B30370  31.655  14.584   7.569
 2271POPC   NC330371  18.833  21.700   9.417
 2271POPC   PO430372  19.347  21.161   9.406
 2271POPC   GL130373  19.169  21.356   9.028
 2271POPC   GL230374  18.813  21.382   8.982
 2271POPC   C1A30375  19.146  21.677   8.706
 2271POPC   D2A30376  19.021  21.821   8.322
 2271POPC   C3A30377  18.989  21.488   8.042
 2271POPC   C4A30378  19.007  21.293   7.658
 2271POPC   C1B30379  18.648  21.036   8.684
 2271POPC   C2B30380  18.570  21.206   8.234
 2271POPC   C3B30381  18.491  21.341   7.775
 2271POPC   C4B30382  18.605  21.119   7.380
 2272POPC   NC330383  43.739  26.569   9.489
 2272POPC   PO430384  44.337  26.837   9.398
 2272POPC   GL130385  44.049  26.719   9.103
 2272POPC   GL230386  43.844  27.010   9.252
 2272POPC   C1A30387  44.073  26.625   8.652
 2272POPC   D2A30388  44.210  26.671   8.222
 2272POPC   C3A30389  43.842  26.652   7.972
 2272POPC   C4A30390  43.477  26.614   7.698
 2272POPC   C1B30391  43.925  27.128   8.823
 2272POPC   C2B30392  43.808  27.011   8.426
 2272POPC   C3B30393  43.943  27.141   8.068
 2272POPC   C4B30394  43.790  27.095   7.684
 2273POPC   NC330395  44.342  15.281   9.524
 2273POPC   PO430396  44.766  14.735   9.450
 2273POPC   GL130397  44.493  14.925   9.173
 2273POPC   GL230398  44.620  15.266   9.112
 2273POPC   C1A30399  44.390  14.975   8.764
 2273POPC   D2A30400  44.671  15.048   8.430
 2273POPC   C3A30401  44.503  15.085   8.031
 2273POPC   C4A30402  44.793  14.916   7.691
 2273POPC   C1B30403  44.504  15.500   8.783
 2273POPC   C2B30404  44.523  15.534   8.372
 2273POPC   C3B30405  44.456  15.610   7.958
 2273POPC   C4B30406  44.524  15.373   7.616
 2274POPC   NC330407  23.995  35.698   9.324
 2274POPC   PO430408  23.505  35.265   9.547
 2274POPC   GL130409  23.698  35.240   9.114
 2274POPC   GL230410  24.002  35.436   8.907
 2274POPC   C1A30411  23.629  35.173   8.674
 2274POPC   D2A30412  23.804  35.295   8.293
 2274POPC   C3A30413  23.605  35.577   8.032
 2274POPC   C4A30414  23.745  35.398   7.652
 2274POPC   C1B30415  24.066  35.010   8.827
 2274POPC   C2B30416  23.996  34.845   8.434
 2274POPC   C3B30417  24.202  35.020   8.078
 2274POPC   C4B30418  24.205  35.212   7.695
 2275POPC   NC330419  33.109  40.889   9.544
 2275POPC   PO430420  32.495  40.979   9.554
 2275POPC   GL130421  32.764  40.962   9.185
 2275POPC   GL230422  33.085  40.722   9.055
 2275POPC   C1A30423  32.699  40.934   8.819
 2275POPC   D2A30424  32.970  40.833   8.536
 2275POPC   C3A30425  32.898  40.918   8.143
 2275POPC   C4A30426  32.754  40.879   7.727
 2275POPC   C1B30427  33.424  40.856   8.726
 2275POPC   C2B30428  33.407  40.778   8.247
 2275POPC   C3B30429  33.300  40.952   7.832
 2275POPC   C4B30430  33.271  40.966   7.384
 2276POPC   NC330431   1.761  14.211   9.419
 2276POPC   PO430432   2.387  14.297   9.697
 2276POPC   GL130433   2.266  14.483   9.270
 2276POPC   GL230434   1.948  14.670   9.277
 2276POPC   C1A30435   2.281  14.374   8.819
 2276POPC   D2A30436   1.997  14.110   8.583
 2276POPC   C3A30437   2.053  14.215   8.157
 2276POPC   C4A30438   2.322  14.137   7.778
 2276POPC   C1B30439   1.818  14.573   8.859
 2276POPC   C2B30440   1.969  14.689   8.454
 2276POPC   C3B30441   1.840  14.658   8.010
 2276POPC   C4B30442   1.878  14.377   7.699
 2277POPC   NC330443  18.268   3.801   9.486
 2277POPC   PO430444  18.083   3.210   9.485
 2277POPC   GL130445  18.084   3.229   9.055
 2277POPC   GL230446  18.324   3.504   9.067
 2277POPC   C1A30447  17.997   3.521   8.686
 2277POPC   D2A30448  18.143   3.752   8.339
 2277POPC   C3A30449  17.937   3.552   7.994
 2277POPC   C4A30450  18.071   3.181   7.753
 2277POPC   C1B30451  18.465   3.305   8.705
 2277POPC   C2B30452  18.556   3.417   8.305
 2277POPC   C3B30453  18.425   3.556   7.899
 2277POPC   C4B30454  18.582   3.449   7.473
 2278POPC   NC330455  32.127  40.313   9.531
 2278POPC   PO430456  32.066  39.682   9.412
 2278POPC   GL130457  32.092  39.872   9.028
 2278POPC   GL230458  32.045  40.235   9.042
 2278POPC   C1A30459  32.421  39.998   8.751
 2278POPC   D2A30460  32.626  40.119   8.387
 2278POPC   C3A30461  32.464  39.977   8.035
 2278POPC   C4A30462  32.057  39.905   7.932
 2278POPC   C1B30463  32.100  40.428   8.648
 2278POPC   C2B30464  32.111  40.340   8.206
 2278POPC   C3B30465  32.103  40.415   7.755
 2278POPC   C4B30466  31.938  40.407   7.309
 2279POPC   NC330467  35.781  40.397   9.449
 2279POPC   PO430468  35.981  39.677   9.657
 2279POPC   GL130469  36.027  39.845   9.232
 2279POPC   GL230470  35.751  40.023   9.122
 2279POPC   C1A30471  36.121  39.728   8.825
 2279POPC   D2A30472  36.084  39.944   8.452
 2279POPC   C3A30473  36.165  39.803   8.073
 2279POPC   C4A30474  36.429  40.131   7.905
 2279POPC   C1B30475  35.902  40.285   8.797
 2279POPC   C2B30476  35.764  40.357   8.392
 2279POPC   C3B30477  35.892  40.215   7.983
 2279POPC   C4B30478  36.003  40.011   7.566
 2280POPC   NC330479   3.850  44.437   9.784
 2280POPC   PO430480   3.478  44.904   9.619
 2280POPC   GL130481   3.550  44.763   9.198
 2280POPC   GL230482   3.757  44.446   9.134
 2280POPC   C1A30483   3.531  44.823   8.759
 2280POPC   D2A30484   3.730  44.500   8.511
 2280POPC   C3A30485   3.565  44.536   8.120
 2280POPC   C4A30486   3.607  44.344   7.747
 2280POPC   C1B30487   3.993  44.740   8.897
 2280POPC   C2B30488   4.042  44.969   8.519
 2280POPC   C3B30489   4.038   0.030   8.065
 2280POPC   C4B30490   3.925  44.754   7.740
 2281POPC   NC330491  38.811  33.568   9.454
 2281POPC   PO430492  38.705  32.880   9.490
 2281POPC   GL130493  38.499  33.026   9.115
 2281POPC   GL230494  38.504  33.406   9.098
 2281POPC   C1A30495  38.543  32.873   8.687
 2281POPC   D2A30496  38.754  32.816   8.279
 2281POPC   C3A30497  38.384  32.792   7.972
 2281POPC   C4A30498  38.061  32.975   7.679
 2281POPC   C1B30499  38.399  33.410   8.688
 2281POPC   C2B30500  38.454  33.231   8.282
 2281POPC   C3B30501  38.608  33.272   7.875
 2281POPC   C4B30502  38.338  33.407   7.583
 2282POPC   NC330503  28.427  21.939   9.399
 2282POPC   PO430504  28.233  22.486   9.824
 2282POPC   GL130505  28.236  22.409   9.321
 2282POPC   GL230506  28.570  22.385   9.211
 2282POPC   C1A30507  28.163  22.221   8.874
 2282POPC   D2A30508  28.143  22.008   8.465
 2282POPC   C3A30509  28.313  22.194   8.083
 2282POPC   C4A30510  28.256  22.132   7.636
 2282POPC   C1B30511  28.719  22.188   8.809
 2282POPC   C2B30512  28.681  22.004   8.418
 2282POPC   C3B30513  28.801  22.108   8.003
 2282POPC   C4B30514  28.739  22.331   7.619
 2283POPC   NC330515  21.111  34.923   9.227
 2283POPC   PO430516  21.580  34.479   9.469
 2283POPC   GL130517  21.476  34.568   9.066
 2283POPC   GL230518  21.673  34.806   8.867
 2283POPC   C1A30519  21.620  34.297   8.761
 2283POPC   D2A30520  21.780  34.492   8.410
 2283POPC   C3A30521  21.481  34.508   8.086
 2283POPC   C4A30522  21.517  34.519   7.666
 2283POPC   C1B30523  21.336  34.699   8.573
 2283POPC   C2B30524  21.222  34.944   8.205
 2283POPC   C3B30525  21.152  34.893   7.763
 2283POPC   C4B30526  21.040  34.523   7.496
 2284POPC   NC330527  26.199  30.242   9.362
 2284POPC   PO430528  26.077  29.635   9.456
 2284POPC   GL130529  26.106  29.827   9.071
 2284POPC   GL230530  25.915  30.173   8.941
 2284POPC   C1A30531  26.138  29.668   8.703
 2284POPC   D2A30532  25.982  29.890   8.427
 2284POPC   C3A30533  25.950  29.637   8.128
 2284POPC   C4A30534  26.013  29.792   7.752
 2284POPC   C1B30535  26.326  30.165   8.756
 2284POPC   C2B30536  26.475  30.111   8.410
 2284POPC   C3B30537  26.314  30.074   8.034
 2284POPC   C4B30538  26.011  30.321   7.818
 2285POPC   NC330539  37.876  40.959   9.445
 2285POPC   PO430540  37.553  40.371   9.428
 2285POPC   GL130541  37.667  40.602   9.079
 2285POPC   GL230542  37.502  40.908   9.107
 2285POPC   C1A30543  37.544  40.710   8.642
 2285POPC   D2A30544  37.271  40.700   8.256
 2285POPC   C3A30545  37.569  40.751   7.891
 2285POPC   C4A30546  37.971  40.839   7.708
 2285POPC   C1B30547  37.670  41.180   8.809
 2285POPC   C2B30548  37.700  41.377   8.435
 2285POPC   C3B30549  37.759  41.206   8.053
 2285POPC   C4B30550  37.619  41.202   7.648
 2286POPC   NC330551  32.046   6.761   9.569
 2286POPC   PO430552  32.629   6.953   9.341
 2286POPC   GL130553  32.294   6.698   9.129
 2286POPC   GL230554  31.981   6.458   9.171
 2286POPC   C1A30555  32.000   6.813   8.806
 2286POPC   D2A30556  31.957   6.602   8.428
 2286POPC   C3A30557  32.064   6.820   8.041
 2286POPC   C4A30558  32.249   6.957   7.706
 2286POPC   C1B30559  32.213   6.319   8.785
 2286POPC   C2B30560  32.136   6.119   8.380
 2286POPC   C3B30561  32.021   6.316   8.000
 2286POPC   C4B30562  32.395   6.489   7.796
 2287POPC   NC330563  37.712  42.657   9.518
 2287POPC   PO430564  37.948  42.093   9.636
 2287POPC   GL130565  37.872  42.278   9.204
 2287POPC   GL230566  37.494  42.233   9.197
 2287POPC   C1A30567  37.699  42.505   8.815
 2287POPC   D2A30568  37.794  42.430   8.376
 2287POPC   C3A30569  37.698  42.116   8.017
 2287POPC   C4A30570  37.750  42.361   7.616
 2287POPC   C1B30571  37.376  42.114   8.765
 2287POPC   C2B30572  37.310  42.281   8.354
 2287POPC   C3B30573  37.436  42.535   8.012
 2287POPC   C4B30574  37.221  42.551   7.663
 2288POPC   NC330575   1.277  34.001   9.409
 2288POPC   PO430576   1.342  34.730   9.476
 2288POPC   GL130577   1.224  34.503   9.147
 2288POPC   GL230578   1.541  34.378   9.110
 2288POPC   C1A30579   1.074  34.610   8.751
 2288POPC   D2A30580   1.043  34.429   8.335
 2288POPC   C3A30581   1.047  34.691   7.977
 2288POPC   C4A30582   0.979  34.395   7.647
 2288POPC   C1B30583   1.567  34.703   8.770
 2288POPC   C2B30584   1.462  34.699   8.336
 2288POPC   C3B30585   1.458  34.394   7.990
 2288POPC   C4B30586   1.595  34.769   7.807
 2289POPC   NC330587  30.952  20.811   9.521
 2289POPC   PO430588  30.280  20.566   9.509
 2289POPC   GL130589  30.557  20.632   9.139
 2289POPC   GL230590  30.921  20.592   9.070
 2289POPC   C1A30591  30.605  20.796   8.721
 2289POPC   D2A30592  30.559  21.110   8.417
 2289POPC   C3A30593  30.795  21.023   8.058
 2289POPC   C4A30594  30.590  20.825   7.733
 2289POPC   C1B30595  31.113  20.434   8.684
 2289POPC   C2B30596  30.883  20.546   8.304
 2289POPC   C3B30597  30.816  20.403   7.873
 2289POPC   C4B30598  31.038  20.518   7.472
 2290POPC   NC330599  17.025  12.843   9.284
 2290POPC   PO430600  16.545  13.221   9.473
 2290POPC   GL130601  16.541  12.964   9.085
 2290POPC   GL230602  16.612  12.605   9.138
 2290POPC   C1A30603  16.747  12.906   8.671
 2290POPC   D2A30604  16.700  13.013   8.239
 2290POPC   C3A30605  17.070  13.022   7.981
 2290POPC   C4A30606  17.085  12.859   7.565
 2290POPC   C1B30607  16.413  12.525   8.761
 2290POPC   C2B30608  16.544  12.474   8.336
 2290POPC   C3B30609  16.698  12.590   7.925
 2290POPC   C4B30610  16.292  12.700   7.771
 2291POPC   NC330611  27.907   3.437   9.489
 2291POPC   PO430612  28.512   3.095   9.429
 2291POPC   GL130613  28.404   3.473   9.210
 2291POPC   GL230614  28.727   3.652   9.237
 2291POPC   C1A30615  28.157   3.598   8.862
 2291POPC   D2A30616  28.126   3.680   8.425
 2291POPC   C3A30617  28.121   3.319   8.140
 2291POPC   C4A30618  28.484   3.122   7.932
 2291POPC   C1B30619  28.657   3.800   8.825
 2291POPC   C2B30620  28.654   3.679   8.383
 2291POPC   C3B30621  28.438   3.726   7.985
 2291POPC   C4B30622  28.572   3.870   7.583
 2292POPC   NC330623  29.240  44.626   9.480
 2292POPC   PO430624  28.747   0.042   9.612
 2292POPC   GL130625  28.809  44.886   9.187
 2292POPC   GL230626  28.821  44.550   9.169
 2292POPC   C1A30627  29.030  44.905   8.802
 2292POPC   D2A30628  29.337  44.775   8.489
 2292POPC   C3A30629  29.235  44.971   8.114
 2292POPC   C4A30630  28.942  44.833   7.805
 2292POPC   C1B30631  29.043  44.368   8.820
 2292POPC   C2B30632  29.008  44.346   8.379
 2292POPC   C3B30633  29.317  44.462   8.060
 2292POPC   C4B30634  29.587  44.406   7.723
 2293POPC   NC330635  17.065  34.022   9.525
 2293POPC   PO430636  16.810  34.592   9.501
 2293POPC   GL130637  17.038  34.511   9.168
 2293POPC   GL230638  17.069  34.858   9.070
 2293POPC   C1A30639  16.837  34.443   8.777
 2293POPC   D2A30640  16.954  34.411   8.357
 2293POPC   C3A30641  16.703  34.625   8.081
 2293POPC   C4A30642  16.551  34.652   7.674
 2293POPC   C1B30643  16.912  34.944   8.662
 2293POPC   C2B30644  16.916  35.076   8.230
 2293POPC   C3B30645  16.850  35.054   7.784
 2293POPC   C4B30646  16.973  34.869   7.385
 2294POPC   NC330647  34.844  44.085   9.520
 2294POPC   PO430648  34.635  43.535   9.427
 2294POPC   GL130649  34.766  43.810   9.087
 2294POPC   GL230650  34.496  44.071   9.158
 2294POPC   C1A30651  34.848  43.766   8.628
 2294POPC   D2A30652  34.783  43.715   8.149
 2294POPC   C3A30653  34.595  43.995   7.810
 2294POPC   C4A30654  34.717  44.174   7.387
 2294POPC   C1B30655  34.334  43.857   8.828
 2294POPC   C2B30656  34.355  43.683   8.458
 2294POPC   C3B30657  34.239  43.723   8.055
 2294POPC   C4B30658  34.221  43.702   7.608
 2295POPC   NC330659  25.406   8.481   9.470
 2295POPC   PO430660  25.769   7.950   9.267
 2295POPC   GL130661  25.494   8.224   9.039
 2295POPC   GL230662  25.135   8.189   9.071
 2295POPC   C1A30663  25.369   8.313   8.614
 2295POPC   D2A30664  25.098   8.038   8.360
 2295POPC   C3A30665  25.253   7.968   7.941
 2295POPC   C4A30666  25.603   7.773   7.722
 2295POPC   C1B30667  24.863   8.336   8.725
 2295POPC   C2B30668  24.629   8.289   8.380
 2295POPC   C3B30669  24.775   8.173   7.986
 2295POPC   C4B30670  24.975   8.307   7.649
 2296POPC   NC330671   3.985  30.620   9.501
 2296POPC   PO430672   4.491  31.088   9.447
 2296POPC   GL130673   4.273  30.809   9.137
 2296POPC   GL230674   4.299  30.438   9.114
 2296POPC   C1A30675   4.124  30.707   8.734
 2296POPC   D2A30676   4.037  30.449   8.427
 2296POPC   C3A30677   4.130  30.688   8.065
 2296POPC   C4A30678   4.412  30.738   7.729
 2296POPC   C1B30679   4.675  30.538   8.878
 2296POPC   C2B30680   4.806  30.484   8.444
 2296POPC   C3B30681   4.620  30.388   8.031
 2296POPC   C4B30682   4.783  30.393   7.592
 2297POPC   NC330683  21.107  14.358   9.509
 2297POPC   PO430684  20.398  14.631   9.479
 2297POPC   GL130685  20.705  14.555   9.171
 2297POPC   GL230686  20.653  14.218   9.224
 2297POPC   C1A30687  20.814  14.592   8.730
 2297POPC   D2A30688  20.567  14.539   8.356
 2297POPC   C3A30689  20.712  14.664   7.969
 2297POPC   C4A30690  20.487  14.565   7.595
 2297POPC   C1B30691  20.445  14.220   8.808
 2297POPC   C2B30692  20.373  14.067   8.379
 2297POPC   C3B30693  20.464  14.175   7.916
 2297POPC   C4B30694  20.306  14.054   7.451
 2298POPC   NC330695  31.350   0.853   9.475
 2298POPC   PO430696  31.790   1.332   9.570
 2298POPC   GL130697  31.629   1.191   9.147
 2298POPC   GL230698  31.354   0.967   8.993
 2298POPC   C1A30699  31.546   1.341   8.720
 2298POPC   D2A30700  31.316   1.371   8.348
 2298POPC   C3A30701  31.588   1.431   7.982
 2298POPC   C4A30702  31.745   1.180   7.682
 2298POPC   C1B30703  31.437   0.773   8.662
 2298POPC   C2B30704  31.222   0.857   8.315
 2298POPC   C3B30705  31.245   1.051   7.955
 2298POPC   C4B30706  31.264   0.842   7.606
 2299POPC   NC330707  24.428   3.001   9.523
 2299POPC   PO430708  24.762   2.417   9.594
 2299POPC   GL130709  24.597   2.420   9.166
 2299POPC   GL230710  24.315   2.663   9.149
 2299POPC   C1A30711  24.622   2.605   8.724
 2299POPC   D2A30712  24.528   2.571   8.281
 2299POPC   C3A30713  24.156   2.456   8.022
 2299POPC   C4A30714  24.306   2.446   7.572
 2299POPC   C1B30715  24.382   3.025   8.859
 2299POPC   C2B30716  24.533   3.084   8.440
 2299POPC   C3B30717  24.395   3.014   8.014
 2299POPC   C4B30718  24.574   2.902   7.621
 2300POPC   NC330719  17.108  36.427   9.163
 2300POPC   PO430720  16.563  36.105   9.494
 2300POPC   GL130721  16.654  36.195   9.079
 2300POPC   GL230722  16.861  35.877   9.020
 2300POPC   C1A30723  16.750  36.209   8.642
 2300POPC   D2A30724  16.774  35.925   8.323
 2300POPC   C3A30725  16.852  36.117   7.935
 2300POPC   C4A30726  17.145  36.427   7.705
 2300POPC   C1B30727  16.494  35.759   8.744
 2300POPC   C2B30728  16.234  35.817   8.385
 2300POPC   C3B30729  16.392  35.835   7.971
 2300POPC   C4B30730  16.509  35.908   7.527
 2301POPC   NC330731  14.078  15.433   9.418
 2301POPC   PO430732  14.075  14.678   9.415
 2301POPC   GL130733  13.724  14.951   9.141
 2301POPC   GL230734  13.756  15.276   9.054
 2301POPC   C1A30735  13.477  15.061   8.698
 2301POPC   D2A30736  13.550  15.207   8.260
 2301POPC   C3A30737  13.942  15.285   8.037
 2301POPC   C4A30738  13.974  15.164   7.583
 2301POPC   C1B30739  13.689  15.551   8.763
 2301POPC   C2B30740  13.614  15.688   8.411
 2301POPC   C3B30741  13.585  15.671   8.010
 2301POPC   C4B30742  13.612  15.495   7.649
 2302POPC   NC330743  12.571  38.482   9.264
 2302POPC   PO430744  12.944  38.053   9.525
 2302POPC   GL130745  12.995  38.208   9.072
 2302POPC   GL230746  13.208  37.974   9.076
 2302POPC   C1A30747  12.872  38.452   8.692
 2302POPC   D2A30748  12.637  38.418   8.367
 2302POPC   C3A30749  12.797  38.615   8.018
 2302POPC   C4A30750  12.685  38.554   7.575
 2302POPC   C1B30751  13.251  38.127   8.641
 2302POPC   C2B30752  13.154  38.311   8.238
 2302POPC   C3B30753  13.087  38.272   7.775
 2302POPC   C4B30754  13.310  38.058   7.442
 2303POPC   NC330755  12.499   9.593   9.473
 2303POPC   PO430756  13.048   9.983   9.479
 2303POPC   GL130757  12.857   9.767   9.114
 2303POPC   GL230758  12.819   9.389   9.133
 2303POPC   C1A30759  12.834   9.631   8.679
 2303POPC   D2A30760  12.605   9.643   8.339
 2303POPC   C3A30761  12.810   9.836   8.046
 2303POPC   C4A30762  12.690   9.968   7.665
 2303POPC   C1B30763  13.014   9.179   8.789
 2303POPC   C2B30764  13.163   9.238   8.370
 2303POPC   C3B30765  12.957   9.329   7.995
 2303POPC   C4B30766  13.146   9.647   7.718
 2304POPC   NC330767   4.496   4.188   9.315
 2304POPC   PO430768   3.904   4.536   9.410
 2304POPC   GL130769   4.120   4.413   9.052
 2304POPC   GL230770   4.174   4.082   8.917
 2304POPC   C1A30771   4.215   4.590   8.695
 2304POPC   D2A30772   4.015   4.916   8.490
 2304POPC   C3A30773   4.109   4.765   8.101
 2304POPC   C4A30774   4.220   4.525   7.802
 2304POPC   C1B30775   4.535   4.202   8.644
 2304POPC   C2B30776   4.457   4.364   8.254
 2304POPC   C3B30777   4.120   4.131   8.097
 2304POPC   C4B30778   4.026   4.057   7.663
 2305POPC   NC330779  36.737  23.817   9.474
 2305POPC   PO430780  37.154  23.373   9.479
 2305POPC   GL130781  36.964  23.543   9.116
 2305POPC   GL230782  37.147  23.883   9.146
 2305POPC   C1A30783  36.735  23.562   8.703
 2305POPC   D2A30784  36.836  23.341   8.296
 2305POPC   C3A30785  36.729  23.403   7.878
 2305POPC   C4A30786  37.014  23.444   7.565
 2305POPC   C1B30787  36.900  24.060   8.819
 2305POPC   C2B30788  36.700  24.110   8.429
 2305POPC   C3B30789  36.765  23.888   8.046
 2305POPC   C4B30790  37.027  23.957   7.698
 2306POPC   NC330791   3.745  13.844   9.445
 2306POPC   PO430792   3.576  13.246   9.401
 2306POPC   GL130793   3.507  13.471   9.060
 2306POPC   GL230794   3.165  13.319   9.011
 2306POPC   C1A30795   3.695  13.672   8.686
 2306POPC   D2A30796   3.665  13.471   8.274
 2306POPC   C3A30797   3.731  13.626   7.875
 2306POPC   C4A30798   3.486  13.609   7.493
 2306POPC   C1B30799   3.214  13.513   8.619
 2306POPC   C2B30800   3.269  13.832   8.317
 2306POPC   C3B30801   3.187  13.748   7.905
 2306POPC   C4B30802   3.047  13.403   7.687
 2307POPC   NC330803  43.709  32.183   9.550
 2307POPC   PO430804  44.393  32.044   9.543
 2307POPC   GL130805  44.093  32.186   9.241
 2307POPC   GL230806  43.845  31.961   9.111
 2307POPC   C1A30807  43.942  32.445   8.890
 2307POPC   D2A30808  44.189  32.540   8.531
 2307POPC   C3A30809  44.074  32.342   8.150
 2307POPC   C4A30810  43.895  32.401   7.752
 2307POPC   C1B30811  43.668  31.786   8.740
 2307POPC   C2B30812  43.642  31.930   8.354
 2307POPC   C3B30813  43.812  31.926   7.985
 2307POPC   C4B30814  43.569  32.033   7.642
 2308POPC   NC330815   3.165  36.509   9.504
 2308POPC   PO430816   2.685  36.028   9.431
 2308POPC   GL130817   2.810  36.100   9.066
 2308POPC   GL230818   3.140  36.139   9.112
 2308POPC   C1A30819   2.900  35.872   8.702
 2308POPC   D2A30820   3.085  35.997   8.323
 2308POPC   C3A30821   2.780  36.131   8.043
 2308POPC   C4A30822   2.663  36.129   7.641
 2308POPC   C1B30823   3.068  36.398   8.741
 2308POPC   C2B30824   3.000  36.518   8.309
 2308POPC   C3B30825   3.235  36.328   7.941
 2308POPC   C4B30826   3.144  35.920   7.712
 2309POPC   NC330827  42.653   0.200   9.467
 2309POPC   PO430828  43.263   0.557   9.522
 2309POPC   GL130829  43.068   0.355   9.198
 2309POPC   GL230830  43.336   0.129   9.148
 2309POPC   C1A30831  43.067   0.426   8.768
 2309POPC   D2A30832  43.338   0.468   8.423
 2309POPC   C3A30833  43.274   0.426   7.998
 2309POPC   C4A30834  42.935   0.468   7.726
 2309POPC   C1B30835  43.411   0.041   8.712
 2309POPC   C2B30836  43.313  44.932   8.283
 2309POPC   C3B30837  43.491  44.997   7.865
 2309POPC   C4B30838  43.329   0.230   7.498
 2310POPC   NC330839  25.603  36.618   9.301
 2310POPC   PO430840  25.116  36.119   9.446
 2310POPC   GL130841  25.240  36.202   9.067
 2310POPC   GL230842  25.077  36.515   9.097
 2310POPC   C1A30843  25.467  36.158   8.698
 2310POPC   D2A30844  25.694  36.340   8.387
 2310POPC   C3A30845  25.556  36.182   8.015
 2310POPC   C4A30846  25.730  36.308   7.646
 2310POPC   C1B30847  25.201  36.595   8.678
 2310POPC   C2B30848  25.193  36.463   8.256
 2310POPC   C3B30849  25.267  36.543   7.816
 2310POPC   C4B30850  25.569  36.812   7.584
 2311POPC   NC330851  37.064  16.270   9.663
 2311POPC   PO430852  36.969  15.594   9.557
 2311POPC   GL130853  37.002  15.798   9.167
 2311POPC   GL230854  36.829  16.067   9.200
 2311POPC   C1A30855  36.795  15.754   8.773
 2311POPC   D2A30856  36.772  15.974   8.391
 2311POPC   C3A30857  37.036  15.924   8.045
 2311POPC   C4A30858  36.802  15.626   7.821
 2311POPC   C1B30859  36.763  16.299   8.806
 2311POPC   C2B30860  36.623  16.452   8.405
 2311POPC   C3B30861  36.626  16.271   7.984
 2311POPC   C4B30862  36.454  16.373   7.565
 2312POPC   NC330863  18.167  24.147   9.493
 2312POPC   PO430864  18.520  24.788   9.513
 2312POPC   GL130865  18.387  24.537   9.183
 2312POPC   GL230866  18.054  24.472   9.125
 2312POPC   C1A30867  18.389  24.658   8.756
 2312POPC   D2A30868  18.529  24.678   8.327
 2312POPC   C3A30869  18.297  24.549   7.988
 2312POPC   C4A30870  18.497  24.366   7.645
 2312POPC   C1B30871  18.018  24.254   8.762
 2312POPC   C2B30872  17.966  24.382   8.374
 2312POPC   C3B30873  17.957  24.172   8.006
 2312POPC   C4B30874  18.061  24.113   7.591
 2313POPC   NC330875   8.708  11.751   9.359
 2313POPC   PO430876   9.079  12.215   9.593
 2313POPC   GL130877   8.918  12.320   9.171
 2313POPC   GL230878   9.210  12.454   9.050
 2313POPC   C1A30879   8.695  12.188   8.790
 2313POPC   D2A30880   8.801  11.896   8.439
 2313POPC   C3A30881   8.847  12.065   8.010
 2313POPC   C4A30882   9.036  12.163   7.591
 2313POPC   C1B30883   9.199  12.148   8.724
 2313POPC   C2B30884   9.266  12.250   8.321
 2313POPC   C3B30885   9.383  12.089   7.979
 2313POPC   C4B30886   9.424  11.832   7.681
 2314POPC   NC330887   4.074   3.210   9.355
 2314POPC   PO430888   4.244   3.822   9.362
 2314POPC   GL130889   4.453   3.548   9.059
 2314POPC   GL230890   4.623   3.823   8.969
 2314POPC   C1A30891   4.450   3.212   8.722
 2314POPC   D2A30892   4.414   3.008   8.313
 2314POPC   C3A30893   4.044   3.101   8.064
 2314POPC   C4A30894   4.041   3.332   7.680
 2314POPC   C1B30895   4.333   3.716   8.613
 2314POPC   C2B30896   4.099   3.609   8.264
 2314POPC   C3B30897   4.299   3.704   7.900
 2314POPC   C4B30898   4.592   3.500   7.729
 2315POPC   NC330899  26.222  33.282   9.677
 2315POPC   PO430900  25.743  33.347   9.250
 2315POPC   GL130901  26.127  33.205   9.128
 2315POPC   GL230902  26.102  32.910   9.307
 2315POPC   C1A30903  26.290  33.172   8.714
 2315POPC   D2A30904  26.030  33.312   8.330
 2315POPC   C3A30905  26.264  33.214   8.014
 2315POPC   C4A30906  26.470  33.027   7.723
 2315POPC   C1B30907  26.027  32.729   8.856
 2315POPC   C2B30908  26.031  32.829   8.441
 2315POPC   C3B30909  26.005  32.785   8.008
 2315POPC   C4B30910  26.071  32.662   7.591
 2316POPC   NC330911   9.209   0.401   9.578
 2316POPC   PO430912   8.541   0.413   9.663
 2316POPC   GL130913   8.873   0.415   9.212
 2316POPC   GL230914   9.238   0.302   9.072
 2316POPC   C1A30915   8.882   0.641   8.818
 2316POPC   D2A30916   9.037   0.842   8.434
 2316POPC   C3A30917   8.875   0.690   8.044
 2316POPC   C4A30918   8.892   0.389   7.696
 2316POPC   C1B30919   9.375   0.518   8.673
 2316POPC   C2B30920   9.361   0.511   8.209
 2316POPC   C3B30921   9.310   0.644   7.766
 2316POPC   C4B30922   9.339   0.426   7.380
 2317POPC   NC330923  43.688   2.270   9.700
 2317POPC   PO430924  44.099   1.894   9.378
 2317POPC   GL130925  43.896   2.081   9.053
 2317POPC   GL230926  43.637   2.244   9.188
 2317POPC   C1A30927  43.776   1.986   8.611
 2317POPC   D2A30928  43.849   1.580   8.388
 2317POPC   C3A30929  43.794   1.627   7.965
 2317POPC   C4A30930  44.077   1.756   7.703
 2317POPC   C1B30931  43.702   2.480   8.804
 2317POPC   C2B30932  43.798   2.504   8.391
 2317POPC   C3B30933  43.792   2.144   8.105
 2317POPC   C4B30934  43.704   2.119   7.681
 2318POPC   NC330935  32.898  16.831   9.495
 2318POPC   PO430936  33.522  16.832   9.665
 2318POPC   GL130937  33.284  16.594   9.267
 2318POPC   GL230938  32.932  16.493   9.105
 2318POPC   C1A30939  33.318  16.513   8.795
 2318POPC   D2A30940  33.006  16.345   8.514
 2318POPC   C3A30941  33.177  16.417   8.114
 2318POPC   C4A30942  33.332  16.723   7.820
 2318POPC   C1B30943  32.936  16.839   8.797
 2318POPC   C2B30944  32.984  16.833   8.343
 2318POPC   C3B30945  32.802  16.703   7.945
 2318POPC   C4B30946  32.618  16.932   7.636
 2319POPC   NC330947  33.310  14.674   9.393
 2319POPC   PO430948  32.858  14.236   9.637
 2319POPC   GL130949  32.997  14.374   9.160
 2319POPC   GL230950  33.007  14.659   8.976
 2319POPC   C1A30951  33.164  14.211   8.744
 2319POPC   D2A30952  33.095  14.413   8.335
 2319POPC   C3A30953  33.059  14.209   7.940
 2319POPC   C4A30954  33.315  14.142   7.578
 2319POPC   C1B30955  33.387  14.665   8.718
 2319POPC   C2B30956  33.441  14.817   8.275
 2319POPC   C3B30957  33.106  14.783   7.961
 2319POPC   C4B30958  33.021  14.566   7.558
 2320POPC   NC330959  15.473  14.443   9.819
 2320POPC   PO430960  16.034  14.148   9.695
 2320POPC   GL130961  15.959  14.299   9.270
 2320POPC   GL230962  15.995  14.015   9.094
 2320POPC   C1A30963  15.933  14.473   8.843
 2320POPC   D2A30964  16.037  14.716   8.475
 2320POPC   C3A30965  15.857  14.538   8.107
 2320POPC   C4A30966  16.181  14.428   7.808
 2320POPC   C1B30967  15.664  13.961   8.822
 2320POPC   C2B30968  15.668  14.114   8.406
 2320POPC   C3B30969  15.954  14.029   8.062
 2320POPC   C4B30970  15.938  14.020   7.623
 2321POPC   NC330971  44.529  10.422   9.352
 2321POPC   PO430972   0.145  10.661   9.304
 2321POPC   GL130973  44.809  10.693   9.032
 2321POPC   GL230974  44.514  10.892   9.130
 2321POPC   C1A30975  44.648  10.498   8.674
 2321POPC   D2A30976  44.824  10.504   8.262
 2321POPC   C3A30977  44.722  10.340   7.848
 2321POPC   C4A30978  44.735  10.280   7.379
 2321POPC   C1B30979  44.227  10.799   8.759
 2321POPC   C2B30980  44.336  10.724   8.325
 2321POPC   C3B30981  44.487  10.812   7.910
 2321POPC   C4B30982  44.356  10.626   7.526
 2322POPC   NC330983   6.339  20.015   9.656
 2322POPC   PO430984   5.717  19.881   9.858
 2322POPC   GL130985   5.585  19.681   9.324
 2322POPC   GL230986   5.945  19.583   9.117
 2322POPC   C1A30987   5.558  19.744   8.869
 2322POPC   D2A30988   5.607  19.612   8.447
 2322POPC   C3A30989   5.661  19.969   8.182
 2322POPC   C4A30990   5.651  20.028   7.740
 2322POPC   C1B30991   6.109  19.458   8.727
 2322POPC   C2B30992   6.118  19.601   8.307
 2322POPC   C3B30993   5.914  19.610   7.915
 2322POPC   C4B30994   5.554  19.490   7.707
 2323POPC   NC330995  27.850  13.064   9.586
 2323POPC   PO430996  27.222  13.021   9.598
 2323POPC   GL130997  27.521  13.048   9.149
 2323POPC   GL230998  27.927  13.053   9.100
 2323POPC   C1A30999  27.451  13.008   8.654
 2323POPC   D2A31000  27.635  13.062   8.211
 2323POPC   C3A31001  27.466  12.728   7.901
 2323POPC   C4A31002  27.374  12.647   7.455
 2323POPC   C1B31003  27.924  12.780   8.778
 2323POPC   C2B31004  28.099  12.796   8.369
 2323POPC   C3B31005  27.946  12.638   7.993
 2323POPC   C4B31006  27.867  12.736   7.523
 2324POPC   NC331007   4.087  20.558   9.573
 2324POPC   PO431008   4.630  20.840   9.396
 2324POPC   GL131009   4.350  20.657   9.082
 2324POPC   GL231010   3.981  20.621   9.074
 2324POPC   C1A31011   4.379  20.333   8.713
 2324POPC   D2A31012   4.681  20.235   8.393
 2324POPC   C3A31013   4.637  20.385   7.960
 2324POPC   C4A31014   4.285  20.374   7.636
 2324POPC   C1B31015   4.132  20.752   8.647
 2324POPC   C2B31016   4.380  20.690   8.290
 2324POPC   C3B31017   4.337  20.824   7.873
 2324POPC   C4B31018   4.110  20.836   7.484
 2325POPC   NC331019  29.377  34.710   9.771
 2325POPC   PO431020  29.843  34.497   9.263
 2325POPC   GL131021  30.091  34.681   8.977
 2325POPC   GL231022  30.289  34.353   8.965
 2325POPC   C1A31023  30.106  34.856   8.544
 2325POPC   D2A31024  30.271  34.919   8.122
 2325POPC   C3A31025  30.077  34.665   7.802
 2325POPC   C4A31026  29.611  34.617   7.823
 2325POPC   C1B31027  29.967  34.342   8.635
 2325POPC   C2B31028  29.950  34.387   8.201
 2325POPC   C3B31029  30.057  34.133   7.846
 2325POPC   C4B31030  30.079  34.030   7.412
 2326POPC   NC331031  41.951  21.424   9.374
 2326POPC   PO431032  42.620  21.185   9.479
 2326POPC   GL131033  42.449  21.449   9.186
 2326POPC   GL231034  42.257  21.246   9.014
 2326POPC   C1A31035  42.521  21.607   8.793
 2326POPC   D2A31036  42.380  21.411   8.444
 2326POPC   C3A31037  42.564  21.588   8.098
 2326POPC   C4A31038  42.482  21.720   7.705
 2326POPC   C1B31039  42.049  21.032   8.683
 2326POPC   C2B31040  41.894  21.194   8.312
 2326POPC   C3B31041  42.099  21.399   8.011
 2326POPC   C4B31042  42.382  21.239   7.728
 2327POPC   NC331043  23.847  43.567   9.495
 2327POPC   PO431044  23.354  43.968   9.531
 2327POPC   GL131045  23.599  44.023   9.195
 2327POPC   GL231046  23.597  43.703   9.095
 2327POPC   C1A31047  23.864  44.019   8.825
 2327POPC   D2A31048  23.917  43.845   8.455
 2327POPC   C3A31049  23.943  44.084   8.124
 2327POPC   C4A31050  23.782  44.003   7.749
 2327POPC   C1B31051  23.593  43.503   8.736
 2327POPC   C2B31052  23.721  43.405   8.333
 2327POPC   C3B31053  23.880  43.579   8.005
 2327POPC   C4B31054  23.608  43.470   7.704
 2328POPC   NC331055   2.730   1.594   9.415
 2328POPC   PO431056   2.968   0.937   9.411
 2328POPC   GL131057   2.597   1.083   9.194
 2328POPC   GL231058   2.718   1.335   8.978
 2328POPC   C1A31059   2.473   0.916   8.796
 2328POPC   D2A31060   2.299   1.075   8.431
 2328POPC   C3A31061   2.610   1.074   8.103
 2328POPC   C4A31062   2.644   1.378   7.799
 2328POPC   C1B31063   3.088   1.227   8.726
 2328POPC   C2B31064   3.200   1.058   8.308
 2328POPC   C3B31065   3.126   1.217   7.910
 2328POPC   C4B31066   3.077   1.509   7.579
 2329POPC   NC331067  18.553  23.456   9.468
 2329POPC   PO431068  17.926  23.739   9.462
 2329POPC   GL131069  18.087  23.847   9.061
 2329POPC   GL231070  18.399  24.034   9.052
 2329POPC   C1A31071  18.233  23.781   8.630
 2329POPC   D2A31072  18.459  23.590   8.291
 2329POPC   C3A31073  18.185  23.422   7.960
 2329POPC   C4A31074  18.110  23.620   7.611
 2329POPC   C1B31075  18.560  24.195   8.660
 2329POPC   C2B31076  18.426  24.129   8.263
 2329POPC   C3B31077  18.430  23.913   7.886
 2329POPC   C4B31078  18.494  23.917   7.416
 2330POPC   NC331079  38.275  35.415   9.886
 2330POPC   PO431080  38.596  35.729   9.342
 2330POPC   GL131081  38.549  35.579   8.934
 2330POPC   GL231082  38.553  35.230   9.039
 2330POPC   C1A31083  38.233  35.653   8.578
 2330POPC   D2A31084  37.973  35.344   8.316
 2330POPC   C3A31085  38.242  35.305   7.939
 2330POPC   C4A31086  38.681  35.542   7.860
 2330POPC   C1B31087  38.342  35.169   8.675
 2330POPC   C2B31088  38.582  35.311   8.337
 2330POPC   C3B31089  38.675  35.049   8.002
 2330POPC   C4B31090  38.389  34.795   7.812
 2331POPC   NC331091  12.891  44.884   9.298
 2331POPC   PO431092  12.359  44.505   9.533
 2331POPC   GL131093  12.596  44.535   9.103
 2331POPC   GL231094  12.557  44.854   8.895
 2331POPC   C1A31095  12.933  44.517   8.725
 2331POPC   D2A31096  12.970  44.369   8.250
 2331POPC   C3A31097  12.926  44.663   7.878
 2331POPC   C4A31098  12.647  44.847   7.593
 2331POPC   C1B31099  12.889   0.024   8.679
 2331POPC   C2B31100  13.026  44.877   8.345
 2331POPC   C3B31101  13.127   0.091   8.034
 2331POPC   C4B31102  13.002   0.215   7.700
 2332POPC   NC331103  27.102  30.523   9.687
 2332POPC   PO431104  27.756  30.730   9.534
 2332POPC   GL131105  27.599  30.690   9.156
 2332POPC   GL231106  27.683  30.360   9.055
 2332POPC   C1A31107  27.458  30.863   8.758
 2332POPC   D2A31108  27.468  30.799   8.315
 2332POPC   C3A31109  27.223  30.913   7.965
 2332POPC   C4A31110  27.471  31.002   7.601
 2332POPC   C1B31111  27.918  30.587   8.755
 2332POPC   C2B31112  27.966  30.693   8.318
 2332POPC   C3B31113  27.763  30.663   7.903
 2332POPC   C4B31114  28.026  30.431   7.617
 2333POPC   NC331115  37.252  20.993  10.005
 2333POPC   PO431116  37.497  20.674   9.458
 2333POPC   GL131117  37.728  20.670   9.088
 2333POPC   GL231118  37.722  20.346   9.027
 2333POPC   C1A31119  37.699  20.812   8.672
 2333POPC   D2A31120  37.884  20.713   8.277
 2333POPC   C3A31121  37.627  20.430   8.005
 2333POPC   C4A31122  37.618  20.624   7.600
 2333POPC   C1B31123  37.971  20.304   8.628
 2333POPC   C2B31124  38.108  20.266   8.176
 2333POPC   C3B31125  38.057  20.424   7.742
 2333POPC   C4B31126  37.871  20.287   7.316
 2334POPC   NC331127   4.552  16.514   9.465
 2334POPC   PO431128   4.315  17.103   9.562
 2334POPC   GL131129   4.259  16.791   9.185
 2334POPC   GL231130   4.613  16.832   9.063
 2334POPC   C1A31131   4.377  16.611   8.702
 2334POPC   D2A31132   4.491  16.899   8.384
 2334POPC   C3A31133   4.484  16.692   8.023
 2334POPC   C4A31134   4.277  16.531   7.694
 2334POPC   C1B31135   4.216  17.065   8.795
 2334POPC   C2B31136   3.922  17.051   8.467
 2334POPC   C3B31137   4.097  17.076   8.065
 2334POPC   C4B31138   4.351  17.082   7.733
 2335POPC   NC331139  19.967  32.157   9.647
 2335POPC   PO431140  19.416  32.578   9.469
 2335POPC   GL131141  19.564  32.445   9.110
 2335POPC   GL231142  19.928  32.390   9.182
 2335POPC   C1A31143  19.777  32.602   8.717
 2335POPC   D2A31144  19.990  32.400   8.384
 2335POPC   C3A31145  19.813  32.569   7.991
 2335POPC   C4A31146  19.580  32.349   7.660
 2335POPC   C1B31147  19.819  32.107   8.856
 2335POPC   C2B31148  19.605  32.062   8.456
 2335POPC   C3B31149  19.791  32.058   8.047
 2335POPC   C4B31150  19.677  31.849   7.709
 2336POPC   NC331151   8.911   8.209   9.680
 2336POPC   PO431152   8.693   7.524   9.568
 2336POPC   GL131153   8.728   7.930   9.241
 2336POPC   GL231154   9.093   8.117   9.199
 2336POPC   C1A31155   8.747   8.173   8.829
 2336POPC   D2A31156   8.931   8.366   8.451
 2336POPC   C3A31157   8.698   8.364   8.069
 2336POPC   C4A31158   8.682   8.008   7.794
 2336POPC   C1B31159   9.338   8.140   8.812
 2336POPC   C2B31160   9.328   8.048   8.371
 2336POPC   C3B31161   9.186   8.192   7.972
 2336POPC   C4B31162   9.409   8.334   7.622
 2337POPC   NC331163  10.848  25.574   9.559
 2337POPC   PO431164  10.533  26.181   9.532
 2337POPC   GL131165  10.694  26.067   9.117
 2337POPC   GL231166  10.877  25.726   9.071
 2337POPC   C1A31167  10.526  26.256   8.736
 2337POPC   D2A31168  10.208  26.175   8.386
 2337POPC   C3A31169  10.289  26.324   7.951
 2337POPC   C4A31170  10.321  26.019   7.602
 2337POPC   C1B31171  10.760  25.807   8.617
 2337POPC   C2B31172  10.737  26.135   8.278
 2337POPC   C3B31173  10.778  26.082   7.855
 2337POPC   C4B31174  10.953  25.655   7.717
 2338POPC   NC331175  32.378  30.809   9.427
 2338POPC   PO431176  32.031  30.207   9.438
 2338POPC   GL131177  32.025  30.544   9.110
 2338POPC   GL231178  31.913  30.888   9.216
 2338POPC   C1A31179  32.245  30.646   8.725
 2338POPC   D2A31180  32.454  30.633   8.319
 2338POPC   C3A31181  32.202  30.670   7.969
 2338POPC   C4A31182  32.359  31.001   7.754
 2338POPC   C1B31183  31.944  31.054   8.798
 2338POPC   C2B31184  32.144  31.068   8.378
 2338POPC   C3B31185  31.966  31.210   7.994
 2338POPC   C4B31186  31.719  30.858   7.835
 2339POPC   NC331187  17.176   0.821   9.706
 2339POPC   PO431188  17.548   0.276   9.464
 2339POPC   GL131189  17.634   0.381   9.038
 2339POPC   GL231190  17.696   0.688   9.072
 2339POPC   C1A31191  17.585   0.376   8.596
 2339POPC   D2A31192  17.614   0.496   8.177
 2339POPC   C3A31193  17.363   0.302   7.881
 2339POPC   C4A31194  17.563   0.198   7.465
 2339POPC   C1B31195  17.331   0.780   8.808
 2339POPC   C2B31196  17.207   0.773   8.387
 2339POPC   C3B31197  17.319   0.880   7.967
 2339POPC   C4B31198  17.157   1.113   7.577
 2340POPC   NC331199  41.817  32.256   9.338
 2340POPC   PO431200  41.231  32.180   9.440
 2340POPC   GL131201  41.374  32.388   9.063
 2340POPC   GL231202  41.675  32.635   9.025
 2340POPC   C1A31203  41.358  32.538   8.638
 2340POPC   D2A31204  41.175  32.590   8.258
 2340POPC   C3A31205  41.142  32.162   8.084
 2340POPC   C4A31206  41.356  31.971   7.740
 2340POPC   C1B31207  41.842  32.299   8.697
 2340POPC   C2B31208  41.834  32.185   8.234
 2340POPC   C3B31209  41.854  32.219   7.769
 2340POPC   C4B31210  41.848  32.536   7.422
 2341POPC   NC331211  43.849  11.179   9.625
 2341POPC   PO431212  44.155  10.672   9.443
 2341POPC   GL131213  44.031  11.056   9.171
 2341POPC   GL231214  43.670  11.186   9.144
 2341POPC   C1A31215  44.040  11.310   8.798
 2341POPC   D2A31216  44.057  11.542   8.414
 2341POPC   C3A31217  44.028  11.361   7.994
 2341POPC   C4A31218  44.311  11.563   7.699
 2341POPC   C1B31219  43.671  10.948   8.766
 2341POPC   C2B31220  43.891  10.984   8.374
 2341POPC   C3B31221  43.957  10.793   7.965
 2341POPC   C4B31222  44.015  11.011   7.585
 2342POPC   NC331223  17.297  14.595   9.415
 2342POPC   PO431224  17.894  14.330   9.624
 2342POPC   GL131225  17.660  14.165   9.244
 2342POPC   GL231226  17.659  14.503   9.057
 2342POPC   C1A31227  17.548  14.102   8.786
 2342POPC   D2A31228  17.666  14.364   8.446
 2342POPC   C3A31229  17.434  14.347   8.088
 2342POPC   C4A31230  17.473  14.487   7.693
 2342POPC   C1B31231  17.282  14.548   8.760
 2342POPC   C2B31232  17.058  14.549   8.361
 2342POPC   C3B31233  17.077  14.714   7.919
 2342POPC   C4B31234  17.101  14.777   7.425
 2343POPC   NC331235  39.067  19.609   9.508
 2343POPC   PO431236  39.255  18.914   9.553
 2343POPC   GL131237  39.091  18.871   9.147
 2343POPC   GL231238  39.079  19.230   9.157
 2343POPC   C1A31239  39.246  18.979   8.717
 2343POPC   D2A31240  39.158  18.907   8.275
 2343POPC   C3A31241  39.265  19.151   7.912
 2343POPC   C4A31242  39.507  18.964   7.587
 2343POPC   C1B31243  39.074  19.517   8.822
 2343POPC   C2B31244  39.015  19.388   8.414
 2343POPC   C3B31245  38.894  19.570   8.065
 2343POPC   C4B31246  38.878  19.435   7.678
 2344POPC   NC331247  34.785   6.830   9.381
 2344POPC   PO431248  34.189   6.532   9.621
 2344POPC   GL131249  34.362   6.500   9.214
 2344POPC   GL231250  34.045   6.493   9.084
 2344POPC   C1A31251  34.420   6.694   8.774
 2344POPC   D2A31252  34.567   6.968   8.438
 2344POPC   C3A31253  34.555   6.738   8.068
 2344POPC   C4A31254  34.871   6.692   7.780
 2344POPC   C1B31255  34.245   6.198   8.802
 2344POPC   C2B31256  34.390   6.295   8.390
 2344POPC   C3B31257  34.195   6.347   7.966
 2344POPC   C4B31258  34.218   6.404   7.483
 2345POPC   NC331259  27.850  14.798   9.370
 2345POPC   PO431260  27.823  15.516   9.480
 2345POPC   GL131261  27.597  15.311   9.112
 2345POPC   GL231262  27.311  15.069   9.186
 2345POPC   C1A31263  27.660  15.411   8.660
 2345POPC   D2A31264  27.933  15.294   8.305
 2345POPC   C3A31265  27.826  15.463   7.894
 2345POPC   C4A31266  27.694  15.364   7.492
 2345POPC   C1B31267  27.393  14.980   8.733
 2345POPC   C2B31268  27.431  15.090   8.301
 2345POPC   C3B31269  27.685  14.962   7.946
 2345POPC   C4B31270  27.625  14.669   7.625
 2346POPC   NC331271  12.013  30.025   9.578
 2346POPC   PO431272  12.323  29.438   9.552
 2346POPC   GL131273  12.246  29.730   9.192
 2346POPC   GL231274  11.918  29.635   9.155
 2346POPC   C1A31275  12.138  29.924   8.753
 2346POPC   D2A31276  12.302  29.802   8.314
 2346POPC   C3A31277  12.254  30.063   7.913
 2346POPC   C4A31278  12.308  30.100   7.423
 2346POPC   C1B31279  11.724  29.592   8.735
 2346POPC   C2B31280  11.776  29.763   8.324
 2346POPC   C3B31281  11.867  29.730   7.888
 2346POPC   C4B31282  11.843  29.677   7.442
 2347POPC   NC331283  19.295  42.310   9.437
 2347POPC   PO431284  18.621  42.230   9.551
 2347POPC   GL131285  18.862  42.247   9.194
 2347POPC   GL231286  18.773  41.931   9.134
 2347POPC   C1A31287  19.101  42.396   8.823
 2347POPC   D2A31288  19.247  42.282   8.424
 2347POPC   C3A31289  19.096  42.538   8.097
 2347POPC   C4A31290  19.189  42.627   7.676
 2347POPC   C1B31291  18.923  41.923   8.730
 2347POPC   C2B31292  18.802  42.041   8.351
 2347POPC   C3B31293  19.008  42.028   7.985
 2347POPC   C4B31294  18.804  42.310   7.719
 2348POPC   NC331295  10.379  39.553   9.496
 2348POPC   PO431296  10.641  40.169   9.491
 2348POPC   GL131297  10.816  39.956   9.137
 2348POPC   GL231298  10.963  40.322   9.071
 2348POPC   C1A31299  10.750  39.677   8.739
 2348POPC   D2A31300  10.681  39.511   8.294
 2348POPC   C3A31301  10.465  39.814   7.992
 2348POPC   C4A31302  10.409  40.113   7.636
 2348POPC   C1B31303  10.938  40.138   8.688
 2348POPC   C2B31304  10.824  40.023   8.284
 2348POPC   C3B31305  10.819  40.260   7.891
 2348POPC   C4B31306  10.836  40.320   7.424
 2349POPC   NC331307  20.748  32.695   9.394
 2349POPC   PO431308  20.814  33.216   9.794
 2349POPC   GL131309  20.597  33.167   9.335
 2349POPC   GL231310  20.258  33.047   9.178
 2349POPC   C1A31311  20.695  33.081   8.877
 2349POPC   D2A31312  20.551  33.096   8.462
 2349POPC   C3A31313  20.863  33.177   8.147
 2349POPC   C4A31314  20.918  32.975   7.782
 2349POPC   C1B31315  20.302  32.699   8.831
 2349POPC   C2B31316  20.476  32.582   8.405
 2349POPC   C3B31317  20.515  32.796   8.038
 2349POPC   C4B31318  20.418  32.770   7.624
 2350POPC   NC331319  29.821  40.246   9.460
 2350POPC   PO431320  29.532  39.686   9.395
 2350POPC   GL131321  29.758  39.930   9.070
 2350POPC   GL231322  30.127  40.060   9.098
 2350POPC   C1A31323  29.816  39.924   8.647
 2350POPC   D2A31324  29.598  39.938   8.264
 2350POPC   C3A31325  29.900  39.954   7.943
 2350POPC   C4A31326  29.916  39.746   7.528
 2350POPC   C1B31327  30.186  40.283   8.726
 2350POPC   C2B31328  30.008  40.320   8.326
 2350POPC   C3B31329  30.318  40.265   8.018
 2350POPC   C4B31330  30.248  40.106   7.619
 2351POPC   NC331331  19.627  35.039   9.389
 2351POPC   PO431332  19.982  35.618   9.552
 2351POPC   GL131333  19.914  35.394   9.174
 2351POPC   GL231334  19.560  35.498   9.146
 2351POPC   C1A31335  19.799  35.226   8.767
 2351POPC   D2A31336  20.031  35.272   8.398
 2351POPC   C3A31337  19.859  35.256   8.012
 2351POPC   C4A31338  19.967  35.560   7.706
 2351POPC   C1B31339  19.373  35.612   8.756
 2351POPC   C2B31340  19.518  35.449   8.380
 2351POPC   C3B31341  19.523  35.628   7.991
 2351POPC   C4B31342  19.495  35.389   7.611
 2352POPC   NC331343  26.668  18.292   9.481
 2352POPC   PO431344  27.099  17.859   9.406
 2352POPC   GL131345  26.865  18.031   9.102
 2352POPC   GL231346  27.075  18.333   9.112
 2352POPC   C1A31347  26.764  18.221   8.724
 2352POPC   D2A31348  26.983  18.423   8.419
 2352POPC   C3A31349  26.646  18.487   8.164
 2352POPC   C4A31350  26.574  18.305   7.750
 2352POPC   C1B31351  27.240  18.063   8.767
 2352POPC   C2B31352  27.083  17.912   8.346
 2352POPC   C3B31353  26.966  18.114   8.008
 2352POPC   C4B31354  27.163  18.359   7.725
 2353POPC   NC331355  33.300  42.035   9.346
 2353POPC   PO431356  32.676  42.248   9.524
 2353POPC   GL131357  32.844  42.184   9.163
 2353POPC   GL231358  32.866  41.822   9.162
 2353POPC   C1A31359  33.075  42.302   8.780
 2353POPC   D2A31360  32.928  42.272   8.364
 2353POPC   C3A31361  33.167  42.459   8.027
 2353POPC   C4A31362  33.065  42.350   7.621
 2353POPC   C1B31363  32.721  41.933   8.757
 2353POPC   C2B31364  32.462  41.995   8.455
 2353POPC   C3B31365  32.561  42.065   8.076
 2353POPC   C4B31366  32.620  42.128   7.685
 2354POPC   NC331367   4.034  35.258   9.540
 2354POPC   PO431368   4.426  35.801   9.525
 2354POPC   GL131369   4.222  35.576   9.202
 2354POPC   GL231370   4.509  35.378   9.068
 2354POPC   C1A31371   4.116  35.558   8.782
 2354POPC   D2A31372   4.265  35.223   8.499
 2354POPC   C3A31373   4.285  35.256   8.022
 2354POPC   C4A31374   4.075  35.215   7.588
 2354POPC   C1B31375   4.622  35.622   8.683
 2354POPC   C2B31376   4.702  35.478   8.249
 2354POPC   C3B31377   4.699  35.441   7.788
 2354POPC   C4B31378   4.436  35.516   7.410
 2355POPC   NC331379  29.767   0.445   9.320
 2355POPC   PO431380  30.343   0.153   9.451
 2355POPC   GL131381  30.187   0.226   9.081
 2355POPC   GL231382  30.207   0.560   9.120
 2355POPC   C1A31383  30.040   0.318   8.686
 2355POPC   D2A31384  30.077   0.566   8.329
 2355POPC   C3A31385  30.051   0.319   8.006
 2355POPC   C4A31386  29.897   0.301   7.613
 2355POPC   C1B31387  30.359   0.711   8.777
 2355POPC   C2B31388  30.546   0.761   8.414
 2355POPC   C3B31389  30.484   0.961   8.067
 2355POPC   C4B31390  30.326   0.703   7.768
 2356POPC   NC331391  21.904  28.653   9.463
 2356POPC   PO431392  22.019  29.404   9.500
 2356POPC   GL131393  22.083  29.096   9.179
 2356POPC   GL231394  21.785  28.943   9.064
 2356POPC   C1A31395  22.269  28.987   8.771
 2356POPC   D2A31396  22.321  28.793   8.349
 2356POPC   C3A31397  22.500  29.043   8.017
 2356POPC   C4A31398  22.407  29.067   7.572
 2356POPC   C1B31399  21.699  29.141   8.671
 2356POPC   C2B31400  21.761  28.964   8.254
 2356POPC   C3B31401  22.017  28.937   7.885
 2356POPC   C4B31402  21.906  28.913   7.433
 2357POPC   NC331403  19.338  29.701   9.366
 2357POPC   PO431404  19.638  30.244   9.203
 2357POPC   GL131405  19.964  29.984   9.033
 2357POPC   GL231406  19.874  29.603   9.132
 2357POPC   C1A31407  20.010  30.093   8.579
 2357POPC   D2A31408  19.753  30.246   8.216
 2357POPC   C3A31409  19.842  30.049   7.813
 2357POPC   C4A31410  19.984  29.626   7.742
 2357POPC   C1B31411  19.675  29.704   8.728
 2357POPC   C2B31412  19.679  29.722   8.277
 2357POPC   C3B31413  19.459  29.735   7.889
 2357POPC   C4B31414  19.534  29.538   7.512
 2358POPC   NC331415   1.690  15.066   9.519
 2358POPC   PO431416   2.340  15.087   9.594
 2358POPC   GL131417   2.086  15.154   9.203
 2358POPC   GL231418   1.776  15.385   9.144
 2358POPC   C1A31419   1.989  15.081   8.790
 2358POPC   D2A31420   2.204  15.207   8.443
 2358POPC   C3A31421   2.235  14.974   8.094
 2358POPC   C4A31422   2.370  15.047   7.713
 2358POPC   C1B31423   1.550  15.442   8.783
 2358POPC   C2B31424   1.727  15.527   8.405
 2358POPC   C3B31425   1.949  15.422   8.045
 2358POPC   C4B31426   1.815  15.109   7.768
 2359POPC   NC331427  16.967  41.393   9.608
 2359POPC   PO431428  16.453  41.817   9.666
 2359POPC   GL131429  16.541  41.719   9.203
 2359POPC   GL231430  16.701  41.394   9.132
 2359POPC   C1A31431  16.679  41.746   8.732
 2359POPC   D2A31432  17.005  41.677   8.373
 2359POPC   C3A31433  16.977  41.885   7.973
 2359POPC   C4A31434  16.609  41.897   7.735
 2359POPC   C1B31435  17.000  41.323   8.766
 2359POPC   C2B31436  16.990  41.158   8.314
 2359POPC   C3B31437  16.891  41.316   7.868
 2359POPC   C4B31438  16.979  41.225   7.396
 2360POPC   NC331439   2.475   5.337   9.478
 2360POPC   PO431440   2.947   4.830   9.410
 2360POPC   GL131441   2.840   5.170   9.141
 2360POPC   GL231442   3.103   5.417   9.095
 2360POPC   C1A31443   2.747   5.052   8.720
 2360POPC   D2A31444   2.482   5.020   8.344
 2360POPC   C3A31445   2.640   5.205   7.958
 2360POPC   C4A31446   2.643   4.891   7.621
 2360POPC   C1B31447   3.136   5.398   8.675
 2360POPC   C2B31448   3.079   5.123   8.292
 2360POPC   C3B31449   3.154   5.190   7.835
 2360POPC   C4B31450   2.876   5.339   7.496
 2361POPC   NC331451  38.797  41.198   9.396
 2361POPC   PO431452  38.323  41.652   9.403
 2361POPC   GL131453  38.483  41.440   9.108
 2361POPC   GL231454  38.299  41.174   9.213
 2361POPC   C1A31455  38.700  41.505   8.746
 2361POPC   D2A31456  38.592  41.877   8.528
 2361POPC   C3A31457  38.478  41.735   8.126
 2361POPC   C4A31458  38.490  41.646   7.713
 2361POPC   C1B31459  38.136  41.387   8.772
 2361POPC   C2B31460  38.258  41.315   8.356
 2361POPC   C3B31461  38.250  41.232   7.917
 2361POPC   C4B31462  38.240  41.196   7.448
 2362POPC   NC331463  25.759   1.052   9.654
 2362POPC   PO431464  26.466   1.194   9.503
 2362POPC   GL131465  26.112   1.038   9.245
 2362POPC   GL231466  25.844   1.258   9.192
 2362POPC   C1A31467  26.076   1.042   8.785
 2362POPC   D2A31468  26.276   1.328   8.455
 2362POPC   C3A31469  26.327   1.095   8.045
 2362POPC   C4A31470  25.944   0.970   7.792
 2362POPC   C1B31471  25.963   1.556   8.883
 2362POPC   C2B31472  25.835   1.753   8.509
 2362POPC   C3B31473  25.893   1.544   8.124
 2362POPC   C4B31474  25.874   1.727   7.729
 2363POPC   NC331475   2.386  30.683   9.395
 2363POPC   PO431476   1.761  30.466   9.510
 2363POPC   GL131477   1.895  30.697   9.170
 2363POPC   GL231478   1.674  30.959   9.243
 2363POPC   C1A31479   2.075  30.673   8.741
 2363POPC   D2A31480   2.283  30.819   8.370
 2363POPC   C3A31481   2.077  30.741   7.979
 2363POPC   C4A31482   2.164  30.611   7.493
 2363POPC   C1B31483   1.647  30.984   8.801
 2363POPC   C2B31484   1.724  31.018   8.345
 2363POPC   C3B31485   1.663  31.011   7.902
 2363POPC   C4B31486   1.691  30.645   7.656
 2364POPC   NC331487  11.116   0.551   9.635
 2364POPC   PO431488  11.627   0.184   9.579
 2364POPC   GL131489  11.511   0.424   9.188
 2364POPC   GL231490  11.153   0.569   9.137
 2364POPC   C1A31491  11.583   0.287   8.747
 2364POPC   D2A31492  11.439   0.056   8.350
 2364POPC   C3A31493  11.587   0.269   7.955
 2364POPC   C4A31494  11.501   0.572   7.646
 2364POPC   C1B31495  11.172   0.556   8.720
 2364POPC   C2B31496  11.375   0.567   8.333
 2364POPC   C3B31497  11.118   0.559   7.980
 2364POPC   C4B31498  11.052   0.814   7.613
 2365POPC   NC331499  27.187  20.883   9.450
 2365POPC   PO431500  27.885  20.608   9.472
 2365POPC   GL131501  27.561  20.429   9.182
 2365POPC   GL231502  27.515  20.763   9.091
 2365POPC   C1A31503  27.286  20.454   8.770
 2365POPC   D2A31504  27.217  20.252   8.361
 2365POPC   C3A31505  27.491  20.445   8.037
 2365POPC   C4A31506  27.381  20.744   7.731
 2365POPC   C1B31507  27.864  20.628   8.835
 2365POPC   C2B31508  27.732  20.548   8.464
 2365POPC   C3B31509  27.616  20.891   8.176
 2365POPC   C4B31510  27.848  20.991   7.797
 2366POPC   NC331511   7.353  37.627   9.661
 2366POPC   PO431512   7.017  38.151   9.460
 2366POPC   GL131513   7.225  37.817   9.173
 2366POPC   GL231514   7.215  37.488   9.185
 2366POPC   C1A31515   7.466  37.782   8.800
 2366POPC   D2A31516   7.469  37.969   8.407
 2366POPC   C3A31517   7.642  37.745   8.059
 2366POPC   C4A31518   7.609  37.878   7.624
 2366POPC   C1B31519   7.027  37.514   8.765
 2366POPC   C2B31520   7.248  37.475   8.363
 2366POPC   C3B31521   7.197  37.514   7.929
 2366POPC   C4B31522   6.834  37.457   7.657
 2367POPC   NC331523   2.624  24.275   9.307
 2367POPC   PO431524   2.625  24.878   9.329
 2367POPC   GL131525   2.812  24.678   9.021
 2367POPC   GL231526   3.075  24.451   9.137
 2367POPC   C1A31527   2.842  24.428   8.663
 2367POPC   D2A31528   2.655  24.239   8.339
 2367POPC   C3A31529   2.826  24.431   8.044
 2367POPC   C4A31530   2.666  24.429   7.682
 2367POPC   C1B31531   3.284  24.655   8.788
 2367POPC   C2B31532   3.188  24.708   8.351
 2367POPC   C3B31533   3.029  24.904   7.979
 2367POPC   C4B31534   3.116  24.630   7.647
 2368POPC   NC331535  13.856  13.469   9.605
 2368POPC   PO431536  13.371  13.369   9.286
 2368POPC   GL131537  13.560  13.643   9.082
 2368POPC   GL231538  13.907  13.704   9.131
 2368POPC   C1A31539  13.437  13.785   8.701
 2368POPC   D2A31540  13.714  13.900   8.374
 2368POPC   C3A31541  13.445  13.771   8.081
 2368POPC   C4A31542  13.539  13.821   7.692
 2368POPC   C1B31543  13.915  13.582   8.733
 2368POPC   C2B31544  13.691  13.406   8.430
 2368POPC   C3B31545  13.697  13.298   8.042
 2368POPC   C4B31546  13.950  13.264   7.712
 2369POPC   NC331547  19.325   9.197   9.380
 2369POPC   PO431548  18.802   9.499   9.353
 2369POPC   GL131549  18.901   9.090   9.114
 2369POPC   GL231550  19.100   8.759   9.228
 2369POPC   C1A31551  19.183   9.014   8.759
 2369POPC   D2A31552  19.148   9.171   8.332
 2369POPC   C3A31553  19.087   8.945   7.957
 2369POPC   C4A31554  19.054   9.085   7.563
 2369POPC   C1B31555  18.930   8.586   8.838
 2369POPC   C2B31556  18.994   8.669   8.386
 2369POPC   C3B31557  18.807   8.524   7.976
 2369POPC   C4B31558  18.802   8.647   7.510
 2370POPC   NC331559   5.530   9.883   9.333
 2370POPC   PO431560   4.960   9.572   9.425
 2370POPC   GL131561   5.189   9.636   9.066
 2370POPC   GL231562   5.359   9.337   8.957
 2370POPC   C1A31563   5.190   9.708   8.632
 2370POPC   D2A31564   5.360   9.788   8.243
 2370POPC   C3A31565   5.086  10.040   7.981
 2370POPC   C4A31566   5.008  10.099   7.531
 2370POPC   C1B31567   4.874   9.325   8.813
 2370POPC   C2B31568   4.630   9.376   8.419
 2370POPC   C3B31569   4.867   9.496   8.026
 2370POPC   C4B31570   5.248   9.584   7.773
 2371POPC   NC331571  21.692  14.697   9.371
 2371POPC   PO431572  21.566  14.051   9.530
 2371POPC   GL131573  21.430  14.353   9.127
 2371POPC   GL231574  21.124  14.267   9.025
 2371POPC   C1A31575  21.391  14.539   8.690
 2371POPC   D2A31576  21.143  14.502   8.296
 2371POPC   C3A31577  21.418  14.362   7.951
 2371POPC   C4A31578  21.527  14.653   7.614
 2371POPC   C1B31579  20.900  13.966   8.851
 2371POPC   C2B31580  20.859  14.114   8.478
 2371POPC   C3B31581  20.951  14.039   8.079
 2371POPC   C4B31582  20.968  14.307   7.730
 2372POPC   NC331583  25.852  31.053   9.441
 2372POPC   PO431584  26.466  31.443   9.449
 2372POPC   GL131585  26.406  31.390   9.051
 2372POPC   GL231586  26.067  31.367   9.077
 2372POPC   C1A31587  26.354  31.630   8.675
 2372POPC   D2A31588  26.051  31.575   8.344
 2372POPC   C3A31589  26.172  31.399   7.947
 2372POPC   C4A31590  26.510  31.628   7.779
 2372POPC   C1B31591  25.809  31.272   8.726
 2372POPC   C2B31592  25.580  31.371   8.377
 2372POPC   C3B31593  25.669  31.232   8.022
 2372POPC   C4B31594  25.635  31.296   7.644
 2373POPC   NC331595  34.970  42.491   9.324
 2373POPC   PO431596  35.606  42.245   9.582
 2373POPC   GL131597  35.366  42.102   9.230
 2373POPC   GL231598  35.405  42.418   9.084
 2373POPC   C1A31599  35.393  42.005   8.791
 2373POPC   D2A31600  35.314  42.213   8.406
 2373POPC   C3A31601  35.519  42.058   8.037
 2373POPC   C4A31602  35.332  42.098   7.637
 2373POPC   C1B31603  35.276  42.613   8.713
 2373POPC   C2B31604  35.341  42.742   8.321
 2373POPC   C3B31605  35.238  42.495   7.978
 2373POPC   C4B31606  35.208  42.596   7.573
 2374POPC   NC331607  24.734  29.719   9.616
 2374POPC   PO431608  24.243  30.276   9.548
 2374POPC   GL131609  24.487  30.119   9.202
 2374POPC   GL231610  24.471  29.758   9.173
 2374POPC   C1A31611  24.651  30.035   8.777
 2374POPC   D2A31612  24.654  29.792   8.408
 2374POPC   C3A31613  24.670  30.046   8.046
 2374POPC   C4A31614  24.669  29.799   7.677
 2374POPC   C1B31615  24.255  29.681   8.798
 2374POPC   C2B31616  24.149  29.867   8.449
 2374POPC   C3B31617  24.266  29.734   8.060
 2374POPC   C4B31618  24.156  29.884   7.676
 2375POPC   NC331619  39.852  20.081   9.347
 2375POPC   PO431620  40.110  19.431   9.513
 2375POPC   GL131621  40.104  19.661   9.142
 2375POPC   GL231622  40.270  19.978   9.112
 2375POPC   C1A31623  39.982  19.770   8.736
 2375POPC   D2A31624  39.919  20.040   8.421
 2375POPC   C3A31625  39.948  19.825   8.046
 2375POPC   C4A31626  39.719  19.428   7.942
 2375POPC   C1B31627  40.265  20.251   8.768
 2375POPC   C2B31628  40.378  20.263   8.331
 2375POPC   C3B31629  40.488  20.259   7.926
 2375POPC   C4B31630  40.244  20.050   7.616
 2376POPC   NC331631  22.180   3.468   9.614
 2376POPC   PO431632  21.761   3.934   9.478
 2376POPC   GL131633  22.153   3.779   9.186
 2376POPC   GL231634  22.352   3.436   9.151
 2376POPC   C1A31635  22.239   3.700   8.740
 2376POPC   D2A31636  21.981   3.633   8.393
 2376POPC   C3A31637  22.066   3.489   7.975
 2376POPC   C4A31638  22.028   3.776   7.652
 2376POPC   C1B31639  22.084   3.190   8.852
 2376POPC   C2B31640  22.204   3.148   8.433
 2376POPC   C3B31641  22.478   3.356   8.224
 2376POPC   C4B31642  22.520   3.390   7.783
 2377POPC   NC331643   4.234  14.978   9.496
 2377POPC   PO431644   3.801  15.632   9.444
 2377POPC   GL131645   3.995  15.275   9.114
 2377POPC   GL231646   4.366  15.225   9.075
 2377POPC   C1A31647   3.984  15.214   8.697
 2377POPC   D2A31648   4.278  15.329   8.381
 2377POPC   C3A31649   4.212  15.189   7.981
 2377POPC   C4A31650   4.443  15.357   7.658
 2377POPC   C1B31651   4.448  14.960   8.729
 2377POPC   C2B31652   4.668  14.917   8.335
 2377POPC   C3B31653   4.621  14.868   7.892
 2377POPC   C4B31654   4.307  14.865   7.570
 2378POPC   NC331655  20.632  40.418   9.387
 2378POPC   PO431656  20.322  39.770   9.312
 2378POPC   GL131657  20.547  40.041   9.035
 2378POPC   GL231658  20.402  40.379   8.934
 2378POPC   C1A31659  20.644  40.050   8.611
 2378POPC   D2A31660  20.509  40.209   8.242
 2378POPC   C3A31661  20.443  39.929   7.897
 2378POPC   C4A31662  20.444  39.982   7.451
 2378POPC   C1B31663  20.806  40.523   8.796
 2378POPC   C2B31664  20.999  40.438   8.452
 2378POPC   C3B31665  21.142  40.360   8.082
 2378POPC   C4B31666  20.876  40.181   7.836
 2379POPC   NC331667  14.200   9.789   9.401
 2379POPC   PO431668  14.794   9.440   9.370
 2379POPC   GL131669  14.526   9.571   9.045
 2379POPC   GL231670  14.209   9.407   9.059
 2379POPC   C1A31671  14.506   9.776   8.663
 2379POPC   D2A31672  14.681  10.049   8.365
 2379POPC   C3A31673  14.485   9.981   7.969
 2379POPC   C4A31674  14.684   9.653   7.766
 2379POPC   C1B31675  14.250   9.315   8.641
 2379POPC   C2B31676  14.346   9.478   8.241
 2379POPC   C3B31677  14.184   9.566   7.848
 2379POPC   C4B31678  13.976   9.409   7.472
 2380POPC   NC331679   8.644  14.345   9.789
 2380POPC   PO431680   9.116  14.063   9.358
 2380POPC   GL131681   9.039  14.466   9.149
 2380POPC   GL231682   8.822  14.339   8.963
 2380POPC   C1A31683   9.052  14.663   8.690
 2380POPC   D2A31684   9.214  14.458   8.301
 2380POPC   C3A31685   9.043  14.394   7.858
 2380POPC   C4A31686   9.180  14.216   7.425
 2380POPC   C1B31687   8.640  14.153   8.662
 2380POPC   C2B31688   8.843  14.057   8.315
 2380POPC   C3B31689   8.632  13.963   7.987
 2380POPC   C4B31690   8.730  14.061   7.617
 2381POPC   NC331691  10.010   4.836   9.437
 2381POPC   PO431692   9.607   5.434   9.504
 2381POPC   GL131693   9.599   5.085   9.217
 2381POPC   GL231694   9.395   5.271   9.025
 2381POPC   C1A31695   9.692   4.901   8.798
 2381POPC   D2A31696   9.499   4.977   8.387
 2381POPC   C3A31697   9.653   4.760   8.001
 2381POPC   C4A31698   9.647   4.886   7.561
 2381POPC   C1B31699   9.743   5.400   8.787
 2381POPC   C2B31700   9.940   5.237   8.447
 2381POPC   C3B31701   9.851   5.234   8.033
 2381POPC   C4B31702   9.958   5.322   7.617
 2382POPC   NC331703  37.823  43.910   9.415
 2382POPC   PO431704  37.322  43.602   9.513
 2382POPC   GL131705  37.389  43.700   9.104
 2382POPC   GL231706  37.707  43.890   8.938
 2382POPC   C1A31707  37.440  43.547   8.688
 2382POPC   D2A31708  37.647  43.869   8.436
 2382POPC   C3A31709  37.651  43.808   8.018
 2382POPC   C4A31710  37.297  43.671   7.749
 2382POPC   C1B31711  37.334  44.115   8.808
 2382POPC   C2B31712  37.326  44.302   8.411
 2382POPC   C3B31713  37.294  44.183   7.992
 2382POPC   C4B31714  37.510  44.123   7.648
 2383POPC   NC331715   6.256  44.116   9.598
 2383POPC   PO431716   5.570  43.996   9.447
 2383POPC   GL131717   5.780  44.002   9.068
 2383POPC   GL231718   5.751  43.652   9.048
 2383POPC   C1A31719   5.732  43.906   8.611
 2383POPC   D2A31720   5.383  43.779   8.355
 2383POPC   C3A31721   5.516  43.836   7.929
 2383POPC   C4A31722   5.885  44.006   7.689
 2383POPC   C1B31723   6.084  43.552   8.791
 2383POPC   C2B31724   6.179  43.534   8.417
 2383POPC   C3B31725   5.995  43.722   8.113
 2383POPC   C4B31726   5.881  43.507   7.765
 2384POPC   NC331727  15.799  10.261   9.413
 2384POPC   PO431728  15.186  10.825   9.413
 2384POPC   GL131729  15.324  10.686   9.008
 2384POPC   GL231730  15.654  10.505   8.977
 2384POPC   C1A31731  15.027  10.666   8.654
 2384POPC   D2A31732  14.733  10.571   8.312
 2384POPC   C3A31733  14.867  10.323   7.977
 2384POPC   C4A31734  15.108  10.489   7.663
 2384POPC   C1B31735  15.375  10.255   8.690
 2384POPC   C2B31736  15.264  10.395   8.274
 2384POPC   C3B31737  15.519  10.552   7.947
 2384POPC   C4B31738  15.644  10.316   7.564
 2385POPC   NC331739  34.671  29.031   9.435
 2385POPC   PO431740  34.178  29.412   9.239
 2385POPC   GL131741  34.363  29.064   9.041
 2385POPC   GL231742  34.301  28.718   9.210
 2385POPC   C1A31743  34.712  29.067   8.763
 2385POPC   D2A31744  34.820  29.247   8.349
 2385POPC   C3A31745  34.544  29.399   8.016
 2385POPC   C4A31746  34.772  29.338   7.640
 2385POPC   C1B31747  34.275  28.645   8.765
 2385POPC   C2B31748  34.397  28.926   8.393
 2385POPC   C3B31749  34.567  28.882   7.974
 2385POPC   C4B31750  34.351  28.594   7.684
 2386POPC   NC331751  34.265   9.830   9.407
 2386POPC   PO431752  33.592   9.669   9.530
 2386POPC   GL131753  33.755   9.897   9.220
 2386POPC   GL231754  33.928   9.641   9.065
 2386POPC   C1A31755  33.598   9.974   8.821
 2386POPC   D2A31756  33.326   9.874   8.492
 2386POPC   C3A31757  33.567   9.930   8.098
 2386POPC   C4A31758  33.585   9.763   7.720
 2386POPC   C1B31759  34.107   9.910   8.733
 2386POPC   C2B31760  34.064  10.010   8.283
 2386POPC   C3B31761  34.069   9.800   7.865
 2386POPC   C4B31762  34.158   9.926   7.396
 2387POPC   NC331763  27.391  24.575   9.443
 2387POPC   PO431764  27.914  24.070   9.368
 2387POPC   GL131765  27.716  24.320   9.043
 2387POPC   GL231766  27.716  24.638   9.020
 2387POPC   C1A31767  27.519  24.355   8.643
 2387POPC   D2A31768  27.268  24.180   8.301
 2387POPC   C3A31769  27.497  24.279   7.930
 2387POPC   C4A31770  27.357  24.385   7.541
 2387POPC   C1B31771  27.954  24.755   8.691
 2387POPC   C2B31772  27.983  24.549   8.376
 2387POPC   C3B31773  27.979  24.533   8.004
 2387POPC   C4B31774  28.022  24.163   7.843
 2388POPC   NC331775  20.397  27.539   9.526
 2388POPC   PO431776  21.067  27.570   9.633
 2388POPC   GL131777  20.820  27.666   9.240
 2388POPC   GL231778  20.580  27.441   9.049
 2388POPC   C1A31779  20.765  27.921   8.856
 2388POPC   D2A31780  20.592  28.080   8.455
 2388POPC   C3A31781  20.722  27.862   8.081
 2388POPC   C4A31782  20.538  27.645   7.732
 2388POPC   C1B31783  20.570  27.506   8.597
 2388POPC   C2B31784  20.523  27.370   8.177
 2388POPC   C3B31785  20.287  27.217   7.812
 2388POPC   C4B31786  20.319  27.124   7.346
 2389POPC   NC331787  21.050  30.323   9.435
 2389POPC   PO431788  21.540  29.844   9.526
 2389POPC   GL131789  21.371  29.960   9.162
 2389POPC   GL231790  21.544  30.245   9.086
 2389POPC   C1A31791  21.128  30.076   8.798
 2389POPC   D2A31792  21.180  29.900   8.416
 2389POPC   C3A31793  21.520  30.004   8.187
 2389POPC   C4A31794  21.438  30.176   7.831
 2389POPC   C1B31795  21.645  30.027   8.695
 2389POPC   C2B31796  21.718  29.632   8.484
 2389POPC   C3B31797  21.740  29.483   8.078
 2389POPC   C4B31798  21.682  29.736   7.717
 2390POPC   NC331799  20.743  37.803   9.399
 2390POPC   PO431800  20.367  37.179   9.418
 2390POPC   GL131801  20.437  37.451   9.085
 2390POPC   GL231802  20.343  37.792   9.023
 2390POPC   C1A31803  20.558  37.464   8.682
 2390POPC   D2A31804  20.645  37.451   8.292
 2390POPC   C3A31805  20.332  37.620   8.070
 2390POPC   C4A31806  20.284  37.688   7.661
 2390POPC   C1B31807  20.726  37.942   8.763
 2390POPC   C2B31808  20.894  38.199   8.448
 2390POPC   C3B31809  20.732  38.062   8.083
 2390POPC   C4B31810  20.817  37.699   7.871
 2391POPC   NC331811   5.017   1.560   9.549
 2391POPC   PO431812   5.274   0.916   9.399
 2391POPC   GL131813   5.077   1.279   9.139
 2391POPC   GL231814   4.716   1.486   9.154
 2391POPC   C1A31815   5.355   1.402   8.808
 2391POPC   D2A31816   5.336   1.158   8.449
 2391POPC   C3A31817   5.371   1.307   8.047
 2391POPC   C4A31818   5.068   1.091   7.817
 2391POPC   C1B31819   4.869   1.545   8.743
 2391POPC   C2B31820   5.082   1.624   8.371
 2391POPC   C3B31821   4.936   1.568   7.930
 2391POPC   C4B31822   4.981   1.463   7.452
 2392POPC   NC331823  30.548  41.944   9.447
 2392POPC   PO431824  30.984  41.380   9.525
 2392POPC   GL131825  30.846  41.333   9.091
 2392POPC   GL231826  30.497  41.495   9.049
 2392POPC   C1A31827  30.885  41.597   8.732
 2392POPC   D2A31828  30.950  41.747   8.329
 2392POPC   C3A31829  30.840  41.444   8.015
 2392POPC   C4A31830  30.476  41.446   7.775
 2392POPC   C1B31831  30.464  41.912   8.786
 2392POPC   C2B31832  30.551  42.069   8.371
 2392POPC   C3B31833  30.643  41.917   7.953
 2392POPC   C4B31834  31.099  41.904   7.870
 2393POPC   NC331835   2.045  36.735   9.691
 2393POPC   PO431836   1.569  37.190   9.841
 2393POPC   GL131837   1.906  36.916   9.268
 2393POPC   GL231838   2.106  37.199   9.044
 2393POPC   C1A31839   2.133  36.708   8.870
 2393POPC   D2A31840   1.982  36.617   8.422
 2393POPC   C3A31841   2.017  36.838   8.001
 2393POPC   C4A31842   1.700  36.818   7.649
 2393POPC   C1B31843   1.812  37.069   8.741
 2393POPC   C2B31844   1.779  37.163   8.334
 2393POPC   C3B31845   1.510  37.146   8.000
 2393POPC   C4B31846   1.669  37.358   7.637
 2394POPC   NC331847  32.315  35.747   9.524
 2394POPC   PO431848  32.022  36.322   9.516
 2394POPC   GL131849  32.077  36.067   9.171
 2394POPC   GL231850  31.830  35.784   9.166
 2394POPC   C1A31851  32.284  36.199   8.788
 2394POPC   D2A31852  32.510  36.186   8.394
 2394POPC   C3A31853  32.373  36.271   8.008
 2394POPC   C4A31854  32.566  36.051   7.693
 2394POPC   C1B31855  31.891  35.897   8.723
 2394POPC   C2B31856  32.034  35.979   8.285
 2394POPC   C3B31857  32.064  35.904   7.830
 2394POPC   C4B31858  31.765  35.805   7.482
 2395POPC   NC331859  25.852  28.388   9.431
 2395POPC   PO431860  26.463  28.153   9.321
 2395POPC   GL131861  26.166  28.349   9.031
 2395POPC   GL231862  25.909  28.661   9.021
 2395POPC   C1A31863  26.078  28.308   8.617
 2395POPC   D2A31864  25.865  28.186   8.245
 2395POPC   C3A31865  26.119  28.080   7.899
 2395POPC   C4A31866  26.168  28.228   7.469
 2395POPC   C1B31867  26.063  28.827   8.655
 2395POPC   C2B31868  26.059  28.682   8.240
 2395POPC   C3B31869  26.085  28.639   7.816
 2395POPC   C4B31870  25.864  28.704   7.451
 2396POPC   NC331871   7.927  16.415   9.548
 2396POPC   PO431872   7.926  17.076   9.851
 2396POPC   GL131873   7.988  16.911   9.330
 2396POPC   GL231874   8.256  16.646   9.192
 2396POPC   C1A31875   8.003  16.818   8.811
 2396POPC   D2A31876   8.214  16.552   8.427
 2396POPC   C3A31877   8.047  16.473   7.973
 2396POPC   C4A31878   7.941  16.503   7.492
 2396POPC   C1B31879   8.526  16.757   8.797
 2396POPC   C2B31880   8.622  16.877   8.369
 2396POPC   C3B31881   8.415  16.847   7.986
 2396POPC   C4B31882   8.429  16.547   7.629
 2397POPC   NC331883  31.842  33.641   9.485
 2397POPC   PO431884  31.207  33.945   9.532
 2397POPC   GL131885  31.340  33.861   9.154
 2397POPC   GL231886  31.308  34.210   9.070
 2397POPC   C1A31887  31.527  33.743   8.759
 2397POPC   D2A31888  31.740  33.647   8.401
 2397POPC   C3A31889  31.577  33.728   8.080
 2397POPC   C4A31890  31.411  33.474   7.808
 2397POPC   C1B31891  31.163  34.091   8.720
 2397POPC   C2B31892  31.153  33.811   8.410
 2397POPC   C3B31893  31.182  34.034   8.059
 2397POPC   C4B31894  31.329  33.951   7.695
 2398POPC   NC331895   4.409  22.474   9.331
 2398POPC   PO431896   4.175  23.058   9.620
 2398POPC   GL131897   4.250  22.999   9.186
 2398POPC   GL231898   4.053  22.734   9.067
 2398POPC   C1A31899   4.510  22.983   8.802
 2398POPC   D2A31900   4.719  22.842   8.425
 2398POPC   C3A31901   4.539  23.005   8.073
 2398POPC   C4A31902   4.476  22.923   7.635
 2398POPC   C1B31903   3.991  22.947   8.726
 2398POPC   C2B31904   3.985  22.720   8.378
 2398POPC   C3B31905   4.122  22.716   7.973
 2398POPC   C4B31906   4.090  22.589   7.551
 2399POPC   NC331907  21.919   5.612   9.571
 2399POPC   PO431908  22.071   6.295   9.583
 2399POPC   GL131909  22.182   6.014   9.200
 2399POPC   GL231910  22.046   5.685   9.091
 2399POPC   C1A31911  22.453   5.859   8.832
 2399POPC   D2A31912  22.361   5.915   8.391
 2399POPC   C3A31913  22.686   5.779   8.127
 2399POPC   C4A31914  22.711   5.670   7.712
 2399POPC   C1B31915  21.940   5.846   8.684
 2399POPC   C2B31916  21.949   5.632   8.275
 2399POPC   C3B31917  22.117   5.741   7.877
 2399POPC   C4B31918  21.949   5.682   7.452
 2400POPC   NC331919  14.651  34.175   9.613
 2400POPC   PO431920  14.165  33.733   9.474
 2400POPC   GL131921  14.381  33.743   9.100
 2400POPC   GL231922  14.636  34.018   9.085
 2400POPC   C1A31923  14.147  33.772   8.711
 2400POPC   D2A31924  13.963  33.439   8.459
 2400POPC   C3A31925  14.026  33.541   8.035
 2400POPC   C4A31926  14.370  33.587   7.794
 2400POPC   C1B31927  14.640  33.792   8.665
 2400POPC   C2B31928  14.446  33.857   8.244
 2400POPC   C3B31929  14.707  33.942   7.846
 2400POPC   C4B31930  14.646  34.244   7.510
 2401POPC   NC331931  30.063  10.808   9.625
 2401POPC   PO431932  29.548  10.412   9.470
 2401POPC   GL131933  29.835  10.587   9.201
 2401POPC   GL231934  30.025  10.292   9.206
 2401POPC   C1A31935  29.985  10.677   8.794
 2401POPC   D2A31936  30.274  10.896   8.538
 2401POPC   C3A31937  30.194  10.660   8.170
 2401POPC   C4A31938  29.910  10.709   7.795
 2401POPC   C1B31939  30.020  10.164   8.793
 2401POPC   C2B31940  29.869  10.272   8.419
 2401POPC   C3B31941  29.960  10.233   8.022
 2401POPC   C4B31942  30.135  10.267   7.656
 2402POPC   NC331943   6.509  19.071   9.632
 2402POPC   PO431944   6.839  18.514   9.729
 2402POPC   GL131945   6.765  18.784   9.295
 2402POPC   GL231946   6.794  19.161   9.213
 2402POPC   C1A31947   6.733  18.793   8.826
 2402POPC   D2A31948   6.872  19.016   8.467
 2402POPC   C3A31949   6.720  18.959   8.066
 2402POPC   C4A31950   6.938  18.807   7.698
 2402POPC   C1B31951   6.617  19.323   8.810
 2402POPC   C2B31952   6.615  19.459   8.378
 2402POPC   C3B31953   6.416  19.372   7.972
 2402POPC   C4B31954   6.502  19.139   7.622
 2403POPC   NC331955  17.659  44.554   9.536
 2403POPC   PO431956  17.051  44.776   9.322
 2403POPC   GL131957  17.381  44.670   9.088
 2403POPC   GL231958  17.673  44.887   9.156
 2403POPC   C1A31959  17.464  44.864   8.682
 2403POPC   D2A31960  17.565  44.977   8.249
 2403POPC   C3A31961  17.458  44.804   7.832
 2403POPC   C4A31962  17.293  44.422   7.709
 2403POPC   C1B31963  17.845  44.593   8.891
 2403POPC   C2B31964  17.817  44.545   8.472
 2403POPC   C3B31965  17.958  44.657   8.118
 2403POPC   C4B31966  17.884  44.564   7.762
 2404POPC   NC331967  29.111  33.647   9.719
 2404POPC   PO431968  29.173  34.327   9.610
 2404POPC   GL131969  29.224  33.932   9.278
 2404POPC   GL231970  29.479  34.071   9.082
 2404POPC   C1A31971  29.212  33.701   8.786
 2404POPC   D2A31972  29.377  33.664   8.332
 2404POPC   C3A31973  29.321  33.639   7.868
 2404POPC   C4A31974  29.037  33.428   7.528
 2404POPC   C1B31975  29.058  34.155   8.859
 2404POPC   C2B31976  29.101  34.102   8.451
 2404POPC   C3B31977  28.939  33.887   8.139
 2404POPC   C4B31978  28.917  33.881   7.717
 2405POPC   NC331979   1.665   3.129   9.520
 2405POPC   PO431980   2.143   2.606   9.489
 2405POPC   GL131981   2.081   2.906   9.163
 2405POPC   GL231982   1.747   2.919   9.037
 2405POPC   C1A31983   2.153   3.034   8.733
 2405POPC   D2A31984   2.051   2.800   8.360
 2405POPC   C3A31985   1.865   2.957   7.983
 2405POPC   C4A31986   2.032   3.000   7.581
 2405POPC   C1B31987   1.955   2.544   8.827
 2405POPC   C2B31988   1.815   2.314   8.457
 2405POPC   C3B31989   1.875   2.413   8.032
 2405POPC   C4B31990   1.593   2.421   7.707
 2406POPC   NC331991  20.799   3.529   9.489
 2406POPC   PO431992  20.083   3.694   9.518
 2406POPC   GL131993  20.339   3.571   9.156
 2406POPC   GL231994  20.486   3.863   9.010
 2406POPC   C1A31995  20.568   3.402   8.771
 2406POPC   D2A31996  20.817   3.214   8.406
 2406POPC   C3A31997  20.717   3.374   8.004
 2406POPC   C4A31998  20.555   3.531   7.581
 2406POPC   C1B31999  20.735   3.953   8.655
 2406POPC   C2B32000  20.823   3.737   8.332
 2406POPC   C3B32001  20.710   3.870   7.932
 2406POPC   C4B32002  20.968   4.044   7.594
 2407POPC   NC332003  19.620  22.277   9.197
 2407POPC   PO432004  19.281  21.763   9.331
 2407POPC   GL132005  19.121  22.114   9.065
 2407POPC   GL232006  19.146  22.515   9.108
 2407POPC   C1A32007  19.217  22.207   8.634
 2407POPC   D2A32008  19.308  22.289   8.206
 2407POPC   C3A32009  19.382  21.934   7.950
 2407POPC   C4A32010  19.129  21.783   7.642
 2407POPC   C1B32011  18.842  22.536   8.743
 2407POPC   C2B32012  18.766  22.264   8.365
 2407POPC   C3B32013  18.880  22.138   7.944
 2407POPC   C4B32014  19.137  22.388   7.698
 2408POPC   NC332015  18.540  27.655   9.461
 2408POPC   PO432016  18.060  27.179   9.521
 2408POPC   GL132017  18.204  27.458   9.153
 2408POPC   GL232018  18.572  27.366   9.027
 2408POPC   C1A32019  18.171  27.685   8.761
 2408POPC   D2A32020  17.869  27.697   8.437
 2408POPC   C3A32021  18.071  27.709   8.018
 2408POPC   C4A32022  18.014  27.501   7.634
 2408POPC   C1B32023  18.672  27.721   8.752
 2408POPC   C2B32024  18.489  27.848   8.345
 2408POPC   C3B32025  18.608  27.745   7.956
 2408POPC   C4B32026  18.521  27.421   7.660
 2409POPC   NC332027   6.231  38.977   9.521
 2409POPC   PO432028   5.813  39.485   9.751
 2409POPC   GL132029   5.853  39.504   9.264
 2409POPC   GL232030   6.149  39.326   9.134
 2409POPC   C1A32031   5.634  39.418   8.820
 2409POPC   D2A32032   5.630  39.084   8.486
 2409POPC   C3A32033   5.630  39.201   8.064
 2409POPC   C4A32034   5.689  39.195   7.628
 2409POPC   C1B32035   6.113  39.139   8.719
 2409POPC   C2B32036   6.073  39.322   8.316
 2409POPC   C3B32037   6.130  39.275   7.878
 2409POPC   C4B32038   6.226  38.941   7.591
 2410POPC   NC332039  16.961   8.284   9.526
 2410POPC   PO432040  16.416   8.072   9.275
 2410POPC   GL132041  16.746   8.131   9.037
 2410POPC   GL232042  17.054   8.030   9.113
 2410POPC   C1A32043  16.731   8.035   8.619
 2410POPC   D2A32044  16.519   8.272   8.314
 2410POPC   C3A32045  16.662   8.210   7.931
 2410POPC   C4A32046  16.837   8.174   7.574
 2410POPC   C1B32047  17.161   8.304   8.772
 2410POPC   C2B32048  17.030   8.354   8.350
 2410POPC   C3B32049  17.188   8.369   7.948
 2410POPC   C4B32050  17.134   8.590   7.595
 2411POPC   NC332051  44.943  31.129   9.394
 2411POPC   PO432052   0.061  30.436   9.379
 2411POPC   GL132053   0.344  30.681   9.095
 2411POPC   GL232054   0.400  31.030   9.107
 2411POPC   C1A32055   0.457  30.704   8.674
 2411POPC   D2A32056   0.351  30.471   8.319
 2411POPC   C3A32057   0.187  30.709   8.015
 2411POPC   C4A32058   0.422  30.614   7.649
 2411POPC   C1B32059   0.810  31.056   8.841
 2411POPC   C2B32060   0.878  30.952   8.463
 2411POPC   C3B32061   0.615  30.906   8.177
 2411POPC   C4B32062   0.763  30.909   7.828
 2412POPC   NC332063  12.741  14.531   9.269
 2412POPC   PO432064  12.674  15.098   9.601
 2412POPC   GL132065  12.886  15.030   9.182
 2412POPC   GL232066  13.238  15.130   9.138
 2412POPC   C1A32067  12.929  15.019   8.728
 2412POPC   D2A32068  13.089  14.991   8.323
 2412POPC   C3A32069  12.778  15.132   8.060
 2412POPC   C4A32070  12.807  15.228   7.659
 2412POPC   C1B32071  13.187  15.473   8.843
 2412POPC   C2B32072  13.151  15.503   8.417
 2412POPC   C3B32073  13.109  15.516   7.972
 2412POPC   C4B32074  13.279  15.125   7.786
 2413POPC   NC332075  42.721  37.453   9.464
 2413POPC   PO432076  42.176  37.656   9.733
 2413POPC   GL132077  42.228  37.658   9.224
 2413POPC   GL232078  42.545  37.726   9.069
 2413POPC   C1A32079  42.203  37.447   8.783
 2413POPC   D2A32080  41.911  37.378   8.452
 2413POPC   C3A32081  42.126  37.405   8.067
 2413POPC   C4A32082  42.335  37.638   7.749
 2413POPC   C1B32083  42.710  37.529   8.682
 2413POPC   C2B32084  42.620  37.480   8.225
 2413POPC   C3B32085  42.829  37.695   7.862
 2413POPC   C4B32086  42.697  37.845   7.454
 2414POPC   NC332087   1.524  37.598   9.606
 2414POPC   PO432088   1.049  38.037   9.619
 2414POPC   GL132089   1.238  37.877   9.243
 2414POPC   GL232090   0.943  37.915   9.088
 2414POPC   C1A32091   1.301  37.728   8.796
 2414POPC   D2A32092   1.370  37.434   8.471
 2414POPC   C3A32093   1.227  37.571   8.067
 2414POPC   C4A32094   1.383  37.788   7.710
 2414POPC   C1B32095   0.804  37.758   8.681
 2414POPC   C2B32096   0.751  37.526   8.306
 2414POPC   C3B32097   0.758  37.736   7.934
 2414POPC   C4B32098   0.896  37.664   7.578
 2415POPC   NC332099  28.827  40.293   9.358
 2415POPC   PO432100  28.476  39.711   9.516
 2415POPC   GL132101  28.305  39.852   9.117
 2415POPC   GL232102  27.930  39.924   9.047
 2415POPC   C1A32103  28.335  40.208   8.821
 2415POPC   D2A32104  28.630  40.393   8.510
 2415POPC   C3A32105  28.585  40.184   8.135
 2415POPC   C4A32106  28.570  39.898   7.802
 2415POPC   C1B32107  28.094  39.765   8.661
 2415POPC   C2B32108  28.202  39.855   8.256
 2415POPC   C3B32109  28.078  39.984   7.863
 2415POPC   C4B32110  28.228  40.039   7.427
 2416POPC   NC332111  27.212  33.792   9.371
 2416POPC   PO432112  27.821  34.031   9.440
 2416POPC   GL132113  27.654  33.792   9.105
 2416POPC   GL232114  27.398  34.012   8.980
 2416POPC   C1A32115  27.657  33.612   8.698
 2416POPC   D2A32116  27.392  33.660   8.330
 2416POPC   C3A32117  27.615  33.643   7.946
 2416POPC   C4A32118  27.660  33.928   7.601
 2416POPC   C1B32119  27.489  34.090   8.610
 2416POPC   C2B32120  27.235  34.229   8.317
 2416POPC   C3B32121  27.369  34.115   7.970
 2416POPC   C4B32122  27.189  33.811   7.733
 2417POPC   NC332123  25.953  34.157   9.547
 2417POPC   PO432124  25.980  34.800   9.529
 2417POPC   GL132125  25.812  34.786   9.125
 2417POPC   GL232126  25.927  34.448   9.088
 2417POPC   C1A32127  26.001  34.801   8.714
 2417POPC   D2A32128  26.169  34.648   8.335
 2417POPC   C3A32129  26.031  34.928   8.071
 2417POPC   C4A32130  25.916  34.953   7.710
 2417POPC   C1B32131  26.279  34.367   8.754
 2417POPC   C2B32132  26.278  34.119   8.378
 2417POPC   C3B32133  26.413  34.292   8.003
 2417POPC   C4B32134  26.155  34.517   7.790
 2418POPC   NC332135  32.973  25.772   9.713
 2418POPC   PO432136  33.309  26.142   9.298
 2418POPC   GL132137  33.025  26.012   9.084
 2418POPC   GL232138  32.909  25.684   9.174
 2418POPC   C1A32139  33.060  26.174   8.664
 2418POPC   D2A32140  33.315  26.234   8.304
 2418POPC   C3A32141  33.022  26.170   8.012
 2418POPC   C4A32142  32.945  26.372   7.635
 2418POPC   C1B32143  33.148  25.639   8.771
 2418POPC   C2B32144  33.030  25.709   8.376
 2418POPC   C3B32145  33.143  25.578   7.975
 2418POPC   C4B32146  33.089  25.837   7.638
 2419POPC   NC332147  34.723  30.787   9.468
 2419POPC   PO432148  35.159  30.271   9.676
 2419POPC   GL132149  34.854  30.336   9.203
 2419POPC   GL232150  34.515  30.497   9.117
 2419POPC   C1A32151  34.835  30.588   8.750
 2419POPC   D2A32152  34.478  30.688   8.487
 2419POPC   C3A32153  34.471  30.771   8.054
 2419POPC   C4A32154  34.689  30.425   7.816
 2419POPC   C1B32155  34.225  30.392   8.816
 2419POPC   C2B32156  34.215  30.240   8.369
 2419POPC   C3B32157  34.169  30.403   7.916
 2419POPC   C4B32158  34.350  30.676   7.572
 2420POPC   NC332159  30.187  43.614   9.494
 2420POPC   PO432160  29.814  44.225   9.470
 2420POPC   GL132161  30.006  43.961   9.173
 2420POPC   GL232162  29.820  43.681   9.092
 2420POPC   C1A32163  30.168  43.876   8.782
 2420POPC   D2A32164  29.946  43.943   8.414
 2420POPC   C3A32165  30.177  43.858   8.085
 2420POPC   C4A32166  30.281  43.970   7.706
 2420POPC   C1B32167  29.633  44.024   8.827
 2420POPC   C2B32168  29.452  44.088   8.421
 2420POPC   C3B32169  29.604  43.981   8.006
 2420POPC   C4B32170  29.820  43.690   7.772
 2421POPC   NC332171   0.167   3.502   9.440
 2421POPC   PO432172   0.579   2.943   9.399
 2421POPC   GL132173   0.453   3.278   9.062
 2421POPC   GL232174   0.413   3.657   9.024
 2421POPC   C1A32175   0.448   3.317   8.594
 2421POPC   D2A32176   0.753   3.507   8.276
 2421POPC   C3A32177   0.689   3.423   7.803
 2421POPC   C4A32178   0.674   3.506   7.331
 2421POPC   C1B32179   0.613   3.893   8.713
 2421POPC   C2B32180   0.404   3.930   8.325
 2421POPC   C3B32181   0.297   3.701   7.981
 2421POPC   C4B32182   0.326   3.808   7.574
 2422POPC   NC332183  16.707  27.184   9.302
 2422POPC   PO432184  16.605  26.573   9.502
 2422POPC   GL132185  16.775  26.741   9.099
 2422POPC   GL232186  16.554  26.903   8.889
 2422POPC   C1A32187  17.036  26.891   8.767
 2422POPC   D2A32188  16.875  26.884   8.350
 2422POPC   C3A32189  17.041  26.554   8.115
 2422POPC   C4A32190  17.052  26.656   7.711
 2422POPC   C1B32191  16.474  27.181   8.570
 2422POPC   C2B32192  16.333  26.978   8.236
 2422POPC   C3B32193  16.611  26.893   7.899
 2422POPC   C4B32194  16.922  27.155   7.738
 2423POPC   NC332195  14.806  19.850   9.622
 2423POPC   PO432196  14.217  20.227   9.554
 2423POPC   GL132197  14.461  20.086   9.216
 2423POPC   GL232198  14.484  19.738   9.229
 2423POPC   C1A32199  14.357  20.064   8.779
 2423POPC   D2A32200  14.479  20.056   8.348
 2423POPC   C3A32201  14.268  20.067   7.943
 2423POPC   C4A32202  14.489  19.974   7.571
 2423POPC   C1B32203  14.697  19.663   8.853
 2423POPC   C2B32204  14.748  19.632   8.408
 2423POPC   C3B32205  14.647  19.672   7.959
 2423POPC   C4B32206  14.670  19.409   7.551
 2424POPC   NC332207  24.311  22.698   9.528
 2424POPC   PO432208  24.735  23.196   9.315
 2424POPC   GL132209  24.521  23.182   8.960
 2424POPC   GL232210  24.286  22.984   9.115
 2424POPC   C1A32211  24.691  23.019   8.573
 2424POPC   D2A32212  24.749  22.638   8.331
 2424POPC   C3A32213  24.634  22.781   7.942
 2424POPC   C4A32214  24.387  23.120   7.822
 2424POPC   C1B32215  24.254  22.756   8.754
 2424POPC   C2B32216  24.262  22.866   8.321
 2424POPC   C3B32217  24.121  22.688   7.972
 2424POPC   C4B32218  24.178  22.648   7.532
 2425POPC   NC332219   1.089   1.623   9.509
 2425POPC   PO432220   1.625   1.261   9.311
 2425POPC   GL132221   1.204   1.164   9.123
 2425POPC   GL232222   1.022   0.827   9.165
 2425POPC   C1A32223   1.132   1.170   8.693
 2425POPC   D2A32224   1.347   1.359   8.345
 2425POPC   C3A32225   1.444   1.173   7.945
 2425POPC   C4A32226   1.316   1.273   7.517
 2425POPC   C1B32227   0.794   0.802   8.765
 2425POPC   C2B32228   0.890   0.713   8.334
 2425POPC   C3B32229   0.973   0.933   7.915
 2425POPC   C4B32230   0.903   0.921   7.456
 2426POPC   NC332231  17.294   7.341   9.538
 2426POPC   PO432232  17.936   7.557   9.502
 2426POPC   GL132233  17.697   7.332   9.183
 2426POPC   GL232234  17.345   7.379   9.037
 2426POPC   C1A32235  17.760   7.325   8.755
 2426POPC   D2A32236  17.449   7.428   8.493
 2426POPC   C3A32237  17.647   7.488   8.135
 2426POPC   C4A32238  17.786   7.265   7.778
 2426POPC   C1B32239  17.094   7.678   8.779
 2426POPC   C2B32240  16.925   7.596   8.384
 2426POPC   C3B32241  17.139   7.335   8.104
 2426POPC   C4B32242  17.303   7.456   7.747
 2427POPC   NC332243  38.941  30.892   9.600
 2427POPC   PO432244  39.562  30.685   9.459
 2427POPC   GL132245  39.216  30.831   9.186
 2427POPC   GL232246  38.898  30.708   9.112
 2427POPC   C1A32247  39.251  30.883   8.736
 2427POPC   D2A32248  39.280  30.592   8.399
 2427POPC   C3A32249  39.322  30.818   8.016
 2427POPC   C4A32250  39.465  30.665   7.620
 2427POPC   C1B32251  38.827  30.572   8.685
 2427POPC   C2B32252  38.779  30.617   8.216
 2427POPC   C3B32253  38.979  30.504   7.817
 2427POPC   C4B32254  39.053  30.537   7.370
 2428POPC   NC332255  20.459  10.796   9.638
 2428POPC   PO432256  20.756  11.404   9.443
 2428POPC   GL132257  20.545  11.300   9.108
 2428POPC   GL232258  20.471  10.942   9.125
 2428POPC   C1A32259  20.694  11.263   8.715
 2428POPC   D2A32260  20.489  11.388   8.428
 2428POPC   C3A32261  20.628  11.246   8.073
 2428POPC   C4A32262  20.717  11.390   7.708
 2428POPC   C1B32263  20.250  11.022   8.726
 2428POPC   C2B32264  20.167  11.048   8.261
 2428POPC   C3B32265  20.236  11.059   7.791
 2428POPC   C4B32266  20.291  11.111   7.316
 2429POPC   NC332267   1.445  44.221   9.518
 2429POPC   PO432268   0.970  43.789   9.479
 2429POPC   GL132269   1.065  44.052   9.151
 2429POPC   GL232270   1.420  43.956   9.088
 2429POPC   C1A32271   1.069  43.859   8.761
 2429POPC   D2A32272   1.005  43.956   8.380
 2429POPC   C3A32273   0.882  43.604   8.199
 2429POPC   C4A32274   0.890  43.570   7.751
 2429POPC   C1B32275   1.566  43.792   8.673
 2429POPC   C2B32276   1.390  43.624   8.304
 2429POPC   C3B32277   1.274  43.851   7.921
 2429POPC   C4B32278   1.592  44.120   7.743
 2430POPC   NC332279  37.380  15.501   9.350
 2430POPC   PO432280  37.774  15.006   9.635
 2430POPC   GL132281  37.546  14.996   9.220
 2430POPC   GL232282  37.658  15.288   8.985
 2430POPC   C1A32283  37.401  14.888   8.790
 2430POPC   D2A32284  37.526  15.155   8.439
 2430POPC   C3A32285  37.686  14.922   8.093
 2430POPC   C4A32286  37.436  14.929   7.738
 2430POPC   C1B32287  37.887  15.669   8.806
 2430POPC   C2B32288  38.023  15.697   8.368
 2430POPC   C3B32289  37.809  15.440   8.058
 2430POPC   C4B32290  37.912  15.308   7.661
 2431POPC   NC332291  10.927  13.970   9.403
 2431POPC   PO432292  10.504  13.410   9.189
 2431POPC   GL132293  10.662  13.731   9.016
 2431POPC   GL232294  10.429  13.953   9.163
 2431POPC   C1A32295  10.682  13.741   8.562
 2431POPC   D2A32296  10.524  13.980   8.224
 2431POPC   C3A32297  10.650  13.750   7.892
 2431POPC   C4A32298  10.597  13.342   7.690
 2431POPC   C1B32299  10.212  13.879   8.753
 2431POPC   C2B32300  10.038  13.825   8.322
 2431POPC   C3B32301  10.100  13.799   7.855
 2431POPC   C4B32302  10.381  13.802   7.487
 2432POPC   NC332303  33.199  33.014   9.637
 2432POPC   PO432304  32.615  33.013   9.807
 2432POPC   GL132305  32.844  32.986   9.285
 2432POPC   GL232306  33.199  32.864   9.166
 2432POPC   C1A32307  32.906  33.096   8.833
 2432POPC   D2A32308  33.146  33.221   8.420
 2432POPC   C3A32309  32.980  33.069   8.021
 2432POPC   C4A32310  33.212  33.161   7.656
 2432POPC   C1B32311  33.358  32.918   8.765
 2432POPC   C2B32312  33.464  32.765   8.363
 2432POPC   C3B32313  33.474  32.840   7.926
 2432POPC   C4B32314  33.494  32.791   7.451
 2433POPC   NC332315  34.640  34.953   9.541
 2433POPC   PO432316  34.213  34.423   9.564
 2433POPC   GL132317  34.354  34.630   9.165
 2433POPC   GL232318  34.697  34.705   9.097
 2433POPC   C1A32319  34.323  34.457   8.720
 2433POPC   D2A32320  34.517  34.170   8.403
 2433POPC   C3A32321  34.629  34.254   7.968
 2433POPC   C4A32322  34.854  34.372   7.577
 2433POPC   C1B32323  34.637  34.852   8.684
 2433POPC   C2B32324  34.506  34.679   8.264
 2433POPC   C3B32325  34.637  34.779   7.842
 2433POPC   C4B32326  34.675  35.080   7.528
 2434POPC   NC332327  29.377  36.553   9.457
 2434POPC   PO432328  28.920  37.110   9.305
 2434POPC   GL132329  29.178  36.790   9.035
 2434POPC   GL232330  28.966  36.541   9.111
 2434POPC   C1A32331  29.313  36.885   8.580
 2434POPC   D2A32332  28.995  37.042   8.265
 2434POPC   C3A32333  29.148  37.199   7.870
 2434POPC   C4A32334  29.345  36.867   7.680
 2434POPC   C1B32335  28.867  36.663   8.657
 2434POPC   C2B32336  29.020  36.512   8.252
 2434POPC   C3B32337  28.899  36.420   7.832
 2434POPC   C4B32338  28.985  36.601   7.453
 2435POPC   NC332339  14.478  44.834   9.522
 2435POPC   PO432340  13.960  44.388   9.597
 2435POPC   GL132341  14.128  44.634   9.194
 2435POPC   GL232342  14.434  44.464   9.158
 2435POPC   C1A32343  14.271  44.692   8.712
 2435POPC   D2A32344  14.373  44.476   8.289
 2435POPC   C3A32345  14.449  44.692   7.899
 2435POPC   C4A32346  14.268  44.673   7.491
 2435POPC   C1B32347  14.721  44.734   8.922
 2435POPC   C2B32348  14.751  44.732   8.491
 2435POPC   C3B32349  14.836   0.001   8.156
 2435POPC   C4B32350  14.878  44.906   7.706
 2436POPC   NC332351  35.982  19.304   9.485
 2436POPC   PO432352  35.970  18.697   9.694
 2436POPC   GL132353  36.206  18.927   9.246
 2436POPC   GL232354  36.453  18.731   9.053
 2436POPC   C1A32355  36.098  19.152   8.815
 2436POPC   D2A32356  36.004  19.271   8.369
 2436POPC   C3A32357  35.959  18.928   8.068
 2436POPC   C4A32358  36.000  19.161   7.710
 2436POPC   C1B32359  36.557  18.979   8.733
 2436POPC   C2B32360  36.394  18.934   8.323
 2436POPC   C3B32361  36.464  18.948   7.877
 2436POPC   C4B32362  36.522  18.789   7.450
 2437POPC   NC332363  10.227  44.036   9.479
 2437POPC   PO432364  10.800  43.667   9.777
 2437POPC   GL132365  10.659  43.875   9.320
 2437POPC   GL232366  10.686  44.195   9.181
 2437POPC   C1A32367  10.475  43.813   8.866
 2437POPC   D2A32368  10.440  43.565   8.478
 2437POPC   C3A32369  10.378  43.796   8.094
 2437POPC   C4A32370  10.477  43.746   7.670
 2437POPC   C1B32371  10.336  44.319   8.879
 2437POPC   C2B32372  10.208  44.097   8.496
 2437POPC   C3B32373  10.033  44.188   8.098
 2437POPC   C4B32374  10.270  44.202   7.745
 2438POPC   NC332375  11.127  29.690   9.390
 2438POPC   PO432376  11.566  30.082   9.664
 2438POPC   GL132377  11.529  29.987   9.197
 2438POPC   GL232378  11.195  30.062   9.029
 2438POPC   C1A32379  11.607  30.087   8.739
 2438POPC   D2A32380  11.351  30.110   8.357
 2438POPC   C3A32381  11.466  30.036   7.927
 2438POPC   C4A32382  11.400  29.637   7.680
 2438POPC   C1B32383  10.958  30.239   8.672
 2438POPC   C2B32384  10.857  30.206   8.225
 2438POPC   C3B32385  10.966  29.917   7.891
 2438POPC   C4B32386  10.979  29.801   7.449
 2439POPC   NC332387  18.509  12.339   9.527
 2439POPC   PO432388  18.409  11.672   9.450
 2439POPC   GL132389  18.482  12.033   9.099
 2439POPC   GL232390  18.732  12.354   9.075
 2439POPC   C1A32391  18.193  12.197   8.766
 2439POPC   D2A32392  18.072  12.317   8.321
 2439POPC   C3A32393  18.031  11.980   7.957
 2439POPC   C4A32394  18.172  12.010   7.505
 2439POPC   C1B32395  18.819  12.165   8.679
 2439POPC   C2B32396  18.514  12.027   8.393
 2439POPC   C3B32397  18.560  11.917   7.994
 2439POPC   C4B32398  18.675  12.079   7.648
 2440POPC   NC332399  13.277  27.657   9.477
 2440POPC   PO432400  13.893  27.287   9.394
 2440POPC   GL132401  13.814  27.352   9.010
 2440POPC   GL232402  13.503  27.516   9.062
 2440POPC   C1A32403  13.927  27.576   8.661
 2440POPC   D2A32404  13.918  27.927   8.364
 2440POPC   C3A32405  13.976  27.764   7.931
 2440POPC   C4A32406  13.920  27.549   7.510
 2440POPC   C1B32407  13.476  27.799   8.752
 2440POPC   C2B32408  13.486  27.627   8.357
 2440POPC   C3B32409  13.328  27.395   8.046
 2440POPC   C4B32410  13.485  27.632   7.734
 2441POPC   NC332411  41.080   9.803   9.412
 2441POPC   PO432412  40.467   9.462   9.369
 2441POPC   GL132413  40.709   9.676   9.025
 2441POPC   GL232414  41.079   9.589   8.973
 2441POPC   C1A32415  40.785   9.477   8.604
 2441POPC   D2A32416  41.052   9.548   8.281
 2441POPC   C3A32417  40.768   9.800   8.021
 2441POPC   C4A32418  40.504   9.667   7.674
 2441POPC   C1B32419  41.153  10.008   8.799
 2441POPC   C2B32420  41.271  10.141   8.415
 2441POPC   C3B32421  41.277   9.945   8.037
 2441POPC   C4B32422  41.039  10.025   7.644
 2442POPC   NC332423  39.764   9.021  10.095
 2442POPC   PO432424  40.100   8.730   9.539
 2442POPC   GL132425  39.978   9.033   9.190
 2442POPC   GL232426  40.192   8.884   8.940
 2442POPC   C1A32427  39.867   9.230   8.764
 2442POPC   D2A32428  39.901   9.359   8.345
 2442POPC   C3A32429  39.886   9.026   8.026
 2442POPC   C4A32430  39.961   9.048   7.583
 2442POPC   C1B32431  40.390   9.159   8.645
 2442POPC   C2B32432  40.632   9.121   8.251
 2442POPC   C3B32433  40.405   9.067   7.864
 2442POPC   C4B32434  40.459   9.173   7.424
 2443POPC   NC332435  32.368  44.085   9.488
 2443POPC   PO432436  32.065  43.620   9.804
 2443POPC   GL132437  32.138  43.654   9.294
 2443POPC   GL232438  32.485  43.674   9.203
 2443POPC   C1A32439  32.218  43.944   8.868
 2443POPC   D2A32440  32.112  44.146   8.434
 2443POPC   C3A32441  32.009  43.937   8.017
 2443POPC   C4A32442  32.026  43.943   7.544
 2443POPC   C1B32443  32.438  43.484   8.814
 2443POPC   C2B32444  32.382  43.669   8.453
 2443POPC   C3B32445  32.321  43.519   8.074
 2443POPC   C4B32446  32.090  43.491   7.718
 2444POPC   NC332447  24.043  32.574   9.340
 2444POPC   PO432448  24.444  32.097   9.571
 2444POPC   GL132449  24.516  32.313   9.177
 2444POPC   GL232450  24.683  32.011   9.123
 2444POPC   C1A32451  24.339  32.430   8.747
 2444POPC   D2A32452  24.331  32.181   8.340
 2444POPC   C3A32453  24.410  32.415   7.976
 2444POPC   C4A32454  24.805  32.562   7.781
 2444POPC   C1B32455  24.715  32.098   8.712
 2444POPC   C2B32456  24.822  32.028   8.308
 2444POPC   C3B32457  24.774  32.069   7.937
 2444POPC   C4B32458  24.787  31.788   7.646
 2445POPC   NC332459  17.427  35.561   9.548
 2445POPC   PO432460  17.759  34.908   9.505
 2445POPC   GL132461  17.509  35.150   9.176
 2445POPC   GL232462  17.416  35.498   9.060
 2445POPC   C1A32463  17.406  35.110   8.742
 2445POPC   D2A32464  17.646  35.227   8.366
 2445POPC   C3A32465  17.388  35.184   8.035
 2445POPC   C4A32466  17.395  35.036   7.644
 2445POPC   C1B32467  17.455  35.623   8.642
 2445POPC   C2B32468  17.302  35.664   8.216
 2445POPC   C3B32469  17.557  35.655   7.818
 2445POPC   C4B32470  17.426  35.694   7.365
 2446POPC   NC332471  38.809  13.409   9.437
 2446POPC   PO432472  38.165  13.564   9.557
 2446POPC   GL132473  38.245  13.697   9.132
 2446POPC   GL232474  38.561  13.658   9.058
 2446POPC   C1A32475  38.159  13.617   8.725
 2446POPC   D2A32476  38.334  13.455   8.389
 2446POPC   C3A32477  38.164  13.469   8.000
 2446POPC   C4A32478  38.473  13.652   7.720
 2446POPC   C1B32479  38.628  13.330   8.797
 2446POPC   C2B32480  38.791  13.223   8.416
 2446POPC   C3B32481  38.632  13.216   8.029
 2446POPC   C4B32482  38.806  13.260   7.658
 2447POPC   NC332483  36.965   3.395   9.842
 2447POPC   PO432484  37.036   2.760   9.644
 2447POPC   GL132485  37.023   2.920   9.191
 2447POPC   GL232486  37.249   3.203   9.209
 2447POPC   C1A32487  36.888   2.705   8.755
 2447POPC   D2A32488  36.677   2.441   8.424
 2447POPC   C3A32489  36.777   2.613   8.032
 2447POPC   C4A32490  36.828   2.406   7.626
 2447POPC   C1B32491  37.139   3.160   8.760
 2447POPC   C2B32492  36.956   3.018   8.362
 2447POPC   C3B32493  37.104   3.126   7.969
 2447POPC   C4B32494  37.246   2.975   7.598
 2448POPC   NC332495  15.332  13.088   9.432
 2448POPC   PO432496  15.283  13.727   9.640
 2448POPC   GL132497  15.279  13.566   9.222
 2448POPC   GL232498  14.938  13.688   9.128
 2448POPC   C1A32499  15.311  13.568   8.772
 2448POPC   D2A32500  15.193  13.629   8.345
 2448POPC   C3A32501  15.500  13.782   8.055
 2448POPC   C4A32502  15.479  13.775   7.587
 2448POPC   C1B32503  14.749  13.860   8.743
 2448POPC   C2B32504  14.651  13.644   8.356
 2448POPC   C3B32505  14.817  13.663   7.963
 2448POPC   C4B32506  14.754  13.872   7.611
 2449POPC   NC332507  39.729  26.693   9.562
 2449POPC   PO432508  40.364  26.873   9.730
 2449POPC   GL132509  40.233  26.998   9.288
 2449POPC   GL232510  40.024  26.719   9.138
 2449POPC   C1A32511  40.170  27.106   8.831
 2449POPC   D2A32512  39.889  27.052   8.459
 2449POPC   C3A32513  40.093  27.074   8.067
 2449POPC   C4A32514  40.218  26.989   7.647
 2449POPC   C1B32515  39.859  26.571   8.726
 2449POPC   C2B32516  39.713  26.547   8.305
 2449POPC   C3B32517  39.850  26.663   7.882
 2449POPC   C4B32518  39.729  26.526   7.460
 2450POPC   NC332519  12.691  41.896   9.549
 2450POPC   PO432520  13.118  42.406   9.568
 2450POPC   GL132521  12.897  42.296   9.224
 2450POPC   GL232522  12.721  42.609   9.218
 2450POPC   C1A32523  12.989  42.080   8.829
 2450POPC   D2A32524  12.985  42.280   8.429
 2450POPC   C3A32525  12.942  42.049   8.061
 2450POPC   C4A32526  12.849  42.145   7.643
 2450POPC   C1B32527  12.884  42.620   8.810
 2450POPC   C2B32528  12.654  42.682   8.416
 2450POPC   C3B32529  12.737  42.550   7.985
 2450POPC   C4B32530  12.697  42.674   7.551
 2451POPC   NC332531   3.193  31.737   9.525
 2451POPC   PO432532   3.689  31.209   9.524
 2451POPC   GL132533   3.578  31.373   9.179
 2451POPC   GL232534   3.260  31.312   9.176
 2451POPC   C1A32535   3.616  31.597   8.812
 2451POPC   D2A32536   3.870  31.541   8.461
 2451POPC   C3A32537   3.770  31.656   8.059
 2451POPC   C4A32538   3.535  31.510   7.748
 2451POPC   C1B32539   3.351  31.147   8.768
 2451POPC   C2B32540   3.434  31.281   8.348
 2451POPC   C3B32541   3.179  31.227   7.982
 2451POPC   C4B32542   3.197  31.227   7.517
 2452POPC   NC332543  20.490   2.419   9.374
 2452POPC   PO432544  20.447   3.090   9.573
 2452POPC   GL132545  20.560   2.924   9.185
 2452POPC   GL232546  20.347   2.724   8.986
 2452POPC   C1A32547  20.793   2.908   8.807
 2452POPC   D2A32548  20.889   2.671   8.397
 2452POPC   C3A32549  20.939   2.919   7.992
 2452POPC   C4A32550  20.682   3.052   7.626
 2452POPC   C1B32551  20.339   2.877   8.579
 2452POPC   C2B32552  20.446   2.816   8.149
 2452POPC   C3B32553  20.610   2.589   7.793
 2452POPC   C4B32554  20.391   2.384   7.459
 2453POPC   NC332555  11.550  38.358   9.680
 2453POPC   PO432556  10.999  38.649   9.465
 2453POPC   GL132557  11.254  38.531   9.139
 2453POPC   GL232558  11.469  38.252   9.164
 2453POPC   C1A32559  11.191  38.410   8.710
 2453POPC   D2A32560  11.005  38.399   8.314
 2453POPC   C3A32561  11.269  38.420   8.014
 2453POPC   C4A32562  11.131  38.286   7.650
 2453POPC   C1B32563  11.451  37.987   8.801
 2453POPC   C2B32564  11.338  37.998   8.361
 2453POPC   C3B32565  11.494  37.987   7.918
 2453POPC   C4B32566  11.541  38.046   7.460
 2454POPC   NC332567  20.296  19.245   9.125
 2454POPC   PO432568  20.802  19.097   9.583
 2454POPC   GL132569  20.762  18.974   9.171
 2454POPC   GL232570  20.776  18.619   9.237
 2454POPC   C1A32571  20.790  19.150   8.728
 2454POPC   D2A32572  20.603  19.279   8.318
 2454POPC   C3A32573  20.255  19.125   8.072
 2454POPC   C4A32574  20.549  19.163   7.761
 2454POPC   C1B32575  20.866  18.625   8.809
 2454POPC   C2B32576  20.760  18.757   8.400
 2454POPC   C3B32577  20.904  18.905   8.034
 2454POPC   C4B32578  20.838  18.772   7.623
 2455POPC   NC332579  44.153  37.899   9.409
 2455POPC   PO432580  43.844  37.335   9.489
 2455POPC   GL132581  43.887  37.549   9.141
 2455POPC   GL232582  44.227  37.450   9.125
 2455POPC   C1A32583  43.930  37.723   8.751
 2455POPC   D2A32584  43.607  37.774   8.466
 2455POPC   C3A32585  43.779  37.709   8.095
 2455POPC   C4A32586  43.919  37.640   7.703
 2455POPC   C1B32587  44.200  37.275   8.711
 2455POPC   C2B32588  44.110  37.352   8.276
 2455POPC   C3B32589  44.289  37.312   7.828
 2455POPC   C4B32590  44.209  37.358   7.368
 2456POPC   NC332591  34.681  13.182   9.471
 2456POPC   PO432592  34.090  12.771   9.590
 2456POPC   GL132593  34.472  12.677   9.239
 2456POPC   GL232594  34.655  12.915   9.054
 2456POPC   C1A32595  34.417  12.608   8.755
 2456POPC   D2A32596  34.624  12.578   8.329
 2456POPC   C3A32597  34.413  12.749   7.978
 2456POPC   C4A32598  34.556  13.150   7.787
 2456POPC   C1B32599  34.881  12.884   8.695
 2456POPC   C2B32600  35.119  12.742   8.394
 2456POPC   C3B32601  34.996  12.873   8.011
 2456POPC   C4B32602  34.808  12.669   7.691
 2457POPC   NC332603  43.938  19.516   9.407
 2457POPC   PO432604  43.831  20.200   9.487
 2457POPC   GL132605  44.065  19.954   9.164
 2457POPC   GL232606  43.832  20.006   8.948
 2457POPC   C1A32607  44.184  19.715   8.739
 2457POPC   D2A32608  44.120  19.812   8.300
 2457POPC   C3A32609  44.174  19.612   7.893
 2457POPC   C4A32610  44.102  19.765   7.458
 2457POPC   C1B32611  43.672  19.664   8.796
 2457POPC   C2B32612  43.640  19.622   8.380
 2457POPC   C3B32613  43.698  19.859   8.026
 2457POPC   C4B32614  43.614  19.747   7.646
 2458POPC   NC332615  35.033  40.606   9.421
 2458POPC   PO432616  35.693  40.903   9.441
 2458POPC   GL132617  35.444  40.718   9.143
 2458POPC   GL232618  35.261  41.022   9.023
 2458POPC   C1A32619  35.410  40.530   8.744
 2458POPC   D2A32620  35.424  40.751   8.361
 2458POPC   C3A32621  35.541  40.594   8.002
 2458POPC   C4A32622  35.430  40.718   7.648
 2458POPC   C1B32623  35.629  41.015   8.758
 2458POPC   C2B32624  35.775  41.109   8.343
 2458POPC   C3B32625  35.558  41.129   7.953
 2458POPC   C4B32626  35.443  41.186   7.507
 2459POPC   NC332627   8.932   1.453   9.519
 2459POPC   PO432628   9.360   0.931   9.481
 2459POPC   GL132629   9.077   1.090   9.136
 2459POPC   GL232630   8.742   1.302   9.086
 2459POPC   C1A32631   9.215   1.212   8.736
 2459POPC   D2A32632   9.267   1.429   8.370
 2459POPC   C3A32633   9.114   1.161   8.049
 2459POPC   C4A32634   9.040   1.217   7.627
 2459POPC   C1B32635   8.695   1.116   8.693
 2459POPC   C2B32636   8.567   1.078   8.266
 2459POPC   C3B32637   8.609   1.076   7.825
 2459POPC   C4B32638   8.707   0.839   7.450
 2460POPC   NC332639  12.912   5.977   9.658
 2460POPC   PO432640  12.883   5.305   9.833
 2460POPC   GL132641  12.840   5.512   9.369
 2460POPC   GL232642  13.098   5.768   9.237
 2460POPC   C1A32643  12.755   5.605   8.890
 2460POPC   D2A32644  12.591   5.944   8.600
 2460POPC   C3A32645  12.647   5.986   8.167
 2460POPC   C4A32646  12.663   5.683   7.878
 2460POPC   C1B32647  13.197   6.002   8.854
 2460POPC   C2B32648  13.088   6.049   8.428
 2460POPC   C3B32649  13.145   5.905   8.008
 2460POPC   C4B32650  13.273   6.061   7.636
 2461POPC   NC332651   3.328   3.060   9.562
 2461POPC   PO432652   3.766   3.631   9.518
 2461POPC   GL132653   3.641   3.512   9.146
 2461POPC   GL232654   3.947   3.580   9.003
 2461POPC   C1A32655   3.367   3.578   8.791
 2461POPC   D2A32656   3.502   3.476   8.392
 2461POPC   C3A32657   3.281   3.557   8.034
 2461POPC   C4A32658   3.410   3.418   7.659
 2461POPC   C1B32659   3.823   3.795   8.661
 2461POPC   C2B32660   3.669   3.943   8.276
 2461POPC   C3B32661   3.750   3.713   7.903
 2461POPC   C4B32662   3.762   3.679   7.432
 2462POPC   NC332663  39.043  14.370   9.342
 2462POPC   PO432664  39.641  14.175   9.609
 2462POPC   GL132665  39.500  14.246   9.138
 2462POPC   GL232666  39.207  14.102   8.943
 2462POPC   C1A32667  39.492  14.446   8.696
 2462POPC   D2A32668  39.081  14.626   8.499
 2462POPC   C3A32669  38.960  14.496   8.064
 2462POPC   C4A32670  39.189  14.586   7.674
 2462POPC   C1B32671  39.152  14.113   8.487
 2462POPC   C2B32672  38.813  13.961   8.260
 2462POPC   C3B32673  38.667  14.095   7.892
 2462POPC   C4B32674  38.787  14.317   7.561
 2463POPC   NC332675  19.908  42.629   9.420
 2463POPC   PO432676  19.606  42.057   9.679
 2463POPC   GL132677  19.751  42.181   9.251
 2463POPC   GL232678  20.074  42.102   9.190
 2463POPC   C1A32679  19.658  42.227   8.788
 2463POPC   D2A32680  19.766  42.169   8.335
 2463POPC   C3A32681  19.483  42.245   7.946
 2463POPC   C4A32682  19.578  42.371   7.492
 2463POPC   C1B32683  20.159  42.346   8.766
 2463POPC   C2B32684  20.157  42.493   8.313
 2463POPC   C3B32685  19.940  42.482   7.901
 2463POPC   C4B32686  20.038  42.582   7.468
 2464POPC   NC332687   0.008  32.882   9.470
 2464POPC   PO432688   0.699  32.790   9.441
 2464POPC   GL132689   0.438  32.996   9.117
 2464POPC   GL232690   0.088  33.038   8.989
 2464POPC   C1A32691   0.545  32.963   8.685
 2464POPC   D2A32692   0.336  32.871   8.297
 2464POPC   C3A32693   0.571  32.802   7.932
 2464POPC   C4A32694   0.829  32.996   7.594
 2464POPC   C1B32695   0.128  33.265   8.575
 2464POPC   C2B32696   0.085  33.293   8.101
 2464POPC   C3B32697   0.219  33.391   7.657
 2464POPC   C4B32698   0.093  33.289   7.213
 2465POPC   NC332699  38.738   2.817   9.469
 2465POPC   PO432700  38.035   2.780   9.644
 2465POPC   GL132701  38.205   3.002   9.281
 2465POPC   GL232702  38.333   2.689   9.180
 2465POPC   C1A32703  38.154   3.013   8.783
 2465POPC   D2A32704  38.199   3.081   8.295
 2465POPC   C3A32705  38.427   2.886   7.929
 2465POPC   C4A32706  38.826   2.924   7.674
 2465POPC   C1B32707  38.286   2.528   8.793
 2465POPC   C2B32708  38.352   2.555   8.363
 2465POPC   C3B32709  38.347   2.311   7.991
 2465POPC   C4B32710  38.512   2.472   7.646
 2466POPC   NC332711  10.728  31.191   9.595
 2466POPC   PO432712  10.336  31.696   9.250
 2466POPC   GL132713  10.572  31.360   9.111
 2466POPC   GL232714  10.306  31.142   8.998
 2466POPC   C1A32715  10.691  31.349   8.683
 2466POPC   D2A32716  10.960  31.363   8.337
 2466POPC   C3A32717  10.803  31.552   7.922
 2466POPC   C4A32718  10.349  31.591   7.782
 2466POPC   C1B32719  10.192  30.848   8.714
 2466POPC   C2B32720  10.560  30.918   8.448
 2466POPC   C3B32721  10.551  31.158   8.103
 2466POPC   C4B32722  10.487  31.052   7.711
 2467POPC   NC332723  22.541  23.128   9.770
 2467POPC   PO432724  23.092  22.980   9.428
 2467POPC   GL132725  23.083  23.008   9.046
 2467POPC   GL232726  23.120  23.366   9.091
 2467POPC   C1A32727  22.884  22.906   8.684
 2467POPC   D2A32728  23.014  22.800   8.320
 2467POPC   C3A32729  22.724  22.748   7.996
 2467POPC   C4A32730  22.990  22.814   7.644
 2467POPC   C1B32731  23.161  23.352   8.679
 2467POPC   C2B32732  22.885  23.300   8.336
 2467POPC   C3B32733  22.936  23.222   7.932
 2467POPC   C4B32734  23.016  23.329   7.488
 2468POPC   NC332735   0.690  29.364   9.468
 2468POPC   PO432736   0.496  28.723   9.537
 2468POPC   GL132737   0.512  29.004   9.157
 2468POPC   GL232738   0.223  29.257   9.137
 2468POPC   C1A32739   0.492  29.098   8.719
 2468POPC   D2A32740   0.229  29.219   8.380
 2468POPC   C3A32741   0.496  29.175   8.040
 2468POPC   C4A32742   0.617  29.193   7.631
 2468POPC   C1B32743   0.083  28.855   8.930
 2468POPC   C2B32744   0.099  28.708   8.497
 2468POPC   C3B32745   0.156  28.811   8.066
 2468POPC   C4B32746   0.240  28.873   7.655
 2469POPC   NC332747  28.115  17.728   9.430
 2469POPC   PO432748  28.750  17.817   9.398
 2469POPC   GL132749  28.498  17.756   9.069
 2469POPC   GL232750  28.355  17.427   9.057
 2469POPC   C1A32751  28.234  17.824   8.713
 2469POPC   D2A32752  28.030  17.540   8.432
 2469POPC   C3A32753  28.093  17.611   8.003
 2469POPC   C4A32754  28.444  17.717   7.734
 2469POPC   C1B32755  28.596  17.461   8.668
 2469POPC   C2B32756  28.572  17.509   8.212
 2469POPC   C3B32757  28.505  17.237   7.859
 2469POPC   C4B32758  28.807  16.971   7.581
 2470POPC   NC332759  22.650  21.411   9.374
 2470POPC   PO432760  23.315  21.248   9.448
 2470POPC   GL132761  23.218  21.295   8.996
 2470POPC   GL232762  22.922  21.531   8.956
 2470POPC   C1A32763  23.037  21.176   8.573
 2470POPC   D2A32764  23.185  20.990   8.189
 2470POPC   C3A32765  23.179  21.259   7.831
 2470POPC   C4A32766  22.875  21.289   7.483
 2470POPC   C1B32767  22.591  21.422   8.628
 2470POPC   C2B32768  22.669  21.326   8.173
 2470POPC   C3B32769  22.824  21.631   7.876
 2470POPC   C4B32770  22.678  21.829   7.515
 2471POPC   NC332771   2.722   8.448   9.457
 2471POPC   PO432772   3.065   7.883   9.579
 2471POPC   GL132773   2.870   8.055   9.158
 2471POPC   GL232774   2.548   8.002   9.078
 2471POPC   C1A32775   2.918   8.191   8.716
 2471POPC   D2A32776   2.699   8.301   8.343
 2471POPC   C3A32777   2.851   8.188   7.959
 2471POPC   C4A32778   2.673   8.453   7.667
 2471POPC   C1B32779   2.399   8.071   8.693
 2471POPC   C2B32780   2.262   8.027   8.281
 2471POPC   C3B32781   2.329   8.067   7.841
 2471POPC   C4B32782   2.595   7.925   7.530
 2472POPC   NC332783  14.391  17.765   9.396
 2472POPC   PO432784  14.591  18.427   9.573
 2472POPC   GL132785  14.374  18.419   9.151
 2472POPC   GL232786  14.705  18.472   9.040
 2472POPC   C1A32787  14.351  18.435   8.649
 2472POPC   D2A32788  14.421  18.231   8.230
 2472POPC   C3A32789  14.093  18.143   7.878
 2472POPC   C4A32790  14.083  18.159   7.396
 2472POPC   C1B32791  14.645  18.823   8.761
 2472POPC   C2B32792  14.496  18.844   8.358
 2472POPC   C3B32793  14.699  18.599   8.026
 2472POPC   C4B32794  14.504  18.372   7.696
 2473POPC   NC332795   6.876  10.796   9.522
 2473POPC   PO432796   6.250  10.473   9.609
 2473POPC   GL132797   6.386  10.312   9.200
 2473POPC   GL232798   6.695  10.465   9.163
 2473POPC   C1A32799   6.492  10.229   8.743
 2473POPC   D2A32800   6.529  10.238   8.269
 2473POPC   C3A32801   6.581  10.675   8.101
 2473POPC   C4A32802   6.865  10.797   7.750
 2473POPC   C1B32803   7.002  10.304   8.858
 2473POPC   C2B32804   7.018  10.412   8.426
 2473POPC   C3B32805   7.002  10.352   8.006
 2473POPC   C4B32806   7.184  10.432   7.617
 2474POPC   NC332807  41.825  38.733   9.443
 2474POPC   PO432808  41.622  38.025   9.433
 2474POPC   GL132809  41.690  38.332   9.117
 2474POPC   GL232810  41.488  38.638   9.059
 2474POPC   C1A32811  41.905  38.441   8.740
 2474POPC   D2A32812  41.944  38.300   8.330
 2474POPC   C3A32813  41.856  38.560   7.981
 2474POPC   C4A32814  41.580  38.438   7.668
 2474POPC   C1B32815  41.372  38.376   8.713
 2474POPC   C2B32816  41.444  38.465   8.300
 2474POPC   C3B32817  41.173  38.395   7.968
 2474POPC   C4B32818  41.143  38.120   7.647
 2475POPC   NC332819  27.861  16.994   9.407
 2475POPC   PO432820  27.186  16.932   9.497
 2475POPC   GL132821  27.370  16.728   9.146
 2475POPC   GL232822  27.412  17.067   9.049
 2475POPC   C1A32823  27.755  16.623   8.849
 2475POPC   D2A32824  27.985  16.485   8.464
 2475POPC   C3A32825  27.753  16.507   8.057
 2475POPC   C4A32826  27.838  16.820   7.702
 2475POPC   C1B32827  27.337  16.805   8.644
 2475POPC   C2B32828  27.289  16.670   8.231
 2475POPC   C3B32829  27.347  16.777   7.809
 2475POPC   C4B32830  27.367  16.768   7.343
 2476POPC   NC332831  38.509  21.717   9.374
 2476POPC   PO432832  38.643  22.410   9.496
 2476POPC   GL132833  38.742  22.147   9.160
 2476POPC   GL232834  38.404  22.078   9.026
 2476POPC   C1A32835  38.835  22.139   8.725
 2476POPC   D2A32836  38.654  21.864   8.384
 2476POPC   C3A32837  38.371  22.142   8.127
 2476POPC   C4A32838  38.530  22.469   7.858
 2476POPC   C1B32839  38.209  21.891   8.659
 2476POPC   C2B32840  38.167  21.686   8.263
 2476POPC   C3B32841  38.484  21.702   7.906
 2476POPC   C4B32842  38.444  22.028   7.611
 2477POPC   NC332843  10.057   7.313   9.474
 2477POPC   PO432844   9.572   7.788   9.398
 2477POPC   GL132845   9.665   7.420   9.146
 2477POPC   GL232846   9.984   7.523   8.985
 2477POPC   C1A32847   9.509   7.122   8.788
 2477POPC   D2A32848   9.459   7.047   8.316
 2477POPC   C3A32849   9.869   7.081   8.089
 2477POPC   C4A32850  10.078   7.328   7.745
 2477POPC   C1B32851   9.586   7.678   8.717
 2477POPC   C2B32852   9.411   7.560   8.292
 2477POPC   C3B32853   9.570   7.450   7.873
 2477POPC   C4B32854   9.732   7.531   7.435
 2478POPC   NC332855   4.617  33.010   9.457
 2478POPC   PO432856   4.189  33.470   9.253
 2478POPC   GL132857   4.469  33.253   9.018
 2478POPC   GL232858   4.371  32.909   9.013
 2478POPC   C1A32859   4.469  33.256   8.581
 2478POPC   D2A32860   4.230  33.226   8.210
 2478POPC   C3A32861   4.518  33.209   7.886
 2478POPC   C4A32862   4.532  33.393   7.469
 2478POPC   C1B32863   4.088  32.903   8.667
 2478POPC   C2B32864   4.077  32.725   8.252
 2478POPC   C3B32865   4.126  32.859   7.825
 2478POPC   C4B32866   4.133  32.629   7.438
 2479POPC   NC332867  16.204  16.953   9.521
 2479POPC   PO432868  15.860  16.313   9.552
 2479POPC   GL132869  15.834  16.689   9.283
 2479POPC   GL232870  16.143  16.593   9.132
 2479POPC   C1A32871  15.931  16.998   8.922
 2479POPC   D2A32872  16.070  16.795   8.559
 2479POPC   C3A32873  15.929  17.005   8.215
 2479POPC   C4A32874  16.030  17.044   7.807
 2479POPC   C1B32875  16.383  16.434   8.762
 2479POPC   C2B32876  16.310  16.342   8.343
 2479POPC   C3B32877  16.151  16.414   7.953
 2479POPC   C4B32878  16.318  16.552   7.600
 2480POPC   NC332879  35.831  44.144   9.671
 2480POPC   PO432880  36.409  43.896   9.556
 2480POPC   GL132881  36.146  43.697   9.235
 2480POPC   GL232882  36.125  44.024   9.157
 2480POPC   C1A32883  35.941  43.763   8.784
 2480POPC   D2A32884  35.927  43.993   8.366
 2480POPC   C3A32885  35.974  43.816   7.918
 2480POPC   C4A32886  35.982  43.509   7.581
 2480POPC   C1B32887  36.337  44.256   8.843
 2480POPC   C2B32888  36.439  44.351   8.431
 2480POPC   C3B32889  36.335  44.147   8.077
 2480POPC   C4B32890  36.232  44.203   7.678
 2481POPC   NC332891  31.072  23.205   9.569
 2481POPC   PO432892  30.361  22.834   9.466
 2481POPC   GL132893  30.673  22.950   9.184
 2481POPC   GL232894  30.980  22.768   9.278
 2481POPC   C1A32895  30.560  23.104   8.774
 2481POPC   D2A32896  30.338  23.035   8.379
 2481POPC   C3A32897  30.564  22.993   8.036
 2481POPC   C4A32898  30.787  22.794   7.736
 2481POPC   C1B32899  31.059  22.833   8.853
 2481POPC   C2B32900  30.902  22.853   8.431
 2481POPC   C3B32901  30.998  22.550   8.110
 2481POPC   C4B32902  31.269  22.662   7.726
 2482POPC   NC332903  33.021  38.114   9.327
 2482POPC   PO432904  33.449  37.514   9.480
 2482POPC   GL132905  33.214  37.654   9.112
 2482POPC   GL232906  32.843  37.656   9.125
 2482POPC   C1A32907  33.100  37.826   8.714
 2482POPC   D2A32908  33.117  37.581   8.385
 2482POPC   C3A32909  33.139  37.786   8.021
 2482POPC   C4A32910  33.313  37.744   7.662
 2482POPC   C1B32911  32.864  37.348   8.769
 2482POPC   C2B32912  32.629  37.243   8.367
 2482POPC   C3B32913  32.578  37.224   7.911
 2482POPC   C4B32914  32.779  37.579   7.712
 2483POPC   NC332915  41.066  28.532   9.485
 2483POPC   PO432916  41.596  28.094   9.443
 2483POPC   GL132917  41.630  28.430   9.093
 2483POPC   GL232918  41.289  28.580   9.018
 2483POPC   C1A32919  41.812  28.405   8.657
 2483POPC   D2A32920  42.047  28.210   8.313
 2483POPC   C3A32921  41.924  28.340   7.885
 2483POPC   C4A32922  41.752  28.725   7.666
 2483POPC   C1B32923  41.322  28.274   8.671
 2483POPC   C2B32924  41.499  28.310   8.229
 2483POPC   C3B32925  41.418  28.363   7.769
 2483POPC   C4B32926  41.272  28.085   7.439
 2484POPC   NC332927   2.555  43.224   9.782
 2484POPC   PO432928   1.947  43.013   9.481
 2484POPC   GL132929   1.949  43.012   9.053
 2484POPC   GL232930   2.247  42.793   9.073
 2484POPC   C1A32931   1.954  43.320   8.676
 2484POPC   D2A32932   2.267  43.273   8.290
 2484POPC   C3A32933   1.998  43.286   7.940
 2484POPC   C4A32934   1.608  43.465   7.864
 2484POPC   C1B32935   2.281  42.945   8.682
 2484POPC   C2B32936   1.986  42.851   8.415
 2484POPC   C3B32937   2.023  42.785   8.033
 2484POPC   C4B32938   2.383  42.949   7.807
 2485POPC   NC332939  23.569  31.820   9.315
 2485POPC   PO432940  23.554  32.507   9.374
 2485POPC   GL132941  23.721  32.224   9.045
 2485POPC   GL232942  24.052  32.042   9.207
 2485POPC   C1A32943  23.399  32.101   8.694
 2485POPC   D2A32944  23.366  32.123   8.205
 2485POPC   C3A32945  23.563  32.468   8.028
 2485POPC   C4A32946  23.930  32.529   7.814
 2485POPC   C1B32947  24.096  31.958   8.775
 2485POPC   C2B32948  23.837  32.130   8.426
 2485POPC   C3B32949  23.933  32.059   7.996
 2485POPC   C4B32950  24.308  31.881   7.829
 2486POPC   NC332951   8.590  34.112   9.204
 2486POPC   PO432952   7.976  34.144   9.555
 2486POPC   GL132953   8.111  33.931   9.174
 2486POPC   GL232954   8.260  33.596   9.218
 2486POPC   C1A32955   8.143  34.060   8.734
 2486POPC   D2A32956   7.828  34.098   8.426
 2486POPC   C3A32957   8.002  33.964   8.042
 2486POPC   C4A32958   7.890  33.863   7.639
 2486POPC   C1B32959   8.428  33.578   8.796
 2486POPC   C2B32960   8.344  33.443   8.405
 2486POPC   C3B32961   8.520  33.544   8.030
 2486POPC   C4B32962   8.367  33.765   7.715
 2487POPC   NC332963  36.073  12.431   9.519
 2487POPC   PO432964  36.194  11.788   9.713
 2487POPC   GL132965  36.210  11.916   9.257
 2487POPC   GL232966  36.515  12.120   9.108
 2487POPC   C1A32967  36.075  12.221   8.884
 2487POPC   D2A32968  36.319  12.312   8.526
 2487POPC   C3A32969  36.036  12.463   8.213
 2487POPC   C4A32970  36.016  12.349   7.794
 2487POPC   C1B32971  36.353  11.807   8.787
 2487POPC   C2B32972  36.076  11.887   8.459
 2487POPC   C3B32973  36.250  12.005   8.097
 2487POPC   C4B32974  36.215  11.867   7.715
 2488POPC   NC332975  41.425  22.688   9.498
 2488POPC   PO432976  41.732  23.268   9.481
 2488POPC   GL132977  41.490  23.155   9.128
 2488POPC   GL232978  41.620  22.827   9.065
 2488POPC   C1A32979  41.408  23.101   8.677
 2488POPC   D2A32980  41.145  22.926   8.384
 2488POPC   C3A32981  41.396  23.002   8.026
 2488POPC   C4A32982  41.273  22.870   7.629
 2488POPC   C1B32983  41.852  22.555   8.797
 2488POPC   C2B32984  42.018  22.401   8.436
 2488POPC   C3B32985  41.910  22.578   8.065
 2488POPC   C4B32986  41.753  22.729   7.663
 2489POPC   NC332987  39.375  34.836   9.618
 2489POPC   PO432988  38.891  34.488   9.701
 2489POPC   GL132989  39.153  34.492   9.281
 2489POPC   GL232990  39.523  34.527   9.225
 2489POPC   C1A32991  39.187  34.658   8.834
 2489POPC   D2A32992  39.235  34.495   8.412
 2489POPC   C3A32993  39.203  34.748   8.031
 2489POPC   C4A32994  38.906  34.742   7.695
 2489POPC   C1B32995  39.662  34.469   8.778
 2489POPC   C2B32996  39.696  34.211   8.391
 2489POPC   C3B32997  39.402  34.171   8.051
 2489POPC   C4B32998  39.287  34.387   7.638
 2490POPC   NC332999  24.749   1.261   9.528
 2490POPC   PO433000  24.152   1.271   9.783
 2490POPC   GL133001  24.357   1.090   9.284
 2490POPC   GL233002  24.612   1.390   9.071
 2490POPC   C1A33003  24.289   1.124   8.808
 2490POPC   D2A33004  24.066   1.026   8.456
 2490POPC   C3A33005  24.203   1.077   8.040
 2490POPC   C4A33006  24.520   1.163   7.769
 2490POPC   C1B33007  24.442   1.595   8.669
 2490POPC   C2B33008  24.408   1.502   8.230
 2490POPC   C3B33009  24.521   1.689   7.836
 2490POPC   C4B33010  24.534   1.533   7.415
 2491POPC   NC333011  30.348   8.778   9.566
 2491POPC   PO433012  30.902   9.222   9.609
 2491POPC   GL133013  30.742   9.195   9.185
 2491POPC   GL233014  30.736   8.835   9.230
 2491POPC   C1A33015  30.732   9.336   8.746
 2491POPC   D2A33016  31.083   9.153   8.552
 2491POPC   C3A33017  31.125   9.134   8.116
 2491POPC   C4A33018  31.003   8.875   7.775
 2491POPC   C1B33019  30.723   8.833   8.793
 2491POPC   C2B33020  30.700   8.852   8.341
 2491POPC   C3B33021  30.528   8.967   7.950
 2491POPC   C4B33022  30.389   8.809   7.518
 2492POPC   NC333023  34.406  33.982   9.497
 2492POPC   PO433024  35.089  33.961   9.489
 2492POPC   GL133025  34.832  33.876   9.093
 2492POPC   GL233026  34.466  33.850   9.021
 2492POPC   C1A33027  34.817  33.801   8.634
 2492POPC   D2A33028  34.682  33.686   8.219
 2492POPC   C3A33029  34.915  33.826   7.854
 2492POPC   C4A33030  34.858  33.879   7.400
 2492POPC   C1B33031  34.281  33.777   8.629
 2492POPC   C2B33032  34.198  33.821   8.184
 2492POPC   C3B33033  34.411  33.827   7.763
 2492POPC   C4B33034  34.404  34.141   7.443
 2493POPC   NC333035  11.913  44.679   9.562
 2493POPC   PO433036  12.476   0.052   9.361
 2493POPC   GL133037  12.120  44.825   9.132
 2493POPC   GL233038  12.044  44.441   9.121
 2493POPC   C1A33039  11.944  44.772   8.730
 2493POPC   D2A33040  11.985  44.553   8.333
 2493POPC   C3A33041  11.792  44.810   8.032
 2493POPC   C4A33042  11.770  44.915   7.588
 2493POPC   C1B33043  12.300  44.416   8.737
 2493POPC   C2B33044  12.534  44.635   8.420
 2493POPC   C3B33045  12.466  44.527   8.017
 2493POPC   C4B33046  12.200  44.733   7.758
 2494POPC   NC333047   4.713   6.515   9.483
 2494POPC   PO433048   4.097   6.308   9.520
 2494POPC   GL133049   4.224   6.522   9.161
 2494POPC   GL233050   4.273   6.886   9.132
 2494POPC   C1A33051   4.353   6.511   8.747
 2494POPC   D2A33052   4.151   6.511   8.368
 2494POPC   C3A33053   4.435   6.372   8.058
 2494POPC   C4A33054   4.291   6.491   7.661
 2494POPC   C1B33055   4.474   7.022   8.715
 2494POPC   C2B33056   4.543   6.836   8.339
 2494POPC   C3B33057   4.283   6.873   7.966
 2494POPC   C4B33058   4.444   6.975   7.525
 2495POPC   NC333059  29.427  23.429   9.746
 2495POPC   PO433060  29.041  22.844   9.693
 2495POPC   GL133061  29.218  22.911   9.248
 2495POPC   GL233062  29.105  23.168   9.024
 2495POPC   C1A33063  29.461  22.718   8.894
 2495POPC   D2A33064  29.455  22.607   8.447
 2495POPC   C3A33065  29.442  22.896   8.156
 2495POPC   C4A33066  29.533  22.958   7.759
 2495POPC   C1B33067  29.242  23.090   8.616
 2495POPC   C2B33068  28.970  22.969   8.293
 2495POPC   C3B33069  28.988  22.942   7.879
 2495POPC   C4B33070  28.902  23.334   7.787
 2496POPC   NC333071  38.573  24.297   9.555
 2496POPC   PO433072  38.816  24.918   9.339
 2496POPC   GL133073  38.754  24.598   9.054
 2496POPC   GL233074  38.479  24.765   8.994
 2496POPC   C1A33075  38.498  24.387   8.682
 2496POPC   D2A33076  38.169  24.477   8.398
 2496POPC   C3A33077  38.256  24.262   8.037
 2496POPC   C4A33078  38.421  24.521   7.743
 2496POPC   C1B33079  38.406  24.987   8.654
 2496POPC   C2B33080  38.365  24.944   8.244
 2496POPC   C3B33081  38.546  25.017   7.857
 2496POPC   C4B33082  38.884  24.738   7.801
 2497POPC   NC333083  24.317  31.656   9.626
 2497POPC   PO433084  24.722  31.143   9.685
 2497POPC   GL133085  24.709  31.518   9.318
 2497POPC   GL233086  24.377  31.561   9.107
 2497POPC   C1A33087  24.814  31.603   8.846
 2497POPC   D2A33088  24.494  31.686   8.515
 2497POPC   C3A33089  24.634  31.592   8.104
 2497POPC   C4A33090  24.521  31.369   7.725
 2497POPC   C1B33091  24.244  31.286   8.735
 2497POPC   C2B33092  24.293  31.263   8.296
 2497POPC   C3B33093  24.083  31.420   7.964
 2497POPC   C4B33094  24.038  31.209   7.624
 2498POPC   NC333095  29.878   7.309   9.395
 2498POPC   PO433096  30.373   7.843   9.307
 2498POPC   GL133097  30.087   7.561   8.997
 2498POPC   GL233098  29.693   7.448   8.949
 2498POPC   C1A33099  30.019   7.252   8.639
 2498POPC   D2A33100  29.790   7.131   8.257
 2498POPC   C3A33101  30.045   7.272   7.936
 2498POPC   C4A33102  30.155   7.670   7.748
 2498POPC   C1B33103  29.728   7.694   8.613
 2498POPC   C2B33104  29.871   7.702   8.209
 2498POPC   C3B33105  29.649   7.605   7.872
 2498POPC   C4B33106  29.438   7.620   7.503
 2499POPC   NC333107   3.612  34.793   9.457
 2499POPC   PO433108   3.795  34.197   9.409
 2499POPC   GL133109   3.514  34.371   9.071
 2499POPC   GL233110   3.462  34.756   8.992
 2499POPC   C1A33111   3.586  34.442   8.617
 2499POPC   D2A33112   3.627  34.748   8.278
 2499POPC   C3A33113   3.673  34.471   7.924
 2499POPC   C4A33114   3.392  34.154   7.817
 2499POPC   C1B33115   3.116  34.592   8.775
 2499POPC   C2B33116   3.139  34.429   8.352
 2499POPC   C3B33117   3.210  34.661   7.965
 2499POPC   C4B33118   3.260  34.582   7.524
 2500POPC   NC333119  28.713   7.916   9.554
 2500POPC   PO433120  28.112   8.255   9.451
 2500POPC   GL133121  28.173   8.199   9.063
 2500POPC   GL233122  28.531   8.144   9.124
 2500POPC   C1A33123  27.992   8.119   8.672
 2500POPC   D2A33124  28.335   8.112   8.405
 2500POPC   C3A33125  28.161   8.040   8.047
 2500POPC   C4A33126  28.186   8.167   7.665
 2500POPC   C1B33127  28.789   8.098   8.767
 2500POPC   C2B33128  28.843   7.947   8.355
 2500POPC   C3B33129  28.679   8.050   7.944
 2500POPC   C4B33130  28.574   8.463   7.772
 2501POPC   NC333131  25.540  20.389   9.315
 2501POPC   PO433132  26.022  20.628   9.698
 2501POPC   GL133133  26.082  20.457   9.217
 2501POPC   GL233134  25.901  20.201   9.004
 2501POPC   C1A33135  26.210  20.590   8.780
 2501POPC   D2A33136  26.109  20.856   8.432
 2501POPC   C3A33137  26.155  20.598   8.079
 2501POPC   C4A33138  26.076  20.639   7.670
 2501POPC   C1B33139  25.731  20.487   8.647
 2501POPC   C2B33140  25.547  20.735   8.324
 2501POPC   C3B33141  25.735  20.931   7.968
 2501POPC   C4B33142  25.623  20.849   7.545
 2502POPC   NC333143  16.466   4.496   9.690
 2502POPC   PO433144  17.142   4.281   9.748
 2502POPC   GL133145  16.931   4.439   9.341
 2502POPC   GL233146  16.640   4.206   9.304
 2502POPC   C1A33147  16.807   4.599   8.873
 2502POPC   D2A33148  16.586   4.545   8.404
 2502POPC   C3A33149  16.735   4.472   7.933
 2502POPC   C4A33150  17.018   4.104   7.762
 2502POPC   C1B33151  16.528   4.148   8.870
 2502POPC   C2B33152  16.348   4.074   8.452
 2502POPC   C3B33153  16.537   4.017   8.029
 2502POPC   C4B33154  16.542   4.026   7.575
 2503POPC   NC333155  19.998   9.494   9.405
 2503POPC   PO433156  19.859  10.166   9.428
 2503POPC   GL133157  19.816   9.855   9.069
 2503POPC   GL233158  20.096   9.780   8.987
 2503POPC   C1A33159  19.579   9.823   8.675
 2503POPC   D2A33160  19.564  10.046   8.259
 2503POPC   C3A33161  19.587   9.704   7.941
 2503POPC   C4A33162  19.928   9.403   7.805
 2503POPC   C1B33163  20.051   9.518   8.671
 2503POPC   C2B33164  19.928   9.685   8.324
 2503POPC   C3B33165  20.061   9.866   8.008
 2503POPC   C4B33166  20.242   9.818   7.665
 2504POPC   NC333167  36.638  14.832   9.401
 2504POPC   PO433168  36.180  15.369   9.456
 2504POPC   GL133169  36.104  15.346   9.045
 2504POPC   GL233170  36.346  15.051   9.011
 2504POPC   C1A33171  36.320  15.439   8.656
 2504POPC   D2A33172  36.464  15.224   8.270
 2504POPC   C3A33173  36.148  15.251   7.947
 2504POPC   C4A33174  35.721  15.298   7.820
 2504POPC   C1B33175  36.016  14.974   8.695
 2504POPC   C2B33176  35.772  14.980   8.301
 2504POPC   C3B33177  35.878  14.804   7.899
 2504POPC   C4B33178  36.130  14.900   7.530
 2505POPC   NC333179   7.771  42.348   9.833
 2505POPC   PO433180   7.465  42.793   9.568
 2505POPC   GL133181   7.366  42.635   9.117
 2505POPC   GL233182   7.615  42.858   9.008
 2505POPC   C1A33183   7.547  42.423   8.692
 2505POPC   D2A33184   7.534  42.066   8.359
 2505POPC   C3A33185   7.380  42.133   7.941
 2505POPC   C4A33186   7.417  42.433   7.621
 2505POPC   C1B33187   7.935  42.878   8.687
 2505POPC   C2B33188   7.879  42.960   8.260
 2505POPC   C3B33189   7.685  42.695   7.949
 2505POPC   C4B33190   7.919  42.531   7.580
 2506POPC   NC333191  26.620   4.437   9.641
 2506POPC   PO433192  26.940   3.945   9.278
 2506POPC   GL133193  26.913   4.354   9.149
 2506POPC   GL233194  26.601   4.349   9.143
 2506POPC   C1A33195  26.934   4.350   8.714
 2506POPC   D2A33196  26.838   4.062   8.345
 2506POPC   C3A33197  26.815   4.283   7.954
 2506POPC   C4A33198  27.026   4.470   7.592
 2506POPC   C1B33199  26.464   4.507   8.758
 2506POPC   C2B33200  26.598   4.571   8.334
 2506POPC   C3B33201  26.442   4.617   7.915
 2506POPC   C4B33202  26.518   4.360   7.521
 2507POPC   NC333203   2.855   6.200   9.455
 2507POPC   PO433204   2.901   5.542   9.551
 2507POPC   GL133205   2.722   5.761   9.196
 2507POPC   GL233206   3.024   5.931   9.039
 2507POPC   C1A33207   2.594   5.737   8.758
 2507POPC   D2A33208   2.709   5.472   8.419
 2507POPC   C3A33209   2.977   5.607   8.089
 2507POPC   C4A33210   2.866   5.805   7.714
 2507POPC   C1B33211   2.874   6.160   8.664
 2507POPC   C2B33212   2.795   6.085   8.199
 2507POPC   C3B33213   2.665   6.252   7.777
 2507POPC   C4B33214   2.677   6.293   7.310
 2508POPC   NC333215  37.187   2.339   9.713
 2508POPC   PO433216  37.652   1.907   9.551
 2508POPC   GL133217  37.724   2.041   9.139
 2508POPC   GL233218  37.991   2.258   9.140
 2508POPC   C1A33219  37.534   2.072   8.713
 2508POPC   D2A33220  37.607   1.834   8.352
 2508POPC   C3A33221  37.367   1.695   8.000
 2508POPC   C4A33222  37.685   1.752   7.712
 2508POPC   C1B33223  38.057   2.076   8.739
 2508POPC   C2B33224  37.977   2.205   8.352
 2508POPC   C3B33225  37.740   2.184   8.008
 2508POPC   C4B33226  37.935   2.235   7.651
 2509POPC   NC333227  31.554  25.653   9.661
 2509POPC   PO433228  31.045  25.316   9.538
 2509POPC   GL133229  31.355  25.411   9.217
 2509POPC   GL233230  31.318  25.075   9.104
 2509POPC   C1A33231  31.604  25.401   8.804
 2509POPC   D2A33232  31.655  25.254   8.366
 2509POPC   C3A33233  31.545  25.447   7.964
 2509POPC   C4A33234  31.637  25.181   7.591
 2509POPC   C1B33235  31.395  24.914   8.719
 2509POPC   C2B33236  31.149  25.123   8.457
 2509POPC   C3B33237  31.061  25.251   8.069
 2509POPC   C4B33238  31.148  25.264   7.676
 2510POPC   NC333239  13.047  25.274   9.633
 2510POPC   PO433240  12.438  25.525   9.359
 2510POPC   GL133241  12.857  25.457   9.221
 2510POPC   GL233242  12.949  25.104   9.134
 2510POPC   C1A33243  13.052  25.542   8.864
 2510POPC   D2A33244  12.838  25.267   8.599
 2510POPC   C3A33245  12.781  25.325   8.170
 2510POPC   C4A33246  12.656  25.267   7.749
 2510POPC   C1B33247  12.958  24.805   8.781
 2510POPC   C2B33248  13.131  24.907   8.342
 2510POPC   C3B33249  13.057  24.969   7.896
 2510POPC   C4B33250  13.009  25.033   7.433
 2511POPC   NC333251  25.972  22.015   9.640
 2511POPC   PO433252  26.217  22.627   9.464
 2511POPC   GL133253  26.046  22.326   9.124
 2511POPC   GL233254  26.066  21.967   9.138
 2511POPC   C1A33255  26.316  22.153   8.746
 2511POPC   D2A33256  26.250  22.299   8.349
 2511POPC   C3A33257  26.202  22.136   7.965
 2511POPC   C4A33258  26.124  22.026   7.581
 2511POPC   C1B33259  25.850  21.988   8.726
 2511POPC   C2B33260  25.884  21.909   8.278
 2511POPC   C3B33261  25.683  22.036   7.870
 2511POPC   C4B33262  25.687  21.883   7.382
 2512POPC   NC333263  21.172  10.171   9.321
 2512POPC   PO433264  21.215   9.560   9.649
 2512POPC   GL133265  21.264   9.625   9.224
 2512POPC   GL233266  20.962   9.754   9.105
 2512POPC   C1A33267  21.405   9.614   8.803
 2512POPC   D2A33268  21.729   9.828   8.581
 2512POPC   C3A33269  21.699   9.770   8.156
 2512POPC   C4A33270  21.662   9.570   7.757
 2512POPC   C1B33271  20.962   9.858   8.659
 2512POPC   C2B33272  21.133   9.845   8.229
 2512POPC   C3B33273  21.166   9.648   7.787
 2512POPC   C4B33274  21.017   9.746   7.325
 2513POPC   NC333275   4.248   1.653   9.538
 2513POPC   PO433276   4.635   1.065   9.506
 2513POPC   GL133277   4.431   1.064   9.130
 2513POPC   GL233278   4.208   1.340   9.139
 2513POPC   C1A33279   4.469   1.206   8.690
 2513POPC   D2A33280   4.731   1.250   8.303
 2513POPC   C3A33281   4.548   1.176   7.897
 2513POPC   C4A33282   4.624   0.778   7.754
 2513POPC   C1B33283   3.986   1.403   8.759
 2513POPC   C2B33284   4.092   1.547   8.356
 2513POPC   C3B33285   4.040   1.353   7.968
 2513POPC   C4B33286   4.053   1.113   7.566
 2514POPC   NC333287  38.803  20.884   9.258
 2514POPC   PO433288  39.384  20.775   9.620
 2514POPC   GL133289  39.242  20.578   9.244
 2514POPC   GL233290  39.252  20.856   9.034
 2514POPC   C1A33291  39.311  20.403   8.816
 2514POPC   D2A33292  39.517  20.350   8.416
 2514POPC   C3A33293  39.465  20.583   8.059
 2514POPC   C4A33294  39.204  20.471   7.741
 2514POPC   C1B33295  38.986  20.765   8.649
 2514POPC   C2B33296  38.991  20.671   8.212
 2514POPC   C3B33297  38.884  20.849   7.827
 2514POPC   C4B33298  38.906  20.887   7.360
 2515POPC   NC333299  40.305  25.660   9.446
 2515POPC   PO433300  39.998  26.293   9.460
 2515POPC   GL133301  40.040  26.195   9.040
 2515POPC   GL233302  39.982  25.858   9.097
 2515POPC   C1A33303  40.002  26.054   8.600
 2515POPC   D2A33304  39.794  25.847   8.239
 2515POPC   C3A33305  39.819  26.150   7.915
 2515POPC   C4A33306  40.200  26.290   7.738
 2515POPC   C1B33307  40.314  25.696   8.813
 2515POPC   C2B33308  40.256  25.615   8.400
 2515POPC   C3B33309  40.282  25.877   8.045
 2515POPC   C4B33310  40.156  25.790   7.638
 2516POPC   NC333311  16.265  26.227   9.424
 2516POPC   PO433312  15.876  25.637   9.470
 2516POPC   GL133313  15.746  25.918   9.140
 2516POPC   GL233314  15.952  26.183   9.051
 2516POPC   C1A33315  15.632  26.052   8.713
 2516POPC   D2A33316  15.818  26.024   8.310
 2516POPC   C3A33317  15.590  25.736   8.053
 2516POPC   C4A33318  15.536  25.765   7.606
 2516POPC   C1B33319  16.258  25.999   8.791
 2516POPC   C2B33320  16.348  26.041   8.381
 2516POPC   C3B33321  16.242  26.073   7.956
 2516POPC   C4B33322  15.840  26.128   7.793
 2517POPC   NC333323  27.524  26.086   9.596
 2517POPC   PO433324  27.140  26.370   9.138
 2517POPC   GL133325  27.521  26.133   9.063
 2517POPC   GL233326  27.863  26.113   9.200
 2517POPC   C1A33327  27.669  25.859   8.777
 2517POPC   D2A33328  27.509  25.700   8.386
 2517POPC   C3A33329  27.367  26.039   8.137
 2517POPC   C4A33330  27.583  26.090   7.754
 2517POPC   C1B33331  27.947  26.321   8.803
 2517POPC   C2B33332  27.772  26.247   8.409
 2517POPC   C3B33333  27.972  26.225   8.027
 2517POPC   C4B33334  28.019  26.559   7.731
 2518POPC   NC333335  23.023  39.274   9.726
 2518POPC   PO433336  22.448  39.362   9.664
 2518POPC   GL133337  22.716  39.382   9.289
 2518POPC   GL233338  22.692  39.022   9.310
 2518POPC   C1A33339  22.954  39.476   8.885
 2518POPC   D2A33340  23.041  39.227   8.505
 2518POPC   C3A33341  22.827  39.293   8.109
 2518POPC   C4A33342  23.015  39.467   7.737
 2518POPC   C1B33343  22.703  39.007   8.870
 2518POPC   C2B33344  22.636  38.906   8.429
 2518POPC   C3B33345  22.779  38.777   8.031
 2518POPC   C4B33346  22.855  38.993   7.663
 2519POPC   NC333347  21.613  37.974   9.523
 2519POPC   PO433348  21.183  38.452   9.523
 2519POPC   GL133349  21.296  38.360   9.122
 2519POPC   GL233350  21.078  38.090   9.107
 2519POPC   C1A33351  21.452  38.546   8.732
 2519POPC   D2A33352  21.511  38.922   8.429
 2519POPC   C3A33353  21.448  38.739   8.012
 2519POPC   C4A33354  21.190  38.645   7.658
 2519POPC   C1B33355  21.308  38.016   8.719
 2519POPC   C2B33356  21.473  38.080   8.304
 2519POPC   C3B33357  21.224  38.243   7.984
 2519POPC   C4B33358  21.000  38.129   7.607
 2520POPC   NC333359  25.657  24.267   9.529
 2520POPC   PO433360  25.822  24.927   9.397
 2520POPC   GL133361  26.151  24.837   9.114
 2520POPC   GL233362  26.247  24.525   9.159
 2520POPC   C1A33363  26.220  24.828   8.730
 2520POPC   D2A33364  26.083  24.556   8.456
 2520POPC   C3A33365  26.188  24.665   8.075
 2520POPC   C4A33366  25.985  24.524   7.736
 2520POPC   C1B33367  25.890  24.381   8.900
 2520POPC   C2B33368  25.811  24.117   8.520
 2520POPC   C3B33369  25.955  24.127   8.085
 2520POPC   C4B33370  25.735  24.044   7.702
 2521POPC   NC333371  41.992   6.874   9.504
 2521POPC   PO433372  42.530   6.400   9.527
 2521POPC   GL133373  42.378   6.624   9.199
 2521POPC   GL233374  42.024   6.491   9.183
 2521POPC   C1A33375  42.525   6.538   8.773
 2521POPC   D2A33376  42.630   6.737   8.370
 2521POPC   C3A33377  42.610   6.536   7.966
 2521POPC   C4A33378  42.496   6.498   7.507
 2521POPC   C1B33379  42.062   6.731   8.811
 2521POPC   C2B33380  42.080   6.502   8.417
 2521POPC   C3B33381  42.112   6.537   7.972
 2521POPC   C4B33382  42.097   6.230   7.656
 2522POPC   NC333383  15.304  17.359   9.363
 2522POPC   PO433384  14.822  17.819   9.579
 2522POPC   GL133385  15.053  17.751   9.159
 2522POPC   GL233386  15.039  17.367   8.950
 2522POPC   C1A33387  15.157  17.810   8.733
 2522POPC   D2A33388  15.245  17.803   8.330
 2522POPC   C3A33389  15.149  17.467   8.087
 2522POPC   C4A33390  15.181  17.706   7.732
 2522POPC   C1B33391  14.809  17.037   8.711
 2522POPC   C2B33392  14.976  17.024   8.329
 2522POPC   C3B33393  14.921  16.970   7.937
 2522POPC   C4B33394  15.102  17.213   7.637
 2523POPC   NC333395  41.270  10.784   9.389
 2523POPC   PO433396  41.734  11.336   9.409
 2523POPC   GL133397  41.483  11.178   9.121
 2523POPC   GL233398  41.260  11.454   9.139
 2523POPC   C1A33399  41.273  11.114   8.742
 2523POPC   D2A33400  41.448  11.305   8.407
 2523POPC   C3A33401  41.521  10.997   8.101
 2523POPC   C4A33402  41.559  11.160   7.720
 2523POPC   C1B33403  41.517  11.671   8.803
 2523POPC   C2B33404  41.756  11.732   8.398
 2523POPC   C3B33405  41.673  11.565   7.991
 2523POPC   C4B33406  41.242  11.571   7.815
 2524POPC   NC333407  30.376   5.122   9.554
 2524POPC   PO433408  29.772   4.933   9.525
 2524POPC   GL133409  29.832   5.158   9.143
 2524POPC   GL233410  30.179   5.100   9.085
 2524POPC   C1A33411  29.711   5.046   8.722
 2524POPC   D2A33412  29.700   4.722   8.383
 2524POPC   C3A33413  29.650   4.957   8.006
 2524POPC   C4A33414  29.829   5.021   7.628
 2524POPC   C1B33415  30.223   5.116   8.650
 2524POPC   C2B33416  30.022   5.126   8.302
 2524POPC   C3B33417  29.974   5.398   7.955
 2524POPC   C4B33418  30.219   5.355   7.592
 2525POPC   NC333419  33.100  34.797   9.440
 2525POPC   PO433420  33.267  34.102   9.505
 2525POPC   GL133421  33.081  34.375   9.176
 2525POPC   GL233422  33.388  34.379   9.049
 2525POPC   C1A33423  32.871  34.608   8.846
 2525POPC   D2A33424  32.852  34.582   8.401
 2525POPC   C3A33425  32.950  34.895   8.052
 2525POPC   C4A33426  32.740  35.058   7.677
 2525POPC   C1B33427  33.335  34.498   8.632
 2525POPC   C2B33428  33.344  34.584   8.218
 2525POPC   C3B33429  33.177  34.474   7.820
 2525POPC   C4B33430  33.363  34.374   7.433
 2526POPC   NC333431  37.783  38.870   9.507
 2526POPC   PO433432  37.380  39.394   9.547
 2526POPC   GL133433  37.627  39.271   9.207
 2526POPC   GL233434  37.429  38.970   9.161
 2526POPC   C1A33435  37.725  39.167   8.779
 2526POPC   D2A33436  37.632  39.431   8.419
 2526POPC   C3A33437  37.944  39.437   8.094
 2526POPC   C4A33438  37.966  39.188   7.737
 2526POPC   C1B33439  37.206  38.886   8.817
 2526POPC   C2B33440  37.248  39.091   8.428
 2526POPC   C3B33441  37.453  39.168   8.024
 2526POPC   C4B33442  37.299  39.095   7.633
 2527POPC   NC333443  37.144  34.425   9.729
 2527POPC   PO433444  36.534  34.385   9.588
 2527POPC   GL133445  36.873  34.341   9.293
 2527POPC   GL233446  36.834  34.681   9.185
 2527POPC   C1A33447  37.068  34.333   8.854
 2527POPC   D2A33448  36.861  34.387   8.424
 2527POPC   C3A33449  37.049  34.281   8.014
 2527POPC   C4A33450  36.788  34.327   7.626
 2527POPC   C1B33451  36.834  34.786   8.760
 2527POPC   C2B33452  36.949  34.910   8.347
 2527POPC   C3B33453  36.975  34.787   7.921
 2527POPC   C4B33454  36.905  34.844   7.485
 2528POPC   NC333455  18.913  11.596   9.472
 2528POPC   PO433456  19.087  12.279   9.501
 2528POPC   GL133457  19.245  12.335   9.111
 2528POPC   GL233458  19.176  12.012   9.022
 2528POPC   C1A33459  19.433  12.351   8.722
 2528POPC   D2A33460  19.330  12.095   8.381
 2528POPC   C3A33461  18.975  12.185   8.136
 2528POPC   C4A33462  19.171  12.195   7.761
 2528POPC   C1B33463  19.161  11.733   8.708
 2528POPC   C2B33464  18.932  11.728   8.379
 2528POPC   C3B33465  19.074  11.692   7.997
 2528POPC   C4B33466  18.816  11.566   7.704
 2529POPC   NC333467   7.649   5.391   9.414
 2529POPC   PO433468   7.370   4.755   9.536
 2529POPC   GL133469   7.665   4.849   9.226
 2529POPC   GL233470   7.418   5.055   9.074
 2529POPC   C1A33471   7.847   4.885   8.820
 2529POPC   D2A33472   7.917   5.087   8.432
 2529POPC   C3A33473   7.702   4.939   8.074
 2529POPC   C4A33474   7.525   5.124   7.695
 2529POPC   C1B33475   7.577   5.322   8.748
 2529POPC   C2B33476   7.432   5.297   8.340
 2529POPC   C3B33477   7.171   5.086   8.072
 2529POPC   C4B33478   7.018   5.225   7.699
 2530POPC   NC333479  18.350   1.484   9.504
 2530POPC   PO433480  18.337   0.855   9.256
 2530POPC   GL133481  18.172   1.294   9.071
 2530POPC   GL233482  18.364   1.635   9.021
 2530POPC   C1A33483  18.073   1.445   8.649
 2530POPC   D2A33484  18.240   1.062   8.492
 2530POPC   C3A33485  18.293   1.063   8.078
 2530POPC   C4A33486  18.106   1.366   7.793
 2530POPC   C1B33487  18.586   1.455   8.663
 2530POPC   C2B33488  18.575   1.448   8.233
 2530POPC   C3B33489  18.628   1.335   7.796
 2530POPC   C4B33490  18.450   1.400   7.397
 2531POPC   NC333491  10.374  33.887   9.295
 2531POPC   PO433492  10.944  34.124   9.673
 2531POPC   GL133493  10.899  33.802   9.214
 2531POPC   GL233494  10.817  33.450   9.115
 2531POPC   C1A33495  10.937  33.803   8.727
 2531POPC   D2A33496  10.688  33.963   8.365
 2531POPC   C3A33497  10.576  33.775   7.962
 2531POPC   C4A33498  10.265  33.953   7.731
 2531POPC   C1B33499  10.511  33.537   8.732
 2531POPC   C2B33500  10.390  33.458   8.308
 2531POPC   C3B33501  10.142  33.488   7.914
 2531POPC   C4B33502  10.182  33.533   7.465
 2532POPC   NC333503  30.265  26.174   9.427
 2532POPC   PO433504  29.635  26.131   9.517
 2532POPC   GL133505  29.774  26.006   9.153
 2532POPC   GL233506  29.596  25.709   9.055
 2532POPC   C1A33507  29.929  26.228   8.809
 2532POPC   D2A33508  29.944  26.177   8.382
 2532POPC   C3A33509  30.121  26.461   8.091
 2532POPC   C4A33510  30.112  26.307   7.668
 2532POPC   C1B33511  29.811  25.757   8.675
 2532POPC   C2B33512  29.821  25.611   8.299
 2532POPC   C3B33513  29.786  25.883   7.984
 2532POPC   C4B33514  29.863  25.802   7.585
 2533POPC   NC333515   4.738  39.855   9.426
 2533POPC   PO433516   5.398  39.750   9.381
 2533POPC   GL133517   5.137  40.034   9.154
 2533POPC   GL233518   5.348  40.282   9.004
 2533POPC   C1A33519   4.861  39.943   8.801
 2533POPC   D2A33520   5.038  40.017   8.408
 2533POPC   C3A33521   4.870  39.819   8.109
 2533POPC   C4A33522   4.796  40.018   7.727
 2533POPC   C1B33523   5.445  39.953   8.723
 2533POPC   C2B33524   5.565  40.057   8.312
 2533POPC   C3B33525   5.296  40.089   7.963
 2533POPC   C4B33526   5.256  40.022   7.523
 2534POPC   NC333527  28.070  40.131   9.488
 2534POPC   PO433528  27.532  39.739   9.396
 2534POPC   GL133529  27.404  40.016   9.110
 2534POPC   GL233530  27.597  40.286   9.215
 2534POPC   C1A33531  27.446  39.996   8.680
 2534POPC   D2A33532  27.696  40.096   8.348
 2534POPC   C3A33533  27.513  40.102   7.971
 2534POPC   C4A33534  27.630  39.768   7.717
 2534POPC   C1B33535  27.814  40.354   8.803
 2534POPC   C2B33536  28.049  40.443   8.417
 2534POPC   C3B33537  27.906  40.448   7.982
 2534POPC   C4B33538  27.801  40.277   7.563
 2535POPC   NC333539  22.137  27.833   9.381
 2535POPC   PO433540  21.813  27.191   9.448
 2535POPC   GL133541  22.023  27.408   9.101
 2535POPC   GL233542  22.388  27.417   9.170
 2535POPC   C1A33543  22.040  27.736   8.756
 2535POPC   D2A33544  22.230  27.804   8.388
 2535POPC   C3A33545  21.988  27.698   8.052
 2535POPC   C4A33546  22.036  27.582   7.635
 2535POPC   C1B33547  22.529  27.537   8.763
 2535POPC   C2B33548  22.705  27.606   8.371
 2535POPC   C3B33549  22.487  27.571   7.991
 2535POPC   C4B33550  22.489  27.800   7.630
 2536POPC   NC333551  13.227   9.560   9.412
 2536POPC   PO433552  13.877   9.425   9.449
 2536POPC   GL133553  13.646   9.648   9.104
 2536POPC   GL233554  13.473   9.998   9.167
 2536POPC   C1A33555  13.537   9.479   8.682
 2536POPC   D2A33556  13.803   9.457   8.300
 2536POPC   C3A33557  13.672   9.531   7.877
 2536POPC   C4A33558  13.846   9.883   7.616
 2536POPC   C1B33559  13.251   9.902   8.777
 2536POPC   C2B33560  13.258   9.795   8.319
 2536POPC   C3B33561  13.456   9.989   7.931
 2536POPC   C4B33562  13.392  10.025   7.438
 2537POPC   NC333563  38.310  12.776   9.531
 2537POPC   PO433564  38.878  12.957   9.494
 2537POPC   GL133565  38.630  12.982   9.161
 2537POPC   GL233566  38.347  13.200   9.229
 2537POPC   C1A33567  38.700  12.812   8.773
 2537POPC   D2A33568  38.527  12.779   8.384
 2537POPC   C3A33569  38.829  12.739   8.085
 2537POPC   C4A33570  38.632  12.767   7.722
 2537POPC   C1B33571  38.184  13.114   8.823
 2537POPC   C2B33572  38.075  13.022   8.410
 2537POPC   C3B33573  38.167  12.957   7.984
 2537POPC   C4B33574  38.310  13.156   7.612
 2538POPC   NC333575  42.571   0.812  10.083
 2538POPC   PO433576  42.276   0.426   9.614
 2538POPC   GL133577  42.289   0.504   9.161
 2538POPC   GL233578  42.577   0.396   9.005
 2538POPC   C1A33579  42.126   0.478   8.723
 2538POPC   D2A33580  42.205   0.287   8.300
 2538POPC   C3A33581  42.125   0.452   7.885
 2538POPC   C4A33582  42.006   0.594   7.451
 2538POPC   C1B33583  42.613   0.384   8.576
 2538POPC   C2B33584  42.838   0.279   8.240
 2538POPC   C3B33585  42.580   0.157   7.934
 2538POPC   C4B33586  42.607   0.006   7.548
 2539POPC   NC333587  16.429  35.659   9.506
 2539POPC   PO433588  15.771  35.942   9.585
 2539POPC   GL133589  15.872  35.986   9.166
 2539POPC   GL233590  16.209  35.943   9.123
 2539POPC   C1A33591  15.765  35.961   8.733
 2539POPC   D2A33592  15.669  35.832   8.317
 2539POPC   C3A33593  15.921  36.090   8.052
 2539POPC   C4A33594  15.829  36.461   7.778
 2539POPC   C1B33595  16.240  36.211   8.737
 2539POPC   C2B33596  16.375  36.300   8.284
 2539POPC   C3B33597  16.325  36.305   7.826
 2539POPC   C4B33598  16.185  36.359   7.408
 2540POPC   NC333599  19.376  23.787   9.318
 2540POPC   PO433600  18.662  23.944   9.492
 2540POPC   GL133601  18.859  23.802   9.134
 2540POPC   GL233602  18.975  23.488   9.163
 2540POPC   C1A33603  18.752  23.725   8.715
 2540POPC   D2A33604  18.940  23.819   8.312
 2540POPC   C3A33605  18.894  23.482   8.038
 2540POPC   C4A33606  18.641  23.477   7.708
 2540POPC   C1B33607  19.195  23.473   8.755
 2540POPC   C2B33608  19.305  23.368   8.331
 2540POPC   C3B33609  19.392  23.561   7.949
 2540POPC   C4B33610  19.182  23.394   7.613
 2541POPC   NC333611   9.633  16.558   9.392
 2541POPC   PO433612   9.857  17.084   9.203
 2541POPC   GL133613   9.737  16.745   8.935
 2541POPC   GL233614  10.028  16.543   8.843
 2541POPC   C1A33615   9.533  16.584   8.572
 2541POPC   D2A33616   9.295  16.759   8.224
 2541POPC   C3A33617   9.403  16.718   7.824
 2541POPC   C4A33618   9.715  16.879   7.514
 2541POPC   C1B33619   9.963  16.850   8.503
 2541POPC   C2B33620   9.824  16.855   8.092
 2541POPC   C3B33621   9.984  16.556   7.796
 2541POPC   C4B33622  10.140  16.534   7.377
 2542POPC   NC333623  26.418  43.237   9.549
 2542POPC   PO433624  26.774  42.672   9.622
 2542POPC   GL133625  26.568  42.901   9.182
 2542POPC   GL233626  26.695  43.256   9.121
 2542POPC   C1A33627  26.688  42.972   8.676
 2542POPC   D2A33628  27.050  42.961   8.359
 2542POPC   C3A33629  27.004  43.022   7.901
 2542POPC   C4A33630  27.204  42.977   7.483
 2542POPC   C1B33631  26.791  43.510   8.766
 2542POPC   C2B33632  26.732  43.378   8.359
 2542POPC   C3B33633  26.525  43.439   8.033
 2542POPC   C4B33634  26.717  43.344   7.624
 2543POPC   NC333635  11.689   3.219   9.460
 2543POPC   PO433636  11.618   2.497   9.519
 2543POPC   GL133637  11.490   2.680   9.148
 2543POPC   GL233638  11.363   2.995   9.162
 2543POPC   C1A33639  11.505   2.503   8.719
 2543POPC   D2A33640  11.600   2.593   8.279
 2543POPC   C3A33641  11.314   2.488   7.923
 2543POPC   C4A33642  11.383   2.692   7.517
 2543POPC   C1B33643  11.270   3.163   8.774
 2543POPC   C2B33644  11.476   3.094   8.393
 2543POPC   C3B33645  11.329   2.985   8.005
 2543POPC   C4B33646  11.153   3.180   7.657
 2544POPC   NC333647  30.896  35.387   9.436
 2544POPC   PO433648  30.311  35.720   9.459
 2544POPC   GL133649  30.521  35.632   9.062
 2544POPC   GL233650  30.853  35.718   9.022
 2544POPC   C1A33651  30.680  35.269   8.817
 2544POPC   D2A33652  30.931  35.129   8.488
 2544POPC   C3A33653  30.728  35.124   8.107
 2544POPC   C4A33654  30.525  35.284   7.744
 2544POPC   C1B33655  31.087  35.595   8.671
 2544POPC   C2B33656  31.165  35.744   8.257
 2544POPC   C3B33657  30.924  35.559   7.930
 2544POPC   C4B33658  30.965  35.446   7.517
 2545POPC   NC333659  15.074  41.351   9.265
 2545POPC   PO433660  15.168  40.738   9.527
 2545POPC   GL133661  15.336  40.623   9.147
 2545POPC   GL233662  15.408  40.972   9.049
 2545POPC   C1A33663  15.157  40.519   8.780
 2545POPC   D2A33664  15.310  40.481   8.361
 2545POPC   C3A33665  15.148  40.772   8.061
 2545POPC   C4A33666  15.198  40.916   7.656
 2545POPC   C1B33667  15.089  41.015   8.700
 2545POPC   C2B33668  14.904  41.155   8.319
 2545POPC   C3B33669  14.813  41.217   7.901
 2545POPC   C4B33670  14.746  41.101   7.482
 2546POPC   NC333671  34.254   1.673   9.566
 2546POPC   PO433672  34.260   1.023   9.410
 2546POPC   GL133673  34.463   1.268   9.109
 2546POPC   GL233674  34.743   1.458   9.185
 2546POPC   C1A33675  34.609   1.100   8.722
 2546POPC   D2A33676  34.548   0.844   8.330
 2546POPC   C3A33677  34.583   0.992   7.893
 2546POPC   C4A33678  34.279   1.171   7.582
 2546POPC   C1B33679  34.697   1.607   8.752
 2546POPC   C2B33680  34.704   1.410   8.331
 2546POPC   C3B33681  34.488   1.479   7.949
 2546POPC   C4B33682  34.717   1.417   7.574
 2547POPC   NC333683  32.782  19.926   9.510
 2547POPC   PO433684  33.252  19.490   9.401
 2547POPC   GL133685  33.066  19.806   9.101
 2547POPC   GL233686  32.773  20.091   9.040
 2547POPC   C1A33687  32.817  19.668   8.745
 2547POPC   D2A33688  32.740  19.653   8.311
 2547POPC   C3A33689  33.131  19.693   8.106
 2547POPC   C4A33690  33.234  19.677   7.723
 2547POPC   C1B33691  33.057  20.130   8.711
 2547POPC   C2B33692  33.007  20.153   8.310
 2547POPC   C3B33693  32.812  20.031   7.930
 2547POPC   C4B33694  32.920  20.032   7.520
 2548POPC   NC333695  33.123  13.936   9.414
 2548POPC   PO433696  33.636  13.630   9.473
 2548POPC   GL133697  33.710  13.573   9.096
 2548POPC   GL233698  33.648  13.939   9.027
 2548POPC   C1A33699  33.926  13.574   8.735
 2548POPC   D2A33700  33.843  13.361   8.377
 2548POPC   C3A33701  33.813  13.577   8.013
 2548POPC   C4A33702  33.727  13.418   7.599
 2548POPC   C1B33703  33.357  13.735   8.769
 2548POPC   C2B33704  33.274  13.853   8.376
 2548POPC   C3B33705  33.514  14.019   8.065
 2548POPC   C4B33706  33.356  13.684   7.818
 2549POPC   NC333707  39.367  36.924   9.448
 2549POPC   PO433708  38.912  37.475   9.484
 2549POPC   GL133709  39.048  37.174   9.124
 2549POPC   GL233710  39.029  36.807   9.075
 2549POPC   C1A33711  39.172  37.102   8.672
 2549POPC   D2A33712  39.474  37.189   8.371
 2549POPC   C3A33713  39.409  37.113   7.949
 2549POPC   C4A33714  39.287  36.896   7.580
 2549POPC   C1B33715  39.207  36.606   8.700
 2549POPC   C2B33716  39.203  36.729   8.255
 2549POPC   C3B33717  39.122  36.507   7.856
 2549POPC   C4B33718  38.990  36.528   7.381
 2550POPC   NC333719   9.098  32.749   9.443
 2550POPC   PO433720   8.420  32.689   9.422
 2550POPC   GL133721   8.573  32.917   9.055
 2550POPC   GL233722   8.878  33.118   9.127
 2550POPC   C1A33723   8.587  33.017   8.621
 2550POPC   D2A33724   8.934  32.931   8.340
 2550POPC   C3A33725   8.961  33.152   7.978
 2550POPC   C4A33726   8.851  33.059   7.576
 2550POPC   C1B33727   9.178  32.961   8.789
 2550POPC   C2B33728   9.439  32.810   8.440
 2550POPC   C3B33729   9.295  32.690   8.011
 2550POPC   C4B33730   9.362  32.963   7.652
 2551POPC   NC333731   7.235  25.389   9.446
 2551POPC   PO433732   7.470  24.669   9.462
 2551POPC   GL133733   7.483  24.996   9.135
 2551POPC   GL233734   7.712  25.300   9.110
 2551POPC   C1A33735   7.610  25.010   8.702
 2551POPC   D2A33736   7.526  25.187   8.322
 2551POPC   C3A33737   7.342  24.955   7.994
 2551POPC   C4A33738   7.239  25.084   7.602
 2551POPC   C1B33739   7.406  25.473   8.806
 2551POPC   C2B33740   7.261  25.632   8.408
 2551POPC   C3B33741   7.437  25.554   7.998
 2551POPC   C4B33742   7.216  25.592   7.645
 2552POPC   NC333743  27.330  40.888   9.565
 2552POPC   PO433744  27.984  40.576   9.421
 2552POPC   GL133745  27.753  40.790   9.110
 2552POPC   GL233746  27.395  40.740   9.105
 2552POPC   C1A33747  27.600  40.802   8.659
 2552POPC   D2A33748  27.517  40.632   8.251
 2552POPC   C3A33749  27.659  40.911   7.906
 2552POPC   C4A33750  28.001  40.819   7.645
 2552POPC   C1B33751  27.267  40.445   8.825
 2552POPC   C2B33752  27.106  40.346   8.431
 2552POPC   C3B33753  27.057  40.515   8.026
 2552POPC   C4B33754  27.340  40.520   7.709
 2553POPC   NC333755  38.088   3.538   9.460
 2553POPC   PO433756  38.692   3.251   9.268
 2553POPC   GL133757  38.385   3.404   9.021
 2553POPC   GL233758  38.379   3.710   9.101
 2553POPC   C1A33759  38.483   3.386   8.611
 2553POPC   D2A33760  38.795   3.495   8.352
 2553POPC   C3A33761  38.728   3.264   8.043
 2553POPC   C4A33762  38.483   3.312   7.645
 2553POPC   C1B33763  38.476   3.877   8.725
 2553POPC   C2B33764  38.549   3.947   8.308
 2553POPC   C3B33765  38.559   3.729   7.934
 2553POPC   C4B33766  38.520   3.830   7.507
 2554POPC   NC333767  34.729  39.225   9.486
 2554POPC   PO433768  34.093  39.016   9.325
 2554POPC   GL133769  34.305  39.149   8.988
 2554POPC   GL233770  34.268  39.467   9.012
 2554POPC   C1A33771  34.709  39.241   8.809
 2554POPC   D2A33772  34.871  39.423   8.428
 2554POPC   C3A33773  34.763  39.215   8.046
 2554POPC   C4A33774  34.952  38.855   7.820
 2554POPC   C1B33775  34.463  39.669   8.694
 2554POPC   C2B33776  34.602  39.827   8.334
 2554POPC   C3B33777  34.497  39.739   7.942
 2554POPC   C4B33778  34.617  39.498   7.629
 2555POPC   NC333779   7.003  38.719   9.517
 2555POPC   PO433780   6.362  38.490   9.545
 2555POPC   GL133781   6.639  38.545   9.179
 2555POPC   GL233782   6.645  38.239   9.068
 2555POPC   C1A33783   6.797  38.573   8.702
 2555POPC   D2A33784   6.508  38.759   8.405
 2555POPC   C3A33785   6.441  38.676   7.961
 2555POPC   C4A33786   6.633  38.643   7.551
 2555POPC   C1B33787   6.352  38.336   8.704
 2555POPC   C2B33788   6.515  38.271   8.278
 2555POPC   C3B33789   6.624  38.212   7.811
 2555POPC   C4B33790   6.400  38.112   7.414
 2556POPC   NC333791  19.045   3.199   9.603
 2556POPC   PO433792  18.782   2.621   9.408
 2556POPC   GL133793  18.955   2.955   9.141
 2556POPC   GL233794  19.300   2.873   8.996
 2556POPC   C1A33795  18.902   3.049   8.710
 2556POPC   D2A33796  18.851   2.768   8.348
 2556POPC   C3A33797  18.985   2.835   7.923
 2556POPC   C4A33798  19.358   3.005   7.680
 2556POPC   C1B33799  19.017   2.548   8.785
 2556POPC   C2B33800  18.994   2.263   8.438
 2556POPC   C3B33801  19.125   2.326   8.029
 2556POPC   C4B33802  19.200   2.503   7.613
 2557POPC   NC333803  14.979  30.905   9.422
 2557POPC   PO433804  15.595  30.549   9.687
 2557POPC   GL133805  15.288  30.505   9.239
 2557POPC   GL233806  15.172  30.812   8.994
 2557POPC   C1A33807  15.386  30.469   8.734
 2557POPC   D2A33808  15.152  30.660   8.380
 2557POPC   C3A33809  15.213  30.538   7.964
 2557POPC   C4A33810  15.590  30.618   7.799
 2557POPC   C1B33811  14.905  30.986   8.672
 2557POPC   C2B33812  15.074  31.175   8.327
 2557POPC   C3B33813  15.052  31.020   7.963
 2557POPC   C4B33814  14.990  31.161   7.588
 2558POPC   NC333815  33.556   1.736   9.307
 2558POPC   PO433816  33.078   2.049   9.774
 2558POPC   GL133817  33.091   1.992   9.267
 2558POPC   GL233818  33.375   2.185   9.126
 2558POPC   C1A33819  32.800   1.984   8.858
 2558POPC   D2A33820  32.775   2.135   8.392
 2558POPC   C3A33821  32.720   1.909   7.980
 2558POPC   C4A33822  32.819   2.031   7.535
 2558POPC   C1B33823  33.283   2.005   8.710
 2558POPC   C2B33824  33.399   1.905   8.276
 2558POPC   C3B33825  33.205   2.025   7.888
 2558POPC   C4B33826  33.352   2.037   7.447
 2559POPC   NC333827   5.344  32.897   9.894
 2559POPC   PO433828   5.090  32.330   9.614
 2559POPC   GL133829   4.953  32.321   9.205
 2559POPC   GL233830   5.309  32.262   9.140
 2559POPC   C1A33831   4.966  32.273   8.751
 2559POPC   D2A33832   5.019  32.146   8.314
 2559POPC   C3A33833   5.138  32.510   8.078
 2559POPC   C4A33834   4.907  32.723   7.799
 2559POPC   C1B33835   5.537  32.062   8.824
 2559POPC   C2B33836   5.501  32.023   8.406
 2559POPC   C3B33837   5.438  32.101   7.986
 2559POPC   C4B33838   5.367  31.949   7.585
 2560POPC   NC333839  29.110  13.301   9.903
 2560POPC   PO433840  29.238  12.740   9.538
 2560POPC   GL133841  29.178  12.738   9.095
 2560POPC   GL233842  28.839  12.548   9.065
 2560POPC   C1A33843  29.263  13.095   8.763
 2560POPC   D2A33844  28.949  13.229   8.426
 2560POPC   C3A33845  29.081  13.113   7.993
 2560POPC   C4A33846  29.216  13.094   7.529
 2560POPC   C1B33847  28.920  12.748   8.662
 2560POPC   C2B33848  29.162  12.692   8.306
 2560POPC   C3B33849  29.014  12.627   7.878
 2560POPC   C4B33850  28.758  12.917   7.644
 2561POPC   NC333851  37.699  35.918   9.521
 2561POPC   PO433852  37.376  36.423   9.777
 2561POPC   GL133853  37.558  36.404   9.263
 2561POPC   GL233854  37.588  36.111   9.055
 2561POPC   C1A33855  37.424  36.548   8.810
 2561POPC   D2A33856  37.144  36.415   8.450
 2561POPC   C3A33857  37.401  36.195   8.111
 2561POPC   C4A33858  37.492  36.363   7.707
 2561POPC   C1B33859  37.541  36.102   8.603
 2561POPC   C2B33860  37.858  35.975   8.328
 2561POPC   C3B33861  38.071  35.775   8.055
 2561POPC   C4B33862  37.901  36.047   7.792
 2562POPC   NC333863  21.992  41.313   9.610
 2562POPC   PO433864  22.235  41.966   9.361
 2562POPC   GL133865  22.308  41.563   9.239
 2562POPC   GL233866  21.982  41.481   9.135
 2562POPC   C1A33867  22.422  41.509   8.814
 2562POPC   D2A33868  22.420  41.292   8.434
 2562POPC   C3A33869  22.313  41.510   8.075
 2562POPC   C4A33870  22.216  41.699   7.686
 2562POPC   C1B33871  21.894  41.581   8.730
 2562POPC   C2B33872  21.910  41.409   8.349
 2562POPC   C3B33873  21.802  41.529   7.939
 2562POPC   C4B33874  21.736  41.763   7.545
 2563POPC   NC333875  21.842  34.884   9.573
 2563POPC   PO433876  22.201  34.355   9.597
 2563POPC   GL133877  22.019  34.523   9.196
 2563POPC   GL233878  22.116  34.854   9.123
 2563POPC   C1A33879  22.173  34.485   8.760
 2563POPC   D2A33880  22.417  34.368   8.389
 2563POPC   C3A33881  22.132  34.301   8.076
 2563POPC   C4A33882  22.024  34.496   7.740
 2563POPC   C1B33883  22.119  34.996   8.672
 2563POPC   C2B33884  22.140  34.815   8.255
 2563POPC   C3B33885  22.442  34.750   7.941
 2563POPC   C4B33886  22.379  34.792   7.497
 2564POPC   NC333887  20.095  17.576   9.505
 2564POPC   PO433888  19.416  17.479   9.554
 2564POPC   GL133889  19.595  17.293   9.170
 2564POPC   GL233890  19.766  17.568   9.136
 2564POPC   C1A33891  19.793  17.299   8.722
 2564POPC   D2A33892  19.677  17.460   8.324
 2564POPC   C3A33893  19.983  17.383   8.021
 2564POPC   C4A33894  20.075  17.364   7.580
 2564POPC   C1B33895  20.111  17.719   8.847
 2564POPC   C2B33896  20.211  17.677   8.427
 2564POPC   C3B33897  20.198  17.866   8.033
 2564POPC   C4B33898  20.342  17.773   7.640
 2565POPC   NC333899  40.465  44.132   9.838
 2565POPC   PO433900  39.869  43.881   9.626
 2565POPC   GL133901  40.053  43.825   9.250
 2565POPC   GL233902  40.204  43.493   9.292
 2565POPC   C1A33903  39.975  44.090   8.877
 2565POPC   D2A33904  40.123  44.117   8.462
 2565POPC   C3A33905  39.985  43.940   8.102
 2565POPC   C4A33906  40.280  43.906   7.693
 2565POPC   C1B33907  40.233  43.355   8.868
 2565POPC   C2B33908  40.146  43.612   8.497
 2565POPC   C3B33909  40.404  43.672   8.125
 2565POPC   C4B33910  40.430  43.409   7.766
 2566POPC   NC333911  26.204  25.202   9.434
 2566POPC   PO433912  25.531  25.486   9.519
 2566POPC   GL133913  25.803  25.395   9.197
 2566POPC   GL233914  26.038  25.600   9.191
 2566POPC   C1A33915  25.945  25.256   8.806
 2566POPC   D2A33916  25.860  25.056   8.432
 2566POPC   C3A33917  26.081  25.255   8.124
 2566POPC   C4A33918  26.056  25.055   7.759
 2566POPC   C1B33919  25.758  25.740   8.826
 2566POPC   C2B33920  25.791  25.593   8.423
 2566POPC   C3B33921  25.855  25.763   8.042
 2566POPC   C4B33922  25.992  25.562   7.680
 2567POPC   NC333923  27.770   7.922   9.442
 2567POPC   PO433924  27.506   8.536   9.544
 2567POPC   GL133925  27.457   8.467   9.118
 2567POPC   GL233926  27.658   8.203   9.041
 2567POPC   C1A33927  27.481   8.457   8.648
 2567POPC   D2A33928  27.619   8.169   8.304
 2567POPC   C3A33929  27.709   8.273   7.877
 2567POPC   C4A33930  27.779   8.435   7.479
 2567POPC   C1B33931  27.459   7.920   8.727
 2567POPC   C2B33932  27.324   7.748   8.311
 2567POPC   C3B33933  27.274   7.959   7.894
 2567POPC   C4B33934  27.413   8.064   7.464
 2568POPC   NC333935  34.066  14.899   9.423
 2568POPC   PO433936  33.723  15.481   9.408
 2568POPC   GL133937  33.899  15.222   9.069
 2568POPC   GL233938  33.716  14.919   9.047
 2568POPC   C1A33939  34.092  15.180   8.638
 2568POPC   D2A33940  33.925  15.030   8.259
 2568POPC   C3A33941  34.086  15.310   7.978
 2568POPC   C4A33942  34.073  15.364   7.548
 2568POPC   C1B33943  33.597  15.134   8.677
 2568POPC   C2B33944  33.544  15.382   8.337
 2568POPC   C3B33945  33.562  15.229   7.928
 2568POPC   C4B33946  33.804  14.948   7.717
 2569POPC   NC333947  21.943  25.155   9.344
 2569POPC   PO433948  22.443  25.515   9.502
 2569POPC   GL133949  22.233  25.500   9.100
 2569POPC   GL233950  22.471  25.246   9.030
 2569POPC   C1A33951  22.089  25.451   8.670
 2569POPC   D2A33952  21.922  25.310   8.254
 2569POPC   C3A33953  22.135  25.016   7.997
 2569POPC   C4A33954  22.089  25.241   7.658
 2569POPC   C1B33955  22.472  25.123   8.593
 2569POPC   C2B33956  22.468  25.367   8.228
 2569POPC   C3B33957  22.595  25.296   7.822
 2569POPC   C4B33958  22.498  25.456   7.407
 2570POPC   NC333959  24.847  41.346   9.406
 2570POPC   PO433960  25.511  41.319   9.554
 2570POPC   GL133961  25.286  41.441   9.164
 2570POPC   GL233962  25.136  41.776   9.090
 2570POPC   C1A33963  25.071  41.339   8.771
 2570POPC   D2A33964  25.167  41.126   8.405
 2570POPC   C3A33965  25.013  41.256   8.038
 2570POPC   C4A33966  25.143  41.157   7.595
 2570POPC   C1B33967  25.452  41.661   8.732
 2570POPC   C2B33968  25.472  41.526   8.334
 2570POPC   C3B33969  25.516  41.337   7.965
 2570POPC   C4B33970  25.236  41.618   7.800
 2571POPC   NC333971  18.453  37.276   9.465
 2571POPC   PO433972  18.136  36.636   9.580
 2571POPC   GL133973  18.358  36.854   9.177
 2571POPC   GL233974  18.456  37.218   8.969
 2571POPC   C1A33975  18.241  36.772   8.760
 2571POPC   D2A33976  18.159  36.804   8.347
 2571POPC   C3A33977  18.483  36.832   8.056
 2571POPC   C4A33978  18.326  36.785   7.686
 2571POPC   C1B33979  18.245  37.267   8.601
 2571POPC   C2B33980  18.313  37.270   8.184
 2571POPC   C3B33981  18.200  37.279   7.743
 2571POPC   C4B33982  18.017  37.399   7.353
 2572POPC   NC333983  11.958  29.136   9.421
 2572POPC   PO433984  12.650  28.963   9.258
 2572POPC   GL133985  12.303  29.231   9.062
 2572POPC   GL233986  11.893  29.163   8.940
 2572POPC   C1A33987  12.227  29.422   8.690
 2572POPC   D2A33988  12.065  29.119   8.390
 2572POPC   C3A33989  12.144  29.347   8.046
 2572POPC   C4A33990  12.256  29.494   7.637
 2572POPC   C1B33991  11.636  28.926   8.652
 2572POPC   C2B33992  11.720  28.649   8.296
 2572POPC   C3B33993  11.778  28.785   7.856
 2572POPC   C4B33994  11.783  29.228   7.705
 2573POPC   NC333995  28.160  42.813   9.546
 2573POPC   PO433996  28.357  42.190   9.647
 2573POPC   GL133997  28.103  42.324   9.308
 2573POPC   GL233998  28.394  42.486   9.212
 2573POPC   C1A33999  28.108  42.181   8.884
 2573POPC   D2A34000  28.265  41.992   8.536
 2573POPC   C3A34001  28.296  42.207   8.169
 2573POPC   C4A34002  28.332  42.223   7.756
 2573POPC   C1B34003  28.422  42.589   8.804
 2573POPC   C2B34004  28.604  42.536   8.417
 2573POPC   C3B34005  28.511  42.651   7.990
 2573POPC   C4B34006  28.804  42.451   7.740
 2574POPC   NC334007  26.063   2.488   9.390
 2574POPC   PO434008  25.945   3.211   9.529
 2574POPC   GL134009  25.824   2.900   9.201
 2574POPC   GL234010  26.152   2.895   9.055
 2574POPC   C1A34011  25.796   2.733   8.757
 2574POPC   D2A34012  26.086   2.767   8.391
 2574POPC   C3A34013  25.940   2.637   7.978
 2574POPC   C4A34014  25.880   2.816   7.553
 2574POPC   C1B34015  26.290   2.501   8.782
 2574POPC   C2B34016  26.497   2.415   8.392
 2574POPC   C3B34017  26.443   2.630   8.036
 2574POPC   C4B34018  26.293   2.556   7.621
 2575POPC   NC334019   2.611  27.712   9.576
 2575POPC   PO434020   2.338  27.068   9.500
 2575POPC   GL134021   2.478  27.399   9.163
 2575POPC   GL234022   2.485  27.799   9.113
 2575POPC   C1A34023   2.714  27.493   8.761
 2575POPC   D2A34024   2.817  27.683   8.338
 2575POPC   C3A34025   2.719  27.461   7.950
 2575POPC   C4A34026   2.771  27.372   7.504
 2575POPC   C1B34027   2.571  27.975   8.736
 2575POPC   C2B34028   2.356  27.936   8.353
 2575POPC   C3B34029   2.534  27.988   7.967
 2575POPC   C4B34030   2.487  27.769   7.583
 2576POPC   NC334031  33.452  28.033   9.503
 2576POPC   PO434032  33.945  28.534   9.556
 2576POPC   GL134033  33.763  28.375   9.234
 2576POPC   GL234034  33.871  28.025   9.187
 2576POPC   C1A34035  33.790  28.444   8.821
 2576POPC   D2A34036  33.533  28.332   8.500
 2576POPC   C3A34037  33.729  28.457   8.085
 2576POPC   C4A34038  33.573  28.738   7.787
 2576POPC   C1B34039  34.021  27.971   8.763
 2576POPC   C2B34040  33.886  27.998   8.339
 2576POPC   C3B34041  33.715  27.985   7.944
 2576POPC   C4B34042  33.989  27.920   7.631
 2577POPC   NC334043   0.817  31.382   9.809
 2577POPC   PO434044   0.243  31.522   9.385
 2577POPC   GL134045   0.115  31.523   8.993
 2577POPC   GL234046   0.436  31.481   8.895
 2577POPC   C1A34047   0.205  31.850   8.681
 2577POPC   D2A34048   0.393  31.876   8.311
 2577POPC   C3A34049   0.237  31.521   8.148
 2577POPC   C4A34050   0.172  31.620   7.775
 2577POPC   C1B34051   0.431  31.245   8.552
 2577POPC   C2B34052   0.736  31.395   8.265
 2577POPC   C3B34053   0.645  31.393   7.877
 2577POPC   C4B34054   0.312  31.134   7.736
 2578POPC   NC334055   2.968  33.332   9.508
 2578POPC   PO434056   2.546  32.758   9.481
 2578POPC   GL134057   2.671  33.061   9.149
 2578POPC   GL234058   2.908  32.863   9.054
 2578POPC   C1A34059   2.730  33.135   8.678
 2578POPC   D2A34060   2.563  33.050   8.260
 2578POPC   C3A34061   2.771  33.127   7.845
 2578POPC   C4A34062   2.835  33.271   7.371
 2578POPC   C1B34063   3.080  32.648   8.726
 2578POPC   C2B34064   3.177  32.470   8.320
 2578POPC   C3B34065   2.945  32.608   7.966
 2578POPC   C4B34066   2.930  32.785   7.541
 2579POPC   NC334067  43.521   2.834   9.593
 2579POPC   PO434068  42.847   2.942   9.405
 2579POPC   GL134069  43.025   2.727   9.128
 2579POPC   GL234070  43.353   2.661   9.146
 2579POPC   C1A34071  43.187   2.918   8.756
 2579POPC   D2A34072  43.369   2.792   8.410
 2579POPC   C3A34073  43.024   2.779   8.132
 2579POPC   C4A34074  43.082   2.817   7.709
 2579POPC   C1B34075  43.190   2.417   8.773
 2579POPC   C2B34076  43.342   2.265   8.394
 2579POPC   C3B34077  43.397   2.455   8.002
 2579POPC   C4B34078  43.233   2.362   7.605
 2580POPC   NC334079  26.177  26.891   9.556
 2580POPC   PO434080  25.660  26.387   9.536
 2580POPC   GL134081  25.930  26.577   9.184
 2580POPC   GL234082  26.284  26.545   9.210
 2580POPC   C1A34083  25.841  26.750   8.763
 2580POPC   D2A34084  26.014  26.637   8.393
 2580POPC   C3A34085  25.827  26.755   8.017
 2580POPC   C4A34086  25.836  27.108   7.756
 2580POPC   C1B34087  26.322  26.854   8.887
 2580POPC   C2B34088  26.423  26.957   8.459
 2580POPC   C3B34089  26.347  26.811   8.053
 2580POPC   C4B34090  26.219  26.606   7.698
 2581POPC   NC334091  41.566  29.253   9.965
 2581POPC   PO434092  41.937  28.926   9.574
 2581POPC   GL134093  41.695  28.991   9.188
 2581POPC   GL234094  41.769  29.405   9.057
 2581POPC   C1A34095  41.527  28.958   8.767
 2581POPC   D2A34096  41.295  28.748   8.451
 2581POPC   C3A34097  41.460  28.805   8.063
 2581POPC   C4A34098  41.278  28.926   7.657
 2581POPC   C1B34099  41.875  29.326   8.654
 2581POPC   C2B34100  41.585  29.268   8.341
 2581POPC   C3B34101  41.578  29.493   7.978
 2581POPC   C4B34102  41.619  29.290   7.583
 2582POPC   NC334103   0.095   7.890   9.493
 2582POPC   PO434104   0.641   7.356   9.505
 2582POPC   GL134105   0.559   7.244   9.104
 2582POPC   GL234106   0.215   7.405   9.121
 2582POPC   C1A34107   0.466   7.441   8.686
 2582POPC   D2A34108   0.588   7.755   8.375
 2582POPC   C3A34109   0.650   7.578   7.975
 2582POPC   C4A34110   0.656   7.427   7.555
 2582POPC   C1B34111   0.166   7.049   8.843
 2582POPC   C2B34112   0.251   7.030   8.414
 2582POPC   C3B34113   0.306   7.186   8.009
 2582POPC   C4B34114   0.196   7.476   7.714
 2583POPC   NC334115  34.852  25.830   9.451
 2583POPC   PO434116  34.288  26.218   9.485
 2583POPC   GL134117  34.455  26.012   9.144
 2583POPC   GL234118  34.751  26.186   9.079
 2583POPC   C1A34119  34.514  25.923   8.702
 2583POPC   D2A34120  34.510  25.788   8.272
 2583POPC   C3A34121  34.333  26.095   8.023
 2583POPC   C4A34122  34.405  26.018   7.605
 2583POPC   C1B34123  34.652  26.411   8.716
 2583POPC   C2B34124  34.812  26.190   8.350
 2583POPC   C3B34125  34.822  26.181   7.907
 2583POPC   C4B34126  34.547  26.485   7.713
 2584POPC   NC334127  32.123  41.102   9.305
 2584POPC   PO434128  32.294  41.639   9.711
 2584POPC   GL134129  32.373  41.708   9.301
 2584POPC   GL234130  32.565  41.424   9.295
 2584POPC   C1A34131  32.255  41.798   8.890
 2584POPC   D2A34132  32.196  41.540   8.497
 2584POPC   C3A34133  32.226  41.684   8.053
 2584POPC   C4A34134  32.290  41.400   7.659
 2584POPC   C1B34135  32.624  41.440   8.856
 2584POPC   C2B34136  32.648  41.260   8.445
 2584POPC   C3B34137  32.623  41.325   8.036
 2584POPC   C4B34138  32.683  41.656   7.804
 2585POPC   NC334139  30.100  13.665   9.535
 2585POPC   PO434140  29.504  13.325   9.673
 2585POPC   GL134141  29.804  13.332   9.268
 2585POPC   GL234142  29.865  13.660   9.066
 2585POPC   C1A34143  30.122  13.292   8.888
 2585POPC   D2A34144  30.089  13.588   8.545
 2585POPC   C3A34145  30.196  13.494   8.120
 2585POPC   C4A34146  29.873  13.686   7.863
 2585POPC   C1B34147  30.281  13.837   8.930
 2585POPC   C2B34148  30.443  14.049   8.554
 2585POPC   C3B34149  30.269  14.002   8.154
 2585POPC   C4B34150  30.319  13.850   7.721
 2586POPC   NC334151  39.603  37.861   9.460
 2586POPC   PO434152  40.243  37.693   9.479
 2586POPC   GL134153  40.040  37.636   9.093
 2586POPC   GL234154  39.867  37.960   9.044
 2586POPC   C1A34155  40.149  37.629   8.637
 2586POPC   D2A34156  40.370  37.585   8.246
 2586POPC   C3A34157  40.105  37.738   7.949
 2586POPC   C4A34158  39.931  37.420   7.736
 2586POPC   C1B34159  39.652  37.666   8.741
 2586POPC   C2B34160  39.743  37.604   8.294
 2586POPC   C3B34161  39.499  37.633   7.924
 2586POPC   C4B34162  39.546  38.034   7.773
 2587POPC   NC334163  33.887  26.458   9.421
 2587POPC   PO434164  33.578  25.927   9.704
 2587POPC   GL134165  33.775  25.983   9.228
 2587POPC   GL234166  33.697  25.722   9.002
 2587POPC   C1A34167  34.020  26.110   8.874
 2587POPC   D2A34168  34.053  25.998   8.477
 2587POPC   C3A34169  33.829  26.224   8.170
 2587POPC   C4A34170  33.916  26.176   7.724
 2587POPC   C1B34171  33.559  25.934   8.666
 2587POPC   C2B34172  33.539  25.730   8.294
 2587POPC   C3B34173  33.511  25.920   7.919
 2587POPC   C4B34174  33.557  25.891   7.487
 2588POPC   NC334175  17.979   0.656   9.499
 2588POPC   PO434176  18.507   0.292   9.733
 2588POPC   GL134177  18.439   0.300   9.269
 2588POPC   GL234178  18.139   0.383   9.112
 2588POPC   C1A34179  18.484   0.217   8.782
 2588POPC   D2A34180  18.625   0.222   8.312
 2588POPC   C3A34181  18.556   0.528   7.964
 2588POPC   C4A34182  18.264   0.445   7.647
 2588POPC   C1B34183  18.051   0.576   8.706
 2588POPC   C2B34184  18.106   0.612   8.261
 2588POPC   C3B34185  17.947   0.761   7.878
 2588POPC   C4B34186  18.279   0.947   7.586
 2589POPC   NC334187   6.942  28.512   9.356
 2589POPC   PO434188   6.303  28.151   9.509
 2589POPC   GL134189   6.466  28.264   9.127
 2589POPC   GL234190   6.790  28.118   9.027
 2589POPC   C1A34191   6.427  28.441   8.727
 2589POPC   D2A34192   6.710  28.394   8.425
 2589POPC   C3A34193   6.605  28.463   8.022
 2589POPC   C4A34194   6.937  28.458   7.747
 2589POPC   C1B34195   6.513  27.930   8.695
 2589POPC   C2B34196   6.318  28.070   8.287
 2589POPC   C3B34197   6.373  28.064   7.813
 2589POPC   C4B34198   6.549  27.951   7.383
 2590POPC   NC334199  33.371  36.347   9.505
 2590POPC   PO434200  32.717  36.073   9.500
 2590POPC   GL134201  33.084  35.994   9.188
 2590POPC   GL234202  32.854  35.739   9.052
 2590POPC   C1A34203  33.209  35.935   8.731
 2590POPC   D2A34204  32.922  35.859   8.358
 2590POPC   C3A34205  33.116  35.835   7.942
 2590POPC   C4A34206  33.382  36.124   7.694
 2590POPC   C1B34207  32.795  36.192   8.826
 2590POPC   C2B34208  32.994  36.372   8.441
 2590POPC   C3B34209  32.903  36.304   8.001
 2590POPC   C4B34210  32.960  36.351   7.547
 2591POPC   NC334211   4.504  42.255   9.531
 2591POPC   PO434212   3.924  42.618   9.569
 2591POPC   GL134213   4.238  42.527   9.201
 2591POPC   GL234214   4.631  42.509   9.110
 2591POPC   C1A34215   4.290  42.307   8.805
 2591POPC   D2A34216   4.145  42.323   8.391
 2591POPC   C3A34217   4.144  42.519   8.026
 2591POPC   C4A34218   4.195  42.229   7.705
 2591POPC   C1B34219   4.764  42.503   8.715
 2591POPC   C2B34220   4.672  42.219   8.442
 2591POPC   C3B34221   4.568  42.223   8.058
 2591POPC   C4B34222   4.642  42.637   7.910
 2592POPC   NC334223   7.816   4.414   9.529
 2592POPC   PO434224   7.304   3.989   9.480
 2592POPC   GL134225   7.456   4.348   9.192
 2592POPC   GL234226   7.222   4.178   8.984
 2592POPC   C1A34227   7.457   4.573   8.788
 2592POPC   D2A34228   7.614   4.496   8.376
 2592POPC   C3A34229   7.330   4.586   8.044
 2592POPC   C4A34230   7.312   4.640   7.589
 2592POPC   C1B34231   7.681   4.096   8.847
 2592POPC   C2B34232   7.754   3.973   8.461
 2592POPC   C3B34233   7.442   4.027   8.177
 2592POPC   C4B34234   7.501   4.187   7.782
 2593POPC   NC334235   8.171   0.587   9.872
 2593POPC   PO434236   7.897   0.401   9.304
 2593POPC   GL134237   8.110   0.561   8.970
 2593POPC   GL234238   8.389   0.494   9.132
 2593POPC   C1A34239   8.365   0.710   8.636
 2593POPC   D2A34240   8.097   0.389   8.463
 2593POPC   C3A34241   8.099   0.357   8.038
 2593POPC   C4A34242   8.414   0.595   7.838
 2593POPC   C1B34243   8.529   0.254   8.757
 2593POPC   C2B34244   8.581   0.279   8.278
 2593POPC   C3B34245   8.502   0.084   7.844
 2593POPC   C4B34246   8.479   0.313   7.417
 2594POPC   NC334247   5.627   3.317   9.550
 2594POPC   PO434248   5.815   3.840   9.713
 2594POPC   GL134249   5.815   3.685   9.251
 2594POPC   GL234250   5.549   3.794   9.033
 2594POPC   C1A34251   5.965   3.523   8.834
 2594POPC   D2A34252   6.303   3.571   8.522
 2594POPC   C3A34253   6.243   3.603   8.079
 2594POPC   C4A34254   6.155   3.576   7.648
 2594POPC   C1B34255   5.667   3.925   8.650
 2594POPC   C2B34256   5.821   3.661   8.341
 2594POPC   C3B34257   5.721   3.539   7.909
 2594POPC   C4B34258   5.673   3.570   7.449
 2595POPC   NC334259   0.190  37.347   9.402
 2595POPC   PO434260  44.578  37.679   9.528
 2595POPC   GL134261  44.612  37.848   9.158
 2595POPC   GL234262  44.925  37.771   9.062
 2595POPC   C1A34263  44.441  37.731   8.770
 2595POPC   D2A34264  44.417  37.925   8.402
 2595POPC   C3A34265  44.304  37.769   8.044
 2595POPC   C4A34266  44.383  37.818   7.615
 2595POPC   C1B34267  44.832  38.033   8.705
 2595POPC   C2B34268  44.916  37.881   8.314
 2595POPC   C3B34269  44.764  37.970   7.936
 2595POPC   C4B34270  44.881  37.737   7.569
 2596POPC   NC334271   9.402  26.492   9.435
 2596POPC   PO434272   9.932  26.909   9.577
 2596POPC   GL134273   9.781  26.749   9.160
 2596POPC   GL234274   9.466  26.884   9.115
 2596POPC   C1A34275   9.935  26.665   8.709
 2596POPC   D2A34276   9.784  26.457   8.290
 2596POPC   C3A34277   9.852  26.718   7.906
 2596POPC   C4A34278   9.935  27.169   7.824
 2596POPC   C1B34279   9.345  26.775   8.739
 2596POPC   C2B34280   9.571  26.903   8.415
 2596POPC   C3B34281   9.388  26.766   8.083
 2596POPC   C4B34282   9.344  26.837   7.675
 2597POPC   NC334283  15.458  19.136   9.366
 2597POPC   PO434284  16.145  19.060   9.381
 2597POPC   GL134285  15.898  19.183   9.073
 2597POPC   GL234286  15.738  18.860   9.061
 2597POPC   C1A34287  15.993  19.088   8.663
 2597POPC   D2A34288  15.792  18.970   8.333
 2597POPC   C3A34289  16.014  18.967   8.033
 2597POPC   C4A34290  16.079  19.217   7.714
 2597POPC   C1B34291  15.677  18.659   8.710
 2597POPC   C2B34292  15.426  18.622   8.355
 2597POPC   C3B34293  15.616  18.624   7.955
 2597POPC   C4B34294  15.863  18.747   7.604
 2598POPC   NC334295  40.302  18.226   9.488
 2598POPC   PO434296  39.621  18.056   9.510
 2598POPC   GL134297  39.774  18.384   9.160
 2598POPC   GL234298  40.132  18.434   9.073
 2598POPC   C1A34299  39.805  18.299   8.715
 2598POPC   D2A34300  39.755  18.200   8.307
 2598POPC   C3A34301  40.097  17.978   8.118
 2598POPC   C4A34302  39.890  18.025   7.728
 2598POPC   C1B34303  40.179  18.680   8.738
 2598POPC   C2B34304  40.099  18.583   8.332
 2598POPC   C3B34305  40.091  18.444   7.941
 2598POPC   C4B34306  40.432  18.200   7.807
 2599POPC   NC334307  16.196  12.901   9.487
 2599POPC   PO434308  15.506  12.682   9.578
 2599POPC   GL134309  15.723  12.824   9.188
 2599POPC   GL234310  15.605  12.594   8.972
 2599POPC   C1A34311  16.035  13.006   8.870
 2599POPC   D2A34312  16.256  12.926   8.466
 2599POPC   C3A34313  16.060  13.028   8.083
 2599POPC   C4A34314  15.926  13.101   7.659
 2599POPC   C1B34315  15.924  12.575   8.615
 2599POPC   C2B34316  16.038  12.509   8.183
 2599POPC   C3B34317  15.765  12.657   7.835
 2599POPC   C4B34318  15.569  12.775   7.441
 2600POPC   NC334319  43.335  35.881   9.343
 2600POPC   PO434320  42.778  36.235   9.393
 2600POPC   GL134321  43.065  36.287   9.117
 2600POPC   GL234322  42.995  35.975   8.951
 2600POPC   C1A34323  43.269  36.372   8.742
 2600POPC   D2A34324  43.271  36.225   8.303
 2600POPC   C3A34325  43.173  36.392   7.877
 2600POPC   C4A34326  43.312  36.222   7.473
 2600POPC   C1B34327  42.787  36.256   8.637
 2600POPC   C2B34328  42.760  36.158   8.242
 2600POPC   C3B34329  42.981  35.909   7.957
 2600POPC   C4B34330  42.810  36.130   7.632
 2601POPC   NC334331  21.075  19.486   9.495
 2601POPC   PO434332  21.381  20.029   9.444
 2601POPC   GL134333  21.220  19.829   9.099
 2601POPC   GL234334  21.442  19.566   9.099
 2601POPC   C1A34335  21.372  19.941   8.686
 2601POPC   D2A34336  21.258  19.795   8.284
 2601POPC   C3A34337  21.396  20.001   7.930
 2601POPC   C4A34338  21.067  20.216   7.818
 2601POPC   C1B34339  21.471  19.429   8.665
 2601POPC   C2B34340  21.276  19.277   8.264
 2601POPC   C3B34341  21.420  19.484   7.892
 2601POPC   C4B34342  21.808  19.690   7.865
 2602POPC   NC334343   1.581  44.911   9.631
 2602POPC   PO434344   1.050  44.479   9.465
 2602POPC   GL134345   1.142  44.568   9.085
 2602POPC   GL234346   1.440  44.465   9.076
 2602POPC   C1A34347   1.172  44.783   8.713
 2602POPC   D2A34348   1.371  44.772   8.325
 2602POPC   C3A34349   1.050  44.906   8.052
 2602POPC   C4A34350   0.813  44.977   7.680
 2602POPC   C1B34351   1.369  44.288   8.669
 2602POPC   C2B34352   1.407  44.234   8.227
 2602POPC   C3B34353   1.244  44.463   7.886
 2602POPC   C4B34354   1.329  44.828   7.603
 2603POPC   NC334355  43.603   7.035   9.494
 2603POPC   PO434356  43.914   7.645   9.549
 2603POPC   GL134357  43.872   7.373   9.209
 2603POPC   GL234358  43.563   7.451   9.222
 2603POPC   C1A34359  43.859   7.295   8.761
 2603POPC   D2A34360  44.086   7.434   8.371
 2603POPC   C3A34361  44.039   7.112   8.072
 2603POPC   C4A34362  43.717   7.063   7.799
 2603POPC   C1B34363  43.523   7.655   8.874
 2603POPC   C2B34364  43.623   7.619   8.443
 2603POPC   C3B34365  43.699   7.524   8.029
 2603POPC   C4B34366  43.581   7.513   7.587
 2604POPC   NC334367  13.502  43.483   9.196
 2604POPC   PO434368  13.532  42.936   9.573
 2604POPC   GL134369  13.581  42.855   9.171
 2604POPC   GL234370  13.215  42.800   9.162
 2604POPC   C1A34371  13.806  43.012   8.807
 2604POPC   D2A34372  13.648  43.115   8.417
 2604POPC   C3A34373  13.906  43.183   8.079
 2604POPC   C4A34374  13.726  43.222   7.706
 2604POPC   C1B34375  13.318  42.871   8.748
 2604POPC   C2B34376  13.506  42.635   8.431
 2604POPC   C3B34377  13.525  42.807   8.011
 2604POPC   C4B34378  13.184  42.827   7.749
 2605POPC   NC334379   2.123  24.115   9.644
 2605POPC   PO434380   1.942  23.528   9.601
 2605POPC   GL134381   1.978  23.670   9.153
 2605POPC   GL234382   1.722  23.915   9.043
 2605POPC   C1A34383   2.130  23.840   8.719
 2605POPC   D2A34384   2.179  24.026   8.294
 2605POPC   C3A34385   1.998  23.795   7.938
 2605POPC   C4A34386   2.049  23.358   7.842
 2605POPC   C1B34387   1.674  23.576   8.738
 2605POPC   C2B34388   1.716  23.546   8.293
 2605POPC   C3B34389   1.555  23.431   7.888
 2605POPC   C4B34390   1.689  23.386   7.471
 2606POPC   NC334391  40.297  36.569   9.374
 2606POPC   PO434392  40.055  35.927   9.477
 2606POPC   GL134393  39.898  35.895   9.087
 2606POPC   GL234394  39.879  36.236   9.069
 2606POPC   C1A34395  40.043  35.952   8.667
 2606POPC   D2A34396  39.882  35.756   8.293
 2606POPC   C3A34397  40.042  35.989   7.954
 2606POPC   C4A34398  39.889  36.279   7.664
 2606POPC   C1B34399  40.011  36.498   8.781
 2606POPC   C2B34400  40.167  36.699   8.457
 2606POPC   C3B34401  40.096  36.541   8.064
 2606POPC   C4B34402  40.317  36.579   7.699
 2607POPC   NC334403   8.719  44.292   9.432
 2607POPC   PO434404   9.063  44.960   9.418
 2607POPC   GL134405   8.899  44.896   9.022
 2607POPC   GL234406   8.633  44.656   9.069
 2607POPC   C1A34407   8.765  44.829   8.600
 2607POPC   D2A34408   8.823  44.557   8.286
 2607POPC   C3A34409   8.988  44.770   7.918
 2607POPC   C4A34410   9.301   0.029   7.706
 2607POPC   C1B34411   8.515  44.362   8.768
 2607POPC   C2B34412   8.343  44.385   8.356
 2607POPC   C3B34413   8.426  44.568   7.959
 2607POPC   C4B34414   8.646  44.531   7.632
 2608POPC   NC334415  44.669   0.902   9.581
 2608POPC   PO434416  44.934   1.588   9.444
 2608POPC   GL134417  44.765   1.237   9.192
 2608POPC   GL234418  44.960   0.925   9.176
 2608POPC   C1A34419  44.562   1.240   8.788
 2608POPC   D2A34420  44.686   1.500   8.430
 2608POPC   C3A34421  44.421   1.539   8.069
 2608POPC   C4A34422  44.543   1.232   7.770
 2608POPC   C1B34423  44.770   0.768   8.816
 2608POPC   C2B34424  44.642   0.905   8.395
 2608POPC   C3B34425  44.579   0.755   7.984
 2608POPC   C4B34426  44.814   0.803   7.610
 2609POPC   NC334427  13.788  20.094   9.442
 2609POPC   PO434428  13.427  19.545   9.422
 2609POPC   GL134429  13.660  19.703   9.110
 2609POPC   GL234430  13.970  19.622   9.289
 2609POPC   C1A34431  13.745  19.978   8.756
 2609POPC   D2A34432  13.969  20.069   8.380
 2609POPC   C3A34433  13.756  20.183   8.020
 2609POPC   C4A34434  13.578  19.929   7.752
 2609POPC   C1B34435  14.119  19.631   8.880
 2609POPC   C2B34436  13.972  19.565   8.482
 2609POPC   C3B34437  13.949  19.658   8.038
 2609POPC   C4B34438  14.207  19.570   7.720
 2610POPC   NC334439  39.701  19.161   9.480
 2610POPC   PO434440  40.233  18.717   9.477
 2610POPC   GL134441  40.093  18.980   9.164
 2610POPC   GL234442  40.331  19.196   9.078
 2610POPC   C1A34443  39.780  18.987   8.819
 2610POPC   D2A34444  39.629  18.736   8.452
 2610POPC   C3A34445  39.779  18.894   8.044
 2610POPC   C4A34446  39.992  18.860   7.661
 2610POPC   C1B34447  40.253  19.317   8.694
 2610POPC   C2B34448  40.187  19.411   8.262
 2610POPC   C3B34449  40.199  19.285   7.821
 2610POPC   C4B34450  40.308  19.161   7.366
 2611POPC   NC334451  12.414  33.995   9.461
 2611POPC   PO434452  13.111  33.860   9.568
 2611POPC   GL134453  12.861  33.906   9.208
 2611POPC   GL234454  12.640  33.625   9.143
 2611POPC   C1A34455  12.764  33.994   8.773
 2611POPC   D2A34456  12.617  34.021   8.356
 2611POPC   C3A34457  12.761  33.741   8.044
 2611POPC   C4A34458  12.810  33.907   7.671
 2611POPC   C1B34459  12.718  33.426   8.774
 2611POPC   C2B34460  12.493  33.531   8.417
 2611POPC   C3B34461  12.345  33.436   8.005
 2611POPC   C4B34462  12.385  33.633   7.577
 2612POPC   NC334463  24.386  21.923   9.443
 2612POPC   PO434464  24.760  22.538   9.531
 2612POPC   GL134465  24.551  22.341   9.161
 2612POPC   GL234466  24.668  21.978   9.050
 2612POPC   C1A34467  24.535  22.325   8.707
 2612POPC   D2A34468  24.235  22.336   8.387
 2612POPC   C3A34469  24.461  22.306   8.032
 2612POPC   C4A34470  24.330  22.201   7.662
 2612POPC   C1B34471  24.585  21.805   8.679
 2612POPC   C2B34472  24.664  21.913   8.302
 2612POPC   C3B34473  24.457  21.799   7.941
 2612POPC   C4B34474  24.560  21.735   7.564
 2613POPC   NC334475  44.538  30.418   9.383
 2613POPC   PO434476  44.352  31.078   9.288
 2613POPC   GL134477  44.539  30.822   8.970
 2613POPC   GL234478  44.838  30.605   8.962
 2613POPC   C1A34479  44.409  30.477   8.711
 2613POPC   D2A34480  44.348  30.275   8.316
 2613POPC   C3A34481  44.389  30.614   8.003
 2613POPC   C4A34482  44.409  31.070   8.092
 2613POPC   C1B34483  44.996  30.938   8.686
 2613POPC   C2B34484  44.915  31.131   8.260
 2613POPC   C3B34485  44.824  31.021   7.807
 2613POPC   C4B34486  44.885  30.614   7.622
 2614POPC   NC334487  19.679  21.524   9.382
 2614POPC   PO434488  20.321  21.375   9.487
 2614POPC   GL134489  20.132  21.524   9.122
 2614POPC   GL234490  20.014  21.218   8.960
 2614POPC   C1A34491  20.000  21.694   8.738
 2614POPC   D2A34492  19.956  21.420   8.391
 2614POPC   C3A34493  19.981  21.541   7.995
 2614POPC   C4A34494  19.798  21.760   7.674
 2614POPC   C1B34495  19.593  21.369   8.740
 2614POPC   C2B34496  19.448  21.489   8.308
 2614POPC   C3B34497  19.482  21.385   7.867
 2614POPC   C4B34498  19.440  21.415   7.405
 2615POPC   NC334499  19.612  11.133   9.751
 2615POPC   PO434500  19.356  11.526   9.293
 2615POPC   GL134501  19.718  11.378   9.044
 2615POPC   GL234502  20.016  11.197   9.165
 2615POPC   C1A34503  19.866  11.324   8.612
 2615POPC   D2A34504  19.682  11.168   8.260
 2615POPC   C3A34505  19.745  11.348   7.868
 2615POPC   C4A34506  19.834  11.217   7.461
 2615POPC   C1B34507  20.168  11.580   8.912
 2615POPC   C2B34508  20.122  11.747   8.494
 2615POPC   C3B34509  20.172  11.550   8.076
 2615POPC   C4B34510  20.247  11.525   7.634
 2616POPC   NC334511  35.485  13.222   9.347
 2616POPC   PO434512  34.934  12.777   9.461
 2616POPC   GL134513  35.185  12.835   9.124
 2616POPC   GL234514  35.095  13.179   9.036
 2616POPC   C1A34515  35.382  12.560   8.816
 2616POPC   D2A34516  35.580  12.371   8.455
 2616POPC   C3A34517  35.519  12.614   8.082
 2616POPC   C4A34518  35.318  12.651   7.663
 2616POPC   C1B34519  35.392  13.076   8.710
 2616POPC   C2B34520  35.473  13.080   8.292
 2616POPC   C3B34521  35.415  13.133   7.871
 2616POPC   C4B34522  35.647  13.168   7.523
 2617POPC   NC334523  16.009  30.738   9.818
 2617POPC   PO434524  15.490  30.969   9.391
 2617POPC   GL134525  15.680  30.764   9.018
 2617POPC   GL234526  15.778  30.426   9.126
 2617POPC   C1A34527  15.959  30.911   8.694
 2617POPC   D2A34528  16.010  31.123   8.328
 2617POPC   C3A34529  15.989  30.929   7.940
 2617POPC   C4A34530  16.346  30.760   7.814
 2617POPC   C1B34531  15.918  30.408   8.721
 2617POPC   C2B34532  15.831  30.555   8.317
 2617POPC   C3B34533  16.014  30.390   7.962
 2617POPC   C4B34534  15.968  30.403   7.562
 2618POPC   NC334535   8.289   1.810   9.496
 2618POPC   PO434536   8.930   1.888   9.354
 2618POPC   GL134537   8.577   1.819   9.059
 2618POPC   GL234538   8.257   2.042   9.065
 2618POPC   C1A34539   8.462   1.923   8.635
 2618POPC   D2A34540   8.259   1.816   8.310
 2618POPC   C3A34541   8.382   2.042   7.989
 2618POPC   C4A34542   8.695   1.871   7.787
 2618POPC   C1B34543   8.008   2.214   8.764
 2618POPC   C2B34544   8.097   2.296   8.349
 2618POPC   C3B34545   7.883   2.152   7.976
 2618POPC   C4B34546   8.084   2.451   7.750
 2619POPC   NC334547   8.597   6.826   9.255
 2619POPC   PO434548   8.199   6.434   9.652
 2619POPC   GL134549   8.190   6.479   9.223
 2619POPC   GL234550   8.080   6.783   9.127
 2619POPC   C1A34551   8.035   6.420   8.787
 2619POPC   D2A34552   7.804   6.603   8.426
 2619POPC   C3A34553   7.960   6.444   8.041
 2619POPC   C4A34554   8.216   6.459   7.693
 2619POPC   C1B34555   8.037   6.964   8.723
 2619POPC   C2B34556   8.095   7.066   8.292
 2619POPC   C3B34557   8.103   6.978   7.861
 2619POPC   C4B34558   8.119   7.071   7.419
 2620POPC   NC334559  33.433  10.357   9.402
 2620POPC   PO434560  34.114  10.283   9.375
 2620POPC   GL134561  33.862  10.382   9.064
 2620POPC   GL234562  33.797  10.751   9.011
 2620POPC   C1A34563  33.980  10.411   8.655
 2620POPC   D2A34564  33.915  10.723   8.356
 2620POPC   C3A34565  34.053  10.555   7.959
 2620POPC   C4A34566  33.861  10.237   7.663
 2620POPC   C1B34567  33.523  10.950   8.655
 2620POPC   C2B34568  33.414  10.889   8.252
 2620POPC   C3B34569  33.718  10.950   7.941
 2620POPC   C4B34570  33.780  10.744   7.544
 2621POPC   NC334571  38.000  20.580   9.515
 2621POPC   PO434572  38.716  20.429   9.335
 2621POPC   GL134573  38.355  20.629   9.160
 2621POPC   GL234574  38.223  20.330   9.079
 2621POPC   C1A34575  38.209  20.819   8.785
 2621POPC   D2A34576  38.508  20.864   8.443
 2621POPC   C3A34577  38.357  20.791   8.006
 2621POPC   C4A34578  38.445  20.749   7.553
 2621POPC   C1B34579  38.521  20.405   8.711
 2621POPC   C2B34580  38.593  20.372   8.280
 2621POPC   C3B34581  38.552  20.342   7.835
 2621POPC   C4B34582  38.369  20.252   7.394
 2622POPC   NC334583  15.294   6.806   9.566
 2622POPC   PO434584  15.741   7.203   9.376
 2622POPC   GL134585  15.539   6.856   9.113
 2622POPC   GL234586  15.345   6.512   9.151
 2622POPC   C1A34587  15.170   6.906   8.834
 2622POPC   D2A34588  14.934   6.761   8.466
 2622POPC   C3A34589  15.118   6.847   8.061
 2622POPC   C4A34590  14.977   6.722   7.664
 2622POPC   C1B34591  15.465   6.267   8.788
 2622POPC   C2B34592  15.396   6.480   8.404
 2622POPC   C3B34593  15.288   6.383   7.978
 2622POPC   C4B34594  15.525   6.303   7.654
 2623POPC   NC334595  19.911   1.668   9.444
 2623POPC   PO434596  19.483   1.197   9.399
 2623POPC   GL134597  19.685   1.230   8.990
 2623POPC   GL234598  19.648   1.590   9.011
 2623POPC   C1A34599  20.006   1.019   8.661
 2623POPC   D2A34600  20.152   0.938   8.204
 2623POPC   C3A34601  19.831   0.970   7.820
 2623POPC   C4A34602  19.447   1.060   7.533
 2623POPC   C1B34603  20.037   1.530   8.777
 2623POPC   C2B34604  20.037   1.429   8.363
 2623POPC   C3B34605  20.063   1.383   7.974
 2623POPC   C4B34606  20.283   1.383   7.652
 2624POPC   NC334607  27.168  17.406   9.434
 2624POPC   PO434608  26.518  17.482   9.518
 2624POPC   GL134609  26.755  17.533   9.147
 2624POPC   GL234610  26.851  17.227   9.084
 2624POPC   C1A34611  26.833  17.677   8.726
 2624POPC   D2A34612  26.769  17.416   8.346
 2624POPC   C3A34613  26.767  17.640   7.989
 2624POPC   C4A34614  26.701  17.744   7.591
 2624POPC   C1B34615  27.071  17.226   8.714
 2624POPC   C2B34616  27.279  17.209   8.328
 2624POPC   C3B34617  27.241  17.476   7.997
 2624POPC   C4B34618  27.243  17.294   7.610
 2625POPC   NC334619  10.736   2.130   9.277
 2625POPC   PO434620  10.357   1.689   9.544
 2625POPC   GL134621  10.441   1.752   9.116
 2625POPC   GL234622  10.771   1.618   9.176
 2625POPC   C1A34623  10.297   2.061   8.772
 2625POPC   D2A34624  10.460   2.332   8.431
 2625POPC   C3A34625  10.459   2.076   8.081
 2625POPC   C4A34626  10.394   1.964   7.683
 2625POPC   C1B34627  10.934   1.709   8.777
 2625POPC   C2B34628  10.773   1.784   8.378
 2625POPC   C3B34629  10.845   1.702   7.943
 2625POPC   C4B34630  10.678   1.574   7.540
 2626POPC   NC334631  17.885   8.026   9.568
 2626POPC   PO434632  17.380   8.414   9.410
 2626POPC   GL134633  17.536   8.157   9.158
 2626POPC   GL234634  17.510   7.812   9.277
 2626POPC   C1A34635  17.666   8.279   8.758
 2626POPC   D2A34636  17.540   8.429   8.352
 2626POPC   C3A34637  17.694   8.252   7.955
 2626POPC   C4A34638  17.523   8.260   7.547
 2626POPC   C1B34639  17.597   7.790   8.829
 2626POPC   C2B34640  17.381   7.947   8.449
 2626POPC   C3B34641  17.337   7.887   8.020
 2626POPC   C4B34642  17.682   7.793   7.732
 2627POPC   NC334643   1.653  33.316   9.358
 2627POPC   PO434644   1.688  32.643   9.436
 2627POPC   GL134645   1.815  32.906   9.093
 2627POPC   GL234646   2.171  32.917   9.136
 2627POPC   C1A34647   1.700  33.119   8.692
 2627POPC   D2A34648   1.662  32.914   8.284
 2627POPC   C3A34649   1.695  33.150   7.931
 2627POPC   C4A34650   1.826  33.234   7.485
 2627POPC   C1B34651   2.215  33.135   8.737
 2627POPC   C2B34652   2.074  33.237   8.322
 2627POPC   C3B34653   2.193  33.092   7.918
 2627POPC   C4B34654   2.353  33.123   7.509
 2628POPC   NC334655  24.816   3.632   9.473
 2628POPC   PO434656  24.203   3.660   9.669
 2628POPC   GL134657  24.356   3.734   9.262
 2628POPC   GL234658  24.435   3.398   9.204
 2628POPC   C1A34659  24.229   3.695   8.841
 2628POPC   D2A34660  24.430   3.593   8.455
 2628POPC   C3A34661  24.272   3.690   8.079
 2628POPC   C4A34662  24.374   3.470   7.740
 2628POPC   C1B34663  24.705   3.427   8.849
 2628POPC   C2B34664  24.943   3.414   8.459
 2628POPC   C3B34665  24.766   3.412   8.073
 2628POPC   C4B34666  24.859   3.348   7.663
 2629POPC   NC334667   0.872  18.535   9.505
 2629POPC   PO434668   1.175  19.157   9.496
 2629POPC   GL134669   1.133  19.014   9.100
 2629POPC   GL234670   0.894  19.277   9.034
 2629POPC   C1A34671   1.332  19.056   8.706
 2629POPC   D2A34672   1.521  19.224   8.314
 2629POPC   C3A34673   1.355  19.114   7.883
 2629POPC   C4A34674   1.206  18.787   7.580
 2629POPC   C1B34675   0.827  19.150   8.659
 2629POPC   C2B34676   0.988  19.285   8.294
 2629POPC   C3B34677   0.799  19.439   7.943
 2629POPC   C4B34678   0.915  19.269   7.586
 2630POPC   NC334679  14.928  10.468   9.303
 2630POPC   PO434680  14.272  10.292   9.412
 2630POPC   GL134681  14.397  10.579   9.100
 2630POPC   GL234682  14.184  10.872   9.043
 2630POPC   C1A34683  14.439  10.385   8.693
 2630POPC   D2A34684  14.210  10.300   8.303
 2630POPC   C3A34685  14.340  10.509   7.926
 2630POPC   C4A34686  14.682  10.755   7.802
 2630POPC   C1B34687  14.437  10.892   8.664
 2630POPC   C2B34688  14.394  10.933   8.229
 2630POPC   C3B34689  14.241  11.035   7.843
 2630POPC   C4B34690  13.926  10.806   7.675
 2631POPC   NC334691   2.193  26.564   9.537
 2631POPC   PO434692   1.626  26.849   9.441
 2631POPC   GL134693   2.000  26.866   9.159
 2631POPC   GL234694   2.045  26.545   9.071
 2631POPC   C1A34695   2.166  26.928   8.729
 2631POPC   D2A34696   1.946  27.153   8.387
 2631POPC   C3A34697   1.936  27.056   7.945
 2631POPC   C4A34698   1.578  27.185   7.697
 2631POPC   C1B34699   1.939  26.417   8.689
 2631POPC   C2B34700   2.044  26.601   8.309
 2631POPC   C3B34701   1.895  26.495   7.926
 2631POPC   C4B34702   2.112  26.666   7.650
 2632POPC   NC334703  35.317  38.729   9.420
 2632POPC   PO434704  35.158  39.442   9.397
 2632POPC   GL134705  35.129  39.104   9.098
 2632POPC   GL234706  35.454  39.045   9.034
 2632POPC   C1A34707  35.184  39.082   8.631
 2632POPC   D2A34708  35.386  39.447   8.439
 2632POPC   C3A34709  35.196  39.624   8.064
 2632POPC   C4A34710  35.090  39.375   7.690
 2632POPC   C1B34711  35.640  38.834   8.644
 2632POPC   C2B34712  35.626  38.995   8.293
 2632POPC   C3B34713  35.366  39.136   8.029
 2632POPC   C4B34714  35.586  39.298   7.697
 2633POPC   NC334715  14.115  22.253   9.759
 2633POPC   PO434716  14.650  21.896   9.529
 2633POPC   GL134717  14.312  22.106   9.303
 2633POPC   GL234718  14.117  21.789   9.307
 2633POPC   C1A34719  14.215  22.323   8.886
 2633POPC   D2A34720  14.395  22.266   8.473
 2633POPC   C3A34721  14.502  22.404   8.071
 2633POPC   C4A34722  14.596  22.138   7.725
 2633POPC   C1B34723  14.364  21.812   8.900
 2633POPC   C2B34724  14.264  21.775   8.463
 2633POPC   C3B34725  14.280  21.945   8.088
 2633POPC   C4B34726  14.110  21.809   7.733
 2634POPC   NC334727  43.388   9.660   9.514
 2634POPC   PO434728  42.652   9.636   9.509
 2634POPC   GL134729  42.909   9.813   9.197
 2634POPC   GL234730  43.061   9.505   9.161
 2634POPC   C1A34731  42.970   9.803   8.732
 2634POPC   D2A34732  42.807   9.907   8.333
 2634POPC   C3A34733  43.077   9.880   7.983
 2634POPC   C4A34734  43.022  10.029   7.549
 2634POPC   C1B34735  43.132   9.321   8.780
 2634POPC   C2B34736  43.159   9.479   8.360
 2634POPC   C3B34737  43.195   9.301   7.959
 2634POPC   C4B34738  43.174   9.532   7.593
 2635POPC   NC334739  22.118  25.843   9.488
 2635POPC   PO434740  21.786  26.314   9.279
 2635POPC   GL134741  21.945  25.960   9.041
 2635POPC   GL234742  22.284  26.022   9.042
 2635POPC   C1A34743  21.965  25.961   8.637
 2635POPC   D2A34744  21.772  26.260   8.388
 2635POPC   C3A34745  21.916  26.108   7.986
 2635POPC   C4A34746  21.870  26.228   7.569
 2635POPC   C1B34747  22.448  26.224   8.673
 2635POPC   C2B34748  22.439  26.269   8.207
 2635POPC   C3B34749  22.410  26.157   7.776
 2635POPC   C4B34750  22.266  25.715   7.795
 2636POPC   NC334751  17.040  26.383   9.321
 2636POPC   PO434752  17.280  26.976   9.416
 2636POPC   GL134753  17.682  26.899   9.155
 2636POPC   GL234754  17.878  26.546   9.103
 2636POPC   C1A34755  17.762  26.906   8.703
 2636POPC   D2A34756  17.389  26.808   8.421
 2636POPC   C3A34757  17.361  26.970   8.010
 2636POPC   C4A34758  17.763  26.927   7.779
 2636POPC   C1B34759  17.532  26.482   8.848
 2636POPC   C2B34760  17.692  26.400   8.445
 2636POPC   C3B34761  17.564  26.489   8.038
 2636POPC   C4B34762  17.828  26.411   7.730
 2637POPC   NC334763  24.745  30.711   9.496
 2637POPC   PO434764  25.449  30.812   9.518
 2637POPC   GL134765  25.430  30.592   9.132
 2637POPC   GL234766  25.134  30.702   8.982
 2637POPC   C1A34767  25.416  30.269   8.840
 2637POPC   D2A34768  25.569  30.226   8.470
 2637POPC   C3A34769  25.299  30.384   8.117
 2637POPC   C4A34770  25.503  30.361   7.737
 2637POPC   C1B34771  25.476  30.746   8.640
 2637POPC   C2B34772  25.328  30.919   8.247
 2637POPC   C3B34773  25.296  30.913   7.799
 2637POPC   C4B34774  25.338  30.989   7.336
 2638POPC   NC334775   9.125  19.588   9.325
 2638POPC   PO434776   9.239  18.912   9.423
 2638POPC   GL134777   8.941  18.930   9.074
 2638POPC   GL234778   8.864  19.276   9.033
 2638POPC   C1A34779   8.954  19.011   8.620
 2638POPC   D2A34780   8.738  19.118   8.254
 2638POPC   C3A34781   9.029  19.080   7.886
 2638POPC   C4A34782   9.269  18.706   7.716
 2638POPC   C1B34783   8.676  19.465   8.672
 2638POPC   C2B34784   8.670  19.622   8.255
 2638POPC   C3B34785   8.630  19.423   7.866
 2638POPC   C4B34786   8.843  19.361   7.488
 2639POPC   NC334787  28.786   1.884   9.532
 2639POPC   PO434788  28.148   2.256   9.495
 2639POPC   GL134789  28.210   2.070   9.105
 2639POPC   GL234790  28.481   1.880   9.118
 2639POPC   C1A34791  28.262   2.037   8.652
 2639POPC   D2A34792  28.238   1.807   8.267
 2639POPC   C3A34793  28.345   2.108   7.914
 2639POPC   C4A34794  28.146   2.094   7.444
 2639POPC   C1B34795  28.627   1.660   8.759
 2639POPC   C2B34796  28.736   1.801   8.345
 2639POPC   C3B34797  28.699   1.721   7.907
 2639POPC   C4B34798  28.466   1.710   7.514
 2640POPC   NC334799  21.851  13.710   9.348
 2640POPC   PO434800  22.538  13.852   9.396
 2640POPC   GL134801  22.300  13.856   9.023
 2640POPC   GL234802  22.161  13.602   8.981
 2640POPC   C1A34803  22.228  13.890   8.557
 2640POPC   D2A34804  22.450  13.912   8.157
 2640POPC   C3A34805  22.230  13.961   7.795
 2640POPC   C4A34806  21.770  13.926   7.690
 2640POPC   C1B34807  21.870  13.356   8.787
 2640POPC   C2B34808  21.837  13.570   8.435
 2640POPC   C3B34809  21.999  13.562   8.026
 2640POPC   C4B34810  22.130  13.508   7.607
 2641POPC   NC334811   7.486  15.299   9.694
 2641POPC   PO434812   6.876  15.324   9.576
 2641POPC   GL134813   7.191  15.532   9.303
 2641POPC   GL234814   7.560  15.462   9.219
 2641POPC   C1A34815   7.185  15.491   8.858
 2641POPC   D2A34816   7.181  15.180   8.516
 2641POPC   C3A34817   7.163  15.340   8.086
 2641POPC   C4A34818   7.436  15.350   7.735
 2641POPC   C1B34819   7.621  15.200   8.840
 2641POPC   C2B34820   7.727  15.257   8.402
 2641POPC   C3B34821   7.786  15.117   8.000
 2641POPC   C4B34822   7.627  14.871   7.682
 2642POPC   NC334823  24.030  29.896   9.387
 2642POPC   PO434824  23.389  30.145   9.533
 2642POPC   GL134825  23.582  29.999   9.167
 2642POPC   GL234826  23.649  29.661   9.141
 2642POPC   C1A34827  23.815  30.040   8.799
 2642POPC   D2A34828  23.627  29.966   8.434
 2642POPC   C3A34829  23.829  30.001   8.058
 2642POPC   C4A34830  23.613  29.932   7.695
 2642POPC   C1B34831  23.757  29.529   8.728
 2642POPC   C2B34832  23.820  29.530   8.260
 2642POPC   C3B34833  23.819  29.488   7.809
 2642POPC   C4B34834  23.892  29.615   7.350
 2643POPC   NC334835  23.509  10.414   9.576
 2643POPC   PO434836  24.061  10.826   9.547
 2643POPC   GL134837  23.756  10.725   9.193
 2643POPC   GL234838  23.700  10.378   9.116
 2643POPC   C1A34839  23.591  10.893   8.794
 2643POPC   D2A34840  23.773  10.911   8.355
 2643POPC   C3A34841  23.656  10.728   7.924
 2643POPC   C4A34842  23.893  10.504   7.593
 2643POPC   C1B34843  23.848  10.465   8.725
 2643POPC   C2B34844  23.679  10.380   8.368
 2643POPC   C3B34845  23.785  10.239   8.035
 2643POPC   C4B34846  23.518  10.197   7.728
 2644POPC   NC334847  23.125  38.202   9.365
 2644POPC   PO434848  22.567  38.404   9.404
 2644POPC   GL134849  22.809  38.517   9.076
 2644POPC   GL234850  23.093  38.706   9.200
 2644POPC   C1A34851  22.905  38.277   8.694
 2644POPC   D2A34852  22.736  38.115   8.306
 2644POPC   C3A34853  22.978  38.293   7.997
 2644POPC   C4A34854  22.947  38.462   7.613
 2644POPC   C1B34855  23.126  38.758   8.740
 2644POPC   C2B34856  23.190  38.659   8.307
 2644POPC   C3B34857  23.286  38.733   7.866
 2644POPC   C4B34858  23.276  38.829   7.420
 2645POPC   NC334859  42.345  35.860   9.484
 2645POPC   PO434860  42.453  36.595   9.637
 2645POPC   GL134861  42.241  36.324   9.286
 2645POPC   GL234862  42.457  36.293   9.006
 2645POPC   C1A34863  42.019  36.144   8.863
 2645POPC   D2A34864  42.234  36.114   8.468
 2645POPC   C3A34865  42.022  35.975   8.089
 2645POPC   C4A34866  42.244  36.082   7.746
 2645POPC   C1B34867  42.502  35.863   8.843
 2645POPC   C2B34868  42.676  35.689   8.465
 2645POPC   C3B34869  42.493  35.779   8.080
 2645POPC   C4B34870  42.483  35.639   7.686
 2646POPC   NC334871  26.575  42.318   9.404
 2646POPC   PO434872  27.042  42.778   9.149
 2646POPC   GL134873  26.922  42.393   9.009
 2646POPC   GL234874  27.153  42.128   9.131
 2646POPC   C1A34875  26.645  42.212   8.680
 2646POPC   D2A34876  26.326  42.038   8.381
 2646POPC   C3A34877  26.396  42.223   7.977
 2646POPC   C4A34878  26.703  42.553   7.857
 2646POPC   C1B34879  27.187  42.111   8.657
 2646POPC   C2B34880  27.057  42.247   8.201
 2646POPC   C3B34881  26.951  42.104   7.756
 2646POPC   C4B34882  26.949  41.996   7.270
 2647POPC   NC334883   8.503   5.225   9.545
 2647POPC   PO434884   8.132   4.726   9.425
 2647POPC   GL134885   8.178   5.081   9.176
 2647POPC   GL234886   8.506   4.924   9.120
 2647POPC   C1A34887   8.104   5.358   8.825
 2647POPC   D2A34888   8.143   5.594   8.439
 2647POPC   C3A34889   8.071   5.388   8.059
 2647POPC   C4A34890   8.252   5.460   7.659
 2647POPC   C1B34891   8.336   4.890   8.728
 2647POPC   C2B34892   8.321   4.802   8.337
 2647POPC   C3B34893   8.341   4.971   7.970
 2647POPC   C4B34894   8.028   5.007   7.700
 2648POPC   NC334895   4.374  18.430   9.731
 2648POPC   PO434896   4.484  18.020   9.201
 2648POPC   GL134897   4.159  18.296   9.049
 2648POPC   GL234898   4.230  18.642   9.079
 2648POPC   C1A34899   3.988  18.051   8.742
 2648POPC   D2A34900   4.242  17.956   8.421
 2648POPC   C3A34901   4.106  18.144   8.058
 2648POPC   C4A34902   4.203  18.016   7.697
 2648POPC   C1B34903   4.296  18.478   8.608
 2648POPC   C2B34904   4.409  18.591   8.173
 2648POPC   C3B34905   4.319  18.600   7.718
 2648POPC   C4B34906   4.606  18.730   7.333
 2649POPC   NC334907  13.843  37.516   9.354
 2649POPC   PO434908  14.330  37.695   9.630
 2649POPC   GL134909  14.196  37.782   9.125
 2649POPC   GL234910  14.089  38.092   9.002
 2649POPC   C1A34911  14.211  37.739   8.639
 2649POPC   D2A34912  14.024  37.810   8.217
 2649POPC   C3A34913  14.264  37.721   7.886
 2649POPC   C4A34914  14.628  37.612   7.692
 2649POPC   C1B34915  14.401  38.219   8.721
 2649POPC   C2B34916  14.409  38.197   8.273
 2649POPC   C3B34917  14.635  38.073   7.922
 2649POPC   C4B34918  14.637  38.117   7.483
 2650POPC   NC334919  27.192  25.354   9.414
 2650POPC   PO434920  27.827  25.663   9.488
 2650POPC   GL134921  27.624  25.465   9.145
 2650POPC   GL234922  27.547  25.094   9.188
 2650POPC   C1A34923  27.323  25.459   8.802
 2650POPC   D2A34924  27.144  25.195   8.473
 2650POPC   C3A34925  27.422  25.242   8.140
 2650POPC   C4A34926  27.423  25.587   7.869
 2650POPC   C1B34927  27.517  24.996   8.750
 2650POPC   C2B34928  27.519  24.772   8.334
 2650POPC   C3B34929  27.468  24.798   7.879
 2650POPC   C4B34930  27.602  25.125   7.598
 2651POPC   NC334931  37.123  35.612   9.488
 2651POPC   PO434932  37.070  34.894   9.581
 2651POPC   GL134933  37.048  35.172   9.179
 2651POPC   GL234934  36.846  35.512   9.071
 2651POPC   C1A34935  37.154  35.254   8.750
 2651POPC   D2A34936  36.980  35.414   8.392
 2651POPC   C3A34937  37.126  35.278   7.995
 2651POPC   C4A34938  36.963  35.331   7.573
 2651POPC   C1B34939  36.662  35.717   8.675
 2651POPC   C2B34940  36.595  35.728   8.198
 2651POPC   C3B34941  36.719  35.721   7.741
 2651POPC   C4B34942  36.462  35.746   7.333
 2652POPC   NC334943  44.832  31.898   9.488
 2652POPC   PO434944  44.660  31.287   9.719
 2652POPC   GL134945  44.645  31.490   9.242
 2652POPC   GL234946  44.415  31.722   9.153
 2652POPC   C1A34947  44.665  31.345   8.775
 2652POPC   D2A34948  44.463  31.493   8.382
 2652POPC   C3A34949  44.680  31.502   7.957
 2652POPC   C4A34950  44.494  31.414   7.555
 2652POPC   C1B34951  44.713  31.844   8.785
 2652POPC   C2B34952  44.853  31.812   8.334
 2652POPC   C3B34953  44.887  32.020   7.948
 2652POPC   C4B34954  44.772  31.862   7.538
 2653POPC   NC334955  11.073  12.233   9.672
 2653POPC   PO434956  11.623  11.825   9.590
 2653POPC   GL134957  11.347  12.020   9.272
 2653POPC   GL234958  11.428  12.372   9.261
 2653POPC   C1A34959  11.227  12.035   8.820
 2653POPC   D2A34960  11.311  11.868   8.401
 2653POPC   C3A34961  11.193  12.044   8.024
 2653POPC   C4A34962  11.502  11.896   7.720
 2653POPC   C1B34963  11.568  12.473   8.858
 2653POPC   C2B34964  11.382  12.388   8.468
 2653POPC   C3B34965  11.250  12.551   8.090
 2653POPC   C4B34966  11.351  12.397   7.692
 2654POPC   NC334967  42.396  28.932   9.505
 2654POPC   PO434968  42.574  29.579   9.349
 2654POPC   GL134969  42.456  29.306   9.044
 2654POPC   GL234970  42.180  29.138   9.116
 2654POPC   C1A34971  42.377  29.119   8.652
 2654POPC   D2A34972  42.629  29.012   8.348
 2654POPC   C3A34973  42.559  29.191   7.967
 2654POPC   C4A34974  42.540  29.089   7.548
 2654POPC   C1B34975  42.004  28.837   8.840
 2654POPC   C2B34976  41.905  28.839   8.385
 2654POPC   C3B34977  41.920  29.095   7.993
 2654POPC   C4B34978  42.144  29.400   7.753
 2655POPC   NC334979  26.752  44.866   9.361
 2655POPC   PO434980  26.563  44.279   9.402
 2655POPC   GL134981  26.822  44.470   9.047
 2655POPC   GL234982  27.070  44.799   8.960
 2655POPC   C1A34983  26.696  44.649   8.681
 2655POPC   D2A34984  26.942  44.749   8.332
 2655POPC   C3A34985  26.715  44.749   7.967
 2655POPC   C4A34986  26.917  44.623   7.563
 2655POPC   C1B34987  27.114   0.141   8.648
 2655POPC   C2B34988  27.107   0.249   8.206
 2655POPC   C3B34989  27.016   0.095   7.772
 2655POPC   C4B34990  27.192   0.029   7.374
 2656POPC   NC334991  25.136  25.720   9.421
 2656POPC   PO434992  24.934  26.377   9.502
 2656POPC   GL134993  25.194  26.194   9.156
 2656POPC   GL234994  25.509  26.009   9.192
 2656POPC   C1A34995  25.246  25.935   8.768
 2656POPC   D2A34996  25.308  25.742   8.391
 2656POPC   C3A34997  25.278  26.014   8.039
 2656POPC   C4A34998  25.509  25.855   7.678
 2656POPC   C1B34999  25.644  26.261   8.781
 2656POPC   C2B35000  25.605  26.327   8.285
 2656POPC   C3B35001  25.583  26.358   7.811
 2656POPC   C4B35002  25.625  26.233   7.355
 2657POPC   NC335003  22.775  12.472   9.614
 2657POPC   PO435004  23.076  11.818   9.498
 2657POPC   GL135005  23.096  12.095   9.181
 2657POPC   GL235006  22.779  12.251   9.136
 2657POPC   C1A35007  23.247  12.109   8.780
 2657POPC   D2A35008  22.977  12.087   8.428
 2657POPC   C3A35009  23.113  12.001   8.035
 2657POPC   C4A35010  23.074  12.263   7.722
 2657POPC   C1B35011  22.726  11.893   8.851
 2657POPC   C2B35012  22.541  11.841   8.436
 2657POPC   C3B35013  22.591  12.037   8.028
 2657POPC   C4B35014  22.786  11.856   7.661
 2658POPC   NC335015  31.164  18.545   9.502
 2658POPC   PO435016  31.650  18.472   9.111
 2658POPC   GL135017  31.269  18.341   8.930
 2658POPC   GL235018  31.219  18.023   9.008
 2658POPC   C1A35019  31.247  18.405   8.470
 2658POPC   D2A35020  31.656  18.455   8.220
 2658POPC   C3A35021  31.705  18.450   7.762
 2658POPC   C4A35022  31.710  18.588   7.304
 2658POPC   C1B35023  31.445  17.938   8.640
 2658POPC   C2B35024  31.392  17.996   8.199
 2658POPC   C3B35025  31.349  18.010   7.796
 2658POPC   C4B35026  31.382  18.208   7.429
 2659POPC   NC335027  14.005  35.301   9.315
 2659POPC   PO435028  14.482  34.987   9.329
 2659POPC   GL135029  14.373  35.189   8.987
 2659POPC   GL235030  14.416  35.521   9.078
 2659POPC   C1A35031  14.424  35.272   8.577
 2659POPC   D2A35032  14.138  35.239   8.217
 2659POPC   C3A35033  14.405  35.289   7.867
 2659POPC   C4A35034  14.413  35.329   7.430
 2659POPC   C1B35035  14.228  35.761   8.782
 2659POPC   C2B35036  14.274  35.721   8.363
 2659POPC   C3B35037  14.329  35.776   7.946
 2659POPC   C4B35038  14.065  35.626   7.667
 2660POPC   NC335039  23.842   1.546   9.576
 2660POPC   PO435040  23.561   2.110   9.528
 2660POPC   GL135041  23.455   1.927   9.153
 2660POPC   GL235042  23.721   1.698   9.103
 2660POPC   C1A35043  23.453   2.065   8.719
 2660POPC   D2A35044  23.340   2.149   8.295
 2660POPC   C3A35045  23.591   2.338   7.980
 2660POPC   C4A35046  23.831   2.261   7.642
 2660POPC   C1B35047  23.940   1.851   8.724
 2660POPC   C2B35048  23.860   2.015   8.302
 2660POPC   C3B35049  24.054   1.901   7.908
 2660POPC   C4B35050  24.203   1.938   7.453
 2661POPC   NC335051  14.247  41.952   9.610
 2661POPC   PO435052  14.477  42.611   9.529
 2661POPC   GL135053  14.491  42.363   9.161
 2661POPC   GL235054  14.215  42.152   9.146
 2661POPC   C1A35055  14.354  42.427   8.717
 2661POPC   D2A35056  14.595  42.580   8.370
 2661POPC   C3A35057  14.340  42.494   8.047
 2661POPC   C4A35058  14.088  42.765   7.767
 2661POPC   C1B35059  14.031  41.956   8.800
 2661POPC   C2B35060  14.005  42.155   8.430
 2661POPC   C3B35061  14.142  41.986   8.045
 2661POPC   C4B35062  14.466  42.069   7.773
 2662POPC   NC335063  41.918  18.201   9.500
 2662POPC   PO435064  41.213  18.192   9.326
 2662POPC   GL135065  41.624  18.145   9.091
 2662POPC   GL235066  41.881  18.425   9.055
 2662POPC   C1A35067  41.797  18.000   8.709
 2662POPC   D2A35068  41.537  18.077   8.361
 2662POPC   C3A35069  41.651  18.248   8.023
 2662POPC   C4A35070  41.763  18.148   7.633
 2662POPC   C1B35071  41.599  18.463   8.678
 2662POPC   C2B35072  41.348  18.582   8.335
 2662POPC   C3B35073  41.371  18.663   7.908
 2662POPC   C4B35074  41.611  18.638   7.544
 2663POPC   NC335075  11.713   3.974   9.384
 2663POPC   PO435076  11.236   3.419   9.463
 2663POPC   GL135077  11.198   3.694   9.138
 2663POPC   GL235078  11.532   3.609   9.064
 2663POPC   C1A35079  11.109   3.658   8.690
 2663POPC   D2A35080  11.092   3.418   8.318
 2663POPC   C3A35081  11.398   3.508   7.998
 2663POPC   C4A35082  11.047   3.652   7.777
 2663POPC   C1B35083  11.512   3.944   8.774
 2663POPC   C2B35084  11.631   3.784   8.398
 2663POPC   C3B35085  11.738   3.934   8.013
 2663POPC   C4B35086  11.407   3.995   7.761
 2664POPC   NC335087  34.532  37.051   9.355
 2664POPC   PO435088  34.992  36.564   9.584
 2664POPC   GL135089  34.985  36.715   9.140
 2664POPC   GL235090  34.827  37.064   8.966
 2664POPC   C1A35091  34.777  36.629   8.762
 2664POPC   D2A35092  34.644  36.958   8.477
 2664POPC   C3A35093  34.663  36.793   8.082
 2664POPC   C4A35094  34.700  36.434   7.840
 2664POPC   C1B35095  34.467  37.320   8.797
 2664POPC   C2B35096  34.428  37.463   8.438
 2664POPC   C3B35097  34.427  37.261   8.091
 2664POPC   C4B35098  34.392  37.048   7.734
 2665POPC   NC335099  22.349   2.587   9.410
 2665POPC   PO435100  23.080   2.588   9.457
 2665POPC   GL135101  23.126   2.755   9.073
 2665POPC   GL235102  22.765   2.719   9.025
 2665POPC   C1A35103  23.182   2.559   8.646
 2665POPC   D2A35104  22.932   2.429   8.295
 2665POPC   C3A35105  23.103   2.445   7.892
 2665POPC   C4A35106  23.196   2.848   7.868
 2665POPC   C1B35107  22.879   2.991   8.674
 2665POPC   C2B35108  22.897   3.068   8.246
 2665POPC   C3B35109  22.696   2.945   7.916
 2665POPC   C4B35110  22.697   2.638   7.656
 2666POPC   NC335111   3.921  32.376   9.523
 2666POPC   PO435112   3.327  32.161   9.388
 2666POPC   GL135113   3.610  32.375   9.086
 2666POPC   GL235114   3.898  32.639   9.073
 2666POPC   C1A35115   3.451  32.264   8.703
 2666POPC   D2A35116   3.518  31.927   8.435
 2666POPC   C3A35117   3.419  32.018   8.009
 2666POPC   C4A35118   3.652  31.979   7.621
 2666POPC   C1B35119   3.940  32.404   8.667
 2666POPC   C2B35120   3.727  32.354   8.267
 2666POPC   C3B35121   3.807  32.442   7.834
 2666POPC   C4B35122   3.659  32.434   7.406
 2667POPC   NC335123  33.799  11.403   9.473
 2667POPC   PO435124  33.482  10.815   9.437
 2667POPC   GL135125  33.542  11.191   9.088
 2667POPC   GL235126  33.619  11.612   9.046
 2667POPC   C1A35127  33.915  11.261   8.787
 2667POPC   D2A35128  34.156  11.212   8.390
 2667POPC   C3A35129  34.027  11.363   7.978
 2667POPC   C4A35130  33.857  11.274   7.546
 2667POPC   C1B35131  33.473  11.491   8.672
 2667POPC   C2B35132  33.644  11.349   8.312
 2667POPC   C3B35133  33.520  11.460   7.908
 2667POPC   C4B35134  33.370  11.581   7.508
 2668POPC   NC335135  18.685  30.110   9.401
 2668POPC   PO435136  19.263  30.100   9.588
 2668POPC   GL135137  19.126  30.104   9.129
 2668POPC   GL235138  19.197  30.367   8.944
 2668POPC   C1A35139  18.906  29.978   8.721
 2668POPC   D2A35140  18.710  29.652   8.433
 2668POPC   C3A35141  18.875  29.616   8.034
 2668POPC   C4A35142  18.999  29.808   7.662
 2668POPC   C1B35143  19.399  30.139   8.603
 2668POPC   C2B35144  19.200  29.959   8.278
 2668POPC   C3B35145  18.910  30.148   8.052
 2668POPC   C4B35146  19.030  30.333   7.670
 2669POPC   NC335147  25.619  30.360   9.536
 2669POPC   PO435148  25.154  29.863   9.518
 2669POPC   GL135149  25.286  29.920   9.158
 2669POPC   GL235150  25.628  29.891   9.263
 2669POPC   C1A35151  25.125  29.800   8.757
 2669POPC   D2A35152  25.115  29.991   8.380
 2669POPC   C3A35153  25.092  29.776   7.993
 2669POPC   C4A35154  25.060  30.101   7.685
 2669POPC   C1B35155  25.637  29.748   8.828
 2669POPC   C2B35156  25.516  29.665   8.408
 2669POPC   C3B35157  25.569  29.945   8.054
 2669POPC   C4B35158  25.503  29.853   7.664
 2670POPC   NC335159  42.147   3.205   9.647
 2670POPC   PO435160  42.511   3.721   9.433
 2670POPC   GL135161  42.435   3.646   9.021
 2670POPC   GL235162  42.107   3.575   9.125
 2670POPC   C1A35163  42.603   3.491   8.630
 2670POPC   D2A35164  42.822   3.321   8.268
 2670POPC   C3A35165  42.683   3.635   7.996
 2670POPC   C4A35166  42.489   3.935   7.793
 2670POPC   C1B35167  42.108   3.338   8.742
 2670POPC   C2B35168  42.180   3.402   8.307
 2670POPC   C3B35169  42.197   3.512   7.888
 2670POPC   C4B35170  42.049   3.352   7.500
 2671POPC   NC335171  43.610  15.626   9.490
 2671POPC   PO435172  43.965  14.939   9.507
 2671POPC   GL135173  44.053  15.188   9.111
 2671POPC   GL235174  43.764  15.350   9.082
 2671POPC   C1A35175  44.046  15.318   8.657
 2671POPC   D2A35176  43.745  15.270   8.301
 2671POPC   C3A35177  44.001  15.265   7.944
 2671POPC   C4A35178  44.122  14.955   7.706
 2671POPC   C1B35179  43.654  15.614   8.675
 2671POPC   C2B35180  43.541  15.769   8.267
 2671POPC   C3B35181  43.605  15.568   7.843
 2671POPC   C4B35182  43.496  15.537   7.385
 2672POPC   NC335183  23.106   2.100   9.510
 2672POPC   PO435184  22.618   1.822   9.284
 2672POPC   GL135185  22.944   1.929   9.005
 2672POPC   GL235186  23.052   2.253   9.027
 2672POPC   C1A35187  22.969   1.886   8.572
 2672POPC   D2A35188  22.846   1.734   8.166
 2672POPC   C3A35189  23.092   1.919   7.905
 2672POPC   C4A35190  23.535   1.848   7.908
 2672POPC   C1B35191  22.680   2.301   8.740
 2672POPC   C2B35192  22.544   2.097   8.354
 2672POPC   C3B35193  22.653   2.205   7.935
 2672POPC   C4B35194  22.771   2.108   7.492
 2673POPC   NC335195  41.564  19.285   9.520
 2673POPC   PO435196  41.980  18.730   9.537
 2673POPC   GL135197  41.656  18.890   9.221
 2673POPC   GL235198  41.436  18.727   9.051
 2673POPC   C1A35199  41.611  19.209   8.856
 2673POPC   D2A35200  41.829  19.223   8.442
 2673POPC   C3A35201  41.755  18.970   8.080
 2673POPC   C4A35202  41.639  19.118   7.696
 2673POPC   C1B35203  41.192  18.924   8.725
 2673POPC   C2B35204  41.337  19.112   8.341
 2673POPC   C3B35205  41.169  19.134   7.925
 2673POPC   C4B35206  41.187  18.961   7.504
 2674POPC   NC335207  42.786   3.385   9.273
 2674POPC   PO435208  43.210   3.820   9.406
 2674POPC   GL135209  43.386   3.650   9.057
 2674POPC   GL235210  43.316   3.278   9.121
 2674POPC   C1A35211  43.330   3.855   8.648
 2674POPC   D2A35212  42.967   3.820   8.388
 2674POPC   C3A35213  43.195   3.663   8.043
 2674POPC   C4A35214  43.516   3.904   7.854
 2674POPC   C1B35215  43.114   3.407   8.714
 2674POPC   C2B35216  43.337   3.306   8.385
 2674POPC   C3B35217  43.296   3.171   7.990
 2674POPC   C4B35218  42.953   3.297   7.749
 2675POPC   NC335219  34.547  43.067   9.497
 2675POPC   PO435220  35.111  42.714   9.712
 2675POPC   GL135221  34.922  42.962   9.203
 2675POPC   GL235222  34.873  43.281   9.060
 2675POPC   C1A35223  34.813  42.841   8.746
 2675POPC   D2A35224  34.844  42.605   8.342
 2675POPC   C3A35225  34.692  42.865   7.990
 2675POPC   C4A35226  34.740  42.979   7.548
 2675POPC   C1B35227  34.529  43.280   8.726
 2675POPC   C2B35228  34.413  43.237   8.254
 2675POPC   C3B35229  34.540  43.355   7.838
 2675POPC   C4B35230  34.973  43.427   7.746
 2676POPC   NC335231   7.243  35.213   9.464
 2676POPC   PO435232   7.620  35.735   9.443
 2676POPC   GL135233   7.432  35.531   9.118
 2676POPC   GL235234   7.107  35.720   9.050
 2676POPC   C1A35235   7.529  35.245   8.750
 2676POPC   D2A35236   7.593  35.049   8.319
 2676POPC   C3A35237   7.270  35.115   7.996
 2676POPC   C4A35238   7.292  35.277   7.542
 2676POPC   C1B35239   7.310  35.702   8.677
 2676POPC   C2B35240   7.328  35.495   8.331
 2676POPC   C3B35241   7.312  35.621   7.946
 2676POPC   C4B35242   7.494  35.775   7.618
 2677POPC   NC335243   7.366  23.268   9.353
 2677POPC   PO435244   7.767  23.744   9.699
 2677POPC   GL135245   7.682  23.814   9.240
 2677POPC   GL235246   7.327  23.739   9.105
 2677POPC   C1A35247   7.686  23.925   8.783
 2677POPC   D2A35248   7.425  23.851   8.414
 2677POPC   C3A35249   7.539  23.991   8.007
 2677POPC   C4A35250   7.246  24.055   7.695
 2677POPC   C1B35251   7.400  23.431   8.733
 2677POPC   C2B35252   7.330  23.354   8.295
 2677POPC   C3B35253   7.405  23.505   7.879
 2677POPC   C4B35254   7.230  23.492   7.474
 2678POPC   NC335255  32.821   3.069   9.330
 2678POPC   PO435256  33.083   2.483   9.437
 2678POPC   GL135257  33.107   2.647   9.095
 2678POPC   GL235258  33.272   2.951   9.108
 2678POPC   C1A35259  32.923   2.473   8.741
 2678POPC   D2A35260  32.818   2.657   8.340
 2678POPC   C3A35261  32.897   2.439   7.971
 2678POPC   C4A35262  33.098   2.448   7.589
 2678POPC   C1B35263  33.117   2.946   8.681
 2678POPC   C2B35264  33.261   2.912   8.259
 2678POPC   C3B35265  33.283   2.883   7.814
 2678POPC   C4B35266  33.618   2.932   7.558
 2679POPC   NC335267  40.900  17.868   9.478
 2679POPC   PO435268  41.150  17.166   9.543
 2679POPC   GL135269  40.763  17.328   9.219
 2679POPC   GL235270  40.905  17.629   9.048
 2679POPC   C1A35271  40.496  17.498   8.811
 2679POPC   D2A35272  40.673  17.811   8.582
 2679POPC   C3A35273  40.565  17.748   8.155
 2679POPC   C4A35274  40.609  17.685   7.728
 2679POPC   C1B35275  41.075  17.371   8.750
 2679POPC   C2B35276  40.913  17.380   8.355
 2679POPC   C3B35277  41.091  17.256   7.980
 2679POPC   C4B35278  41.222  17.150   7.583
 2680POPC   NC335279   6.318  35.148   9.370
 2680POPC   PO435280   6.873  35.593   9.471
 2680POPC   GL135281   6.637  35.460   9.130
 2680POPC   GL235282   6.358  35.651   9.021
 2680POPC   C1A35283   6.584  35.206   8.747
 2680POPC   D2A35284   6.725  35.064   8.326
 2680POPC   C3A35285   6.488  35.229   7.993
 2680POPC   C4A35286   6.447  35.236   7.519
 2680POPC   C1B35287   6.694  35.752   8.730
 2680POPC   C2B35288   6.820  35.596   8.326
 2680POPC   C3B35289   6.862  35.818   7.940
 2680POPC   C4B35290   6.857  35.470   7.716
 2681POPC   NC335291  41.899  11.773   9.405
 2681POPC   PO435292  41.360  12.258   9.505
 2681POPC   GL135293  41.537  12.107   9.132
 2681POPC   GL235294  41.193  11.966   9.079
 2681POPC   C1A35295  41.760  12.146   8.717
 2681POPC   D2A35296  42.040  12.162   8.339
 2681POPC   C3A35297  41.844  12.236   7.986
 2681POPC   C4A35298  41.579  12.009   7.791
 2681POPC   C1B35299  41.227  12.210   8.700
 2681POPC   C2B35300  41.392  12.145   8.281
 2681POPC   C3B35301  41.230  12.336   7.903
 2681POPC   C4B35302  41.408  12.490   7.505
 2682POPC   NC335303  17.981  29.970   9.614
 2682POPC   PO435304  18.598  29.654   9.427
 2682POPC   GL135305  18.313  29.859   9.166
 2682POPC   GL235306  17.981  29.845   9.109
 2682POPC   C1A35307  18.348  29.811   8.748
 2682POPC   D2A35308  18.470  30.111   8.448
 2682POPC   C3A35309  18.431  29.933   8.049
 2682POPC   C4A35310  18.567  30.099   7.666
 2682POPC   C1B35311  17.891  30.034   8.725
 2682POPC   C2B35312  17.978  29.878   8.376
 2682POPC   C3B35313  17.964  29.731   8.008
 2682POPC   C4B35314  17.887  30.134   7.876
 2683POPC   NC335315  13.791   6.441   9.549
 2683POPC   PO435316  13.233   6.852   9.457
 2683POPC   GL135317  13.450   6.576   9.183
 2683POPC   GL235318  13.705   6.766   9.148
 2683POPC   C1A35319  13.548   6.522   8.754
 2683POPC   D2A35320  13.699   6.379   8.371
 2683POPC   C3A35321  13.559   6.542   7.989
 2683POPC   C4A35322  13.546   6.486   7.506
 2683POPC   C1B35323  13.949   6.902   8.817
 2683POPC   C2B35324  14.041   6.765   8.448
 2683POPC   C3B35325  13.918   6.900   8.086
 2683POPC   C4B35326  13.683   6.942   7.731
 2684POPC   NC335327  18.666   0.703   9.560
 2684POPC   PO435328  18.997   0.140   9.486
 2684POPC   GL135329  18.918   0.263   9.091
 2684POPC   GL235330  18.785   0.608   9.067
 2684POPC   C1A35331  18.995   0.214   8.666
 2684POPC   D2A35332  19.129   0.077   8.285
 2684POPC   C3A35333  19.078   0.379   7.964
 2684POPC   C4A35334  19.088   0.362   7.483
 2684POPC   C1B35335  19.166   0.656   8.841
 2684POPC   C2B35336  19.182   0.684   8.404
 2684POPC   C3B35337  19.354   0.888   8.051
 2684POPC   C4B35338  19.494   0.593   7.744
 2685POPC   NC335339  19.229  36.650   9.552
 2685POPC   PO435340  18.874  36.090   9.823
 2685POPC   GL135341  18.818  36.173   9.332
 2685POPC   GL235342  18.787  36.508   9.252
 2685POPC   C1A35343  18.976  36.051   8.908
 2685POPC   D2A35344  18.885  36.090   8.466
 2685POPC   C3A35345  19.166  36.110   8.103
 2685POPC   C4A35346  18.941  36.035   7.733
 2685POPC   C1B35347  18.616  36.417   8.824
 2685POPC   C2B35348  18.524  36.441   8.397
 2685POPC   C3B35349  18.772  36.432   8.014
 2685POPC   C4B35350  18.639  36.410   7.600
 2686POPC   NC335351  13.240  34.349   9.520
 2686POPC   PO435352  12.575  34.418   9.482
 2686POPC   GL135353  12.879  34.427   9.145
 2686POPC   GL235354  13.199  34.637   9.114
 2686POPC   C1A35355  12.848  34.617   8.753
 2686POPC   D2A35356  12.602  34.670   8.434
 2686POPC   C3A35357  12.836  34.768   8.107
 2686POPC   C4A35358  12.895  34.490   7.790
 2686POPC   C1B35359  13.238  34.275   8.814
 2686POPC   C2B35360  13.051  34.285   8.409
 2686POPC   C3B35361  13.156  34.057   8.057
 2686POPC   C4B35362  13.275  34.162   7.661
 2687POPC   NC335363  41.683  20.170   9.476
 2687POPC   PO435364  41.200  20.571   9.625
 2687POPC   GL135365  41.467  20.530   9.168
 2687POPC   GL235366  41.806  20.472   9.110
 2687POPC   C1A35367  41.599  20.737   8.739
 2687POPC   D2A35368  41.867  20.677   8.347
 2687POPC   C3A35369  41.698  20.869   7.957
 2687POPC   C4A35370  41.443  20.955   7.568
 2687POPC   C1B35371  41.845  20.292   8.706
 2687POPC   C2B35372  41.665  20.157   8.341
 2687POPC   C3B35373  41.725  20.356   7.963
 2687POPC   C4B35374  42.059  20.252   7.734
 2688POPC   NC335375   9.777  43.184   9.748
 2688POPC   PO435376  10.067  42.870   9.230
 2688POPC   GL135377   9.746  43.118   9.068
 2688POPC   GL235378   9.854  42.932   8.765
 2688POPC   C1A35379   9.631  43.367   8.688
 2688POPC   D2A35380   9.673  43.143   8.291
 2688POPC   C3A35381   9.922  42.929   7.978
 2688POPC   C4A35382   9.810  43.235   7.694
 2688POPC   C1B35383   9.417  42.889   8.708
 2688POPC   C2B35384   9.263  42.841   8.298
 2688POPC   C3B35385   9.404  42.939   7.888
 2688POPC   C4B35386   9.608  42.792   7.522
 2689POPC   NC335387   5.117  24.151   9.508
 2689POPC   PO435388   5.401  23.532   9.529
 2689POPC   GL135389   5.127  23.671   9.221
 2689POPC   GL235390   4.914  23.410   9.117
 2689POPC   C1A35391   5.024  23.867   8.835
 2689POPC   D2A35392   5.195  23.925   8.409
 2689POPC   C3A35393   5.043  23.780   8.012
 2689POPC   C4A35394   5.059  23.988   7.612
 2689POPC   C1B35395   4.708  23.472   8.701
 2689POPC   C2B35396   4.673  23.500   8.248
 2689POPC   C3B35397   4.787  23.377   7.820
 2689POPC   C4B35398   4.990  23.486   7.415
 2690POPC   NC335399  23.860   3.398   9.803
 2690POPC   PO435400  23.284   3.707   9.543
 2690POPC   GL135401  23.610   3.682   9.229
 2690POPC   GL235402  23.912   3.464   9.254
 2690POPC   C1A35403  23.610   3.644   8.784
 2690POPC   D2A35404  23.891   3.777   8.462
 2690POPC   C3A35405  23.756   3.673   8.063
 2690POPC   C4A35406  23.467   3.618   7.697
 2690POPC   C1B35407  23.938   3.267   8.809
 2690POPC   C2B35408  24.022   3.266   8.340
 2690POPC   C3B35409  23.949   3.251   7.884
 2690POPC   C4B35410  24.019   3.242   7.441
 2691POPC   NC335411  32.855  13.424   9.593
 2691POPC   PO435412  32.741  13.966   9.178
 2691POPC   GL135413  32.872  13.548   9.092
 2691POPC   GL235414  33.206  13.478   9.222
 2691POPC   C1A35415  32.877  13.517   8.665
 2691POPC   D2A35416  32.759  13.887   8.443
 2691POPC   C3A35417  32.874  13.744   8.061
 2691POPC   C4A35418  32.911  13.806   7.638
 2691POPC   C1B35419  33.273  13.261   8.896
 2691POPC   C2B35420  33.328  13.273   8.463
 2691POPC   C3B35421  33.087  13.251   8.083
 2691POPC   C4B35422  32.776  13.321   7.783
 2692POPC   NC335423  15.112  44.062   9.570
 2692POPC   PO435424  15.476  43.621   9.332
 2692POPC   GL135425  15.172  43.796   9.085
 2692POPC   GL235426  15.314  44.081   9.120
 2692POPC   C1A35427  15.198  43.877   8.662
 2692POPC   D2A35428  15.423  43.843   8.310
 2692POPC   C3A35429  15.109  43.872   7.988
 2692POPC   C4A35430  14.936  43.897   7.577
 2692POPC   C1B35431  15.533  44.271   8.843
 2692POPC   C2B35432  15.555  44.314   8.434
 2692POPC   C3B35433  15.392  44.300   8.040
 2692POPC   C4B35434  15.435  44.070   7.650
 2693POPC   NC335435  16.391   9.084   9.715
 2693POPC   PO435436  15.849   8.794   9.424
 2693POPC   GL135437  15.870   9.124   9.126
 2693POPC   GL235438  16.246   9.112   9.209
 2693POPC   C1A35439  15.720   9.210   8.692
 2693POPC   D2A35440  15.962   9.135   8.333
 2693POPC   C3A35441  15.873   8.883   7.978
 2693POPC   C4A35442  15.781   8.875   7.536
 2693POPC   C1B35443  16.303   8.983   8.780
 2693POPC   C2B35444  16.445   9.227   8.422
 2693POPC   C3B35445  16.449   9.081   8.004
 2693POPC   C4B35446  16.239   9.036   7.628
 2694POPC   NC335447  10.587  11.468   9.857
 2694POPC   PO435448  10.907  11.183   9.314
 2694POPC   GL135449  10.486  11.283   9.164
 2694POPC   GL235450  10.311  10.970   9.036
 2694POPC   C1A35451  10.482  11.398   8.764
 2694POPC   D2A35452  10.665  11.194   8.441
 2694POPC   C3A35453  10.548  11.401   8.106
 2694POPC   C4A35454  10.651  11.550   7.695
 2694POPC   C1B35455  10.203  10.951   8.597
 2694POPC   C2B35456  10.339  10.910   8.165
 2694POPC   C3B35457  10.302  10.712   7.772
 2694POPC   C4B35458  10.257  10.888   7.351
 2695POPC   NC335459  24.854  34.020   9.431
 2695POPC   PO435460  24.275  33.667   9.470
 2695POPC   GL135461  24.503  33.779   9.158
 2695POPC   GL235462  24.378  34.145   9.246
 2695POPC   C1A35463  24.703  33.700   8.771
 2695POPC   D2A35464  24.760  33.822   8.335
 2695POPC   C3A35465  24.547  33.578   8.000
 2695POPC   C4A35466  24.174  33.369   7.838
 2695POPC   C1B35467  24.271  34.097   8.832
 2695POPC   C2B35468  24.394  34.194   8.442
 2695POPC   C3B35469  24.341  34.037   8.090
 2695POPC   C4B35470  24.407  34.113   7.734
 2696POPC   NC335471  41.286  30.220   9.538
 2696POPC   PO435472  41.517  30.853   9.447
 2696POPC   GL135473  41.416  30.736   9.074
 2696POPC   GL235474  41.436  30.403   9.100
 2696POPC   C1A35475  41.549  30.751   8.681
 2696POPC   D2A35476  41.880  30.922   8.465
 2696POPC   C3A35477  41.618  30.979   8.116
 2696POPC   C4A35478  41.528  30.791   7.738
 2696POPC   C1B35479  41.438  30.234   8.708
 2696POPC   C2B35480  41.362  30.402   8.285
 2696POPC   C3B35481  41.295  30.355   7.836
 2696POPC   C4B35482  41.395  30.281   7.366
 2697POPC   NC335483  28.036   1.035   9.573
 2697POPC   PO435484  28.534   1.490   9.438
 2697POPC   GL135485  28.370   1.171   9.157
 2697POPC   GL235486  28.015   1.245   9.102
 2697POPC   C1A35487  28.539   1.061   8.745
 2697POPC   D2A35488  28.746   1.288   8.410
 2697POPC   C3A35489  28.595   1.132   8.022
 2697POPC   C4A35490  28.314   1.374   7.874
 2697POPC   C1B35491  28.155   1.437   8.732
 2697POPC   C2B35492  28.195   1.217   8.361
 2697POPC   C3B35493  28.153   0.880   8.095
 2697POPC   C4B35494  28.185   0.925   7.705
 2698POPC   NC335495   5.472   6.380   9.383
 2698POPC   PO435496   5.027   6.736   9.726
 2698POPC   GL135497   5.076   6.660   9.183
 2698POPC   GL235498   4.760   6.709   9.010
 2698POPC   C1A35499   5.158   6.491   8.778
 2698POPC   D2A35500   4.855   6.436   8.451
 2698POPC   C3A35501   5.037   6.714   8.155
 2698POPC   C4A35502   5.428   6.680   7.918
 2698POPC   C1B35503   5.006   6.987   8.718
 2698POPC   C2B35504   4.951   7.195   8.325
 2698POPC   C3B35505   4.738   7.064   7.934
 2698POPC   C4B35506   4.772   6.642   7.733
 2699POPC   NC335507  26.190   8.869   9.955
 2699POPC   PO435508  26.020   9.437   9.587
 2699POPC   GL135509  25.912   9.044   9.297
 2699POPC   GL235510  26.223   8.941   9.087
 2699POPC   C1A35511  25.772   8.851   8.879
 2699POPC   D2A35512  26.097   8.747   8.543
 2699POPC   C3A35513  25.939   8.698   8.126
 2699POPC   C4A35514  26.111   8.748   7.718
 2699POPC   C1B35515  26.078   9.237   8.744
 2699POPC   C2B35516  25.974   9.194   8.308
 2699POPC   C3B35517  25.725   9.144   7.942
 2699POPC   C4B35518  25.734   9.348   7.551
 2700POPC   NC335519  39.844   5.087   9.657
 2700POPC   PO435520  40.291   5.526   9.537
 2700POPC   GL135521  40.250   5.094   9.309
 2700POPC   GL235522  40.256   5.300   9.037
 2700POPC   C1A35523  39.972   4.903   8.933
 2700POPC   D2A35524  39.992   5.068   8.470
 2700POPC   C3A35525  39.946   4.915   8.013
 2700POPC   C4A35526  39.733   5.098   7.646
 2700POPC   C1B35527  40.420   5.336   8.643
 2700POPC   C2B35528  40.345   5.388   8.259
 2700POPC   C3B35529  40.113   5.398   7.900
 2700POPC   C4B35530  40.266   5.449   7.508
 2701POPC   NC335531  22.411  30.784   9.590
 2701POPC   PO435532  22.001  30.384   9.305
 2701POPC   GL135533  22.237  30.683   9.090
 2701POPC   GL235534  22.346  31.038   9.157
 2701POPC   C1A35535  22.114  30.624   8.676
 2701POPC   D2A35536  21.919  30.365   8.366
 2701POPC   C3A35537  22.142  30.449   7.980
 2701POPC   C4A35538  22.024  30.595   7.562
 2701POPC   C1B35539  22.549  31.111   8.758
 2701POPC   C2B35540  22.390  30.945   8.385
 2701POPC   C3B35541  22.221  31.029   8.009
 2701POPC   C4B35542  22.332  31.026   7.607
 2702POPC   NC335543  19.868  23.246   9.184
 2702POPC   PO435544  19.525  22.718   9.499
 2702POPC   GL135545  19.634  22.792   9.109
 2702POPC   GL235546  19.936  22.726   9.081
 2702POPC   C1A35547  19.561  22.926   8.687
 2702POPC   D2A35548  19.497  22.768   8.254
 2702POPC   C3A35549  19.504  23.053   7.884
 2702POPC   C4A35550  19.635  23.238   7.451
 2702POPC   C1B35551  20.031  22.737   8.667
 2702POPC   C2B35552  20.202  22.894   8.311
 2702POPC   C3B35553  19.954  22.770   8.027
 2702POPC   C4B35554  19.895  22.843   7.619
 2703POPC   NC335555   1.734  38.562   9.574
 2703POPC   PO435556   2.360  38.485   9.269
 2703POPC   GL135557   1.996  38.347   9.130
 2703POPC   GL235558   1.796  38.646   9.086
 2703POPC   C1A35559   1.953  38.345   8.692
 2703POPC   D2A35560   1.826  38.431   8.311
 2703POPC   C3A35561   1.960  38.134   8.086
 2703POPC   C4A35562   2.302  38.169   7.836
 2703POPC   C1B35563   1.520  38.620   8.756
 2703POPC   C2B35564   1.405  38.684   8.347
 2703POPC   C3B35565   1.629  38.784   7.984
 2703POPC   C4B35566   2.000  38.585   7.820
 2704POPC   NC335567  21.593   6.274   9.620
 2704POPC   PO435568  21.368   5.587   9.572
 2704POPC   GL135569  21.311   5.961   9.288
 2704POPC   GL235570  21.647   5.979   9.218
 2704POPC   C1A35571  21.221   6.083   8.837
 2704POPC   D2A35572  21.094   5.982   8.379
 2704POPC   C3A35573  21.271   6.250   7.997
 2704POPC   C4A35574  21.281   6.216   7.525
 2704POPC   C1B35575  21.534   5.627   8.941
 2704POPC   C2B35576  21.486   5.652   8.522
 2704POPC   C3B35577  21.492   5.785   8.106
 2704POPC   C4B35578  21.659   5.967   7.754
 2705POPC   NC335579  24.405  44.354   9.529
 2705POPC   PO435580  24.632   0.049   9.580
 2705POPC   GL135581  24.505  44.794   9.193
 2705POPC   GL235582  24.684  44.484   9.098
 2705POPC   C1A35583  24.295  44.839   8.766
 2705POPC   D2A35584  24.038  44.952   8.369
 2705POPC   C3A35585  24.229  44.855   8.007
 2705POPC   C4A35586  24.295  44.788   7.599
 2705POPC   C1B35587  24.676  44.486   8.652
 2705POPC   C2B35588  24.634  44.730   8.307
 2705POPC   C3B35589  24.725  44.633   7.880
 2705POPC   C4B35590  24.875  44.243   7.721
 2706POPC   NC335591  37.081  22.905   9.547
 2706POPC   PO435592  36.440  23.095   9.413
 2706POPC   GL135593  36.809  23.024   9.133
 2706POPC   GL235594  37.012  22.679   9.096
 2706POPC   C1A35595  36.875  23.049   8.705
 2706POPC   D2A35596  36.644  22.863   8.355
 2706POPC   C3A35597  36.678  22.876   7.911
 2706POPC   C4A35598  36.799  22.984   7.476
 2706POPC   C1B35599  37.255  22.726   8.712
 2706POPC   C2B35600  37.169  22.853   8.283
 2706POPC   C3B35601  37.172  22.891   7.832
 2706POPC   C4B35602  37.312  22.663   7.464
 2707POPC   NC335603  20.451  21.812   9.404
 2707POPC   PO435604  20.873  22.308   9.513
 2707POPC   GL135605  20.752  22.182   9.140
 2707POPC   GL235606  20.886  21.929   9.082
 2707POPC   C1A35607  20.912  22.273   8.741
 2707POPC   D2A35608  20.832  22.388   8.378
 2707POPC   C3A35609  20.735  22.054   8.145
 2707POPC   C4A35610  20.739  22.228   7.773
 2707POPC   C1B35611  20.511  21.933   8.745
 2707POPC   C2B35612  20.289  21.846   8.322
 2707POPC   C3B35613  20.305  21.915   7.842
 2707POPC   C4B35614  20.344  21.677   7.438
 2708POPC   NC335615  16.111  44.049   9.526
 2708POPC   PO435616  16.056  43.403   9.608
 2708POPC   GL135617  15.968  43.606   9.172
 2708POPC   GL235618  15.833  43.968   9.117
 2708POPC   C1A35619  15.772  43.645   8.741
 2708POPC   D2A35620  15.986  43.720   8.369
 2708POPC   C3A35621  15.851  44.032   8.117
 2708POPC   C4A35622  15.924  43.857   7.749
 2708POPC   C1B35623  15.981  44.122   8.683
 2708POPC   C2B35624  16.199  44.330   8.349
 2708POPC   C3B35625  16.283  44.215   7.905
 2708POPC   C4B35626  16.171  44.139   7.406
 2709POPC   NC335627  35.169   7.437   9.583
 2709POPC   PO435628  35.856   7.454   9.719
 2709POPC   GL135629  35.527   7.311   9.286
 2709POPC   GL235630  35.267   7.642   9.152
 2709POPC   C1A35631  35.377   7.267   8.844
 2709POPC   D2A35632  35.499   7.211   8.423
 2709POPC   C3A35633  35.346   7.375   8.049
 2709POPC   C4A35634  35.481   7.487   7.651
 2709POPC   C1B35635  35.041   7.678   8.795
 2709POPC   C2B35636  34.933   7.840   8.410
 2709POPC   C3B35637  34.978   7.728   8.013
 2709POPC   C4B35638  34.996   7.597   7.590
 2710POPC   NC335639  23.847  28.088   9.515
 2710POPC   PO435640  23.335  28.450   9.372
 2710POPC   GL135641  23.562  28.220   9.048
 2710POPC   GL235642  23.880  28.353   9.081
 2710POPC   C1A35643  23.725  28.294   8.600
 2710POPC   D2A35644  23.827  28.626   8.289
 2710POPC   C3A35645  23.650  28.535   7.898
 2710POPC   C4A35646  23.461  28.086   7.911
 2710POPC   C1B35647  24.228  28.197   8.871
 2710POPC   C2B35648  24.241  28.255   8.440
 2710POPC   C3B35649  24.079  28.263   8.019
 2710POPC   C4B35650  24.125  28.529   7.653
 2711POPC   NC335651  25.131  28.801   9.599
 2711POPC   PO435652  24.976  28.173   9.511
 2711POPC   GL135653  25.204  28.453   9.191
 2711POPC   GL235654  25.522  28.267   9.042
 2711POPC   C1A35655  25.292  28.644   8.785
 2711POPC   D2A35656  25.623  28.564   8.510
 2711POPC   C3A35657  25.474  28.663   8.093
 2711POPC   C4A35658  25.172  28.490   7.797
 2711POPC   C1B35659  25.700  27.978   8.709
 2711POPC   C2B35660  25.662  27.686   8.355
 2711POPC   C3B35661  25.544  27.901   7.968
 2711POPC   C4B35662  25.665  28.326   7.761
 2712POPC   NC335663  43.496  33.721   9.418
 2712POPC   PO435664  42.778  33.920   9.418
 2712POPC   GL135665  42.871  33.847   9.060
 2712POPC   GL235666  43.076  33.571   9.052
 2712POPC   C1A35667  43.139  34.005   8.749
 2712POPC   D2A35668  43.254  33.765   8.392
 2712POPC   C3A35669  42.957  33.906   8.106
 2712POPC   C4A35670  43.038  34.151   7.768
 2712POPC   C1B35671  42.825  33.561   8.652
 2712POPC   C2B35672  42.747  33.402   8.256
 2712POPC   C3B35673  42.756  33.511   7.850
 2712POPC   C4B35674  43.196  33.594   7.767
 2713POPC   NC335675   2.564  21.726   9.536
 2713POPC   PO435676   3.089  21.200   9.655
 2713POPC   GL135677   2.867  21.411   9.283
 2713POPC   GL235678   2.929  21.189   9.079
 2713POPC   C1A35679   2.567  21.465   8.877
 2713POPC   D2A35680   2.518  21.267   8.450
 2713POPC   C3A35681   2.557  21.543   8.079
 2713POPC   C4A35682   2.908  21.671   7.844
 2713POPC   C1B35683   3.050  21.551   8.774
 2713POPC   C2B35684   3.006  21.439   8.353
 2713POPC   C3B35685   2.891  21.164   8.091
 2713POPC   C4B35686   2.746  21.192   7.718
 2714POPC   NC335687   4.693  41.581   9.474
 2714POPC   PO435688   4.165  41.911   9.484
 2714POPC   GL135689   4.227  41.548   9.217
 2714POPC   GL235690   4.391  41.218   9.308
 2714POPC   C1A35691   4.139  41.600   8.793
 2714POPC   D2A35692   4.300  41.863   8.517
 2714POPC   C3A35693   4.218  41.720   8.133
 2714POPC   C4A35694   4.197  41.721   7.725
 2714POPC   C1B35695   4.471  41.225   8.876
 2714POPC   C2B35696   4.482  41.315   8.414
 2714POPC   C3B35697   4.486  41.296   7.924
 2714POPC   C4B35698   4.513  41.445   7.444
 2715POPC   NC335699   9.345  10.073   9.839
 2715POPC   PO435700   8.835  10.348   9.346
 2715POPC   GL135701   9.000  10.512   9.037
 2715POPC   GL235702   9.150  10.210   8.963
 2715POPC   C1A35703   9.024  10.785   8.697
 2715POPC   D2A35704   8.760  10.822   8.346
 2715POPC   C3A35705   8.835  10.510   8.015
 2715POPC   C4A35706   8.946  10.679   7.587
 2715POPC   C1B35707   9.036  10.311   8.573
 2715POPC   C2B35708   9.291  10.538   8.298
 2715POPC   C3B35709   9.315  10.376   7.902
 2715POPC   C4B35710   9.007  10.170   7.633
 2716POPC   NC335711  34.666  41.582   9.610
 2716POPC   PO435712  34.648  42.219   9.597
 2716POPC   GL135713  34.405  41.822   9.255
 2716POPC   GL235714  34.619  41.484   9.136
 2716POPC   C1A35715  34.483  41.768   8.773
 2716POPC   D2A35716  34.477  41.542   8.401
 2716POPC   C3A35717  34.767  41.566   8.063
 2716POPC   C4A35718  34.471  41.641   7.729
 2716POPC   C1B35719  34.407  41.234   8.826
 2716POPC   C2B35720  34.536  41.041   8.440
 2716POPC   C3B35721  34.442  41.167   8.014
 2716POPC   C4B35722  34.584  41.169   7.595
 2717POPC   NC335723  23.787  35.627   9.770
 2717POPC   PO435724  23.899  36.213   9.375
 2717POPC   GL135725  23.823  36.034   8.990
 2717POPC   GL235726  23.585  35.741   9.017
 2717POPC   C1A35727  23.769  36.158   8.603
 2717POPC   D2A35728  23.391  36.119   8.334
 2717POPC   C3A35729  23.519  36.109   7.916
 2717POPC   C4A35730  23.909  36.308   7.885
 2717POPC   C1B35731  23.585  35.683   8.581
 2717POPC   C2B35732  23.976  35.770   8.362
 2717POPC   C3B35733  24.101  35.641   7.982
 2717POPC   C4B35734  23.970  35.863   7.663
 2718POPC   NC335735   1.845  39.555   9.308
 2718POPC   PO435736   1.930  38.983   9.657
 2718POPC   GL135737   2.041  39.085   9.219
 2718POPC   GL235738   2.221  39.367   9.009
 2718POPC   C1A35739   1.790  39.107   8.839
 2718POPC   D2A35740   1.760  39.073   8.409
 2718POPC   C3A35741   2.103  38.899   8.214
 2718POPC   C4A35742   2.236  39.037   7.796
 2718POPC   C1B35743   2.225  39.308   8.570
 2718POPC   C2B35744   2.171  39.403   8.152
 2718POPC   C3B35745   1.827  39.295   7.913
 2718POPC   C4B35746   1.728  39.483   7.516
 2719POPC   NC335747  20.924  28.806   9.414
 2719POPC   PO435748  20.399  29.191   9.659
 2719POPC   GL135749  20.508  29.051   9.219
 2719POPC   GL235750  20.474  29.361   9.049
 2719POPC   C1A35751  20.700  28.982   8.779
 2719POPC   D2A35752  20.578  29.201   8.422
 2719POPC   C3A35753  20.839  29.275   8.065
 2719POPC   C4A35754  20.915  29.017   7.698
 2719POPC   C1B35755  20.242  29.620   8.769
 2719POPC   C2B35756  20.213  29.694   8.334
 2719POPC   C3B35757  20.340  29.415   8.040
 2719POPC   C4B35758  20.552  29.372   7.650
 2720POPC   NC335759  29.597   3.799   9.454
 2720POPC   PO435760  30.021   3.303   9.385
 2720POPC   GL135761  30.054   3.560   9.025
 2720POPC   GL235762  29.910   3.900   9.055
 2720POPC   C1A35763  30.122   3.525   8.591
 2720POPC   D2A35764  30.216   3.567   8.162
 2720POPC   C3A35765  29.948   3.297   7.936
 2720POPC   C4A35766  29.843   3.387   7.510
 2720POPC   C1B35767  29.661   3.781   8.715
 2720POPC   C2B35768  29.703   3.656   8.284
 2720POPC   C3B35769  29.833   3.784   7.871
 2720POPC   C4B35770  29.584   3.858   7.492
 2721POPC   NC335771   3.068  10.742   9.585
 2721POPC   PO435772   2.665  10.300   9.830
 2721POPC   GL135773   2.829  10.358   9.358
 2721POPC   GL235774   2.604  10.582   9.233
 2721POPC   C1A35775   2.934  10.370   8.884
 2721POPC   D2A35776   2.781  10.526   8.473
 2721POPC   C3A35777   2.931  10.375   8.045
 2721POPC   C4A35778   2.953  10.614   7.656
 2721POPC   C1B35779   2.381  10.590   8.853
 2721POPC   C2B35780   2.282  10.669   8.416
 2721POPC   C3B35781   2.524  10.711   8.050
 2721POPC   C4B35782   2.491  10.377   7.760
 2722POPC   NC335783  11.432   8.252   9.390
 2722POPC   PO435784  11.031   7.699   9.199
 2722POPC   GL135785  11.298   7.958   8.983
 2722POPC   GL235786  11.658   7.960   9.036
 2722POPC   C1A35787  11.412   8.012   8.570
 2722POPC   D2A35788  11.385   8.337   8.341
 2722POPC   C3A35789  11.370   8.176   7.979
 2722POPC   C4A35790  11.091   8.071   7.674
 2722POPC   C1B35791  11.746   8.314   8.799
 2722POPC   C2B35792  11.885   8.292   8.408
 2722POPC   C3B35793  11.796   8.536   8.098
 2722POPC   C4B35794  11.689   8.473   7.714
 2723POPC   NC335795  35.966  14.097   9.304
 2723POPC   PO435796  36.198  13.575   9.662
 2723POPC   GL135797  36.167  13.602   9.217
 2723POPC   GL235798  35.959  13.319   9.175
 2723POPC   C1A35799  36.202  13.745   8.789
 2723POPC   D2A35800  35.926  13.963   8.507
 2723POPC   C3A35801  35.981  13.851   8.096
 2723POPC   C4A35802  36.208  13.845   7.740
 2723POPC   C1B35803  36.162  13.199   8.772
 2723POPC   C2B35804  36.174  13.436   8.353
 2723POPC   C3B35805  36.010  13.361   7.919
 2723POPC   C4B35806  36.162  13.257   7.511
 2724POPC   NC335807  32.508  10.275   9.499
 2724POPC   PO435808  31.933  10.085   9.362
 2724POPC   GL135809  32.060   9.746   9.124
 2724POPC   GL235810  32.366   9.957   9.083
 2724POPC   C1A35811  32.058   9.603   8.695
 2724POPC   D2A35812  32.381   9.606   8.391
 2724POPC   C3A35813  32.238   9.647   7.977
 2724POPC   C4A35814  31.920   9.483   7.768
 2724POPC   C1B35815  32.355  10.064   8.647
 2724POPC   C2B35816  32.305  10.115   8.208
 2724POPC   C3B35817  32.529  10.038   7.827
 2724POPC   C4B35818  32.522  10.084   7.373
 2725POPC   NC335819  38.692  12.078   9.486
 2725POPC   PO435820  38.053  12.393   9.461
 2725POPC   GL135821  38.104  12.185   9.095
 2725POPC   GL235822  38.333  11.923   9.153
 2725POPC   C1A35823  38.293  12.113   8.692
 2725POPC   D2A35824  38.512  12.259   8.398
 2725POPC   C3A35825  38.413  12.064   8.058
 2725POPC   C4A35826  38.527  12.253   7.706
 2725POPC   C1B35827  38.663  11.771   8.831
 2725POPC   C2B35828  38.821  11.671   8.424
 2725POPC   C3B35829  38.679  11.599   8.012
 2725POPC   C4B35830  38.631  11.774   7.627
 2726POPC   NC335831  20.104   5.077   9.501
 2726POPC   PO435832  20.788   5.187   9.493
 2726POPC   GL135833  20.664   5.012   9.110
 2726POPC   GL235834  20.924   4.802   9.131
 2726POPC   C1A35835  20.607   5.180   8.697
 2726POPC   D2A35836  20.723   5.117   8.278
 2726POPC   C3A35837  20.446   5.044   7.995
 2726POPC   C4A35838  20.411   5.299   7.716
 2726POPC   C1B35839  21.199   4.753   8.814
 2726POPC   C2B35840  21.070   4.741   8.426
 2726POPC   C3B35841  21.138   4.906   8.061
 2726POPC   C4B35842  20.901   5.024   7.730
 2727POPC   NC335843  24.330   6.384   9.517
 2727POPC   PO435844  24.659   6.969   9.348
 2727POPC   GL135845  24.418   6.705   9.138
 2727POPC   GL235846  24.698   6.472   9.170
 2727POPC   C1A35847  24.214   6.605   8.765
 2727POPC   D2A35848  24.165   6.819   8.421
 2727POPC   C3A35849  24.346   6.654   8.040
 2727POPC   C4A35850  24.555   6.853   7.662
 2727POPC   C1B35851  24.577   6.251   8.824
 2727POPC   C2B35852  24.394   6.206   8.442
 2727POPC   C3B35853  24.594   6.193   8.065
 2727POPC   C4B35854  24.444   6.298   7.669
 2728POPC   NC335855  22.292   1.071   9.454
 2728POPC   PO435856  21.777   1.570   9.395
 2728POPC   GL135857  22.110   1.453   9.046
 2728POPC   GL235858  22.362   1.159   8.957
 2728POPC   C1A35859  22.050   1.356   8.618
 2728POPC   D2A35860  21.839   1.276   8.271
 2728POPC   C3A35861  22.034   1.175   7.902
 2728POPC   C4A35862  21.717   1.259   7.566
 2728POPC   C1B35863  22.519   1.530   8.691
 2728POPC   C2B35864  22.391   1.551   8.262
 2728POPC   C3B35865  22.530   1.356   7.920
 2728POPC   C4B35866  22.555   1.100   7.577
 2729POPC   NC335867   3.790  37.572   9.497
 2729POPC   PO435868   3.125  37.580   9.551
 2729POPC   GL135869   3.382  37.703   9.129
 2729POPC   GL235870   3.707  37.555   9.014
 2729POPC   C1A35871   3.507  37.802   8.649
 2729POPC   D2A35872   3.615  37.480   8.325
 2729POPC   C3A35873   3.539  37.640   7.928
 2729POPC   C4A35874   3.182  37.865   7.855
 2729POPC   C1B35875   4.010  37.581   8.686
 2729POPC   C2B35876   4.130  37.469   8.277
 2729POPC   C3B35877   3.982  37.383   7.901
 2729POPC   C4B35878   3.886  37.549   7.500
 2730POPC   NC335879  34.335  44.944   9.474
 2730POPC   PO435880  33.735  44.571   9.540
 2730POPC   GL135881  33.896  44.590   9.150
 2730POPC   GL235882  33.922  44.941   9.149
 2730POPC   C1A35883  33.753  44.647   8.708
 2730POPC   D2A35884  33.905  44.566   8.284
 2730POPC   C3A35885  33.593  44.586   7.929
 2730POPC   C4A35886  33.508  44.855   7.579
 2730POPC   C1B35887  34.214  44.865   8.818
 2730POPC   C2B35888  34.454  44.809   8.439
 2730POPC   C3B35889  34.341  44.892   8.020
 2730POPC   C4B35890  34.073  44.608   7.791
 2731POPC   NC335891  14.106  29.988   9.504
 2731POPC   PO435892  14.758  30.374   9.578
 2731POPC   GL135893  14.701  30.115   9.188
 2731POPC   GL235894  14.438  29.819   9.144
 2731POPC   C1A35895  14.615  30.026   8.744
 2731POPC   D2A35896  14.337  29.990   8.411
 2731POPC   C3A35897  14.465  29.959   8.019
 2731POPC   C4A35898  14.524  30.279   7.728
 2731POPC   C1B35899  14.393  29.581   8.719
 2731POPC   C2B35900  14.376  29.461   8.252
 2731POPC   C3B35901  14.368  29.515   7.789
 2731POPC   C4B35902  14.341  29.445   7.327
 2732POPC   NC335903  11.721   9.823   9.480
 2732POPC   PO435904  11.941   9.128   9.443
 2732POPC   GL135905  12.111   9.485   9.163
 2732POPC   GL235906  11.890   9.751   9.026
 2732POPC   C1A35907  12.322   9.731   8.786
 2732POPC   D2A35908  12.120  10.022   8.469
 2732POPC   C3A35909  12.310   9.994   8.053
 2732POPC   C4A35910  12.249   9.736   7.701
 2732POPC   C1B35911  11.681   9.993   8.746
 2732POPC   C2B35912  11.593   9.836   8.335
 2732POPC   C3B35913  11.835   9.801   8.013
 2732POPC   C4B35914  11.875  10.066   7.702
 2733POPC   NC335915  16.102  13.716   9.545
 2733POPC   PO435916  15.796  13.145   9.584
 2733POPC   GL135917  15.796  13.375   9.162
 2733POPC   GL235918  16.138  13.525   9.072
 2733POPC   C1A35919  15.812  13.446   8.682
 2733POPC   D2A35920  15.680  13.335   8.238
 2733POPC   C3A35921  15.921  13.547   7.883
 2733POPC   C4A35922  15.920  13.558   7.417
 2733POPC   C1B35923  16.318  13.830   8.718
 2733POPC   C2B35924  16.363  14.126   8.357
 2733POPC   C3B35925  16.483  13.992   7.924
 2733POPC   C4B35926  16.357  13.737   7.596
 2734POPC   NC335927   3.864  17.068   9.472
 2734POPC   PO435928   3.411  16.543   9.575
 2734POPC   GL135929   3.438  16.826   9.211
 2734POPC   GL235930   3.748  16.800   9.039
 2734POPC   C1A35931   3.280  16.873   8.782
 2734POPC   D2A35932   3.481  16.737   8.383
 2734POPC   C3A35933   3.399  16.888   7.981
 2734POPC   C4A35934   3.685  17.206   7.797
 2734POPC   C1B35935   3.887  16.569   8.686
 2734POPC   C2B35936   3.995  16.600   8.232
 2734POPC   C3B35937   3.828  16.692   7.810
 2734POPC   C4B35938   3.799  16.464   7.409
 2735POPC   NC335939  36.455   5.146   9.606
 2735POPC   PO435940  37.123   5.359   9.548
 2735POPC   GL135941  36.952   5.120   9.178
 2735POPC   GL235942  36.613   4.941   9.158
 2735POPC   C1A35943  36.932   5.005   8.751
 2735POPC   D2A35944  37.225   5.026   8.423
 2735POPC   C3A35945  36.965   4.909   8.100
 2735POPC   C4A35946  36.684   5.080   7.848
 2735POPC   C1B35947  36.518   4.685   8.772
 2735POPC   C2B35948  36.749   4.541   8.443
 2735POPC   C3B35949  36.547   4.604   8.059
 2735POPC   C4B35950  36.710   4.633   7.650
 2736POPC   NC335951  38.486  44.157   9.549
 2736POPC   PO435952  38.178  43.633   9.325
 2736POPC   GL135953  38.357  43.829   9.022
 2736POPC   GL235954  38.674  43.792   9.214
 2736POPC   C1A35955  38.240  44.024   8.624
 2736POPC   D2A35956  37.989  44.198   8.257
 2736POPC   C3A35957  38.115  44.018   7.819
 2736POPC   C4A35958  37.962  43.655   7.639
 2736POPC   C1B35959  38.806  43.708   8.805
 2736POPC   C2B35960  38.605  43.696   8.397
 2736POPC   C3B35961  38.510  43.670   7.922
 2736POPC   C4B35962  38.452  43.711   7.483
 2737POPC   NC335963  23.176  37.277   9.468
 2737POPC   PO435964  22.858  36.697   9.433
 2737POPC   GL135965  23.078  36.933   9.121
 2737POPC   GL235966  22.766  37.118   9.123
 2737POPC   C1A35967  23.229  37.007   8.697
 2737POPC   D2A35968  23.198  36.737   8.315
 2737POPC   C3A35969  23.088  36.872   7.848
 2737POPC   C4A35970  23.129  36.875   7.364
 2737POPC   C1B35971  22.757  36.782   8.772
 2737POPC   C2B35972  22.691  36.795   8.343
 2737POPC   C3B35973  22.610  37.030   7.976
 2737POPC   C4B35974  22.654  36.933   7.531
 2738POPC   NC335975  14.161  14.003   9.471
 2738POPC   PO435976  14.802  14.250   9.531
 2738POPC   GL135977  14.698  14.303   9.081
 2738POPC   GL235978  14.427  14.553   9.026
 2738POPC   C1A35979  14.749  14.420   8.618
 2738POPC   D2A35980  14.537  14.604   8.230
 2738POPC   C3A35981  14.603  14.336   7.818
 2738POPC   C4A35982  14.736  14.339   7.366
 2738POPC   C1B35983  14.248  14.434   8.653
 2738POPC   C2B35984  13.963  14.342   8.348
 2738POPC   C3B35985  14.060  14.384   7.940
 2738POPC   C4B35986  13.920  14.169   7.598
 2739POPC   NC335987   7.938  21.005   9.311
 2739POPC   PO435988   8.173  20.385   9.474
 2739POPC   GL135989   8.262  20.574   9.108
 2739POPC   GL235990   8.538  20.826   9.085
 2739POPC   C1A35991   8.453  20.424   8.732
 2739POPC   D2A35992   8.633  20.377   8.317
 2739POPC   C3A35993   8.385  20.268   7.979
 2739POPC   C4A35994   8.230  20.504   7.659
 2739POPC   C1B35995   8.224  20.920   8.740
 2739POPC   C2B35996   8.006  20.908   8.378
 2739POPC   C3B35997   8.166  20.888   7.979
 2739POPC   C4B35998   7.969  21.209   7.758
 2740POPC   NC335999  29.170   8.738   9.536
 2740POPC   PO436000  29.272   9.336   9.793
 2740POPC   GL136001  29.272   9.222   9.316
 2740POPC   GL236002  29.531   8.992   9.198
 2740POPC   C1A36003  29.126   9.077   8.885
 2740POPC   D2A36004  29.210   8.861   8.489
 2740POPC   C3A36005  29.261   9.021   8.080
 2740POPC   C4A36006  29.142   8.867   7.659
 2740POPC   C1B36007  29.661   8.956   8.748
 2740POPC   C2B36008  29.670   8.669   8.359
 2740POPC   C3B36009  29.667   8.752   7.916
 2740POPC   C4B36010  29.578   9.124   7.677
 2741POPC   NC336011  34.483   6.080   9.554
 2741POPC   PO436012  34.867   6.430   9.158
 2741POPC   GL136013  34.662   6.060   9.077
 2741POPC   GL236014  34.671   5.717   9.215
 2741POPC   C1A36015  34.721   5.983   8.672
 2741POPC   D2A36016  34.932   6.152   8.366
 2741POPC   C3A36017  34.715   6.257   8.005
 2741POPC   C4A36018  34.510   6.034   7.697
 2741POPC   C1B36019  34.393   5.656   8.849
 2741POPC   C2B36020  34.521   5.607   8.415
 2741POPC   C3B36021  34.484   5.621   7.975
 2741POPC   C4B36022  34.343   5.566   7.528
 2742POPC   NC336023  26.361  35.594   9.540
 2742POPC   PO436024  26.896  35.185   9.421
 2742POPC   GL136025  26.614  35.337   9.101
 2742POPC   GL236026  26.422  35.657   9.046
 2742POPC   C1A36027  26.744  35.299   8.688
 2742POPC   D2A36028  27.019  35.164   8.372
 2742POPC   C3A36029  26.901  35.172   7.965
 2742POPC   C4A36030  27.112  35.354   7.656
 2742POPC   C1B36031  26.448  35.696   8.600
 2742POPC   C2B36032  26.720  35.586   8.253
 2742POPC   C3B36033  26.753  35.660   7.843
 2742POPC   C4B36034  26.412  35.753   7.634
 2743POPC   NC336035  13.329   1.248   9.425
 2743POPC   PO436036  13.903   0.925   9.470
 2743POPC   GL136037  13.626   0.922   9.141
 2743POPC   GL236038  13.758   1.240   9.035
 2743POPC   C1A36039  13.493   0.947   8.725
 2743POPC   D2A36040  13.760   1.218   8.447
 2743POPC   C3A36041  13.722   1.229   7.999
 2743POPC   C4A36042  13.366   1.092   7.758
 2743POPC   C1B36043  13.439   1.462   8.793
 2743POPC   C2B36044  13.413   1.605   8.377
 2743POPC   C3B36045  13.345   1.571   7.933
 2743POPC   C4B36046  13.547   1.477   7.511
 2744POPC   NC336047   5.056  15.176   9.598
 2744POPC   PO436048   4.643  15.632   9.373
 2744POPC   GL136049   4.881  15.285   9.130
 2744POPC   GL236050   5.121  14.963   9.161
 2744POPC   C1A36051   5.115  15.342   8.775
 2744POPC   D2A36052   5.184  15.450   8.348
 2744POPC   C3A36053   4.813  15.391   8.084
 2744POPC   C4A36054   4.932  15.268   7.693
 2744POPC   C1B36055   4.954  14.848   8.798
 2744POPC   C2B36056   5.180  14.917   8.450
 2744POPC   C3B36057   5.126  14.971   8.047
 2744POPC   C4B36058   5.289  14.911   7.642
 2745POPC   NC336059  38.113  27.719   9.212
 2745POPC   PO436060  38.690  27.551   9.546
 2745POPC   GL136061  38.636  27.749   9.145
 2745POPC   GL236062  38.501  27.419   9.061
 2745POPC   C1A36063  38.645  27.692   8.666
 2745POPC   D2A36064  38.594  27.313   8.375
 2745POPC   C3A36065  38.400  27.343   7.983
 2745POPC   C4A36066  38.671  27.408   7.625
 2745POPC   C1B36067  38.211  27.401   8.683
 2745POPC   C2B36068  38.191  27.710   8.320
 2745POPC   C3B36069  38.171  27.858   7.870
 2745POPC   C4B36070  38.299  27.706   7.450
 2746POPC   NC336071  11.543  24.965   9.807
 2746POPC   PO436072  11.390  24.422   9.437
 2746POPC   GL136073  11.237  24.467   9.044
 2746POPC   GL236074  11.571  24.559   8.964
 2746POPC   C1A36075  11.176  24.571   8.627
 2746POPC   D2A36076  11.433  24.454   8.287
 2746POPC   C3A36077  11.311  24.205   7.938
 2746POPC   C4A36078  10.970  24.098   7.680
 2746POPC   C1B36079  11.630  24.854   8.617
 2746POPC   C2B36080  11.762  24.839   8.199
 2746POPC   C3B36081  11.647  24.594   7.829
 2746POPC   C4B36082  11.557  24.731   7.392
 2747POPC   NC336083  24.153  31.133   9.350
 2747POPC   PO436084  24.770  31.042   9.180
 2747POPC   GL136085  24.464  30.836   8.981
 2747POPC   GL236086  24.254  30.637   9.194
 2747POPC   C1A36087  24.682  30.570   8.705
 2747POPC   D2A36088  24.871  30.630   8.306
 2747POPC   C3A36089  24.558  30.842   8.058
 2747POPC   C4A36090  24.287  30.780   7.731
 2747POPC   C1B36091  24.224  30.349   8.823
 2747POPC   C2B36092  24.378  30.307   8.398
 2747POPC   C3B36093  24.230  30.331   8.001
 2747POPC   C4B36094  24.461  30.279   7.612
 2748POPC   NC336095  29.963  20.901   9.406
 2748POPC   PO436096  30.215  21.560   9.429
 2748POPC   GL136097  30.028  21.322   9.117
 2748POPC   GL236098  30.175  21.016   8.959
 2748POPC   C1A36099  29.966  21.440   8.719
 2748POPC   D2A36100  30.088  21.306   8.349
 2748POPC   C3A36101  30.005  21.629   8.099
 2748POPC   C4A36102  29.908  21.638   7.679
 2748POPC   C1B36103  29.741  20.984   8.809
 2748POPC   C2B36104  29.637  21.026   8.404
 2748POPC   C3B36105  29.853  20.975   8.040
 2748POPC   C4B36106  29.776  21.143   7.642
 2749POPC   NC336107  10.340  29.655   9.498
 2749POPC   PO436108  10.854  30.117   9.398
 2749POPC   GL136109  10.658  30.010   9.025
 2749POPC   GL236110  10.690  29.672   9.083
 2749POPC   C1A36111  10.547  29.936   8.568
 2749POPC   D2A36112  10.244  29.996   8.199
 2749POPC   C3A36113  10.493  30.136   7.854
 2749POPC   C4A36114  10.548  30.058   7.438
 2749POPC   C1B36115  10.302  29.575   8.847
 2749POPC   C2B36116  10.319  29.499   8.400
 2749POPC   C3B36117  10.565  29.637   8.043
 2749POPC   C4B36118  10.299  29.622   7.692
 2750POPC   NC336119  22.649  31.429   9.359
 2750POPC   PO436120  23.191  31.757   9.558
 2750POPC   GL136121  23.073  31.597   9.140
 2750POPC   GL236122  22.725  31.703   8.953
 2750POPC   C1A36123  23.170  31.402   8.753
 2750POPC   D2A36124  23.266  31.686   8.425
 2750POPC   C3A36125  23.083  31.689   8.060
 2750POPC   C4A36126  23.115  31.577   7.667
 2750POPC   C1B36127  22.775  31.649   8.560
 2750POPC   C2B36128  22.872  31.279   8.318
 2750POPC   C3B36129  22.792  31.231   7.884
 2750POPC   C4B36130  22.688  31.421   7.426
 2751POPC   NC336131  33.395  29.658   9.569
 2751POPC   PO436132  32.863  30.140   9.610
 2751POPC   GL136133  32.990  30.020   9.200
 2751POPC   GL236134  32.753  29.735   9.113
 2751POPC   C1A36135  32.946  30.093   8.726
 2751POPC   D2A36136  32.879  30.314   8.286
 2751POPC   C3A36137  32.883  29.962   7.968
 2751POPC   C4A36138  32.727  29.535   7.881
 2751POPC   C1B36139  33.169  29.639   8.932
 2751POPC   C2B36140  33.292  29.649   8.529
 2751POPC   C3B36141  33.149  29.501   8.161
 2751POPC   C4B36142  33.227  29.478   7.728
 2752POPC   NC336143  44.676  19.091   9.467
 2752POPC   PO436144  44.327  18.528   9.725
 2752POPC   GL136145  44.625  18.666   9.249
 2752POPC   GL236146  44.330  18.909   9.128
 2752POPC   C1A36147  44.786  18.989   8.835
 2752POPC   D2A36148  44.908  19.226   8.427
 2752POPC   C3A36149  44.870  19.016   8.028
 2752POPC   C4A36150  44.994  19.003   7.603
 2752POPC   C1B36151  44.340  19.201   8.774
 2752POPC   C2B36152  44.453  18.993   8.379
 2752POPC   C3B36153  44.330  19.098   7.970
 2752POPC   C4B36154  44.510  19.112   7.595
 2753POPC   NC336155  13.004   8.673   9.545
 2753POPC   PO436156  12.533   9.126   9.507
 2753POPC   GL136157  12.783   8.864   9.135
 2753POPC   GL236158  13.157   8.738   9.081
 2753POPC   C1A36159  12.659   8.825   8.710
 2753POPC   D2A36160  12.648   9.116   8.389
 2753POPC   C3A36161  12.621   8.879   8.031
 2753POPC   C4A36162  12.706   9.011   7.643
 2753POPC   C1B36163  13.201   8.523   8.717
 2753POPC   C2B36164  13.060   8.730   8.349
 2753POPC   C3B36165  13.100   8.777   7.900
 2753POPC   C4B36166  13.135   8.771   7.436
 2754POPC   NC336167  18.259  19.351   9.661
 2754POPC   PO436168  18.461  18.770   9.532
 2754POPC   GL136169  18.348  19.117   9.210
 2754POPC   GL236170  18.605  19.425   9.263
 2754POPC   C1A36171  18.021  19.205   8.846
 2754POPC   D2A36172  17.877  19.335   8.421
 2754POPC   C3A36173  18.091  19.015   8.157
 2754POPC   C4A36174  18.137  19.004   7.729
 2754POPC   C1B36175  18.426  19.524   8.858
 2754POPC   C2B36176  18.379  19.279   8.479
 2754POPC   C3B36177  18.372  19.426   8.056
 2754POPC   C4B36178  18.505  19.351   7.633
 2755POPC   NC336179  39.309  12.740   9.565
 2755POPC   PO436180  39.720  13.265   9.529
 2755POPC   GL136181  39.311  13.154   9.235
 2755POPC   GL236182  39.176  12.794   9.088
 2755POPC   C1A36183  39.121  13.198   8.815
 2755POPC   D2A36184  39.149  12.864   8.494
 2755POPC   C3A36185  39.215  13.096   8.126
 2755POPC   C4A36186  39.211  12.982   7.738
 2755POPC   C1B36187  39.433  12.509   8.849
 2755POPC   C2B36188  39.513  12.394   8.422
 2755POPC   C3B36189  39.319  12.550   8.025
 2755POPC   C4B36190  39.011  12.419   7.695
 2756POPC   NC336191  41.125  19.645   9.373
 2756POPC   PO436192  41.754  19.704   9.519
 2756POPC   GL136193  41.575  19.713   9.113
 2756POPC   GL236194  41.538  20.034   8.979
 2756POPC   C1A36195  41.743  19.694   8.681
 2756POPC   D2A36196  41.903  19.703   8.269
 2756POPC   C3A36197  41.573  19.485   8.053
 2756POPC   C4A36198  41.379  19.545   7.658
 2756POPC   C1B36199  41.311  20.299   8.682
 2756POPC   C2B36200  41.137  20.151   8.281
 2756POPC   C3B36201  41.373  19.986   7.927
 2756POPC   C4B36202  41.569  20.113   7.540
 2757POPC   NC336203  38.347   5.191   9.658
 2757POPC   PO436204  38.469   4.658   9.498
 2757POPC   GL136205  38.409   4.957   9.175
 2757POPC   GL236206  38.068   4.935   9.073
 2757POPC   C1A36207  38.651   5.020   8.783
 2757POPC   D2A36208  38.522   5.186   8.372
 2757POPC   C3A36209  38.590   5.085   7.947
 2757POPC   C4A36210  38.438   5.276   7.568
 2757POPC   C1B36211  38.228   4.784   8.648
 2757POPC   C2B36212  38.171   4.844   8.216
 2757POPC   C3B36213  38.152   4.873   7.779
 2757POPC   C4B36214  38.437   4.790   7.466
 2758POPC   NC336215   2.631  28.628   9.528
 2758POPC   PO436216   2.823  29.173   9.761
 2758POPC   GL136217   2.944  29.168   9.326
 2758POPC   GL236218   3.024  28.829   9.231
 2758POPC   C1A36219   2.785  29.344   8.945
 2758POPC   D2A36220   2.845  29.346   8.491
 2758POPC   C3A36221   2.558  29.441   8.171
 2758POPC   C4A36222   2.789  29.379   7.783
 2758POPC   C1B36223   2.907  28.876   8.801
 2758POPC   C2B36224   2.666  28.851   8.449
 2758POPC   C3B36225   2.780  28.972   8.071
 2758POPC   C4B36226   2.796  28.893   7.618
 2759POPC   NC336227  38.313  40.347   9.483
 2759POPC   PO436228  38.867  39.864   9.502
 2759POPC   GL136229  38.655  40.077   9.160
 2759POPC   GL236230  38.290  40.120   9.036
 2759POPC   C1A36231  38.673  40.021   8.741
 2759POPC   D2A36232  38.336  40.098   8.474
 2759POPC   C3A36233  38.433  40.245   8.083
 2759POPC   C4A36234  38.408  40.064   7.712
 2759POPC   C1B36235  38.016  40.372   8.763
 2759POPC   C2B36236  38.085  40.561   8.356
 2759POPC   C3B36237  37.962  40.386   7.946
 2759POPC   C4B36238  38.041  40.329   7.515
 2760POPC   NC336239  13.632   7.107   9.492
 2760POPC   PO436240  13.610   7.778   9.442
 2760POPC   GL136241  13.529   7.541   9.103
 2760POPC   GL236242  13.258   7.308   9.183
 2760POPC   C1A36243  13.658   7.561   8.672
 2760POPC   D2A36244  13.566   7.423   8.264
 2760POPC   C3A36245  13.840   7.385   7.932
 2760POPC   C4A36246  13.726   7.679   7.673
 2760POPC   C1B36247  13.483   7.100   8.847
 2760POPC   C2B36248  13.549   6.935   8.455
 2760POPC   C3B36249  13.321   7.008   8.113
 2760POPC   C4B36250  13.352   7.318   7.777
 2761POPC   NC336251  28.740  11.419   9.484
 2761POPC   PO436252  29.388  11.756   9.439
 2761POPC   GL136253  29.342  11.901   9.047
 2761POPC   GL236254  29.021  12.059   9.095
 2761POPC   C1A36255  29.519  12.006   8.690
 2761POPC   D2A36256  29.525  12.223   8.318
 2761POPC   C3A36257  29.495  12.023   7.910
 2761POPC   C4A36258  29.189  12.211   7.653
 2761POPC   C1B36259  29.092  12.266   8.687
 2761POPC   C2B36260  28.996  12.211   8.248
 2761POPC   C3B36261  28.744  12.185   7.899
 2761POPC   C4B36262  28.687  12.390   7.504
 2762POPC   NC336263  26.227  17.826   9.629
 2762POPC   PO436264  26.283  18.422   9.270
 2762POPC   GL136265  26.084  18.075   9.121
 2762POPC   GL236266  26.356  17.849   9.139
 2762POPC   C1A36267  25.926  18.182   8.708
 2762POPC   D2A36268  26.013  18.092   8.284
 2762POPC   C3A36269  26.156  18.428   8.019
 2762POPC   C4A36270  26.077  18.639   7.621
 2762POPC   C1B36271  26.363  17.904   8.706
 2762POPC   C2B36272  26.541  17.977   8.301
 2762POPC   C3B36273  26.317  17.899   7.913
 2762POPC   C4B36274  25.935  18.081   7.712
 2763POPC   NC336275   6.339  31.908   9.407
 2763POPC   PO436276   5.728  32.218   9.552
 2763POPC   GL136277   5.845  32.323   9.147
 2763POPC   GL236278   6.023  32.029   9.022
 2763POPC   C1A36279   5.924  32.438   8.735
 2763POPC   D2A36280   5.978  32.206   8.386
 2763POPC   C3A36281   6.038  32.450   8.066
 2763POPC   C4A36282   5.792  32.325   7.701
 2763POPC   C1B36283   6.357  32.115   8.701
 2763POPC   C2B36284   6.371  31.907   8.276
 2763POPC   C3B36285   6.116  31.972   7.909
 2763POPC   C4B36286   5.882  31.855   7.541
 2764POPC   NC336287  28.598  26.678   9.384
 2764POPC   PO436288  28.331  27.216   9.642
 2764POPC   GL136289  28.393  27.127   9.140
 2764POPC   GL236290  28.163  26.865   9.015
 2764POPC   C1A36291  28.370  27.104   8.623
 2764POPC   D2A36292  28.221  26.870   8.264
 2764POPC   C3A36293  28.217  27.063   7.851
 2764POPC   C4A36294  28.126  26.935   7.423
 2764POPC   C1B36295  28.402  26.608   8.734
 2764POPC   C2B36296  28.715  26.750   8.432
 2764POPC   C3B36297  28.713  26.883   8.014
 2764POPC   C4B36298  28.569  26.757   7.613
 2765POPC   NC336299  29.098  33.346   9.283
 2765POPC   PO436300  28.808  32.788   9.621
 2765POPC   GL136301  28.916  32.837   9.118
 2765POPC   GL236302  29.198  33.007   8.880
 2765POPC   C1A36303  28.745  33.072   8.732
 2765POPC   D2A36304  29.026  33.320   8.476
 2765POPC   C3A36305  28.944  33.340   8.048
 2765POPC   C4A36306  29.171  33.035   7.805
 2765POPC   C1B36307  29.486  33.263   8.722
 2765POPC   C2B36308  29.677  33.243   8.357
 2765POPC   C3B36309  29.605  33.242   7.944
 2765POPC   C4B36310  29.519  33.266   7.502
 2766POPC   NC336311  39.607  12.055   9.645
 2766POPC   PO436312  39.037  12.366   9.581
 2766POPC   GL136313  39.280  12.167   9.254
 2766POPC   GL236314  39.071  11.863   9.161
 2766POPC   C1A36315  39.473  11.996   8.858
 2766POPC   D2A36316  39.287  11.889   8.464
 2766POPC   C3A36317  39.451  12.008   8.063
 2766POPC   C4A36318  39.472  12.217   7.668
 2766POPC   C1B36319  38.985  12.213   8.834
 2766POPC   C2B36320  39.008  12.353   8.406
 2766POPC   C3B36321  38.928  12.071   8.063
 2766POPC   C4B36322  39.116  11.862   7.715
 2767POPC   NC336323  38.228  35.450   9.337
 2767POPC   PO436324  37.566  35.465   9.496
 2767POPC   GL136325  37.517  35.447   9.096
 2767POPC   GL236326  37.831  35.650   9.082
 2767POPC   C1A36327  37.672  35.149   8.754
 2767POPC   D2A36328  37.463  35.064   8.363
 2767POPC   C3A36329  37.644  35.112   7.954
 2767POPC   C4A36330  37.364  35.034   7.605
 2767POPC   C1B36331  37.723  35.642   8.681
 2767POPC   C2B36332  37.477  35.587   8.343
 2767POPC   C3B36333  37.570  35.637   7.915
 2767POPC   C4B36334  37.871  35.539   7.621
 2768POPC   NC336335  35.213  22.617   9.487
 2768POPC   PO436336  35.442  21.955   9.443
 2768POPC   GL136337  35.445  22.305   9.176
 2768POPC   GL236338  35.454  22.121   8.922
 2768POPC   C1A36339  35.205  22.530   8.829
 2768POPC   D2A36340  35.312  22.330   8.431
 2768POPC   C3A36341  35.128  22.460   8.049
 2768POPC   C4A36342  35.155  22.308   7.627
 2768POPC   C1B36343  35.036  22.019   8.764
 2768POPC   C2B36344  35.020  21.861   8.354
 2768POPC   C3B36345  35.289  21.955   8.022
 2768POPC   C4B36346  35.639  22.070   7.794
 2769POPC   NC336347   6.504  38.015   9.502
 2769POPC   PO436348   6.641  37.242   9.640
 2769POPC   GL136349   6.484  37.522   9.265
 2769POPC   GL236350   6.730  37.726   9.129
 2769POPC   C1A36351   6.455  37.425   8.792
 2769POPC   D2A36352   6.703  37.329   8.393
 2769POPC   C3A36353   6.478  37.393   8.009
 2769POPC   C4A36354   6.440  37.763   7.772
 2769POPC   C1B36355   6.597  37.891   8.714
 2769POPC   C2B36356   6.456  37.780   8.331
 2769POPC   C3B36357   6.824  37.806   8.084
 2769POPC   C4B36358   7.075  37.961   7.716
 2770POPC   NC336359  15.025  21.607   9.454
 2770POPC   PO436360  15.561  21.236   9.465
 2770POPC   GL136361  15.373  21.348   9.118
 2770POPC   GL236362  15.074  21.151   9.124
 2770POPC   C1A36363  15.375  21.542   8.727
 2770POPC   D2A36364  15.160  21.389   8.362
 2770POPC   C3A36365  15.310  21.522   7.965
 2770POPC   C4A36366  15.162  21.430   7.570
 2770POPC   C1B36367  14.797  21.007   8.779
 2770POPC   C2B36368  14.907  20.957   8.347
 2770POPC   C3B36369  14.841  21.186   7.955
 2770POPC   C4B36370  14.753  21.124   7.537
 2771POPC   NC336371  32.223   3.593   9.791
 2771POPC   PO436372  32.367   3.029   9.372
 2771POPC   GL136373  32.320   3.254   9.060
 2771POPC   GL236374  31.968   3.283   9.042
 2771POPC   C1A36375  32.472   3.319   8.666
 2771POPC   D2A36376  32.349   3.560   8.342
 2771POPC   C3A36377  32.253   3.368   8.003
 2771POPC   C4A36378  32.493   3.330   7.654
 2771POPC   C1B36379  32.064   3.651   8.756
 2771POPC   C2B36380  31.901   3.800   8.320
 2771POPC   C3B36381  31.989   3.786   7.854
 2771POPC   C4B36382  32.112   3.680   7.394
 2772POPC   NC336383  44.509   1.691   9.322
 2772POPC   PO436384  44.832   2.290   9.525
 2772POPC   GL136385  44.792   2.089   9.160
 2772POPC   GL236386  44.432   2.114   9.043
 2772POPC   C1A36387  44.819   1.889   8.775
 2772POPC   D2A36388  44.609   2.010   8.411
 2772POPC   C3A36389  44.828   1.856   8.042
 2772POPC   C4A36390  44.749   1.699   7.664
 2772POPC   C1B36391  44.200   2.263   8.679
 2772POPC   C2B36392  44.249   2.334   8.249
 2772POPC   C3B36393  44.374   2.091   7.916
 2772POPC   C4B36394  44.358   2.120   7.475
 2773POPC   NC336395  22.245  38.739   9.398
 2773POPC   PO436396  22.048  38.106   9.658
 2773POPC   GL136397  22.037  38.215   9.199
 2773POPC   GL236398  22.358  38.189   9.017
 2773POPC   C1A36399  21.962  38.457   8.784
 2773POPC   D2A36400  21.781  38.508   8.353
 2773POPC   C3A36401  21.954  38.499   7.959
 2773POPC   C4A36402  21.872  38.078   7.845
 2773POPC   C1B36403  22.453  38.519   8.716
 2773POPC   C2B36404  22.363  38.455   8.300
 2773POPC   C3B36405  22.466  38.406   7.896
 2773POPC   C4B36406  22.446  38.712   7.595
 2774POPC   NC336407  31.612  30.421   9.382
 2774POPC   PO436408  31.490  31.046   9.496
 2774POPC   GL136409  31.416  30.810   9.100
 2774POPC   GL236410  31.180  30.519   9.112
 2774POPC   C1A36411  31.130  30.877   8.766
 2774POPC   D2A36412  31.328  30.921   8.441
 2774POPC   C3A36413  31.049  30.871   8.172
 2774POPC   C4A36414  31.194  30.745   7.800
 2774POPC   C1B36415  31.420  30.462   8.706
 2774POPC   C2B36416  31.364  30.431   8.241
 2774POPC   C3B36417  31.537  30.371   7.802
 2774POPC   C4B36418  31.310  30.401   7.396
 2775POPC   NC336419  22.547  33.278   9.459
 2775POPC   PO436420  22.935  32.723   9.516
 2775POPC   GL136421  22.957  32.931   9.129
 2775POPC   GL236422  22.613  32.957   9.080
 2775POPC   C1A36423  23.013  33.060   8.680
 2775POPC   D2A36424  23.183  33.127   8.258
 2775POPC   C3A36425  22.939  33.179   7.878
 2775POPC   C4A36426  23.001  32.840   7.541
 2775POPC   C1B36427  22.660  32.683   8.758
 2775POPC   C2B36428  22.532  32.738   8.366
 2775POPC   C3B36429  22.687  32.752   7.979
 2775POPC   C4B36430  22.530  32.933   7.622
 2776POPC   NC336431   7.195  16.133   9.615
 2776POPC   PO436432   7.667  15.739   9.704
 2776POPC   GL136433   7.678  15.958   9.295
 2776POPC   GL236434   7.342  16.010   9.137
 2776POPC   C1A36435   7.717  15.779   8.857
 2776POPC   D2A36436   7.468  15.685   8.485
 2776POPC   C3A36437   7.557  15.725   8.062
 2776POPC   C4A36438   7.233  15.851   7.787
 2776POPC   C1B36439   7.342  16.151   8.695
 2776POPC   C2B36440   7.177  16.448   8.367
 2776POPC   C3B36441   7.304  16.407   7.962
 2776POPC   C4B36442   7.602  16.216   7.760
 2777POPC   NC336443   7.294  17.120   9.737
 2777POPC   PO436444   7.445  16.475   9.408
 2777POPC   GL136445   7.514  16.758   9.100
 2777POPC   GL236446   7.322  17.067   9.213
 2777POPC   C1A36447   7.559  16.637   8.652
 2777POPC   D2A36448   7.791  16.810   8.279
 2777POPC   C3A36449   7.677  16.807   7.829
 2777POPC   C4A36450   7.467  16.669   7.451
 2777POPC   C1B36451   7.173  17.004   8.794
 2777POPC   C2B36452   7.339  17.032   8.411
 2777POPC   C3B36453   7.233  16.903   8.039
 2777POPC   C4B36454   7.160  17.036   7.621
 2778POPC   NC336455  21.910  26.738   9.397
 2778POPC   PO436456  22.469  26.256   9.553
 2778POPC   GL136457  22.375  26.508   9.172
 2778POPC   GL236458  22.399  26.875   9.209
 2778POPC   C1A36459  22.107  26.582   8.789
 2778POPC   D2A36460  21.939  26.819   8.444
 2778POPC   C3A36461  22.046  26.604   8.091
 2778POPC   C4A36462  22.055  26.707   7.691
 2778POPC   C1B36463  22.308  27.063   8.802
 2778POPC   C2B36464  22.274  27.255   8.394
 2778POPC   C3B36465  22.097  27.165   8.002
 2778POPC   C4B36466  22.368  27.164   7.678
 2779POPC   NC336467  19.421  12.621   9.506
 2779POPC   PO436468  18.988  13.182   9.389
 2779POPC   GL136469  19.078  12.813   9.149
 2779POPC   GL236470  19.418  12.859   9.027
 2779POPC   C1A36471  19.015  12.651   8.723
 2779POPC   D2A36472  19.222  12.594   8.308
 2779POPC   C3A36473  19.024  12.685   7.936
 2779POPC   C4A36474  18.844  12.541   7.548
 2779POPC   C1B36475  19.146  13.158   8.762
 2779POPC   C2B36476  18.989  13.226   8.348
 2779POPC   C3B36477  19.168  13.206   7.942
 2779POPC   C4B36478  18.895  13.073   7.637
 2780POPC   NC336479  13.150  37.625   9.462
 2780POPC   PO436480  13.709  37.973   9.354
 2780POPC   GL136481  13.676  37.805   8.980
 2780POPC   GL236482  13.450  37.534   8.992
 2780POPC   C1A36483  13.674  37.874   8.576
 2780POPC   D2A36484  13.318  37.690   8.356
 2780POPC   C3A36485  13.426  37.602   7.926
 2780POPC   C4A36486  13.768  37.812   7.698
 2780POPC   C1B36487  13.827  37.404   8.730
 2780POPC   C2B36488  13.756  37.370   8.314
 2780POPC   C3B36489  13.900  37.370   7.914
 2780POPC   C4B36490  13.833  37.369   7.435
 2781POPC   NC336491  42.087  34.899   9.382
 2781POPC   PO436492  42.535  35.420   9.503
 2781POPC   GL136493  42.322  35.335   9.182
 2781POPC   GL236494  42.024  35.461   9.311
 2781POPC   C1A36495  42.450  35.345   8.785
 2781POPC   D2A36496  42.395  35.192   8.396
 2781POPC   C3A36497  42.584  35.290   8.036
 2781POPC   C4A36498  42.277  35.157   7.695
 2781POPC   C1B36499  42.031  35.634   8.882
 2781POPC   C2B36500  42.160  35.627   8.463
 2781POPC   C3B36501  42.101  35.460   8.060
 2781POPC   C4B36502  41.979  35.629   7.662
 2782POPC   NC336503   1.292   9.394   9.510
 2782POPC   PO436504   0.791   8.978   9.479
 2782POPC   GL136505   1.097   8.980   9.148
 2782POPC   GL236506   1.153   9.314   9.032
 2782POPC   C1A36507   1.293   8.732   8.799
 2782POPC   D2A36508   1.206   8.524   8.395
 2782POPC   C3A36509   1.236   8.806   8.040
 2782POPC   C4A36510   1.230   8.732   7.621
 2782POPC   C1B36511   1.016   9.176   8.667
 2782POPC   C2B36512   0.860   9.321   8.321
 2782POPC   C3B36513   0.899   9.187   7.897
 2782POPC   C4B36514   1.069   9.185   7.479
 2783POPC   NC336515  31.347  39.565   9.681
 2783POPC   PO436516  31.698  40.180   9.663
 2783POPC   GL136517  31.649  40.000   9.288
 2783POPC   GL236518  31.318  39.915   9.263
 2783POPC   C1A36519  31.611  40.019   8.837
 2783POPC   D2A36520  31.628  40.227   8.436
 2783POPC   C3A36521  31.574  39.969   8.068
 2783POPC   C4A36522  31.657  40.138   7.669
 2783POPC   C1B36523  31.103  39.887   8.823
 2783POPC   C2B36524  31.196  39.839   8.400
 2783POPC   C3B36525  31.094  39.672   7.999
 2783POPC   C4B36526  31.282  39.800   7.666
 2784POPC   NC336527  34.081  40.912   9.420
 2784POPC   PO436528  34.600  40.373   9.451
 2784POPC   GL136529  34.522  40.724   9.210
 2784POPC   GL236530  34.758  40.975   9.126
 2784POPC   C1A36531  34.388  40.718   8.813
 2784POPC   D2A36532  34.272  40.532   8.469
 2784POPC   C3A36533  34.458  40.651   8.078
 2784POPC   C4A36534  34.214  40.781   7.733
 2784POPC   C1B36535  34.896  40.693   8.778
 2784POPC   C2B36536  34.928  40.750   8.345
 2784POPC   C3B36537  35.021  40.625   7.957
 2784POPC   C4B36538  35.022  40.394   7.595
 2785POPC   NC336539  36.751  27.506   9.964
 2785POPC   PO436540  37.274  27.692   9.496
 2785POPC   GL136541  37.113  27.697   9.123
 2785POPC   GL236542  36.845  27.454   9.137
 2785POPC   C1A36543  37.033  27.749   8.713
 2785POPC   D2A36544  36.749  27.478   8.533
 2785POPC   C3A36545  36.806  27.512   8.116
 2785POPC   C4A36546  36.785  27.717   7.755
 2785POPC   C1B36547  37.139  27.260   8.815
 2785POPC   C2B36548  37.236  27.317   8.375
 2785POPC   C3B36549  37.052  27.082   8.048
 2785POPC   C4B36550  36.853  27.200   7.665
 2786POPC   NC336551  22.617  13.403   9.581
 2786POPC   PO436552  23.222  13.782   9.701
 2786POPC   GL136553  23.152  13.680   9.242
 2786POPC   GL236554  22.847  13.512   9.134
 2786POPC   C1A36555  23.137  13.746   8.776
 2786POPC   D2A36556  22.882  13.733   8.373
 2786POPC   C3A36557  23.015  13.396   8.130
 2786POPC   C4A36558  23.327  13.594   7.887
 2786POPC   C1B36559  22.609  13.577   8.756
 2786POPC   C2B36560  22.403  13.447   8.364
 2786POPC   C3B36561  22.529  13.464   7.937
 2786POPC   C4B36562  22.836  13.782   7.832
 2787POPC   NC336563  21.161  34.270   9.341
 2787POPC   PO436564  20.854  33.597   9.278
 2787POPC   GL136565  21.202  33.828   9.054
 2787POPC   GL236566  21.107  34.148   8.864
 2787POPC   C1A36567  21.338  33.791   8.609
 2787POPC   D2A36568  21.187  33.570   8.240
 2787POPC   C3A36569  21.436  33.693   7.908
 2787POPC   C4A36570  21.726  34.048   7.812
 2787POPC   C1B36571  20.894  34.133   8.480
 2787POPC   C2B36572  21.172  34.085   8.137
 2787POPC   C3B36573  21.203  34.091   7.703
 2787POPC   C4B36574  21.003  34.074   7.285
 2788POPC   NC336575   8.534   3.719   9.501
 2788POPC   PO436576   8.315   3.105   9.349
 2788POPC   GL136577   8.099   3.498   9.217
 2788POPC   GL236578   8.376   3.671   9.024
 2788POPC   C1A36579   7.902   3.615   8.813
 2788POPC   D2A36580   8.155   3.627   8.455
 2788POPC   C3A36581   8.001   3.716   8.061
 2788POPC   C4A36582   7.915   3.328   7.892
 2788POPC   C1B36583   8.605   3.829   8.658
 2788POPC   C2B36584   8.436   4.009   8.270
 2788POPC   C3B36585   8.540   3.749   7.938
 2788POPC   C4B36586   8.402   3.604   7.543
 2789POPC   NC336587  12.913  32.333   9.507
 2789POPC   PO436588  12.953  31.665   9.468
 2789POPC   GL136589  12.950  31.943   9.149
 2789POPC   GL236590  13.288  32.064   9.207
 2789POPC   C1A36591  12.765  32.176   8.786
 2789POPC   D2A36592  12.927  32.125   8.367
 2789POPC   C3A36593  12.659  32.181   8.010
 2789POPC   C4A36594  12.621  32.167   7.543
 2789POPC   C1B36595  13.239  32.389   8.874
 2789POPC   C2B36596  13.293  32.512   8.432
 2789POPC   C3B36597  13.155  32.453   8.024
 2789POPC   C4B36598  13.118  32.161   7.727
 2790POPC   NC336599  29.205   0.430   9.556
 2790POPC   PO436600  28.539   0.564   9.473
 2790POPC   GL136601  28.820   0.435   9.117
 2790POPC   GL236602  29.199   0.575   9.062
 2790POPC   C1A36603  28.866   0.595   8.673
 2790POPC   D2A36604  29.201   0.482   8.404
 2790POPC   C3A36605  29.061   0.450   8.007
 2790POPC   C4A36606  28.835   0.323   7.738
 2790POPC   C1B36607  29.442   0.270   8.790
 2790POPC   C2B36608  29.642   0.247   8.374
 2790POPC   C3B36609  29.546   0.368   7.976
 2790POPC   C4B36610  29.321   0.158   7.635
 2791POPC   NC336611  40.671  24.150   9.795
 2791POPC   PO436612  41.169  24.589   9.591
 2791POPC   GL136613  40.804  24.534   9.188
 2791POPC   GL236614  40.559  24.247   9.237
 2791POPC   C1A36615  40.936  24.492   8.700
 2791POPC   D2A36616  41.201  24.502   8.320
 2791POPC   C3A36617  40.891  24.623   8.028
 2791POPC   C4A36618  40.479  24.783   7.919
 2791POPC   C1B36619  40.524  24.197   8.781
 2791POPC   C2B36620  40.701  24.231   8.351
 2791POPC   C3B36621  40.679  24.125   7.938
 2791POPC   C4B36622  40.698  24.404   7.620
 2792POPC   NC336623  13.848  16.974   9.719
 2792POPC   PO436624  13.467  16.450   9.636
 2792POPC   GL136625  13.615  16.676   9.277
 2792POPC   GL236626  13.608  16.378   9.062
 2792POPC   C1A36627  13.551  16.903   8.876
 2792POPC   D2A36628  13.689  16.893   8.451
 2792POPC   C3A36629  13.501  17.045   8.054
 2792POPC   C4A36630  13.400  16.889   7.625
 2792POPC   C1B36631  13.932  16.538   8.770
 2792POPC   C2B36632  14.039  16.527   8.303
 2792POPC   C3B36633  13.947  16.596   7.834
 2792POPC   C4B36634  14.035  16.405   7.410
 2793POPC   NC336635  44.021  36.232   9.487
 2793POPC   PO436636  43.388  36.500   9.499
 2793POPC   GL136637  43.682  36.517   9.089
 2793POPC   GL236638  43.993  36.317   8.995
 2793POPC   C1A36639  43.740  36.430   8.589
 2793POPC   D2A36640  43.767  36.082   8.299
 2793POPC   C3A36641  43.615  36.138   7.892
 2793POPC   C4A36642  43.835  36.242   7.515
 2793POPC   C1B36643  44.064  35.933   8.696
 2793POPC   C2B36644  44.260  35.922   8.314
 2793POPC   C3B36645  44.122  36.011   7.894
 2793POPC   C4B36646  44.361  36.009   7.527
 2794POPC   NC336647  29.403  31.837   9.520
 2794POPC   PO436648  29.711  32.453   9.672
 2794POPC   GL136649  29.693  32.248   9.251
 2794POPC   GL236650  29.990  32.080   9.117
 2794POPC   C1A36651  29.598  32.130   8.798
 2794POPC   D2A36652  29.813  32.114   8.455
 2794POPC   C3A36653  29.635  32.261   8.095
 2794POPC   C4A36654  29.829  32.128   7.707
 2794POPC   C1B36655  30.176  32.304   8.796
 2794POPC   C2B36656  30.092  32.535   8.434
 2794POPC   C3B36657  30.118  32.388   8.049
 2794POPC   C4B36658  30.058  32.575   7.653
 2795POPC   NC336659  17.284  34.820   9.524
 2795POPC   PO436660  17.592  34.144   9.520
 2795POPC   GL136661  17.549  34.269   9.122
 2795POPC   GL236662  17.550  34.629   9.126
 2795POPC   C1A36663  17.804  34.377   8.773
 2795POPC   D2A36664  17.778  34.779   8.594
 2795POPC   C3A36665  17.779  34.704   8.149
 2795POPC   C4A36666  17.643  34.598   7.732
 2795POPC   C1B36667  17.328  34.572   8.743
 2795POPC   C2B36668  17.314  34.773   8.360
 2795POPC   C3B36669  17.192  34.698   7.964
 2795POPC   C4B36670  17.109  34.447   7.620
 2796POPC   NC336671   4.010  38.383   9.426
 2796POPC   PO436672   4.491  38.035   9.618
 2796POPC   GL136673   4.577  38.075   9.156
 2796POPC   GL236674   4.350  38.361   9.031
 2796POPC   C1A36675   4.497  38.058   8.678
 2796POPC   D2A36676   4.260  38.356   8.404
 2796POPC   C3A36677   4.470  38.424   8.024
 2796POPC   C4A36678   4.299  38.249   7.675
 2796POPC   C1B36679   4.331  38.733   8.748
 2796POPC   C2B36680   4.318  38.972   8.383
 2796POPC   C3B36681   4.117  38.799   8.045
 2796POPC   C4B36682   4.262  38.756   7.673
 2797POPC   NC336683  39.551  44.183   9.467
 2797POPC   PO436684  38.943  44.048   9.571
 2797POPC   GL136685  39.194  43.857   9.231
 2797POPC   GL236686  39.533  43.665   9.268
 2797POPC   C1A36687  39.197  44.030   8.809
 2797POPC   D2A36688  39.130  43.758   8.399
 2797POPC   C3A36689  38.940  43.953   8.096
 2797POPC   C4A36690  38.733  44.104   7.725
 2797POPC   C1B36691  39.799  43.623   8.864
 2797POPC   C2B36692  39.628  43.472   8.401
 2797POPC   C3B36693  39.397  43.464   8.003
 2797POPC   C4B36694  39.481  43.371   7.534
 2798POPC   NC336695  43.742  20.641   9.562
 2798POPC   PO436696  43.097  20.633   9.719
 2798POPC   GL136697  43.253  20.619   9.243
 2798POPC   GL236698  43.522  20.424   9.147
 2798POPC   C1A36699  43.091  20.679   8.815
 2798POPC   D2A36700  42.953  20.815   8.397
 2798POPC   C3A36701  43.064  20.539   8.058
 2798POPC   C4A36702  42.936  20.508   7.655
 2798POPC   C1B36703  43.606  20.631   8.762
 2798POPC   C2B36704  43.436  20.511   8.412
 2798POPC   C3B36705  43.568  20.388   8.027
 2798POPC   C4B36706  43.492  20.681   7.732
 2799POPC   NC336707   8.695  25.517   9.346
 2799POPC   PO436708   9.356  25.331   9.501
 2799POPC   GL136709   9.076  25.179   9.177
 2799POPC   GL236710   9.015  25.459   8.933
 2799POPC   C1A36711   9.058  24.962   8.784
 2799POPC   D2A36712   9.005  25.185   8.410
 2799POPC   C3A36713   8.888  25.088   7.986
 2799POPC   C4A36714   8.987  25.476   7.746
 2799POPC   C1B36715   8.634  25.229   8.784
 2799POPC   C2B36716   8.465  25.038   8.450
 2799POPC   C3B36717   8.339  25.027   8.071
 2799POPC   C4B36718   8.490  25.399   7.852
 2800POPC   NC336719   1.475  17.184   9.386
 2800POPC   PO436720   1.284  17.867   9.540
 2800POPC   GL136721   1.144  17.681   9.130
 2800POPC   GL236722   0.755  17.630   9.109
 2800POPC   C1A36723   1.287  17.579   8.681
 2800POPC   D2A36724   1.614  17.688   8.370
 2800POPC   C3A36725   1.542  17.439   7.999
 2800POPC   C4A36726   1.205  17.179   7.858
 2800POPC   C1B36727   0.830  17.791   8.698
 2800POPC   C2B36728   0.930  17.877   8.249
 2800POPC   C3B36729   1.065  17.672   7.843
 2800POPC   C4B36730   0.912  17.544   7.401
 2801POPC   NC336731   5.783  40.989   9.644
 2801POPC   PO436732   5.674  40.669   9.100
 2801POPC   GL136733   5.456  41.009   8.943
 2801POPC   GL236734   5.271  40.802   8.767
 2801POPC   C1A36735   5.510  41.166   8.491
 2801POPC   D2A36736   5.814  41.017   8.190
 2801POPC   C3A36737   5.809  40.965   7.745
 2801POPC   C4A36738   6.050  40.614   7.579
 2801POPC   C1B36739   5.567  40.630   8.474
 2801POPC   C2B36740   5.656  40.511   8.083
 2801POPC   C3B36741   5.519  40.543   7.697
 2801POPC   C4B36742   5.460  40.474   7.273
 2802POPC   NC336743  13.707  40.565   9.436
 2802POPC   PO436744  13.677  41.144   9.291
 2802POPC   GL136745  13.756  40.858   9.016
 2802POPC   GL236746  13.456  40.702   9.006
 2802POPC   C1A36747  13.849  40.895   8.605
 2802POPC   D2A36748  13.581  40.877   8.257
 2802POPC   C3A36749  13.808  40.947   7.894
 2802POPC   C4A36750  14.081  40.642   7.848
 2802POPC   C1B36751  13.636  40.371   8.795
 2802POPC   C2B36752  13.549  40.154   8.439
 2802POPC   C3B36753  13.365  40.381   8.125
 2802POPC   C4B36754  13.342  40.702   7.837
 2803POPC   NC336755  23.420  34.818   9.368
 2803POPC   PO436756  23.848  34.335   9.418
 2803POPC   GL136757  23.952  34.465   9.039
 2803POPC   GL236758  23.688  34.690   8.961
 2803POPC   C1A36759  23.837  34.317   8.638
 2803POPC   D2A36760  23.969  34.381   8.245
 2803POPC   C3A36761  23.932  34.257   7.856
 2803POPC   C4A36762  23.603  34.388   7.756
 2803POPC   C1B36763  23.455  34.693   8.583
 2803POPC   C2B36764  23.469  34.893   8.203
 2803POPC   C3B36765  23.740  34.925   7.883
 2803POPC   C4B36766  23.633  34.824   7.488
 2804POPC   NC336767   2.603  13.965   9.449
 2804POPC   PO436768   2.784  13.303   9.523
 2804POPC   GL136769   2.661  13.267   9.103
 2804POPC   GL236770   2.567  13.608   9.078
 2804POPC   C1A36771   2.717  13.317   8.689
 2804POPC   D2A36772   2.775  13.654   8.435
 2804POPC   C3A36773   2.838  13.431   8.129
 2804POPC   C4A36774   2.576  13.232   7.827
 2804POPC   C1B36775   2.598  13.966   8.802
 2804POPC   C2B36776   2.482  14.073   8.401
 2804POPC   C3B36777   2.414  13.756   8.096
 2804POPC   C4B36778   2.664  13.734   7.738
 2805POPC   NC336779   9.712  13.121   9.470
 2805POPC   PO436780   9.891  12.481   9.263
 2805POPC   GL136781   9.757  12.810   9.043
 2805POPC   GL236782   9.445  12.912   9.087
 2805POPC   C1A36783   9.784  12.936   8.638
 2805POPC   D2A36784  10.110  12.922   8.345
 2805POPC   C3A36785   9.851  12.920   7.974
 2805POPC   C4A36786   9.654  12.942   7.555
 2805POPC   C1B36787   9.280  12.806   8.688
 2805POPC   C2B36788   9.405  12.751   8.251
 2805POPC   C3B36789   9.512  12.559   7.862
 2805POPC   C4B36790   9.378  12.538   7.401
 2806POPC   NC336791  14.798  29.537   9.597
 2806POPC   PO436792  14.964  28.857   9.435
 2806POPC   GL136793  15.122  29.123   9.125
 2806POPC   GL236794  15.286  29.356   9.318
 2806POPC   C1A36795  15.199  29.140   8.694
 2806POPC   D2A36796  15.428  29.219   8.358
 2806POPC   C3A36797  15.204  29.138   8.020
 2806POPC   C4A36798  15.390  28.958   7.652
 2806POPC   C1B36799  15.372  29.549   8.934
 2806POPC   C2B36800  15.322  29.684   8.509
 2806POPC   C3B36801  15.512  29.656   8.105
 2806POPC   C4B36802  15.428  29.469   7.711
 2807POPC   NC336803  11.547   5.656   9.435
 2807POPC   PO436804  10.965   5.909   9.324
 2807POPC   GL136805  11.264   5.741   9.028
 2807POPC   GL236806  11.591   5.917   8.975
 2807POPC   C1A36807  11.209   5.567   8.627
 2807POPC   D2A36808  11.418   5.617   8.283
 2807POPC   C3A36809  11.318   5.813   7.906
 2807POPC   C4A36810  11.537   5.896   7.536
 2807POPC   C1B36811  11.309   6.087   8.658
 2807POPC   C2B36812  11.040   6.018   8.316
 2807POPC   C3B36813  10.965   6.191   7.897
 2807POPC   C4B36814  11.156   6.232   7.480
 2808POPC   NC336815  15.124  41.570   9.742
 2808POPC   PO436816  15.332  42.097   9.557
 2808POPC   GL136817  15.152  41.856   9.282
 2808POPC   GL236818  15.431  41.686   9.152
 2808POPC   C1A36819  15.057  41.887   8.843
 2808POPC   D2A36820  14.953  41.643   8.462
 2808POPC   C3A36821  15.077  41.754   8.023
 2808POPC   C4A36822  14.905  41.894   7.599
 2808POPC   C1B36823  15.383  41.480   8.733
 2808POPC   C2B36824  15.469  41.480   8.314
 2808POPC   C3B36825  15.314  41.289   7.980
 2808POPC   C4B36826  15.155  41.440   7.592
 2809POPC   NC336827  42.415  18.827   9.777
 2809POPC   PO436828  42.394  18.219   9.481
 2809POPC   GL136829  42.364  18.176   9.092
 2809POPC   GL236830  42.143  17.949   9.081
 2809POPC   C1A36831  42.227  18.302   8.690
 2809POPC   D2A36832  42.152  18.134   8.276
 2809POPC   C3A36833  42.484  18.322   8.024
 2809POPC   C4A36834  42.473  18.490   7.599
 2809POPC   C1B36835  42.254  17.767   8.692
 2809POPC   C2B36836  41.949  17.639   8.365
 2809POPC   C3B36837  41.930  17.774   7.940
 2809POPC   C4B36838  42.248  18.032   7.686
 2810POPC   NC336839  31.782  15.457   9.141
 2810POPC   PO436840  31.315  15.148   9.506
 2810POPC   GL136841  31.360  14.897   9.154
 2810POPC   GL236842  31.706  14.931   9.128
 2810POPC   C1A36843  31.307  15.072   8.732
 2810POPC   D2A36844  31.528  15.358   8.415
 2810POPC   C3A36845  31.402  15.501   7.940
 2810POPC   C4A36846  31.142  15.440   7.517
 2810POPC   C1B36847  31.716  14.682   8.782
 2810POPC   C2B36848  31.589  14.813   8.406
 2810POPC   C3B36849  31.399  15.015   8.074
 2810POPC   C4B36850  31.395  15.014   7.636
 2811POPC   NC336851  35.683   1.053   9.367
 2811POPC   PO436852  35.059   1.152   9.424
 2811POPC   GL136853  35.255   1.328   9.101
 2811POPC   GL236854  35.526   1.530   9.150
 2811POPC   C1A36855  35.129   1.320   8.688
 2811POPC   D2A36856  35.027   0.964   8.444
 2811POPC   C3A36857  35.069   1.102   8.033
 2811POPC   C4A36858  35.232   1.396   7.722
 2811POPC   C1B36859  35.648   1.321   8.752
 2811POPC   C2B36860  35.507   1.107   8.363
 2811POPC   C3B36861  35.624   1.143   7.946
 2811POPC   C4B36862  35.746   1.536   7.834
 2812POPC   NC336863  17.889  33.874   9.272
 2812POPC   PO436864  17.280  33.609   9.594
 2812POPC   GL136865  17.389  33.775   9.214
 2812POPC   GL236866  17.580  33.559   8.995
 2812POPC   C1A36867  17.249  33.955   8.845
 2812POPC   D2A36868  17.275  33.613   8.546
 2812POPC   C3A36869  17.387  33.708   8.146
 2812POPC   C4A36870  17.104  33.774   7.821
 2812POPC   C1B36871  17.700  33.876   8.649
 2812POPC   C2B36872  17.423  34.177   8.413
 2812POPC   C3B36873  17.394  34.207   7.979
 2812POPC   C4B36874  17.791  34.100   7.779
 2813POPC   NC336875  26.923  33.989   9.769
 2813POPC   PO436876  26.870  33.463   9.350
 2813POPC   GL136877  26.863  33.799   9.035
 2813POPC   GL236878  27.163  33.567   8.911
 2813POPC   C1A36879  26.969  33.954   8.665
 2813POPC   D2A36880  26.903  33.746   8.308
 2813POPC   C3A36881  26.818  33.998   8.014
 2813POPC   C4A36882  26.709  33.913   7.614
 2813POPC   C1B36883  26.789  33.416   8.700
 2813POPC   C2B36884  26.664  33.212   8.341
 2813POPC   C3B36885  26.737  33.409   7.952
 2813POPC   C4B36886  27.173  33.347   7.912
 2814POPC   NC336887   3.804  12.847   9.505
 2814POPC   PO436888   4.490  12.893   9.601
 2814POPC   GL136889   4.295  12.872   9.154
 2814POPC   GL236890   3.986  13.090   9.083
 2814POPC   C1A36891   4.314  12.897   8.679
 2814POPC   D2A36892   4.549  13.116   8.369
 2814POPC   C3A36893   4.535  12.812   8.042
 2814POPC   C4A36894   4.491  12.567   7.661
 2814POPC   C1B36895   3.863  12.748   8.798
 2814POPC   C2B36896   3.749  12.795   8.360
 2814POPC   C3B36897   3.892  12.943   7.961
 2814POPC   C4B36898   4.230  13.035   7.687
 2815POPC   NC336899  42.496  19.659   9.464
 2815POPC   PO436900  42.182  20.286   9.510
 2815POPC   GL136901  42.041  20.000   9.141
 2815POPC   GL236902  42.087  19.625   9.125
 2815POPC   C1A36903  42.195  19.933   8.712
 2815POPC   D2A36904  42.406  19.731   8.368
 2815POPC   C3A36905  42.359  19.863   7.952
 2815POPC   C4A36906  42.682  20.051   7.692
 2815POPC   C1B36907  42.203  19.417   8.729
 2815POPC   C2B36908  42.322  19.235   8.298
 2815POPC   C3B36909  42.093  19.340   7.922
 2815POPC   C4B36910  41.889  19.731   7.740
 2816POPC   NC336911   0.838   2.560   9.269
 2816POPC   PO436912   1.258   2.833   9.659
 2816POPC   GL136913   1.330   2.707   9.270
 2816POPC   GL236914   1.257   3.060   9.173
 2816POPC   C1A36915   1.454   2.482   8.892
 2816POPC   D2A36916   1.570   2.754   8.540
 2816POPC   C3A36917   1.452   2.660   8.135
 2816POPC   C4A36918   1.406   2.881   7.733
 2816POPC   C1B36919   1.143   2.866   8.804
 2816POPC   C2B36920   1.035   2.711   8.445
 2816POPC   C3B36921   0.999   2.860   8.052
 2816POPC   C4B36922   1.032   2.533   7.791
 2817POPC   NC336923  34.545  22.589   9.467
 2817POPC   PO436924  34.062  23.100   9.501
 2817POPC   GL136925  34.341  22.973   9.167
 2817POPC   GL236926  34.658  23.200   9.100
 2817POPC   C1A36927  34.278  22.876   8.750
 2817POPC   D2A36928  34.253  23.122   8.397
 2817POPC   C3A36929  34.337  22.951   7.990
 2817POPC   C4A36930  34.218  23.250   7.681
 2817POPC   C1B36931  34.772  22.852   8.855
 2817POPC   C2B36932  34.657  22.795   8.405
 2817POPC   C3B36933  34.869  22.927   8.025
 2817POPC   C4B36934  34.921  22.795   7.597
 2818POPC   NC336935  40.221  32.569   9.492
 2818POPC   PO436936  39.905  31.909   9.511
 2818POPC   GL136937  39.949  32.190   9.196
 2818POPC   GL236938  40.290  32.131   9.206
 2818POPC   C1A36939  39.990  32.087   8.779
 2818POPC   D2A36940  40.112  31.954   8.404
 2818POPC   C3A36941  39.832  32.092   8.116
 2818POPC   C4A36942  39.934  32.147   7.707
 2818POPC   C1B36943  40.359  32.424   8.870
 2818POPC   C2B36944  40.206  32.501   8.481
 2818POPC   C3B36945  40.246  32.368   8.084
 2818POPC   C4B36946  40.389  32.364   7.669
 2819POPC   NC336947  32.197  42.137   9.543
 2819POPC   PO436948  32.261  42.843   9.756
 2819POPC   GL136949  32.148  42.612   9.299
 2819POPC   GL236950  32.447  42.537   9.140
 2819POPC   C1A36951  32.097  42.308   8.854
 2819POPC   D2A36952  31.982  42.139   8.400
 2819POPC   C3A36953  32.102  42.267   7.977
 2819POPC   C4A36954  32.131  41.972   7.624
 2819POPC   C1B36955  32.583  42.444   8.741
 2819POPC   C2B36956  32.464  42.510   8.342
 2819POPC   C3B36957  32.664  42.551   7.968
 2819POPC   C4B36958  32.408  42.562   7.649
 2820POPC   NC336959  30.380  30.053   9.388
 2820POPC   PO436960  29.736  29.934   9.573
 2820POPC   GL136961  29.920  29.880   9.187
 2820POPC   GL236962  29.930  30.200   9.113
 2820POPC   C1A36963  29.781  29.856   8.778
 2820POPC   D2A36964  29.901  30.119   8.451
 2820POPC   C3A36965  29.829  29.920   8.054
 2820POPC   C4A36966  29.851  30.076   7.651
 2820POPC   C1B36967  30.277  30.245   8.817
 2820POPC   C2B36968  30.507  30.074   8.488
 2820POPC   C3B36969  30.309  30.155   8.087
 2820POPC   C4B36970  30.361  30.205   7.657
 2821POPC   NC336971   5.110  23.152   9.552
 2821POPC   PO436972   4.862  22.481   9.463
 2821POPC   GL136973   5.135  22.802   9.157
 2821POPC   GL236974   5.376  23.144   9.135
 2821POPC   C1A36975   5.039  23.053   8.761
 2821POPC   D2A36976   5.072  23.186   8.316
 2821POPC   C3A36977   5.016  22.870   7.967
 2821POPC   C4A36978   4.970  22.989   7.519
 2821POPC   C1B36979   5.513  22.877   8.803
 2821POPC   C2B36980   5.364  22.738   8.420
 2821POPC   C3B36981   5.501  22.987   8.089
 2821POPC   C4B36982   5.287  23.288   7.831
 2822POPC   NC336983  16.525  38.040   9.503
 2822POPC   PO436984  16.833  38.570   9.594
 2822POPC   GL136985  16.620  38.426   9.185
 2822POPC   GL236986  16.911  38.248   9.151
 2822POPC   C1A36987  16.430  38.460   8.738
 2822POPC   D2A36988  16.516  38.554   8.300
 2822POPC   C3A36989  16.369  38.505   7.875
 2822POPC   C4A36990  16.642  38.399   7.530
 2822POPC   C1B36991  16.938  38.556   8.811
 2822POPC   C2B36992  17.016  38.499   8.409
 2822POPC   C3B36993  17.259  38.446   8.085
 2822POPC   C4B36994  17.102  38.564   7.703
 2823POPC   NC336995  16.992   3.911   9.962
 2823POPC   PO436996  17.317   3.525   9.487
 2823POPC   GL136997  17.596   3.389   9.165
 2823POPC   GL236998  17.824   3.651   9.166
 2823POPC   C1A36999  17.623   3.191   8.781
 2823POPC   D2A37000  17.485   3.307   8.413
 2823POPC   C3A37001  17.629   3.140   8.067
 2823POPC   C4A37002  17.583   3.313   7.700
 2823POPC   C1B37003  17.518   3.702   8.794
 2823POPC   C2B37004  17.616   3.793   8.376
 2823POPC   C3B37005  17.462   3.736   7.983
 2823POPC   C4B37006  17.665   3.807   7.567
 2824POPC   NC337007  15.153  44.825   9.565
 2824POPC   PO437008  15.515  44.305   9.630
 2824POPC   GL137009  15.459  44.581   9.238
 2824POPC   GL237010  15.125  44.542   9.152
 2824POPC   C1A37011  15.416  44.767   8.806
 2824POPC   D2A37012  15.233  44.693   8.412
 2824POPC   C3A37013  15.294  44.829   8.030
 2824POPC   C4A37014  15.482  44.683   7.715
 2824POPC   C1B37015  15.042  44.364   8.771
 2824POPC   C2B37016  14.962  44.239   8.366
 2824POPC   C3B37017  14.895  44.482   8.039
 2824POPC   C4B37018  15.057  44.416   7.660
 2825POPC   NC337019   0.718  26.070   9.578
 2825POPC   PO437020   0.186  26.311   9.449
 2825POPC   GL137021   0.500  26.186   9.129
 2825POPC   GL237022   0.663  25.825   9.145
 2825POPC   C1A37023   0.415  26.032   8.716
 2825POPC   D2A37024   0.377  25.833   8.320
 2825POPC   C3A37025   0.459  26.086   7.972
 2825POPC   C4A37026   0.330  25.949   7.601
 2825POPC   C1B37027   0.897  25.848   8.789
 2825POPC   C2B37028   0.838  25.678   8.431
 2825POPC   C3B37029   0.876  25.762   8.051
 2825POPC   C4B37030   0.709  25.645   7.694
 2826POPC   NC337031  27.840  31.173   9.434
 2826POPC   PO437032  27.435  31.681   9.509
 2826POPC   GL137033  27.639  31.541   9.143
 2826POPC   GL237034  27.965  31.712   9.152
 2826POPC   C1A37035  27.474  31.374   8.741
 2826POPC   D2A37036  27.211  31.246   8.394
 2826POPC   C3A37037  27.491  31.337   8.029
 2826POPC   C4A37038  27.797  31.403   7.678
 2826POPC   C1B37039  27.792  31.778   8.725
 2826POPC   C2B37040  27.868  31.592   8.349
 2826POPC   C3B37041  27.991  31.760   7.990
 2826POPC   C4B37042  27.935  31.911   7.614
 2827POPC   NC337043  13.941   8.028   9.256
 2827POPC   PO437044  13.470   8.494   9.504
 2827POPC   GL137045  13.528   8.342   9.108
 2827POPC   GL237046  13.813   8.567   9.075
 2827POPC   C1A37047  13.583   8.172   8.681
 2827POPC   D2A37048  13.415   8.292   8.262
 2827POPC   C3A37049  13.608   8.191   7.844
 2827POPC   C4A37050  13.531   8.442   7.444
 2827POPC   C1B37051  14.055   8.419   8.742
 2827POPC   C2B37052  13.938   8.335   8.343
 2827POPC   C3B37053  13.895   8.578   8.005
 2827POPC   C4B37054  14.107   8.417   7.669
 2828POPC   NC337055  31.988  11.274   9.681
 2828POPC   PO437056  32.662  11.137   9.539
 2828POPC   GL137057  32.280  11.268   9.270
 2828POPC   GL237058  32.119  11.039   9.143
 2828POPC   C1A37059  32.255  11.468   8.849
 2828POPC   D2A37060  32.488  11.526   8.452
 2828POPC   C3A37061  32.278  11.529   8.041
 2828POPC   C4A37062  32.452  11.486   7.637
 2828POPC   C1B37063  32.320  10.967   8.744
 2828POPC   C2B37064  32.358  11.057   8.290
 2828POPC   C3B37065  32.452  11.017   7.857
 2828POPC   C4B37066  32.132  10.937   7.532
 2829POPC   NC337067  19.408  38.959   9.265
 2829POPC   PO437068  18.955  39.296   9.634
 2829POPC   GL137069  18.875  39.203   9.204
 2829POPC   GL237070  18.809  39.547   9.080
 2829POPC   C1A37071  18.859  38.953   8.803
 2829POPC   D2A37072  18.807  39.111   8.386
 2829POPC   C3A37073  18.848  38.863   8.049
 2829POPC   C4A37074  19.082  38.945   7.698
 2829POPC   C1B37075  19.142  39.408   8.789
 2829POPC   C2B37076  19.365  39.449   8.401
 2829POPC   C3B37077  19.137  39.350   8.045
 2829POPC   C4B37078  19.297  39.396   7.675
 2830POPC   NC337079  41.613  24.416   9.594
 2830POPC   PO437080  41.288  24.802   9.127
 2830POPC   GL137081  41.662  24.700   8.964
 2830POPC   GL237082  41.772  24.391   9.070
 2830POPC   C1A37083  41.734  24.641   8.519
 2830POPC   D2A37084  41.642  24.776   8.095
 2830POPC   C3A37085  41.559  24.502   7.758
 2830POPC   C4A37086  41.171  24.277   7.772
 2830POPC   C1B37087  41.631  24.156   8.677
 2830POPC   C2B37088  41.660  24.228   8.218
 2830POPC   C3B37089  41.671  24.004   7.846
 2830POPC   C4B37090  41.730  24.092   7.439
 2831POPC   NC337091  31.508  16.363   9.464
 2831POPC   PO437092  31.814  15.775   9.500
 2831POPC   GL137093  31.621  15.927   9.090
 2831POPC   GL237094  31.466  16.208   8.991
 2831POPC   C1A37095  31.441  15.821   8.667
 2831POPC   D2A37096  31.214  15.904   8.291
 2831POPC   C3A37097  31.422  16.020   7.944
 2831POPC   C4A37098  31.414  15.859   7.539
 2831POPC   C1B37099  31.152  16.269   8.660
 2831POPC   C2B37100  31.112  16.507   8.319
 2831POPC   C3B37101  31.065  16.400   7.893
 2831POPC   C4B37102  31.394  16.360   7.573
 2832POPC   NC337103  11.178   2.375   9.625
 2832POPC   PO437104  11.410   1.714   9.465
 2832POPC   GL137105  11.288   1.901   9.103
 2832POPC   GL237106  11.219   2.247   9.102
 2832POPC   C1A37107  11.448   1.980   8.703
 2832POPC   D2A37108  11.287   1.762   8.369
 2832POPC   C3A37109  11.309   1.948   7.974
 2832POPC   C4A37110  11.568   2.117   7.651
 2832POPC   C1B37111  10.999   2.222   8.664
 2832POPC   C2B37112  10.940   2.245   8.206
 2832POPC   C3B37113  10.922   2.185   7.751
 2832POPC   C4B37114  11.146   2.281   7.371
 2833POPC   NC337115  10.090   2.601   9.332
 2833POPC   PO437116  10.058   3.249   9.457
 2833POPC   GL137117   9.828   3.010   9.118
 2833POPC   GL237118  10.117   2.918   8.904
 2833POPC   C1A37119   9.631   2.867   8.705
 2833POPC   D2A37120   9.807   2.834   8.265
 2833POPC   C3A37121   9.601   2.903   7.886
 2833POPC   C4A37122   9.564   3.129   7.509
 2833POPC   C1B37123  10.007   2.504   8.677
 2833POPC   C2B37124   9.965   2.343   8.249
 2833POPC   C3B37125  10.041   2.376   7.814
 2833POPC   C4B37126   9.906   2.715   7.494
 2834POPC   NC337127  43.728   6.202   9.505
 2834POPC   PO437128  44.069   6.881   9.512
 2834POPC   GL137129  43.962   6.627   9.190
 2834POPC   GL237130  43.733   6.871   9.029
 2834POPC   C1A37131  44.167   6.663   8.807
 2834POPC   D2A37132  43.917   6.778   8.450
 2834POPC   C3A37133  44.023   6.578   8.048
 2834POPC   C4A37134  44.062   6.713   7.609
 2834POPC   C1B37135  43.554   6.551   8.772
 2834POPC   C2B37136  43.587   6.370   8.356
 2834POPC   C3B37137  43.510   6.653   8.027
 2834POPC   C4B37138  43.495   6.649   7.600
 2835POPC   NC337139  11.775  23.382   9.517
 2835POPC   PO437140  12.096  22.759   9.509
 2835POPC   GL137141  11.875  22.884   9.133
 2835POPC   GL237142  12.066  23.174   9.144
 2835POPC   C1A37143  12.075  22.914   8.709
 2835POPC   D2A37144  12.291  23.144   8.355
 2835POPC   C3A37145  12.229  22.991   7.928
 2835POPC   C4A37146  11.875  22.801   7.727
 2835POPC   C1B37147  11.740  23.323   8.862
 2835POPC   C2B37148  11.685  23.339   8.411
 2835POPC   C3B37149  11.789  23.246   7.965
 2835POPC   C4B37150  11.756  23.268   7.488
 2836POPC   NC337151   9.505  12.346   9.462
 2836POPC   PO437152   9.987  11.878   9.575
 2836POPC   GL137153   9.843  11.835   9.151
 2836POPC   GL237154   9.616  12.114   9.025
 2836POPC   C1A37155   9.970  11.918   8.726
 2836POPC   D2A37156   9.702  11.998   8.395
 2836POPC   C3A37157   9.764  11.743   8.063
 2836POPC   C4A37158  10.171  11.711   7.951
 2836POPC   C1B37159   9.632  12.429   8.676
 2836POPC   C2B37160   9.847  12.484   8.294
 2836POPC   C3B37161   9.919  12.222   7.946
 2836POPC   C4B37162   9.719  12.216   7.558
 2837POPC   NC337163  24.445  24.997   9.391
 2837POPC   PO437164  24.907  25.432   9.696
 2837POPC   GL137165  24.605  25.495   9.292
 2837POPC   GL237166  24.565  25.249   8.971
 2837POPC   C1A37167  24.340  25.669   8.931
 2837POPC   D2A37168  24.462  25.583   8.500
 2837POPC   C3A37169  24.378  25.357   8.105
 2837POPC   C4A37170  24.670  25.487   7.757
 2837POPC   C1B37171  24.472  24.940   8.689
 2837POPC   C2B37172  24.625  24.921   8.285
 2837POPC   C3B37173  24.721  24.998   7.856
 2837POPC   C4B37174  24.343  25.113   7.590
 2838POPC   NC337175  24.890   0.499   9.485
 2838POPC   PO437176  25.358  44.997   9.312
 2838POPC   GL137177  25.294   0.426   9.100
 2838POPC   GL237178  25.002   0.677   9.034
 2838POPC   C1A37179  25.170   0.359   8.668
 2838POPC   D2A37180  24.990   0.124   8.356
 2838POPC   C3A37181  25.168   0.262   8.003
 2838POPC   C4A37182  25.421   0.546   7.794
 2838POPC   C1B37183  25.175   0.861   8.658
 2838POPC   C2B37184  25.250   0.773   8.238
 2838POPC   C3B37185  25.010   0.850   7.877
 2838POPC   C4B37186  25.099   0.766   7.438
 2839POPC   NC337187  17.503  41.161   9.339
 2839POPC   PO437188  17.731  40.568   9.505
 2839POPC   GL137189  17.649  40.740   9.116
 2839POPC   GL237190  17.340  40.664   9.108
 2839POPC   C1A37191  17.615  40.947   8.712
 2839POPC   D2A37192  17.714  40.936   8.282
 2839POPC   C3A37193  17.401  41.048   7.984
 2839POPC   C4A37194  17.397  41.034   7.557
 2839POPC   C1B37195  17.141  40.728   8.736
 2839POPC   C2B37196  17.279  40.685   8.350
 2839POPC   C3B37197  17.226  40.548   7.953
 2839POPC   C4B37198  16.955  40.776   7.665
 2840POPC   NC337199  36.827  44.094   9.609
 2840POPC   PO437200  36.843  43.439   9.765
 2840POPC   GL137201  36.787  43.652   9.287
 2840POPC   GL237202  36.667  43.987   9.135
 2840POPC   C1A37203  36.961  43.679   8.839
 2840POPC   D2A37204  37.110  43.836   8.427
 2840POPC   C3A37205  36.837  44.094   8.198
 2840POPC   C4A37206  36.835  43.984   7.777
 2840POPC   C1B37207  36.459  43.737   8.829
 2840POPC   C2B37208  36.610  43.680   8.418
 2840POPC   C3B37209  36.481  43.667   8.013
 2840POPC   C4B37210  36.431  43.728   7.607
 2841POPC   NC337211  39.173  17.171   9.688
 2841POPC   PO437212  39.250  16.477   9.572
 2841POPC   GL137213  39.221  16.678   9.164
 2841POPC   GL237214  39.363  16.984   9.229
 2841POPC   C1A37215  39.217  16.803   8.718
 2841POPC   D2A37216  39.434  16.744   8.323
 2841POPC   C3A37217  39.284  16.877   7.913
 2841POPC   C4A37218  39.024  16.718   7.584
 2841POPC   C1B37219  39.464  17.249   8.851
 2841POPC   C2B37220  39.598  17.279   8.441
 2841POPC   C3B37221  39.662  17.165   8.052
 2841POPC   C4B37222  39.514  17.292   7.709
 2842POPC   NC337223  15.289  40.289   9.545
 2842POPC   PO437224  14.914  39.779   9.504
 2842POPC   GL137225  15.140  39.956   9.178
 2842POPC   GL237226  15.287  39.682   9.072
 2842POPC   C1A37227  15.267  40.035   8.744
 2842POPC   D2A37228  15.140  39.998   8.376
 2842POPC   C3A37229  15.281  40.142   7.964
 2842POPC   C4A37230  15.112  39.960   7.591
 2842POPC   C1B37231  15.439  39.501   8.750
 2842POPC   C2B37232  15.508  39.624   8.351
 2842POPC   C3B37233  15.261  39.632   8.007
 2842POPC   C4B37234  15.433  39.570   7.638
 2843POPC   NC337235  27.494   7.053   9.364
 2843POPC   PO437236  27.308   6.340   9.491
 2843POPC   GL137237  27.338   6.599   9.172
 2843POPC   GL237238  27.696   6.530   9.124
 2843POPC   C1A37239  27.365   6.683   8.758
 2843POPC   D2A37240  27.585   6.601   8.400
 2843POPC   C3A37241  27.356   6.724   8.044
 2843POPC   C4A37242  27.490   6.923   7.676
 2843POPC   C1B37243  27.945   6.831   8.885
 2843POPC   C2B37244  28.023   6.948   8.457
 2843POPC   C3B37245  27.877   6.847   8.039
 2843POPC   C4B37246  27.991   6.733   7.626
 2844POPC   NC337247   8.150  30.300   9.439
 2844POPC   PO437248   8.412  30.974   9.475
 2844POPC   GL137249   8.258  30.724   9.158
 2844POPC   GL237250   8.552  30.536   9.199
 2844POPC   C1A37251   8.052  30.577   8.791
 2844POPC   D2A37252   8.180  30.402   8.371
 2844POPC   C3A37253   8.057  30.655   7.984
 2844POPC   C4A37254   8.191  31.021   7.689
 2844POPC   C1B37255   8.570  30.603   8.762
 2844POPC   C2B37256   8.684  30.700   8.343
 2844POPC   C3B37257   8.547  30.463   7.988
 2844POPC   C4B37258   8.538  30.137   7.708
 2845POPC   NC337259   3.787  41.212   9.268
 2845POPC   PO437260   3.311  41.424   9.665
 2845POPC   GL137261   3.378  41.528   9.212
 2845POPC   GL237262   3.098  41.351   9.113
 2845POPC   C1A37263   3.615  41.761   8.827
 2845POPC   D2A37264   3.795  41.927   8.401
 2845POPC   C3A37265   3.682  41.815   7.994
 2845POPC   C4A37266   3.769  41.444   7.780
 2845POPC   C1B37267   3.101  41.682   8.789
 2845POPC   C2B37268   3.329  41.660   8.376
 2845POPC   C3B37269   3.211  41.599   7.962
 2845POPC   C4B37270   3.288  41.252   7.700
 2846POPC   NC337271  31.236  11.869   9.785
 2846POPC   PO437272  31.504  11.184   9.623
 2846POPC   GL137273  31.360  11.065   9.212
 2846POPC   GL237274  31.656  11.264   9.140
 2846POPC   C1A37275  31.336  11.199   8.760
 2846POPC   D2A37276  31.521  11.101   8.371
 2846POPC   C3A37277  31.419  11.352   8.042
 2846POPC   C4A37278  31.309  11.032   7.733
 2846POPC   C1B37279  31.844  11.175   8.762
 2846POPC   C2B37280  31.965  11.354   8.408
 2846POPC   C3B37281  31.927  11.143   8.023
 2846POPC   C4B37282  31.788  11.331   7.700
 2847POPC   NC337283  19.399  31.139  10.000
 2847POPC   PO437284  19.313  31.584   9.429
 2847POPC   GL137285  19.022  31.522   9.046
 2847POPC   GL237286  18.769  31.220   9.049
 2847POPC   C1A37287  19.013  31.584   8.631
 2847POPC   D2A37288  19.214  31.300   8.370
 2847POPC   C3A37289  19.424  31.541   8.061
 2847POPC   C4A37290  19.297  31.527   7.647
 2847POPC   C1B37291  18.750  31.157   8.565
 2847POPC   C2B37292  18.753  31.333   8.129
 2847POPC   C3B37293  18.843  31.255   7.696
 2847POPC   C4B37294  18.678  31.212   7.273
 2848POPC   NC337295  14.130  12.539   9.361
 2848POPC   PO437296  14.605  12.331   9.833
 2848POPC   GL137297  14.471  12.100   9.382
 2848POPC   GL237298  14.687  12.175   9.044
 2848POPC   C1A37299  14.330  11.855   8.983
 2848POPC   D2A37300  14.523  11.906   8.572
 2848POPC   C3A37301  14.252  11.945   8.225
 2848POPC   C4A37302  14.280  11.983   7.773
 2848POPC   C1B37303  14.608  12.424   8.650
 2848POPC   C2B37304  14.578  12.326   8.235
 2848POPC   C3B37305  14.734  11.970   8.034
 2848POPC   C4B37306  14.771  12.168   7.648
 2849POPC   NC337307   7.795  28.599   9.536
 2849POPC   PO437308   7.202  28.116   9.434
 2849POPC   GL137309   7.305  28.153   9.061
 2849POPC   GL237310   7.375  28.487   9.046
 2849POPC   C1A37311   7.172  28.256   8.647
 2849POPC   D2A37312   7.466  28.295   8.324
 2849POPC   C3A37313   7.363  28.157   7.919
 2849POPC   C4A37314   7.399  28.289   7.497
 2849POPC   C1B37315   7.706  28.521   8.774
 2849POPC   C2B37316   7.932  28.469   8.447
 2849POPC   C3B37317   7.827  28.520   8.029
 2849POPC   C4B37318   8.007  28.471   7.654
 2850POPC   NC337319   6.535   1.555   9.625
 2850POPC   PO437320   6.286   2.195   9.431
 2850POPC   GL137321   6.541   1.910   9.182
 2850POPC   GL237322   6.883   1.834   9.264
 2850POPC   C1A37323   6.692   2.036   8.756
 2850POPC   D2A37324   6.663   2.254   8.360
 2850POPC   C3A37325   6.922   2.368   8.022
 2850POPC   C4A37326   6.699   2.239   7.661
 2850POPC   C1B37327   7.106   1.769   8.844
 2850POPC   C2B37328   6.880   1.678   8.447
 2850POPC   C3B37329   6.863   1.844   8.048
 2850POPC   C4B37330   6.779   1.761   7.632
 2851POPC   NC337331   2.359  25.086   9.632
 2851POPC   PO437332   1.814  25.260   9.365
 2851POPC   GL137333   1.985  25.178   9.023
 2851POPC   GL237334   2.191  24.988   9.133
 2851POPC   C1A37335   2.006  25.363   8.667
 2851POPC   D2A37336   1.796  25.466   8.318
 2851POPC   C3A37337   2.085  25.516   8.026
 2851POPC   C4A37338   2.084  25.523   7.589
 2851POPC   C1B37339   2.373  24.918   8.726
 2851POPC   C2B37340   2.207  25.070   8.294
 2851POPC   C3B37341   2.033  25.054   7.843
 2851POPC   C4B37342   2.038  25.036   7.377
 2852POPC   NC337343  23.210   0.262   9.410
 2852POPC   PO437344  22.682   0.827   9.397
 2852POPC   GL137345  22.964   0.731   9.036
 2852POPC   GL237346  23.308   0.629   9.037
 2852POPC   C1A37347  22.973   0.686   8.567
 2852POPC   D2A37348  22.711   0.500   8.212
 2852POPC   C3A37349  22.821   0.598   7.771
 2852POPC   C4A37350  23.047   0.561   7.368
 2852POPC   C1B37351  23.365   0.279   8.743
 2852POPC   C2B37352  23.104   0.141   8.404
 2852POPC   C3B37353  23.180   0.302   8.026
 2852POPC   C4B37354  23.241   0.164   7.618
 2853POPC   NC337355  36.827  27.940   9.512
 2853POPC   PO437356  37.355  28.335   9.531
 2853POPC   GL137357  37.106  28.219   9.121
 2853POPC   GL237358  36.719  28.271   9.126
 2853POPC   C1A37359  36.924  28.311   8.671
 2853POPC   D2A37360  36.615  28.491   8.337
 2853POPC   C3A37361  36.810  28.537   7.940
 2853POPC   C4A37362  37.037  28.181   7.713
 2853POPC   C1B37363  36.570  27.943   8.807
 2853POPC   C2B37364  36.695  27.959   8.358
 2853POPC   C3B37365  36.552  28.106   7.962
 2853POPC   C4B37366  36.398  28.301   7.609
 2854POPC   NC337367   4.621  29.002   9.540
 2854POPC   PO437368   3.944  29.206   9.632
 2854POPC   GL137369   4.179  29.173   9.247
 2854POPC   GL237370   3.950  29.410   9.116
 2854POPC   C1A37371   4.228  28.902   8.880
 2854POPC   D2A37372   4.400  28.975   8.478
 2854POPC   C3A37373   4.271  28.902   8.047
 2854POPC   C4A37374   4.523  29.182   7.818
 2854POPC   C1B37375   4.156  29.430   8.703
 2854POPC   C2B37376   4.044  29.318   8.276
 2854POPC   C3B37377   4.025  29.359   7.824
 2854POPC   C4B37378   3.874  29.473   7.399
 2855POPC   NC337379  10.856  32.046   9.351
 2855POPC   PO437380  11.472  32.212   9.592
 2855POPC   GL137381  11.333  32.206   9.140
 2855POPC   GL237382  11.018  32.322   8.957
 2855POPC   C1A37383  11.492  32.417   8.764
 2855POPC   D2A37384  11.363  32.191   8.388
 2855POPC   C3A37385  11.063  32.376   8.091
 2855POPC   C4A37386  11.334  32.485   7.743
 2855POPC   C1B37387  11.077  31.922   8.748
 2855POPC   C2B37388  10.962  31.866   8.342
 2855POPC   C3B37389  11.190  31.897   7.986
 2855POPC   C4B37390  11.010  32.088   7.647
 2856POPC   NC337391  37.662  25.651   9.492
 2856POPC   PO437392  37.837  24.921   9.543
 2856POPC   GL137393  37.768  25.137   9.167
 2856POPC   GL237394  38.070  25.049   9.063
 2856POPC   C1A37395  37.671  25.277   8.737
 2856POPC   D2A37396  37.692  25.653   8.493
 2856POPC   C3A37397  37.763  25.629   8.057
 2856POPC   C4A37398  37.708  25.272   7.784
 2856POPC   C1B37399  37.920  24.831   8.709
 2856POPC   C2B37400  37.786  24.910   8.282
 2856POPC   C3B37401  38.022  24.869   7.894
 2856POPC   C4B37402  38.018  24.847   7.473
 2857POPC   NC337403   5.674  25.663   9.750
 2857POPC   PO437404   5.860  25.115   9.419
 2857POPC   GL137405   5.916  25.170   9.037
 2857POPC   GL237406   6.063  24.901   8.934
 2857POPC   C1A37407   5.787  25.317   8.650
 2857POPC   D2A37408   5.997  25.546   8.367
 2857POPC   C3A37409   5.895  25.292   8.037
 2857POPC   C4A37410   5.622  25.385   7.762
 2857POPC   C1B37411   5.560  24.892   8.848
 2857POPC   C2B37412   5.410  24.778   8.488
 2857POPC   C3B37413   5.316  24.702   8.071
 2857POPC   C4B37414   5.355  24.973   7.795
 2858POPC   NC337415  35.542  30.411   9.903
 2858POPC   PO437416  35.164  30.695   9.359
 2858POPC   GL137417  35.293  30.547   8.957
 2858POPC   GL237418  35.680  30.550   8.927
 2858POPC   C1A37419  35.340  30.661   8.545
 2858POPC   D2A37420  35.104  30.985   8.377
 2858POPC   C3A37421  34.938  30.701   8.181
 2858POPC   C4A37422  35.216  30.509   7.942
 2858POPC   C1B37423  35.535  30.190   8.710
 2858POPC   C2B37424  35.410  30.160   8.312
 2858POPC   C3B37425  35.675  30.204   7.948
 2858POPC   C4B37426  35.535  30.450   7.539
 2859POPC   NC337427  33.246  31.300   9.359
 2859POPC   PO437428  33.272  31.841   9.740
 2859POPC   GL137429  33.011  31.753   9.234
 2859POPC   GL237430  32.629  31.714   9.245
 2859POPC   C1A37431  33.080  31.548   8.758
 2859POPC   D2A37432  33.174  31.259   8.380
 2859POPC   C3A37433  32.807  31.305   8.123
 2859POPC   C4A37434  32.712  31.646   7.878
 2859POPC   C1B37435  32.568  31.755   8.813
 2859POPC   C2B37436  32.748  31.765   8.391
 2859POPC   C3B37437  33.148  31.710   8.172
 2859POPC   C4B37438  33.199  31.737   7.760
 2860POPC   NC337439  34.560  36.630   9.732
 2860POPC   PO437440  34.642  35.990   9.646
 2860POPC   GL137441  34.690  36.257   9.265
 2860POPC   GL237442  34.736  35.953   9.137
 2860POPC   C1A37443  34.460  36.229   8.817
 2860POPC   D2A37444  34.161  36.081   8.486
 2860POPC   C3A37445  34.351  36.145   8.089
 2860POPC   C4A37446  34.582  35.942   7.737
 2860POPC   C1B37447  34.962  36.134   8.808
 2860POPC   C2B37448  34.814  36.276   8.397
 2860POPC   C3B37449  34.933  35.989   8.101
 2860POPC   C4B37450  35.078  36.095   7.720
 2861POPC   NC337451  33.351  17.560   9.490
 2861POPC   PO437452  32.618  17.226   9.500
 2861POPC   GL137453  32.949  17.235   9.171
 2861POPC   GL237454  32.962  17.568   9.135
 2861POPC   C1A37455  33.131  17.308   8.719
 2861POPC   D2A37456  33.211  17.282   8.259
 2861POPC   C3A37457  33.045  17.138   7.879
 2861POPC   C4A37458  33.075  17.452   7.615
 2861POPC   C1B37459  32.908  17.792   8.788
 2861POPC   C2B37460  32.963  17.714   8.383
 2861POPC   C3B37461  33.028  17.932   8.022
 2861POPC   C4B37462  32.804  17.882   7.684
 2862POPC   NC337463   6.893  11.744   9.761
 2862POPC   PO437464   6.273  11.896   9.560
 2862POPC   GL137465   6.547  11.994   9.190
 2862POPC   GL237466   6.856  12.212   9.225
 2862POPC   C1A37467   6.883  11.878   8.850
 2862POPC   D2A37468   6.882  11.731   8.437
 2862POPC   C3A37469   6.788  11.989   8.085
 2862POPC   C4A37470   6.786  11.867   7.681
 2862POPC   C1B37471   6.598  12.288   8.774
 2862POPC   C2B37472   6.499  12.367   8.313
 2862POPC   C3B37473   6.755  12.471   7.924
 2862POPC   C4B37474   6.767  12.321   7.493
 2863POPC   NC337475  17.004  36.456   9.693
 2863POPC   PO437476  16.463  36.832   9.466
 2863POPC   GL137477  16.722  36.742   9.107
 2863POPC   GL237478  16.956  37.011   8.983
 2863POPC   C1A37479  16.702  36.728   8.655
 2863POPC   D2A37480  16.707  37.133   8.454
 2863POPC   C3A37481  16.585  37.022   8.071
 2863POPC   C4A37482  16.703  36.592   8.011
 2863POPC   C1B37483  17.189  36.944   8.606
 2863POPC   C2B37484  17.302  37.219   8.275
 2863POPC   C3B37485  17.021  37.230   7.932
 2863POPC   C4B37486  16.849  36.878   7.632
 2864POPC   NC337487  15.261   9.548   9.510
 2864POPC   PO437488  15.340  10.277   9.334
 2864POPC   GL137489  15.338   9.882   9.091
 2864POPC   GL237490  15.492   9.509   9.076
 2864POPC   C1A37491  15.076   9.717   8.783
 2864POPC   D2A37492  15.233   9.541   8.424
 2864POPC   C3A37493  15.087   9.767   8.067
 2864POPC   C4A37494  15.285  10.051   7.818
 2864POPC   C1B37495  15.227   9.231   8.861
 2864POPC   C2B37496  15.263   9.030   8.462
 2864POPC   C3B37497  15.489   9.198   8.128
 2864POPC   C4B37498  15.403   9.449   7.769
 2865POPC   NC337499  29.784  39.306   9.522
 2865POPC   PO437500  30.327  39.795   9.481
 2865POPC   GL137501  30.103  39.517   9.127
 2865POPC   GL237502  29.738  39.410   9.016
 2865POPC   C1A37503  30.178  39.303   8.701
 2865POPC   D2A37504  30.407  39.344   8.282
 2865POPC   C3A37505  30.089  39.457   7.934
 2865POPC   C4A37506  29.619  39.501   7.965
 2865POPC   C1B37507  29.741  38.998   8.824
 2865POPC   C2B37508  29.613  38.799   8.437
 2865POPC   C3B37509  29.398  39.040   8.097
 2865POPC   C4B37510  29.647  39.077   7.695
 2866POPC   NC337511  31.138  19.189   9.379
 2866POPC   PO437512  31.673  18.803   9.563
 2866POPC   GL137513  31.561  18.998   9.159
 2866POPC   GL237514  31.256  18.827   9.057
 2866POPC   C1A37515  31.439  19.259   8.771
 2866POPC   D2A37516  31.679  19.352   8.378
 2866POPC   C3A37517  31.656  19.004   8.112
 2866POPC   C4A37518  31.654  18.943   7.693
 2866POPC   C1B37519  31.055  18.867   8.660
 2866POPC   C2B37520  31.149  19.114   8.304
 2866POPC   C3B37521  31.179  18.973   7.894
 2866POPC   C4B37522  31.249  18.662   7.611
 2867POPC   NC337523  42.692  36.663   9.252
 2867POPC   PO437524  42.152  37.179   9.374
 2867POPC   GL137525  42.447  37.101   9.122
 2867POPC   GL237526  42.238  36.788   9.057
 2867POPC   C1A37527  42.546  37.048   8.706
 2867POPC   D2A37528  42.280  37.041   8.398
 2867POPC   C3A37529  42.416  36.999   7.979
 2867POPC   C4A37530  42.214  37.123   7.590
 2867POPC   C1B37531  42.174  36.609   8.671
 2867POPC   C2B37532  42.425  36.555   8.314
 2867POPC   C3B37533  42.519  36.490   7.891
 2867POPC   C4B37534  42.170  36.627   7.664
 2868POPC   NC337535   7.605  24.209   9.596
 2868POPC   PO437536   7.008  24.150   9.451
 2868POPC   GL137537   7.254  24.303   9.114
 2868POPC   GL237538   7.613  24.327   9.108
 2868POPC   C1A37539   7.251  24.654   8.813
 2868POPC   D2A37540   7.383  24.657   8.395
 2868POPC   C3A37541   7.175  24.400   8.091
 2868POPC   C4A37542   7.185  24.572   7.698
 2868POPC   C1B37543   7.726  24.460   8.723
 2868POPC   C2B37544   7.785  24.302   8.328
 2868POPC   C3B37545   7.650  24.498   7.934
 2868POPC   C4B37546   7.617  24.372   7.499
 2869POPC   NC337547  29.940  34.058   9.345
 2869POPC   PO437548  29.512  33.493   9.534
 2869POPC   GL137549  29.734  33.565   9.153
 2869POPC   GL237550  30.116  33.597   9.155
 2869POPC   C1A37551  29.710  33.725   8.746
 2869POPC   D2A37552  29.791  33.939   8.395
 2869POPC   C3A37553  29.811  33.697   8.050
 2869POPC   C4A37554  29.828  33.646   7.630
 2869POPC   C1B37555  30.183  33.881   8.767
 2869POPC   C2B37556  30.291  33.977   8.317
 2869POPC   C3B37557  30.304  33.674   7.944
 2869POPC   C4B37558  30.538  33.292   7.786
 2870POPC   NC337559   7.986  11.096   9.564
 2870POPC   PO437560   8.238  11.693   9.454
 2870POPC   GL137561   8.128  11.555   9.064
 2870POPC   GL237562   8.072  11.204   9.075
 2870POPC   C1A37563   8.253  11.417   8.644
 2870POPC   D2A37564   8.374  11.597   8.262
 2870POPC   C3A37565   8.273  11.378   7.892
 2870POPC   C4A37566   8.420  11.509   7.496
 2870POPC   C1B37567   8.117  10.930   8.712
 2870POPC   C2B37568   8.131  11.032   8.296
 2870POPC   C3B37569   7.907  11.020   7.924
 2870POPC   C4B37570   8.027  11.132   7.497
 2871POPC   NC337571  25.484   2.010   9.632
 2871POPC   PO437572  24.967   1.662   9.427
 2871POPC   GL137573  25.205   1.976   9.189
 2871POPC   GL237574  25.117   2.259   9.280
 2871POPC   C1A37575  25.394   1.960   8.788
 2871POPC   D2A37576  25.403   2.064   8.388
 2871POPC   C3A37577  25.446   1.785   8.072
 2871POPC   C4A37578  25.417   2.029   7.735
 2871POPC   C1B37579  24.966   2.256   8.848
 2871POPC   C2B37580  24.912   2.231   8.413
 2871POPC   C3B37581  25.109   2.387   8.048
 2871POPC   C4B37582  24.938   2.509   7.654
 2872POPC   NC337583  26.701  14.100   9.632
 2872POPC   PO437584  26.522  14.784   9.463
 2872POPC   GL137585  26.690  14.594   9.076
 2872POPC   GL237586  26.891  14.315   9.205
 2872POPC   C1A37587  26.560  14.619   8.638
 2872POPC   D2A37588  26.660  14.322   8.324
 2872POPC   C3A37589  26.834  14.420   7.922
 2872POPC   C4A37590  26.612  14.480   7.520
 2872POPC   C1B37591  26.824  14.164   8.795
 2872POPC   C2B37592  27.054  14.001   8.441
 2872POPC   C3B37593  27.038  13.926   7.985
 2872POPC   C4B37594  26.944  14.078   7.547
 2873POPC   NC337595  33.408  11.995   9.396
 2873POPC   PO437596  32.723  12.092   9.369
 2873POPC   GL137597  33.013  12.006   9.054
 2873POPC   GL237598  33.183  12.322   9.064
 2873POPC   C1A37599  33.095  11.839   8.640
 2873POPC   D2A37600  33.357  11.817   8.260
 2873POPC   C3A37601  33.082  11.752   7.905
 2873POPC   C4A37602  32.662  11.859   7.959
 2873POPC   C1B37603  33.261  12.316   8.614
 2873POPC   C2B37604  32.981  12.284   8.250
 2873POPC   C3B37605  33.084  12.261   7.836
 2873POPC   C4B37606  33.491  12.046   7.804
 2874POPC   NC337607  42.090  41.121   9.450
 2874POPC   PO437608  42.390  40.461   9.514
 2874POPC   GL137609  42.361  40.777   9.183
 2874POPC   GL237610  42.024  40.743   9.120
 2874POPC   C1A37611  42.342  41.042   8.798
 2874POPC   D2A37612  42.377  41.268   8.406
 2874POPC   C3A37613  42.282  41.064   8.032
 2874POPC   C4A37614  42.405  40.812   7.669
 2874POPC   C1B37615  42.127  40.575   8.770
 2874POPC   C2B37616  42.128  40.766   8.411
 2874POPC   C3B37617  42.141  40.570   8.044
 2874POPC   C4B37618  42.086  40.367   7.689
 2875POPC   NC337619  20.778  26.388   9.524
 2875POPC   PO437620  20.536  27.070   9.412
 2875POPC   GL137621  20.685  26.917   9.070
 2875POPC   GL237622  20.933  26.681   9.141
 2875POPC   C1A37623  20.484  26.995   8.718
 2875POPC   D2A37624  20.446  26.768   8.390
 2875POPC   C3A37625  20.612  26.886   8.030
 2875POPC   C4A37626  20.466  26.756   7.660
 2875POPC   C1B37627  20.812  26.562   8.707
 2875POPC   C2B37628  20.919  26.568   8.302
 2875POPC   C3B37629  21.089  26.751   7.941
 2875POPC   C4B37630  20.957  26.704   7.520
 2876POPC   NC337631  37.492  17.840   9.411
 2876POPC   PO437632  38.085  17.555   9.438
 2876POPC   GL137633  37.929  17.312   9.047
 2876POPC   GL237634  37.601  17.465   9.062
 2876POPC   C1A37635  37.768  17.309   8.607
 2876POPC   D2A37636  37.743  17.677   8.365
 2876POPC   C3A37637  37.693  17.587   7.941
 2876POPC   C4A37638  37.933  17.313   7.656
 2876POPC   C1B37639  37.355  17.634   8.729
 2876POPC   C2B37640  37.235  17.636   8.294
 2876POPC   C3B37641  37.197  17.578   7.856
 2876POPC   C4B37642  37.150  17.668   7.421
 2877POPC   NC337643  35.842  17.569   9.429
 2877POPC   PO437644  36.514  17.184   9.455
 2877POPC   GL137645  36.250  17.400   9.160
 2877POPC   GL237646  36.483  17.521   8.958
 2877POPC   C1A37647  35.995  17.487   8.801
 2877POPC   D2A37648  35.781  17.595   8.447
 2877POPC   C3A37649  35.963  17.725   8.063
 2877POPC   C4A37650  35.936  17.385   7.744
 2877POPC   C1B37651  36.423  17.526   8.526
 2877POPC   C2B37652  36.208  17.318   8.243
 2877POPC   C3B37653  36.391  17.228   7.863
 2877POPC   C4B37654  36.308  17.281   7.394
 2878POPC   NC337655   5.393  13.919   9.364
 2878POPC   PO437656   4.793  13.791   9.712
 2878POPC   GL137657   4.873  13.572   9.225
 2878POPC   GL237658   5.161  13.736   8.959
 2878POPC   C1A37659   4.911  13.367   8.772
 2878POPC   D2A37660   5.188  13.528   8.465
 2878POPC   C3A37661   5.005  13.638   8.094
 2878POPC   C4A37662   5.029  13.536   7.684
 2878POPC   C1B37663   4.786  13.855   8.681
 2878POPC   C2B37664   4.539  13.643   8.379
 2878POPC   C3B37665   4.547  13.798   7.964
 2878POPC   C4B37666   4.838  14.017   7.687
 2879POPC   NC337667  35.591  37.501   9.395
 2879POPC   PO437668  35.190  37.872   9.713
 2879POPC   GL137669  35.296  38.006   9.222
 2879POPC   GL237670  35.578  37.864   8.991
 2879POPC   C1A37671  35.160  37.998   8.753
 2879POPC   D2A37672  35.242  37.739   8.369
 2879POPC   C3A37673  35.020  37.798   7.998
 2879POPC   C4A37674  35.114  37.708   7.564
 2879POPC   C1B37675  35.430  37.480   8.759
 2879POPC   C2B37676  35.462  37.267   8.314
 2879POPC   C3B37677  35.365  37.340   7.839
 2879POPC   C4B37678  35.579  37.501   7.431
 2880POPC   NC337679   7.796   6.647   9.616
 2880POPC   PO437680   7.174   6.522   9.510
 2880POPC   GL137681   7.252   6.755   9.143
 2880POPC   GL237682   7.585   6.896   9.229
 2880POPC   C1A37683   7.299   6.639   8.683
 2880POPC   D2A37684   7.356   6.330   8.321
 2880POPC   C3A37685   7.426   6.530   7.908
 2880POPC   C4A37686   7.766   6.679   7.649
 2880POPC   C1B37687   7.547   7.060   8.830
 2880POPC   C2B37688   7.582   7.167   8.434
 2880POPC   C3B37689   7.637   6.953   8.075
 2880POPC   C4B37690   7.547   7.132   7.685
 2881POPC   NC337691  34.610   8.506   9.527
 2881POPC   PO437692  34.924   7.862   9.541
 2881POPC   GL137693  34.667   8.073   9.175
 2881POPC   GL237694  34.691   8.425   9.054
 2881POPC   C1A37695  34.626   8.110   8.701
 2881POPC   D2A37696  34.397   8.239   8.354
 2881POPC   C3A37697  34.665   8.170   8.039
 2881POPC   C4A37698  34.648   7.933   7.697
 2881POPC   C1B37699  34.909   8.601   8.702
 2881POPC   C2B37700  34.826   8.593   8.316
 2881POPC   C3B37701  34.953   8.718   7.945
 2881POPC   C4B37702  34.893   8.389   7.622
 2882POPC   NC337703  29.735  18.661   9.400
 2882POPC   PO437704  30.115  18.114   9.460
 2882POPC   GL137705  29.707  18.158   9.231
 2882POPC   GL237706  29.948  18.376   9.038
 2882POPC   C1A37707  29.531  18.271   8.805
 2882POPC   D2A37708  29.785  18.426   8.481
 2882POPC   C3A37709  29.621  18.356   8.091
 2882POPC   C4A37710  29.670  18.592   7.742
 2882POPC   C1B37711  29.923  17.957   8.815
 2882POPC   C2B37712  29.789  17.905   8.406
 2882POPC   C3B37713  30.060  18.093   8.146
 2882POPC   C4B37714  29.989  18.193   7.735
 2883POPC   NC337715  21.056  16.380   9.829
 2883POPC   PO437716  21.643  16.518   9.513
 2883POPC   GL137717  21.311  16.593   9.189
 2883POPC   GL237718  21.271  16.940   9.051
 2883POPC   C1A37719  21.137  16.562   8.760
 2883POPC   D2A37720  21.340  16.660   8.387
 2883POPC   C3A37721  21.147  16.620   8.024
 2883POPC   C4A37722  21.432  16.645   7.729
 2883POPC   C1B37723  21.622  16.782   8.802
 2883POPC   C2B37724  21.803  16.915   8.387
 2883POPC   C3B37725  21.832  16.714   8.012
 2883POPC   C4B37726  21.828  16.347   7.738
 2884POPC   NC337727  32.741   0.270   9.575
 2884POPC   PO437728  33.398   0.534   9.546
 2884POPC   GL137729  33.077   0.372   9.188
 2884POPC   GL237730  32.865   0.025   9.149
 2884POPC   C1A37731  32.962   0.266   8.737
 2884POPC   D2A37732  32.902   0.463   8.388
 2884POPC   C3A37733  32.966   0.269   8.045
 2884POPC   C4A37734  33.049   0.423   7.661
 2884POPC   C1B37735  32.688  44.829   8.795
 2884POPC   C2B37736  32.468   0.102   8.505
 2884POPC   C3B37737  32.457   0.232   8.077
 2884POPC   C4B37738  32.623   0.147   7.683
 2885POPC   NC337739  15.739   7.637   9.234
 2885POPC   PO437740  16.272   7.203   9.466
 2885POPC   GL137741  16.174   7.371   9.093
 2885POPC   GL237742  16.062   7.075   8.962
 2885POPC   C1A37743  16.030   7.511   8.700
 2885POPC   D2A37744  15.756   7.488   8.386
 2885POPC   C3A37745  15.958   7.632   8.045
 2885POPC   C4A37746  16.232   7.404   7.806
 2885POPC   C1B37747  15.714   7.103   8.721
 2885POPC   C2B37748  15.465   6.993   8.414
 2885POPC   C3B37749  15.534   7.177   8.055
 2885POPC   C4B37750  15.695   7.367   7.692
 2886POPC   NC337751  17.953  26.716   9.560
 2886POPC   PO437752  18.623  26.625   9.493
 2886POPC   GL137753  18.424  26.783   9.116
 2886POPC   GL237754  18.185  26.953   9.101
 2886POPC   C1A37755  18.225  26.629   8.710
 2886POPC   D2A37756  18.207  26.394   8.310
 2886POPC   C3A37757  18.259  26.621   7.915
 2886POPC   C4A37758  18.277  26.479   7.469
 2886POPC   C1B37759  18.224  27.159   8.726
 2886POPC   C2B37760  18.263  27.367   8.356
 2886POPC   C3B37761  18.171  27.175   7.990
 2886POPC   C4B37762  18.219  27.012   7.580
 2887POPC   NC337763  35.520  26.556   9.260
 2887POPC   PO437764  34.989  27.022   9.382
 2887POPC   GL137765  35.202  26.903   9.030
 2887POPC   GL237766  35.109  26.575   8.949
 2887POPC   C1A37767  35.475  26.894   8.677
 2887POPC   D2A37768  35.513  26.773   8.272
 2887POPC   C3A37769  35.656  27.047   8.006
 2887POPC   C4A37770  35.316  26.956   7.806
 2887POPC   C1B37771  35.077  26.602   8.505
 2887POPC   C2B37772  35.279  26.328   8.180
 2887POPC   C3B37773  35.546  26.449   7.852
 2887POPC   C4B37774  35.360  26.573   7.499
 2888POPC   NC337775  28.650  14.565   9.592
 2888POPC   PO437776  27.961  14.342   9.487
 2888POPC   GL137777  28.355  14.329   9.248
 2888POPC   GL237778  28.492  14.670   9.101
 2888POPC   C1A37779  28.328  14.191   8.848
 2888POPC   D2A37780  28.213  14.415   8.495
 2888POPC   C3A37781  28.354  14.235   8.139
 2888POPC   C4A37782  28.375  14.127   7.724
 2888POPC   C1B37783  28.689  14.499   8.696
 2888POPC   C2B37784  28.836  14.331   8.281
 2888POPC   C3B37785  28.705  14.488   7.863
 2888POPC   C4B37786  28.855  14.678   7.496
 2889POPC   NC337787   6.607  10.169   9.640
 2889POPC   PO437788   6.208   9.664   9.629
 2889POPC   GL137789   6.442   9.801   9.262
 2889POPC   GL237790   6.785   9.949   9.202
 2889POPC   C1A37791   6.471   9.709   8.820
 2889POPC   D2A37792   6.664   9.602   8.415
 2889POPC   C3A37793   6.433   9.707   8.069
 2889POPC   C4A37794   6.543   9.621   7.655
 2889POPC   C1B37795   6.992   9.780   8.816
 2889POPC   C2B37796   7.125   9.862   8.397
 2889POPC   C3B37797   6.939   9.803   7.981
 2889POPC   C4B37798   6.785  10.084   7.643
 2890POPC   NC337799  18.420  10.731   9.905
 2890POPC   PO437800  18.044  10.159   9.566
 2890POPC   GL137801  18.093  10.337   9.124
 2890POPC   GL237802  18.415  10.574   9.043
 2890POPC   C1A37803  18.002  10.657   8.789
 2890POPC   D2A37804  17.891  10.633   8.375
 2890POPC   C3A37805  18.157  10.691   8.053
 2890POPC   C4A37806  18.248  10.510   7.675
 2890POPC   C1B37807  18.386  10.255   8.741
 2890POPC   C2B37808  18.397  10.393   8.368
 2890POPC   C3B37809  18.347  10.176   8.026
 2890POPC   C4B37810  18.321   9.944   7.650
 2891POPC   NC337811  34.595  14.354  10.242
 2891POPC   PO437812  35.024  14.356   9.714
 2891POPC   GL137813  34.855  14.375   9.267
 2891POPC   GL237814  34.596  14.637   9.278
 2891POPC   C1A37815  34.611  14.341   8.855
 2891POPC   D2A37816  34.465  14.246   8.441
 2891POPC   C3A37817  34.564  14.462   8.097
 2891POPC   C4A37818  34.515  14.419   7.668
 2891POPC   C1B37819  34.831  14.796   8.915
 2891POPC   C2B37820  34.868  14.725   8.480
 2891POPC   C3B37821  34.919  14.824   8.076
 2891POPC   C4B37822  34.877  14.797   7.680
 2892POPC   NC337823   6.111   9.251   9.846
 2892POPC   PO437824   6.584   8.989   9.466
 2892POPC   GL137825   6.719   9.096   9.112
 2892POPC   GL237826   6.735   8.765   9.007
 2892POPC   C1A37827   6.836   9.264   8.745
 2892POPC   D2A37828   6.771   9.024   8.393
 2892POPC   C3A37829   6.680   9.232   7.998
 2892POPC   C4A37830   6.781   9.150   7.582
 2892POPC   C1B37831   6.509   8.591   8.666
 2892POPC   C2B37832   6.391   8.723   8.239
 2892POPC   C3B37833   6.408   8.779   7.794
 2892POPC   C4B37834   6.224   8.493   7.496
 2893POPC   NC337835   9.090  13.468   9.609
 2893POPC   PO437836   8.616  13.883   9.743
 2893POPC   GL137837   8.820  13.603   9.225
 2893POPC   GL237838   9.160  13.398   9.129
 2893POPC   C1A37839   8.896  13.702   8.753
 2893POPC   D2A37840   8.925  13.521   8.313
 2893POPC   C3A37841   9.077  13.733   7.936
 2893POPC   C4A37842   8.760  13.530   7.711
 2893POPC   C1B37843   9.464  13.336   8.818
 2893POPC   C2B37844   9.393  13.233   8.413
 2893POPC   C3B37845   9.289  13.262   7.999
 2893POPC   C4B37846   9.226  13.357   7.557
 2894POPC   NC337847   4.664  19.684   9.941
 2894POPC   PO437848   4.394  19.226   9.511
 2894POPC   GL137849   4.274  19.177   9.095
 2894POPC   GL237850   4.637  19.173   9.058
 2894POPC   C1A37851   4.239  18.978   8.684
 2894POPC   D2A37852   4.004  18.875   8.318
 2894POPC   C3A37853   4.239  19.045   7.968
 2894POPC   C4A37854   4.671  18.970   7.780
 2894POPC   C1B37855   4.547  19.380   8.709
 2894POPC   C2B37856   4.563  19.233   8.319
 2894POPC   C3B37857   4.561  19.435   7.949
 2894POPC   C4B37858   4.649  19.529   7.560
 2895POPC   NC337859  40.974  31.786   9.570
 2895POPC   PO437860  40.611  32.329   9.567
 2895POPC   GL137861  40.793  32.212   9.165
 2895POPC   GL237862  40.736  31.855   9.139
 2895POPC   C1A37863  40.865  32.366   8.754
 2895POPC   D2A37864  40.693  32.626   8.425
 2895POPC   C3A37865  40.739  32.460   8.014
 2895POPC   C4A37866  40.854  32.154   7.642
 2895POPC   C1B37867  40.495  31.920   8.778
 2895POPC   C2B37868  40.598  32.107   8.390
 2895POPC   C3B37869  40.543  31.951   7.996
 2895POPC   C4B37870  40.349  31.835   7.624
 2896POPC   NC337871  23.881  14.202   9.519
 2896POPC   PO437872  23.521  14.707   9.467
 2896POPC   GL137873  23.750  14.619   9.081
 2896POPC   GL237874  23.982  14.377   9.051
 2896POPC   C1A37875  23.805  14.592   8.633
 2896POPC   D2A37876  24.058  14.716   8.316
 2896POPC   C3A37877  23.785  14.770   7.973
 2896POPC   C4A37878  23.408  14.560   7.828
 2896POPC   C1B37879  24.013  14.106   8.701
 2896POPC   C2B37880  23.859  14.082   8.274
 2896POPC   C3B37881  23.919  14.288   7.843
 2896POPC   C4B37882  24.018  14.173   7.385
 2897POPC   NC337883  43.816   1.475   9.317
 2897POPC   PO437884  44.194   0.916   9.464
 2897POPC   GL137885  43.848   0.985   9.139
 2897POPC   GL237886  43.474   1.003   9.249
 2897POPC   C1A37887  43.843   1.124   8.708
 2897POPC   D2A37888  44.188   1.161   8.410
 2897POPC   C3A37889  44.062   1.166   7.996
 2897POPC   C4A37890  44.079   1.274   7.572
 2897POPC   C1B37891  43.461   0.766   8.869
 2897POPC   C2B37892  43.411   0.959   8.476
 2897POPC   C3B37893  43.516   1.230   8.164
 2897POPC   C4B37894  43.617   1.124   7.747
 2898POPC   NC337895  39.898  25.054   9.501
 2898POPC   PO437896  40.479  25.224   9.537
 2898POPC   GL137897  40.129  25.332   9.129
 2898POPC   GL237898  39.960  25.072   9.009
 2898POPC   C1A37899  39.856  25.499   8.754
 2898POPC   D2A37900  39.825  25.266   8.362
 2898POPC   C3A37901  39.991  25.442   7.968
 2898POPC   C4A37902  39.880  25.387   7.511
 2898POPC   C1B37903  40.245  25.158   8.669
 2898POPC   C2B37904  40.209  24.859   8.370
 2898POPC   C3B37905  39.966  24.874   8.022
 2898POPC   C4B37906  39.980  24.901   7.645
 2899POPC   NC337907  40.397   5.912   9.777
 2899POPC   PO437908  41.015   5.822   9.433
 2899POPC   GL137909  40.987   5.826   8.999
 2899POPC   GL237910  41.158   5.521   8.999
 2899POPC   C1A37911  40.890   5.962   8.535
 2899POPC   D2A37912  40.525   5.890   8.238
 2899POPC   C3A37913  40.574   5.986   7.796
 2899POPC   C4A37914  40.769   6.136   7.414
 2899POPC   C1B37915  40.909   5.469   8.642
 2899POPC   C2B37916  40.867   5.521   8.218
 2899POPC   C3B37917  40.632   5.488   7.853
 2899POPC   C4B37918  40.731   5.636   7.427
 2900POPC   NC337919  29.042  38.722   9.505
 2900POPC   PO437920  29.350  39.288   9.756
 2900POPC   GL137921  29.250  39.277   9.276
 2900POPC   GL237922  29.350  38.939   9.139
 2900POPC   C1A37923  29.186  39.541   8.867
 2900POPC   D2A37924  29.332  39.522   8.430
 2900POPC   C3A37925  29.077  39.508   8.048
 2900POPC   C4A37926  29.186  39.303   7.699
 2900POPC   C1B37927  29.222  39.067   8.694
 2900POPC   C2B37928  28.921  39.119   8.342
 2900POPC   C3B37929  28.877  38.956   7.928
 2900POPC   C4B37930  28.843  38.985   7.468
 2901POPC   NC337931  27.894  18.660   9.632
 2901POPC   PO437932  27.235  18.583   9.531
 2901POPC   GL137933  27.567  18.478   9.201
 2901POPC   GL237934  27.690  18.110   9.077
 2901POPC   C1A37935  27.550  18.480   8.764
 2901POPC   D2A37936  27.481  18.273   8.378
 2901POPC   C3A37937  27.441  18.552   8.081
 2901POPC   C4A37938  27.702  18.504   7.723
 2901POPC   C1B37939  27.759  17.972   8.673
 2901POPC   C2B37940  27.973  18.092   8.265
 2901POPC   C3B37941  28.015  18.068   7.794
 2901POPC   C4B37942  28.067  17.796   7.392
 2902POPC   NC337943  25.743   4.199   9.580
 2902POPC   PO437944  25.202   3.878   9.471
 2902POPC   GL137945  25.302   4.113   9.107
 2902POPC   GL237946  25.645   4.189   9.061
 2902POPC   C1A37947  25.043   4.301   8.786
 2902POPC   D2A37948  25.043   4.511   8.420
 2902POPC   C3A37949  25.227   4.290   8.117
 2902POPC   C4A37950  25.066   4.255   7.748
 2902POPC   C1B37951  25.491   4.507   8.732
 2902POPC   C2B37952  25.574   4.657   8.302
 2902POPC   C3B37953  25.572   4.587   7.863
 2902POPC   C4B37954  25.566   4.141   7.744
 2903POPC   NC337955  27.153  16.466   9.554
 2903POPC   PO437956  26.505  16.521   9.792
 2903POPC   GL137957  26.732  16.735   9.367
 2903POPC   GL237958  26.475  16.901   9.167
 2903POPC   C1A37959  26.889  16.762   8.893
 2903POPC   D2A37960  26.823  16.827   8.421
 2903POPC   C3A37961  26.934  17.029   8.011
 2903POPC   C4A37962  26.918  16.898   7.564
 2903POPC   C1B37963  26.388  16.839   8.731
 2903POPC   C2B37964  26.339  16.993   8.328
 2903POPC   C3B37965  26.466  16.822   7.929
 2903POPC   C4B37966  26.535  16.552   7.569
 2904POPC   NC337967  28.225  39.297   9.523
 2904POPC   PO437968  28.587  38.719   9.448
 2904POPC   GL137969  28.372  39.021   9.128
 2904POPC   GL237970  28.533  39.373   9.138
 2904POPC   C1A37971  28.188  39.255   8.769
 2904POPC   D2A37972  28.094  39.203   8.355
 2904POPC   C3A37973  28.364  38.929   8.125
 2904POPC   C4A37974  28.401  39.010   7.712
 2904POPC   C1B37975  28.725  39.314   8.781
 2904POPC   C2B37976  28.537  39.491   8.439
 2904POPC   C3B37977  28.487  39.431   8.032
 2904POPC   C4B37978  28.695  39.422   7.676
 2905POPC   NC337979   5.255  26.524   9.462
 2905POPC   PO437980   4.766  27.058   9.540
 2905POPC   GL137981   5.031  26.921   9.208
 2905POPC   GL237982   4.868  26.627   9.131
 2905POPC   C1A37983   5.219  26.855   8.777
 2905POPC   D2A37984   5.445  26.620   8.429
 2905POPC   C3A37985   5.344  26.658   7.987
 2905POPC   C4A37986   5.305  27.063   7.792
 2905POPC   C1B37987   4.776  26.647   8.700
 2905POPC   C2B37988   4.939  26.698   8.293
 2905POPC   C3B37989   4.860  26.775   7.832
 2905POPC   C4B37990   4.856  26.803   7.373
 2906POPC   NC337991  30.707  39.534   9.585
 2906POPC   PO437992  31.221  39.410   9.240
 2906POPC   GL137993  30.811  39.340   9.116
 2906POPC   GL237994  30.485  39.150   9.067
 2906POPC   C1A37995  30.720  39.383   8.701
 2906POPC   D2A37996  30.978  39.346   8.365
 2906POPC   C3A37997  30.863  39.148   8.004
 2906POPC   C4A37998  30.586  39.396   7.804
 2906POPC   C1B37999  30.541  38.893   8.657
 2906POPC   C2B38000  30.472  38.839   8.177
 2906POPC   C3B38001  30.232  38.976   7.776
 2906POPC   C4B38002  30.174  38.800   7.297
 2907POPC   NC338003   5.965  14.765   9.535
 2907POPC   PO438004   5.677  14.231   9.555
 2907POPC   GL138005   5.825  14.190   9.144
 2907POPC   GL238006   5.925  14.527   9.101
 2907POPC   C1A38007   5.803  14.277   8.692
 2907POPC   D2A38008   5.959  14.453   8.291
 2907POPC   C3A38009   5.754  14.197   7.999
 2907POPC   C4A38010   5.859  14.085   7.612
 2907POPC   C1B38011   6.026  14.732   8.721
 2907POPC   C2B38012   6.366  14.747   8.423
 2907POPC   C3B38013   6.349  14.654   7.990
 2907POPC   C4B38014   5.947  14.638   7.784
 2908POPC   NC338015  33.346  44.287   9.540
 2908POPC   PO438016  33.051  44.913   9.587
 2908POPC   GL138017  33.267  44.714   9.241
 2908POPC   GL238018  32.998  44.516   9.087
 2908POPC   C1A38019  33.274  44.854   8.794
 2908POPC   D2A38020  33.347  44.721   8.345
 2908POPC   C3A38021  33.095  44.798   7.907
 2908POPC   C4A38022  33.051  44.987   7.423
 2908POPC   C1B38023  33.014  44.423   8.626
 2908POPC   C2B38024  33.076  44.292   8.180
 2908POPC   C3B38025  32.761  44.360   7.882
 2908POPC   C4B38026  32.691  44.663   7.561
 2909POPC   NC338027   7.498  29.325   9.528
 2909POPC   PO438028   7.349  28.700   9.498
 2909POPC   GL138029   7.357  28.992   9.158
 2909POPC   GL238030   7.688  28.945   9.052
 2909POPC   C1A38031   7.125  29.030   8.770
 2909POPC   D2A38032   7.146  29.265   8.369
 2909POPC   C3A38033   7.476  29.259   8.018
 2909POPC   C4A38034   7.797  28.994   7.813
 2909POPC   C1B38035   7.610  29.102   8.620
 2909POPC   C2B38036   7.472  28.819   8.277
 2909POPC   C3B38037   7.392  28.692   7.822
 2909POPC   C4B38038   7.643  28.715   7.398
 2910POPC   NC338039   8.080  15.613   9.510
 2910POPC   PO438040   8.421  16.278   9.506
 2910POPC   GL138041   8.185  16.065   9.179
 2910POPC   GL238042   8.295  15.726   9.063
 2910POPC   C1A38043   8.042  16.166   8.754
 2910POPC   D2A38044   7.771  16.161   8.381
 2910POPC   C3A38045   7.991  15.975   8.046
 2910POPC   C4A38046   8.048  16.040   7.651
 2910POPC   C1B38047   8.501  15.729   8.663
 2910POPC   C2B38048   8.426  16.066   8.370
 2910POPC   C3B38049   8.473  16.120   7.938
 2910POPC   C4B38050   8.454  15.761   7.638
 2911POPC   NC338051   3.080   8.991   9.382
 2911POPC   PO438052   2.423   8.796   9.460
 2911POPC   GL138053   2.633   8.841   9.121
 2911POPC   GL238054   2.622   9.205   9.156
 2911POPC   C1A38055   2.618   8.633   8.735
 2911POPC   D2A38056   2.736   8.888   8.401
 2911POPC   C3A38057   2.900   8.706   8.054
 2911POPC   C4A38058   3.074   8.813   7.656
 2911POPC   C1B38059   2.890   9.200   8.779
 2911POPC   C2B38060   3.038   9.325   8.365
 2911POPC   C3B38061   2.904   9.239   7.973
 2911POPC   C4B38062   2.577   9.391   7.746
 2912POPC   NC338063  24.661  19.637   9.550
 2912POPC   PO438064  25.264  20.061   9.571
 2912POPC   GL138065  25.300  19.928   9.169
 2912POPC   GL238066  24.961  19.807   9.166
 2912POPC   C1A38067  25.294  19.705   8.772
 2912POPC   D2A38068  25.431  19.864   8.396
 2912POPC   C3A38069  25.182  19.883   8.035
 2912POPC   C4A38070  25.036  19.715   7.648
 2912POPC   C1B38071  24.876  20.023   8.794
 2912POPC   C2B38072  24.807  19.995   8.372
 2912POPC   C3B38073  24.743  20.111   7.923
 2912POPC   C4B38074  24.692  20.056   7.462
 2913POPC   NC338075  37.775  37.293   9.377
 2913POPC   PO438076  37.413  37.814   9.577
 2913POPC   GL138077  37.557  37.843   9.162
 2913POPC   GL238078  37.642  37.531   8.954
 2913POPC   C1A38079  37.670  37.983   8.738
 2913POPC   D2A38080  37.846  37.763   8.402
 2913POPC   C3A38081  37.677  37.916   8.060
 2913POPC   C4A38082  37.497  37.837   7.718
 2913POPC   C1B38083  37.963  37.361   8.688
 2913POPC   C2B38084  37.868  37.027   8.339
 2913POPC   C3B38085  37.661  37.199   8.026
 2913POPC   C4B38086  37.915  37.519   7.841
 2914POPC   NC338087  44.503   4.816   9.603
 2914POPC   PO438088  44.903   5.300   9.372
 2914POPC   GL138089  44.487   5.138   9.205
 2914POPC   GL238090  44.196   5.379   9.121
 2914POPC   C1A38091  44.373   4.854   8.859
 2914POPC   D2A38092  44.253   4.807   8.417
 2914POPC   C3A38093  44.514   5.022   8.135
 2914POPC   C4A38094  44.555   4.997   7.747
 2914POPC   C1B38095  44.490   5.357   8.749
 2914POPC   C2B38096  44.854   5.234   8.476
 2914POPC   C3B38097  44.926   5.336   8.045
 2914POPC   C4B38098  44.612   5.495   7.768
 2915POPC   NC338099  41.738  12.506   9.505
 2915POPC   PO438100  41.886  13.108   9.541
 2915POPC   GL138101  41.783  12.892   9.118
 2915POPC   GL238102  41.884  12.537   9.030
 2915POPC   C1A38103  41.692  12.995   8.651
 2915POPC   D2A38104  41.695  13.270   8.240
 2915POPC   C3A38105  41.785  13.127   7.811
 2915POPC   C4A38106  41.520  12.984   7.443
 2915POPC   C1B38107  42.043  12.592   8.633
 2915POPC   C2B38108  41.698  12.559   8.370
 2915POPC   C3B38109  41.599  12.682   7.983
 2915POPC   C4B38110  41.864  12.645   7.666
 2916POPC   NC338111  44.718  38.988   9.578
 2916POPC   PO438112  44.681  39.637   9.246
 2916POPC   GL138113  44.541  39.223   9.125
 2916POPC   GL238114  44.403  38.874   9.175
 2916POPC   C1A38115  44.647  39.124   8.712
 2916POPC   D2A38116  44.663  39.268   8.299
 2916POPC   C3A38117  44.989  39.242   8.050
 2916POPC   C4A38118  44.799  39.501   7.784
 2916POPC   C1B38119  44.206  38.871   8.777
 2916POPC   C2B38120  44.391  38.819   8.357
 2916POPC   C3B38121  44.387  38.989   7.943
 2916POPC   C4B38122  44.336  38.760   7.563
 2917POPC   NC338123   4.689  20.385   9.341
 2917POPC   PO438124   5.291  20.585   9.530
 2917POPC   GL138125   5.056  20.696   9.108
 2917POPC   GL238126   4.857  21.023   9.004
 2917POPC   C1A38127   5.230  20.826   8.724
 2917POPC   D2A38128   5.440  20.769   8.339
 2917POPC   C3A38129   5.261  20.669   7.955
 2917POPC   C4A38130   5.474  20.493   7.604
 2917POPC   C1B38131   4.717  20.716   8.717
 2917POPC   C2B38132   4.906  20.683   8.344
 2917POPC   C3B38133   4.818  20.915   8.019
 2917POPC   C4B38134   4.841  20.724   7.641
 2918POPC   NC338135  10.569  32.862   9.526
 2918POPC   PO438136  10.345  33.392   9.350
 2918POPC   GL138137  10.430  33.107   9.020
 2918POPC   GL238138  10.681  32.881   9.027
 2918POPC   C1A38139  10.273  33.043   8.617
 2918POPC   D2A38140  10.136  32.820   8.265
 2918POPC   C3A38141  10.276  32.988   7.870
 2918POPC   C4A38142  10.213  33.042   7.418
 2918POPC   C1B38143  10.789  33.120   8.676
 2918POPC   C2B38144  10.694  33.042   8.267
 2918POPC   C3B38145  10.719  33.260   7.916
 2918POPC   C4B38146  10.690  33.022   7.544
 2919POPC   NC338147  35.696   7.019   9.698
 2919POPC   PO438148  36.194   6.625   9.684
 2919POPC   GL138149  36.121   6.547   9.241
 2919POPC   GL238150  36.259   6.880   9.217
 2919POPC   C1A38151  35.915   6.437   8.822
 2919POPC   D2A38152  35.782   6.658   8.432
 2919POPC   C3A38153  35.764   6.469   8.022
 2919POPC   C4A38154  35.839   6.610   7.612
 2919POPC   C1B38155  36.328   6.723   8.803
 2919POPC   C2B38156  36.349   6.792   8.375
 2919POPC   C3B38157  36.318   7.070   7.980
 2919POPC   C4B38158  36.235   6.920   7.537
 2920POPC   NC338159  24.150  20.362   9.605
 2920POPC   PO438160  23.621  20.642   9.545
 2920POPC   GL138161  23.635  20.722   9.131
 2920POPC   GL238162  23.976  20.654   9.143
 2920POPC   C1A38163  23.676  20.512   8.711
 2920POPC   D2A38164  23.702  20.257   8.309
 2920POPC   C3A38165  23.500  20.381   7.906
 2920POPC   C4A38166  23.340  20.772   7.695
 2920POPC   C1B38167  24.087  20.801   8.731
 2920POPC   C2B38168  24.101  20.569   8.350
 2920POPC   C3B38169  23.999  20.476   7.908
 2920POPC   C4B38170  23.828  20.442   7.483
 2921POPC   NC338171  43.595  28.030   9.656
 2921POPC   PO438172  44.094  28.435   9.689
 2921POPC   GL138173  43.909  28.609   9.291
 2921POPC   GL238174  43.864  28.268   9.206
 2921POPC   C1A38175  43.773  28.575   8.815
 2921POPC   D2A38176  43.937  28.502   8.393
 2921POPC   C3A38177  43.895  28.664   7.963
 2921POPC   C4A38178  44.098  28.652   7.501
 2921POPC   C1B38179  43.826  28.058   8.774
 2921POPC   C2B38180  43.920  28.000   8.344
 2921POPC   C3B38181  43.773  28.126   7.943
 2921POPC   C4B38182  44.075  27.892   7.720
 2922POPC   NC338183   0.180  20.907   9.490
 2922POPC   PO438184   0.757  20.697   9.271
 2922POPC   GL138185   0.434  20.743   9.046
 2922POPC   GL238186   0.242  20.476   9.196
 2922POPC   C1A38187   0.469  20.815   8.595
 2922POPC   D2A38188   0.740  20.845   8.215
 2922POPC   C3A38189   0.538  20.595   7.910
 2922POPC   C4A38190   0.099  20.749   7.916
 2922POPC   C1B38191   0.130  20.417   8.783
 2922POPC   C2B38192   0.048  20.257   8.393
 2922POPC   C3B38193   0.208  20.231   8.000
 2922POPC   C4B38194   0.062  20.372   7.581
 2923POPC   NC338195  23.867  33.869   9.389
 2923POPC   PO438196  23.292  33.504   9.386
 2923POPC   GL138197  23.430  33.750   9.017
 2923POPC   GL238198  23.521  34.125   9.075
 2923POPC   C1A38199  23.614  33.848   8.623
 2923POPC   D2A38200  23.978  33.820   8.367
 2923POPC   C3A38201  23.871  33.755   7.928
 2923POPC   C4A38202  23.750  33.508   7.539
 2923POPC   C1B38203  23.296  34.226   8.706
 2923POPC   C2B38204  23.429  34.243   8.272
 2923POPC   C3B38205  23.405  33.953   7.931
 2923POPC   C4B38206  23.523  33.972   7.475
 2924POPC   NC338207  16.739  44.919   9.616
 2924POPC   PO438208  16.265  44.456   9.706
 2924POPC   GL138209  16.376  44.757   9.255
 2924POPC   GL238210  16.686  44.614   9.039
 2924POPC   C1A38211  16.354  44.725   8.722
 2924POPC   D2A38212  16.667  44.526   8.420
 2924POPC   C3A38213  16.538  44.651   8.010
 2924POPC   C4A38214  16.496  44.522   7.583
 2924POPC   C1B38215  17.034  44.424   8.772
 2924POPC   C2B38216  17.279  44.504   8.379
 2924POPC   C3B38217  17.049  44.748   8.119
 2924POPC   C4B38218  16.935  44.799   7.714
 2925POPC   NC338219   4.520   2.315   9.328
 2925POPC   PO438220   3.980   2.044   9.606
 2925POPC   GL138221   4.060   2.151   9.206
 2925POPC   GL238222   4.277   1.912   9.108
 2925POPC   C1A38223   4.149   2.312   8.786
 2925POPC   D2A38224   4.196   2.073   8.423
 2925POPC   C3A38225   4.350   2.152   8.047
 2925POPC   C4A38226   4.232   2.121   7.638
 2925POPC   C1B38227   4.388   1.718   8.761
 2925POPC   C2B38228   4.568   1.727   8.355
 2925POPC   C3B38229   4.433   1.674   7.951
 2925POPC   C4B38230   4.595   1.762   7.564
 2926POPC   NC338231  30.314  19.322   9.725
 2926POPC   PO438232  30.795  18.847   9.471
 2926POPC   GL138233  30.743  18.771   9.082
 2926POPC   GL238234  30.789  19.122   9.014
 2926POPC   C1A38235  30.519  18.835   8.709
 2926POPC   D2A38236  30.608  19.061   8.381
 2926POPC   C3A38237  30.776  18.766   8.150
 2926POPC   C4A38238  30.707  18.756   7.734
 2926POPC   C1B38239  30.912  19.373   8.677
 2926POPC   C2B38240  30.803  19.520   8.255
 2926POPC   C3B38241  30.762  19.279   7.891
 2926POPC   C4B38242  31.045  19.291   7.525
 2927POPC   NC338243   8.688  37.266   9.641
 2927POPC   PO438244   9.205  36.912   9.457
 2927POPC   GL138245   9.028  36.777   9.087
 2927POPC   GL238246   8.711  36.930   9.181
 2927POPC   C1A38247   9.184  36.909   8.675
 2927POPC   D2A38248   9.277  37.313   8.433
 2927POPC   C3A38249   9.319  37.226   7.965
 2927POPC   C4A38250   9.251  36.765   7.801
 2927POPC   C1B38251   8.722  37.159   8.795
 2927POPC   C2B38252   8.514  37.072   8.407
 2927POPC   C3B38253   8.462  37.204   7.969
 2927POPC   C4B38254   8.846  37.073   7.825
 2928POPC   NC338255  21.362  13.614   9.459
 2928POPC   PO438256  21.849  14.079   9.083
 2928POPC   GL138257  21.483  13.873   9.010
 2928POPC   GL238258  21.440  13.523   8.967
 2928POPC   C1A38259  21.343  13.999   8.633
 2928POPC   D2A38260  21.233  13.691   8.413
 2928POPC   C3A38261  21.505  13.686   8.080
 2928POPC   C4A38262  21.520  13.414   7.731
 2928POPC   C1B38263  21.256  13.201   8.694
 2928POPC   C2B38264  21.023  13.220   8.304
 2928POPC   C3B38265  21.034  13.531   7.973
 2928POPC   C4B38266  21.230  13.836   7.688
 2929POPC   NC338267  15.471   0.543   9.450
 2929POPC   PO438268  14.831   0.168   9.491
 2929POPC   GL138269  15.073   0.052   9.112
 2929POPC   GL238270  15.394   0.181   9.083
 2929POPC   C1A38271  15.060   0.125   8.669
 2929POPC   D2A38272  14.858   0.510   8.546
 2929POPC   C3A38273  14.793   0.530   8.105
 2929POPC   C4A38274  15.054   0.688   7.785
 2929POPC   C1B38275  15.428   0.490   8.732
 2929POPC   C2B38276  15.296   0.514   8.287
 2929POPC   C3B38277  15.523   0.533   7.918
 2929POPC   C4B38278  15.822   0.401   7.610
 2930POPC   NC338279  15.830  38.111   9.422
 2930POPC   PO438280  16.223  38.611   9.461
 2930POPC   GL138281  16.060  38.450   9.097
 2930POPC   GL238282  16.206  38.122   9.077
 2930POPC   C1A38283  15.788  38.519   8.746
 2930POPC   D2A38284  15.627  38.364   8.363
 2930POPC   C3A38285  15.832  38.640   8.099
 2930POPC   C4A38286  15.899  38.659   7.720
 2930POPC   C1B38287  16.277  37.967   8.683
 2930POPC   C2B38288  16.167  38.194   8.332
 2930POPC   C3B38289  15.970  38.176   7.974
 2930POPC   C4B38290  16.042  38.193   7.567
 2931POPC   NC338291  32.706  27.367   9.492
 2931POPC   PO438292  33.235  27.657   9.318
 2931POPC   GL138293  33.127  27.416   8.992
 2931POPC   GL238294  32.780  27.328   9.002
 2931POPC   C1A38295  33.136  27.600   8.592
 2931POPC   D2A38296  33.390  27.852   8.336
 2931POPC   C3A38297  33.242  27.785   7.928
 2931POPC   C4A38298  32.907  27.673   7.690
 2931POPC   C1B38299  32.797  27.226   8.587
 2931POPC   C2B38300  32.903  27.394   8.171
 2931POPC   C3B38301  33.061  27.215   7.807
 2931POPC   C4B38302  32.873  27.220   7.382
 2932POPC   NC338303  31.432  41.493   9.570
 2932POPC   PO438304  31.691  42.116   9.416
 2932POPC   GL138305  31.559  41.749   9.168
 2932POPC   GL238306  31.864  41.557   9.158
 2932POPC   C1A38307  31.399  41.465   8.826
 2932POPC   D2A38308  31.198  41.324   8.431
 2932POPC   C3A38309  31.360  41.437   8.007
 2932POPC   C4A38310  31.529  41.139   7.704
 2932POPC   C1B38311  31.780  41.811   8.738
 2932POPC   C2B38312  31.690  41.600   8.363
 2932POPC   C3B38313  31.875  41.328   8.035
 2932POPC   C4B38314  31.818  41.542   7.644
 2933POPC   NC338315  30.861  29.980   9.545
 2933POPC   PO438316  30.354  29.618   9.231
 2933POPC   GL138317  30.647  29.866   8.988
 2933POPC   GL238318  30.792  30.171   9.077
 2933POPC   C1A38319  30.934  29.699   8.713
 2933POPC   D2A38320  30.840  29.518   8.337
 2933POPC   C3A38321  30.648  29.769   8.055
 2933POPC   C4A38322  30.970  29.711   7.824
 2933POPC   C1B38323  31.001  30.190   8.685
 2933POPC   C2B38324  31.043  30.020   8.279
 2933POPC   C3B38325  31.065  30.203   7.866
 2933POPC   C4B38326  30.846  30.176   7.485
 2934POPC   NC338327  14.980   1.413   9.406
 2934POPC   PO438328  15.413   0.971   9.622
 2934POPC   GL138329  15.243   0.984   9.226
 2934POPC   GL238330  15.565   0.941   9.060
 2934POPC   C1A38331  15.120   0.907   8.794
 2934POPC   D2A38332  15.420   0.978   8.474
 2934POPC   C3A38333  15.253   1.077   8.080
 2934POPC   C4A38334  15.429   1.103   7.674
 2934POPC   C1B38335  15.374   1.348   8.857
 2934POPC   C2B38336  15.383   1.510   8.431
 2934POPC   C3B38337  15.591   1.458   8.024
 2934POPC   C4B38338  15.493   1.617   7.583
 2935POPC   NC338339  20.357  34.357   9.437
 2935POPC   PO438340  20.886  34.552   9.069
 2935POPC   GL138341  20.472  34.533   8.969
 2935POPC   GL238342  20.401  34.841   9.139
 2935POPC   C1A38343  20.444  34.491   8.544
 2935POPC   D2A38344  20.831  34.672   8.422
 2935POPC   C3A38345  20.925  34.529   8.029
 2935POPC   C4A38346  20.641  34.724   7.743
 2935POPC   C1B38347  20.237  34.928   8.718
 2935POPC   C2B38348  20.354  34.913   8.249
 2935POPC   C3B38349  20.278  35.065   7.804
 2935POPC   C4B38350  20.118  34.789   7.452
 2936POPC   NC338351   8.315  27.797   9.969
 2936POPC   PO438352   8.513  27.659   9.378
 2936POPC   GL138353   8.261  27.708   9.084
 2936POPC   GL238354   8.066  27.399   9.131
 2936POPC   C1A38355   8.422  27.765   8.680
 2936POPC   D2A38356   8.323  27.544   8.316
 2936POPC   C3A38357   8.321  27.783   8.012
 2936POPC   C4A38358   8.345  27.602   7.649
 2936POPC   C1B38359   7.963  27.517   8.712
 2936POPC   C2B38360   7.802  27.462   8.332
 2936POPC   C3B38361   7.989  27.378   7.954
 2936POPC   C4B38362   7.889  27.417   7.550
 2937POPC   NC338363  44.954  17.470   9.556
 2937POPC   PO438364   0.402  17.928   9.388
 2937POPC   GL138365   0.223  17.619   9.113
 2937POPC   GL238366   0.291  17.277   9.214
 2937POPC   C1A38367   0.354  17.428   8.718
 2937POPC   D2A38368   0.651  17.428   8.370
 2937POPC   C3A38369   0.554  17.603   7.973
 2937POPC   C4A38370   0.705  17.254   7.758
 2937POPC   C1B38371  44.924  17.143   8.965
 2937POPC   C2B38372  44.973  17.110   8.524
 2937POPC   C3B38373  44.939  17.261   8.114
 2937POPC   C4B38374   0.206  17.278   7.766
 2938POPC   NC338375  44.278  12.147   9.497
 2938POPC   PO438376  44.056  11.564   9.435
 2938POPC   GL138377  43.968  11.923   9.136
 2938POPC   GL238378  43.624  12.071   9.053
 2938POPC   C1A38379  44.012  12.026   8.706
 2938POPC   D2A38380  43.961  12.208   8.295
 2938POPC   C3A38381  43.996  11.880   7.992
 2938POPC   C4A38382  43.957  11.920   7.552
 2938POPC   C1B38383  43.550  12.276   8.659
 2938POPC   C2B38384  43.441  12.381   8.236
 2938POPC   C3B38385  43.639  12.215   7.868
 2938POPC   C4B38386  43.660  12.292   7.402
 2939POPC   NC338387  41.657  17.229   9.609
 2939POPC   PO438388  41.966  17.743   9.503
 2939POPC   GL138389  41.740  17.628   9.124
 2939POPC   GL238390  41.388  17.682   9.221
 2939POPC   C1A38391  41.610  17.373   8.755
 2939POPC   D2A38392  41.417  17.116   8.407
 2939POPC   C3A38393  41.608  17.250   8.005
 2939POPC   C4A38394  41.660  17.448   7.604
 2939POPC   C1B38395  41.330  17.807   8.772
 2939POPC   C2B38396  41.388  17.611   8.349
 2939POPC   C3B38397  41.404  17.775   7.930
 2939POPC   C4B38398  41.123  17.658   7.621
 2940POPC   NC338399  20.200  41.059   9.461
 2940POPC   PO438400  20.847  40.852   9.525
 2940POPC   GL138401  20.798  40.995   9.106
 2940POPC   GL238402  20.443  40.867   9.066
 2940POPC   C1A38403  20.707  41.005   8.659
 2940POPC   D2A38404  20.522  40.712   8.421
 2940POPC   C3A38405  20.700  40.627   8.029
 2940POPC   C4A38406  20.419  40.414   7.763
 2940POPC   C1B38407  20.248  41.191   8.798
 2940POPC   C2B38408  20.354  41.254   8.372
 2940POPC   C3B38409  20.476  41.073   8.042
 2940POPC   C4B38410  20.243  40.886   7.721
 2941POPC   NC338411  21.535  36.473   9.466
 2941POPC   PO438412  21.920  35.954   9.545
 2941POPC   GL138413  21.707  35.797   9.171
 2941POPC   GL238414  21.393  36.004   9.112
 2941POPC   C1A38415  21.720  35.944   8.735
 2941POPC   D2A38416  21.410  36.083   8.421
 2941POPC   C3A38417  21.508  36.151   7.982
 2941POPC   C4A38418  21.374  36.146   7.530
 2941POPC   C1B38419  21.058  36.138   8.809
 2941POPC   C2B38420  20.979  36.344   8.411
 2941POPC   C3B38421  21.022  36.270   7.981
 2941POPC   C4B38422  20.807  36.603   7.904
 2942POPC   NC338423   7.847  26.783   9.644
 2942POPC   PO438424   8.406  26.930   9.594
 2942POPC   GL138425   8.418  26.806   9.156
 2942POPC   GL238426   8.450  27.084   9.049
 2942POPC   C1A38427   8.223  26.763   8.727
 2942POPC   D2A38428   8.099  27.028   8.344
 2942POPC   C3A38429   7.943  26.866   7.933
 2942POPC   C4A38430   8.145  26.644   7.562
 2942POPC   C1B38431   8.436  27.235   8.683
 2942POPC   C2B38432   8.606  27.085   8.278
 2942POPC   C3B38433   8.460  26.907   7.920
 2942POPC   C4B38434   8.356  27.108   7.551
 2943POPC   NC338435  23.308  31.291   9.568
 2943POPC   PO438436  23.940  31.564   9.378
 2943POPC   GL138437  23.843  31.438   9.043
 2943POPC   GL238438  23.529  31.328   9.110
 2943POPC   C1A38439  23.682  31.642   8.705
 2943POPC   D2A38440  23.831  31.630   8.335
 2943POPC   C3A38441  23.595  31.678   7.961
 2943POPC   C4A38442  23.876  31.712   7.591
 2943POPC   C1B38443  23.615  31.128   8.711
 2943POPC   C2B38444  23.485  31.249   8.328
 2943POPC   C3B38445  23.324  31.219   7.958
 2943POPC   C4B38446  23.546  31.303   7.613
 2944POPC   NC338447  37.238   4.881   9.530
 2944POPC   PO438448  37.907   5.081   9.567
 2944POPC   GL138449  37.590   5.091   9.222
 2944POPC   GL238450  37.617   4.754   9.226
 2944POPC   C1A38451  37.520   5.229   8.816
 2944POPC   D2A38452  37.796   5.046   8.563
 2944POPC   C3A38453  37.689   5.097   8.172
 2944POPC   C4A38454  37.664   5.066   7.761
 2944POPC   C1B38455  37.333   4.738   8.874
 2944POPC   C2B38456  37.291   4.521   8.477
 2944POPC   C3B38457  37.411   4.685   8.061
 2944POPC   C4B38458  37.254   4.676   7.664
 2945POPC   NC338459  44.495  39.620   9.667
 2945POPC   PO438460  44.910  40.322   9.637
 2945POPC   GL138461  44.762  40.196   9.223
 2945POPC   GL238462   0.115  40.263   9.166
 2945POPC   C1A38463  44.622  40.249   8.797
 2945POPC   D2A38464  44.487  40.274   8.343
 2945POPC   C3A38465  44.587  39.870   8.089
 2945POPC   C4A38466  44.465  39.826   7.635
 2945POPC   C1B38467   0.106  40.405   8.768
 2945POPC   C2B38468  44.999  40.199   8.394
 2945POPC   C3B38469  44.851  40.287   7.979
 2945POPC   C4B38470  44.940  40.006   7.672
 2946POPC   NC338471  16.027  27.773   9.329
 2946POPC   PO438472  15.814  27.153   9.257
 2946POPC   GL138473  15.923  27.381   8.931
 2946POPC   GL238474  16.262  27.306   9.023
 2946POPC   C1A38475  15.763  27.697   8.641
 2946POPC   D2A38476  15.763  27.865   8.236
 2946POPC   C3A38477  15.824  27.516   7.940
 2946POPC   C4A38478  15.600  27.230   7.681
 2946POPC   C1B38479  16.339  27.653   8.737
 2946POPC   C2B38480  16.194  27.600   8.323
 2946POPC   C3B38481  16.212  27.835   7.932
 2946POPC   C4B38482  16.167  27.702   7.511
 2947POPC   NC338483   2.428  38.798   9.591
 2947POPC   PO438484   2.910  39.261   9.579
 2947POPC   GL138485   2.694  39.252   9.182
 2947POPC   GL238486   2.522  38.949   9.084
 2947POPC   C1A38487   2.718  39.332   8.728
 2947POPC   D2A38488   3.019  39.517   8.440
 2947POPC   C3A38489   2.952  39.690   8.010
 2947POPC   C4A38490   3.068  39.511   7.590
 2947POPC   C1B38491   2.505  38.850   8.621
 2947POPC   C2B38492   2.604  39.112   8.242
 2947POPC   C3B38493   2.665  39.302   7.839
 2947POPC   C4B38494   2.694  39.208   7.363
 2948POPC   NC338495  10.483   8.773   9.441
 2948POPC   PO438496  10.336   9.487   9.526
 2948POPC   GL138497  10.360   9.202   9.198
 2948POPC   GL238498  10.681   9.121   9.094
 2948POPC   C1A38499  10.320   8.994   8.753
 2948POPC   D2A38500  10.578   9.116   8.402
 2948POPC   C3A38501  10.384   9.144   8.013
 2948POPC   C4A38502  10.473   9.108   7.591
 2948POPC   C1B38503  10.826   8.838   8.756
 2948POPC   C2B38504  10.822   8.668   8.361
 2948POPC   C3B38505  10.920   8.835   7.958
 2948POPC   C4B38506  11.191   8.593   7.746
 2949POPC   NC338507  12.870  26.834   9.538
 2949POPC   PO438508  12.425  27.249   9.360
 2949POPC   GL138509  12.664  26.963   9.112
 2949POPC   GL238510  12.621  26.558   9.197
 2949POPC   C1A38511  12.990  27.035   8.814
 2949POPC   D2A38512  12.852  26.879   8.408
 2949POPC   C3A38513  12.993  26.992   7.998
 2949POPC   C4A38514  12.813  27.002   7.573
 2949POPC   C1B38515  12.893  26.547   8.824
 2949POPC   C2B38516  13.067  26.413   8.402
 2949POPC   C3B38517  12.920  26.499   7.991
 2949POPC   C4B38518  12.928  26.508   7.547
 2950POPC   NC338519   6.597   3.367   9.395
 2950POPC   PO438520   6.320   3.882   9.339
 2950POPC   GL138521   6.576   3.635   8.970
 2950POPC   GL238522   6.812   3.299   8.941
 2950POPC   C1A38523   6.794   3.712   8.585
 2950POPC   D2A38524   6.579   3.951   8.263
 2950POPC   C3A38525   6.674   3.732   7.871
 2950POPC   C4A38526   6.623   3.584   7.449
 2950POPC   C1B38527   6.544   3.123   8.651
 2950POPC   C2B38528   6.524   3.198   8.221
 2950POPC   C3B38529   6.523   3.220   7.785
 2950POPC   C4B38530   6.745   3.092   7.401
 2951POPC   NC338531  34.903   3.195   9.414
 2951POPC   PO438532  34.410   3.582   9.400
 2951POPC   GL138533  34.350   3.515   9.004
 2951POPC   GL238534  34.579   3.275   9.017
 2951POPC   C1A38535  34.451   3.633   8.569
 2951POPC   D2A38536  34.648   3.878   8.215
 2951POPC   C3A38537  34.508   3.835   7.790
 2951POPC   C4A38538  34.276   3.469   7.652
 2951POPC   C1B38539  34.934   3.188   8.779
 2951POPC   C2B38540  34.986   3.154   8.390
 2951POPC   C3B38541  34.697   3.314   8.118
 2951POPC   C4B38542  34.821   3.390   7.729
 2952POPC   NC338543  18.278  14.631   9.607
 2952POPC   PO438544  18.412  13.937   9.686
 2952POPC   GL138545  18.453  14.251   9.311
 2952POPC   GL238546  18.147  14.338   9.189
 2952POPC   C1A38547  18.508  14.419   8.853
 2952POPC   D2A38548  18.381  14.585   8.482
 2952POPC   C3A38549  18.586  14.486   8.125
 2952POPC   C4A38550  18.445  14.635   7.740
 2952POPC   C1B38551  18.043  14.224   8.781
 2952POPC   C2B38552  18.126  14.143   8.351
 2952POPC   C3B38553  17.895  14.192   7.942
 2952POPC   C4B38554  17.845  14.206   7.437
 2953POPC   NC338555  35.787  11.623   9.555
 2953POPC   PO438556  35.176  11.370   9.635
 2953POPC   GL138557  35.197  11.363   9.199
 2953POPC   GL238558  35.545  11.273   9.167
 2953POPC   C1A38559  35.324  11.504   8.787
 2953POPC   D2A38560  35.543  11.314   8.426
 2953POPC   C3A38561  35.305  11.424   8.062
 2953POPC   C4A38562  35.384  11.691   7.719
 2953POPC   C1B38563  35.395  11.009   8.836
 2953POPC   C2B38564  35.093  11.061   8.542
 2953POPC   C3B38565  34.964  10.883   8.166
 2953POPC   C4B38566  34.988  10.961   7.724
 2954POPC   NC338567  34.447  22.059   9.831
 2954POPC   PO438568  34.910  22.281   9.439
 2954POPC   GL138569  34.507  22.139   9.227
 2954POPC   GL238570  34.292  22.432   9.066
 2954POPC   C1A38571  34.439  21.924   8.837
 2954POPC   D2A38572  34.260  22.112   8.489
 2954POPC   C3A38573  34.434  21.995   8.101
 2954POPC   C4A38574  34.804  22.007   7.877
 2954POPC   C1B38575  34.650  22.377   8.778
 2954POPC   C2B38576  34.758  22.300   8.361
 2954POPC   C3B38577  34.612  22.484   7.957
 2954POPC   C4B38578  34.661  22.355   7.517
 2955POPC   NC338579  24.805   8.867   9.417
 2955POPC   PO438580  24.301   9.199   9.607
 2955POPC   GL138581  24.427   9.181   9.207
 2955POPC   GL238582  24.348   8.836   9.173
 2955POPC   C1A38583  24.593   9.327   8.826
 2955POPC   D2A38584  24.836   9.210   8.493
 2955POPC   C3A38585  24.649   9.216   8.098
 2955POPC   C4A38586  24.533   9.044   7.725
 2955POPC   C1B38587  24.568   8.819   8.780
 2955POPC   C2B38588  24.594   8.783   8.347
 2955POPC   C3B38589  24.501   8.600   7.969
 2955POPC   C4B38590  24.110   8.581   7.799
 2956POPC   NC338591  38.309  27.285   9.616
 2956POPC   PO438592  38.436  26.589   9.648
 2956POPC   GL138593  38.497  26.584   9.232
 2956POPC   GL238594  38.487  26.935   9.228
 2956POPC   C1A38595  38.276  26.634   8.843
 2956POPC   D2A38596  38.142  26.924   8.510
 2956POPC   C3A38597  38.403  26.816   8.191
 2956POPC   C4A38598  38.332  26.480   7.875
 2956POPC   C1B38599  38.617  27.010   8.791
 2956POPC   C2B38600  38.875  26.886   8.437
 2956POPC   C3B38601  38.841  27.017   8.010
 2956POPC   C4B38602  38.548  26.916   7.709
 2957POPC   NC338603  15.850  44.625   9.563
 2957POPC   PO438604  16.342  44.271   9.202
 2957POPC   GL138605  15.962  44.482   9.066
 2957POPC   GL238606  15.891  44.844   9.103
 2957POPC   C1A38607  15.874  44.636   8.648
 2957POPC   D2A38608  16.058  44.844   8.313
 2957POPC   C3A38609  15.838  44.569   8.073
 2957POPC   C4A38610  15.853  44.364   7.712
 2957POPC   C1B38611  15.796   0.124   8.747
 2957POPC   C2B38612  15.588   0.095   8.370
 2957POPC   C3B38613  15.744   0.055   7.956
 2957POPC   C4B38614  16.122  44.870   7.775
 2958POPC   NC338615   2.665  25.948   9.668
 2958POPC   PO438616   3.149  26.294   9.351
 2958POPC   GL138617   2.900  26.113   9.034
 2958POPC   GL238618   2.778  25.810   9.169
 2958POPC   C1A38619   2.935  26.093   8.571
 2958POPC   D2A38620   2.836  25.915   8.165
 2958POPC   C3A38621   2.813  26.174   7.822
 2958POPC   C4A38622   3.100  26.438   7.658
 2958POPC   C1B38623   2.529  25.845   8.772
 2958POPC   C2B38624   2.382  25.788   8.319
 2958POPC   C3B38625   2.461  25.792   7.834
 2958POPC   C4B38626   2.643  25.822   7.408
 2959POPC   NC338627  10.224  26.521   9.611
 2959POPC   PO438628  10.745  26.939   9.566
 2959POPC   GL138629  10.631  27.018   9.149
 2959POPC   GL238630  10.281  26.919   9.149
 2959POPC   C1A38631  10.566  26.815   8.728
 2959POPC   D2A38632  10.460  26.607   8.361
 2959POPC   C3A38633  10.729  26.620   7.995
 2959POPC   C4A38634  10.716  26.961   7.675
 2959POPC   C1B38635  10.142  27.131   8.748
 2959POPC   C2B38636  10.068  26.970   8.320
 2959POPC   C3B38637  10.316  26.892   7.971
 2959POPC   C4B38638  10.225  26.801   7.550
 2960POPC   NC338639  30.136   8.246   9.369
 2960POPC   PO438640  29.721   7.740   9.338
 2960POPC   GL138641  29.849   8.015   9.006
 2960POPC   GL238642  30.192   8.104   8.899
 2960POPC   C1A38643  29.709   8.207   8.646
 2960POPC   D2A38644  29.996   8.254   8.330
 2960POPC   C3A38645  29.779   8.240   7.976
 2960POPC   C4A38646  29.817   8.023   7.598
 2960POPC   C1B38647  30.210   7.839   8.578
 2960POPC   C2B38648  30.345   7.885   8.165
 2960POPC   C3B38649  30.308   8.145   7.801
 2960POPC   C4B38650  30.305   8.182   7.355
 2961POPC   NC338651  10.994   4.662   9.485
 2961POPC   PO438652  10.531   4.125   9.530
 2961POPC   GL138653  10.288   4.253   9.158
 2961POPC   GL238654  10.297   4.589   9.111
 2961POPC   C1A38655  10.326   4.082   8.753
 2961POPC   D2A38656  10.368   4.288   8.420
 2961POPC   C3A38657  10.499   4.114   8.058
 2961POPC   C4A38658  10.700   3.999   7.682
 2961POPC   C1B38659  10.614   4.554   8.822
 2961POPC   C2B38660  10.675   4.692   8.401
 2961POPC   C3B38661  10.438   4.627   8.068
 2961POPC   C4B38662  10.583   4.518   7.711
 2962POPC   NC338663  41.277  43.752   9.395
 2962POPC   PO438664  40.895  44.228   9.727
 2962POPC   GL138665  40.828  44.058   9.294
 2962POPC   GL238666  40.690  43.728   9.325
 2962POPC   C1A38667  40.947  44.024   8.839
 2962POPC   D2A38668  41.240  44.153   8.460
 2962POPC   C3A38669  41.024  44.194   8.062
 2962POPC   C4A38670  40.733  44.182   7.715
 2962POPC   C1B38671  40.787  43.512   8.942
 2962POPC   C2B38672  40.634  43.485   8.535
 2962POPC   C3B38673  40.858  43.475   8.112
 2962POPC   C4B38674  40.871  43.684   7.725
 2963POPC   NC338675  16.337  20.394   9.577
 2963POPC   PO438676  15.650  20.567   9.508
 2963POPC   GL138677  15.975  20.477   9.188
 2963POPC   GL238678  16.031  20.758   8.976
 2963POPC   C1A38679  16.076  20.326   8.747
 2963POPC   D2A38680  16.160  20.621   8.410
 2963POPC   C3A38681  16.045  20.568   7.966
 2963POPC   C4A38682  16.054  20.399   7.555
 2963POPC   C1B38683  15.684  20.632   8.684
 2963POPC   C2B38684  15.706  20.351   8.320
 2963POPC   C3B38685  15.532  20.537   7.950
 2963POPC   C4B38686  15.669  20.765   7.602
 2964POPC   NC338687  24.205  42.877   9.309
 2964POPC   PO438688  23.539  42.986   9.517
 2964POPC   GL138689  23.713  42.911   9.122
 2964POPC   GL238690  23.887  43.241   9.094
 2964POPC   C1A38691  23.757  42.980   8.679
 2964POPC   D2A38692  23.488  42.979   8.364
 2964POPC   C3A38693  23.584  42.815   8.000
 2964POPC   C4A38694  23.673  42.966   7.631
 2964POPC   C1B38695  24.072  43.383   8.706
 2964POPC   C2B38696  24.228  43.293   8.306
 2964POPC   C3B38697  24.034  43.106   7.948
 2964POPC   C4B38698  24.065  43.273   7.494
 2965POPC   NC338699  24.205   0.165   9.410
 2965POPC   PO438700  23.595   0.534   9.444
 2965POPC   GL138701  23.815   0.690   9.091
 2965POPC   GL238702  23.894   0.357   9.050
 2965POPC   C1A38703  23.716   0.684   8.635
 2965POPC   D2A38704  23.635   0.373   8.284
 2965POPC   C3A38705  23.600   0.487   7.812
 2965POPC   C4A38706  23.591   0.433   7.345
 2965POPC   C1B38707  24.116   0.333   8.698
 2965POPC   C2B38708  24.121   0.541   8.326
 2965POPC   C3B38709  24.091   0.339   7.966
 2965POPC   C4B38710  24.061   0.548   7.615
 2966POPC   NC338711   8.430  10.140   9.442
 2966POPC   PO438712   8.200  10.705   9.608
 2966POPC   GL138713   8.252  10.572   9.192
 2966POPC   GL238714   7.920  10.711   9.114
 2966POPC   C1A38715   8.519  10.638   8.800
 2966POPC   D2A38716   8.315  10.555   8.382
 2966POPC   C3A38717   8.387  10.732   7.958
 2966POPC   C4A38718   8.494  10.460   7.564
 2966POPC   C1B38719   7.961  10.428   8.765
 2966POPC   C2B38720   7.949  10.177   8.378
 2966POPC   C3B38721   8.114  10.302   7.971
 2966POPC   C4B38722   8.000  10.611   7.630
 2967POPC   NC338723  39.144  25.171   9.533
 2967POPC   PO438724  39.807  25.520   9.458
 2967POPC   GL138725  39.491  25.308   9.160
 2967POPC   GL238726  39.080  25.376   9.076
 2967POPC   C1A38727  39.420  25.245   8.712
 2967POPC   D2A38728  39.278  25.333   8.317
 2967POPC   C3A38729  39.527  25.292   7.938
 2967POPC   C4A38730  39.368  25.373   7.508
 2967POPC   C1B38731  38.904  25.141   8.702
 2967POPC   C2B38732  38.893  25.002   8.266
 2967POPC   C3B38733  39.032  25.207   7.880
 2967POPC   C4B38734  38.980  25.056   7.416
 2968POPC   NC338735  36.019  23.159   9.248
 2968POPC   PO438736  35.610  23.638   9.627
 2968POPC   GL138737  35.994  23.683   9.258
 2968POPC   GL238738  36.359  23.588   9.205
 2968POPC   C1A38739  36.033  23.637   8.781
 2968POPC   D2A38740  35.930  23.546   8.356
 2968POPC   C3A38741  35.950  23.747   7.967
 2968POPC   C4A38742  36.053  23.442   7.655
 2968POPC   C1B38743  36.412  23.938   8.887
 2968POPC   C2B38744  36.195  24.034   8.493
 2968POPC   C3B38745  36.308  24.099   8.072
 2968POPC   C4B38746  36.388  23.799   7.712
 2969POPC   NC338747  36.136  36.591   9.561
 2969POPC   PO438748  35.948  37.210   9.458
 2969POPC   GL138749  36.283  37.148   9.145
 2969POPC   GL238750  36.275  36.812   9.130
 2969POPC   C1A38751  36.347  37.102   8.700
 2969POPC   D2A38752  36.051  37.153   8.348
 2969POPC   C3A38753  36.256  36.992   7.978
 2969POPC   C4A38754  36.038  36.761   7.660
 2969POPC   C1B38755  36.289  36.565   8.771
 2969POPC   C2B38756  36.181  36.651   8.384
 2969POPC   C3B38757  36.285  36.474   8.014
 2969POPC   C4B38758  36.512  36.563   7.645
 2970POPC   NC338759  14.424  28.883   9.413
 2970POPC   PO438760  14.329  29.559   9.568
 2970POPC   GL138761  14.279  29.315   9.164
 2970POPC   GL238762  14.625  29.274   9.142
 2970POPC   C1A38763  14.224  29.111   8.721
 2970POPC   D2A38764  14.329  28.914   8.350
 2970POPC   C3A38765  14.027  29.033   8.071
 2970POPC   C4A38766  14.128  29.086   7.652
 2970POPC   C1B38767  14.715  29.026   8.782
 2970POPC   C2B38768  14.789  29.181   8.365
 2970POPC   C3B38769  14.635  29.080   7.946
 2970POPC   C4B38770  14.914  28.818   7.724
 2971POPC   NC338771  33.476   2.695   9.538
 2971POPC   PO438772  34.106   2.723   9.369
 2971POPC   GL138773  33.783   2.926   9.156
 2971POPC   GL238774  33.677   2.606   9.068
 2971POPC   C1A38775  33.638   2.995   8.733
 2971POPC   D2A38776  33.726   2.711   8.379
 2971POPC   C3A38777  33.747   2.969   8.045
 2971POPC   C4A38778  34.089   3.011   7.777
 2971POPC   C1B38779  33.428   2.512   8.735
 2971POPC   C2B38780  33.271   2.396   8.351
 2971POPC   C3B38781  33.460   2.461   7.983
 2971POPC   C4B38782  33.839   2.529   7.775
 2972POPC   NC338783  12.585  30.581   9.451
 2972POPC   PO438784  13.242  30.750   9.623
 2972POPC   GL138785  13.046  30.621   9.218
 2972POPC   GL238786  12.886  30.917   9.193
 2972POPC   C1A38787  12.980  30.567   8.763
 2972POPC   D2A38788  13.094  30.665   8.316
 2972POPC   C3A38789  12.949  30.554   7.874
 2972POPC   C4A38790  13.134  30.415   7.398
 2972POPC   C1B38791  12.618  30.932   8.837
 2972POPC   C2B38792  12.514  30.675   8.504
 2972POPC   C3B38793  12.486  30.774   8.090
 2972POPC   C4B38794  12.575  30.946   7.709
 2973POPC   NC338795  16.654  12.012   9.481
 2973POPC   PO438796  17.187  12.428   9.370
 2973POPC   GL138797  16.932  12.162   9.051
 2973POPC   GL238798  16.560  12.098   9.003
 2973POPC   C1A38799  16.850  12.136   8.584
 2973POPC   D2A38800  16.927  12.166   8.133
 2973POPC   C3A38801  16.783  11.929   7.809
 2973POPC   C4A38802  16.854  11.859   7.387
 2973POPC   C1B38803  16.333  12.019   8.648
 2973POPC   C2B38804  16.450  11.939   8.245
 2973POPC   C3B38805  16.361  12.200   7.907
 2973POPC   C4B38806  16.511  12.343   7.488
 2974POPC   NC338807  20.918   1.981   9.784
 2974POPC   PO438808  20.278   1.981   9.519
 2974POPC   GL138809  20.567   2.000   9.121
 2974POPC   GL238810  20.734   2.346   8.940
 2974POPC   C1A38811  20.383   2.053   8.743
 2974POPC   D2A38812  20.499   2.333   8.404
 2974POPC   C3A38813  20.484   2.151   7.981
 2974POPC   C4A38814  20.457   1.888   7.592
 2974POPC   C1B38815  20.872   2.028   8.623
 2974POPC   C2B38816  21.108   2.050   8.219
 2974POPC   C3B38817  20.948   1.895   7.828
 2974POPC   C4B38818  20.868   1.469   7.697
 2975POPC   NC338819  28.599  22.800   9.879
 2975POPC   PO438820  28.199  23.126   9.474
 2975POPC   GL138821  28.340  22.880   9.158
 2975POPC   GL238822  28.695  22.899   9.152
 2975POPC   C1A38823  28.443  22.639   8.794
 2975POPC   D2A38824  28.522  22.770   8.403
 2975POPC   C3A38825  28.604  22.624   8.017
 2975POPC   C4A38826  28.314  22.632   7.717
 2975POPC   C1B38827  28.668  23.145   8.723
 2975POPC   C2B38828  28.530  23.255   8.251
 2975POPC   C3B38829  28.447  23.124   7.798
 2975POPC   C4B38830  28.467  23.272   7.346
 2976POPC   NC338831   9.097  29.985   9.509
 2976POPC   PO438832   8.428  29.970   9.575
 2976POPC   GL138833   8.708  30.057   9.180
 2976POPC   GL238834   9.056  29.970   9.013
 2976POPC   C1A38835   8.692  30.101   8.715
 2976POPC   D2A38836   8.915  29.780   8.516
 2976POPC   C3A38837   8.919  29.815   8.095
 2976POPC   C4A38838   9.017  30.035   7.750
 2976POPC   C1B38839   9.222  29.561   8.904
 2976POPC   C2B38840   9.417  29.360   8.544
 2976POPC   C3B38841   9.372  29.605   8.184
 2976POPC   C4B38842   9.297  29.617   7.765
 2977POPC   NC338843  38.440  34.493   9.535
 2977POPC   PO438844  38.515  35.162   9.581
 2977POPC   GL138845  38.703  34.802   9.248
 2977POPC   GL238846  38.681  34.426   9.108
 2977POPC   C1A38847  38.687  34.789   8.772
 2977POPC   D2A38848  38.474  34.769   8.375
 2977POPC   C3A38849  38.681  34.494   8.082
 2977POPC   C4A38850  38.616  34.349   7.646
 2977POPC   C1B38851  38.310  34.418   8.820
 2977POPC   C2B38852  38.232  34.318   8.375
 2977POPC   C3B38853  38.214  34.237   7.930
 2977POPC   C4B38854  38.137  34.441   7.510
 2978POPC   NC338855  24.217  10.380   9.571
 2978POPC   PO438856  24.838  10.637   9.478
 2978POPC   GL138857  24.543  10.599   9.120
 2978POPC   GL238858  24.211  10.473   9.087
 2978POPC   C1A38859  24.603  10.396   8.732
 2978POPC   D2A38860  24.605  10.180   8.364
 2978POPC   C3A38861  24.585  10.533   8.081
 2978POPC   C4A38862  24.677  10.698   7.671
 2978POPC   C1B38863  24.200  10.112   8.815
 2978POPC   C2B38864  24.108  10.102   8.426
 2978POPC   C3B38865  24.248  10.012   8.047
 2978POPC   C4B38866  24.338  10.288   7.721
 2979POPC   NC338867  29.495  12.209   9.404
 2979POPC   PO438868  30.111  12.446   9.480
 2979POPC   GL138869  29.968  12.248   9.112
 2979POPC   GL238870  29.853  11.921   9.184
 2979POPC   C1A38871  29.949  12.279   8.680
 2979POPC   D2A38872  30.188  12.318   8.327
 2979POPC   C3A38873  29.939  12.268   7.980
 2979POPC   C4A38874  30.024  12.194   7.553
 2979POPC   C1B38875  29.957  11.757   8.794
 2979POPC   C2B38876  29.866  11.830   8.349
 2979POPC   C3B38877  29.957  11.720   7.926
 2979POPC   C4B38878  29.787  11.758   7.510
 2980POPC   NC338879   2.189  10.739   9.497
 2980POPC   PO438880   2.374  10.119   9.391
 2980POPC   GL138881   2.046  10.300   9.168
 2980POPC   GL238882   1.910  10.626   9.108
 2980POPC   C1A38883   1.992  10.273   8.728
 2980POPC   D2A38884   1.816  10.274   8.341
 2980POPC   C3A38885   2.023  10.419   7.995
 2980POPC   C4A38886   1.828  10.411   7.596
 2980POPC   C1B38887   1.917  10.805   8.743
 2980POPC   C2B38888   1.758  10.797   8.350
 2980POPC   C3B38889   2.037  10.948   8.032
 2980POPC   C4B38890   2.193  10.786   7.656
 2981POPC   NC338891  27.965  20.166   9.393
 2981POPC   PO438892  28.543  19.839   9.408
 2981POPC   GL138893  28.393  19.966   9.028
 2981POPC   GL238894  28.071  19.810   9.003
 2981POPC   C1A38895  28.376  19.780   8.599
 2981POPC   D2A38896  28.532  19.404   8.392
 2981POPC   C3A38897  28.569  19.535   7.977
 2981POPC   C4A38898  28.606  19.899   7.772
 2981POPC   C1B38899  28.078  20.187   8.698
 2981POPC   C2B38900  28.189  20.204   8.266
 2981POPC   C3B38901  28.094  19.942   7.927
 2981POPC   C4B38902  28.107  20.080   7.516
 2982POPC   NC338903  44.282  24.703   9.762
 2982POPC   PO438904  43.701  24.515   9.545
 2982POPC   GL138905  43.803  24.527   9.142
 2982POPC   GL238906  43.998  24.280   9.120
 2982POPC   C1A38907  43.822  24.754   8.767
 2982POPC   D2A38908  43.595  24.775   8.440
 2982POPC   C3A38909  43.806  24.756   8.126
 2982POPC   C4A38910  43.731  24.565   7.801
 2982POPC   C1B38911  43.857  24.229   8.703
 2982POPC   C2B38912  44.041  24.338   8.321
 2982POPC   C3B38913  44.009  24.155   7.915
 2982POPC   C4B38914  44.001  24.292   7.477
 2983POPC   NC338915  31.569  36.247   9.566
 2983POPC   PO438916  31.029  35.848   9.477
 2983POPC   GL138917  31.354  36.025   9.172
 2983POPC   GL238918  31.404  36.398   9.109
 2983POPC   C1A38919  31.386  36.006   8.742
 2983POPC   D2A38920  31.603  36.205   8.429
 2983POPC   C3A38921  31.564  36.016   8.060
 2983POPC   C4A38922  31.342  35.788   7.760
 2983POPC   C1B38923  31.792  36.391   8.859
 2983POPC   C2B38924  32.035  36.488   8.445
 2983POPC   C3B38925  31.895  36.472   8.032
 2983POPC   C4B38926  31.743  36.275   7.678
 2984POPC   NC338927  32.649  28.588   9.757
 2984POPC   PO438928  33.229  28.544   9.470
 2984POPC   GL138929  33.280  28.443   9.025
 2984POPC   GL238930  33.400  28.082   8.966
 2984POPC   C1A38931  33.039  28.600   8.658
 2984POPC   D2A38932  32.910  28.531   8.267
 2984POPC   C3A38933  33.237  28.313   8.085
 2984POPC   C4A38934  33.260  28.256   7.677
 2984POPC   C1B38935  33.025  28.089   8.684
 2984POPC   C2B38936  32.884  27.953   8.268
 2984POPC   C3B38937  32.806  28.159   7.865
 2984POPC   C4B38938  32.869  28.084   7.398
 2985POPC   NC338939  37.891  33.792   9.525
 2985POPC   PO438940  37.401  34.014   9.923
 2985POPC   GL138941  37.513  34.109   9.393
 2985POPC   GL238942  37.887  34.151   9.183
 2985POPC   C1A38943  37.478  33.969   8.908
 2985POPC   D2A38944  37.602  33.665   8.522
 2985POPC   C3A38945  37.430  33.718   8.093
 2985POPC   C4A38946  37.458  33.816   7.647
 2985POPC   C1B38947  37.965  34.019   8.739
 2985POPC   C2B38948  37.790  34.082   8.314
 2985POPC   C3B38949  37.905  33.835   7.952
 2985POPC   C4B38950  37.958  33.972   7.550
 2986POPC   NC338951   5.340  19.995   9.627
 2986POPC   PO438952   4.637  20.018   9.637
 2986POPC   GL138953   4.942  19.965   9.237
 2986POPC   GL238954   5.163  20.205   9.176
 2986POPC   C1A38955   5.073  19.829   8.817
 2986POPC   D2A38956   4.962  19.627   8.417
 2986POPC   C3A38957   5.229  19.682   8.070
 2986POPC   C4A38958   5.089  19.744   7.662
 2986POPC   C1B38959   5.072  20.331   8.730
 2986POPC   C2B38960   5.191  20.225   8.287
 2986POPC   C3B38961   5.152  20.194   7.835
 2986POPC   C4B38962   5.297  20.068   7.352
 2987POPC   NC338963  28.876  21.422   9.387
 2987POPC   PO438964  29.585  21.191   9.450
 2987POPC   GL138965  29.300  21.253   9.139
 2987POPC   GL238966  29.301  21.629   9.140
 2987POPC   C1A38967  29.298  21.285   8.702
 2987POPC   D2A38968  29.531  21.563   8.423
 2987POPC   C3A38969  29.552  21.393   8.033
 2987POPC   C4A38970  29.322  21.433   7.670
 2987POPC   C1B38971  29.092  21.761   8.760
 2987POPC   C2B38972  28.986  21.584   8.380
 2987POPC   C3B38973  28.910  21.499   7.972
 2987POPC   C4B38974  28.979  21.808   7.650
 2988POPC   NC338975  43.118  19.244   9.502
 2988POPC   PO438976  42.750  18.623   9.528
 2988POPC   GL138977  42.882  18.889   9.228
 2988POPC   GL238978  43.276  18.865   9.186
 2988POPC   C1A38979  42.906  18.873   8.805
 2988POPC   D2A38980  42.825  19.207   8.517
 2988POPC   C3A38981  42.940  19.014   8.181
 2988POPC   C4A38982  43.039  18.996   7.785
 2988POPC   C1B38983  43.360  19.112   8.820
 2988POPC   C2B38984  43.408  19.162   8.367
 2988POPC   C3B38985  43.312  19.415   7.992
 2988POPC   C4B38986  43.376  19.310   7.527
 2989POPC   NC338987  40.777  10.480   9.841
 2989POPC   PO438988  40.980  10.472   9.204
 2989POPC   GL138989  40.688  10.425   8.880
 2989POPC   GL238990  40.423  10.153   8.974
 2989POPC   C1A38991  40.652  10.770   8.589
 2989POPC   D2A38992  40.681  10.859   8.159
 2989POPC   C3A38993  40.882  10.588   7.872
 2989POPC   C4A38994  40.672  10.790   7.586
 2989POPC   C1B38995  40.686   9.992   8.615
 2989POPC   C2B38996  40.739  10.320   8.320
 2989POPC   C3B38997  40.418  10.440   8.035
 2989POPC   C4B38998  40.540  10.197   7.712
 2990POPC   NC338999  11.369  41.103   9.531
 2990POPC   PO439000  11.501  40.396   9.587
 2990POPC   GL139001  11.406  40.621   9.201
 2990POPC   GL239002  11.712  40.814   9.254
 2990POPC   C1A39003  11.377  41.013   8.891
 2990POPC   D2A39004  11.316  41.192   8.481
 2990POPC   C3A39005  11.137  40.888   8.173
 2990POPC   C4A39006  11.182  40.611   7.816
 2990POPC   C1B39007  11.765  40.679   8.838
 2990POPC   C2B39008  11.516  40.694   8.514
 2990POPC   C3B39009  11.590  40.584   8.127
 2990POPC   C4B39010  11.702  40.552   7.758
 2991POPC   NC339011  38.063  26.320   9.524
 2991POPC   PO439012  37.551  26.035   9.725
 2991POPC   GL139013  37.697  26.116   9.208
 2991POPC   GL239014  37.977  26.278   9.047
 2991POPC   C1A39015  37.442  26.223   8.801
 2991POPC   D2A39016  37.263  25.956   8.496
 2991POPC   C3A39017  37.291  26.075   8.084
 2991POPC   C4A39018  37.462  25.894   7.741
 2991POPC   C1B39019  37.909  26.041   8.716
 2991POPC   C2B39020  37.744  26.117   8.305
 2991POPC   C3B39021  37.908  26.137   7.900
 2991POPC   C4B39022  37.849  26.065   7.472
 2992POPC   NC339023  40.622  30.949   9.706
 2992POPC   PO439024  40.912  30.400   9.320
 2992POPC   GL139025  40.758  30.566   9.018
 2992POPC   GL239026  41.022  30.509   8.809
 2992POPC   C1A39027  40.637  30.839   8.715
 2992POPC   D2A39028  40.725  31.107   8.377
 2992POPC   C3A39029  40.528  30.962   8.018
 2992POPC   C4A39030  40.632  30.842   7.608
 2992POPC   C1B39031  40.673  30.359   8.568
 2992POPC   C2B39032  40.758  30.564   8.202
 2992POPC   C3B39033  41.034  30.797   7.912
 2992POPC   C4B39034  41.118  30.706   7.451
 2993POPC   NC339035   3.890  25.101   9.430
 2993POPC   PO439036   4.470  25.492   9.504
 2993POPC   GL139037   4.313  25.250   9.189
 2993POPC   GL239038   4.069  25.489   9.110
 2993POPC   C1A39039   4.432  25.175   8.776
 2993POPC   D2A39040   4.692  25.381   8.464
 2993POPC   C3A39041   4.560  25.279   8.040
 2993POPC   C4A39042   4.348  24.921   7.782
 2993POPC   C1B39043   3.959  25.418   8.683
 2993POPC   C2B39044   3.803  25.392   8.249
 2993POPC   C3B39045   3.996  25.371   7.842
 2993POPC   C4B39046   4.336  25.614   7.700
 2994POPC   NC339047  27.078   5.915   9.481
 2994POPC   PO439048  26.575   5.542   9.514
 2994POPC   GL139049  26.676   5.810   9.160
 2994POPC   GL239050  26.949   5.601   9.085
 2994POPC   C1A39051  26.548   5.777   8.721
 2994POPC   D2A39052  26.771   5.583   8.379
 2994POPC   C3A39053  26.551   5.647   8.002
 2994POPC   C4A39054  26.761   5.752   7.618
 2994POPC   C1B39055  27.053   5.855   8.744
 2994POPC   C2B39056  27.258   5.846   8.382
 2994POPC   C3B39057  27.091   5.819   8.002
 2994POPC   C4B39058  27.255   6.002   7.661
 2995POPC   NC339059  21.796   8.468   9.519
 2995POPC   PO439060  22.370   8.037   9.618
 2995POPC   GL139061  22.320   8.205   9.198
 2995POPC   GL239062  22.064   8.006   9.113
 2995POPC   C1A39063  22.013   8.460   8.903
 2995POPC   D2A39064  21.830   8.487   8.484
 2995POPC   C3A39065  22.183   8.610   8.219
 2995POPC   C4A39066  22.347   8.567   7.803
 2995POPC   C1B39067  21.993   7.978   8.704
 2995POPC   C2B39068  22.177   8.109   8.346
 2995POPC   C3B39069  22.098   8.147   7.924
 2995POPC   C4B39070  22.489   8.075   7.748
 2996POPC   NC339071   2.747   9.913   9.579
 2996POPC   PO439072   3.138   9.450   9.393
 2996POPC   GL139073   2.940   9.634   9.078
 2996POPC   GL239074   2.725   9.935   9.068
 2996POPC   C1A39075   2.961   9.731   8.673
 2996POPC   D2A39076   2.964  10.047   8.442
 2996POPC   C3A39077   3.009   9.810   8.114
 2996POPC   C4A39078   3.037   9.701   7.716
 2996POPC   C1B39079   2.508  10.115   8.701
 2996POPC   C2B39080   2.447  10.188   8.251
 2996POPC   C3B39081   2.540   9.883   7.927
 2996POPC   C4B39082   2.595   9.819   7.473
 2997POPC   NC339083  39.143  27.689   9.569
 2997POPC   PO439084  39.514  27.167   9.512
 2997POPC   GL139085  39.172  27.292   9.175
 2997POPC   GL239086  39.147  27.651   9.066
 2997POPC   C1A39087  39.039  27.322   8.695
 2997POPC   D2A39088  39.017  27.595   8.301
 2997POPC   C3A39089  39.121  27.409   7.894
 2997POPC   C4A39090  39.377  27.306   7.530
 2997POPC   C1B39091  39.401  27.798   8.722
 2997POPC   C2B39092  39.414  27.944   8.318
 2997POPC   C3B39093  39.495  27.741   7.947
 2997POPC   C4B39094  39.264  27.783   7.562
 2998POPC   NC339095   3.113  44.640   9.483
 2998POPC   PO439096   2.490  44.416   9.400
 2998POPC   GL139097   2.702  44.726   9.128
 2998POPC   GL239098   3.047  44.814   9.018
 2998POPC   C1A39099   2.579  44.912   8.757
 2998POPC   D2A39100   2.390   0.024   8.376
 2998POPC   C3A39101   2.698  44.795   8.164
 2998POPC   C4A39102   2.821  44.794   7.771
 2998POPC   C1B39103   3.240  44.432   8.852
 2998POPC   C2B39104   3.137  44.357   8.432
 2998POPC   C3B39105   3.030  44.327   7.984
 2998POPC   C4B39106   3.130  44.463   7.572
 2999POPC   NC339107   6.450  26.232   9.477
 2999POPC   PO439108   6.994  25.816   9.512
 2999POPC   GL139109   6.687  25.869   9.196
 2999POPC   GL239110   6.838  26.175   9.131
 2999POPC   C1A39111   6.506  25.811   8.812
 2999POPC   D2A39112   6.462  25.922   8.395
 2999POPC   C3A39113   6.796  25.774   8.139
 2999POPC   C4A39114   6.820  25.920   7.755
 2999POPC   C1B39115   7.019  26.295   8.734
 2999POPC   C2B39116   6.886  26.254   8.321
 2999POPC   C3B39117   6.977  26.417   7.930
 2999POPC   C4B39118   6.882  26.361   7.488
 3000POPC   NC339119   7.763  10.503   9.534
 3000POPC   PO439120   7.030  10.313   9.524
 3000POPC   GL139121   7.334  10.511   9.222
 3000POPC   GL239122   7.586  10.270   9.090
 3000POPC   C1A39123   7.497  10.745   8.842
 3000POPC   D2A39124   7.710  10.722   8.420
 3000POPC   C3A39125   7.413  10.714   8.072
 3000POPC   C4A39126   7.509  10.811   7.659
 3000POPC   C1B39127   7.477  10.294   8.626
 3000POPC   C2B39128   7.459  10.198   8.196
 3000POPC   C3B39129   7.638  10.307   7.820
 3000POPC   C4B39130   7.618  10.363   7.378
 3001POPC   NC339131  43.759   5.569   9.329
 3001POPC   PO439132  44.056   5.049   9.661
 3001POPC   GL139133  43.969   4.925   9.200
 3001POPC   GL239134  43.722   5.140   9.082
 3001POPC   C1A39135  43.871   4.825   8.745
 3001POPC   D2A39136  43.759   5.021   8.348
 3001POPC   C3A39137  43.982   4.832   7.984
 3001POPC   C4A39138  44.091   4.903   7.546
 3001POPC   C1B39139  43.449   5.263   8.759
 3001POPC   C2B39140  43.484   5.549   8.452
 3001POPC   C3B39141  43.690   5.510   8.077
 3001POPC   C4B39142  43.540   5.637   7.686
 3002POPC   NC339143   5.259   9.178   9.436
 3002POPC   PO439144   4.961   8.616   9.716
 3002POPC   GL139145   5.106   8.700   9.271
 3002POPC   GL239146   5.459   8.761   9.208
 3002POPC   C1A39147   5.127   8.857   8.834
 3002POPC   D2A39148   4.758   8.888   8.564
 3002POPC   C3A39149   4.834   8.962   8.141
 3002POPC   C4A39150   5.085   9.088   7.801
 3002POPC   C1B39151   5.557   8.518   8.840
 3002POPC   C2B39152   5.409   8.514   8.443
 3002POPC   C3B39153   5.397   8.766   8.077
 3002POPC   C4B39154   5.430   8.749   7.603
 3003POPC   NC339155  35.589  39.647   9.420
 3003POPC   PO439156  35.294  40.238   9.349
 3003POPC   GL139157  35.250  39.885   9.023
 3003POPC   GL239158  35.400  39.560   8.957
 3003POPC   C1A39159  35.124  39.898   8.578
 3003POPC   D2A39160  35.216  40.265   8.323
 3003POPC   C3A39161  35.315  40.139   7.934
 3003POPC   C4A39162  35.532  40.220   7.597
 3003POPC   C1B39163  35.633  39.828   8.683
 3003POPC   C2B39164  35.609  39.886   8.268
 3003POPC   C3B39165  35.673  39.759   7.867
 3003POPC   C4B39166  35.387  39.740   7.521
 3004POPC   NC339167   0.744  27.543   9.529
 3004POPC   PO439168   1.427  27.474   9.552
 3004POPC   GL139169   1.166  27.547   9.200
 3004POPC   GL239170   1.041  27.905   9.261
 3004POPC   C1A39171   1.098  27.412   8.736
 3004POPC   D2A39172   1.262  27.249   8.325
 3004POPC   C3A39173   1.134  27.490   7.967
 3004POPC   C4A39174   1.219  27.531   7.515
 3004POPC   C1B39175   1.227  27.911   8.830
 3004POPC   C2B39176   1.359  27.827   8.366
 3004POPC   C3B39177   1.268  27.981   7.935
 3004POPC   C4B39178   0.866  27.894   7.710
 3005POPC   NC339179   6.578  43.517   9.409
 3005POPC   PO439180   6.483  42.879   9.403
 3005POPC   GL139181   6.736  43.061   9.079
 3005POPC   GL239182   6.887  43.422   9.026
 3005POPC   C1A39183   6.719  42.922   8.655
 3005POPC   D2A39184   6.966  42.953   8.349
 3005POPC   C3A39185   6.811  43.032   8.006
 3005POPC   C4A39186   6.699  42.836   7.654
 3005POPC   C1B39187   6.571  43.394   8.731
 3005POPC   C2B39188   6.672  43.391   8.336
 3005POPC   C3B39189   6.493  43.535   7.998
 3005POPC   C4B39190   6.331  43.317   7.680
 3006POPC   NC339191  13.839  16.161   9.534
 3006POPC   PO439192  13.593  15.471   9.475
 3006POPC   GL139193  13.712  15.794   9.205
 3006POPC   GL239194  13.373  15.942   9.242
 3006POPC   C1A39195  13.935  15.991   8.844
 3006POPC   D2A39196  13.708  16.169   8.513
 3006POPC   C3A39197  13.886  16.041   8.155
 3006POPC   C4A39198  13.845  16.065   7.740
 3006POPC   C1B39199  13.273  15.985   8.801
 3006POPC   C2B39200  13.223  16.010   8.357
 3006POPC   C3B39201  13.396  16.158   7.987
 3006POPC   C4B39202  13.301  15.906   7.648
 3007POPC   NC339203  14.816   8.049   9.324
 3007POPC   PO439204  15.436   7.933   9.418
 3007POPC   GL139205  15.358   8.107   9.063
 3007POPC   GL239206  15.153   8.371   9.059
 3007POPC   C1A39207  15.399   7.908   8.696
 3007POPC   D2A39208  15.611   7.965   8.293
 3007POPC   C3A39209  15.475   8.099   7.901
 3007POPC   C4A39210  15.469   7.998   7.467
 3007POPC   C1B39211  15.249   8.389   8.617
 3007POPC   C2B39212  15.077   8.221   8.225
 3007POPC   C3B39213  15.083   8.415   7.815
 3007POPC   C4B39214  14.972   8.337   7.384
 3008POPC   NC339215  12.012  10.621   9.493
 3008POPC   PO439216  12.194   9.949   9.428
 3008POPC   GL139217  12.048  10.279   9.093
 3008POPC   GL239218  12.194  10.654   9.040
 3008POPC   C1A39219  11.840  10.488   8.729
 3008POPC   D2A39220  11.634  10.354   8.363
 3008POPC   C3A39221  11.931  10.387   8.080
 3008POPC   C4A39222  11.940  10.618   7.729
 3008POPC   C1B39223  12.381  10.479   8.711
 3008POPC   C2B39224  12.388  10.429   8.308
 3008POPC   C3B39225  12.395  10.680   7.963
 3008POPC   C4B39226  12.421  10.802   7.544
 3009POPC   NC339227  32.031  13.057   9.389
 3009POPC   PO439228  32.447  12.608   9.629
 3009POPC   GL139229  32.421  12.703   9.175
 3009POPC   GL239230  32.381  13.038   9.031
 3009POPC   C1A39231  32.281  12.673   8.722
 3009POPC   D2A39232  32.089  12.880   8.395
 3009POPC   C3A39233  32.260  12.659   8.093
 3009POPC   C4A39234  32.101  12.608   7.729
 3009POPC   C1B39235  32.351  13.273   8.673
 3009POPC   C2B39236  32.475  13.467   8.305
 3009POPC   C3B39237  32.341  13.184   8.044
 3009POPC   C4B39238  32.379  13.020   7.679
 3010POPC   NC339239  17.162  33.194   9.370
 3010POPC   PO439240  16.688  33.717   9.497
 3010POPC   GL139241  16.865  33.767   9.111
 3010POPC   GL239242  17.028  33.486   8.965
 3010POPC   C1A39243  16.768  33.941   8.692
 3010POPC   D2A39244  16.934  33.911   8.291
 3010POPC   C3A39245  16.750  34.132   7.915
 3010POPC   C4A39246  16.853  34.047   7.460
 3010POPC   C1B39247  16.563  33.491   8.802
 3010POPC   C2B39248  16.438  33.659   8.397
 3010POPC   C3B39249  16.646  33.581   8.028
 3010POPC   C4B39250  16.483  33.328   7.763
 3011POPC   NC339251  28.761  23.362   9.403
 3011POPC   PO439252  29.191  23.819   9.651
 3011POPC   GL139253  29.084  23.662   9.168
 3011POPC   GL239254  28.799  23.598   8.958
 3011POPC   C1A39255  29.250  23.626   8.730
 3011POPC   D2A39256  29.044  23.477   8.357
 3011POPC   C3A39257  29.325  23.384   8.039
 3011POPC   C4A39258  29.348  23.555   7.596
 3011POPC   C1B39259  28.872  23.981   8.741
 3011POPC   C2B39260  29.096  23.998   8.361
 3011POPC   C3B39261  29.012  23.823   7.958
 3011POPC   C4B39262  28.961  24.038   7.586
 3012POPC   NC339263  34.985  21.797   9.397
 3012POPC   PO439264  35.386  21.233   9.456
 3012POPC   GL139265  35.474  21.356   9.084
 3012POPC   GL239266  35.288  21.636   9.032
 3012POPC   C1A39267  35.368  21.190   8.731
 3012POPC   D2A39268  35.123  21.343   8.427
 3012POPC   C3A39269  35.136  21.143   8.037
 3012POPC   C4A39270  35.201  21.104   7.603
 3012POPC   C1B39271  35.436  21.701   8.637
 3012POPC   C2B39272  35.577  21.503   8.287
 3012POPC   C3B39273  35.460  21.502   7.866
 3012POPC   C4B39274  35.005  21.555   7.763
 3013POPC   NC339275   4.407  34.341   9.862
 3013POPC   PO439276   4.088  34.789   9.475
 3013POPC   GL139277   4.289  34.895   9.113
 3013POPC   GL239278   4.026  35.115   9.037
 3013POPC   C1A39279   4.465  34.743   8.713
 3013POPC   D2A39280   4.538  34.432   8.393
 3013POPC   C3A39281   4.415  34.474   7.966
 3013POPC   C4A39282   4.513  34.105   7.734
 3013POPC   C1B39283   3.956  34.788   8.722
 3013POPC   C2B39284   4.137  34.768   8.303
 3013POPC   C3B39285   4.049  34.807   7.885
 3013POPC   C4B39286   3.829  34.693   7.478
 3014POPC   NC339287  21.179   5.189   9.730
 3014POPC   PO439288  21.601   4.614   9.553
 3014POPC   GL139289  21.486   4.888   9.207
 3014POPC   GL239290  21.255   5.197   9.197
 3014POPC   C1A39291  21.636   5.032   8.794
 3014POPC   D2A39292  21.508   5.156   8.375
 3014POPC   C3A39293  21.630   4.957   8.006
 3014POPC   C4A39294  21.420   4.945   7.606
 3014POPC   C1B39295  21.134   5.274   8.739
 3014POPC   C2B39296  21.093   5.448   8.288
 3014POPC   C3B39297  21.277   5.370   7.881
 3014POPC   C4B39298  21.720   5.405   7.795
 3015POPC   NC339299  34.888  40.001   9.358
 3015POPC   PO439300  34.386  39.661   9.471
 3015POPC   GL139301  34.450  39.959   9.107
 3015POPC   GL239302  34.275  40.281   9.063
 3015POPC   C1A39303  34.686  40.149   8.760
 3015POPC   D2A39304  34.705  40.316   8.378
 3015POPC   C3A39305  34.793  40.164   7.994
 3015POPC   C4A39306  34.939  39.883   7.701
 3015POPC   C1B39307  34.176  40.080   8.679
 3015POPC   C2B39308  34.163  40.072   8.253
 3015POPC   C3B39309  34.292  40.202   7.883
 3015POPC   C4B39310  34.515  40.396   7.580
 3016POPC   NC339311  29.346  19.128   9.565
 3016POPC   PO439312  28.640  19.054   9.552
 3016POPC   GL139313  28.976  19.086   9.185
 3016POPC   GL239314  29.383  19.023   9.088
 3016POPC   C1A39315  29.051  19.077   8.724
 3016POPC   D2A39316  29.040  19.372   8.403
 3016POPC   C3A39317  29.272  19.349   8.022
 3016POPC   C4A39318  28.926  19.256   7.728
 3016POPC   C1B39319  29.494  18.771   8.767
 3016POPC   C2B39320  29.277  18.630   8.421
 3016POPC   C3B39321  29.075  18.903   8.121
 3016POPC   C4B39322  29.319  18.953   7.699
 3017POPC   NC339323  22.103  12.830   9.553
 3017POPC   PO439324  22.156  13.474   9.591
 3017POPC   GL139325  22.189  13.176   9.215
 3017POPC   GL239326  22.011  12.878   9.057
 3017POPC   C1A39327  22.329  13.150   8.785
 3017POPC   D2A39328  22.083  13.063   8.429
 3017POPC   C3A39329  22.175  13.083   8.039
 3017POPC   C4A39330  21.831  13.036   7.775
 3017POPC   C1B39331  22.171  12.646   8.682
 3017POPC   C2B39332  22.261  12.605   8.205
 3017POPC   C3B39333  22.111  12.612   7.767
 3017POPC   C4B39334  22.335  12.587   7.332
 3018POPC   NC339335  12.625  39.595   9.766
 3018POPC   PO439336  13.140  39.791   9.402
 3018POPC   GL139337  12.880  39.765   9.084
 3018POPC   GL239338  12.576  39.728   9.217
 3018POPC   C1A39339  12.932  39.863   8.667
 3018POPC   D2A39340  12.976  40.060   8.266
 3018POPC   C3A39341  12.956  39.774   7.929
 3018POPC   C4A39342  13.237  39.611   7.617
 3018POPC   C1B39343  12.505  40.074   8.853
 3018POPC   C2B39344  12.316  40.132   8.422
 3018POPC   C3B39345  12.498  40.102   7.986
 3018POPC   C4B39346  12.638  39.953   7.580
 3019POPC   NC339347  12.362  11.278   9.436
 3019POPC   PO439348  13.011  11.636   9.407
 3019POPC   GL139349  12.785  11.375   9.111
 3019POPC   GL239350  12.828  11.012   9.162
 3019POPC   C1A39351  12.915  11.257   8.690
 3019POPC   D2A39352  12.944  11.257   8.250
 3019POPC   C3A39353  13.081  11.576   7.947
 3019POPC   C4A39354  13.152  11.496   7.475
 3019POPC   C1B39355  12.497  11.011   8.838
 3019POPC   C2B39356  12.384  11.253   8.476
 3019POPC   C3B39357  12.486  11.165   8.054
 3019POPC   C4B39358  12.799  11.195   7.715
 3020POPC   NC339359  31.164  22.379   9.600
 3020POPC   PO439360  31.780  22.033   9.500
 3020POPC   GL139361  31.501  22.250   9.231
 3020POPC   GL239362  31.409  21.938   9.122
 3020POPC   C1A39363  31.277  22.347   8.836
 3020POPC   D2A39364  31.470  22.198   8.462
 3020POPC   C3A39365  31.445  22.296   8.033
 3020POPC   C4A39366  31.183  22.179   7.689
 3020POPC   C1B39367  31.676  21.816   8.804
 3020POPC   C2B39368  31.939  21.967   8.521
 3020POPC   C3B39369  31.869  22.028   8.103
 3020POPC   C4B39370  31.886  21.741   7.777
 3021POPC   NC339371  40.240  23.854   9.420
 3021POPC   PO439372  39.603  23.895   9.708
 3021POPC   GL139373  39.752  23.922   9.236
 3021POPC   GL239374  40.045  24.147   9.071
 3021POPC   C1A39375  39.672  23.746   8.815
 3021POPC   D2A39376  39.769  23.820   8.367
 3021POPC   C3A39377  40.047  23.492   8.245
 3021POPC   C4A39378  40.141  23.336   7.874
 3021POPC   C1B39379  40.146  23.872   8.728
 3021POPC   C2B39380  40.301  23.920   8.313
 3021POPC   C3B39381  40.160  23.922   7.879
 3021POPC   C4B39382  40.413  23.943   7.506
 3022POPC   NC339383  27.125  30.514   9.201
 3022POPC   PO439384  26.450  30.559   9.557
 3022POPC   GL139385  26.579  30.516   9.082
 3022POPC   GL239386  26.769  30.816   8.963
 3022POPC   C1A39387  26.497  30.623   8.602
 3022POPC   D2A39388  26.665  30.937   8.307
 3022POPC   C3A39389  26.768  30.684   7.975
 3022POPC   C4A39390  26.513  30.450   7.741
 3022POPC   C1B39391  27.014  30.664   8.574
 3022POPC   C2B39392  27.250  30.342   8.330
 3022POPC   C3B39393  27.292  30.406   7.895
 3022POPC   C4B39394  27.069  30.600   7.568
 3023POPC   NC339395  38.636  36.242   9.457
 3023POPC   PO439396  38.136  35.784   9.658
 3023POPC   GL139397  38.148  36.026   9.248
 3023POPC   GL239398  38.460  36.089   9.012
 3023POPC   C1A39399  38.019  36.064   8.805
 3023POPC   D2A39400  38.308  36.248   8.511
 3023POPC   C3A39401  38.289  36.261   8.059
 3023POPC   C4A39402  38.409  35.967   7.722
 3023POPC   C1B39403  38.769  36.341   8.789
 3023POPC   C2B39404  38.776  36.460   8.352
 3023POPC   C3B39405  38.795  36.154   8.053
 3023POPC   C4B39406  38.878  36.116   7.639
 3024POPC   NC339407  26.019   6.885   9.619
 3024POPC   PO439408  26.199   7.565   9.510
 3024POPC   GL139409  26.142   7.572   9.105
 3024POPC   GL239410  25.964   7.275   9.078
 3024POPC   C1A39411  26.148   7.555   8.656
 3024POPC   D2A39412  26.272   7.747   8.260
 3024POPC   C3A39413  26.080   7.558   7.907
 3024POPC   C4A39414  26.203   7.171   7.726
 3024POPC   C1B39415  25.970   7.045   8.668
 3024POPC   C2B39416  26.092   6.987   8.218
 3024POPC   C3B39417  25.872   6.827   7.845
 3024POPC   C4B39418  25.962   6.835   7.395
 3025POPC   NC339419  23.084  44.242   9.292
 3025POPC   PO439420  22.676  43.965   9.766
 3025POPC   GL139421  22.879  43.773   9.343
 3025POPC   GL239422  22.712  43.966   9.065
 3025POPC   C1A39423  23.122  43.683   8.903
 3025POPC   D2A39424  23.219  43.620   8.410
 3025POPC   C3A39425  23.420  43.965   8.123
 3025POPC   C4A39426  23.200  44.255   7.796
 3025POPC   C1B39427  22.795  43.955   8.610
 3025POPC   C2B39428  22.914  44.029   8.181
 3025POPC   C3B39429  22.700  44.048   7.794
 3025POPC   C4B39430  22.425  44.003   7.439
 3026POPC   NC339431   1.741  24.737   9.385
 3026POPC   PO439432   2.374  24.509   9.643
 3026POPC   GL139433   2.162  24.495   9.209
 3026POPC   GL239434   2.153  24.172   9.112
 3026POPC   C1A39435   1.947  24.691   8.793
 3026POPC   D2A39436   1.727  24.945   8.484
 3026POPC   C3A39437   1.758  24.713   8.104
 3026POPC   C4A39438   1.839  24.618   7.649
 3026POPC   C1B39439   2.322  24.350   8.728
 3026POPC   C2B39440   2.213  24.555   8.353
 3026POPC   C3B39441   2.216  24.420   7.940
 3026POPC   C4B39442   2.092  24.168   7.598
 3027POPC   NC339443   6.338  32.782   9.490
 3027POPC   PO439444   5.725  33.001   9.658
 3027POPC   GL139445   5.862  33.052   9.252
 3027POPC   GL239446   5.564  33.233   9.149
 3027POPC   C1A39447   5.880  32.946   8.826
 3027POPC   D2A39448   5.986  32.848   8.403
 3027POPC   C3A39449   6.011  33.011   7.996
 3027POPC   C4A39450   6.078  32.748   7.666
 3027POPC   C1B39451   5.408  33.090   8.746
 3027POPC   C2B39452   5.526  33.064   8.309
 3027POPC   C3B39453   5.593  33.305   7.928
 3027POPC   C4B39454   5.810  33.154   7.525
 3028POPC   NC339455   5.813   8.377   9.662
 3028POPC   PO439456   6.183   7.849   9.839
 3028POPC   GL139457   5.893   8.036   9.319
 3028POPC   GL239458   5.594   7.922   9.183
 3028POPC   C1A39459   5.986   8.223   8.851
 3028POPC   D2A39460   6.202   8.269   8.418
 3028POPC   C3A39461   6.006   8.393   8.037
 3028POPC   C4A39462   5.888   8.129   7.708
 3028POPC   C1B39463   5.555   7.952   8.743
 3028POPC   C2B39464   5.723   8.037   8.331
 3028POPC   C3B39465   5.491   8.259   8.004
 3028POPC   C4B39466   5.391   8.247   7.595
 3029POPC   NC339467  19.285   5.463   9.525
 3029POPC   PO439468  19.040   4.833   9.598
 3029POPC   GL139469  19.232   5.032   9.224
 3029POPC   GL239470  19.249   4.734   9.029
 3029POPC   C1A39471  19.208   5.301   8.830
 3029POPC   D2A39472  19.169   5.164   8.399
 3029POPC   C3A39473  19.164   5.446   7.996
 3029POPC   C4A39474  18.995   5.378   7.562
 3029POPC   C1B39475  19.196   4.627   8.594
 3029POPC   C2B39476  19.185   4.707   8.136
 3029POPC   C3B39477  19.052   4.945   7.802
 3029POPC   C4B39478  19.170   4.911   7.337
 3030POPC   NC339479  43.839  34.808   9.449
 3030POPC   PO439480  43.656  34.176   9.460
 3030POPC   GL139481  43.893  34.425   9.097
 3030POPC   GL239482  44.044  34.792   9.003
 3030POPC   C1A39483  43.916  34.463   8.657
 3030POPC   D2A39484  43.752  34.684   8.324
 3030POPC   C3A39485  43.529  34.415   8.103
 3030POPC   C4A39486  43.533  34.314   7.694
 3030POPC   C1B39487  44.151  34.909   8.601
 3030POPC   C2B39488  44.226  34.813   8.212
 3030POPC   C3B39489  44.067  34.545   7.892
 3030POPC   C4B39490  44.021  34.734   7.467
 3031POPC   NC339491  19.440  27.287   9.381
 3031POPC   PO439492  19.958  27.756   9.517
 3031POPC   GL139493  20.142  27.776   9.137
 3031POPC   GL239494  19.835  27.631   9.003
 3031POPC   C1A39495  20.187  27.870   8.718
 3031POPC   D2A39496  19.898  27.691   8.425
 3031POPC   C3A39497  20.076  27.625   8.044
 3031POPC   C4A39498  20.078  27.820   7.659
 3031POPC   C1B39499  20.115  27.357   8.770
 3031POPC   C2B39500  20.082  27.170   8.368
 3031POPC   C3B39501  19.796  27.192   8.022
 3031POPC   C4B39502  19.826  27.353   7.637
 3032POPC   NC339503  40.914  25.008   9.344
 3032POPC   PO439504  40.791  25.688   9.397
 3032POPC   GL139505  40.636  25.360   9.064
 3032POPC   GL239506  40.474  24.968   9.101
 3032POPC   C1A39507  40.721  25.440   8.631
 3032POPC   D2A39508  41.104  25.403   8.392
 3032POPC   C3A39509  41.159  25.031   8.174
 3032POPC   C4A39510  40.885  25.110   7.843
 3032POPC   C1B39511  40.689  24.921   8.733
 3032POPC   C2B39512  40.688  25.029   8.331
 3032POPC   C3B39513  40.441  25.257   8.089
 3032POPC   C4B39514  40.350  25.222   7.673
 3033POPC   NC339515   3.156  13.036   9.441
 3033POPC   PO439516   3.514  12.537   9.695
 3033POPC   GL139517   3.570  12.563   9.169
 3033POPC   GL239518   3.470  12.889   9.062
 3033POPC   C1A39519   3.422  12.483   8.717
 3033POPC   D2A39520   3.534  12.310   8.284
 3033POPC   C3A39521   3.443  12.660   7.978
 3033POPC   C4A39522   3.475  12.772   7.548
 3033POPC   C1B39523   3.518  13.118   8.676
 3033POPC   C2B39524   3.296  13.126   8.254
 3033POPC   C3B39525   3.462  13.188   7.842
 3033POPC   C4B39526   3.773  13.176   7.493
 3034POPC   NC339527  37.126  36.609   9.418
 3034POPC   PO439528  36.685  37.132   9.642
 3034POPC   GL139529  36.806  36.963   9.220
 3034POPC   GL239530  36.724  36.588   9.123
 3034POPC   C1A39531  37.084  37.069   8.870
 3034POPC   D2A39532  36.910  37.196   8.462
 3034POPC   C3A39533  37.081  37.151   8.078
 3034POPC   C4A39534  36.715  37.191   7.792
 3034POPC   C1B39535  36.759  36.733   8.694
 3034POPC   C2B39536  36.707  36.749   8.255
 3034POPC   C3B39537  36.930  36.720   7.881
 3034POPC   C4B39538  37.058  36.586   7.488
 3035POPC   NC339539  44.734  13.073   9.516
 3035POPC   PO439540  44.612  12.455   9.409
 3035POPC   GL139541  44.871  12.734   9.108
 3035POPC   GL239542  44.950  13.105   9.062
 3035POPC   C1A39543  44.744  12.716   8.674
 3035POPC   D2A39544  44.749  12.764   8.241
 3035POPC   C3A39545  44.555  12.577   7.895
 3035POPC   C4A39546  44.877  12.688   7.630
 3035POPC   C1B39547  44.878  13.214   8.649
 3035POPC   C2B39548  44.834  13.259   8.232
 3035POPC   C3B39549  44.810  13.135   7.854
 3035POPC   C4B39550  44.991  13.153   7.442
 3036POPC   NC339551  35.573  23.170   9.586
 3036POPC   PO439552  34.883  22.956   9.549
 3036POPC   GL139553  35.176  23.069   9.210
 3036POPC   GL239554  35.494  22.849   9.122
 3036POPC   C1A39555  35.156  23.155   8.761
 3036POPC   D2A39556  35.158  22.852   8.443
 3036POPC   C3A39557  35.385  22.938   8.115
 3036POPC   C4A39558  35.407  22.744   7.739
 3036POPC   C1B39559  35.614  22.915   8.674
 3036POPC   C2B39560  35.863  23.026   8.322
 3036POPC   C3B39561  35.854  22.966   7.902
 3036POPC   C4B39562  35.727  23.080   7.531
 3037POPC   NC339563  38.883  29.326   9.239
 3037POPC   PO439564  39.419  29.687   9.369
 3037POPC   GL139565  39.400  29.341   9.040
 3037POPC   GL239566  39.285  29.007   9.097
 3037POPC   C1A39567  39.227  29.205   8.622
 3037POPC   D2A39568  39.386  29.256   8.195
 3037POPC   C3A39569  39.075  29.229   7.870
 3037POPC   C4A39570  39.092  29.200   7.428
 3037POPC   C1B39571  39.457  28.729   8.783
 3037POPC   C2B39572  39.547  28.530   8.368
 3037POPC   C3B39573  39.598  28.779   7.997
 3037POPC   C4B39574  39.519  29.041   7.665
 3038POPC   NC339575  44.479   3.972   9.409
 3038POPC   PO439576  44.873   4.498   9.563
 3038POPC   GL139577  44.862   4.259   9.173
 3038POPC   GL239578  44.929   3.872   9.142
 3038POPC   C1A39579  44.669   4.405   8.799
 3038POPC   D2A39580  44.743   4.707   8.475
 3038POPC   C3A39581  44.661   4.530   8.069
 3038POPC   C4A39582  44.413   4.511   7.713
 3038POPC   C1B39583  44.633   3.865   8.772
 3038POPC   C2B39584  44.480   4.112   8.421
 3038POPC   C3B39585  44.470   4.049   7.996
 3038POPC   C4B39586  44.369   3.993   7.550
 3039POPC   NC339587  30.978  37.002   9.458
 3039POPC   PO439588  30.517  36.565   9.572
 3039POPC   GL139589  30.577  36.894   9.207
 3039POPC   GL239590  30.891  36.716   9.069
 3039POPC   C1A39591  30.539  37.206   8.849
 3039POPC   D2A39592  30.424  37.090   8.400
 3039POPC   C3A39593  30.608  37.109   7.993
 3039POPC   C4A39594  30.526  36.692   7.838
 3039POPC   C1B39595  30.767  36.795   8.662
 3039POPC   C2B39596  30.887  36.792   8.284
 3039POPC   C3B39597  31.028  36.758   7.891
 3039POPC   C4B39598  30.858  36.886   7.486
 3040POPC   NC339599  27.723   5.089   9.548
 3040POPC   PO439600  27.084   4.683   9.565
 3040POPC   GL139601  27.260   4.747   9.164
 3040POPC   GL239602  27.516   5.010   9.091
 3040POPC   C1A39603  27.310   4.757   8.706
 3040POPC   D2A39604  27.645   4.682   8.394
 3040POPC   C3A39605  27.560   4.980   8.091
 3040POPC   C4A39606  27.310   5.070   7.716
 3040POPC   C1B39607  27.841   5.030   8.749
 3040POPC   C2B39608  28.092   5.093   8.358
 3040POPC   C3B39609  27.998   5.236   7.950
 3040POPC   C4B39610  27.836   4.983   7.674
 3041POPC   NC339611  32.301  14.012   9.269
 3041POPC   PO439612  32.446  13.354   9.408
 3041POPC   GL139613  32.185  13.540   9.084
 3041POPC   GL239614  32.428  13.723   8.867
 3041POPC   C1A39615  31.957  13.612   8.684
 3041POPC   D2A39616  31.932  13.390   8.310
 3041POPC   C3A39617  31.976  13.620   7.932
 3041POPC   C4A39618  32.334  13.562   7.702
 3041POPC   C1B39619  32.273  14.050   8.606
 3041POPC   C2B39620  32.224  14.003   8.174
 3041POPC   C3B39621  32.515  14.033   7.839
 3041POPC   C4B39622  32.489  13.896   7.372
 3042POPC   NC339623  40.301  12.239   9.267
 3042POPC   PO439624  39.756  12.520   9.580
 3042POPC   GL139625  39.782  12.284   9.178
 3042POPC   GL239626  39.921  11.928   9.134
 3042POPC   C1A39627  39.910  12.261   8.735
 3042POPC   D2A39628  39.842  11.991   8.387
 3042POPC   C3A39629  39.943  12.134   7.945
 3042POPC   C4A39630  39.895  12.061   7.475
 3042POPC   C1B39631  40.246  11.846   8.751
 3042POPC   C2B39632  40.353  11.928   8.284
 3042POPC   C3B39633  40.356  11.788   7.834
 3042POPC   C4B39634  40.434  11.631   7.378
 3043POPC   NC339635  34.858  27.429   9.568
 3043POPC   PO439636  34.328  27.772   9.390
 3043POPC   GL139637  34.556  27.558   9.097
 3043POPC   GL239638  34.878  27.407   9.071
 3043POPC   C1A39639  34.432  27.481   8.695
 3043POPC   D2A39640  34.345  27.328   8.302
 3043POPC   C3A39641  34.170  27.602   7.999
 3043POPC   C4A39642  34.272  27.449   7.593
 3043POPC   C1B39643  34.918  27.644   8.712
 3043POPC   C2B39644  34.826  27.556   8.310
 3043POPC   C3B39645  34.700  27.505   7.910
 3043POPC   C4B39646  34.977  27.298   7.639
 3044POPC   NC339647  13.198   8.007   9.506
 3044POPC   PO439648  12.610   8.403   9.465
 3044POPC   GL139649  12.870   8.306   9.177
 3044POPC   GL239650  12.745   7.971   9.114
 3044POPC   C1A39651  12.738   8.331   8.775
 3044POPC   D2A39652  12.921   8.203   8.422
 3044POPC   C3A39653  12.790   8.386   8.087
 3044POPC   C4A39654  12.649   8.101   7.831
 3044POPC   C1B39655  13.123   7.964   8.851
 3044POPC   C2B39656  13.264   7.823   8.444
 3044POPC   C3B39657  13.152   7.961   8.004
 3044POPC   C4B39658  13.118   8.305   7.707
 3045POPC   NC339659  21.544   2.013   9.486
 3045POPC   PO439660  20.918   2.271   9.426
 3045POPC   GL139661  21.159   2.074   9.074
 3045POPC   GL239662  21.359   1.763   9.085
 3045POPC   C1A39663  21.338   2.209   8.667
 3045POPC   D2A39664  21.635   2.170   8.372
 3045POPC   C3A39665  21.596   2.090   7.936
 3045POPC   C4A39666  21.804   2.280   7.574
 3045POPC   C1B39667  21.279   1.701   8.631
 3045POPC   C2B39668  21.487   1.671   8.232
 3045POPC   C3B39669  21.391   1.638   7.798
 3045POPC   C4B39670  21.318   1.549   7.361
 3046POPC   NC339671  15.694  12.288   9.428
 3046POPC   PO439672  16.318  12.309   9.415
 3046POPC   GL139673  16.086  11.959   9.184
 3046POPC   GL239674  15.970  12.219   8.981
 3046POPC   C1A39675  15.910  11.757   8.769
 3046POPC   D2A39676  15.911  11.930   8.337
 3046POPC   C3A39677  16.056  11.775   7.943
 3046POPC   C4A39678  15.860  11.806   7.549
 3046POPC   C1B39679  15.621  12.190   8.674
 3046POPC   C2B39680  15.574  12.322   8.274
 3046POPC   C3B39681  15.731  12.163   7.893
 3046POPC   C4B39682  16.011  12.303   7.550
 3047POPC   NC339683   1.864   2.231   9.538
 3047POPC   PO439684   2.390   1.809   9.649
 3047POPC   GL139685   2.273   2.151   9.266
 3047POPC   GL239686   1.968   2.012   9.094
 3047POPC   C1A39687   2.310   2.191   8.754
 3047POPC   D2A39688   2.306   2.374   8.333
 3047POPC   C3A39689   2.273   2.136   7.928
 3047POPC   C4A39690   1.912   2.029   7.644
 3047POPC   C1B39691   1.619   2.000   8.813
 3047POPC   C2B39692   1.568   1.831   8.412
 3047POPC   C3B39693   1.576   1.988   8.028
 3047POPC   C4B39694   1.535   1.683   7.723
 3048POPC   NC339695  36.420  39.837   9.554
 3048POPC   PO439696  37.077  40.103   9.630
 3048POPC   GL139697  37.088  39.899   9.210
 3048POPC   GL239698  36.763  39.743   9.184
 3048POPC   C1A39699  37.028  40.032   8.769
 3048POPC   D2A39700  37.214  40.013   8.360
 3048POPC   C3A39701  36.959  40.085   8.002
 3048POPC   C4A39702  36.818  39.939   7.596
 3048POPC   C1B39703  36.643  39.682   8.761
 3048POPC   C2B39704  36.612  39.898   8.373
 3048POPC   C3B39705  36.646  39.679   8.005
 3048POPC   C4B39706  36.657  39.439   7.700
 3049POPC   NC339707  42.422  17.734   9.550
 3049POPC   PO439708  42.126  17.073   9.739
 3049POPC   GL139709  42.228  17.304   9.324
 3049POPC   GL239710  42.620  17.318   9.304
 3049POPC   C1A39711  42.118  17.300   8.857
 3049POPC   D2A39712  41.950  17.134   8.424
 3049POPC   C3A39713  42.139  17.270   8.016
 3049POPC   C4A39714  42.277  17.514   7.660
 3049POPC   C1B39715  42.636  17.400   8.869
 3049POPC   C2B39716  42.451  17.334   8.450
 3049POPC   C3B39717  42.609  17.484   8.059
 3049POPC   C4B39718  42.702  17.250   7.701
 3050POPC   NC339719  44.043  16.276   9.207
 3050POPC   PO439720  44.082  15.669   9.515
 3050POPC   GL139721  44.153  15.723   9.105
 3050POPC   GL239722  43.824  15.852   9.061
 3050POPC   C1A39723  44.120  15.839   8.660
 3050POPC   D2A39724  44.043  15.660   8.272
 3050POPC   C3A39725  44.009  15.853   7.900
 3050POPC   C4A39726  44.000  16.224   7.737
 3050POPC   C1B39727  43.565  16.128   8.762
 3050POPC   C2B39728  43.625  16.451   8.446
 3050POPC   C3B39729  43.596  16.240   8.051
 3050POPC   C4B39730  43.501  16.024   7.670
 3051POPC   NC339731   0.835  17.941   9.514
 3051POPC   PO439732   0.478  18.474   9.714
 3051POPC   GL139733   0.487  18.383   9.214
 3051POPC   GL239734   0.231  18.505   9.054
 3051POPC   C1A39735   0.534  18.193   8.763
 3051POPC   D2A39736   0.403  17.872   8.427
 3051POPC   C3A39737   0.444  18.112   8.068
 3051POPC   C4A39738   0.693  18.429   7.880
 3051POPC   C1B39739  44.879  18.499   8.820
 3051POPC   C2B39740  44.921  18.709   8.428
 3051POPC   C3B39741   0.248  18.683   8.127
 3051POPC   C4B39742   0.242  18.580   7.712
 3052POPC   NC339743  43.582  36.944   9.465
 3052POPC   PO439744  44.232  36.737   9.582
 3052POPC   GL139745  44.172  36.891   9.152
 3052POPC   GL239746  43.855  37.048   9.048
 3052POPC   C1A39747  44.115  36.753   8.737
 3052POPC   D2A39748  43.870  36.896   8.389
 3052POPC   C3A39749  43.875  36.566   8.082
 3052POPC   C4A39750  44.328  36.477   7.944
 3052POPC   C1B39751  43.690  37.287   8.681
 3052POPC   C2B39752  43.517  37.278   8.279
 3052POPC   C3B39753  43.776  37.156   7.942
 3052POPC   C4B39754  44.046  36.873   7.714
 3053POPC   NC339755  42.917  18.177   9.538
 3053POPC   PO439756  43.634  18.162   9.605
 3053POPC   GL139757  43.307  18.193   9.168
 3053POPC   GL239758  43.036  18.419   9.118
 3053POPC   C1A39759  43.259  18.309   8.672
 3053POPC   D2A39760  43.471  18.617   8.327
 3053POPC   C3A39761  43.443  18.510   7.869
 3053POPC   C4A39762  43.274  18.070   7.826
 3053POPC   C1B39763  42.750  18.337   8.804
 3053POPC   C2B39764  42.829  18.247   8.395
 3053POPC   C3B39765  42.977  18.507   8.110
 3053POPC   C4B39766  42.965  18.484   7.708
 3054POPC   NC339767  44.975  39.866   9.537
 3054POPC   PO439768   0.596  39.833   9.600
 3054POPC   GL139769   0.530  39.939   9.172
 3054POPC   GL239770   0.276  39.699   9.156
 3054POPC   C1A39771   0.593  40.117   8.729
 3054POPC   D2A39772   0.612  39.965   8.273
 3054POPC   C3A39773   0.341  40.199   8.002
 3054POPC   C4A39774   0.276  40.396   7.610
 3054POPC   C1B39775   0.119  39.876   8.798
 3054POPC   C2B39776  44.925  39.691   8.453
 3054POPC   C3B39777   0.119  39.751   8.081
 3054POPC   C4B39778   0.391  39.777   7.716
 3055POPC   NC339779  13.463  11.526   9.433
 3055POPC   PO439780  14.042  11.171   9.497
 3055POPC   GL139781  13.711  11.022   9.203
 3055POPC   GL239782  13.345  11.083   9.191
 3055POPC   C1A39783  13.744  11.202   8.812
 3055POPC   D2A39784  14.007  11.151   8.469
 3055POPC   C3A39785  13.812  11.193   8.070
 3055POPC   C4A39786  13.918  11.507   7.777
 3055POPC   C1B39787  13.328  10.902   8.782
 3055POPC   C2B39788  13.391  10.936   8.331
 3055POPC   C3B39789  13.312  11.131   7.923
 3055POPC   C4B39790  13.562  11.180   7.602
 3056POPC   NC339791  14.247   2.344   9.359
 3056POPC   PO439792  14.643   1.756   9.417
 3056POPC   GL139793  14.366   1.900   9.130
 3056POPC   GL239794  14.546   2.186   8.966
 3056POPC   C1A39795  14.328   1.731   8.751
 3056POPC   D2A39796  14.439   1.921   8.380
 3056POPC   C3A39797  14.364   1.853   7.962
 3056POPC   C4A39798  14.756   1.980   7.815
 3056POPC   C1B39799  14.150   2.210   8.683
 3056POPC   C2B39800  14.034   2.185   8.230
 3056POPC   C3B39801  13.949   2.191   7.803
 3056POPC   C4B39802  14.017   2.336   7.422
 3057POPC   NC339803  23.802  30.428   9.672
 3057POPC   PO439804  23.734  31.084   9.540
 3057POPC   GL139805  23.720  30.849   9.158
 3057POPC   GL239806  23.734  30.489   9.177
 3057POPC   C1A39807  23.976  30.791   8.799
 3057POPC   D2A39808  24.203  30.785   8.445
 3057POPC   C3A39809  23.916  30.933   8.117
 3057POPC   C4A39810  23.753  30.789   7.733
 3057POPC   C1B39811  23.571  30.482   8.770
 3057POPC   C2B39812  23.789  30.451   8.373
 3057POPC   C3B39813  23.547  30.405   7.993
 3057POPC   C4B39814  23.434  30.384   7.561
 3058POPC   NC339815   8.729  34.922   9.399
 3058POPC   PO439816   8.969  34.199   9.461
 3058POPC   GL139817   9.060  34.428   9.114
 3058POPC   GL239818   8.743  34.566   9.038
 3058POPC   C1A39819   9.100  34.431   8.664
 3058POPC   D2A39820   9.158  34.848   8.441
 3058POPC   C3A39821   9.009  34.907   8.024
 3058POPC   C4A39822   9.275  34.696   7.732
 3058POPC   C1B39823   8.713  34.805   8.695
 3058POPC   C2B39824   8.720  34.536   8.345
 3058POPC   C3B39825   9.051  34.399   8.095
 3058POPC   C4B39826   8.825  34.504   7.732
 3059POPC   NC339827  24.654  40.421   9.733
 3059POPC   PO439828  24.321  40.927   9.712
 3059POPC   GL139829  24.349  40.782   9.285
 3059POPC   GL239830  24.649  40.924   9.113
 3059POPC   C1A39831  24.253  40.701   8.840
 3059POPC   D2A39832  24.227  40.832   8.421
 3059POPC   C3A39833  24.341  40.602   8.044
 3059POPC   C4A39834  24.243  40.689   7.629
 3059POPC   C1B39835  24.712  40.977   8.657
 3059POPC   C2B39836  24.705  40.917   8.225
 3059POPC   C3B39837  24.767  40.841   7.797
 3059POPC   C4B39838  25.011  40.668   7.442
 3060POPC   NC339839  17.925  38.600   9.303
 3060POPC   PO439840  18.476  38.422   9.549
 3060POPC   GL139841  18.384  38.332   9.143
 3060POPC   GL239842  18.086  38.141   9.098
 3060POPC   C1A39843  18.390  38.696   8.870
 3060POPC   D2A39844  18.499  38.716   8.469
 3060POPC   C3A39845  18.205  38.618   8.189
 3060POPC   C4A39846  18.296  38.643   7.768
 3060POPC   C1B39847  18.121  38.297   8.683
 3060POPC   C2B39848  18.407  38.168   8.378
 3060POPC   C3B39849  18.308  38.179   7.938
 3060POPC   C4B39850  18.007  38.247   7.615
 3061POPC   NC339851  10.263  25.869   9.326
 3061POPC   PO439852   9.643  26.084   9.502
 3061POPC   GL139853   9.818  26.037   9.148
 3061POPC   GL239854  10.033  26.312   9.082
 3061POPC   C1A39855   9.923  25.949   8.741
 3061POPC   D2A39856   9.685  25.953   8.392
 3061POPC   C3A39857   9.873  26.016   7.996
 3061POPC   C4A39858   9.793  25.916   7.583
 3061POPC   C1B39859   9.593  26.327   8.817
 3061POPC   C2B39860   9.273  26.237   8.529
 3061POPC   C3B39861   9.230  26.267   8.084
 3061POPC   C4B39862   9.535  26.348   7.769
 3062POPC   NC339863  15.209  27.728   9.706
 3062POPC   PO439864  15.594  27.214   9.753
 3062POPC   GL139865  15.373  27.374   9.368
 3062POPC   GL239866  15.087  27.234   9.233
 3062POPC   C1A39867  15.392  27.591   8.984
 3062POPC   D2A39868  15.224  27.704   8.600
 3062POPC   C3A39869  15.388  27.490   8.279
 3062POPC   C4A39870  15.337  27.644   7.893
 3062POPC   C1B39871  14.972  27.282   8.781
 3062POPC   C2B39872  14.839  27.375   8.331
 3062POPC   C3B39873  14.850  27.459   7.864
 3062POPC   C4B39874  14.722  27.324   7.414
 3063POPC   NC339875   2.617  14.697   9.593
 3063POPC   PO439876   3.096  14.240   9.394
 3063POPC   GL139877   2.761  14.394   9.154
 3063POPC   GL239878   2.754  14.758   9.107
 3063POPC   C1A39879   2.792  14.438   8.714
 3063POPC   D2A39880   2.952  14.473   8.317
 3063POPC   C3A39881   2.854  14.147   8.016
 3063POPC   C4A39882   2.786  14.202   7.562
 3063POPC   C1B39883   2.463  14.843   8.757
 3063POPC   C2B39884   2.446  14.584   8.359
 3063POPC   C3B39885   2.623  14.627   7.943
 3063POPC   C4B39886   2.430  14.581   7.556
 3064POPC   NC339887   9.531  21.821   9.410
 3064POPC   PO439888   9.851  21.306   9.588
 3064POPC   GL139889   9.784  21.452   9.142
 3064POPC   GL239890   9.415  21.371   9.155
 3064POPC   C1A39891   9.923  21.515   8.682
 3064POPC   D2A39892   9.898  21.223   8.318
 3064POPC   C3A39893   9.908  21.417   7.900
 3064POPC   C4A39894   9.851  21.276   7.471
 3064POPC   C1B39895   9.412  21.528   8.740
 3064POPC   C2B39896   9.558  21.605   8.318
 3064POPC   C3B39897   9.417  21.398   7.941
 3064POPC   C4B39898   9.442  21.587   7.536
 3065POPC   NC339899   5.405  37.388   9.412
 3065POPC   PO439900   5.046  37.909   9.479
 3065POPC   GL139901   4.978  37.597   9.147
 3065POPC   GL239902   4.955  37.833   8.863
 3065POPC   C1A39903   5.166  37.378   8.771
 3065POPC   D2A39904   5.134  37.557   8.356
 3065POPC   C3A39905   5.031  37.311   7.991
 3065POPC   C4A39906   5.320  37.044   7.804
 3065POPC   C1B39907   5.426  37.840   8.719
 3065POPC   C2B39908   5.590  37.811   8.279
 3065POPC   C3B39909   5.332  37.718   7.895
 3065POPC   C4B39910   4.893  37.778   7.709
 3066POPC   NC339911  22.539  14.944   9.796
 3066POPC   PO439912  22.483  15.531   9.421
 3066POPC   GL139913  22.063  15.306   9.229
 3066POPC   GL239914  21.710  15.497   9.300
 3066POPC   C1A39915  22.117  15.123   8.812
 3066POPC   D2A39916  22.457  15.196   8.517
 3066POPC   C3A39917  22.307  15.003   8.154
 3066POPC   C4A39918  22.194  15.177   7.769
 3066POPC   C1B39919  21.716  15.654   8.868
 3066POPC   C2B39920  21.877  15.451   8.492
 3066POPC   C3B39921  21.815  15.373   8.069
 3066POPC   C4B39922  21.690  15.146   7.713
 3067POPC   NC339923  31.714   4.140   9.493
 3067POPC   PO439924  31.433   4.795   9.489
 3067POPC   GL139925  31.478   4.511   9.156
 3067POPC   GL239926  31.840   4.450   9.102
 3067POPC   C1A39927  31.470   4.526   8.716
 3067POPC   D2A39928  31.393   4.283   8.357
 3067POPC   C3A39929  31.424   4.528   7.994
 3067POPC   C4A39930  31.469   4.330   7.550
 3067POPC   C1B39931  31.750   4.115   8.772
 3067POPC   C2B39932  31.904   4.322   8.386
 3067POPC   C3B39933  31.850   4.270   7.945
 3067POPC   C4B39934  32.002   4.191   7.534
 3068POPC   NC339935  19.425  20.563   9.489
 3068POPC   PO439936  20.124  20.568   9.615
 3068POPC   GL139937  19.860  20.543   9.202
 3068POPC   GL239938  19.541  20.454   9.009
 3068POPC   C1A39939  19.996  20.544   8.754
 3068POPC   D2A39940  20.053  20.945   8.518
 3068POPC   C3A39941  20.004  20.984   8.076
 3068POPC   C4A39942  20.063  20.578   7.906
 3068POPC   C1B39943  19.634  20.873   8.856
 3068POPC   C2B39944  19.551  20.954   8.417
 3068POPC   C3B39945  19.562  20.675   8.063
 3068POPC   C4B39946  19.514  20.863   7.669
 3069POPC   NC339947  37.581  27.967   9.687
 3069POPC   PO439948  37.879  27.395   9.447
 3069POPC   GL139949  37.620  27.570   9.130
 3069POPC   GL239950  37.595  27.920   9.156
 3069POPC   C1A39951  37.548  27.566   8.713
 3069POPC   D2A39952  37.787  27.374   8.387
 3069POPC   C3A39953  37.734  27.587   8.029
 3069POPC   C4A39954  37.814  27.535   7.628
 3069POPC   C1B39955  37.428  28.078   8.740
 3069POPC   C2B39956  37.225  28.063   8.328
 3069POPC   C3B39957  37.244  27.781   7.986
 3069POPC   C4B39958  37.406  27.843   7.569
 3070POPC   NC339959  35.802  13.365   9.752
 3070POPC   PO439960  35.103  13.433   9.486
 3070POPC   GL139961  35.320  13.642   9.115
 3070POPC   GL239962  35.680  13.726   8.976
 3070POPC   C1A39963  35.235  13.582   8.701
 3070POPC   D2A39964  35.092  13.433   8.316
 3070POPC   C3A39965  35.137  13.790   8.064
 3070POPC   C4A39966  35.157  13.891   7.662
 3070POPC   C1B39967  35.740  13.470   8.646
 3070POPC   C2B39968  35.596  13.563   8.251
 3070POPC   C3B39969  35.570  13.624   7.827
 3070POPC   C4B39970  35.831  13.644   7.482
 3071POPC   NC339971   8.589   2.737   9.320
 3071POPC   PO439972   9.221   2.845   9.337
 3071POPC   GL139973   9.005   2.572   9.035
 3071POPC   GL239974   8.761   2.301   9.128
 3071POPC   C1A39975   9.177   2.544   8.640
 3071POPC   D2A39976   9.270   2.637   8.234
 3071POPC   C3A39977   8.989   2.963   8.091
 3071POPC   C4A39978   9.105   2.913   7.675
 3071POPC   C1B39979   8.532   2.408   8.765
 3071POPC   C2B39980   8.690   2.632   8.426
 3071POPC   C3B39981   8.787   2.518   8.028
 3071POPC   C4B39982   8.587   2.400   7.694
 3072POPC   NC339983   4.225   2.640   9.698
 3072POPC   PO439984   4.547   3.136   9.352
 3072POPC   GL139985   4.433   2.793   9.128
 3072POPC   GL239986   4.140   2.658   9.186
 3072POPC   C1A39987   4.514   2.665   8.696
 3072POPC   D2A39988   4.601   2.521   8.273
 3072POPC   C3A39989   4.327   2.643   7.931
 3072POPC   C4A39990   4.451   3.011   7.774
 3072POPC   C1B39991   4.018   2.815   8.792
 3072POPC   C2B39992   4.059   2.625   8.381
 3072POPC   C3B39993   3.883   2.363   8.072
 3072POPC   C4B39994   3.795   2.369   7.642
 3073POPC   NC339995   4.182  22.636   9.823
 3073POPC   PO439996   4.373  22.051   9.536
 3073POPC   GL139997   4.248  22.053   9.106
 3073POPC   GL239998   4.619  21.974   9.065
 3073POPC   C1A39999   4.085  22.326   8.748
 3073POPC   D2A40000   4.092  22.082   8.377
 3073POPC   C3A40001   4.189  22.206   7.927
 3073POPC   C4A40002   4.194  22.100   7.471
 3073POPC   C1B40003   4.549  22.111   8.643
 3073POPC   C2B40004   4.418  22.454   8.338
 3073POPC   C3B40005   4.619  22.522   7.929
 3073POPC   C4B40006   4.595  22.449   7.484
 3074POPC   NC340007  28.680   5.010   9.269
 3074POPC   PO440008  28.187   5.050   9.690
 3074POPC   GL140009  28.169   5.157   9.226
 3074POPC   GL240010  28.237   4.861   9.058
 3074POPC   C1A40011  28.334   5.270   8.770
 3074POPC   D2A40012  28.620   5.141   8.398
 3074POPC   C3A40013  28.501   5.299   8.006
 3074POPC   C4A40014  28.529   5.181   7.585
 3074POPC   C1B40015  28.501   4.766   8.712
 3074POPC   C2B40016  28.677   4.608   8.363
 3074POPC   C3B40017  28.621   4.793   7.999
 3074POPC   C4B40018  28.293   4.775   7.742
 3075POPC   NC340019  15.594   4.122   9.572
 3075POPC   PO440020  16.006   4.590   9.784
 3075POPC   GL140021  16.068   4.462   9.279
 3075POPC   GL240022  15.786   4.234   9.130
 3075POPC   C1A40023  16.082   4.395   8.769
 3075POPC   D2A40024  15.807   4.090   8.521
 3075POPC   C3A40025  15.947   4.002   8.111
 3075POPC   C4A40026  16.083   4.149   7.737
 3075POPC   C1B40027  15.645   4.599   8.936
 3075POPC   C2B40028  15.636   4.587   8.491
 3075POPC   C3B40029  15.747   4.486   8.063
 3075POPC   C4B40030  15.835   4.573   7.614
 3076POPC   NC340031  38.954  42.882   9.716
 3076POPC   PO440032  39.014  42.281   9.614
 3076POPC   GL140033  39.210  42.475   9.247
 3076POPC   GL240034  38.924  42.689   9.210
 3076POPC   C1A40035  39.244  42.253   8.837
 3076POPC   D2A40036  39.025  42.139   8.460
 3076POPC   C3A40037  39.344  42.159   8.166
 3076POPC   C4A40038  39.483  42.279   7.724
 3076POPC   C1B40039  39.039  42.719   8.788
 3076POPC   C2B40040  39.171  42.614   8.413
 3076POPC   C3B40041  39.031  42.513   7.998
 3076POPC   C4B40042  38.829  42.719   7.694
 3077POPC   NC340043  10.087   3.842   9.355
 3077POPC   PO440044  10.575   3.576   9.772
 3077POPC   GL140045  10.522   3.597   9.312
 3077POPC   GL240046  10.445   3.293   9.114
 3077POPC   C1A40047  10.652   3.733   8.911
 3077POPC   D2A40048  10.675   3.774   8.442
 3077POPC   C3A40049  10.591   3.610   8.011
 3077POPC   C4A40050  10.634   3.213   7.757
 3077POPC   C1B40051  10.728   3.269   8.720
 3077POPC   C2B40052  10.628   3.195   8.301
 3077POPC   C3B40053  10.226   3.262   8.094
 3077POPC   C4B40054  10.048   3.169   7.701
 3078POPC   NC340055  43.136  39.970   9.594
 3078POPC   PO440056  43.720  39.756   9.341
 3078POPC   GL140057  43.348  40.056   9.130
 3078POPC   GL240058  42.906  40.004   9.161
 3078POPC   C1A40059  43.118  40.193   8.761
 3078POPC   D2A40060  43.022  40.424   8.414
 3078POPC   C3A40061  43.072  40.233   8.023
 3078POPC   C4A40062  43.010  40.448   7.630
 3078POPC   C1B40063  42.761  39.790   8.799
 3078POPC   C2B40064  42.901  39.880   8.387
 3078POPC   C3B40065  42.721  39.860   7.962
 3078POPC   C4B40066  42.803  39.971   7.531
 3079POPC   NC340067  16.173  28.565   9.523
 3079POPC   PO440068  15.651  28.134   9.364
 3079POPC   GL140069  15.869  28.426   9.117
 3079POPC   GL240070  16.175  28.239   9.136
 3079POPC   C1A40071  15.880  28.576   8.689
 3079POPC   D2A40072  15.835  28.389   8.262
 3079POPC   C3A40073  15.744  28.654   7.904
 3079POPC   C4A40074  15.756  28.622   7.445
 3079POPC   C1B40075  16.063  28.103   8.728
 3079POPC   C2B40076  16.297  28.103   8.379
 3079POPC   C3B40077  16.469  28.265   8.009
 3079POPC   C4B40078  16.126  28.365   7.755
 3080POPC   NC340079  28.251  25.864   9.431
 3080POPC   PO440080  28.145  26.535   9.382
 3080POPC   GL140081  28.363  26.243   9.107
 3080POPC   GL240082  28.685  26.030   9.213
 3080POPC   C1A40083  28.203  25.887   8.800
 3080POPC   D2A40084  28.034  25.806   8.403
 3080POPC   C3A40085  28.318  25.839   8.048
 3080POPC   C4A40086  28.232  25.712   7.622
 3080POPC   C1B40087  28.673  26.089   8.755
 3080POPC   C2B40088  28.353  26.220   8.428
 3080POPC   C3B40089  28.420  26.449   8.064
 3080POPC   C4B40090  28.403  26.223   7.693
 3081POPC   NC340091  18.733  33.925   9.785
 3081POPC   PO440092  18.282  34.100   9.234
 3081POPC   GL140093  18.271  33.736   8.948
 3081POPC   GL240094  18.578  33.528   8.859
 3081POPC   C1A40095  18.047  33.486   8.674
 3081POPC   D2A40096  17.817  33.490   8.310
 3081POPC   C3A40097  18.038  33.645   7.928
 3081POPC   C4A40098  18.298  34.009   7.830
 3081POPC   C1B40099  18.762  33.832   8.601
 3081POPC   C2B40100  18.694  33.953   8.175
 3081POPC   C3B40101  18.807  33.926   7.760
 3081POPC   C4B40102  18.793  33.906   7.344
 3082POPC   NC340103  42.492  43.366   9.702
 3082POPC   PO440104  42.429  43.998   9.779
 3082POPC   GL140105  42.375  43.876   9.303
 3082POPC   GL240106  42.478  43.534   9.198
 3082POPC   C1A40107  42.375  43.991   8.829
 3082POPC   D2A40108  41.977  43.962   8.566
 3082POPC   C3A40109  41.993  43.941   8.069
 3082POPC   C4A40110  42.325  44.115   7.738
 3082POPC   C1B40111  42.227  43.504   8.812
 3082POPC   C2B40112  42.176  43.545   8.379
 3082POPC   C3B40113  42.471  43.780   8.142
 3082POPC   C4B40114  42.340  43.602   7.794
 3083POPC   NC340115  27.174  38.335   9.526
 3083POPC   PO440116  27.787  38.120   9.421
 3083POPC   GL140117  27.717  38.446   9.097
 3083POPC   GL240118  27.388  38.356   9.074
 3083POPC   C1A40119  27.541  38.557   8.648
 3083POPC   D2A40120  27.281  38.408   8.287
 3083POPC   C3A40121  27.461  38.448   7.869
 3083POPC   C4A40122  27.566  38.745   7.539
 3083POPC   C1B40123  27.259  38.111   8.737
 3083POPC   C2B40124  27.451  37.917   8.424
 3083POPC   C3B40125  27.349  37.956   7.992
 3083POPC   C4B40126  27.593  37.952   7.626
 3084POPC   NC340127  25.653  19.750   9.603
 3084POPC   PO440128  26.265  20.014   9.459
 3084POPC   GL140129  26.181  19.752   9.119
 3084POPC   GL240130  25.861  19.592   9.158
 3084POPC   C1A40131  26.333  19.670   8.704
 3084POPC   D2A40132  26.401  19.607   8.268
 3084POPC   C3A40133  26.413  20.004   8.019
 3084POPC   C4A40134  26.053  20.158   7.770
 3084POPC   C1B40135  25.815  19.753   8.741
 3084POPC   C2B40136  25.952  19.852   8.328
 3084POPC   C3B40137  25.699  19.864   7.966
 3084POPC   C4B40138  25.483  19.949   7.615
 3085POPC   NC340139   0.718  33.325   9.391
 3085POPC   PO440140   0.802  34.140   9.423
 3085POPC   GL140141   0.978  34.076   9.012
 3085POPC   GL240142   1.104  33.725   8.987
 3085POPC   C1A40143   1.280  34.139   8.708
 3085POPC   D2A40144   1.342  33.937   8.321
 3085POPC   C3A40145   1.126  34.001   7.945
 3085POPC   C4A40146   1.237  33.952   7.494
 3085POPC   C1B40147   1.502  33.626   8.730
 3085POPC   C2B40148   1.695  33.578   8.283
 3085POPC   C3B40149   1.502  33.633   7.858
 3085POPC   C4B40150   1.707  33.733   7.464
 3086POPC   NC340151  22.082   7.679   9.744
 3086POPC   PO440152  22.554   7.163   9.469
 3086POPC   GL140153  22.342   7.357   9.187
 3086POPC   GL240154  22.408   7.667   9.284
 3086POPC   C1A40155  22.200   7.235   8.798
 3086POPC   D2A40156  22.474   7.148   8.458
 3086POPC   C3A40157  22.325   7.212   8.077
 3086POPC   C4A40158  22.148   7.185   7.675
 3086POPC   C1B40159  22.418   7.726   8.830
 3086POPC   C2B40160  22.221   7.595   8.450
 3086POPC   C3B40161  22.115   7.669   8.057
 3086POPC   C4B40162  22.070   7.682   7.667
 3087POPC   NC340163  42.403  16.721   9.882
 3087POPC   PO440164  42.775  16.461   9.342
 3087POPC   GL140165  42.734  16.686   9.028
 3087POPC   GL240166  42.447  16.866   9.136
 3087POPC   C1A40167  42.767  16.594   8.614
 3087POPC   D2A40168  42.666  16.778   8.258
 3087POPC   C3A40169  42.485  16.509   7.941
 3087POPC   C4A40170  42.378  16.866   7.713
 3087POPC   C1B40171  42.333  16.856   8.684
 3087POPC   C2B40172  42.149  16.683   8.291
 3087POPC   C3B40173  41.906  16.825   7.931
 3087POPC   C4B40174  41.599  16.813   7.588
 3088POPC   NC340175  26.662   7.608   9.384
 3088POPC   PO440176  27.066   7.112   9.485
 3088POPC   GL140177  26.809   7.136   9.176
 3088POPC   GL240178  26.454   7.128   9.322
 3088POPC   C1A40179  26.919   7.292   8.739
 3088POPC   D2A40180  26.832   7.577   8.371
 3088POPC   C3A40181  27.032   7.499   7.949
 3088POPC   C4A40182  26.983   7.662   7.480
 3088POPC   C1B40183  26.426   7.155   8.865
 3088POPC   C2B40184  26.558   7.064   8.442
 3088POPC   C3B40185  26.558   7.292   8.050
 3088POPC   C4B40186  26.743   7.234   7.630
 3089POPC   NC340187  31.070  28.240   9.549
 3089POPC   PO440188  30.637  28.834   9.519
 3089POPC   GL140189  30.561  28.639   9.148
 3089POPC   GL240190  30.789  28.359   9.137
 3089POPC   C1A40191  30.418  28.521   8.741
 3089POPC   D2A40192  30.409  28.554   8.304
 3089POPC   C3A40193  30.362  28.199   8.039
 3089POPC   C4A40194  30.473  28.296   7.650
 3089POPC   C1B40195  30.659  28.080   8.824
 3089POPC   C2B40196  30.727  28.126   8.396
 3089POPC   C3B40197  30.872  28.127   7.969
 3089POPC   C4B40198  31.089  28.400   7.721
 3090POPC   NC340199  37.742   1.509   9.762
 3090POPC   PO440200  37.511   0.859   9.796
 3090POPC   GL140201  37.712   1.121   9.398
 3090POPC   GL240202  37.767   1.501   9.257
 3090POPC   C1A40203  37.686   1.096   8.918
 3090POPC   D2A40204  37.623   0.858   8.503
 3090POPC   C3A40205  37.461   1.094   8.125
 3090POPC   C4A40206  37.467   1.280   7.682
 3090POPC   C1B40207  37.807   1.626   8.824
 3090POPC   C2B40208  37.736   1.371   8.459
 3090POPC   C3B40209  37.880   1.375   8.003
 3090POPC   C4B40210  37.954   1.205   7.556
 3091POPC   NC340211  26.209   8.038   9.398
 3091POPC   PO440212  25.877   8.579   9.665
 3091POPC   GL140213  25.969   8.487   9.208
 3091POPC   GL240214  26.330   8.416   9.069
 3091POPC   C1A40215  25.889   8.359   8.779
 3091POPC   D2A40216  25.792   7.940   8.632
 3091POPC   C3A40217  25.776   7.913   8.187
 3091POPC   C4A40218  25.904   8.220   7.882
 3091POPC   C1B40219  26.312   8.089   8.726
 3091POPC   C2B40220  26.156   8.247   8.352
 3091POPC   C3B40221  26.353   8.404   8.023
 3091POPC   C4B40222  26.398   8.211   7.642
 3092POPC   NC340223  20.028  14.955   9.532
 3092POPC   PO440224  19.476  15.346   9.362
 3092POPC   GL140225  19.840  15.115   9.081
 3092POPC   GL240226  20.015  14.708   9.114
 3092POPC   C1A40227  19.820  15.232   8.630
 3092POPC   D2A40228  19.574  15.217   8.246
 3092POPC   C3A40229  19.779  15.231   7.819
 3092POPC   C4A40230  19.609  15.204   7.417
 3092POPC   C1B40231  20.266  14.753   8.735
 3092POPC   C2B40232  20.387  15.030   8.379
 3092POPC   C3B40233  20.268  14.912   7.947
 3092POPC   C4B40234  20.137  14.958   7.528
 3093POPC   NC340235  43.612  11.794   9.486
 3093POPC   PO440236  43.082  12.183   9.435
 3093POPC   GL140237  43.114  11.981   9.069
 3093POPC   GL240238  43.274  11.705   9.130
 3093POPC   C1A40239  43.200  11.870   8.654
 3093POPC   D2A40240  42.974  12.013   8.335
 3093POPC   C3A40241  43.141  12.023   7.979
 3093POPC   C4A40242  42.830  12.035   7.717
 3093POPC   C1B40243  43.623  11.628   8.824
 3093POPC   C2B40244  43.634  11.819   8.404
 3093POPC   C3B40245  43.511  11.672   8.018
 3093POPC   C4B40246  43.455  11.825   7.611
 3094POPC   NC340247  35.046  17.278   9.258
 3094POPC   PO440248  35.397  17.800   9.462
 3094POPC   GL140249  35.446  17.634   9.059
 3094POPC   GL240250  35.550  17.283   8.977
 3094POPC   C1A40251  35.210  17.861   8.778
 3094POPC   D2A40252  35.095  17.845   8.389
 3094POPC   C3A40253  35.344  17.623   8.109
 3094POPC   C4A40254  35.252  17.743   7.721
 3094POPC   C1B40255  35.321  17.388   8.578
 3094POPC   C2B40256  35.003  17.266   8.247
 3094POPC   C3B40257  35.052  17.246   7.772
 3094POPC   C4B40258  35.229  16.977   7.397
 3095POPC   NC340259  34.546  38.294   9.434
 3095POPC   PO440260  34.917  38.832   9.644
 3095POPC   GL140261  34.694  38.854   9.167
 3095POPC   GL240262  34.422  38.671   9.133
 3095POPC   C1A40263  34.728  38.734   8.710
 3095POPC   D2A40264  34.781  38.310   8.512
 3095POPC   C3A40265  34.611  38.286   8.088
 3095POPC   C4A40266  34.741  38.112   7.707
 3095POPC   C1B40267  34.358  38.375   8.814
 3095POPC   C2B40268  34.188  38.471   8.431
 3095POPC   C3B40269  34.092  38.230   8.098
 3095POPC   C4B40270  34.188  38.073   7.708
 3096POPC   NC340271   6.179  37.262   9.585
 3096POPC   PO440272   6.045  37.916   9.473
 3096POPC   GL140273   5.894  37.692   9.119
 3096POPC   GL240274   6.016  37.362   9.133
 3096POPC   C1A40275   6.000  37.669   8.682
 3096POPC   D2A40276   6.100  37.404   8.346
 3096POPC   C3A40277   6.003  37.664   7.992
 3096POPC   C4A40278   5.751  37.955   7.748
 3096POPC   C1B40279   5.969  37.191   8.803
 3096POPC   C2B40280   5.618  37.334   8.523
 3096POPC   C3B40281   5.637  37.318   8.093
 3096POPC   C4B40282   6.034  37.160   7.863
 3097POPC   NC340283  19.622  26.304   9.483
 3097POPC   PO440284  20.306  26.289   9.506
 3097POPC   GL140285  20.000  26.326   9.125
 3097POPC   GL240286  19.874  26.022   9.079
 3097POPC   C1A40287  19.663  26.420   8.784
 3097POPC   D2A40288  19.552  26.256   8.351
 3097POPC   C3A40289  19.880  26.117   8.073
 3097POPC   C4A40290  20.153  26.348   7.780
 3097POPC   C1B40291  19.944  26.018   8.643
 3097POPC   C2B40292  19.660  25.760   8.419
 3097POPC   C3B40293  19.398  25.824   8.057
 3097POPC   C4B40294  19.626  25.874   7.680
 3098POPC   NC340295  18.767   4.643   9.281
 3098POPC   PO440296  19.286   4.238   9.454
 3098POPC   GL140297  19.167   4.212   9.033
 3098POPC   GL240298  18.843   4.117   9.078
 3098POPC   C1A40299  19.112   4.050   8.614
 3098POPC   D2A40300  19.323   4.222   8.285
 3098POPC   C3A40301  19.170   4.189   7.917
 3098POPC   C4A40302  19.275   4.509   7.658
 3098POPC   C1B40303  18.745   4.388   8.714
 3098POPC   C2B40304  18.817   4.404   8.291
 3098POPC   C3B40305  18.759   4.494   7.876
 3098POPC   C4B40306  18.843   4.282   7.487
 3099POPC   NC340307  21.985  21.325   9.615
 3099POPC   PO440308  22.399  21.845   9.701
 3099POPC   GL140309  22.086  21.655   9.256
 3099POPC   GL240310  22.190  21.261   9.165
 3099POPC   C1A40311  22.089  21.523   8.760
 3099POPC   D2A40312  22.197  21.684   8.357
 3099POPC   C3A40313  22.149  21.431   7.995
 3099POPC   C4A40314  22.415  21.398   7.661
 3099POPC   C1B40315  21.884  21.070   8.864
 3099POPC   C2B40316  21.798  20.902   8.464
 3099POPC   C3B40317  21.802  21.029   8.057
 3099POPC   C4B40318  21.935  20.940   7.671
 3100POPC   NC340319   1.793  34.858   9.398
 3100POPC   PO440320   2.309  34.489   9.553
 3100POPC   GL140321   2.108  34.457   9.174
 3100POPC   GL240322   1.999  34.140   9.212
 3100POPC   C1A40323   2.063  34.623   8.752
 3100POPC   D2A40324   2.142  34.939   8.397
 3100POPC   C3A40325   2.302  34.818   7.961
 3100POPC   C4A40326   2.303  34.874   7.496
 3100POPC   C1B40327   1.804  34.069   8.820
 3100POPC   C2B40328   1.707  34.288   8.457
 3100POPC   C3B40329   1.917  34.533   8.145
 3100POPC   C4B40330   1.970  34.474   7.668
 3101POPC   NC340331  44.828  29.643   9.468
 3101POPC   PO440332  44.361  30.002   9.221
 3101POPC   GL140333  44.610  29.699   9.019
 3101POPC   GL240334   0.003  29.771   9.005
 3101POPC   C1A40335  44.727  29.572   8.629
 3101POPC   D2A40336  44.598  29.798   8.301
 3101POPC   C3A40337  44.805  29.851   7.935
 3101POPC   C4A40338  44.405  30.084   7.857
 3101POPC   C1B40339  44.785  30.100   8.733
 3101POPC   C2B40340  44.851  30.444   8.459
 3101POPC   C3B40341  44.824  30.347   8.055
 3101POPC   C4B40342   0.160  30.227   7.829
 3102POPC   NC340343  33.939  37.840   9.516
 3102POPC   PO440344  34.234  37.215   9.661
 3102POPC   GL140345  34.114  37.420   9.200
 3102POPC   GL240346  34.035  37.796   9.020
 3102POPC   C1A40347  33.953  37.400   8.744
 3102POPC   D2A40348  33.944  37.584   8.307
 3102POPC   C3A40349  33.602  37.466   8.021
 3102POPC   C4A40350  33.699  37.345   7.614
 3102POPC   C1B40351  33.619  37.783   8.779
 3102POPC   C2B40352  33.529  37.888   8.341
 3102POPC   C3B40353  33.728  37.935   7.917
 3102POPC   C4B40354  33.678  38.052   7.489
 3103POPC   NC340355  21.963  11.974   9.456
 3103POPC   PO440356  22.391  12.532   9.352
 3103POPC   GL140357  22.075  12.365   9.148
 3103POPC   GL240358  22.288  12.086   9.073
 3103POPC   C1A40359  21.876  12.244   8.769
 3103POPC   D2A40360  22.173  12.180   8.457
 3103POPC   C3A40361  22.064  12.131   8.045
 3103POPC   C4A40362  22.245  12.153   7.644
 3103POPC   C1B40363  22.159  11.789   8.789
 3103POPC   C2B40364  22.005  11.698   8.373
 3103POPC   C3B40365  22.275  11.637   8.020
 3103POPC   C4B40366  22.313  11.670   7.585
 3104POPC   NC340367  13.295  23.273   9.353
 3104POPC   PO440368  13.116  23.991   9.432
 3104POPC   GL140369  13.064  23.804   9.053
 3104POPC   GL240370  13.376  23.943   8.984
 3104POPC   C1A40371  12.837  23.665   8.660
 3104POPC   D2A40372  12.983  23.506   8.249
 3104POPC   C3A40373  12.706  23.634   7.941
 3104POPC   C4A40374  12.518  23.445   7.584
 3104POPC   C1B40375  13.341  23.635   8.660
 3104POPC   C2B40376  13.322  23.875   8.296
 3104POPC   C3B40377  13.114  23.923   7.889
 3104POPC   C4B40378  12.991  23.748   7.498
 3105POPC   NC340379  42.243   6.010   9.540
 3105POPC   PO440380  42.524   5.505   9.202
 3105POPC   GL140381  42.198   5.796   9.042
 3105POPC   GL240382  42.363   6.120   9.066
 3105POPC   C1A40383  42.285   5.929   8.605
 3105POPC   D2A40384  42.609   5.701   8.386
 3105POPC   C3A40385  42.466   5.560   8.004
 3105POPC   C4A40386  42.124   5.737   7.783
 3105POPC   C1B40387  42.741   6.040   8.813
 3105POPC   C2B40388  42.693   6.221   8.409
 3105POPC   C3B40389  42.378   6.107   8.121
 3105POPC   C4B40390  42.589   6.031   7.767
 3106POPC   NC340391  10.797  13.114   9.393
 3106POPC   PO440392  10.151  13.015   9.589
 3106POPC   GL140393  10.370  12.907   9.185
 3106POPC   GL240394  10.258  12.668   8.979
 3106POPC   C1A40395  10.684  12.874   8.803
 3106POPC   D2A40396  10.837  12.723   8.397
 3106POPC   C3A40397  10.711  12.942   8.034
 3106POPC   C4A40398  10.532  12.848   7.645
 3106POPC   C1B40399  10.224  12.354   8.677
 3106POPC   C2B40400  10.343  12.284   8.279
 3106POPC   C3B40401  10.286  12.589   7.996
 3106POPC   C4B40402  10.078  12.610   7.622
 3107POPC   NC340403   8.851  43.490   9.967
 3107POPC   PO440404   9.098  43.973   9.509
 3107POPC   GL140405   9.170  44.110   9.154
 3107POPC   GL240406   9.178  44.458   9.249
 3107POPC   C1A40407   8.896  43.967   8.815
 3107POPC   D2A40408   8.702  44.033   8.427
 3107POPC   C3A40409   8.889  43.767   8.159
 3107POPC   C4A40410   8.842  43.780   7.748
 3107POPC   C1B40411   9.049  44.445   8.799
 3107POPC   C2B40412   9.167  44.208   8.410
 3107POPC   C3B40413   9.039  44.230   7.953
 3107POPC   C4B40414   9.251  44.085   7.588
 3108POPC   NC340415  11.759  14.523   9.454
 3108POPC   PO440416  12.446  14.326   9.580
 3108POPC   GL140417  12.234  14.558   9.246
 3108POPC   GL240418  12.095  14.276   9.167
 3108POPC   C1A40419  12.031  14.674   8.833
 3108POPC   D2A40420  11.892  14.399   8.475
 3108POPC   C3A40421  11.858  14.514   8.043
 3108POPC   C4A40422  12.110  14.526   7.672
 3108POPC   C1B40423  12.284  14.217   8.771
 3108POPC   C2B40424  12.396  14.320   8.353
 3108POPC   C3B40425  12.511  14.298   7.935
 3108POPC   C4B40426  12.490  14.200   7.508
 3109POPC   NC340427  29.403   2.225   9.405
 3109POPC   PO440428  29.156   1.583   9.516
 3109POPC   GL140429  29.169   1.832   9.155
 3109POPC   GL240430  28.961   2.100   9.107
 3109POPC   C1A40431  29.309   2.018   8.759
 3109POPC   D2A40432  29.119   2.130   8.387
 3109POPC   C3A40433  29.361   2.059   8.045
 3109POPC   C4A40434  29.224   1.773   7.780
 3109POPC   C1B40435  28.742   2.165   8.749
 3109POPC   C2B40436  28.617   2.306   8.337
 3109POPC   C3B40437  28.860   2.202   7.962
 3109POPC   C4B40438  29.128   2.241   7.596
 3110POPC   NC340439  42.550   9.255   9.279
 3110POPC   PO440440  42.203   9.944   9.491
 3110POPC   GL140441  42.387   9.809   9.106
 3110POPC   GL240442  42.237   9.494   8.981
 3110POPC   C1A40443  42.462   9.986   8.704
 3110POPC   D2A40444  42.304   9.745   8.334
 3110POPC   C3A40445  42.194   9.812   7.924
 3110POPC   C4A40446  42.484   9.837   7.580
 3110POPC   C1B40447  42.587   9.471   8.675
 3110POPC   C2B40448  42.671   9.426   8.244
 3110POPC   C3B40449  42.706   9.452   7.829
 3110POPC   C4B40450  42.826   9.145   7.539
 3111POPC   NC340451   7.313   1.601   9.430
 3111POPC   PO440452   7.095   2.243   9.475
 3111POPC   GL140453   7.417   2.048   9.196
 3111POPC   GL240454   7.762   1.876   9.245
 3111POPC   C1A40455   7.486   2.082   8.779
 3111POPC   D2A40456   7.173   2.108   8.448
 3111POPC   C3A40457   7.359   1.952   8.086
 3111POPC   C4A40458   7.227   2.068   7.682
 3111POPC   C1B40459   7.869   1.723   8.833
 3111POPC   C2B40460   7.782   1.874   8.426
 3111POPC   C3B40461   7.776   1.644   8.075
 3111POPC   C4B40462   7.645   1.757   7.680
 3112POPC   NC340463  21.005  27.163   9.407
 3112POPC   PO440464  21.223  26.584   9.577
 3112POPC   GL140465  21.438  26.686   9.184
 3112POPC   GL240466  21.446  27.039   9.111
 3112POPC   C1A40467  21.575  26.618   8.756
 3112POPC   D2A40468  21.417  26.683   8.349
 3112POPC   C3A40469  21.555  26.481   7.972
 3112POPC   C4A40470  21.545  26.759   7.700
 3112POPC   C1B40471  21.161  26.936   8.769
 3112POPC   C2B40472  20.902  27.084   8.444
 3112POPC   C3B40473  21.018  27.253   8.066
 3112POPC   C4B40474  21.268  27.183   7.687
 3113POPC   NC340475  31.341  13.773   9.414
 3113POPC   PO440476  31.580  13.192   9.504
 3113POPC   GL140477  31.660  13.447   9.109
 3113POPC   GL240478  31.685  13.827   9.048
 3113POPC   C1A40479  31.423  13.515   8.722
 3113POPC   D2A40480  31.500  13.720   8.329
 3113POPC   C3A40481  31.508  13.388   8.020
 3113POPC   C4A40482  31.869  13.114   7.864
 3113POPC   C1B40483  31.274  13.996   8.795
 3113POPC   C2B40484  31.043  13.954   8.395
 3113POPC   C3B40485  31.240  14.043   7.962
 3113POPC   C4B40486  31.174  13.959   7.480
 3114POPC   NC340487  44.789  33.590   9.508
 3114POPC   PO440488  44.520  32.991   9.527
 3114POPC   GL140489  44.363  33.062   9.144
 3114POPC   GL240490  44.428  33.420   9.197
 3114POPC   C1A40491  44.502  32.900   8.766
 3114POPC   D2A40492  44.857  32.813   8.453
 3114POPC   C3A40493  44.775  32.899   8.020
 3114POPC   C4A40494  44.414  32.854   7.775
 3114POPC   C1B40495  44.712  33.369   8.868
 3114POPC   C2B40496  44.631  33.276   8.441
 3114POPC   C3B40497  44.495  33.340   8.038
 3114POPC   C4B40498  44.707  33.259   7.635
 3115POPC   NC340499  37.088  38.155   9.455
 3115POPC   PO440500  36.687  38.732   9.433
 3115POPC   GL140501  36.976  38.566   9.165
 3115POPC   GL240502  36.707  38.308   9.105
 3115POPC   C1A40503  37.090  38.360   8.769
 3115POPC   D2A40504  37.045  38.615   8.391
 3115POPC   C3A40505  37.008  38.505   7.961
 3115POPC   C4A40506  37.247  38.581   7.577
 3115POPC   C1B40507  36.643  38.636   8.753
 3115POPC   C2B40508  36.483  38.556   8.326
 3115POPC   C3B40509  36.486  38.618   7.889
 3115POPC   C4B40510  36.680  38.404   7.569
 3116POPC   NC340511  41.323   4.726   9.360
 3116POPC   PO440512  41.605   4.143   9.414
 3116POPC   GL140513  41.566   4.338   9.046
 3116POPC   GL240514  41.194   4.323   9.060
 3116POPC   C1A40515  41.716   4.189   8.644
 3116POPC   D2A40516  41.665   4.402   8.243
 3116POPC   C3A40517  41.582   4.169   7.853
 3116POPC   C4A40518  41.748   4.231   7.379
 3116POPC   C1B40519  41.287   4.456   8.626
 3116POPC   C2B40520  41.243   4.728   8.281
 3116POPC   C3B40521  41.250   4.658   7.871
 3116POPC   C4B40522  41.255   4.368   7.524
 3117POPC   NC340523  34.127  33.023   9.437
 3117POPC   PO440524  33.580  33.261   9.714
 3117POPC   GL140525  33.658  33.054   9.254
 3117POPC   GL240526  33.629  33.323   9.002
 3117POPC   C1A40527  33.839  32.879   8.808
 3117POPC   D2A40528  33.736  33.185   8.444
 3117POPC   C3A40529  33.872  33.146   7.999
 3117POPC   C4A40530  33.929  32.739   7.757
 3117POPC   C1B40531  34.074  33.317   8.811
 3117POPC   C2B40532  34.257  33.325   8.389
 3117POPC   C3B40533  34.348  33.357   7.951
 3117POPC   C4B40534  34.201  33.145   7.578
 3118POPC   NC340535   0.357   5.334   9.467
 3118POPC   PO440536   0.721   4.736   9.487
 3118POPC   GL140537   0.420   4.890   9.176
 3118POPC   GL240538   0.056   4.830   9.218
 3118POPC   C1A40539   0.515   5.078   8.767
 3118POPC   D2A40540   0.421   5.345   8.414
 3118POPC   C3A40541   0.454   5.160   8.026
 3118POPC   C4A40542   0.272   5.271   7.674
 3118POPC   C1B40543   0.139   4.652   8.816
 3118POPC   C2B40544   0.225   4.848   8.408
 3118POPC   C3B40545   0.070   4.830   8.002
 3118POPC   C4B40546   0.377   4.759   7.672
 3119POPC   NC340547   0.823   8.542   9.280
 3119POPC   PO440548   1.462   8.514   9.465
 3119POPC   GL140549   1.402   8.144   9.149
 3119POPC   GL240550   1.055   8.013   9.055
 3119POPC   C1A40551   1.440   8.150   8.692
 3119POPC   D2A40552   1.348   8.036   8.253
 3119POPC   C3A40553   1.448   8.344   7.910
 3119POPC   C4A40554   1.404   8.253   7.437
 3119POPC   C1B40555   0.729   8.155   8.730
 3119POPC   C2B40556   0.714   8.285   8.302
 3119POPC   C3B40557   0.809   8.073   7.931
 3119POPC   C4B40558   0.939   8.313   7.602
 3120POPC   NC340559  23.547   2.543   9.398
 3120POPC   PO440560  23.979   2.998   9.614
 3120POPC   GL140561  23.846   2.945   9.197
 3120POPC   GL240562  23.512   3.128   9.222
 3120POPC   C1A40563  23.941   2.730   8.789
 3120POPC   D2A40564  23.689   2.551   8.439
 3120POPC   C3A40565  23.737   2.809   8.048
 3120POPC   C4A40566  23.955   2.788   7.663
 3120POPC   C1B40567  23.488   2.972   8.800
 3120POPC   C2B40568  23.372   2.974   8.386
 3120POPC   C3B40569  23.462   3.245   8.060
 3120POPC   C4B40570  23.531   3.115   7.610
 3121POPC   NC340571  20.398  33.630   9.435
 3121POPC   PO440572  20.773  34.191   9.577
 3121POPC   GL140573  20.653  34.057   9.121
 3121POPC   GL240574  20.743  33.767   8.832
 3121POPC   C1A40575  20.353  34.051   8.771
 3121POPC   D2A40576  20.474  33.785   8.388
 3121POPC   C3A40577  20.732  33.837   8.017
 3121POPC   C4A40578  20.698  34.172   7.702
 3121POPC   C1B40579  20.360  33.472   8.772
 3121POPC   C2B40580  20.162  33.396   8.317
 3121POPC   C3B40581  20.421  33.300   7.930
 3121POPC   C4B40582  20.474  33.614   7.602
 3122POPC   NC340583  23.091  35.456   9.675
 3122POPC   PO440584  22.523  35.166   9.420
 3122POPC   GL140585  22.787  35.305   9.079
 3122POPC   GL240586  23.146  35.300   9.178
 3122POPC   C1A40587  22.755  35.322   8.650
 3122POPC   D2A40588  22.549  35.095   8.369
 3122POPC   C3A40589  22.593  35.267   7.982
 3122POPC   C4A40590  22.799  35.564   7.735
 3122POPC   C1B40591  23.155  35.055   8.806
 3122POPC   C2B40592  23.207  35.272   8.427
 3122POPC   C3B40593  23.141  35.391   8.051
 3122POPC   C4B40594  23.302  35.170   7.719
 3123POPC   NC340595  23.334  23.677   9.456
 3123POPC   PO440596  22.617  23.563   9.530
 3123POPC   GL140597  22.690  23.663   9.103
 3123POPC   GL240598  23.018  23.868   9.067
 3123POPC   C1A40599  22.769  23.672   8.666
 3123POPC   D2A40600  22.885  23.813   8.268
 3123POPC   C3A40601  22.663  23.648   7.942
 3123POPC   C4A40602  22.804  23.788   7.580
 3123POPC   C1B40603  23.252  23.854   8.643
 3123POPC   C2B40604  23.335  23.596   8.255
 3123POPC   C3B40605  23.208  23.654   7.857
 3123POPC   C4B40606  23.455  23.938   7.628
 3124POPC   NC340607  20.602  18.273   9.569
 3124POPC   PO440608  20.571  17.535   9.483
 3124POPC   GL140609  20.469  17.885   9.181
 3124POPC   GL240610  20.394  18.255   9.110
 3124POPC   C1A40611  20.601  17.970   8.752
 3124POPC   D2A40612  20.798  18.242   8.468
 3124POPC   C3A40613  20.543  18.265   8.116
 3124POPC   C4A40614  20.549  18.233   7.694
 3124POPC   C1B40615  20.360  18.577   8.784
 3124POPC   C2B40616  20.261  18.699   8.350
 3124POPC   C3B40617  20.387  18.682   7.890
 3124POPC   C4B40618  20.345  18.619   7.443
 3125POPC   NC340619  38.889  40.331   9.535
 3125POPC   PO440620  38.291  40.797   9.575
 3125POPC   GL140621  38.267  40.672   9.108
 3125POPC   GL240622  38.056  40.870   8.887
 3125POPC   C1A40623  38.532  40.507   8.750
 3125POPC   D2A40624  38.813  40.379   8.388
 3125POPC   C3A40625  38.718  40.677   8.067
 3125POPC   C4A40626  38.428  40.619   7.721
 3125POPC   C1B40627  38.486  41.012   8.789
 3125POPC   C2B40628  38.740  41.025   8.485
 3125POPC   C3B40629  38.735  41.210   8.119
 3125POPC   C4B40630  38.679  41.074   7.710
 3126POPC   NC340631  24.185  23.450   9.294
 3126POPC   PO440632  24.554  23.875   9.725
 3126POPC   GL140633  24.495  23.856   9.230
 3126POPC   GL240634  24.149  23.908   9.047
 3126POPC   C1A40635  24.591  23.872   8.751
 3126POPC   D2A40636  24.348  23.933   8.339
 3126POPC   C3A40637  24.605  23.968   7.973
 3126POPC   C4A40638  24.723  23.569   7.812
 3126POPC   C1B40639  24.166  23.589   8.677
 3126POPC   C2B40640  24.310  23.407   8.271
 3126POPC   C3B40641  24.213  23.595   7.870
 3126POPC   C4B40642  24.039  23.504   7.462
 3127POPC   NC340643  44.924  19.940   9.474
 3127POPC   PO440644  44.410  19.474   9.413
 3127POPC   GL140645  44.564  19.781   9.103
 3127POPC   GL240646  44.530  20.181   9.139
 3127POPC   C1A40647  44.679  19.613   8.684
 3127POPC   D2A40648  44.514  19.503   8.288
 3127POPC   C3A40649  44.724  19.471   7.908
 3127POPC   C4A40650  44.585  19.595   7.489
 3127POPC   C1B40651  44.691  20.111   8.738
 3127POPC   C2B40652  44.565  20.030   8.364
 3127POPC   C3B40653  44.546  19.940   7.967
 3127POPC   C4B40654  44.916  19.914   7.765
 3128POPC   NC340655  41.495  35.603   9.496
 3128POPC   PO440656  41.605  34.928   9.474
 3128POPC   GL140657  41.595  35.229   9.169
 3128POPC   GL240658  41.861  35.123   8.966
 3128POPC   C1A40659  41.554  35.502   8.824
 3128POPC   D2A40660  41.761  35.324   8.459
 3128POPC   C3A40661  41.606  35.507   8.076
 3128POPC   C4A40662  41.297  35.400   7.800
 3128POPC   C1B40663  41.924  34.814   8.666
 3128POPC   C2B40664  42.032  34.848   8.272
 3128POPC   C3B40665  41.819  35.030   7.976
 3128POPC   C4B40666  41.722  35.192   7.612
 3129POPC   NC340667  43.827  10.320   9.514
 3129POPC   PO440668  44.300   9.996   9.339
 3129POPC   GL140669  43.918   9.937   9.106
 3129POPC   GL240670  43.758   9.614   9.170
 3129POPC   C1A40671  43.935   9.766   8.682
 3129POPC   D2A40672  44.103   9.643   8.301
 3129POPC   C3A40673  44.048   9.804   7.918
 3129POPC   C4A40674  43.930   9.627   7.551
 3129POPC   C1B40675  43.460   9.794   8.863
 3129POPC   C2B40676  43.497   9.854   8.418
 3129POPC   C3B40677  43.566   9.656   8.022
 3129POPC   C4B40678  43.519   9.907   7.663
 3130POPC   NC340679  30.324  23.305   9.462
 3130POPC   PO440680  30.853  23.632   9.505
 3130POPC   GL140681  30.782  23.464   9.130
 3130POPC   GL240682  31.085  23.309   9.083
 3130POPC   C1A40683  30.681  23.691   8.760
 3130POPC   D2A40684  30.522  23.928   8.424
 3130POPC   C3A40685  30.666  23.779   8.097
 3130POPC   C4A40686  30.606  23.798   7.712
 3130POPC   C1B40687  31.022  23.309   8.679
 3130POPC   C2B40688  30.753  23.359   8.367
 3130POPC   C3B40689  30.957  23.353   8.006
 3130POPC   C4B40690  30.719  23.308   7.662
 3131POPC   NC340691   3.151  35.169  10.000
 3131POPC   PO440692   3.614  35.491   9.595
 3131POPC   GL140693   3.527  35.251   9.208
 3131POPC   GL240694   3.207  35.093   9.321
 3131POPC   C1A40695   3.624  35.182   8.738
 3131POPC   D2A40696   3.802  35.447   8.405
 3131POPC   C3A40697   3.786  35.252   8.055
 3131POPC   C4A40698   3.611  35.026   7.764
 3131POPC   C1B40699   3.121  35.138   8.879
 3131POPC   C2B40700   3.211  35.026   8.455
 3131POPC   C3B40701   3.257  35.242   8.081
 3131POPC   C4B40702   3.136  35.090   7.692
 3132POPC   NC340703  14.647  31.681   9.393
 3132POPC   PO440704  14.568  31.029   9.616
 3132POPC   GL140705  14.330  31.271   9.215
 3132POPC   GL240706  14.222  31.670   9.118
 3132POPC   C1A40707  14.409  31.288   8.737
 3132POPC   D2A40708  14.734  31.518   8.452
 3132POPC   C3A40709  14.713  31.429   7.972
 3132POPC   C4A40710  14.686  31.552   7.494
 3132POPC   C1B40711  14.344  31.786   8.671
 3132POPC   C2B40712  14.253  31.584   8.248
 3132POPC   C3B40713  14.282  31.667   7.788
 3132POPC   C4B40714  14.194  31.471   7.360
 3133POPC   NC340715  41.366  34.473   9.430
 3133POPC   PO440716  42.023  34.456   9.271
 3133POPC   GL140717  41.628  34.655   9.043
 3133POPC   GL240718  41.280  34.843   9.099
 3133POPC   C1A40719  41.403  34.517   8.696
 3133POPC   D2A40720  41.663  34.453   8.356
 3133POPC   C3A40721  41.590  34.215   8.000
 3133POPC   C4A40722  41.685  34.575   7.775
 3133POPC   C1B40723  41.388  35.032   8.737
 3133POPC   C2B40724  41.459  34.919   8.338
 3133POPC   C3B40725  41.267  34.653   8.047
 3133POPC   C4B40726  41.266  34.894   7.669
 3134POPC   NC340727  33.681  13.167   9.492
 3134POPC   PO440728  33.430  12.491   9.484
 3134POPC   GL140729  33.667  12.778   9.182
 3134POPC   GL240730  34.002  12.769   9.100
 3134POPC   C1A40731  33.712  13.042   8.789
 3134POPC   D2A40732  33.672  12.850   8.402
 3134POPC   C3A40733  33.569  13.087   8.026
 3134POPC   C4A40734  33.661  12.925   7.632
 3134POPC   C1B40735  34.215  13.071   8.816
 3134POPC   C2B40736  34.182  12.985   8.362
 3134POPC   C3B40737  34.064  13.133   7.930
 3134POPC   C4B40738  34.144  13.087   7.473
 3135POPC   NC340739  14.666  28.132   9.874
 3135POPC   PO440740  14.205  28.575   9.699
 3135POPC   GL140741  14.332  28.418   9.240
 3135POPC   GL240742  14.047  28.361   9.026
 3135POPC   C1A40743  14.577  28.460   8.804
 3135POPC   D2A40744  14.870  28.433   8.402
 3135POPC   C3A40745  14.644  28.436   7.976
 3135POPC   C4A40746  14.334  28.154   7.748
 3135POPC   C1B40747  14.085  28.563   8.634
 3135POPC   C2B40748  14.173  28.410   8.219
 3135POPC   C3B40749  14.119  28.603   7.832
 3135POPC   C4B40750  14.023  28.521   7.384
 3136POPC   NC340751  39.680  34.058   9.381
 3136POPC   PO440752  39.040  33.967   9.493
 3136POPC   GL140753  39.259  33.827   9.160
 3136POPC   GL240754  39.348  34.107   8.966
 3136POPC   C1A40755  39.391  33.619   8.789
 3136POPC   D2A40756  39.266  33.826   8.412
 3136POPC   C3A40757  39.434  33.654   8.001
 3136POPC   C4A40758  39.522  33.895   7.630
 3136POPC   C1B40759  38.970  34.178   8.728
 3136POPC   C2B40760  38.828  34.078   8.309
 3136POPC   C3B40761  38.947  34.061   7.872
 3136POPC   C4B40762  38.912  33.991   7.413
 3137POPC   NC340763  37.244  26.079   9.392
 3137POPC   PO440764  36.638  26.417   9.586
 3137POPC   GL140765  36.738  26.226   9.189
 3137POPC   GL240766  37.004  26.416   9.111
 3137POPC   C1A40767  36.856  25.937   8.840
 3137POPC   D2A40768  36.866  25.640   8.502
 3137POPC   C3A40769  36.841  25.800   8.077
 3137POPC   C4A40770  36.442  25.864   7.853
 3137POPC   C1B40771  36.818  26.432   8.728
 3137POPC   C2B40772  36.835  26.225   8.351
 3137POPC   C3B40773  36.909  26.372   7.940
 3137POPC   C4B40774  37.201  26.321   7.618
 3138POPC   NC340775  42.992   0.928   9.488
 3138POPC   PO440776  43.369   1.481   9.426
 3138POPC   GL140777  43.023   1.325   9.170
 3138POPC   GL240778  42.958   1.657   9.025
 3138POPC   C1A40779  42.996   0.989   8.819
 3138POPC   D2A40780  42.887   0.787   8.422
 3138POPC   C3A40781  43.094   0.900   8.060
 3138POPC   C4A40782  43.057   1.118   7.714
 3138POPC   C1B40783  43.269   1.420   8.745
 3138POPC   C2B40784  43.033   1.300   8.408
 3138POPC   C3B40785  43.013   1.489   8.050
 3138POPC   C4B40786  43.343   1.527   7.777
 3139POPC   NC340787  14.922   2.119   9.399
 3139POPC   PO440788  15.434   1.712   9.436
 3139POPC   GL140789  15.218   1.811   9.101
 3139POPC   GL240790  15.353   2.160   9.107
 3139POPC   C1A40791  14.937   1.688   8.759
 3139POPC   D2A40792  14.934   1.822   8.313
 3139POPC   C3A40793  15.139   1.663   7.941
 3139POPC   C4A40794  15.017   1.706   7.473
 3139POPC   C1B40795  15.221   2.103   8.684
 3139POPC   C2B40796  15.448   2.009   8.334
 3139POPC   C3B40797  15.223   2.170   8.061
 3139POPC   C4B40798  15.277   2.094   7.688
 3140POPC   NC340799   3.363  39.154   9.577
 3140POPC   PO440800   3.631  38.614   9.531
 3140POPC   GL140801   3.622  38.942   9.201
 3140POPC   GL240802   3.290  38.771   9.164
 3140POPC   C1A40803   3.633  39.308   8.849
 3140POPC   D2A40804   3.541  39.471   8.409
 3140POPC   C3A40805   3.728  39.397   8.016
 3140POPC   C4A40806   3.548  39.336   7.616
 3140POPC   C1B40807   3.168  39.055   8.862
 3140POPC   C2B40808   3.261  39.045   8.434
 3140POPC   C3B40809   3.234  39.251   8.044
 3140POPC   C4B40810   3.085  39.017   7.737
 3141POPC   NC340811  39.634  13.723   9.586
 3141POPC   PO440812  38.927  13.860   9.404
 3141POPC   GL140813  39.072  13.635   9.082
 3141POPC   GL240814  39.397  13.657   9.155
 3141POPC   C1A40815  38.955  13.689   8.682
 3141POPC   D2A40816  39.174  13.562   8.346
 3141POPC   C3A40817  39.044  13.573   7.971
 3141POPC   C4A40818  39.311  13.481   7.620
 3141POPC   C1B40819  39.468  13.602   8.753
 3141POPC   C2B40820  39.577  13.854   8.413
 3141POPC   C3B40821  39.583  13.706   7.985
 3141POPC   C4B40822  39.841  13.514   7.621
 3142POPC   NC340823  41.346  27.588   9.540
 3142POPC   PO440824  41.930  27.129   9.413
 3142POPC   GL140825  41.842  27.428   9.070
 3142POPC   GL240826  41.538  27.671   9.073
 3142POPC   C1A40827  41.672  27.426   8.650
 3142POPC   D2A40828  41.641  27.866   8.457
 3142POPC   C3A40829  41.699  27.873   7.995
 3142POPC   C4A40830  41.717  27.460   7.797
 3142POPC   C1B40831  41.199  27.607   8.740
 3142POPC   C2B40832  41.085  27.314   8.353
 3142POPC   C3B40833  41.237  27.244   7.901
 3142POPC   C4B40834  41.272  27.586   7.583
 3143POPC   NC340835  17.426  32.570   9.569
 3143POPC   PO440836  17.866  32.137   9.628
 3143POPC   GL140837  17.749  32.342   9.244
 3143POPC   GL240838  17.379  32.228   9.163
 3143POPC   C1A40839  17.768  32.246   8.835
 3143POPC   D2A40840  17.474  32.204   8.524
 3143POPC   C3A40841  17.628  32.275   8.129
 3143POPC   C4A40842  17.423  32.295   7.738
 3143POPC   C1B40843  17.098  31.936   8.929
 3143POPC   C2B40844  17.088  31.852   8.512
 3143POPC   C3B40845  17.145  32.084   8.155
 3143POPC   C4B40846  17.003  32.033   7.797
 3144POPC   NC340847   7.253  18.637   9.518
 3144POPC   PO440848   7.629  19.212   9.441
 3144POPC   GL140849   7.614  18.958   9.112
 3144POPC   GL240850   7.263  18.950   9.131
 3144POPC   C1A40851   7.656  18.936   8.679
 3144POPC   D2A40852   7.383  18.899   8.335
 3144POPC   C3A40853   7.589  18.811   7.975
 3144POPC   C4A40854   7.429  18.996   7.636
 3144POPC   C1B40855   7.142  19.239   8.843
 3144POPC   C2B40856   7.143  19.456   8.467
 3144POPC   C3B40857   7.128  19.263   8.060
 3144POPC   C4B40858   7.018  19.339   7.633
 3145POPC   NC340859  33.866   9.292   9.470
 3145POPC   PO440860  33.448   8.801   9.586
 3145POPC   GL140861  33.698   8.882   9.188
 3145POPC   GL240862  33.628   9.230   9.049
 3145POPC   C1A40863  33.919   8.899   8.777
 3145POPC   D2A40864  33.947   9.035   8.340
 3145POPC   C3A40865  33.789   8.815   7.947
 3145POPC   C4A40866  33.761   9.040   7.512
 3145POPC   C1B40867  33.642   9.446   8.667
 3145POPC   C2B40868  33.834   9.547   8.303
 3145POPC   C3B40869  33.773   9.343   7.938
 3145POPC   C4B40870  33.380   9.157   7.804
 3146POPC   NC340871  30.354  12.727   9.766
 3146POPC   PO440872  30.948  12.984   9.380
 3146POPC   GL140873  30.832  12.660   9.219
 3146POPC   GL240874  30.494  12.793   9.272
 3146POPC   C1A40875  30.881  12.551   8.799
 3146POPC   D2A40876  30.902  12.875   8.492
 3146POPC   C3A40877  30.952  12.707   8.107
 3146POPC   C4A40878  30.736  12.648   7.757
 3146POPC   C1B40879  30.506  12.933   8.856
 3146POPC   C2B40880  30.378  13.091   8.466
 3146POPC   C3B40881  30.359  12.840   8.114
 3146POPC   C4B40882  30.397  13.014   7.737
 3147POPC   NC340883  13.229   4.976   9.885
 3147POPC   PO440884  12.813   4.813   9.317
 3147POPC   GL140885  12.921   5.123   9.037
 3147POPC   GL240886  13.229   5.287   9.062
 3147POPC   C1A40887  12.773   5.160   8.627
 3147POPC   D2A40888  12.603   5.081   8.216
 3147POPC   C3A40889  12.814   4.927   7.870
 3147POPC   C4A40890  12.719   5.247   7.614
 3147POPC   C1B40891  13.217   5.516   8.673
 3147POPC   C2B40892  12.932   5.551   8.331
 3147POPC   C3B40893  13.072   5.381   7.949
 3147POPC   C4B40894  13.427   5.305   7.709
 3148POPC   NC340895  19.226  17.082   9.472
 3148POPC   PO440896  19.345  16.482   9.523
 3148POPC   GL140897  19.127  16.662   9.158
 3148POPC   GL240898  18.838  16.859   9.243
 3148POPC   C1A40899  19.049  16.673   8.717
 3148POPC   D2A40900  18.907  16.683   8.319
 3148POPC   C3A40901  19.268  16.570   8.088
 3148POPC   C4A40902  19.251  16.822   7.750
 3148POPC   C1B40903  18.836  17.096   8.861
 3148POPC   C2B40904  18.568  17.037   8.522
 3148POPC   C3B40905  18.560  17.034   8.093
 3148POPC   C4B40906  18.684  16.972   7.697
 3149POPC   NC340907   1.003  42.595   9.522
 3149POPC   PO440908   1.608  42.225   9.504
 3149POPC   GL140909   1.309  42.360   9.172
 3149POPC   GL240910   1.083  42.133   9.140
 3149POPC   C1A40911   1.129  42.626   8.819
 3149POPC   D2A40912   1.042  42.495   8.366
 3149POPC   C3A40913   1.154  42.696   7.969
 3149POPC   C4A40914   1.228  42.678   7.496
 3149POPC   C1B40915   0.832  42.026   8.820
 3149POPC   C2B40916   0.746  42.037   8.408
 3149POPC   C3B40917   0.875  42.010   8.014
 3149POPC   C4B40918   0.991  42.291   7.696
 3150POPC   NC340919  39.350  21.244   9.571
 3150POPC   PO440920  38.855  21.706   9.704
 3150POPC   GL140921  39.082  21.753   9.253
 3150POPC   GL240922  39.251  21.441   9.121
 3150POPC   C1A40923  39.211  21.775   8.764
 3150POPC   D2A40924  39.346  21.510   8.388
 3150POPC   C3A40925  39.453  21.594   7.967
 3150POPC   C4A40926  39.188  21.763   7.657
 3150POPC   C1B40927  39.453  21.225   8.789
 3150POPC   C2B40928  39.397  20.973   8.412
 3150POPC   C3B40929  39.325  21.082   7.963
 3150POPC   C4B40930  39.159  21.276   7.553
 3151POPC   NC340931  36.209   6.169   9.577
 3151POPC   PO440932  35.627   5.986   9.380
 3151POPC   GL140933  35.997   6.017   9.111
 3151POPC   GL240934  36.193   5.753   9.233
 3151POPC   C1A40935  36.089   5.992   8.651
 3151POPC   D2A40936  36.167   6.282   8.338
 3151POPC   C3A40937  36.342   6.088   7.975
 3151POPC   C4A40938  36.039   6.114   7.686
 3151POPC   C1B40939  35.964   5.557   8.872
 3151POPC   C2B40940  36.166   5.503   8.458
 3151POPC   C3B40941  36.008   5.501   8.038
 3151POPC   C4B40942  36.238   5.658   7.665
 3152POPC   NC340943  13.554  19.125   9.520
 3152POPC   PO440944  14.046  18.769   9.546
 3152POPC   GL140945  13.847  18.860   9.188
 3152POPC   GL240946  13.574  18.666   9.182
 3152POPC   C1A40947  13.771  19.233   8.897
 3152POPC   D2A40948  13.549  19.274   8.509
 3152POPC   C3A40949  13.830  19.165   8.181
 3152POPC   C4A40950  14.001  19.117   7.796
 3152POPC   C1B40951  13.603  18.776   8.720
 3152POPC   C2B40952  13.465  18.811   8.272
 3152POPC   C3B40953  13.543  18.882   7.823
 3152POPC   C4B40954  13.457  18.657   7.426
 3153POPC   NC340955  19.682  24.778   9.338
 3153POPC   PO440956  20.180  24.421   9.487
 3153POPC   GL140957  19.965  24.353   9.123
 3153POPC   GL240958  20.007  24.675   8.974
 3153POPC   C1A40959  19.711  24.315   8.745
 3153POPC   D2A40960  19.873  24.334   8.311
 3153POPC   C3A40961  19.613  24.456   8.016
 3153POPC   C4A40962  19.353  24.100   7.927
 3153POPC   C1B40963  19.787  24.792   8.598
 3153POPC   C2B40964  20.164  24.720   8.366
 3153POPC   C3B40965  20.267  24.701   7.945
 3153POPC   C4B40966  19.984  24.551   7.634
 3154POPC   NC340967  11.877  39.595   9.872
 3154POPC   PO440968  12.396  39.250   9.542
 3154POPC   GL140969  12.112  39.066   9.168
 3154POPC   GL240970  12.288  38.843   9.060
 3154POPC   C1A40971  12.057  39.229   8.751
 3154POPC   D2A40972  12.233  39.328   8.350
 3154POPC   C3A40973  12.070  39.151   7.966
 3154POPC   C4A40974  11.783  39.033   7.654
 3154POPC   C1B40975  12.507  38.935   8.672
 3154POPC   C2B40976  12.393  38.852   8.247
 3154POPC   C3B40977  12.532  38.996   7.831
 3154POPC   C4B40978  12.337  39.087   7.439
 3155POPC   NC340979  41.253  24.330   9.211
 3155POPC   PO440980  40.710  23.818   9.480
 3155POPC   GL140981  40.614  23.614   9.109
 3155POPC   GL240982  40.882  23.392   9.172
 3155POPC   C1A40983  40.591  23.642   8.665
 3155POPC   D2A40984  40.792  23.736   8.300
 3155POPC   C3A40985  40.582  23.619   7.959
 3155POPC   C4A40986  40.842  23.716   7.641
 3155POPC   C1B40987  41.065  23.473   8.755
 3155POPC   C2B40988  41.213  23.437   8.322
 3155POPC   C3B40989  41.047  23.344   7.929
 3155POPC   C4B40990  41.236  23.366   7.555
 3156POPC   NC340991   0.055  44.983   9.475
 3156POPC   PO440992   0.059   0.663   9.665
 3156POPC   GL140993  44.802   0.447   9.327
 3156POPC   GL240994   0.062   0.411   9.096
 3156POPC   C1A40995  44.549   0.300   8.933
 3156POPC   D2A40996  44.655   0.385   8.481
 3156POPC   C3A40997  44.453   0.265   8.091
 3156POPC   C4A40998  44.335   0.412   7.662
 3156POPC   C1B40999   0.002   0.094   8.794
 3156POPC   C2B41000   0.134   0.143   8.393
 3156POPC   C3B41001  44.963   0.335   8.045
 3156POPC   C4B41002  44.824   0.298   7.649
 3157POPC   NC341003  34.704   2.457   9.709
 3157POPC   PO441004  34.519   3.119   9.672
 3157POPC   GL141005  34.598   2.823   9.258
 3157POPC   GL241006  34.302   2.868   8.948
 3157POPC   C1A41007  34.758   2.714   8.821
 3157POPC   D2A41008  34.563   2.849   8.445
 3157POPC   C3A41009  34.754   2.736   8.062
 3157POPC   C4A41010  34.922   2.846   7.674
 3157POPC   C1B41011  34.140   2.522   8.689
 3157POPC   C2B41012  34.384   2.363   8.371
 3157POPC   C3B41013  34.257   2.602   8.063
 3157POPC   C4B41014  34.425   2.637   7.683
 3158POPC   NC341015  40.344  38.226   9.422
 3158POPC   PO441016  39.689  38.309   9.514
 3158POPC   GL141017  39.813  38.501   9.131
 3158POPC   GL241018  40.169  38.514   9.023
 3158POPC   C1A41019  39.772  38.567   8.696
 3158POPC   D2A41020  40.125  38.667   8.479
 3158POPC   C3A41021  40.034  38.635   8.089
 3158POPC   C4A41022  39.717  38.525   7.786
 3158POPC   C1B41023  40.152  38.178   8.676
 3158POPC   C2B41024  40.274  38.170   8.210
 3158POPC   C3B41025  40.246  38.345   7.734
 3158POPC   C4B41026  40.364  38.287   7.247
 3159POPC   NC341027   0.771  38.417   9.570
 3159POPC   PO441028   1.335  38.821   9.576
 3159POPC   GL141029   1.359  38.404   9.289
 3159POPC   GL241030   1.142  38.388   9.027
 3159POPC   C1A41031   1.565  38.136   8.944
 3159POPC   D2A41032   1.295  38.190   8.553
 3159POPC   C3A41033   1.429  38.126   8.121
 3159POPC   C4A41034   1.589  38.286   7.737
 3159POPC   C1B41035   0.994  38.663   8.677
 3159POPC   C2B41036   0.932  38.751   8.228
 3159POPC   C3B41037   1.161  38.556   7.891
 3159POPC   C4B41038   1.047  38.146   7.748
 3160POPC   NC341039  44.406   6.530   9.467
 3160POPC   PO441040   0.028   6.721   9.670
 3160POPC   GL141041  44.832   6.712   9.205
 3160POPC   GL241042  44.553   6.962   9.155
 3160POPC   C1A41043  44.690   6.400   8.823
 3160POPC   D2A41044  44.739   6.152   8.450
 3160POPC   C3A41045  44.552   6.299   8.072
 3160POPC   C4A41046  44.732   6.450   7.724
 3160POPC   C1B41047  44.715   6.874   8.706
 3160POPC   C2B41048  44.437   6.702   8.370
 3160POPC   C3B41049  44.466   6.847   7.935
 3160POPC   C4B41050  44.817   7.130   7.846
 3161POPC   NC341051  41.426   1.608   9.374
 3161POPC   PO441052  41.623   2.217   9.621
 3161POPC   GL141053  41.588   2.073   9.165
 3161POPC   GL241054  41.849   1.832   9.127
 3161POPC   C1A41055  41.824   2.157   8.740
 3161POPC   D2A41056  41.770   2.031   8.295
 3161POPC   C3A41057  41.524   2.208   7.949
 3161POPC   C4A41058  41.408   1.995   7.561
 3161POPC   C1B41059  41.678   1.677   8.728
 3161POPC   C2B41060  41.615   1.537   8.295
 3161POPC   C3B41061  41.691   1.708   7.871
 3161POPC   C4B41062  41.558   1.521   7.445
 3162POPC   NC341063  37.208  11.618   9.395
 3162POPC   PO441064  36.886  11.085   9.549
 3162POPC   GL141065  37.157  11.156   9.186
 3162POPC   GL241066  36.839  11.278   9.053
 3162POPC   C1A41067  37.240  11.392   8.794
 3162POPC   D2A41068  37.284  11.353   8.375
 3162POPC   C3A41069  36.964  11.447   8.077
 3162POPC   C4A41070  37.120  11.328   7.667
 3162POPC   C1B41071  36.765  11.487   8.654
 3162POPC   C2B41072  36.528  11.638   8.331
 3162POPC   C3B41073  36.353  11.460   7.990
 3162POPC   C4B41074  36.624  11.493   7.671
 3163POPC   NC341075  25.834  31.932   9.462
 3163POPC   PO441076  26.269  32.421   9.379
 3163POPC   GL141077  26.091  32.192   9.080
 3163POPC   GL241078  26.227  31.866   9.117
 3163POPC   C1A41079  26.015  32.245   8.667
 3163POPC   D2A41080  26.165  32.372   8.314
 3163POPC   C3A41081  25.958  32.237   8.000
 3163POPC   C4A41082  26.048  31.964   7.663
 3163POPC   C1B41083  25.870  31.780   8.815
 3163POPC   C2B41084  25.674  31.926   8.409
 3163POPC   C3B41085  25.696  31.757   7.983
 3163POPC   C4B41086  25.529  31.815   7.566
 3164POPC   NC341087  42.776  33.439   9.483
 3164POPC   PO441088  42.032  33.584   9.474
 3164POPC   GL141089  42.396  33.614   9.174
 3164POPC   GL241090  42.594  33.302   9.045
 3164POPC   C1A41091  42.415  33.845   8.788
 3164POPC   D2A41092  42.155  33.899   8.454
 3164POPC   C3A41093  42.436  33.859   8.116
 3164POPC   C4A41094  42.557  33.955   7.689
 3164POPC   C1B41095  42.283  33.353   8.744
 3164POPC   C2B41096  42.258  33.430   8.330
 3164POPC   C3B41097  42.168  33.483   7.896
 3164POPC   C4B41098  42.355  33.374   7.547
 3165POPC   NC341099  17.452  15.581   9.485
 3165POPC   PO441100  17.530  14.987   9.273
 3165POPC   GL141101  17.491  15.383   9.029
 3165POPC   GL241102  17.848  15.458   9.152
 3165POPC   C1A41103  17.381  15.390   8.586
 3165POPC   D2A41104  17.424  14.942   8.443
 3165POPC   C3A41105  17.562  14.874   8.028
 3165POPC   C4A41106  17.521  15.052   7.610
 3165POPC   C1B41107  17.858  15.214   8.755
 3165POPC   C2B41108  17.816  15.298   8.338
 3165POPC   C3B41109  17.636  15.392   7.977
 3165POPC   C4B41110  17.996  15.375   7.724
 3166POPC   NC341111  38.617  29.949   9.516
 3166POPC   PO441112  37.987  30.064   9.624
 3166POPC   GL141113  38.207  30.016   9.174
 3166POPC   GL241114  38.522  30.097   9.059
 3166POPC   C1A41115  38.274  29.806   8.743
 3166POPC   D2A41116  38.490  29.789   8.336
 3166POPC   C3A41117  38.258  29.827   7.966
 3166POPC   C4A41118  38.060  30.165   7.738
 3166POPC   C1B41119  38.739  30.075   8.684
 3166POPC   C2B41120  38.894  30.100   8.264
 3166POPC   C3B41121  38.810  29.818   7.914
 3166POPC   C4B41122  38.923  30.060   7.554
 3167POPC   NC341123  20.889  32.049   9.693
 3167POPC   PO441124  20.344  32.451   9.533
 3167POPC   GL141125  20.416  32.218   9.165
 3167POPC   GL241126  20.253  31.892   9.211
 3167POPC   C1A41127  20.545  32.220   8.733
 3167POPC   D2A41128  20.932  32.165   8.495
 3167POPC   C3A41129  20.952  32.522   8.232
 3167POPC   C4A41130  20.868  32.481   7.810
 3167POPC   C1B41131  20.232  31.810   8.757
 3167POPC   C2B41132  20.543  31.818   8.398
 3167POPC   C3B41133  20.629  32.072   8.021
 3167POPC   C4B41134  20.280  32.355   7.925
 3168POPC   NC341135  31.902   6.131   9.594
 3168POPC   PO441136  31.605   6.615   9.574
 3168POPC   GL141137  31.523   6.722   9.122
 3168POPC   GL241138  31.172   6.869   9.055
 3168POPC   C1A41139  31.477   6.715   8.669
 3168POPC   D2A41140  31.602   6.932   8.319
 3168POPC   C3A41141  31.596   6.676   7.944
 3168POPC   C4A41142  31.469   6.441   7.596
 3168POPC   C1B41143  30.897   7.062   8.726
 3168POPC   C2B41144  31.095   7.054   8.329
 3168POPC   C3B41145  31.087   6.801   8.001
 3168POPC   C4B41146  31.206   6.861   7.626
 3169POPC   NC341147  44.257   3.085   9.813
 3169POPC   PO441148  44.697   3.521   9.445
 3169POPC   GL141149  44.612   3.414   9.076
 3169POPC   GL241150  44.951   3.369   8.960
 3169POPC   C1A41151  44.331   3.387   8.754
 3169POPC   D2A41152  44.609   3.430   8.440
 3169POPC   C3A41153  44.468   3.447   8.030
 3169POPC   C4A41154  44.596   3.238   7.635
 3169POPC   C1B41155   0.053   3.632   8.602
 3169POPC   C2B41156  44.859   3.801   8.216
 3169POPC   C3B41157  44.810   3.708   7.749
 3169POPC   C4B41158  44.889   3.858   7.310
 3170POPC   NC341159   2.199  25.591   9.303
 3170POPC   PO441160   1.898  26.172   9.440
 3170POPC   GL141161   2.102  26.037   9.083
 3170POPC   GL241162   2.398  26.136   9.241
 3170POPC   C1A41163   2.014  25.891   8.664
 3170POPC   D2A41164   1.944  26.092   8.265
 3170POPC   C3A41165   1.957  25.976   7.824
 3170POPC   C4A41166   1.714  25.858   7.478
 3170POPC   C1B41167   2.440  26.340   8.839
 3170POPC   C2B41168   2.470  26.288   8.408
 3170POPC   C3B41169   2.348  26.279   7.993
 3170POPC   C4B41170   2.349  26.219   7.556
 3171POPC   NC341171  27.346  41.633   9.432
 3171POPC   PO441172  27.712  41.154   9.553
 3171POPC   GL141173  27.511  41.243   9.155
 3171POPC   GL241174  27.758  41.527   9.127
 3171POPC   C1A41175  27.532  41.308   8.695
 3171POPC   D2A41176  27.864  41.455   8.420
 3171POPC   C3A41177  27.776  41.480   7.991
 3171POPC   C4A41178  27.440  41.414   7.763
 3171POPC   C1B41179  27.708  41.799   8.763
 3171POPC   C2B41180  27.435  41.745   8.399
 3171POPC   C3B41181  27.359  41.874   7.987
 3171POPC   C4B41182  27.346  41.867   7.546
 3172POPC   NC341183  14.463  24.162   9.659
 3172POPC   PO441184  14.651  23.522   9.604
 3172POPC   GL141185  14.612  23.772   9.255
 3172POPC   GL241186  14.882  23.649   9.073
 3172POPC   C1A41187  14.343  23.702   8.898
 3172POPC   D2A41188  14.257  23.460   8.523
 3172POPC   C3A41189  14.106  23.770   8.164
 3172POPC   C4A41190  14.288  23.854   7.775
 3172POPC   C1B41191  14.801  23.957   8.774
 3172POPC   C2B41192  14.521  23.888   8.439
 3172POPC   C3B41193  14.563  23.562   8.113
 3172POPC   C4B41194  14.771  23.596   7.735
 3173POPC   NC341195   2.100   9.109   9.541
 3173POPC   PO441196   1.620   9.466   9.204
 3173POPC   GL141197   1.791   9.085   9.072
 3173POPC   GL241198   2.108   8.899   9.084
 3173POPC   C1A41199   1.803   8.918   8.670
 3173POPC   D2A41200   1.687   8.746   8.286
 3173POPC   C3A41201   1.838   8.953   7.936
 3173POPC   C4A41202   1.577   9.162   7.634
 3173POPC   C1B41203   2.324   9.048   8.752
 3173POPC   C2B41204   2.219   8.920   8.353
 3173POPC   C3B41205   2.436   8.949   7.992
 3173POPC   C4B41206   2.335   8.876   7.618
 3174POPC   NC341207   5.458  22.392   9.491
 3174POPC   PO441208   6.011  21.991   9.737
 3174POPC   GL141209   5.908  22.199   9.287
 3174POPC   GL241210   5.901  21.871   9.094
 3174POPC   C1A41211   5.921  22.311   8.823
 3174POPC   D2A41212   5.852  22.118   8.398
 3174POPC   C3A41213   5.808  22.334   7.976
 3174POPC   C4A41214   6.067  22.460   7.573
 3174POPC   C1B41215   6.243  21.901   8.793
 3174POPC   C2B41216   6.367  21.817   8.379
 3174POPC   C3B41217   6.183  21.972   8.017
 3174POPC   C4B41218   5.875  21.940   7.680
 3175POPC   NC341219  28.641  32.459   9.341
 3175POPC   PO441220  27.998  32.449   9.625
 3175POPC   GL141221  28.003  32.241   9.212
 3175POPC   GL241222  28.201  32.484   9.088
 3175POPC   C1A41223  28.016  32.221   8.726
 3175POPC   D2A41224  28.135  32.451   8.374
 3175POPC   C3A41225  28.155  32.293   7.967
 3175POPC   C4A41226  28.336  32.605   7.713
 3175POPC   C1B41227  28.514  32.298   8.731
 3175POPC   C2B41228  28.721  32.285   8.320
 3175POPC   C3B41229  28.761  32.361   7.880
 3175POPC   C4B41230  28.864  32.046   7.578
 3176POPC   NC341231  39.168   9.580   9.730
 3176POPC   PO441232  39.103  10.202   9.458
 3176POPC   GL141233  39.125   9.833   9.164
 3176POPC   GL241234  39.206   9.484   9.226
 3176POPC   C1A41235  39.008   9.683   8.751
 3176POPC   D2A41236  38.856   9.846   8.385
 3176POPC   C3A41237  39.099   9.683   8.026
 3176POPC   C4A41238  39.156   9.624   7.561
 3176POPC   C1B41239  39.493   9.578   8.861
 3176POPC   C2B41240  39.428   9.576   8.395
 3176POPC   C3B41241  39.559   9.444   7.943
 3176POPC   C4B41242  39.599   9.394   7.471
 3177POPC   NC341243   7.015  36.934   9.703
 3177POPC   PO441244   6.609  36.662   9.209
 3177POPC   GL141245   6.454  37.014   9.071
 3177POPC   GL241246   6.814  37.159   9.131
 3177POPC   C1A41247   6.388  36.952   8.600
 3177POPC   D2A41248   6.635  36.650   8.326
 3177POPC   C3A41249   6.632  36.643   7.885
 3177POPC   C4A41250   6.773  36.632   7.492
 3177POPC   C1B41251   6.890  36.974   8.715
 3177POPC   C2B41252   7.082  36.927   8.309
 3177POPC   C3B41253   6.877  37.071   7.955
 3177POPC   C4B41254   6.505  37.063   7.619
 3178POPC   NC341255  33.976  39.454   9.427
 3178POPC   PO441256  33.333  39.348   9.476
 3178POPC   GL141257  33.462  39.226   9.100
 3178POPC   GL241258  33.779  39.239   9.008
 3178POPC   C1A41259  33.421  39.412   8.705
 3178POPC   D2A41260  33.449  39.492   8.279
 3178POPC   C3A41261  33.598  39.151   8.043
 3178POPC   C4A41262  33.758  39.328   7.683
 3178POPC   C1B41263  33.964  39.162   8.610
 3178POPC   C2B41264  34.345  39.287   8.376
 3178POPC   C3B41265  34.241  39.293   7.940
 3178POPC   C4B41266  34.040  38.918   7.806
 3179POPC   NC341267  16.483  15.348   9.565
 3179POPC   PO441268  16.905  14.806   9.570
 3179POPC   GL141269  16.863  15.127   9.269
 3179POPC   GL241270  16.543  15.097   9.121
 3179POPC   C1A41271  16.999  15.187   8.860
 3179POPC   D2A41272  16.911  15.039   8.459
 3179POPC   C3A41273  17.139  15.207   8.112
 3179POPC   C4A41274  17.011  15.176   7.716
 3179POPC   C1B41275  16.403  15.004   8.732
 3179POPC   C2B41276  16.414  15.150   8.348
 3179POPC   C3B41277  16.632  15.000   8.027
 3179POPC   C4B41278  16.500  15.138   7.658
 3180POPC   NC341279   5.147  14.537   9.620
 3180POPC   PO441280   4.956  14.073   9.265
 3180POPC   GL141281   5.076  14.441   9.111
 3180POPC   GL241282   5.419  14.524   9.198
 3180POPC   C1A41283   5.095  14.372   8.699
 3180POPC   D2A41284   4.915  14.450   8.336
 3180POPC   C3A41285   5.134  14.228   8.044
 3180POPC   C4A41286   4.997  14.525   7.786
 3180POPC   C1B41287   5.492  14.683   8.806
 3180POPC   C2B41288   5.460  14.498   8.386
 3180POPC   C3B41289   5.478  14.613   8.005
 3180POPC   C4B41290   5.475  14.435   7.614
 3181POPC   NC341291   3.411   0.872   9.293
 3181POPC   PO441292   3.878   1.325   9.564
 3181POPC   GL141293   3.706   1.231   9.144
 3181POPC   GL241294   3.364   1.396   9.208
 3181POPC   C1A41295   3.597   1.071   8.699
 3181POPC   D2A41296   3.665   1.277   8.316
 3181POPC   C3A41297   3.628   1.035   7.932
 3181POPC   C4A41298   3.313   0.755   7.800
 3181POPC   C1B41299   3.476   1.561   8.815
 3181POPC   C2B41300   3.318   1.640   8.429
 3181POPC   C3B41301   3.434   1.607   8.016
 3181POPC   C4B41302   3.640   1.476   7.671
 3182POPC   NC341303  22.827   7.981   9.588
 3182POPC   PO441304  23.284   8.404   9.441
 3182POPC   GL141305  22.965   8.278   9.171
 3182POPC   GL241306  22.808   7.947   9.090
 3182POPC   C1A41307  22.971   8.427   8.780
 3182POPC   D2A41308  23.146   8.322   8.400
 3182POPC   C3A41309  22.847   8.291   8.085
 3182POPC   C4A41310  22.917   8.409   7.687
 3182POPC   C1B41311  23.083   7.913   8.750
 3182POPC   C2B41312  23.167   7.794   8.326
 3182POPC   C3B41313  23.072   7.859   7.901
 3182POPC   C4B41314  23.236   7.750   7.525
 3183POPC   NC341315  28.146  41.014   9.485
 3183POPC   PO441316  28.673  40.674   9.552
 3183POPC   GL141317  28.436  40.744   9.172
 3183POPC   GL241318  28.410  41.123   9.058
 3183POPC   C1A41319  28.313  40.724   8.755
 3183POPC   D2A41320  28.508  40.893   8.398
 3183POPC   C3A41321  28.370  40.665   8.084
 3183POPC   C4A41322  28.366  40.413   7.734
 3183POPC   C1B41323  28.004  41.115   8.807
 3183POPC   C2B41324  27.985  40.961   8.364
 3183POPC   C3B41325  28.167  41.146   8.008
 3183POPC   C4B41326  28.162  41.295   7.561
 3184POPC   NC341327  43.732  40.262   9.464
 3184POPC   PO441328  44.341  40.039   9.524
 3184POPC   GL141329  44.222  40.190   9.116
 3184POPC   GL241330  43.894  40.152   9.017
 3184POPC   C1A41331  44.195  40.006   8.659
 3184POPC   D2A41332  43.996  39.786   8.334
 3184POPC   C3A41333  44.112  40.006   8.003
 3184POPC   C4A41334  43.965  39.871   7.665
 3184POPC   C1B41335  43.683  39.909   8.718
 3184POPC   C2B41336  43.420  40.008   8.393
 3184POPC   C3B41337  43.587  40.020   8.019
 3184POPC   C4B41338  43.478  40.296   7.711
 3185POPC   NC341339  26.407   3.346   9.655
 3185POPC   PO441340  26.004   3.842   9.449
 3185POPC   GL141341  26.130   3.595   9.149
 3185POPC   GL241342  25.927   3.376   9.057
 3185POPC   C1A41343  26.026   3.730   8.706
 3185POPC   D2A41344  25.840   3.768   8.287
 3185POPC   C3A41345  26.074   3.613   7.923
 3185POPC   C4A41346  26.011   3.422   7.498
 3185POPC   C1B41347  25.957   3.208   8.654
 3185POPC   C2B41348  25.857   3.187   8.201
 3185POPC   C3B41349  26.163   3.099   7.874
 3185POPC   C4B41350  26.473   3.379   7.673
 3186POPC   NC341351   0.295   9.374   9.447
 3186POPC   PO441352   0.169   8.736   9.703
 3186POPC   GL141353   0.241   8.884   9.228
 3186POPC   GL241354   0.551   9.108   9.064
 3186POPC   C1A41355   0.202   8.937   8.770
 3186POPC   D2A41356   0.398   9.157   8.466
 3186POPC   C3A41357   0.244   9.062   8.090
 3186POPC   C4A41358   0.429   9.078   7.687
 3186POPC   C1B41359   0.684   8.797   8.716
 3186POPC   C2B41360   0.780   8.818   8.288
 3186POPC   C3B41361   0.738   8.693   7.873
 3186POPC   C4B41362   0.720   8.760   7.411
 3187POPC   NC341363  34.089  17.551   9.485
 3187POPC   PO441364  34.761  17.567   9.476
 3187POPC   GL141365  34.544  17.419   9.117
 3187POPC   GL241366  34.219  17.215   9.125
 3187POPC   C1A41367  34.757  17.501   8.705
 3187POPC   D2A41368  34.608  17.648   8.345
 3187POPC   C3A41369  34.819  17.710   7.979
 3187POPC   C4A41370  34.812  17.925   7.600
 3187POPC   C1B41371  34.424  17.098   8.737
 3187POPC   C2B41372  34.359  17.220   8.351
 3187POPC   C3B41373  34.478  17.326   7.942
 3187POPC   C4B41374  34.292  17.298   7.557
 3188POPC   NC341375  15.286  20.880   9.574
 3188POPC   PO441376  14.974  20.298   9.571
 3188POPC   GL141377  15.117  20.581   9.210
 3188POPC   GL241378  15.456  20.811   9.103
 3188POPC   C1A41379  15.098  20.570   8.801
 3188POPC   D2A41380  15.232  20.498   8.412
 3188POPC   C3A41381  15.011  20.566   8.045
 3188POPC   C4A41382  15.125  20.472   7.648
 3188POPC   C1B41383  15.314  21.011   8.700
 3188POPC   C2B41384  15.444  20.931   8.290
 3188POPC   C3B41385  15.303  21.002   7.898
 3188POPC   C4B41386  15.209  20.936   7.488
 3189POPC   NC341387  42.361  18.666   9.279
 3189POPC   PO441388  42.614  19.212   9.578
 3189POPC   GL141389  42.454  19.185   9.145
 3189POPC   GL241390  42.105  19.099   9.130
 3189POPC   C1A41391  42.419  18.963   8.723
 3189POPC   D2A41392  42.556  18.684   8.419
 3189POPC   C3A41393  42.475  18.830   8.015
 3189POPC   C4A41394  42.551  19.007   7.646
 3189POPC   C1B41395  41.938  18.835   8.771
 3189POPC   C2B41396  41.999  18.621   8.365
 3189POPC   C3B41397  42.038  18.546   7.917
 3189POPC   C4B41398  42.067  18.860   7.644
 3190POPC   NC341399   4.937   5.535   9.410
 3190POPC   PO441400   5.028   6.193   9.372
 3190POPC   GL141401   5.188   5.873   9.117
 3190POPC   GL241402   4.950   6.038   8.891
 3190POPC   C1A41403   5.089   5.581   8.756
 3190POPC   D2A41404   4.967   5.850   8.406
 3190POPC   C3A41405   5.158   5.767   8.038
 3190POPC   C4A41406   5.001   5.804   7.627
 3190POPC   C1B41407   5.373   6.041   8.677
 3190POPC   C2B41408   5.317   6.260   8.298
 3190POPC   C3B41409   5.017   6.244   7.960
 3190POPC   C4B41410   5.285   6.219   7.620
 3191POPC   NC341411  33.636  24.141   5.555
 3191POPC   PO441412  34.035  23.591   5.314
 3191POPC   GL141413  33.906  23.707   5.747
 3191POPC   GL241414  34.154  23.827   5.953
 3191POPC   C1A41415  33.758  23.611   6.191
 3191POPC   D2A41416  33.494  23.343   6.451
 3191POPC   C3A41417  33.672  23.305   6.834
 3191POPC   C4A41418  33.560  23.346   7.222
 3191POPC   C1B41419  34.112  23.996   6.356
 3191POPC   C2B41420  33.910  23.782   6.692
 3191POPC   C3B41421  33.827  23.746   7.099
 3191POPC   C4B41422  34.122  23.615   7.324
 3192POPC   NC341423   7.408  42.398   5.186
 3192POPC   PO441424   7.998  42.425   5.338
 3192POPC   GL141425   7.711  42.424   5.744
 3192POPC   GL241426   7.407  42.615   5.663
 3192POPC   C1A41427   7.606  42.246   6.216
 3192POPC   D2A41428   7.448  42.085   6.665
 3192POPC   C3A41429   7.428  42.213   7.130
 3192POPC   C4A41430   7.698  42.044   7.507
 3192POPC   C1B41431   7.410  42.712   6.100
 3192POPC   C2B41432   7.346  42.567   6.513
 3192POPC   C3B41433   7.254  42.675   6.946
 3192POPC   C4B41434   7.545  42.790   7.287
 3193POPC   NC341435  41.181  41.105   5.418
 3193POPC   PO441436  41.551  40.635   5.612
 3193POPC   GL141437  41.497  40.965   5.870
 3193POPC   GL241438  41.838  41.073   5.827
 3193POPC   C1A41439  41.517  41.176   6.272
 3193POPC   D2A41440  41.402  41.217   6.705
 3193POPC   C3A41441  41.355  40.856   6.958
 3193POPC   C4A41442  41.430  40.859   7.404
 3193POPC   C1B41443  41.899  40.835   6.206
 3193POPC   C2B41444  41.744  40.837   6.626
 3193POPC   C3B41445  41.822  40.989   7.050
 3193POPC   C4B41446  42.180  41.072   7.241
 3194POPC   NC341447  22.815  38.258   5.486
 3194POPC   PO441448  22.659  38.857   5.423
 3194POPC   GL141449  22.779  38.653   5.827
 3194POPC   GL241450  23.094  38.418   5.887
 3194POPC   C1A41451  22.694  38.365   6.185
 3194POPC   D2A41452  22.683  38.221   6.603
 3194POPC   C3A41453  22.792  38.576   6.823
 3194POPC   C4A41454  22.796  38.714   7.220
 3194POPC   C1B41455  23.125  38.110   6.263
 3194POPC   C2B41456  23.125  37.968   6.712
 3194POPC   C3B41457  23.344  37.909   7.139
 3194POPC   C4B41458  23.177  38.016   7.551
 3195POPC   NC341459  14.457  20.920   5.403
 3195POPC   PO441460  14.771  20.367   5.463
 3195POPC   GL141461  14.481  20.585   5.808
 3195POPC   GL241462  14.348  20.942   5.876
 3195POPC   C1A41463  14.293  20.614   6.253
 3195POPC   D2A41464  14.410  20.355   6.579
 3195POPC   C3A41465  14.343  20.525   6.951
 3195POPC   C4A41466  14.300  20.371   7.335
 3195POPC   C1B41467  14.703  20.903   6.150
 3195POPC   C2B41468  14.647  20.900   6.588
 3195POPC   C3B41469  14.618  20.942   7.035
 3195POPC   C4B41470  14.793  20.651   7.306
 3196POPC   NC341471   0.030  29.558   5.431
 3196POPC   PO441472   0.088  30.282   5.474
 3196POPC   GL141473  44.820  29.933   5.753
 3196POPC   GL241474  44.489  29.817   5.928
 3196POPC   C1A41475  44.885  29.948   6.228
 3196POPC   D2A41476  44.800  30.155   6.624
 3196POPC   C3A41477  44.836  29.980   7.071
 3196POPC   C4A41478  44.768  30.116   7.500
 3196POPC   C1B41479  44.525  29.614   6.323
 3196POPC   C2B41480  44.592  29.689   6.720
 3196POPC   C3B41481  44.539  29.542   7.116
 3196POPC   C4B41482  44.746  29.577   7.492
 3197POPC   NC341483  30.129  12.313   5.451
 3197POPC   PO441484  29.515  12.443   5.655
 3197POPC   GL141485  29.821  12.187   5.879
 3197POPC   GL241486  30.141  11.966   5.805
 3197POPC   C1A41487  29.815  12.178   6.314
 3197POPC   D2A41488  29.954  11.923   6.614
 3197POPC   C3A41489  29.915  12.042   7.053
 3197POPC   C4A41490  29.562  12.180   7.292
 3197POPC   C1B41491  30.308  12.163   6.181
 3197POPC   C2B41492  30.468  12.014   6.594
 3197POPC   C3B41493  30.334  11.767   6.933
 3197POPC   C4B41494  30.287  11.786   7.367
 3198POPC   NC341495  10.806  34.887   5.468
 3198POPC   PO441496  10.226  34.527   5.436
 3198POPC   GL141497  10.371  34.517   5.841
 3198POPC   GL241498  10.477  34.858   5.893
 3198POPC   C1A41499  10.305  34.577   6.285
 3198POPC   D2A41500  10.616  34.627   6.616
 3198POPC   C3A41501  10.498  34.448   7.005
 3198POPC   C4A41502  10.175  34.671   7.191
 3198POPC   C1B41503  10.851  34.873   6.193
 3198POPC   C2B41504  11.030  34.956   6.617
 3198POPC   C3B41505  10.955  34.776   6.992
 3198POPC   C4B41506  10.741  34.746   7.372
 3199POPC   NC341507  30.537  19.998   5.063
 3199POPC   PO441508  29.885  19.939   5.383
 3199POPC   GL141509  29.949  19.925   5.816
 3199POPC   GL241510  29.853  19.570   5.913
 3199POPC   C1A41511  29.789  20.096   6.199
 3199POPC   D2A41512  29.774  19.880   6.592
 3199POPC   C3A41513  29.741  20.086   6.988
 3199POPC   C4A41514  29.890  19.875   7.369
 3199POPC   C1B41515  30.078  19.434   6.290
 3199POPC   C2B41516  30.242  19.510   6.720
 3199POPC   C3B41517  30.251  19.528   7.192
 3199POPC   C4B41518  30.148  19.513   7.660
 3200POPC   NC341519  37.855  36.751   5.598
 3200POPC   PO441520  37.695  36.139   5.473
 3200POPC   GL141521  37.622  36.171   5.886
 3200POPC   GL241522  37.521  36.533   5.929
 3200POPC   C1A41523  37.760  35.934   6.287
 3200POPC   D2A41524  37.849  35.885   6.735
 3200POPC   C3A41525  37.737  36.192   7.048
 3200POPC   C4A41526  37.619  35.976   7.398
 3200POPC   C1B41527  37.867  36.430   6.242
 3200POPC   C2B41528  37.965  36.478   6.664
 3200POPC   C3B41529  38.084  36.584   7.072
 3200POPC   C4B41530  38.010  36.434   7.487
 3201POPC   NC341531   3.428  27.330   5.513
 3201POPC   PO441532   3.934  27.752   5.607
 3201POPC   GL141533   3.541  27.699   5.839
 3201POPC   GL241534   3.240  27.855   5.686
 3201POPC   C1A41535   3.467  27.475   6.227
 3201POPC   D2A41536   3.678  27.577   6.577
 3201POPC   C3A41537   3.603  27.379   6.925
 3201POPC   C4A41538   3.700  27.564   7.287
 3201POPC   C1B41539   3.235  27.953   6.149
 3201POPC   C2B41540   3.147  27.797   6.577
 3201POPC   C3B41541   3.290  27.765   7.004
 3201POPC   C4B41542   3.081  27.742   7.400
 3202POPC   NC341543  12.113  19.664   5.495
 3202POPC   PO441544  11.596  20.097   5.463
 3202POPC   GL141545  11.782  20.131   5.882
 3202POPC   GL241546  12.139  20.012   5.904
 3202POPC   C1A41547  11.809  19.966   6.333
 3202POPC   D2A41548  12.085  19.640   6.603
 3202POPC   C3A41549  12.070  19.732   7.061
 3202POPC   C4A41550  11.905  20.149   7.180
 3202POPC   C1B41551  12.259  20.188   6.310
 3202POPC   C2B41552  12.154  20.130   6.732
 3202POPC   C3B41553  12.437  20.090   7.067
 3202POPC   C4B41554  12.406  19.860   7.437
 3203POPC   NC341555  26.220  17.605   5.301
 3203POPC   PO441556  25.632  17.455   5.491
 3203POPC   GL141557  26.004  17.388   5.742
 3203POPC   GL241558  26.173  17.742   5.780
 3203POPC   C1A41559  26.167  17.192   6.126
 3203POPC   D2A41560  26.087  17.117   6.572
 3203POPC   C3A41561  25.942  17.453   6.872
 3203POPC   C4A41562  25.718  17.337   7.263
 3203POPC   C1B41563  25.975  17.676   6.185
 3203POPC   C2B41564  25.651  17.750   6.485
 3203POPC   C3B41565  25.707  17.928   6.878
 3203POPC   C4B41566  25.900  17.820   7.246
 3204POPC   NC341567   6.499   4.414   5.379
 3204POPC   PO441568   6.141   3.950   5.637
 3204POPC   GL141569   6.551   4.112   5.777
 3204POPC   GL241570   6.530   3.942   6.022
 3204POPC   C1A41571   6.882   4.302   6.057
 3204POPC   D2A41572   6.865   4.365   6.507
 3204POPC   C3A41573   6.935   4.120   6.883
 3204POPC   C4A41574   6.750   4.412   7.188
 3204POPC   C1B41575   6.308   4.290   6.202
 3204POPC   C2B41576   6.211   4.450   6.594
 3204POPC   C3B41577   6.414   4.196   6.870
 3204POPC   C4B41578   6.441   4.021   7.281
 3205POPC   NC341579  14.202  44.353   5.444
 3205POPC   PO441580  14.402   0.049   5.375
 3205POPC   GL141581  14.391  44.781   5.750
 3205POPC   GL241582  14.085  44.647   5.842
 3205POPC   C1A41583  14.455  44.873   6.203
 3205POPC   D2A41584  14.427  44.651   6.626
 3205POPC   C3A41585  14.305  44.872   7.006
 3205POPC   C4A41586  14.363   0.195   7.341
 3205POPC   C1B41587  14.122  44.493   6.254
 3205POPC   C2B41588  13.896  44.513   6.658
 3205POPC   C3B41589  13.915  44.533   7.136
 3205POPC   C4B41590  13.781  44.522   7.596
 3206POPC   NC341591  43.964  21.638   5.327
 3206POPC   PO441592  44.182  20.967   5.459
 3206POPC   GL141593  43.941  21.266   5.748
 3206POPC   GL241594  44.152  21.560   5.824
 3206POPC   C1A41595  43.762  21.494   6.139
 3206POPC   D2A41596  43.890  21.585   6.580
 3206POPC   C3A41597  43.722  21.324   6.887
 3206POPC   C4A41598  43.589  21.465   7.262
 3206POPC   C1B41599  44.237  21.383   6.275
 3206POPC   C2B41600  44.219  21.183   6.675
 3206POPC   C3B41601  44.178  21.324   7.097
 3206POPC   C4B41602  44.112  21.678   7.352
 3207POPC   NC341603  15.658   7.736   5.577
 3207POPC   PO441604  16.096   8.360   5.530
 3207POPC   GL141605  16.154   8.085   5.894
 3207POPC   GL241606  16.372   7.749   5.858
 3207POPC   C1A41607  15.923   8.185   6.292
 3207POPC   D2A41608  15.587   8.004   6.530
 3207POPC   C3A41609  15.647   7.946   6.980
 3207POPC   C4A41610  15.844   8.297   7.240
 3207POPC   C1B41611  16.323   7.850   6.311
 3207POPC   C2B41612  16.101   7.877   6.698
 3207POPC   C3B41613  16.151   7.907   7.150
 3207POPC   C4B41614  15.953   7.898   7.587
 3208POPC   NC341615   1.689  27.342   5.396
 3208POPC   PO441616   2.341  27.760   5.414
 3208POPC   GL141617   2.147  27.832   5.805
 3208POPC   GL241618   1.778  27.730   5.794
 3208POPC   C1A41619   2.291  27.620   6.181
 3208POPC   D2A41620   2.189  27.381   6.554
 3208POPC   C3A41621   1.972  27.605   6.871
 3208POPC   C4A41622   2.004  27.852   7.275
 3208POPC   C1B41623   1.847  27.398   6.103
 3208POPC   C2B41624   1.700  27.217   6.487
 3208POPC   C3B41625   1.645  27.194   6.894
 3208POPC   C4B41626   1.676  27.450   7.262
 3209POPC   NC341627  35.793  19.267   5.319
 3209POPC   PO441628  36.329  18.915   5.423
 3209POPC   GL141629  36.110  18.964   5.832
 3209POPC   GL241630  35.987  19.305   5.811
 3209POPC   C1A41631  36.193  18.790   6.269
 3209POPC   D2A41632  36.501  18.719   6.613
 3209POPC   C3A41633  36.388  18.980   6.967
 3209POPC   C4A41634  36.052  18.999   7.247
 3209POPC   C1B41635  35.952  19.261   6.256
 3209POPC   C2B41636  35.959  19.083   6.660
 3209POPC   C3B41637  35.832  19.341   6.965
 3209POPC   C4B41638  35.664  19.351   7.339
 3210POPC   NC341639   3.877  38.088   5.379
 3210POPC   PO441640   4.108  38.707   5.304
 3210POPC   GL141641   4.061  38.517   5.696
 3210POPC   GL241642   4.285  38.784   5.807
 3210POPC   C1A41643   4.237  38.266   6.088
 3210POPC   D2A41644   4.484  38.202   6.487
 3210POPC   C3A41645   4.294  38.149   6.905
 3210POPC   C4A41646   4.512  38.015   7.281
 3210POPC   C1B41647   4.010  38.703   6.152
 3210POPC   C2B41648   4.188  38.640   6.544
 3210POPC   C3B41649   4.326  38.679   6.951
 3210POPC   C4B41650   4.113  38.498   7.257
 3211POPC   NC341651  39.525  31.874   5.312
 3211POPC   PO441652  38.982  32.281   5.365
 3211POPC   GL141653  39.170  32.055   5.686
 3211POPC   GL241654  39.132  32.315   5.894
 3211POPC   C1A41655  39.228  31.878   6.129
 3211POPC   D2A41656  39.260  32.104   6.540
 3211POPC   C3A41657  39.189  31.842   6.867
 3211POPC   C4A41658  39.014  31.793   7.256
 3211POPC   C1B41659  39.231  32.543   6.233
 3211POPC   C2B41660  39.415  32.607   6.596
 3211POPC   C3B41661  39.255  32.686   6.994
 3211POPC   C4B41662  39.088  32.681   7.359
 3212POPC   NC341663   5.206  10.366   5.340
 3212POPC   PO441664   5.010  11.048   5.321
 3212POPC   GL141665   5.016  10.739   5.690
 3212POPC   GL241666   5.386  10.697   5.723
 3212POPC   C1A41667   4.784  10.595   6.102
 3212POPC   D2A41668   4.632  10.605   6.571
 3212POPC   C3A41669   4.892  10.815   6.895
 3212POPC   C4A41670   5.170  10.676   7.225
 3212POPC   C1B41671   5.288  10.441   6.085
 3212POPC   C2B41672   5.186  10.544   6.519
 3212POPC   C3B41673   5.139  10.304   6.884
 3212POPC   C4B41674   5.408  10.222   7.226
 3213POPC   NC341675   4.540  39.802   5.561
 3213POPC   PO441676   4.048  40.352   5.436
 3213POPC   GL141677   4.058  40.190   5.870
 3213POPC   GL241678   4.398  40.160   5.887
 3213POPC   C1A41679   4.087  40.083   6.315
 3213POPC   D2A41680   4.197  40.238   6.709
 3213POPC   C3A41681   4.024  39.999   7.075
 3213POPC   C4A41682   3.888  40.171   7.497
 3213POPC   C1B41683   4.668  40.042   6.225
 3213POPC   C2B41684   4.646  39.975   6.661
 3213POPC   C3B41685   4.520  40.090   7.073
 3213POPC   C4B41686   4.356  39.968   7.485
 3214POPC   NC341687  18.913   1.579   5.434
 3214POPC   PO441688  19.193   0.982   5.482
 3214POPC   GL141689  19.061   1.269   5.828
 3214POPC   GL241690  19.309   1.534   5.802
 3214POPC   C1A41691  18.962   1.236   6.286
 3214POPC   D2A41692  18.975   0.933   6.630
 3214POPC   C3A41693  18.721   1.058   6.976
 3214POPC   C4A41694  18.885   1.146   7.374
 3214POPC   C1B41695  19.320   1.602   6.272
 3214POPC   C2B41696  19.205   1.490   6.710
 3214POPC   C3B41697  19.304   1.432   7.167
 3214POPC   C4B41698  19.462   1.600   7.577
 3215POPC   NC341699   0.637  22.567   5.627
 3215POPC   PO441700   0.769  23.207   5.390
 3215POPC   GL141701   0.561  23.098   5.777
 3215POPC   GL241702   0.228  22.925   5.709
 3215POPC   C1A41703   0.663  22.945   6.198
 3215POPC   D2A41704   0.847  22.875   6.597
 3215POPC   C3A41705   0.592  22.833   6.966
 3215POPC   C4A41706   0.486  23.138   7.284
 3215POPC   C1B41707   0.181  22.755   6.131
 3215POPC   C2B41708   0.293  22.883   6.556
 3215POPC   C3B41709   0.098  22.988   6.984
 3215POPC   C4B41710   0.074  22.918   7.470
 3216POPC   NC341711   0.744  16.292   4.997
 3216POPC   PO441712   0.424  16.564   5.528
 3216POPC   GL141713   0.387  16.667   5.907
 3216POPC   GL241714   0.170  16.969   5.865
 3216POPC   C1A41715   0.622  16.639   6.256
 3216POPC   D2A41716   0.393  16.699   6.622
 3216POPC   C3A41717   0.645  16.786   6.977
 3216POPC   C4A41718   0.735  16.600   7.338
 3216POPC   C1B41719   0.387  17.081   6.226
 3216POPC   C2B41720   0.227  17.187   6.613
 3216POPC   C3B41721   0.194  16.993   6.995
 3216POPC   C4B41722   0.472  17.114   7.322
 3217POPC   NC341723  41.476   9.043   5.123
 3217POPC   PO441724  41.681   8.530   5.568
 3217POPC   GL141725  41.587   8.949   5.696
 3217POPC   GL241726  41.406   9.242   5.598
 3217POPC   C1A41727  41.540   9.081   6.112
 3217POPC   D2A41728  41.403   8.971   6.531
 3217POPC   C3A41729  41.616   9.013   6.891
 3217POPC   C4A41730  41.694   8.683   7.195
 3217POPC   C1B41731  41.195   9.423   5.970
 3217POPC   C2B41732  41.272   9.435   6.420
 3217POPC   C3B41733  41.180   9.362   6.879
 3217POPC   C4B41734  41.367   9.240   7.285
 3218POPC   NC341735  33.228  15.607   5.418
 3218POPC   PO441736  33.143  14.944   5.259
 3218POPC   GL141737  33.114  15.119   5.711
 3218POPC   GL241738  33.183  15.445   5.879
 3218POPC   C1A41739  32.826  15.150   6.106
 3218POPC   D2A41740  32.695  14.957   6.521
 3218POPC   C3A41741  32.782  15.163   6.899
 3218POPC   C4A41742  32.864  14.951   7.275
 3218POPC   C1B41743  33.277  15.390   6.301
 3218POPC   C2B41744  33.273  15.014   6.575
 3218POPC   C3B41745  33.320  15.044   7.003
 3218POPC   C4B41746  33.121  15.392   7.221
 3219POPC   NC341747  25.921   1.496   5.596
 3219POPC   PO441748  26.155   0.921   5.392
 3219POPC   GL141749  26.133   1.073   5.816
 3219POPC   GL241750  25.787   1.114   5.911
 3219POPC   C1A41751  26.163   1.211   6.251
 3219POPC   D2A41752  26.266   1.053   6.676
 3219POPC   C3A41753  26.216   1.255   7.069
 3219POPC   C4A41754  26.335   1.205   7.524
 3219POPC   C1B41755  25.722   1.448   6.238
 3219POPC   C2B41756  25.934   1.499   6.642
 3219POPC   C3B41757  25.747   1.497   7.036
 3219POPC   C4B41758  25.823   1.285   7.414
 3220POPC   NC341759  43.673   3.831   5.195
 3220POPC   PO441760  43.581   3.230   5.414
 3220POPC   GL141761  43.723   3.422   5.770
 3220POPC   GL241762  43.660   3.770   5.700
 3220POPC   C1A41763  43.747   3.349   6.220
 3220POPC   D2A41764  43.911   3.575   6.578
 3220POPC   C3A41765  43.780   3.416   6.952
 3220POPC   C4A41766  44.096   3.287   7.179
 3220POPC   C1B41767  43.843   3.839   6.101
 3220POPC   C2B41768  43.617   3.978   6.478
 3220POPC   C3B41769  43.726   3.970   6.920
 3220POPC   C4B41770  44.072   3.809   7.152
 3221POPC   NC341771  33.932  24.760   5.449
 3221POPC   PO441772  34.102  24.184   5.613
 3221POPC   GL141773  33.905  24.383   5.956
 3221POPC   GL241774  33.689  24.102   6.043
 3221POPC   C1A41775  33.632  24.580   6.293
 3221POPC   D2A41776  33.684  24.862   6.645
 3221POPC   C3A41777  33.620  24.668   7.044
 3221POPC   C4A41778  33.888  24.551   7.380
 3221POPC   C1B41779  33.589  24.084   6.442
 3221POPC   C2B41780  33.868  24.330   6.688
 3221POPC   C3B41781  34.034  24.208   7.046
 3221POPC   C4B41782  33.567  24.176   7.187
 3222POPC   NC341783  21.737  39.277   5.570
 3222POPC   PO441784  21.138  39.534   5.429
 3222POPC   GL141785  21.211  39.418   5.876
 3222POPC   GL241786  21.386  39.088   5.891
 3222POPC   C1A41787  21.131  39.214   6.310
 3222POPC   D2A41788  21.376  38.994   6.651
 3222POPC   C3A41789  21.350  39.228   7.063
 3222POPC   C4A41790  21.343  39.108   7.522
 3222POPC   C1B41791  21.620  39.339   6.220
 3222POPC   C2B41792  21.555  39.486   6.631
 3222POPC   C3B41793  21.745  39.566   7.027
 3222POPC   C4B41794  21.780  39.323   7.398
 3223POPC   NC341795  14.393   5.629   5.464
 3223POPC   PO441796  14.020   6.154   5.379
 3223POPC   GL141797  14.216   5.996   5.775
 3223POPC   GL241798  14.552   6.062   5.821
 3223POPC   C1A41799  14.325   5.697   6.135
 3223POPC   D2A41800  14.477   5.618   6.561
 3223POPC   C3A41801  14.232   5.600   6.907
 3223POPC   C4A41802  14.338   5.865   7.244
 3223POPC   C1B41803  14.425   6.193   6.258
 3223POPC   C2B41804  14.622   6.114   6.710
 3223POPC   C3B41805  14.626   6.292   7.172
 3223POPC   C4B41806  14.535   6.372   7.665
 3224POPC   NC341807  38.379  16.648   4.990
 3224POPC   PO441808  38.642  16.930   5.554
 3224POPC   GL141809  38.604  16.826   5.912
 3224POPC   GL241810  38.254  16.943   5.906
 3224POPC   C1A41811  38.638  17.066   6.276
 3224POPC   D2A41812  38.385  16.982   6.622
 3224POPC   C3A41813  38.574  16.667   6.863
 3224POPC   C4A41814  38.660  16.865   7.226
 3224POPC   C1B41815  38.248  16.617   6.224
 3224POPC   C2B41816  38.083  16.549   6.636
 3224POPC   C3B41817  38.089  16.750   7.033
 3224POPC   C4B41818  38.314  16.496   7.285
 3225POPC   NC341819  10.759  31.736   5.287
 3225POPC   PO441820  10.121  31.424   5.315
 3225POPC   GL141821  10.384  31.328   5.725
 3225POPC   GL241822  10.758  31.411   5.730
 3225POPC   C1A41823  10.474  31.281   6.185
 3225POPC   D2A41824  10.304  31.510   6.552
 3225POPC   C3A41825  10.330  31.345   6.969
 3225POPC   C4A41826  10.520  31.387   7.352
 3225POPC   C1B41827  10.911  31.537   6.161
 3225POPC   C2B41828  10.802  31.469   6.590
 3225POPC   C3B41829  10.905  31.446   7.013
 3225POPC   C4B41830  10.837  31.764   7.321
 3226POPC   NC341831  34.942   2.698   5.213
 3226POPC   PO441832  34.274   2.610   5.243
 3226POPC   GL141833  34.554   2.799   5.621
 3226POPC   GL241834  34.653   3.163   5.697
 3226POPC   C1A41835  34.613   2.760   6.108
 3226POPC   D2A41836  34.336   2.801   6.501
 3226POPC   C3A41837  34.470   2.537   6.884
 3226POPC   C4A41838  34.723   2.631   7.268
 3226POPC   C1B41839  34.905   3.168   6.099
 3226POPC   C2B41840  34.961   2.961   6.500
 3226POPC   C3B41841  34.807   2.962   6.900
 3226POPC   C4B41842  34.881   3.173   7.270
 3227POPC   NC341843   5.435  11.200   5.251
 3227POPC   PO441844   4.969  11.521   5.664
 3227POPC   GL141845   5.193  11.202   5.798
 3227POPC   GL241846   5.357  11.391   6.044
 3227POPC   C1A41847   4.969  11.068   6.162
 3227POPC   D2A41848   4.940  11.432   6.431
 3227POPC   C3A41849   4.940  11.361   6.861
 3227POPC   C4A41850   4.840  11.221   7.257
 3227POPC   C1B41851   5.566  11.430   6.422
 3227POPC   C2B41852   5.389  11.588   6.792
 3227POPC   C3B41853   5.311  11.479   7.252
 3227POPC   C4B41854   5.427  11.598   7.682
 3228POPC   NC341855  24.524  31.041   5.376
 3228POPC   PO441856  24.905  30.581   5.210
 3228POPC   GL141857  24.562  30.703   5.710
 3228POPC   GL241858  24.244  30.683   5.664
 3228POPC   C1A41859  24.612  30.722   6.184
 3228POPC   D2A41860  24.380  30.686   6.573
 3228POPC   C3A41861  24.506  30.488   6.943
 3228POPC   C4A41862  24.636  30.650   7.332
 3228POPC   C1B41863  24.097  30.702   6.128
 3228POPC   C2B41864  23.927  30.906   6.535
 3228POPC   C3B41865  24.091  30.949   6.923
 3228POPC   C4B41866  24.143  30.669   7.265
 3229POPC   NC341867  27.868   1.071   5.412
 3229POPC   PO441868  27.310   1.472   5.642
 3229POPC   GL141869  27.607   1.230   5.859
 3229POPC   GL241870  27.904   1.444   5.797
 3229POPC   C1A41871  27.572   0.963   6.243
 3229POPC   D2A41872  27.382   1.070   6.631
 3229POPC   C3A41873  27.480   0.848   6.966
 3229POPC   C4A41874  27.253   0.891   7.312
 3229POPC   C1B41875  27.968   1.286   6.229
 3229POPC   C2B41876  27.893   1.113   6.648
 3229POPC   C3B41877  27.771   1.275   7.067
 3229POPC   C4B41878  27.965   1.346   7.502
 3230POPC   NC341879  34.810   0.977   5.144
 3230POPC   PO441880  34.506   1.590   5.270
 3230POPC   GL141881  34.427   1.259   5.606
 3230POPC   GL241882  34.666   1.352   5.831
 3230POPC   C1A41883  34.262   1.176   6.085
 3230POPC   D2A41884  34.095   1.221   6.547
 3230POPC   C3A41885  34.251   1.028   6.930
 3230POPC   C4A41886  34.610   1.158   7.157
 3230POPC   C1B41887  34.745   1.417   6.266
 3230POPC   C2B41888  34.564   1.441   6.696
 3230POPC   C3B41889  34.753   1.649   7.048
 3230POPC   C4B41890  35.092   1.423   7.222
 3231POPC   NC341891   8.799   7.608   5.333
 3231POPC   PO441892   9.356   7.187   5.223
 3231POPC   GL141893   9.197   7.287   5.691
 3231POPC   GL241894   8.881   7.432   5.795
 3231POPC   C1A41895   9.228   7.397   6.175
 3231POPC   D2A41896   9.050   7.276   6.615
 3231POPC   C3A41897   9.183   7.526   7.042
 3231POPC   C4A41898   8.886   7.700   7.393
 3231POPC   C1B41899   8.718   7.459   6.206
 3231POPC   C2B41900   8.702   7.640   6.586
 3231POPC   C3B41901   8.692   7.429   6.969
 3231POPC   C4B41902   8.708   7.201   7.339
 3232POPC   NC341903  34.080   6.467   5.283
 3232POPC   PO441904  33.727   5.918   5.318
 3232POPC   GL141905  33.543   5.886   5.719
 3232POPC   GL241906  33.687   6.200   5.751
 3232POPC   C1A41907  33.652   5.758   6.135
 3232POPC   D2A41908  33.686   5.974   6.519
 3232POPC   C3A41909  33.608   5.831   6.921
 3232POPC   C4A41910  33.853   5.679   7.270
 3232POPC   C1B41911  33.922   6.214   6.122
 3232POPC   C2B41912  34.023   6.448   6.482
 3232POPC   C3B41913  33.900   6.281   6.863
 3232POPC   C4B41914  33.774   6.198   7.245
 3233POPC   NC341915  16.144   5.913   5.459
 3233POPC   PO441916  15.552   5.536   5.399
 3233POPC   GL141917  15.769   5.720   5.776
 3233POPC   GL241918  16.036   5.480   5.801
 3233POPC   C1A41919  16.027   5.939   6.154
 3233POPC   D2A41920  15.866   6.141   6.570
 3233POPC   C3A41921  15.989   5.971   6.997
 3233POPC   C4A41922  15.773   5.732   7.347
 3233POPC   C1B41923  15.820   5.476   6.224
 3233POPC   C2B41924  16.037   5.623   6.599
 3233POPC   C3B41925  16.084   5.470   7.014
 3233POPC   C4B41926  16.016   5.287   7.433
 3234POPC   NC341927   4.185  27.382   5.440
 3234POPC   PO441928   4.390  27.953   5.140
 3234POPC   GL141929   4.388  27.966   5.665
 3234POPC   GL241930   4.430  27.590   5.830
 3234POPC   C1A41931   4.519  27.984   6.125
 3234POPC   D2A41932   4.371  27.661   6.438
 3234POPC   C3A41933   4.391  27.722   6.890
 3234POPC   C4A41934   4.207  27.708   7.291
 3234POPC   C1B41935   4.100  27.337   6.119
 3234POPC   C2B41936   3.972  27.143   6.535
 3234POPC   C3B41937   4.086  27.246   6.977
 3234POPC   C4B41938   4.075  27.254   7.430
 3235POPC   NC341939  17.252  22.414   5.705
 3235POPC   PO441940  16.849  21.921   5.431
 3235POPC   GL141941  16.974  22.002   5.822
 3235POPC   GL241942  17.323  21.870   5.766
 3235POPC   C1A41943  16.818  22.223   6.220
 3235POPC   D2A41944  16.741  22.338   6.663
 3235POPC   C3A41945  16.586  21.991   6.910
 3235POPC   C4A41946  16.764  21.885   7.278
 3235POPC   C1B41947  17.222  21.880   6.221
 3235POPC   C2B41948  16.991  21.850   6.574
 3235POPC   C3B41949  17.103  22.050   6.934
 3235POPC   C4B41950  17.224  22.145   7.330
 3236POPC   NC341951   3.149   9.311   5.226
 3236POPC   PO441952   3.745   8.984   5.342
 3236POPC   GL141953   3.576   8.954   5.738
 3236POPC   GL241954   3.789   8.731   5.961
 3236POPC   C1A41955   3.499   9.178   6.106
 3236POPC   D2A41956   3.622   9.020   6.502
 3236POPC   C3A41957   3.583   9.232   6.897
 3236POPC   C4A41958   3.678   9.147   7.324
 3236POPC   C1B41959   3.359   8.674   6.147
 3236POPC   C2B41960   3.213   8.722   6.590
 3236POPC   C3B41961   3.529   8.723   6.952
 3236POPC   C4B41962   3.540   8.656   7.421
 3237POPC   NC341963  24.622  33.081   5.354
 3237POPC   PO441964  24.032  33.189   5.579
 3237POPC   GL141965  24.367  33.056   5.875
 3237POPC   GL241966  24.712  33.129   5.844
 3237POPC   C1A41967  24.518  32.895   6.295
 3237POPC   D2A41968  24.388  33.145   6.651
 3237POPC   C3A41969  24.243  32.978   7.028
 3237POPC   C4A41970  24.115  33.197   7.371
 3237POPC   C1B41971  24.810  33.314   6.221
 3237POPC   C2B41972  24.908  33.211   6.633
 3237POPC   C3B41973  24.761  32.841   6.872
 3237POPC   C4B41974  24.800  32.727   7.306
 3238POPC   NC341975  18.677  20.818   5.433
 3238POPC   PO441976  18.083  20.481   5.350
 3238POPC   GL141977  18.309  20.585   5.726
 3238POPC   GL241978  18.100  20.831   5.807
 3238POPC   C1A41979  18.515  20.434   6.109
 3238POPC   D2A41980  18.374  20.258   6.506
 3238POPC   C3A41981  18.394  20.539   6.902
 3238POPC   C4A41982  18.521  20.616   7.362
 3238POPC   C1B41983  18.023  20.560   6.215
 3238POPC   C2B41984  17.903  20.456   6.664
 3238POPC   C3B41985  17.882  20.647   7.074
 3238POPC   C4B41986  18.047  20.653   7.511
 3239POPC   NC341987   3.125  13.945   5.369
 3239POPC   PO441988   2.843  14.623   5.213
 3239POPC   GL141989   2.870  14.550   5.656
 3239POPC   GL241990   2.967  14.230   5.764
 3239POPC   C1A41991   2.745  14.572   6.097
 3239POPC   D2A41992   2.520  14.767   6.439
 3239POPC   C3A41993   2.761  14.703   6.797
 3239POPC   C4A41994   2.795  14.580   7.207
 3239POPC   C1B41995   2.760  14.073   6.153
 3239POPC   C2B41996   2.622  14.262   6.552
 3239POPC   C3B41997   2.690  14.120   6.993
 3239POPC   C4B41998   2.450  13.908   7.305
 3240POPC   NC341999  13.961  23.117   5.454
 3240POPC   PO442000  13.512  22.637   5.224
 3240POPC   GL142001  13.649  22.789   5.699
 3240POPC   GL242002  13.465  22.533   5.822
 3240POPC   C1A42003  13.710  23.072   6.113
 3240POPC   D2A42004  13.603  23.222   6.555
 3240POPC   C3A42005  13.732  23.112   6.976
 3240POPC   C4A42006  13.591  23.019   7.430
 3240POPC   C1B42007  13.743  22.581   6.207
 3240POPC   C2B42008  13.748  22.700   6.636
 3240POPC   C3B42009  13.600  22.643   7.048
 3240POPC   C4B42010  13.870  22.589   7.380
 3241POPC   NC342011  17.921  19.243   5.085
 3241POPC   PO442012  17.468  18.821   5.387
 3241POPC   GL142013  17.742  18.829   5.747
 3241POPC   GL242014  17.644  19.100   5.989
 3241POPC   C1A42015  17.780  18.665   6.169
 3241POPC   D2A42016  17.808  18.891   6.562
 3241POPC   C3A42017  17.650  18.771   6.963
 3241POPC   C4A42018  17.264  18.833   7.170
 3241POPC   C1B42019  17.446  19.233   6.356
 3241POPC   C2B42020  17.492  19.248   6.805
 3241POPC   C3B42021  17.629  19.237   7.209
 3241POPC   C4B42022  17.736  19.347   7.661
 3242POPC   NC342023  23.065  41.209   5.393
 3242POPC   PO442024  22.962  40.631   5.418
 3242POPC   GL142025  22.852  40.876   5.793
 3242POPC   GL242026  22.776  41.199   5.850
 3242POPC   C1A42027  23.110  40.907   6.150
 3242POPC   D2A42028  23.221  40.599   6.442
 3242POPC   C3A42029  23.135  40.607   6.867
 3242POPC   C4A42030  23.241  40.727   7.285
 3242POPC   C1B42031  22.669  41.146   6.275
 3242POPC   C2B42032  22.728  40.839   6.618
 3242POPC   C3B42033  22.822  40.971   7.059
 3242POPC   C4B42034  22.795  41.031   7.524
 3243POPC   NC342035  40.481  40.621   5.408
 3243POPC   PO442036  40.744  41.265   5.403
 3243POPC   GL142037  40.782  40.948   5.734
 3243POPC   GL242038  41.055  40.684   5.728
 3243POPC   C1A42039  41.034  41.048   6.096
 3243POPC   D2A42040  41.172  40.817   6.453
 3243POPC   C3A42041  40.904  40.962   6.777
 3243POPC   C4A42042  40.924  40.882   7.201
 3243POPC   C1B42043  40.845  40.575   6.114
 3243POPC   C2B42044  40.675  40.588   6.514
 3243POPC   C3B42045  40.633  40.552   6.953
 3243POPC   C4B42046  40.273  40.540   7.190
 3244POPC   NC342047  36.730  10.187   5.308
 3244POPC   PO442048  36.858  10.808   5.336
 3244POPC   GL142049  36.624  10.553   5.684
 3244POPC   GL242050  36.925  10.389   5.759
 3244POPC   C1A42051  36.584  10.263   6.097
 3244POPC   D2A42052  36.729  10.331   6.523
 3244POPC   C3A42053  36.564  10.432   6.913
 3244POPC   C4A42054  36.757  10.581   7.267
 3244POPC   C1B42055  37.105  10.271   6.185
 3244POPC   C2B42056  37.315  10.212   6.603
 3244POPC   C3B42057  37.113  10.337   6.986
 3244POPC   C4B42058  37.100  10.302   7.499
 3245POPC   NC342059  30.348  16.457   5.218
 3245POPC   PO442060  30.633  17.089   5.307
 3245POPC   GL142061  30.524  16.755   5.632
 3245POPC   GL242062  30.840  16.624   5.686
 3245POPC   C1A42063  30.437  16.726   6.098
 3245POPC   D2A42064  30.643  16.791   6.524
 3245POPC   C3A42065  30.479  16.621   6.898
 3245POPC   C4A42066  30.516  16.740   7.294
 3245POPC   C1B42067  30.930  16.550   6.149
 3245POPC   C2B42068  31.125  16.574   6.569
 3245POPC   C3B42069  30.995  16.736   6.962
 3245POPC   C4B42070  30.976  16.587   7.398
 3246POPC   NC342071  25.259  19.530   5.543
 3246POPC   PO442072  25.510  18.912   5.318
 3246POPC   GL142073  25.498  18.974   5.766
 3246POPC   GL242074  25.682  19.265   5.796
 3246POPC   C1A42075  25.210  18.942   6.172
 3246POPC   D2A42076  25.046  18.829   6.624
 3246POPC   C3A42077  25.149  19.097   7.005
 3246POPC   C4A42078  25.589  19.193   7.142
 3246POPC   C1B42079  25.551  19.305   6.200
 3246POPC   C2B42080  25.461  19.230   6.610
 3246POPC   C3B42081  25.329  19.580   6.833
 3246POPC   C4B42082  25.336  19.608   7.257
 3247POPC   NC342083  13.956  38.852   5.450
 3247POPC   PO442084  13.493  38.449   5.281
 3247POPC   GL142085  13.517  38.195   5.713
 3247POPC   GL242086  13.806  38.139   5.942
 3247POPC   C1A42087  13.363  38.144   6.175
 3247POPC   D2A42088  13.546  38.396   6.519
 3247POPC   C3A42089  13.514  38.358   6.966
 3247POPC   C4A42090  13.600  38.730   7.195
 3247POPC   C1B42091  13.737  38.571   6.071
 3247POPC   C2B42092  13.993  38.748   6.388
 3247POPC   C3B42093  14.009  38.654   6.856
 3247POPC   C4B42094  14.125  38.607   7.310
 3248POPC   NC342095  14.166  34.603   5.405
 3248POPC   PO442096  14.585  34.181   5.175
 3248POPC   GL142097  14.567  34.336   5.669
 3248POPC   GL242098  14.525  34.717   5.758
 3248POPC   C1A42099  14.351  34.377   6.126
 3248POPC   D2A42100  14.421  34.462   6.602
 3248POPC   C3A42101  14.155  34.465   7.002
 3248POPC   C4A42102  14.178  34.427   7.493
 3248POPC   C1B42103  14.484  34.868   6.187
 3248POPC   C2B42104  14.400  34.977   6.600
 3248POPC   C3B42105  14.543  34.907   7.011
 3248POPC   C4B42106  14.181  34.916   7.224
 3249POPC   NC342107  10.431  27.054   5.325
 3249POPC   PO442108   9.963  26.569   5.497
 3249POPC   GL142109  10.367  26.719   5.780
 3249POPC   GL242110  10.539  27.062   5.827
 3249POPC   C1A42111  10.481  26.774   6.265
 3249POPC   D2A42112  10.680  26.898   6.704
 3249POPC   C3A42113  10.470  26.737   7.074
 3249POPC   C4A42114  10.047  26.653   7.090
 3249POPC   C1B42115  10.221  27.299   6.031
 3249POPC   C2B42116  10.171  27.223   6.492
 3249POPC   C3B42117  10.357  27.270   6.928
 3249POPC   C4B42118  10.749  27.128   7.169
 3250POPC   NC342119  15.875  16.102   5.381
 3250POPC   PO442120  15.852  15.431   5.585
 3250POPC   GL142121  15.758  15.760   5.920
 3250POPC   GL242122  15.743  16.159   5.864
 3250POPC   C1A42123  15.886  15.751   6.386
 3250POPC   D2A42124  16.130  16.053   6.689
 3250POPC   C3A42125  16.135  15.947   7.115
 3250POPC   C4A42126  15.895  15.630   7.293
 3250POPC   C1B42127  15.846  16.256   6.287
 3250POPC   C2B42128  15.623  16.123   6.645
 3250POPC   C3B42129  15.673  16.174   7.046
 3250POPC   C4B42130  15.901  16.287   7.432
 3251POPC   NC342131  44.174  12.161   5.561
 3251POPC   PO442132  43.553  11.982   5.459
 3251POPC   GL142133  43.772  12.020   5.839
 3251POPC   GL242134  43.811  12.386   5.868
 3251POPC   C1A42135  43.730  11.840   6.254
 3251POPC   D2A42136  43.775  12.038   6.659
 3251POPC   C3A42137  44.000  11.865   7.000
 3251POPC   C4A42138  43.604  11.830   7.139
 3251POPC   C1B42139  44.023  12.278   6.272
 3251POPC   C2B42140  44.240  12.214   6.696
 3251POPC   C3B42141  44.102  12.333   7.139
 3251POPC   C4B42142  44.113  12.382   7.642
 3252POPC   NC342143  42.176  13.288   5.366
 3252POPC   PO442144  42.275  12.613   5.281
 3252POPC   GL142145  42.328  12.856   5.697
 3252POPC   GL242146  42.678  12.972   5.746
 3252POPC   C1A42147  42.274  13.020   6.142
 3252POPC   D2A42148  42.087  13.047   6.565
 3252POPC   C3A42149  42.213  12.866   6.963
 3252POPC   C4A42150  42.066  13.046   7.367
 3252POPC   C1B42151  42.763  12.878   6.188
 3252POPC   C2B42152  42.577  12.789   6.584
 3252POPC   C3B42153  42.694  13.020   6.964
 3252POPC   C4B42154  42.573  12.937   7.345
 3253POPC   NC342155  29.541  39.300   5.187
 3253POPC   PO442156  28.877  39.412   5.300
 3253POPC   GL142157  29.066  39.307   5.702
 3253POPC   GL242158  29.354  39.515   5.759
 3253POPC   C1A42159  29.147  39.230   6.182
 3253POPC   D2A42160  29.361  39.067   6.546
 3253POPC   C3A42161  29.101  39.019   6.911
 3253POPC   C4A42162  29.307  39.008   7.298
 3253POPC   C1B42163  29.376  39.682   6.190
 3253POPC   C2B42164  29.194  39.553   6.588
 3253POPC   C3B42165  29.411  39.448   6.953
 3253POPC   C4B42166  29.527  39.478   7.373
 3254POPC   NC342167  27.114  37.325   5.408
 3254POPC   PO442168  27.617  36.856   5.171
 3254POPC   GL142169  27.596  36.757   5.727
 3254POPC   GL242170  27.367  36.529   5.811
 3254POPC   C1A42171  27.652  36.997   6.166
 3254POPC   D2A42172  27.962  37.087   6.502
 3254POPC   C3A42173  27.818  36.979   6.913
 3254POPC   C4A42174  27.389  37.075   7.118
 3254POPC   C1B42175  27.563  36.487   6.190
 3254POPC   C2B42176  27.557  36.696   6.576
 3254POPC   C3B42177  27.606  36.518   6.961
 3254POPC   C4B42178  27.492  36.626   7.360
 3255POPC   NC342179  10.655  36.498   5.340
 3255POPC   PO442180  10.776  35.819   5.588
 3255POPC   GL142181  10.641  35.795   6.018
 3255POPC   GL242182  10.319  35.979   6.087
 3255POPC   C1A42183  10.688  35.971   6.437
 3255POPC   D2A42184  10.639  36.402   6.579
 3255POPC   C3A42185  10.552  36.277   6.967
 3255POPC   C4A42186  10.552  35.828   6.955
 3255POPC   C1B42187  10.163  36.368   6.255
 3255POPC   C2B42188   9.905  36.388   6.615
 3255POPC   C3B42189  10.041  36.381   7.058
 3255POPC   C4B42190  10.231  36.055   7.315
 3256POPC   NC342191   4.505   7.869   5.334
 3256POPC   PO442192   4.122   8.403   5.452
 3256POPC   GL142193   4.351   8.389   5.807
 3256POPC   GL242194   4.604   8.127   5.799
 3256POPC   C1A42195   4.216   8.278   6.228
 3256POPC   D2A42196   4.343   8.385   6.631
 3256POPC   C3A42197   4.339   8.211   7.048
 3256POPC   C4A42198   4.055   8.287   7.390
 3256POPC   C1B42199   4.493   7.852   6.127
 3256POPC   C2B42200   4.504   7.879   6.573
 3256POPC   C3B42201   4.718   7.872   6.966
 3256POPC   C4B42202   4.401   7.711   7.207
 3257POPC   NC342203  25.532   8.263   5.599
 3257POPC   PO442204  26.098   8.648   5.416
 3257POPC   GL142205  26.050   8.283   5.785
 3257POPC   GL242206  25.772   8.057   5.967
 3257POPC   C1A42207  26.214   8.109   6.203
 3257POPC   D2A42208  26.091   8.273   6.612
 3257POPC   C3A42209  26.115   8.171   7.050
 3257POPC   C4A42210  25.943   8.396   7.398
 3257POPC   C1B42211  25.609   8.085   6.383
 3257POPC   C2B42212  25.711   7.957   6.795
 3257POPC   C3B42213  25.703   7.910   7.230
 3257POPC   C4B42214  26.036   7.906   7.505
 3258POPC   NC342215  26.913  30.286   5.543
 3258POPC   PO442216  26.998  30.909   5.360
 3258POPC   GL142217  26.871  30.826   5.803
 3258POPC   GL242218  26.619  30.546   5.920
 3258POPC   C1A42219  27.009  30.660   6.216
 3258POPC   D2A42220  26.723  30.466   6.495
 3258POPC   C3A42221  26.751  30.609   6.909
 3258POPC   C4A42222  26.735  30.344   7.273
 3258POPC   C1B42223  26.549  30.896   6.208
 3258POPC   C2B42224  26.542  31.045   6.625
 3258POPC   C3B42225  26.365  30.908   7.037
 3258POPC   C4B42226  26.605  30.809   7.386
 3259POPC   NC342227  13.423  44.225   5.487
 3259POPC   PO442228  14.066  43.847   5.501
 3259POPC   GL142229  13.827  44.149   5.775
 3259POPC   GL242230  13.654  43.862   5.813
 3259POPC   C1A42231  13.710  44.201   6.223
 3259POPC   D2A42232  13.775  43.992   6.657
 3259POPC   C3A42233  13.641  44.108   7.099
 3259POPC   C4A42234  13.636  44.042   7.572
 3259POPC   C1B42235  13.800  43.678   6.203
 3259POPC   C2B42236  13.631  43.493   6.590
 3259POPC   C3B42237  13.712  43.612   7.018
 3259POPC   C4B42238  13.512  43.590   7.391
 3260POPC   NC342239   3.430  36.096   5.377
 3260POPC   PO442240   4.080  36.090   5.628
 3260POPC   GL142241   3.755  36.084   5.939
 3260POPC   GL242242   3.399  36.041   5.874
 3260POPC   C1A42243   3.560  35.921   6.346
 3260POPC   D2A42244   3.185  35.983   6.530
 3260POPC   C3A42245   3.211  35.798   6.930
 3260POPC   C4A42246   3.507  35.847   7.264
 3260POPC   C1B42247   3.428  36.384   6.209
 3260POPC   C2B42248   3.310  36.469   6.615
 3260POPC   C3B42249   3.402  36.274   6.988
 3260POPC   C4B42250   3.351  36.345   7.430
 3261POPC   NC342251  40.811  33.460   5.624
 3261POPC   PO442252  40.559  34.085   5.499
 3261POPC   GL142253  40.732  33.935   5.886
 3261POPC   GL242254  40.491  33.686   6.016
 3261POPC   C1A42255  41.044  33.727   6.169
 3261POPC   D2A42256  41.146  33.482   6.523
 3261POPC   C3A42257  41.115  33.625   6.938
 3261POPC   C4A42258  40.907  33.480   7.300
 3261POPC   C1B42259  40.594  33.697   6.468
 3261POPC   C2B42260  40.523  33.682   6.930
 3261POPC   C3B42261  40.772  33.958   7.167
 3261POPC   C4B42262  41.130  34.222   7.064
 3262POPC   NC342263  27.723  29.775   5.530
 3262POPC   PO442264  27.096  29.942   5.316
 3262POPC   GL142265  27.362  30.069   5.727
 3262POPC   GL242266  27.715  30.111   5.877
 3262POPC   C1A42267  27.394  29.848   6.157
 3262POPC   D2A42268  27.541  30.028   6.543
 3262POPC   C3A42269  27.421  29.845   6.930
 3262POPC   C4A42270  27.667  29.870   7.275
 3262POPC   C1B42271  27.963  30.353   6.115
 3262POPC   C2B42272  27.876  30.426   6.535
 3262POPC   C3B42273  27.962  30.066   6.837
 3262POPC   C4B42274  28.107  30.119   7.230
 3263POPC   NC342275  31.770  18.863   5.467
 3263POPC   PO442276  32.396  18.926   5.246
 3263POPC   GL142277  32.194  19.133   5.687
 3263POPC   GL242278  32.182  19.502   5.829
 3263POPC   C1A42279  32.377  19.113   6.156
 3263POPC   D2A42280  32.606  18.973   6.553
 3263POPC   C3A42281  32.432  18.819   6.934
 3263POPC   C4A42282  32.561  18.584   7.284
 3263POPC   C1B42283  32.094  19.518   6.284
 3263POPC   C2B42284  32.391  19.549   6.603
 3263POPC   C3B42285  32.434  19.373   7.010
 3263POPC   C4B42286  32.383  19.303   7.465
 3264POPC   NC342287  41.988  40.528   5.551
 3264POPC   PO442288  42.490  40.874   5.368
 3264POPC   GL142289  42.313  40.850   5.795
 3264POPC   GL242290  42.407  40.499   5.831
 3264POPC   C1A42291  42.408  40.806   6.241
 3264POPC   D2A42292  42.798  40.857   6.445
 3264POPC   C3A42293  42.781  40.859   6.850
 3264POPC   C4A42294  42.588  40.808   7.199
 3264POPC   C1B42295  42.115  40.356   6.158
 3264POPC   C2B42296  42.058  40.427   6.563
 3264POPC   C3B42297  42.223  40.736   6.825
 3264POPC   C4B42298  42.125  40.574   7.227
 3265POPC   NC342299  42.820  25.804   5.453
 3265POPC   PO442300  43.279  26.357   5.325
 3265POPC   GL142301  43.217  26.086   5.662
 3265POPC   GL242302  42.887  26.167   5.778
 3265POPC   C1A42303  43.269  26.074   6.134
 3265POPC   D2A42304  43.115  25.918   6.598
 3265POPC   C3A42305  43.280  26.055   7.045
 3265POPC   C4A42306  43.318  26.140   7.521
 3265POPC   C1B42307  42.786  25.928   6.166
 3265POPC   C2B42308  42.609  26.021   6.547
 3265POPC   C3B42309  42.744  26.002   6.976
 3265POPC   C4B42310  42.615  25.651   7.221
 3266POPC   NC342311   1.343  42.053   5.398
 3266POPC   PO442312   0.976  42.691   5.376
 3266POPC   GL142313   0.952  42.464   5.772
 3266POPC   GL242314   1.229  42.229   5.857
 3266POPC   C1A42315   1.033  42.564   6.224
 3266POPC   D2A42316   1.314  42.638   6.595
 3266POPC   C3A42317   1.233  42.472   7.015
 3266POPC   C4A42318   1.025  42.107   7.175
 3266POPC   C1B42319   1.406  42.198   6.266
 3266POPC   C2B42320   1.320  42.042   6.686
 3266POPC   C3B42321   1.551  42.067   7.059
 3266POPC   C4B42322   1.438  42.202   7.453
 3267POPC   NC342323  21.918  15.110   5.279
 3267POPC   PO442324  22.418  15.045   5.750
 3267POPC   GL142325  22.071  15.340   5.803
 3267POPC   GL242326  21.844  15.153   5.827
 3267POPC   C1A42327  21.764  15.528   6.149
 3267POPC   D2A42328  21.915  15.586   6.576
 3267POPC   C3A42329  21.768  15.498   6.988
 3267POPC   C4A42330  21.965  15.415   7.380
 3267POPC   C1B42331  22.030  15.108   6.268
 3267POPC   C2B42332  22.110  14.988   6.687
 3267POPC   C3B42333  21.987  14.994   7.102
 3267POPC   C4B42334  22.000  14.795   7.490
 3268POPC   NC342335  28.186  30.189   5.299
 3268POPC   PO442336  28.575  29.707   5.459
 3268POPC   GL142337  28.309  29.917   5.752
 3268POPC   GL242338  28.050  29.722   5.921
 3268POPC   C1A42339  28.475  30.178   6.084
 3268POPC   D2A42340  28.336  30.217   6.511
 3268POPC   C3A42341  28.525  30.187   6.931
 3268POPC   C4A42342  28.532  29.845   7.254
 3268POPC   C1B42343  28.368  29.703   6.255
 3268POPC   C2B42344  28.406  29.741   6.698
 3268POPC   C3B42345  28.170  29.583   6.972
 3268POPC   C4B42346  28.080  29.596   7.373
 3269POPC   NC342347  28.416  42.662   5.500
 3269POPC   PO442348  28.425  43.380   5.482
 3269POPC   GL142349  28.470  43.250   5.891
 3269POPC   GL242350  28.257  42.938   5.896
 3269POPC   C1A42351  28.264  43.303   6.286
 3269POPC   D2A42352  28.252  43.562   6.654
 3269POPC   C3A42353  28.526  43.402   6.982
 3269POPC   C4A42354  28.456  43.320   7.446
 3269POPC   C1B42355  28.523  42.866   6.271
 3269POPC   C2B42356  28.361  42.997   6.696
 3269POPC   C3B42357  28.415  42.911   7.120
 3269POPC   C4B42358  28.680  42.869   7.501
 3270POPC   NC342359  40.898  41.732   5.304
 3270POPC   PO442360  40.265  41.797   5.200
 3270POPC   GL142361  40.553  41.667   5.657
 3270POPC   GL242362  40.532  41.380   5.862
 3270POPC   C1A42363  40.973  41.596   5.949
 3270POPC   D2A42364  41.080  41.473   6.388
 3270POPC   C3A42365  40.963  41.466   6.811
 3270POPC   C4A42366  40.748  41.335   7.136
 3270POPC   C1B42367  40.542  41.688   6.203
 3270POPC   C2B42368  40.610  41.773   6.616
 3270POPC   C3B42369  40.451  41.717   7.030
 3270POPC   C4B42370  40.420  41.527   7.454
 3271POPC   NC342371  31.754   8.434   5.395
 3271POPC   PO442372  32.171   7.951   5.364
 3271POPC   GL142373  32.181   8.299   5.654
 3271POPC   GL242374  32.474   8.206   5.746
 3271POPC   C1A42375  32.096   8.404   6.084
 3271POPC   D2A42376  32.219   8.259   6.486
 3271POPC   C3A42377  32.056   8.393   6.896
 3271POPC   C4A42378  31.984   8.100   7.220
 3271POPC   C1B42379  32.623   8.316   6.143
 3271POPC   C2B42380  32.718   8.166   6.550
 3271POPC   C3B42381  32.488   8.110   6.912
 3271POPC   C4B42382  32.509   8.227   7.305
 3272POPC   NC342383  19.415  27.833   5.469
 3272POPC   PO442384  18.836  27.409   5.441
 3272POPC   GL142385  19.003  27.583   5.835
 3272POPC   GL242386  19.041  27.957   5.801
 3272POPC   C1A42387  18.990  27.428   6.273
 3272POPC   D2A42388  19.162  27.475   6.681
 3272POPC   C3A42389  18.858  27.470   6.998
 3272POPC   C4A42390  18.711  27.179   7.236
 3272POPC   C1B42391  19.171  27.911   6.233
 3272POPC   C2B42392  18.875  27.950   6.571
 3272POPC   C3B42393  18.931  27.962   6.985
 3272POPC   C4B42394  19.270  27.773   7.095
 3273POPC   NC342395   2.128  13.870   5.367
 3273POPC   PO442396   2.137  13.285   5.675
 3273POPC   GL142397   1.934  13.576   5.893
 3273POPC   GL242398   1.729  13.849   5.741
 3273POPC   C1A42399   1.865  13.473   6.324
 3273POPC   D2A42400   1.690  13.504   6.753
 3273POPC   C3A42401   1.992  13.547   7.108
 3273POPC   C4A42402   2.244  13.499   7.514
 3273POPC   C1B42403   1.869  13.994   6.171
 3273POPC   C2B42404   1.700  14.109   6.600
 3273POPC   C3B42405   1.730  13.992   7.029
 3273POPC   C4B42406   1.921  13.932   7.435
 3274POPC   NC342407  38.680  27.800   5.512
 3274POPC   PO442408  38.325  27.264   5.389
 3274POPC   GL142409  38.526  27.329   5.828
 3274POPC   GL242410  38.550  27.684   5.984
 3274POPC   C1A42411  38.352  27.354   6.283
 3274POPC   D2A42412  38.437  27.679   6.588
 3274POPC   C3A42413  38.475  27.483   7.003
 3274POPC   C4A42414  38.537  27.094   7.211
 3274POPC   C1B42415  38.693  28.088   6.147
 3274POPC   C2B42416  38.639  28.199   6.595
 3274POPC   C3B42417  38.771  27.888   6.918
 3274POPC   C4B42418  38.773  27.902   7.411
 3275POPC   NC342419  23.869  15.187   5.472
 3275POPC   PO442420  24.525  15.243   5.345
 3275POPC   GL142421  24.540  15.213   5.771
 3275POPC   GL242422  24.600  14.864   5.733
 3275POPC   C1A42423  24.370  15.300   6.211
 3275POPC   D2A42424  24.187  15.196   6.640
 3275POPC   C3A42425  24.372  15.374   7.037
 3275POPC   C4A42426  24.286  15.433   7.473
 3275POPC   C1B42427  24.739  14.873   6.135
 3275POPC   C2B42428  24.745  14.924   6.546
 3275POPC   C3B42429  24.509  14.885   6.905
 3275POPC   C4B42430  24.652  15.000   7.300
 3276POPC   NC342431  32.032  19.644   5.368
 3276POPC   PO442432  32.474  20.176   5.338
 3276POPC   GL142433  32.426  19.959   5.716
 3276POPC   GL242434  32.119  20.078   5.773
 3276POPC   C1A42435  32.442  19.900   6.185
 3276POPC   D2A42436  32.457  20.140   6.585
 3276POPC   C3A42437  32.350  19.913   6.953
 3276POPC   C4A42438  32.532  19.791   7.327
 3276POPC   C1B42439  32.030  20.187   6.206
 3276POPC   C2B42440  31.985  19.936   6.580
 3276POPC   C3B42441  31.942  19.580   6.857
 3276POPC   C4B42442  32.061  19.652   7.276
 3277POPC   NC342443   7.809  31.717   5.155
 3277POPC   PO442444   7.521  31.143   5.443
 3277POPC   GL142445   7.370  31.307   5.838
 3277POPC   GL242446   7.473  31.647   5.915
 3277POPC   C1A42447   7.539  31.353   6.291
 3277POPC   D2A42448   7.542  31.163   6.661
 3277POPC   C3A42449   7.645  31.455   6.965
 3277POPC   C4A42450   7.320  31.576   7.239
 3277POPC   C1B42451   7.700  31.851   6.274
 3277POPC   C2B42452   7.889  31.934   6.699
 3277POPC   C3B42453   7.617  31.972   7.065
 3277POPC   C4B42454   7.607  31.926   7.522
 3278POPC   NC342455   4.589  36.562   5.348
 3278POPC   PO442456   4.068  36.975   5.440
 3278POPC   GL142457   4.249  36.877   5.824
 3278POPC   GL242458   4.604  36.917   5.732
 3278POPC   C1A42459   4.110  36.861   6.267
 3278POPC   D2A42460   4.337  36.834   6.668
 3278POPC   C3A42461   4.106  36.912   7.058
 3278POPC   C4A42462   4.082  36.666   7.441
 3278POPC   C1B42463   4.670  37.129   6.132
 3278POPC   C2B42464   4.810  37.136   6.576
 3278POPC   C3B42465   4.658  37.156   6.981
 3278POPC   C4B42466   4.547  36.855   7.291
 3279POPC   NC342467  12.237  38.738   5.472
 3279POPC   PO442468  11.809  38.215   5.648
 3279POPC   GL142469  12.172  38.370   5.824
 3279POPC   GL242470  12.022  38.709   5.924
 3279POPC   C1A42471  12.291  38.341   6.230
 3279POPC   D2A42472  12.029  38.604   6.454
 3279POPC   C3A42473  11.977  38.482   6.840
 3279POPC   C4A42474  11.900  38.263   7.202
 3279POPC   C1B42475  12.410  38.826   6.142
 3279POPC   C2B42476  12.542  38.767   6.561
 3279POPC   C3B42477  12.318  38.879   6.937
 3279POPC   C4B42478  11.985  38.782   7.237
 3280POPC   NC342479  38.023  13.747   5.473
 3280POPC   PO442480  37.954  13.203   5.247
 3280POPC   GL142481  37.846  13.372   5.764
 3280POPC   GL242482  37.796  13.767   5.919
 3280POPC   C1A42483  37.682  13.381   6.214
 3280POPC   D2A42484  37.794  13.615   6.612
 3280POPC   C3A42485  37.666  13.461   7.026
 3280POPC   C4A42486  37.531  13.536   7.448
 3280POPC   C1B42487  37.518  13.920   6.248
 3280POPC   C2B42488  37.505  14.026   6.676
 3280POPC   C3B42489  37.764  13.993   7.042
 3280POPC   C4B42490  37.619  14.063   7.461
 3281POPC   NC342491  30.598  20.911   5.468
 3281POPC   PO442492  30.771  20.267   5.382
 3281POPC   GL142493  30.752  20.460   5.813
 3281POPC   GL242494  30.953  20.772   5.877
 3281POPC   C1A42495  30.601  20.335   6.245
 3281POPC   D2A42496  30.756  20.424   6.663
 3281POPC   C3A42497  30.499  20.436   6.981
 3281POPC   C4A42498  30.544  20.479   7.379
 3281POPC   C1B42499  30.875  20.766   6.315
 3281POPC   C2B42500  30.987  20.921   6.712
 3281POPC   C3B42501  30.858  20.856   7.132
 3281POPC   C4B42502  31.004  21.013   7.542
 3282POPC   NC342503   1.659  20.822   5.109
 3282POPC   PO442504   1.520  20.265   5.535
 3282POPC   GL142505   1.699  20.443   5.932
 3282POPC   GL242506   1.967  20.719   5.909
 3282POPC   C1A42507   1.896  20.456   6.328
 3282POPC   D2A42508   2.163  20.588   6.636
 3282POPC   C3A42509   1.905  20.504   6.951
 3282POPC   C4A42510   1.768  20.378   7.289
 3282POPC   C1B42511   2.342  20.779   6.195
 3282POPC   C2B42512   2.463  21.008   6.610
 3282POPC   C3B42513   2.203  20.926   7.020
 3282POPC   C4B42514   2.271  20.562   7.336
 3283POPC   NC342515  39.384  32.483   5.484
 3283POPC   PO442516  38.991  32.982   5.496
 3283POPC   GL142517  39.022  32.826   5.845
 3283POPC   GL242518  39.352  32.899   5.872
 3283POPC   C1A42519  39.042  33.048   6.247
 3283POPC   D2A42520  39.215  33.079   6.658
 3283POPC   C3A42521  38.973  33.142   7.028
 3283POPC   C4A42522  39.044  33.170   7.447
 3283POPC   C1B42523  39.521  33.216   6.232
 3283POPC   C2B42524  39.713  33.198   6.675
 3283POPC   C3B42525  39.486  33.178   7.106
 3283POPC   C4B42526  39.523  33.344   7.570
 3284POPC   NC342527  44.733  22.968   5.476
 3284POPC   PO442528  44.095  23.092   5.534
 3284POPC   GL142529  44.367  22.869   5.823
 3284POPC   GL242530  44.552  23.182   5.904
 3284POPC   C1A42531  44.645  22.724   6.139
 3284POPC   D2A42532  44.832  22.714   6.534
 3284POPC   C3A42533  44.710  22.641   6.951
 3284POPC   C4A42534  44.625  22.975   7.229
 3284POPC   C1B42535  44.909  23.196   6.178
 3284POPC   C2B42536  44.998  23.328   6.587
 3284POPC   C3B42537  44.753  23.400   6.947
 3284POPC   C4B42538  44.966  23.416   7.305
 3285POPC   NC342539   8.446  32.541   5.358
 3285POPC   PO442540   8.183  31.897   5.388
 3285POPC   GL142541   8.016  32.144   5.782
 3285POPC   GL242542   8.026  32.489   5.788
 3285POPC   C1A42543   8.019  32.243   6.245
 3285POPC   D2A42544   8.261  32.327   6.603
 3285POPC   C3A42545   8.331  32.106   6.991
 3285POPC   C4A42546   8.483  32.328   7.351
 3285POPC   C1B42547   7.870  32.731   6.179
 3285POPC   C2B42548   7.763  32.583   6.608
 3285POPC   C3B42549   7.907  32.396   6.992
 3285POPC   C4B42550   7.988  32.571   7.413
 3286POPC   NC342551  17.582  40.306   5.529
 3286POPC   PO442552  17.063  39.940   5.427
 3286POPC   GL142553  17.313  39.999   5.833
 3286POPC   GL242554  17.697  39.901   5.845
 3286POPC   C1A42555  17.481  40.045   6.276
 3286POPC   D2A42556  17.609  40.125   6.691
 3286POPC   C3A42557  17.286  40.028   6.959
 3286POPC   C4A42558  17.304  40.048   7.376
 3286POPC   C1B42559  17.774  39.599   6.235
 3286POPC   C2B42560  17.779  39.630   6.708
 3286POPC   C3B42561  17.712  39.837   7.120
 3286POPC   C4B42562  17.643  39.746   7.596
 3287POPC   NC342563  14.101   6.519   5.116
 3287POPC   PO442564  14.524   7.018   5.361
 3287POPC   GL142565  14.349   6.857   5.766
 3287POPC   GL242566  14.268   6.508   5.763
 3287POPC   C1A42567  14.473   6.733   6.196
 3287POPC   D2A42568  14.526   6.612   6.616
 3287POPC   C3A42569  14.284   6.753   6.947
 3287POPC   C4A42570  14.409   6.726   7.348
 3287POPC   C1B42571  14.010   6.524   6.162
 3287POPC   C2B42572  14.015   6.468   6.614
 3287POPC   C3B42573  13.738   6.549   6.979
 3287POPC   C4B42574  13.910   6.782   7.311
 3288POPC   NC342575  38.836  34.663   5.431
 3288POPC   PO442576  39.552  34.487   5.399
 3288POPC   GL142577  39.260  34.618   5.761
 3288POPC   GL242578  39.009  34.364   5.874
 3288POPC   C1A42579  39.060  34.722   6.199
 3288POPC   D2A42580  38.975  34.579   6.617
 3288POPC   C3A42581  39.048  34.862   6.956
 3288POPC   C4A42582  39.213  34.900   7.357
 3288POPC   C1B42583  38.760  34.141   6.181
 3288POPC   C2B42584  38.598  34.192   6.591
 3288POPC   C3B42585  38.904  34.163   6.919
 3288POPC   C4B42586  38.955  34.467   7.251
 3289POPC   NC342587  13.715   8.923   5.024
 3289POPC   PO442588  13.819   8.921   5.660
 3289POPC   GL142589  13.750   8.822   6.014
 3289POPC   GL242590  13.862   8.478   5.924
 3289POPC   C1A42591  13.377   8.981   6.211
 3289POPC   D2A42592  13.338   9.183   6.570
 3289POPC   C3A42593  13.252   8.958   6.934
 3289POPC   C4A42594  13.506   9.075   7.238
 3289POPC   C1B42595  13.571   8.444   6.277
 3289POPC   C2B42596  13.611   8.746   6.601
 3289POPC   C3B42597  13.674   8.668   7.005
 3289POPC   C4B42598  14.015   8.527   7.188
 3290POPC   NC342599  34.623  30.959   5.443
 3290POPC   PO442600  34.580  30.305   5.428
 3290POPC   GL142601  34.636  30.527   5.864
 3290POPC   GL242602  34.765  30.867   5.933
 3290POPC   C1A42603  34.443  30.620   6.281
 3290POPC   D2A42604  34.155  30.568   6.667
 3290POPC   C3A42605  34.340  30.578   7.073
 3290POPC   C4A42606  34.619  30.313   7.319
 3290POPC   C1B42607  34.745  31.037   6.374
 3290POPC   C2B42608  34.643  30.844   6.773
 3290POPC   C3B42609  34.692  30.913   7.263
 3290POPC   C4B42610  34.839  30.937   7.727
 3291POPC   NC342611   4.217  25.151   5.281
 3291POPC   PO442612   3.930  25.648   5.563
 3291POPC   GL142613   4.187  25.453   5.819
 3291POPC   GL242614   4.237  25.090   5.788
 3291POPC   C1A42615   4.275  25.588   6.223
 3291POPC   D2A42616   4.482  25.479   6.598
 3291POPC   C3A42617   4.230  25.423   6.963
 3291POPC   C4A42618   4.298  25.232   7.379
 3291POPC   C1B42619   4.427  25.096   6.187
 3291POPC   C2B42620   4.258  25.011   6.600
 3291POPC   C3B42621   4.501  25.005   6.974
 3291POPC   C4B42622   4.795  25.182   7.238
 3292POPC   NC342623  39.050   3.664   5.434
 3292POPC   PO442624  39.409   3.063   5.431
 3292POPC   GL142625  39.350   3.383   5.760
 3292POPC   GL242626  39.554   3.676   5.853
 3292POPC   C1A42627  39.182   3.436   6.180
 3292POPC   D2A42628  39.271   3.403   6.603
 3292POPC   C3A42629  39.178   3.549   7.005
 3292POPC   C4A42630  39.399   3.554   7.402
 3292POPC   C1B42631  39.660   3.653   6.316
 3292POPC   C2B42632  39.620   3.736   6.817
 3292POPC   C3B42633  39.556   4.008   7.210
 3292POPC   C4B42634  39.619   3.934   7.692
 3293POPC   NC342635   9.714  10.755   5.596
 3293POPC   PO442636   9.777  10.042   5.594
 3293POPC   GL142637   9.871  10.348   5.851
 3293POPC   GL242638   9.533  10.401   5.913
 3293POPC   C1A42639   9.896  10.648   6.197
 3293POPC   D2A42640   9.654  10.644   6.550
 3293POPC   C3A42641   9.882  10.462   6.854
 3293POPC   C4A42642   9.841  10.635   7.230
 3293POPC   C1B42643   9.640  10.169   6.275
 3293POPC   C2B42644   9.559  10.107   6.686
 3293POPC   C3B42645   9.383  10.440   6.962
 3293POPC   C4B42646   9.386  10.467   7.407
 3294POPC   NC342647  27.216  13.512   5.328
 3294POPC   PO442648  27.834  13.766   5.226
 3294POPC   GL142649  27.744  13.712   5.723
 3294POPC   GL242650  27.500  13.449   5.764
 3294POPC   C1A42651  27.492  13.737   6.190
 3294POPC   D2A42652  27.279  13.637   6.587
 3294POPC   C3A42653  27.458  13.827   6.934
 3294POPC   C4A42654  27.813  13.949   7.132
 3294POPC   C1B42655  27.791  13.329   6.106
 3294POPC   C2B42656  27.690  13.328   6.531
 3294POPC   C3B42657  27.855  13.429   6.929
 3294POPC   C4B42658  27.952  13.175   7.281
 3295POPC   NC342659  36.760  16.504   5.465
 3295POPC   PO442660  37.281  16.909   5.450
 3295POPC   GL142661  37.201  16.669   5.798
 3295POPC   GL242662  36.897  16.839   5.871
 3295POPC   C1A42663  37.330  16.657   6.218
 3295POPC   D2A42664  37.127  16.547   6.604
 3295POPC   C3A42665  36.927  16.833   6.871
 3295POPC   C4A42666  37.166  16.819   7.237
 3295POPC   C1B42667  36.829  16.496   6.150
 3295POPC   C2B42668  36.626  16.395   6.517
 3295POPC   C3B42669  36.580  16.417   6.916
 3295POPC   C4B42670  36.815  16.463   7.229
 3296POPC   NC342671  17.046  42.124   5.440
 3296POPC   PO442672  17.513  42.579   5.511
 3296POPC   GL142673  17.518  42.404   5.886
 3296POPC   GL242674  17.311  42.130   5.923
 3296POPC   C1A42675  17.460  42.608   6.255
 3296POPC   D2A42676  17.325  42.509   6.661
 3296POPC   C3A42677  17.663  42.352   6.883
 3296POPC   C4A42678  17.602  42.596   7.255
 3296POPC   C1B42679  17.485  42.094   6.349
 3296POPC   C2B42680  17.279  41.995   6.746
 3296POPC   C3B42681  17.254  42.198   7.157
 3296POPC   C4B42682  17.330  42.067   7.594
 3297POPC   NC342683  44.764  31.714   5.467
 3297POPC   PO442684  44.332  31.295   5.494
 3297POPC   GL142685  44.451  31.455   5.882
 3297POPC   GL242686  44.828  31.466   5.907
 3297POPC   C1A42687  44.556  31.370   6.323
 3297POPC   D2A42688  44.816  31.370   6.701
 3297POPC   C3A42689  44.564  31.358   7.040
 3297POPC   C4A42690  44.232  31.632   7.131
 3297POPC   C1B42691   0.071  31.299   6.261
 3297POPC   C2B42692   0.314  31.264   6.629
 3297POPC   C3B42693   0.217  31.341   7.052
 3297POPC   C4B42694  44.972  31.375   7.398
 3298POPC   NC342695   7.407  14.726   5.493
 3298POPC   PO442696   7.290  14.054   5.426
 3298POPC   GL142697   7.215  14.081   5.831
 3298POPC   GL242698   7.193  14.414   5.816
 3298POPC   C1A42699   7.478  14.113   6.190
 3298POPC   D2A42700   7.681  14.405   6.512
 3298POPC   C3A42701   7.525  14.404   6.944
 3298POPC   C4A42702   7.706  14.554   7.313
 3298POPC   C1B42703   7.255  14.570   6.235
 3298POPC   C2B42704   7.190  14.275   6.571
 3298POPC   C3B42705   7.003  14.240   6.951
 3298POPC   C4B42706   7.139  14.503   7.298
 3299POPC   NC342707  28.242   1.998   5.384
 3299POPC   PO442708  28.879   1.829   5.452
 3299POPC   GL142709  28.558   1.855   5.787
 3299POPC   GL242710  28.603   2.212   5.805
 3299POPC   C1A42711  28.299   1.946   6.176
 3299POPC   D2A42712  28.219   2.210   6.562
 3299POPC   C3A42713  27.988   2.076   6.938
 3299POPC   C4A42714  28.107   1.677   7.135
 3299POPC   C1B42715  28.764   2.211   6.244
 3299POPC   C2B42716  28.713   2.215   6.707
 3299POPC   C3B42717  28.536   2.052   7.094
 3299POPC   C4B42718  28.627   2.202   7.519
 3300POPC   NC342719   4.058  43.154   5.532
 3300POPC   PO442720   3.413  43.306   5.425
 3300POPC   GL142721   3.432  43.079   5.832
 3300POPC   GL242722   3.399  42.707   5.789
 3300POPC   C1A42723   3.333  42.917   6.270
 3300POPC   D2A42724   3.371  42.933   6.735
 3300POPC   C3A42725   3.649  43.213   6.903
 3300POPC   C4A42726   3.383  43.263   7.239
 3300POPC   C1B42727   3.799  42.780   6.020
 3300POPC   C2B42728   3.966  42.840   6.450
 3300POPC   C3B42729   3.919  42.766   6.892
 3300POPC   C4B42730   3.635  42.816   7.217
 3301POPC   NC342731  18.739  12.556   5.524
 3301POPC   PO442732  18.250  12.098   5.394
 3301POPC   GL142733  18.208  12.052   5.832
 3301POPC   GL242734  18.548  12.009   5.909
 3301POPC   C1A42735  18.204  12.193   6.275
 3301POPC   D2A42736  18.475  12.097   6.623
 3301POPC   C3A42737  18.249  12.082   6.999
 3301POPC   C4A42738  17.909  12.373   7.113
 3301POPC   C1B42739  18.712  12.310   6.191
 3301POPC   C2B42740  18.793  12.494   6.592
 3301POPC   C3B42741  18.691  12.351   7.034
 3301POPC   C4B42742  18.382  12.430   7.340
 3302POPC   NC342743  28.280  21.020   5.569
 3302POPC   PO442744  28.048  21.528   5.196
 3302POPC   GL142745  28.042  21.482   5.717
 3302POPC   GL242746  27.973  21.205   5.910
 3302POPC   C1A42747  28.307  21.448   6.169
 3302POPC   D2A42748  28.303  21.262   6.627
 3302POPC   C3A42749  28.044  21.411   6.995
 3302POPC   C4A42750  28.186  21.654   7.370
 3302POPC   C1B42751  28.130  20.951   6.222
 3302POPC   C2B42752  28.100  20.796   6.605
 3302POPC   C3B42753  27.953  20.882   6.991
 3302POPC   C4B42754  28.110  21.078   7.371
 3303POPC   NC342755   5.917   9.034   5.434
 3303POPC   PO442756   5.922   8.389   5.295
 3303POPC   GL142757   5.926   8.616   5.767
 3303POPC   GL242758   6.154   8.913   5.910
 3303POPC   C1A42759   5.945   8.592   6.260
 3303POPC   D2A42760   5.786   8.656   6.709
 3303POPC   C3A42761   6.053   8.774   7.084
 3303POPC   C4A42762   5.907   8.898   7.529
 3303POPC   C1B42763   5.856   9.121   6.220
 3303POPC   C2B42764   5.768   9.296   6.649
 3303POPC   C3B42765   5.819   9.240   7.107
 3303POPC   C4B42766   5.830   9.436   7.486
 3304POPC   NC342767  38.098  39.799   5.546
 3304POPC   PO442768  38.505  40.352   5.499
 3304POPC   GL142769  38.507  40.195   5.881
 3304POPC   GL242770  38.380  39.848   5.955
 3304POPC   C1A42771  38.384  40.246   6.286
 3304POPC   D2A42772  38.606  40.303   6.619
 3304POPC   C3A42773  38.342  40.365   6.933
 3304POPC   C4A42774  38.523  40.323   7.302
 3304POPC   C1B42775  38.150  39.778   6.346
 3304POPC   C2B42776  38.300  39.900   6.762
 3304POPC   C3B42777  38.238  39.895   7.219
 3304POPC   C4B42778  37.978  39.543   7.362
 3305POPC   NC342779  11.770  29.172   5.405
 3305POPC   PO442780  11.136  29.069   5.159
 3305POPC   GL142781  11.298  29.045   5.638
 3305POPC   GL242782  10.989  29.001   5.846
 3305POPC   C1A42783  11.505  29.284   6.043
 3305POPC   D2A42784  11.399  29.451   6.496
 3305POPC   C3A42785  11.521  29.247   6.875
 3305POPC   C4A42786  11.521  29.345   7.267
 3305POPC   C1B42787  11.113  29.058   6.292
 3305POPC   C2B42788  11.084  29.058   6.734
 3305POPC   C3B42789  11.170  28.934   7.165
 3305POPC   C4B42790  10.861  28.841   7.486
 3306POPC   NC342791  39.919  36.667   5.453
 3306POPC   PO442792  39.833  37.355   5.273
 3306POPC   GL142793  40.017  37.112   5.666
 3306POPC   GL242794  39.698  36.926   5.826
 3306POPC   C1A42795  40.127  37.007   6.113
 3306POPC   D2A42796  39.873  37.097   6.492
 3306POPC   C3A42797  40.045  37.031   6.915
 3306POPC   C4A42798  39.932  37.299   7.244
 3306POPC   C1B42799  39.743  36.649   6.186
 3306POPC   C2B42800  39.983  36.610   6.573
 3306POPC   C3B42801  39.824  36.547   6.940
 3306POPC   C4B42802  40.011  36.644   7.289
 3307POPC   NC342803   7.445  27.400   5.507
 3307POPC   PO442804   7.440  28.093   5.535
 3307POPC   GL142805   7.462  27.797   5.873
 3307POPC   GL242806   7.116  27.719   5.787
 3307POPC   C1A42807   7.343  27.459   6.178
 3307POPC   D2A42808   7.149  27.154   6.459
 3307POPC   C3A42809   7.199  27.298   6.877
 3307POPC   C4A42810   7.573  27.302   7.150
 3307POPC   C1B42811   7.053  27.946   6.177
 3307POPC   C2B42812   7.282  28.043   6.570
 3307POPC   C3B42813   7.385  28.152   6.997
 3307POPC   C4B42814   7.332  27.745   7.122
 3308POPC   NC342815   1.048  20.090   5.411
 3308POPC   PO442816   1.290  19.385   5.388
 3308POPC   GL142817   1.252  19.718   5.713
 3308POPC   GL242818   1.590  19.812   5.808
 3308POPC   C1A42819   1.089  19.955   6.085
 3308POPC   D2A42820   1.225  19.907   6.519
 3308POPC   C3A42821   1.149  19.913   6.948
 3308POPC   C4A42822   1.058  19.591   7.224
 3308POPC   C1B42823   1.584  20.035   6.201
 3308POPC   C2B42824   1.681  20.116   6.652
 3308POPC   C3B42825   1.643  19.946   7.065
 3308POPC   C4B42826   1.351  20.104   7.386
 3309POPC   NC342827  43.616  11.512   5.392
 3309POPC   PO442828  44.272  11.347   5.441
 3309POPC   GL142829  44.018  11.259   5.820
 3309POPC   GL242830  43.692  11.434   5.915
 3309POPC   C1A42831  44.088  11.389   6.261
 3309POPC   D2A42832  43.837  11.503   6.618
 3309POPC   C3A42833  43.985  11.370   6.964
 3309POPC   C4A42834  43.954  11.473   7.366
 3309POPC   C1B42835  43.639  11.140   6.301
 3309POPC   C2B42836  43.659  11.013   6.775
 3309POPC   C3B42837  43.644  11.116   7.238
 3309POPC   C4B42838  43.589  11.295   7.682
 3310POPC   NC342839  29.664  30.475   5.523
 3310POPC   PO442840  30.197  30.888   5.497
 3310POPC   GL142841  30.099  31.079   5.897
 3310POPC   GL242842  29.791  30.891   5.848
 3310POPC   C1A42843  29.938  30.983   6.334
 3310POPC   D2A42844  30.026  30.581   6.541
 3310POPC   C3A42845  30.229  30.648   6.905
 3310POPC   C4A42846  30.002  30.823   7.233
 3310POPC   C1B42847  29.650  30.570   6.177
 3310POPC   C2B42848  29.551  30.392   6.600
 3310POPC   C3B42849  29.756  30.410   6.978
 3310POPC   C4B42850  30.067  30.300   7.254
 3311POPC   NC342851  22.588  36.688   5.510
 3311POPC   PO442852  23.061  37.167   5.430
 3311POPC   GL142853  23.002  36.864   5.786
 3311POPC   GL242854  23.072  36.496   5.689
 3311POPC   C1A42855  22.793  36.760   6.209
 3311POPC   D2A42856  22.564  36.721   6.634
 3311POPC   C3A42857  22.789  36.768   7.001
 3311POPC   C4A42858  22.807  37.213   7.136
 3311POPC   C1B42859  23.234  36.513   6.126
 3311POPC   C2B42860  23.273  36.851   6.440
 3311POPC   C3B42861  23.256  36.879   6.864
 3311POPC   C4B42862  23.232  36.454   7.088
 3312POPC   NC342863   2.070  21.625   5.521
 3312POPC   PO442864   1.891  20.972   5.482
 3312POPC   GL142865   1.685  21.207   5.812
 3312POPC   GL242866   1.569  21.566   5.756
 3312POPC   C1A42867   1.798  21.305   6.249
 3312POPC   D2A42868   2.051  21.333   6.616
 3312POPC   C3A42869   1.802  21.346   6.965
 3312POPC   C4A42870   2.014  21.303   7.320
 3312POPC   C1B42871   1.738  21.792   6.149
 3312POPC   C2B42872   1.708  21.727   6.602
 3312POPC   C3B42873   1.673  21.848   7.051
 3312POPC   C4B42874   1.667  21.643   7.425
 3313POPC   NC342875  12.787  26.111   5.340
 3313POPC   PO442876  13.293  26.495   5.451
 3313POPC   GL142877  13.129  26.094   5.704
 3313POPC   GL242878  12.793  26.143   5.858
 3313POPC   C1A42879  13.140  25.891   6.135
 3313POPC   D2A42880  12.921  26.015   6.546
 3313POPC   C3A42881  12.982  25.875   6.987
 3313POPC   C4A42882  12.961  26.015   7.415
 3313POPC   C1B42883  12.604  25.849   6.179
 3313POPC   C2B42884  12.637  25.581   6.610
 3313POPC   C3B42885  12.548  25.561   7.060
 3313POPC   C4B42886  12.547  25.712   7.487
 3314POPC   NC342887  21.586   9.622   5.413
 3314POPC   PO442888  20.970   9.741   5.509
 3314POPC   GL142889  21.291   9.796   5.798
 3314POPC   GL242890  21.279   9.416   5.776
 3314POPC   C1A42891  21.618   9.930   6.131
 3314POPC   D2A42892  21.554   9.966   6.591
 3314POPC   C3A42893  21.693  10.072   7.027
 3314POPC   C4A42894  21.484   9.946   7.427
 3314POPC   C1B42895  21.381   9.497   6.199
 3314POPC   C2B42896  21.510   9.433   6.601
 3314POPC   C3B42897  21.479   9.602   7.001
 3314POPC   C4B42898  21.387   9.400   7.363
 3315POPC   NC342899  16.047  18.616   5.375
 3315POPC   PO442900  15.590  18.118   5.475
 3315POPC   GL142901  15.955  18.068   5.750
 3315POPC   GL242902  16.077  18.388   5.822
 3315POPC   C1A42903  16.004  18.054   6.207
 3315POPC   D2A42904  15.704  17.875   6.537
 3315POPC   C3A42905  15.768  18.066   6.960
 3315POPC   C4A42906  16.044  17.945   7.274
 3315POPC   C1B42907  16.047  18.670   6.169
 3315POPC   C2B42908  16.196  18.915   6.504
 3315POPC   C3B42909  16.291  18.794   6.911
 3315POPC   C4B42910  16.028  18.550   7.151
 3316POPC   NC342911  11.679  37.796   5.490
 3316POPC   PO442912  12.315  37.632   5.521
 3316POPC   GL142913  12.021  37.691   5.875
 3316POPC   GL242914  11.739  37.414   5.842
 3316POPC   C1A42915  12.185  37.774   6.308
 3316POPC   D2A42916  12.220  38.064   6.671
 3316POPC   C3A42917  12.355  37.942   7.088
 3316POPC   C4A42918  12.040  37.816   7.408
 3316POPC   C1B42919  11.786  37.431   6.293
 3316POPC   C2B42920  11.881  37.602   6.704
 3316POPC   C3B42921  12.126  37.486   7.040
 3316POPC   C4B42922  12.089  37.310   7.456
 3317POPC   NC342923  26.115  13.889   5.129
 3317POPC   PO442924  25.931  13.281   5.405
 3317POPC   GL142925  25.887  13.531   5.786
 3317POPC   GL242926  26.138  13.826   5.777
 3317POPC   C1A42927  26.039  13.416   6.208
 3317POPC   D2A42928  26.184  13.657   6.551
 3317POPC   C3A42929  25.994  13.610   6.921
 3317POPC   C4A42930  26.158  13.427   7.295
 3317POPC   C1B42931  26.390  13.878   6.129
 3317POPC   C2B42932  26.546  14.015   6.522
 3317POPC   C3B42933  26.334  14.046   6.913
 3317POPC   C4B42934  26.475  14.032   7.324
 3318POPC   NC342935  29.535   8.264   5.391
 3318POPC   PO442936  28.960   8.090   5.538
 3318POPC   GL142937  29.343   8.106   5.829
 3318POPC   GL242938  29.369   8.459   5.830
 3318POPC   C1A42939  29.444   8.002   6.262
 3318POPC   D2A42940  29.177   7.696   6.553
 3318POPC   C3A42941  28.797   7.898   6.784
 3318POPC   C4A42942  28.861   8.166   7.173
 3318POPC   C1B42943  29.187   8.475   6.228
 3318POPC   C2B42944  29.153   8.242   6.599
 3318POPC   C3B42945  29.267   8.353   6.961
 3318POPC   C4B42946  29.063   8.651   7.200
 3319POPC   NC342947   8.231  14.266   5.219
 3319POPC   PO442948   7.904  14.838   5.330
 3319POPC   GL142949   7.984  14.587   5.716
 3319POPC   GL242950   7.707  14.317   5.737
 3319POPC   C1A42951   8.144  14.716   6.167
 3319POPC   D2A42952   8.065  14.917   6.592
 3319POPC   C3A42953   8.253  14.824   7.009
 3319POPC   C4A42954   8.230  14.487   7.296
 3319POPC   C1B42955   7.970  14.239   6.121
 3319POPC   C2B42956   8.160  14.207   6.528
 3319POPC   C3B42957   7.998  14.157   6.946
 3319POPC   C4B42958   7.911  14.100   7.382
 3320POPC   NC342959   2.183  15.510   5.496
 3320POPC   PO442960   2.154  14.813   5.355
 3320POPC   GL142961   1.973  15.054   5.730
 3320POPC   GL242962   1.791  15.334   5.807
 3320POPC   C1A42963   1.815  15.018   6.197
 3320POPC   D2A42964   1.698  15.149   6.627
 3320POPC   C3A42965   1.991  15.029   6.964
 3320POPC   C4A42966   1.980  14.800   7.382
 3320POPC   C1B42967   1.941  15.549   6.197
 3320POPC   C2B42968   1.867  15.651   6.653
 3320POPC   C3B42969   1.903  15.592   7.095
 3320POPC   C4B42970   2.097  15.316   7.396
 3321POPC   NC342971  12.781  35.590   5.196
 3321POPC   PO442972  12.958  36.168   5.450
 3321POPC   GL142973  12.844  36.174   5.857
 3321POPC   GL242974  12.740  35.866   5.863
 3321POPC   C1A42975  12.987  36.166   6.284
 3321POPC   D2A42976  13.203  36.252   6.670
 3321POPC   C3A42977  12.972  36.116   7.010
 3321POPC   C4A42978  12.936  36.349   7.370
 3321POPC   C1B42979  12.661  35.765   6.295
 3321POPC   C2B42980  12.603  35.871   6.724
 3321POPC   C3B42981  12.611  35.714   7.160
 3321POPC   C4B42982  12.801  35.769   7.569
 3322POPC   NC342983  31.240  37.384   5.609
 3322POPC   PO442984  31.152  38.074   5.635
 3322POPC   GL142985  31.161  37.788   5.909
 3322POPC   GL242986  31.524  37.707   5.891
 3322POPC   C1A42987  31.176  37.566   6.259
 3322POPC   D2A42988  31.399  37.636   6.622
 3322POPC   C3A42989  31.432  37.365   6.965
 3322POPC   C4A42990  31.305  37.594   7.341
 3322POPC   C1B42991  31.543  38.014   6.238
 3322POPC   C2B42992  31.741  38.037   6.656
 3322POPC   C3B42993  31.629  37.854   7.048
 3322POPC   C4B42994  31.829  37.483   7.291
 3323POPC   NC342995  18.853  16.664   5.383
 3323POPC   PO442996  19.512  16.826   5.478
 3323POPC   GL142997  19.188  16.717   5.773
 3323POPC   GL242998  18.916  16.999   5.776
 3323POPC   C1A42999  19.246  16.617   6.202
 3323POPC   D2A43000  19.256  16.954   6.529
 3323POPC   C3A43001  19.322  16.755   6.914
 3323POPC   C4A43002  19.448  16.845   7.301
 3323POPC   C1B43003  18.763  16.791   6.151
 3323POPC   C2B43004  18.863  16.633   6.560
 3323POPC   C3B43005  18.841  16.893   6.915
 3323POPC   C4B43006  18.959  16.786   7.325
 3324POPC   NC343007  17.302  26.925   5.539
 3324POPC   PO443008  17.747  26.419   5.360
 3324POPC   GL143009  17.682  26.673   5.765
 3324POPC   GL243010  17.318  26.641   5.939
 3324POPC   C1A43011  17.644  26.972   6.136
 3324POPC   D2A43012  17.613  26.808   6.567
 3324POPC   C3A43013  17.899  26.993   6.883
 3324POPC   C4A43014  17.794  27.190   7.293
 3324POPC   C1B43015  17.143  26.899   6.274
 3324POPC   C2B43016  17.117  26.968   6.725
 3324POPC   C3B43017  17.388  26.889   7.070
 3324POPC   C4B43018  17.363  26.973   7.482
 3325POPC   NC343019  44.463  38.990   5.500
 3325POPC   PO443020  44.976  39.458   5.401
 3325POPC   GL143021  44.739  39.355   5.778
 3325POPC   GL243022  44.833  39.016   5.863
 3325POPC   C1A43023  44.436  39.227   6.133
 3325POPC   D2A43024  44.394  38.957   6.549
 3325POPC   C3A43025  44.464  39.160   6.972
 3325POPC   C4A43026  44.370  39.422   7.348
 3325POPC   C1B43027  44.927  39.286   6.263
 3325POPC   C2B43028  44.887  39.320   6.717
 3325POPC   C3B43029  44.943  39.118   7.143
 3325POPC   C4B43030  44.718  39.088   7.523
 3326POPC   NC343031   4.753   8.669   5.548
 3326POPC   PO443032   5.366   8.909   5.356
 3326POPC   GL143033   5.197   8.963   5.784
 3326POPC   GL243034   4.867   9.046   5.891
 3326POPC   C1A43035   5.288   8.854   6.230
 3326POPC   D2A43036   5.238   8.655   6.651
 3326POPC   C3A43037   5.428   8.938   6.992
 3326POPC   C4A43038   5.352   9.201   7.373
 3326POPC   C1B43039   4.782   8.739   6.218
 3326POPC   C2B43040   4.710   8.744   6.639
 3326POPC   C3B43041   4.920   8.922   6.979
 3326POPC   C4B43042   4.947   8.815   7.405
 3327POPC   NC343043  11.233  35.853   5.607
 3327POPC   PO443044  11.486  36.366   5.362
 3327POPC   GL143045  11.564  36.262   5.818
 3327POPC   GL243046  11.210  36.173   5.988
 3327POPC   C1A43047  11.522  36.419   6.287
 3327POPC   D2A43048  11.156  36.209   6.532
 3327POPC   C3A43049  11.178  36.125   6.982
 3327POPC   C4A43050  11.466  36.415   7.129
 3327POPC   C1B43051  11.540  35.911   6.200
 3327POPC   C2B43052  11.642  35.923   6.605
 3327POPC   C3B43053  11.582  35.714   6.959
 3327POPC   C4B43054  11.377  35.726   7.328
 3328POPC   NC343055  44.975  20.260   5.399
 3328POPC   PO443056   0.587  19.975   5.324
 3328POPC   GL143057   0.668  20.038   5.755
 3328POPC   GL243058   0.743  19.659   5.842
 3328POPC   C1A43059   0.537  19.991   6.181
 3328POPC   D2A43060   0.304  19.711   6.466
 3328POPC   C3A43061   0.219  19.967   6.834
 3328POPC   C4A43062   0.172  19.959   7.300
 3328POPC   C1B43063   0.812  19.580   6.329
 3328POPC   C2B43064   0.728  19.912   6.667
 3328POPC   C3B43065   0.658  19.917   7.123
 3328POPC   C4B43066   0.586  19.672   7.504
 3329POPC   NC343067   0.531  44.756   5.459
 3329POPC   PO443068   0.879  44.253   5.767
 3329POPC   GL143069   0.557  44.521   5.922
 3329POPC   GL243070   0.224  44.439   5.776
 3329POPC   C1A43071   0.515  44.945   6.105
 3329POPC   D2A43072   0.335   0.046   6.486
 3329POPC   C3A43073   0.543  44.850   6.828
 3329POPC   C4A43074   0.517  44.997   7.246
 3329POPC   C1B43075   0.203  44.249   6.207
 3329POPC   C2B43076   0.127  44.118   6.608
 3329POPC   C3B43077   0.101  44.377   6.973
 3329POPC   C4B43078   0.466  44.492   7.206
 3330POPC   NC343079  23.168  13.563   5.327
 3330POPC   PO443080  22.633  13.900   5.338
 3330POPC   GL143081  22.836  13.669   5.733
 3330POPC   GL243082  23.187  13.536   5.838
 3330POPC   C1A43083  22.952  13.850   6.168
 3330POPC   D2A43084  23.147  13.825   6.572
 3330POPC   C3A43085  22.960  13.739   6.960
 3330POPC   C4A43086  23.066  13.720   7.375
 3330POPC   C1B43087  23.129  13.384   6.273
 3330POPC   C2B43088  23.181  13.320   6.712
 3330POPC   C3B43089  23.081  13.252   7.155
 3330POPC   C4B43090  23.049  13.260   7.624
 3331POPC   NC343091  25.271  43.357   5.438
 3331POPC   PO443092  25.500  42.727   5.351
 3331POPC   GL143093  25.276  42.813   5.786
 3331POPC   GL243094  25.224  43.154   5.902
 3331POPC   C1A43095  25.119  42.835   6.263
 3331POPC   D2A43096  25.151  43.196   6.566
 3331POPC   C3A43097  25.403  43.157   6.945
 3331POPC   C4A43098  25.382  42.939   7.372
 3331POPC   C1B43099  24.870  43.349   6.153
 3331POPC   C2B43100  24.761  43.596   6.548
 3331POPC   C3B43101  24.739  43.479   7.006
 3331POPC   C4B43102  25.059  43.332   7.293
 3332POPC   NC343103  24.018  21.846   5.118
 3332POPC   PO443104  23.555  22.270   5.398
 3332POPC   GL143105  23.872  22.165   5.708
 3332POPC   GL243106  23.601  22.022   5.858
 3332POPC   C1A43107  24.004  22.045   6.177
 3332POPC   D2A43108  23.797  22.176   6.588
 3332POPC   C3A43109  23.926  22.015   6.950
 3332POPC   C4A43110  23.954  22.241   7.294
 3332POPC   C1B43111  23.513  21.916   6.264
 3332POPC   C2B43112  23.289  21.991   6.637
 3332POPC   C3B43113  23.408  21.906   7.045
 3332POPC   C4B43114  23.698  21.622   7.226
 3333POPC   NC343115  28.421  24.212   5.413
 3333POPC   PO443116  28.036  24.823   5.446
 3333POPC   GL143117  28.338  24.645   5.768
 3333POPC   GL243118  28.306  24.310   5.892
 3333POPC   C1A43119  28.508  24.713   6.183
 3333POPC   D2A43120  28.360  24.631   6.609
 3333POPC   C3A43121  28.605  24.581   6.959
 3333POPC   C4A43122  28.688  24.531   7.377
 3333POPC   C1B43123  28.051  24.110   6.177
 3333POPC   C2B43124  27.969  24.281   6.574
 3333POPC   C3B43125  28.222  24.243   6.937
 3333POPC   C4B43126  28.211  24.351   7.355
 3334POPC   NC343127  33.619  14.885   5.387
 3334POPC   PO443128  33.765  15.547   5.361
 3334POPC   GL143129  33.790  15.245   5.715
 3334POPC   GL243130  33.693  15.441   5.968
 3334POPC   C1A43131  34.071  15.124   6.086
 3334POPC   D2A43132  34.176  15.217   6.526
 3334POPC   C3A43133  33.839  15.027   6.775
 3334POPC   C4A43134  33.787  14.946   7.208
 3334POPC   C1B43135  34.018  15.630   6.244
 3334POPC   C2B43136  33.961  15.660   6.695
 3334POPC   C3B43137  33.674  15.486   7.007
 3334POPC   C4B43138  33.583  15.367   7.414
 3335POPC   NC343139  27.865   7.506   5.420
 3335POPC   PO443140  27.317   7.130   5.312
 3335POPC   GL143141  27.437   7.287   5.740
 3335POPC   GL243142  27.750   7.156   5.839
 3335POPC   C1A43143  27.563   7.542   6.122
 3335POPC   D2A43144  27.424   7.546   6.537
 3335POPC   C3A43145  27.742   7.670   6.801
 3335POPC   C4A43146  27.608   7.681   7.193
 3335POPC   C1B43147  27.420   7.057   6.206
 3335POPC   C2B43148  27.215   7.081   6.608
 3335POPC   C3B43149  27.510   7.139   6.941
 3335POPC   C4B43150  27.716   7.209   7.329
 3336POPC   NC343151  44.438  27.199   5.516
 3336POPC   PO443152  44.862  27.653   5.423
 3336POPC   GL143153  44.693  27.548   5.832
 3336POPC   GL243154  44.370  27.714   5.816
 3336POPC   C1A43155  44.746  27.508   6.285
 3336POPC   D2A43156  44.825  27.278   6.655
 3336POPC   C3A43157  44.774  27.554   7.003
 3336POPC   C4A43158  44.977  27.571   7.407
 3336POPC   C1B43159  44.236  27.630   6.250
 3336POPC   C2B43160  44.348  27.439   6.662
 3336POPC   C3B43161  44.267  27.604   7.101
 3336POPC   C4B43162  44.503  27.730   7.467
 3337POPC   NC343163  38.552  44.037   5.248
 3337POPC   PO443164  38.501  43.390   5.279
 3337POPC   GL143165  38.296  43.575   5.767
 3337POPC   GL243166  38.260  43.964   5.848
 3337POPC   C1A43167  38.451  43.718   6.233
 3337POPC   D2A43168  38.658  43.934   6.588
 3337POPC   C3A43169  38.461  43.728   6.965
 3337POPC   C4A43170  38.051  43.626   7.130
 3337POPC   C1B43171  37.931  43.950   6.150
 3337POPC   C2B43172  37.742  44.220   6.488
 3337POPC   C3B43173  37.762  44.037   6.913
 3337POPC   C4B43174  37.943  44.085   7.342
 3338POPC   NC343175  32.453  10.761   5.488
 3338POPC   PO443176  31.948  10.241   5.394
 3338POPC   GL143177  32.108  10.510   5.745
 3338POPC   GL243178  32.041  10.883   5.759
 3338POPC   C1A43179  32.281  10.484   6.190
 3338POPC   D2A43180  32.176  10.758   6.583
 3338POPC   C3A43181  32.317  10.724   7.023
 3338POPC   C4A43182  32.137  10.399   7.283
 3338POPC   C1B43183  31.827  10.743   6.097
 3338POPC   C2B43184  31.817  10.446   6.402
 3338POPC   C3B43185  31.843  10.491   6.850
 3338POPC   C4B43186  31.792  10.758   7.187
 3339POPC   NC343187   6.044  26.339   5.449
 3339POPC   PO443188   5.666  25.724   5.519
 3339POPC   GL143189   5.864  25.678   5.923
 3339POPC   GL243190   5.874  26.027   5.964
 3339POPC   C1A43191   5.947  25.736   6.382
 3339POPC   D2A43192   5.937  25.928   6.801
 3339POPC   C3A43193   5.975  25.669   7.214
 3339POPC   C4A43194   6.068  25.753   7.709
 3339POPC   C1B43195   5.804  26.236   6.377
 3339POPC   C2B43196   5.983  26.457   6.710
 3339POPC   C3B43197   6.185  26.322   7.064
 3339POPC   C4B43198   5.932  26.137   7.404
 3340POPC   NC343199   6.918  15.135   5.381
 3340POPC   PO443200   6.454  15.516   5.546
 3340POPC   GL143201   6.707  15.316   5.827
 3340POPC   GL243202   6.555  14.981   5.747
 3340POPC   C1A43203   6.841  15.404   6.269
 3340POPC   D2A43204   6.819  15.228   6.714
 3340POPC   C3A43205   6.841  15.482   7.106
 3340POPC   C4A43206   6.955  15.466   7.582
 3340POPC   C1B43207   6.378  14.716   6.096
 3340POPC   C2B43208   6.298  14.851   6.529
 3340POPC   C3B43209   6.401  14.974   6.956
 3340POPC   C4B43210   6.233  14.811   7.357
 3341POPC   NC343211  14.660  36.570   5.476
 3341POPC   PO443212  14.357  35.983   5.304
 3341POPC   GL143213  14.357  36.090   5.776
 3341POPC   GL243214  14.578  36.352   5.914
 3341POPC   C1A43215  14.215  36.115   6.241
 3341POPC   D2A43216  14.117  35.801   6.600
 3341POPC   C3A43217  14.093  35.828   7.073
 3341POPC   C4A43218  14.415  35.854   7.416
 3341POPC   C1B43219  14.601  36.469   6.292
 3341POPC   C2B43220  14.574  36.193   6.618
 3341POPC   C3B43221  14.481  36.150   7.017
 3341POPC   C4B43222  14.507  36.346   7.429
 3342POPC   NC343223   6.089  13.031   5.347
 3342POPC   PO443224   6.115  12.368   5.211
 3342POPC   GL143225   5.915  12.608   5.615
 3342POPC   GL243226   5.671  12.888   5.656
 3342POPC   C1A43227   6.074  12.823   6.026
 3342POPC   D2A43228   6.114  12.917   6.494
 3342POPC   C3A43229   6.317  12.999   6.896
 3342POPC   C4A43230   6.093  12.762   7.214
 3342POPC   C1B43231   5.545  12.795   6.096
 3342POPC   C2B43232   5.578  12.937   6.533
 3342POPC   C3B43233   5.614  12.781   6.947
 3342POPC   C4B43234   5.654  13.059   7.288
 3343POPC   NC343235  14.844  12.886   5.362
 3343POPC   PO443236  15.419  12.651   5.514
 3343POPC   GL143237  15.160  12.837   5.804
 3343POPC   GL243238  14.867  12.630   5.807
 3343POPC   C1A43239  15.095  12.977   6.227
 3343POPC   D2A43240  15.265  13.187   6.608
 3343POPC   C3A43241  15.305  13.025   7.014
 3343POPC   C4A43242  15.088  12.977   7.390
 3343POPC   C1B43243  14.839  12.515   6.223
 3343POPC   C2B43244  14.707  12.713   6.564
 3343POPC   C3B43245  14.823  12.805   6.964
 3343POPC   C4B43246  14.712  12.625   7.373
 3344POPC   NC343247  44.206   7.099   5.325
 3344POPC   PO443248  43.627   7.403   5.201
 3344POPC   GL143249  43.825   7.465   5.644
 3344POPC   GL243250  44.075   7.243   5.822
 3344POPC   C1A43251  43.940   7.633   6.118
 3344POPC   D2A43252  43.961   7.881   6.534
 3344POPC   C3A43253  44.121   7.730   6.922
 3344POPC   C4A43254  43.946   7.451   7.226
 3344POPC   C1B43255  43.652   7.220   6.066
 3344POPC   C2B43256  43.572   7.332   6.486
 3344POPC   C3B43257  43.765   7.124   6.853
 3344POPC   C4B43258  43.724   6.984   7.295
 3345POPC   NC343259  14.010   1.142   5.649
 3345POPC   PO443260  13.448   1.440   5.398
 3345POPC   GL143261  13.521   1.218   5.768
 3345POPC   GL243262  13.515   0.871   5.663
 3345POPC   C1A43263  13.718   1.248   6.211
 3345POPC   D2A43264  13.935   1.285   6.640
 3345POPC   C3A43265  13.791   1.326   7.086
 3345POPC   C4A43266  14.066   1.377   7.467
 3345POPC   C1B43267  13.409   0.810   6.106
 3345POPC   C2B43268  13.537   0.908   6.540
 3345POPC   C3B43269  13.737   0.831   6.920
 3345POPC   C4B43270  13.422   0.790   7.199
 3346POPC   NC343271  32.431  44.725   5.320
 3346POPC   PO443272  32.782  44.135   5.376
 3346POPC   GL143273  32.530  44.408   5.704
 3346POPC   GL243274  32.161  44.569   5.719
 3346POPC   C1A43275  32.406  44.466   6.142
 3346POPC   D2A43276  32.114  44.501   6.482
 3346POPC   C3A43277  32.398  44.577   6.789
 3346POPC   C4A43278  32.348  44.626   7.194
 3346POPC   C1B43279  32.036  44.825   6.080
 3346POPC   C2B43280  32.125   0.022   6.491
 3346POPC   C3B43281  32.033  44.942   6.907
 3346POPC   C4B43282  31.869  44.807   7.308
 3347POPC   NC343283  16.127  20.802   5.494
 3347POPC   PO443284  15.750  20.194   5.525
 3347POPC   GL143285  15.867  20.523   5.852
 3347POPC   GL243286  16.212  20.449   5.869
 3347POPC   C1A43287  15.728  20.742   6.274
 3347POPC   D2A43288  15.856  20.887   6.735
 3347POPC   C3A43289  15.809  20.600   7.130
 3347POPC   C4A43290  15.561  20.294   7.438
 3347POPC   C1B43291  16.209  20.597   6.283
 3347POPC   C2B43292  16.404  20.478   6.670
 3347POPC   C3B43293  16.333  20.609   7.124
 3347POPC   C4B43294  16.140  20.871   7.463
 3348POPC   NC343295  43.550  30.103   5.599
 3348POPC   PO443296  42.868  29.890   5.506
 3348POPC   GL143297  42.943  29.724   5.876
 3348POPC   GL243298  43.311  29.746   5.947
 3348POPC   C1A43299  42.826  29.876   6.262
 3348POPC   D2A43300  42.904  29.960   6.676
 3348POPC   C3A43301  42.883  29.630   6.959
 3348POPC   C4A43302  43.199  29.558   7.308
 3348POPC   C1B43303  43.262  30.154   6.195
 3348POPC   C2B43304  42.970  30.411   6.430
 3348POPC   C3B43305  42.963  30.404   6.904
 3348POPC   C4B43306  43.016  30.059   7.208
 3349POPC   NC343307  25.447  23.122   5.483
 3349POPC   PO443308  24.855  22.747   5.277
 3349POPC   GL143309  25.124  22.798   5.668
 3349POPC   GL243310  25.224  22.517   5.840
 3349POPC   C1A43311  25.279  23.006   6.094
 3349POPC   D2A43312  25.168  23.046   6.531
 3349POPC   C3A43313  25.147  22.766   6.907
 3349POPC   C4A43314  24.955  23.108   7.147
 3349POPC   C1B43315  25.464  22.535   6.247
 3349POPC   C2B43316  25.607  22.831   6.598
 3349POPC   C3B43317  25.457  23.140   6.956
 3349POPC   C4B43318  25.383  23.175   7.431
 3350POPC   NC343319   8.138   0.936   5.410
 3350POPC   PO443320   8.390   1.657   5.384
 3350POPC   GL143321   8.396   1.276   5.680
 3350POPC   GL243322   8.033   1.327   5.755
 3350POPC   C1A43323   8.391   1.037   6.095
 3350POPC   D2A43324   8.190   0.998   6.544
 3350POPC   C3A43325   8.397   1.048   6.979
 3350POPC   C4A43326   8.305   1.224   7.425
 3350POPC   C1B43327   7.878   1.152   6.138
 3350POPC   C2B43328   7.765   1.310   6.541
 3350POPC   C3B43329   7.926   1.237   6.941
 3350POPC   C4B43330   7.894   1.491   7.279
 3351POPC   NC343331   9.929  22.982   5.407
 3351POPC   PO443332   9.386  23.366   5.274
 3351POPC   GL143333   9.550  23.229   5.730
 3351POPC   GL243334   9.908  23.124   5.908
 3351POPC   C1A43335   9.507  23.074   6.183
 3351POPC   D2A43336   9.779  23.176   6.532
 3351POPC   C3A43337   9.557  23.131   6.878
 3351POPC   C4A43338   9.690  22.941   7.237
 3351POPC   C1B43339   9.938  22.783   6.263
 3351POPC   C2B43340  10.110  22.772   6.696
 3351POPC   C3B43341  10.109  22.602   7.127
 3351POPC   C4B43342  10.048  22.275   7.445
 3352POPC   NC343343  28.694  33.359   5.608
 3352POPC   PO443344  28.329  33.836   5.250
 3352POPC   GL143345  28.333  33.842   5.696
 3352POPC   GL243346  28.680  33.914   5.825
 3352POPC   C1A43347  28.325  33.721   6.139
 3352POPC   D2A43348  28.453  33.560   6.557
 3352POPC   C3A43349  28.099  33.664   6.819
 3352POPC   C4A43350  27.868  33.858   7.148
 3352POPC   C1B43351  28.828  33.847   6.290
 3352POPC   C2B43352  28.705  34.006   6.731
 3352POPC   C3B43353  28.413  33.940   7.113
 3352POPC   C4B43354  28.495  33.757   7.520
 3353POPC   NC343355  25.916  19.256   5.329
 3353POPC   PO443356  26.277  18.672   5.428
 3353POPC   GL143357  26.043  18.923   5.691
 3353POPC   GL243358  26.226  19.176   5.760
 3353POPC   C1A43359  25.897  18.927   6.110
 3353POPC   D2A43360  25.976  19.147   6.468
 3353POPC   C3A43361  25.912  18.934   6.823
 3353POPC   C4A43362  26.041  18.956   7.235
 3353POPC   C1B43363  26.376  19.276   6.152
 3353POPC   C2B43364  26.504  19.348   6.575
 3353POPC   C3B43365  26.274  19.303   6.926
 3353POPC   C4B43366  26.155  19.465   7.307
 3354POPC   NC343367  42.065  34.552   5.078
 3354POPC   PO443368  42.509  34.360   5.523
 3354POPC   GL143369  42.578  34.568   5.867
 3354POPC   GL243370  42.882  34.369   5.919
 3354POPC   C1A43371  42.391  34.697   6.224
 3354POPC   D2A43372  42.529  34.698   6.612
 3354POPC   C3A43373  42.336  34.545   6.973
 3354POPC   C4A43374  42.413  34.812   7.320
 3354POPC   C1B43375  42.655  34.258   6.280
 3354POPC   C2B43376  42.657  34.192   6.685
 3354POPC   C3B43377  42.827  34.439   6.957
 3354POPC   C4B43378  42.686  34.184   7.247
 3355POPC   NC343379  28.846  19.019   5.183
 3355POPC   PO443380  29.366  19.270   5.321
 3355POPC   GL143381  29.107  19.150   5.680
 3355POPC   GL243382  29.243  19.439   5.800
 3355POPC   C1A43383  29.147  18.881   6.099
 3355POPC   D2A43384  28.950  18.731   6.515
 3355POPC   C3A43385  29.181  18.830   6.917
 3355POPC   C4A43386  29.011  18.978   7.287
 3355POPC   C1B43387  29.067  19.387   6.190
 3355POPC   C2B43388  29.169  19.207   6.566
 3355POPC   C3B43389  29.033  19.360   6.959
 3355POPC   C4B43390  29.274  19.400   7.371
 3356POPC   NC343391   3.274   6.636   5.434
 3356POPC   PO443392   3.903   6.739   5.224
 3356POPC   GL143393   3.783   6.804   5.637
 3356POPC   GL243394   3.784   6.469   5.805
 3356POPC   C1A43395   3.836   6.928   6.070
 3356POPC   D2A43396   3.544   6.959   6.448
 3356POPC   C3A43397   3.664   6.801   6.851
 3356POPC   C4A43398   3.645   6.957   7.268
 3356POPC   C1B43399   3.506   6.507   6.178
 3356POPC   C2B43400   3.264   6.527   6.574
 3356POPC   C3B43401   3.324   6.433   7.022
 3356POPC   C4B43402   3.679   6.452   7.230
 3357POPC   NC343403   9.882  38.552   5.410
 3357POPC   PO443404   9.376  38.187   5.544
 3357POPC   GL143405   9.655  38.401   5.847
 3357POPC   GL243406  10.004  38.243   5.820
 3357POPC   C1A43407   9.732  38.271   6.275
 3357POPC   D2A43408   9.626  38.023   6.611
 3357POPC   C3A43409   9.316  38.188   6.827
 3357POPC   C4A43410   9.280  38.491   7.115
 3357POPC   C1B43411  10.214  38.412   6.198
 3357POPC   C2B43412  10.069  38.579   6.588
 3357POPC   C3B43413   9.740  38.531   6.862
 3357POPC   C4B43414   9.723  38.174   7.125
 3358POPC   NC343415  37.078  14.878   5.474
 3358POPC   PO443416  36.997  14.112   5.365
 3358POPC   GL143417  36.839  14.414   5.628
 3358POPC   GL243418  36.522  14.284   5.737
 3358POPC   C1A43419  36.934  14.429   6.052
 3358POPC   D2A43420  36.854  14.457   6.487
 3358POPC   C3A43421  36.975  14.210   6.830
 3358POPC   C4A43422  36.917  14.360   7.246
 3358POPC   C1B43423  36.524  14.153   6.185
 3358POPC   C2B43424  36.551  14.008   6.609
 3358POPC   C3B43425  36.431  14.126   7.014
 3358POPC   C4B43426  36.539  14.112   7.481
 3359POPC   NC343427  17.493  38.683   5.362
 3359POPC   PO443428  17.302  38.002   5.337
 3359POPC   GL143429  17.399  38.290   5.726
 3359POPC   GL243430  17.324  38.644   5.837
 3359POPC   C1A43431  17.636  38.291   6.129
 3359POPC   D2A43432  17.736  38.524   6.506
 3359POPC   C3A43433  17.575  38.322   6.856
 3359POPC   C4A43434  17.737  38.367   7.229
 3359POPC   C1B43435  17.282  38.636   6.258
 3359POPC   C2B43436  17.332  38.836   6.635
 3359POPC   C3B43437  17.206  38.656   6.989
 3359POPC   C4B43438  17.233  38.333   7.277
 3360POPC   NC343439  27.043   0.199   5.598
 3360POPC   PO443440  26.745   0.802   5.368
 3360POPC   GL143441  26.631   0.643   5.791
 3360POPC   GL243442  26.573   0.282   5.847
 3360POPC   C1A43443  26.767   0.587   6.227
 3360POPC   D2A43444  26.654   0.733   6.630
 3360POPC   C3A43445  26.980   0.784   6.880
 3360POPC   C4A43446  27.136   0.446   7.101
 3360POPC   C1B43447  26.836   0.092   6.217
 3360POPC   C2B43448  26.951   0.228   6.648
 3360POPC   C3B43449  26.676   0.191   7.014
 3360POPC   C4B43450  26.337  44.889   7.115
 3361POPC   NC343451  11.608  11.968   5.412
 3361POPC   PO443452  11.021  12.301   5.446
 3361POPC   GL143453  11.223  12.145   5.784
 3361POPC   GL243454  11.205  11.821   5.802
 3361POPC   C1A43455  11.298  12.114   6.212
 3361POPC   D2A43456  11.061  12.125   6.560
 3361POPC   C3A43457  11.204  11.958   6.927
 3361POPC   C4A43458  11.380  12.119   7.278
 3361POPC   C1B43459  10.997  11.692   6.236
 3361POPC   C2B43460  10.812  11.674   6.703
 3361POPC   C3B43461  10.941  11.597   7.171
 3361POPC   C4B43462  11.041  11.832   7.561
 3362POPC   NC343463  31.363  40.693   5.317
 3362POPC   PO443464  31.746  41.013   5.780
 3362POPC   GL143465  31.822  40.583   5.916
 3362POPC   GL243466  31.491  40.505   5.781
 3362POPC   C1A43467  31.872  40.649   6.353
 3362POPC   D2A43468  31.587  40.981   6.493
 3362POPC   C3A43469  31.442  40.913   6.898
 3362POPC   C4A43470  31.711  40.858   7.251
 3362POPC   C1B43471  31.356  40.595   6.186
 3362POPC   C2B43472  31.443  40.453   6.578
 3362POPC   C3B43473  31.212  40.432   6.936
 3362POPC   C4B43474  31.388  40.451   7.328
 3363POPC   NC343475  32.770   4.572   5.381
 3363POPC   PO443476  33.181   4.039   5.336
 3363POPC   GL143477  33.122   4.320   5.707
 3363POPC   GL243478  32.746   4.236   5.774
 3363POPC   C1A43479  33.035   4.320   6.187
 3363POPC   D2A43480  32.661   4.235   6.493
 3363POPC   C3A43481  32.806   4.112   6.916
 3363POPC   C4A43482  33.178   4.257   7.125
 3363POPC   C1B43483  32.603   4.586   6.073
 3363POPC   C2B43484  32.610   4.761   6.511
 3363POPC   C3B43485  32.870   4.637   6.854
 3363POPC   C4B43486  32.755   4.489   7.273
 3364POPC   NC343487  41.829  36.070   5.511
 3364POPC   PO443488  41.149  36.445   5.522
 3364POPC   GL143489  41.478  36.349   5.804
 3364POPC   GL243490  41.415  36.023   5.858
 3364POPC   C1A43491  41.569  36.404   6.227
 3364POPC   D2A43492  41.425  36.529   6.618
 3364POPC   C3A43493  41.661  36.340   6.945
 3364POPC   C4A43494  41.453  36.097   7.217
 3364POPC   C1B43495  41.631  35.901   6.261
 3364POPC   C2B43496  41.656  35.871   6.700
 3364POPC   C3B43497  41.303  35.715   6.922
 3364POPC   C4B43498  41.334  35.499   7.306
 3365POPC   NC343499  25.997   2.144   5.385
 3365POPC   PO443500  26.472   2.569   5.556
 3365POPC   GL143501  26.238   2.275   5.826
 3365POPC   GL243502  26.066   1.931   5.833
 3365POPC   C1A43503  26.009   2.225   6.225
 3365POPC   D2A43504  25.935   2.328   6.635
 3365POPC   C3A43505  25.979   1.982   6.881
 3365POPC   C4A43506  26.132   2.204   7.191
 3365POPC   C1B43507  26.206   1.722   6.209
 3365POPC   C2B43508  26.468   1.540   6.533
 3365POPC   C3B43509  26.427   1.694   6.946
 3365POPC   C4B43510  26.133   1.700   7.299
 3366POPC   NC343511  16.404  32.032   5.580
 3366POPC   PO443512  16.646  31.538   5.213
 3366POPC   GL143513  16.659  31.587   5.662
 3366POPC   GL243514  16.890  31.838   5.762
 3366POPC   C1A43515  16.695  31.467   6.111
 3366POPC   D2A43516  16.652  31.212   6.500
 3366POPC   C3A43517  16.564  31.421   6.880
 3366POPC   C4A43518  16.771  31.423   7.265
 3366POPC   C1B43519  16.987  31.903   6.171
 3366POPC   C2B43520  16.882  31.700   6.565
 3366POPC   C3B43521  16.876  31.848   6.995
 3366POPC   C4B43522  17.113  31.763   7.392
 3367POPC   NC343523  36.008  39.421   5.358
 3367POPC   PO443524  36.360  38.846   5.535
 3367POPC   GL143525  36.164  39.101   5.822
 3367POPC   GL243526  36.318  39.463   5.771
 3367POPC   C1A43527  36.098  38.983   6.279
 3367POPC   D2A43528  36.214  39.264   6.673
 3367POPC   C3A43529  36.199  39.280   7.133
 3367POPC   C4A43530  35.873  39.041   7.380
 3367POPC   C1B43531  36.203  39.465   6.199
 3367POPC   C2B43532  35.785  39.390   6.421
 3367POPC   C3B43533  35.750  39.390   6.884
 3367POPC   C4B43534  35.805  39.569   7.301
 3368POPC   NC343535   3.408  42.632   4.981
 3368POPC   PO443536   3.690  42.347   5.471
 3368POPC   GL143537   3.682  42.270   5.878
 3368POPC   GL243538   3.337  42.186   5.847
 3368POPC   C1A43539   3.542  42.417   6.263
 3368POPC   D2A43540   3.305  42.458   6.604
 3368POPC   C3A43541   3.535  42.385   6.973
 3368POPC   C4A43542   3.477  42.383   7.416
 3368POPC   C1B43543   3.359  41.941   6.221
 3368POPC   C2B43544   3.456  41.963   6.669
 3368POPC   C3B43545   3.304  41.948   7.114
 3368POPC   C4B43546   3.280  41.969   7.606
 3369POPC   NC343547  40.067  33.365   5.457
 3369POPC   PO443548  40.435  32.879   5.200
 3369POPC   GL143549  40.048  32.851   5.646
 3369POPC   GL243550  39.825  33.090   5.824
 3369POPC   C1A43551  40.183  32.931   6.157
 3369POPC   D2A43552  40.407  32.854   6.548
 3369POPC   C3A43553  40.185  32.959   6.941
 3369POPC   C4A43554  40.278  32.717   7.312
 3369POPC   C1B43555  39.720  32.741   6.154
 3369POPC   C2B43556  39.907  32.729   6.554
 3369POPC   C3B43557  39.756  32.718   6.982
 3369POPC   C4B43558  39.813  32.934   7.378
 3370POPC   NC343559  16.366  33.851   5.359
 3370POPC   PO443560  15.688  33.699   5.405
 3370POPC   GL143561  15.885  33.665   5.802
 3370POPC   GL243562  16.197  33.817   5.835
 3370POPC   C1A43563  15.808  33.648   6.259
 3370POPC   D2A43564  15.610  33.488   6.629
 3370POPC   C3A43565  15.775  33.540   7.050
 3370POPC   C4A43566  15.893  33.843   7.425
 3370POPC   C1B43567  16.053  34.093   6.164
 3370POPC   C2B43568  16.137  33.958   6.571
 3370POPC   C3B43569  15.972  34.009   6.943
 3370POPC   C4B43570  15.839  34.296   7.243
 3371POPC   NC343571  32.310  37.906   5.505
 3371POPC   PO443572  32.572  37.302   5.474
 3371POPC   GL143573  32.406  37.477   5.857
 3371POPC   GL243574  32.050  37.601   5.843
 3371POPC   C1A43575  32.329  37.519   6.299
 3371POPC   D2A43576  32.177  37.333   6.658
 3371POPC   C3A43577  32.442  37.345   7.010
 3371POPC   C4A43578  32.365  37.526   7.410
 3371POPC   C1B43579  32.081  37.958   6.171
 3371POPC   C2B43580  32.275  37.966   6.577
 3371POPC   C3B43581  32.157  37.775   6.966
 3371POPC   C4B43582  32.023  37.950   7.334
 3372POPC   NC343583  32.400  39.752   5.518
 3372POPC   PO443584  32.249  39.149   5.415
 3372POPC   GL143585  32.310  39.314   5.825
 3372POPC   GL243586  32.594  39.096   5.878
 3372POPC   C1A43587  32.279  39.659   6.154
 3372POPC   D2A43588  32.221  39.777   6.578
 3372POPC   C3A43589  32.326  39.537   6.963
 3372POPC   C4A43590  31.944  39.486   7.194
 3372POPC   C1B43591  32.531  39.244   6.310
 3372POPC   C2B43592  32.142  39.251   6.566
 3372POPC   C3B43593  32.040  39.023   6.944
 3372POPC   C4B43594  32.275  39.085   7.350
 3373POPC   NC343595   6.391  38.128   5.599
 3373POPC   PO443596   6.482  37.465   5.581
 3373POPC   GL143597   6.627  37.759   5.862
 3373POPC   GL243598   6.324  37.779   6.002
 3373POPC   C1A43599   6.802  37.902   6.231
 3373POPC   D2A43600   6.602  37.891   6.611
 3373POPC   C3A43601   6.872  37.967   6.920
 3373POPC   C4A43602   6.813  37.772   7.288
 3373POPC   C1B43603   6.140  37.696   6.378
 3373POPC   C2B43604   6.119  37.726   6.787
 3373POPC   C3B43605   6.347  37.699   7.109
 3373POPC   C4B43606   6.207  37.474   7.463
 3374POPC   NC343607   3.782  14.660   5.299
 3374POPC   PO443608   3.560  14.044   5.551
 3374POPC   GL143609   3.640  14.389   5.761
 3374POPC   GL243610   3.351  14.565   5.866
 3374POPC   C1A43611   3.736  14.398   6.192
 3374POPC   D2A43612   3.600  14.232   6.579
 3374POPC   C3A43613   3.673  14.481   6.909
 3374POPC   C4A43614   3.689  14.396   7.317
 3374POPC   C1B43615   3.204  14.319   6.250
 3374POPC   C2B43616   3.110  14.285   6.730
 3374POPC   C3B43617   3.203  14.301   7.186
 3374POPC   C4B43618   3.146  14.542   7.634
 3375POPC   NC343619  43.231  41.950   5.302
 3375POPC   PO443620  43.065  41.258   5.453
 3375POPC   GL143621  42.909  41.496   5.811
 3375POPC   GL243622  42.785  41.802   5.645
 3375POPC   C1A43623  43.060  41.506   6.246
 3375POPC   D2A43624  42.967  41.290   6.626
 3375POPC   C3A43625  43.074  41.266   7.043
 3375POPC   C4A43626  43.449  41.173   7.237
 3375POPC   C1B43627  42.948  41.970   6.076
 3375POPC   C2B43628  43.095  41.923   6.547
 3375POPC   C3B43629  42.998  41.780   6.984
 3375POPC   C4B43630  43.295  41.650   7.293
 3376POPC   NC343631  26.285   8.243   5.333
 3376POPC   PO443632  26.881   8.031   5.334
 3376POPC   GL143633  27.003   8.063   5.785
 3376POPC   GL243634  26.958   8.434   5.834
 3376POPC   C1A43635  26.745   8.085   6.171
 3376POPC   D2A43636  26.557   8.437   6.419
 3376POPC   C3A43637  26.554   8.391   6.866
 3376POPC   C4A43638  26.596   8.077   7.190
 3376POPC   C1B43639  27.076   8.460   6.279
 3376POPC   C2B43640  26.984   8.170   6.633
 3376POPC   C3B43641  27.092   8.185   7.058
 3376POPC   C4B43642  26.902   8.533   7.240
 3377POPC   NC343643  22.528  21.060   5.328
 3377POPC   PO443644  23.078  21.429   5.377
 3377POPC   GL143645  22.920  21.515   5.804
 3377POPC   GL243646  23.194  21.689   5.955
 3377POPC   C1A43647  22.803  21.286   6.220
 3377POPC   D2A43648  22.977  21.057   6.597
 3377POPC   C3A43649  22.806  21.184   6.987
 3377POPC   C4A43650  22.508  21.480   7.157
 3377POPC   C1B43651  23.228  21.518   6.387
 3377POPC   C2B43652  22.915  21.604   6.686
 3377POPC   C3B43653  22.958  21.678   7.108
 3377POPC   C4B43654  23.186  21.676   7.467
 3378POPC   NC343655   8.710  44.220   5.465
 3378POPC   PO443656   9.124  43.667   5.482
 3378POPC   GL143657   8.897  43.878   5.809
 3378POPC   GL243658   8.587  43.699   5.819
 3378POPC   C1A43659   9.048  44.050   6.225
 3378POPC   D2A43660   9.151  43.789   6.588
 3378POPC   C3A43661   9.101  43.970   6.998
 3378POPC   C4A43662   9.128  43.680   7.336
 3378POPC   C1B43663   8.578  43.879   6.234
 3378POPC   C2B43664   8.694  43.999   6.639
 3378POPC   C3B43665   8.560  43.996   7.028
 3378POPC   C4B43666   8.768  44.113   7.385
 3379POPC   NC343667  42.152  25.432   5.199
 3379POPC   PO443668  42.685  25.021   5.373
 3379POPC   GL143669  42.430  25.133   5.706
 3379POPC   GL243670  42.463  25.475   5.628
 3379POPC   C1A43671  42.166  25.345   6.054
 3379POPC   D2A43672  42.099  25.437   6.535
 3379POPC   C3A43673  42.191  25.243   6.968
 3379POPC   C4A43674  42.266  24.867   7.267
 3379POPC   C1B43675  42.675  25.435   6.031
 3379POPC   C2B43676  42.598  25.518   6.436
 3379POPC   C3B43677  42.669  25.373   6.806
 3379POPC   C4B43678  42.658  25.156   7.178
 3380POPC   NC343679  24.897   5.983   5.310
 3380POPC   PO443680  25.375   5.541   5.467
 3380POPC   GL143681  25.201   5.780   5.805
 3380POPC   GL243682  25.126   6.116   5.729
 3380POPC   C1A43683  25.439   6.034   6.129
 3380POPC   D2A43684  25.496   5.931   6.541
 3380POPC   C3A43685  25.741   5.892   6.854
 3380POPC   C4A43686  25.472   5.863   7.182
 3380POPC   C1B43687  24.953   6.219   6.120
 3380POPC   C2B43688  25.158   6.316   6.497
 3380POPC   C3B43689  25.363   6.317   6.881
 3380POPC   C4B43690  25.151   6.227   7.255
 3381POPC   NC343691  33.935  33.195   5.175
 3381POPC   PO443692  33.735  32.627   5.303
 3381POPC   GL143693  33.833  32.945   5.610
 3381POPC   GL243694  33.566  33.216   5.620
 3381POPC   C1A43695  33.763  32.948   6.077
 3381POPC   D2A43696  33.687  32.810   6.520
 3381POPC   C3A43697  33.888  33.041   6.851
 3381POPC   C4A43698  33.959  32.860   7.239
 3381POPC   C1B43699  33.360  33.265   6.057
 3381POPC   C2B43700  33.456  33.289   6.523
 3381POPC   C3B43701  33.399  33.106   6.945
 3381POPC   C4B43702  33.624  33.269   7.322
 3382POPC   NC343703  38.323  22.909   5.289
 3382POPC   PO443704  37.766  22.631   5.546
 3382POPC   GL143705  37.645  22.814   5.964
 3382POPC   GL243706  37.640  23.131   5.815
 3382POPC   C1A43707  37.681  22.829   6.415
 3382POPC   D2A43708  37.988  22.638   6.706
 3382POPC   C3A43709  37.875  22.833   7.070
 3382POPC   C4A43710  37.451  22.756   6.990
 3382POPC   C1B43711  37.449  23.255   6.200
 3382POPC   C2B43712  37.302  23.153   6.633
 3382POPC   C3B43713  37.567  23.241   6.985
 3382POPC   C4B43714  37.690  23.527   7.287
 3383POPC   NC343715  22.329  31.116   5.678
 3383POPC   PO443716  21.930  30.612   5.569
 3383POPC   GL143717  22.112  30.737   5.933
 3383POPC   GL243718  22.477  30.683   5.933
 3383POPC   C1A43719  22.024  30.706   6.341
 3383POPC   D2A43720  22.022  30.404   6.631
 3383POPC   C3A43721  22.174  30.679   6.893
 3383POPC   C4A43722  21.969  30.969   7.169
 3383POPC   C1B43723  22.460  30.960   6.291
 3383POPC   C2B43724  22.577  31.034   6.686
 3383POPC   C3B43725  22.466  31.073   7.096
 3383POPC   C4B43726  22.460  30.662   7.299
 3384POPC   NC343727  37.227  36.262   5.480
 3384POPC   PO443728  36.569  36.438   5.374
 3384POPC   GL143729  36.716  36.311   5.837
 3384POPC   GL243730  37.057  36.284   5.957
 3384POPC   C1A43731  36.737  35.960   6.209
 3384POPC   D2A43732  36.847  35.796   6.640
 3384POPC   C3A43733  36.718  36.073   6.976
 3384POPC   C4A43734  36.703  36.510   7.106
 3384POPC   C1B43735  37.261  35.925   6.156
 3384POPC   C2B43736  37.375  35.710   6.561
 3384POPC   C3B43737  37.348  35.841   6.971
 3384POPC   C4B43738  37.210  36.207   7.205
 3385POPC   NC343739  11.765  44.440   5.724
 3385POPC   PO443740  11.293  44.770   5.303
 3385POPC   GL143741  11.148  44.732   5.720
 3385POPC   GL243742  11.429  44.843   5.874
 3385POPC   C1A43743  11.100  44.528   6.140
 3385POPC   D2A43744  11.059  44.354   6.564
 3385POPC   C3A43745  11.149  44.621   6.904
 3385POPC   C4A43746  11.066  44.599   7.358
 3385POPC   C1B43747  11.599  44.836   6.291
 3385POPC   C2B43748  11.759   0.064   6.662
 3385POPC   C3B43749  11.807  44.967   7.076
 3385POPC   C4B43750  11.554  44.636   7.222
 3386POPC   NC343751   1.722  24.183   5.422
 3386POPC   PO443752   2.008  24.787   5.374
 3386POPC   GL143753   1.834  24.599   5.747
 3386POPC   GL243754   2.143  24.450   5.819
 3386POPC   C1A43755   1.799  24.446   6.195
 3386POPC   D2A43756   2.086  24.579   6.506
 3386POPC   C3A43757   1.965  24.726   6.904
 3386POPC   C4A43758   1.883  24.395   7.190
 3386POPC   C1B43759   2.388  24.720   6.117
 3386POPC   C2B43760   2.587  24.602   6.551
 3386POPC   C3B43761   2.391  24.477   6.952
 3386POPC   C4B43762   2.303  24.605   7.389
 3387POPC   NC343763   5.600   4.180   5.323
 3387POPC   PO443764   5.748   3.424   5.462
 3387POPC   GL143765   5.960   3.458   5.860
 3387POPC   GL243766   6.296   3.504   5.848
 3387POPC   C1A43767   6.070   3.248   6.271
 3387POPC   D2A43768   5.841   3.409   6.668
 3387POPC   C3A43769   6.039   3.494   7.071
 3387POPC   C4A43770   6.164   3.178   7.351
 3387POPC   C1B43771   6.145   3.742   6.261
 3387POPC   C2B43772   5.949   4.005   6.563
 3387POPC   C3B43773   5.950   3.985   6.995
 3387POPC   C4B43774   5.943   3.989   7.429
 3388POPC   NC343775  14.707  19.925   5.437
 3388POPC   PO443776  14.300  19.420   5.524
 3388POPC   GL143777  14.413  19.705   5.886
 3388POPC   GL243778  14.575  20.070   5.904
 3388POPC   C1A43779  14.394  19.696   6.338
 3388POPC   D2A43780  14.617  19.886   6.671
 3388POPC   C3A43781  14.369  19.990   7.001
 3388POPC   C4A43782  14.308  19.646   7.238
 3388POPC   C1B43783  14.190  20.122   6.160
 3388POPC   C2B43784  14.026  19.990   6.590
 3388POPC   C3B43785  13.890  19.770   6.985
 3388POPC   C4B43786  13.985  19.960   7.449
 3389POPC   NC343787  16.720  25.513   5.252
 3389POPC   PO443788  16.503  24.930   5.434
 3389POPC   GL143789  16.760  25.200   5.732
 3389POPC   GL243790  16.864  25.553   5.763
 3389POPC   C1A43791  16.813  25.232   6.196
 3389POPC   D2A43792  16.859  25.051   6.624
 3389POPC   C3A43793  16.551  25.147   6.972
 3389POPC   C4A43794  16.501  24.939   7.376
 3389POPC   C1B43795  17.039  25.686   6.172
 3389POPC   C2B43796  16.978  25.554   6.597
 3389POPC   C3B43797  16.884  25.563   7.021
 3389POPC   C4B43798  16.779  25.355   7.435
 3390POPC   NC343799  33.917   0.630   5.359
 3390POPC   PO443800  34.111   0.013   5.471
 3390POPC   GL143801  33.906   0.132   5.858
 3390POPC   GL243802  33.728   0.465   5.847
 3390POPC   C1A43803  33.927   0.294   6.278
 3390POPC   D2A43804  33.713   0.320   6.658
 3390POPC   C3A43805  34.071   0.430   6.908
 3390POPC   C4A43806  34.119   0.284   7.288
 3390POPC   C1B43807  33.725   0.782   6.203
 3390POPC   C2B43808  33.752   0.854   6.661
 3390POPC   C3B43809  33.653   0.675   7.056
 3390POPC   C4B43810  33.481   0.838   7.431
 3391POPC   NC343811  39.536  15.650   5.448
 3391POPC   PO443812  39.219  15.153   5.179
 3391POPC   GL143813  39.086  15.126   5.660
 3391POPC   GL243814  38.850  15.333   5.891
 3391POPC   C1A43815  39.245  15.053   6.096
 3391POPC   D2A43816  39.343  15.202   6.516
 3391POPC   C3A43817  39.106  15.059   6.843
 3391POPC   C4A43818  39.148  15.101   7.271
 3391POPC   C1B43819  38.966  15.456   6.291
 3391POPC   C2B43820  39.038  15.613   6.682
 3391POPC   C3B43821  38.907  15.501   7.063
 3391POPC   C4B43822  38.872  15.688   7.409
 3392POPC   NC343823  28.618   8.656   5.458
 3392POPC   PO443824  28.151   9.223   5.456
 3392POPC   GL143825  28.302   8.941   5.779
 3392POPC   GL243826  28.570   9.136   5.797
 3392POPC   C1A43827  28.470   8.833   6.203
 3392POPC   D2A43828  28.615   8.895   6.610
 3392POPC   C3A43829  28.422   8.890   7.017
 3392POPC   C4A43830  28.654   8.864   7.457
 3392POPC   C1B43831  28.314   9.312   6.170
 3392POPC   C2B43832  28.189   9.157   6.592
 3392POPC   C3B43833  28.076   9.302   7.002
 3392POPC   C4B43834  28.045   9.501   7.411
 3393POPC   NC343835   6.395  23.658   5.533
 3393POPC   PO443836   6.985  23.915   5.464
 3393POPC   GL143837   6.791  23.729   5.828
 3393POPC   GL243838   6.819  23.394   5.745
 3393POPC   C1A43839   6.571  23.710   6.213
 3393POPC   D2A43840   6.738  23.964   6.504
 3393POPC   C3A43841   6.761  23.740   6.850
 3393POPC   C4A43842   6.502  23.695   7.153
 3393POPC   C1B43843   6.781  23.229   6.185
 3393POPC   C2B43844   6.747  23.277   6.629
 3393POPC   C3B43845   6.956  23.283   7.039
 3393POPC   C4B43846   6.577  23.152   7.175
 3394POPC   NC343847  15.149  18.490   5.356
 3394POPC   PO443848  14.984  17.810   5.384
 3394POPC   GL143849  15.118  17.997   5.781
 3394POPC   GL243850  15.011  18.355   5.824
 3394POPC   C1A43851  15.014  18.036   6.244
 3394POPC   D2A43852  14.831  18.194   6.658
 3394POPC   C3A43853  15.104  18.286   7.030
 3394POPC   C4A43854  15.345  18.009   7.267
 3394POPC   C1B43855  14.821  18.723   6.043
 3394POPC   C2B43856  14.792  18.777   6.506
 3394POPC   C3B43857  14.701  18.598   6.924
 3394POPC   C4B43858  14.825  18.568   7.355
 3395POPC   NC343859  36.979  28.843   5.435
 3395POPC   PO443860  36.471  29.415   5.370
 3395POPC   GL143861  36.785  29.250   5.666
 3395POPC   GL243862  37.045  29.417   5.809
 3395POPC   C1A43863  36.719  28.999   6.039
 3395POPC   D2A43864  36.783  29.051   6.464
 3395POPC   C3A43865  36.582  28.857   6.784
 3395POPC   C4A43866  36.786  28.947   7.158
 3395POPC   C1B43867  36.941  29.461   6.197
 3395POPC   C2B43868  36.860  29.558   6.607
 3395POPC   C3B43869  37.025  29.402   6.968
 3395POPC   C4B43870  36.942  29.374   7.379
 3396POPC   NC343871   1.159  23.397   5.606
 3396POPC   PO443872   1.394  23.914   5.246
 3396POPC   GL143873   1.489  23.825   5.729
 3396POPC   GL243874   1.451  23.519   5.980
 3396POPC   C1A43875   1.584  23.955   6.167
 3396POPC   D2A43876   1.524  23.818   6.599
 3396POPC   C3A43877   1.389  23.995   7.007
 3396POPC   C4A43878   0.941  23.881   7.110
 3396POPC   C1B43879   1.131  23.678   6.266
 3396POPC   C2B43880   0.899  23.658   6.645
 3396POPC   C3B43881   0.877  23.339   6.976
 3396POPC   C4B43882   1.274  23.332   7.151
 3397POPC   NC343883   3.778  15.993   4.979
 3397POPC   PO443884   3.397  15.638   5.435
 3397POPC   GL143885   3.613  15.780   5.791
 3397POPC   GL243886   3.507  16.122   5.797
 3397POPC   C1A43887   3.463  15.779   6.225
 3397POPC   D2A43888   3.581  15.933   6.631
 3397POPC   C3A43889   3.757  15.612   6.880
 3397POPC   C4A43890   3.861  15.683   7.310
 3397POPC   C1B43891   3.465  16.290   6.220
 3397POPC   C2B43892   3.349  16.399   6.654
 3397POPC   C3B43893   3.415  16.273   7.090
 3397POPC   C4B43894   3.386  15.816   7.198
 3398POPC   NC343895   3.937  29.112   5.371
 3398POPC   PO443896   3.337  29.240   5.196
 3398POPC   GL143897   3.371  29.203   5.669
 3398POPC   GL243898   3.718  29.122   5.814
 3398POPC   C1A43899   3.332  29.197   6.141
 3398POPC   D2A43900   3.163  29.078   6.556
 3398POPC   C3A43901   3.373  29.024   6.924
 3398POPC   C4A43902   3.461  29.394   7.134
 3398POPC   C1B43903   3.886  29.298   6.175
 3398POPC   C2B43904   3.679  29.263   6.567
 3398POPC   C3B43905   3.890  29.255   6.923
 3398POPC   C4B43906   3.807  28.985   7.202
 3399POPC   NC343907  15.385  29.313   5.342
 3399POPC   PO443908  14.823  28.959   5.239
 3399POPC   GL143909  15.079  28.994   5.636
 3399POPC   GL243910  15.364  28.767   5.728
 3399POPC   C1A43911  15.239  29.218   6.004
 3399POPC   D2A43912  15.444  29.156   6.401
 3399POPC   C3A43913  15.246  29.313   6.790
 3399POPC   C4A43914  15.276  29.256   7.248
 3399POPC   C1B43915  15.084  28.736   6.117
 3399POPC   C2B43916  15.096  28.823   6.582
 3399POPC   C3B43917  15.396  28.842   6.944
 3399POPC   C4B43918  15.136  28.723   7.277
 3400POPC   NC343919  43.140  13.500   5.379
 3400POPC   PO443920  43.454  14.149   5.436
 3400POPC   GL143921  43.313  13.783   5.752
 3400POPC   GL243922  42.989  13.508   5.846
 3400POPC   C1A43923  43.209  13.789   6.190
 3400POPC   D2A43924  43.403  13.545   6.472
 3400POPC   C3A43925  43.266  13.484   6.886
 3400POPC   C4A43926  43.417  13.540   7.277
 3400POPC   C1B43927  42.948  13.366   6.258
 3400POPC   C2B43928  42.888  13.672   6.609
 3400POPC   C3B43929  42.711  13.542   7.002
 3400POPC   C4B43930  42.936  13.338   7.334
 3401POPC   NC343931  18.502  18.525   5.467
 3401POPC   PO443932  18.023  17.991   5.451
 3401POPC   GL143933  18.293  18.151   5.766
 3401POPC   GL243934  18.094  18.462   5.772
 3401POPC   C1A43935  18.439  18.043   6.188
 3401POPC   D2A43936  18.152  17.992   6.555
 3401POPC   C3A43937  18.368  18.084   6.950
 3401POPC   C4A43938  18.260  18.282   7.333
 3401POPC   C1B43939  18.283  18.530   6.153
 3401POPC   C2B43940  18.207  18.549   6.569
 3401POPC   C3B43941  18.341  18.649   6.970
 3401POPC   C4B43942  18.062  18.763   7.292
 3402POPC   NC343943   0.503  30.390   5.643
 3402POPC   PO443944   0.475  29.810   5.199
 3402POPC   GL143945   0.579  29.888   5.694
 3402POPC   GL243946   0.298  29.993   5.892
 3402POPC   C1A43947   0.683  30.118   6.178
 3402POPC   D2A43948   0.820  30.128   6.633
 3402POPC   C3A43949   0.637  30.327   7.017
 3402POPC   C4A43950   0.611  30.176   7.471
 3402POPC   C1B43951   0.364  29.757   6.300
 3402POPC   C2B43952   0.191  29.799   6.699
 3402POPC   C3B43953   0.337  29.886   7.102
 3402POPC   C4B43954   0.186  29.866   7.504
 3403POPC   NC343955   6.269  32.192   5.424
 3403POPC   PO443956   5.608  32.363   5.333
 3403POPC   GL143957   5.855  32.308   5.716
 3403POPC   GL243958   6.104  32.569   5.768
 3403POPC   C1A43959   5.799  32.071   6.101
 3403POPC   D2A43960   5.580  32.045   6.501
 3403POPC   C3A43961   5.765  32.276   6.835
 3403POPC   C4A43962   5.642  32.166   7.230
 3403POPC   C1B43963   6.224  32.372   6.156
 3403POPC   C2B43964   6.401  32.196   6.545
 3403POPC   C3B43965   6.368  32.345   6.966
 3403POPC   C4B43966   6.103  32.361   7.315
 3404POPC   NC343967   7.032  22.321   5.589
 3404POPC   PO443968   7.595  21.939   5.452
 3404POPC   GL143969   7.712  22.103   5.850
 3404POPC   GL243970   7.473  22.365   5.838
 3404POPC   C1A43971   7.681  22.285   6.285
 3404POPC   D2A43972   7.459  22.061   6.588
 3404POPC   C3A43973   7.715  22.034   6.909
 3404POPC   C4A43974   7.532  22.022   7.285
 3404POPC   C1B43975   7.174  22.299   6.213
 3404POPC   C2B43976   7.152  22.495   6.605
 3404POPC   C3B43977   7.293  22.362   6.983
 3404POPC   C4B43978   7.038  22.006   7.114
 3405POPC   NC343979  16.968  37.646   5.399
 3405POPC   PO443980  16.368  37.858   5.610
 3405POPC   GL143981  16.689  37.882   5.888
 3405POPC   GL243982  16.774  37.551   5.877
 3405POPC   C1A43983  16.827  37.891   6.315
 3405POPC   D2A43984  17.048  37.791   6.703
 3405POPC   C3A43985  16.751  37.752   7.013
 3405POPC   C4A43986  16.746  37.721   7.445
 3405POPC   C1B43987  16.660  37.338   6.251
 3405POPC   C2B43988  16.795  37.339   6.695
 3405POPC   C3B43989  16.651  37.265   7.145
 3405POPC   C4B43990  16.589  37.295   7.637
 3406POPC   NC343991  35.810  19.871   5.775
 3406POPC   PO443992  36.393  19.989   5.438
 3406POPC   GL143993  36.324  20.061   5.846
 3406POPC   GL243994  36.325  19.701   5.871
 3406POPC   C1A43995  36.531  20.100   6.240
 3406POPC   D2A43996  36.270  20.130   6.595
 3406POPC   C3A43997  36.065  19.928   6.907
 3406POPC   C4A43998  36.218  20.069   7.291
 3406POPC   C1B43999  36.209  19.705   6.298
 3406POPC   C2B44000  36.267  19.491   6.665
 3406POPC   C3B44001  36.285  19.504   7.087
 3406POPC   C4B44002  36.076  19.608   7.475
 3407POPC   NC344003  34.996  25.964   5.456
 3407POPC   PO444004  34.347  26.356   5.318
 3407POPC   GL144005  34.583  26.225   5.692
 3407POPC   GL244006  34.593  25.870   5.786
 3407POPC   C1A44007  34.421  26.228   6.111
 3407POPC   D2A44008  34.505  26.496   6.429
 3407POPC   C3A44009  34.539  26.340   6.808
 3407POPC   C4A44010  34.499  26.095   7.116
 3407POPC   C1B44011  34.642  25.677   6.205
 3407POPC   C2B44012  34.525  25.536   6.630
 3407POPC   C3B44013  34.576  25.601   7.078
 3407POPC   C4B44014  34.835  25.845   7.390
 3408POPC   NC344015   9.969  19.837   5.405
 3408POPC   PO444016  10.627  20.092   5.328
 3408POPC   GL144017  10.667  19.880   5.732
 3408POPC   GL244018  10.316  19.799   5.783
 3408POPC   C1A44019  10.622  19.740   6.200
 3408POPC   D2A44020  10.491  19.872   6.619
 3408POPC   C3A44021  10.643  19.653   6.972
 3408POPC   C4A44022  10.788  19.711   7.397
 3408POPC   C1B44023  10.049  19.965   6.105
 3408POPC   C2B44024   9.843  19.928   6.506
 3408POPC   C3B44025  10.049  20.004   6.892
 3408POPC   C4B44026  10.278  19.883   7.235
 3409POPC   NC344027   4.568  38.578   5.405
 3409POPC   PO444028   5.232  38.300   5.462
 3409POPC   GL144029   5.135  38.585   5.832
 3409POPC   GL244030   4.812  38.765   5.820
 3409POPC   C1A44031   5.118  38.560   6.309
 3409POPC   D2A44032   5.238  38.776   6.716
 3409POPC   C3A44033   5.227  38.507   7.107
 3409POPC   C4A44034   4.989  38.187   7.394
 3409POPC   C1B44035   4.612  38.768   6.218
 3409POPC   C2B44036   4.715  38.645   6.619
 3409POPC   C3B44037   4.748  38.390   6.976
 3409POPC   C4B44038   4.615  38.543   7.380
 3410POPC   NC344039   5.404  18.792   5.179
 3410POPC   PO444040   5.995  19.089   5.176
 3410POPC   GL144041   6.043  18.930   5.661
 3410POPC   GL244042   5.739  18.788   5.887
 3410POPC   C1A44043   6.150  19.110   6.117
 3410POPC   D2A44044   6.025  19.314   6.525
 3410POPC   C3A44045   5.932  19.090   6.896
 3410POPC   C4A44046   5.800  19.247   7.282
 3410POPC   C1B44047   5.693  18.956   6.349
 3410POPC   C2B44048   5.492  19.248   6.693
 3410POPC   C3B44049   5.375  19.046   7.092
 3410POPC   C4B44050   5.502  18.622   7.138
 3411POPC   NC344051   5.213  37.121   5.320
 3411POPC   PO444052   5.762  36.882   5.202
 3411POPC   GL144053   5.547  37.022   5.689
 3411POPC   GL244054   5.151  36.945   5.772
 3411POPC   C1A44055   5.429  36.897   6.169
 3411POPC   D2A44056   5.337  37.058   6.597
 3411POPC   C3A44057   5.245  36.808   6.943
 3411POPC   C4A44058   5.038  36.989   7.275
 3411POPC   C1B44059   4.928  36.687   6.059
 3411POPC   C2B44060   4.914  36.619   6.481
 3411POPC   C3B44061   4.772  36.645   6.878
 3411POPC   C4B44062   4.915  36.495   7.250
 3412POPC   NC344063  16.354  15.373   5.453
 3412POPC   PO444064  15.958  14.847   5.170
 3412POPC   GL144065  15.942  14.925   5.636
 3412POPC   GL244066  16.203  15.065   5.813
 3412POPC   C1A44067  15.685  14.988   6.043
 3412POPC   D2A44068  15.731  15.187   6.472
 3412POPC   C3A44069  15.934  15.014   6.852
 3412POPC   C4A44070  15.775  15.126   7.269
 3412POPC   C1B44071  16.170  14.964   6.233
 3412POPC   C2B44072  16.232  15.337   6.479
 3412POPC   C3B44073  16.194  15.500   6.865
 3412POPC   C4B44074  16.261  15.274   7.230
 3413POPC   NC344075   1.165  44.466   5.478
 3413POPC   PO444076   0.879   0.082   5.405
 3413POPC   GL144077   1.162  44.927   5.742
 3413POPC   GL244078   1.335  44.604   5.909
 3413POPC   C1A44079   1.021  44.908   6.150
 3413POPC   D2A44080   0.823  44.651   6.435
 3413POPC   C3A44081   1.052  44.735   6.796
 3413POPC   C4A44082   0.971  44.751   7.229
 3413POPC   C1B44083   1.318  44.509   6.303
 3413POPC   C2B44084   1.234  44.285   6.637
 3413POPC   C3B44085   1.429  44.448   6.990
 3413POPC   C4B44086   1.313  44.357   7.392
 3414POPC   NC344087  24.355   3.869   5.606
 3414POPC   PO444088  24.511   3.377   5.252
 3414POPC   GL144089  24.494   3.362   5.719
 3414POPC   GL244090  24.165   3.420   5.869
 3414POPC   C1A44091  24.663   3.520   6.137
 3414POPC   D2A44092  24.670   3.764   6.532
 3414POPC   C3A44093  24.539   3.499   6.880
 3414POPC   C4A44094  24.488   3.306   7.280
 3414POPC   C1B44095  24.157   3.739   6.226
 3414POPC   C2B44096  24.204   3.887   6.647
 3414POPC   C3B44097  24.478   3.984   6.990
 3414POPC   C4B44098  24.380   3.800   7.361
 3415POPC   NC344099  42.956  33.036   5.270
 3415POPC   PO444100  43.605  33.030   5.174
 3415POPC   GL144101  43.363  33.146   5.626
 3415POPC   GL244102  43.009  33.189   5.774
 3415POPC   C1A44103  43.347  33.153   6.142
 3415POPC   D2A44104  43.250  32.856   6.486
 3415POPC   C3A44105  43.380  32.965   6.907
 3415POPC   C4A44106  43.389  33.070   7.328
 3415POPC   C1B44107  42.909  33.390   6.211
 3415POPC   C2B44108  42.799  33.171   6.616
 3415POPC   C3B44109  42.898  33.051   7.059
 3415POPC   C4B44110  42.927  33.326   7.416
 3416POPC   NC344111   0.579  17.013   5.580
 3416POPC   PO444112   0.427  17.569   5.298
 3416POPC   GL144113   0.324  17.469   5.742
 3416POPC   GL244114   0.073  17.728   5.824
 3416POPC   C1A44115   0.491  17.565   6.170
 3416POPC   D2A44116   0.646  17.622   6.599
 3416POPC   C3A44117   0.411  17.517   6.982
 3416POPC   C4A44118   0.415  17.608   7.449
 3416POPC   C1B44119   0.123  17.915   6.243
 3416POPC   C2B44120   0.264  17.963   6.686
 3416POPC   C3B44121   0.200  17.963   7.154
 3416POPC   C4B44122   0.216  18.044   7.628
 3417POPC   NC344123  11.946  26.501   5.518
 3417POPC   PO444124  12.345  25.979   5.342
 3417POPC   GL144125  12.270  26.110   5.762
 3417POPC   GL244126  11.972  25.971   5.816
 3417POPC   C1A44127  12.190  26.150   6.226
 3417POPC   D2A44128  12.197  25.863   6.569
 3417POPC   C3A44129  12.467  26.028   6.876
 3417POPC   C4A44130  12.451  26.178   7.280
 3417POPC   C1B44131  11.855  25.763   6.168
 3417POPC   C2B44132  11.647  25.772   6.547
 3417POPC   C3B44133  11.845  25.705   6.923
 3417POPC   C4B44134  12.116  25.764   7.243
 3418POPC   NC344135  32.986  30.913   5.457
 3418POPC   PO444136  32.668  30.334   5.412
 3418POPC   GL144137  32.791  30.582   5.793
 3418POPC   GL244138  32.610  30.936   5.814
 3418POPC   C1A44139  33.068  30.601   6.179
 3418POPC   D2A44140  33.154  30.398   6.610
 3418POPC   C3A44141  33.156  30.663   6.984
 3418POPC   C4A44142  33.010  30.699   7.417
 3418POPC   C1B44143  32.801  31.061   6.233
 3418POPC   C2B44144  32.730  31.158   6.687
 3418POPC   C3B44145  32.893  31.121   7.124
 3418POPC   C4B44146  32.823  31.149   7.604
 3419POPC   NC344147  41.585  12.611   5.618
 3419POPC   PO444148  41.730  13.266   5.481
 3419POPC   GL144149  41.838  12.985   5.822
 3419POPC   GL244150  41.471  13.001   5.953
 3419POPC   C1A44151  41.787  12.782   6.256
 3419POPC   D2A44152  41.564  13.053   6.560
 3419POPC   C3A44153  41.738  13.031   6.960
 3419POPC   C4A44154  41.788  12.624   7.165
 3419POPC   C1B44155  41.265  12.700   6.294
 3419POPC   C2B44156  41.011  12.528   6.666
 3419POPC   C3B44157  41.016  12.475   7.141
 3419POPC   C4B44158  41.002  12.810   7.456
 3420POPC   NC344159   7.630  35.643   5.451
 3420POPC   PO444160   7.198  35.068   5.495
 3420POPC   GL144161   7.357  35.349   5.815
 3420POPC   GL244162   7.689  35.257   5.858
 3420POPC   C1A44163   7.239  35.482   6.251
 3420POPC   D2A44164   7.000  35.324   6.637
 3420POPC   C3A44165   7.288  35.230   6.976
 3420POPC   C4A44166   7.537  35.539   7.168
 3420POPC   C1B44167   7.759  35.582   6.175
 3420POPC   C2B44168   7.699  35.510   6.620
 3420POPC   C3B44169   7.778  35.118   6.856
 3420POPC   C4B44170   7.712  35.051   7.268
 3421POPC   NC344171  21.022  11.499   5.086
 3421POPC   PO444172  21.452  11.054   5.459
 3421POPC   GL144173  21.299  11.207   5.829
 3421POPC   GL244174  21.423  11.554   5.889
 3421POPC   C1A44175  21.467  11.147   6.222
 3421POPC   D2A44176  21.369  11.315   6.603
 3421POPC   C3A44177  21.488  11.102   6.923
 3421POPC   C4A44178  21.618  11.324   7.295
 3421POPC   C1B44179  21.114  11.558   6.239
 3421POPC   C2B44180  20.889  11.481   6.649
 3421POPC   C3B44181  21.068  11.359   7.060
 3421POPC   C4B44182  21.174  11.406   7.507
 3422POPC   NC344183  44.902   7.803   5.621
 3422POPC   PO444184  44.614   7.354   5.140
 3422POPC   GL144185  44.601   7.256   5.645
 3422POPC   GL244186  44.896   7.219   5.867
 3422POPC   C1A44187  44.475   7.153   6.134
 3422POPC   D2A44188  44.307   7.363   6.556
 3422POPC   C3A44189  44.441   7.322   7.020
 3422POPC   C4A44190  44.427   7.655   7.369
 3422POPC   C1B44191   0.062   7.364   6.262
 3422POPC   C2B44192  44.880   7.439   6.673
 3422POPC   C3B44193  44.854   7.632   7.059
 3422POPC   C4B44194  44.833   7.348   7.390
 3423POPC   NC344195  30.958   8.618   5.255
 3423POPC   PO444196  31.409   8.098   5.367
 3423POPC   GL144197  31.419   8.282   5.773
 3423POPC   GL244198  31.155   8.484   5.819
 3423POPC   C1A44199  31.582   8.391   6.182
 3423POPC   D2A44200  31.717   8.186   6.564
 3423POPC   C3A44201  31.542   8.222   6.983
 3423POPC   C4A44202  31.484   7.917   7.315
 3423POPC   C1B44203  31.175   8.691   6.193
 3423POPC   C2B44204  31.308   8.586   6.597
 3423POPC   C3B44205  31.118   8.509   7.000
 3423POPC   C4B44206  31.261   8.368   7.404
 3424POPC   NC344207  39.848  29.732   5.496
 3424POPC   PO444208  40.427  29.871   5.337
 3424POPC   GL144209  40.248  29.986   5.745
 3424POPC   GL244210  40.304  29.669   5.846
 3424POPC   C1A44211  39.998  29.900   6.164
 3424POPC   D2A44212  40.223  29.883   6.570
 3424POPC   C3A44213  40.043  30.002   6.939
 3424POPC   C4A44214  39.907  30.200   7.299
 3424POPC   C1B44215  40.310  29.502   6.241
 3424POPC   C2B44216  40.041  29.394   6.603
 3424POPC   C3B44217  39.998  29.508   7.041
 3424POPC   C4B44218  40.261  29.610   7.400
 3425POPC   NC344219   0.258   1.213   5.381
 3425POPC   PO444220   0.641   1.799   5.355
 3425POPC   GL144221   0.501   1.534   5.710
 3425POPC   GL244222   0.582   1.169   5.778
 3425POPC   C1A44223   0.374   1.453   6.134
 3425POPC   D2A44224   0.728   1.214   6.331
 3425POPC   C3A44225   0.722   1.240   6.775
 3425POPC   C4A44226   0.473   1.243   7.167
 3425POPC   C1B44227   0.300   0.956   6.076
 3425POPC   C2B44228   0.258   1.106   6.505
 3425POPC   C3B44229   0.069   1.145   6.885
 3425POPC   C4B44230   0.117   0.868   7.210
 3426POPC   NC344231  32.472  28.697   5.408
 3426POPC   PO444232  32.789  28.110   5.451
 3426POPC   GL144233  32.425  28.291   5.703
 3426POPC   GL244234  32.082  28.287   5.617
 3426POPC   C1A44235  32.291  28.404   6.103
 3426POPC   D2A44236  32.435  28.355   6.508
 3426POPC   C3A44237  32.262  28.614   6.829
 3426POPC   C4A44238  32.258  28.375   7.177
 3426POPC   C1B44239  31.885  28.117   5.996
 3426POPC   C2B44240  31.930  28.207   6.451
 3426POPC   C3B44241  31.949  28.072   6.883
 3426POPC   C4B44242  31.775  28.251   7.282
 3427POPC   NC344243  36.134  44.890   5.275
 3427POPC   PO444244  36.243  44.207   5.192
 3427POPC   GL144245  36.447  44.421   5.609
 3427POPC   GL244246  36.230  44.693   5.739
 3427POPC   C1A44247  36.494  44.414   6.071
 3427POPC   D2A44248  36.210  44.477   6.427
 3427POPC   C3A44249  36.235  44.239   6.804
 3427POPC   C4A44250  36.195  44.423   7.208
 3427POPC   C1B44251  35.903  44.755   6.070
 3427POPC   C2B44252  35.742  44.742   6.491
 3427POPC   C3B44253  35.900  44.696   6.886
 3427POPC   C4B44254  35.836  44.823   7.302
 3428POPC   NC344255   8.731  20.767   5.401
 3428POPC   PO444256   9.356  20.669   5.701
 3428POPC   GL144257   9.004  20.727   5.840
 3428POPC   GL244258   8.866  20.422   5.792
 3428POPC   C1A44259   8.880  20.920   6.208
 3428POPC   D2A44260   8.944  20.869   6.626
 3428POPC   C3A44261   8.581  20.762   6.837
 3428POPC   C4A44262   8.510  20.687   7.273
 3428POPC   C1B44263   9.064  20.427   6.245
 3428POPC   C2B44264   8.880  20.356   6.652
 3428POPC   C3B44265   8.939  20.494   7.086
 3428POPC   C4B44266   8.892  20.359   7.539
 3429POPC   NC344267  16.513   8.120   5.513
 3429POPC   PO444268  16.916   8.656   5.514
 3429POPC   GL144269  17.025   8.291   5.803
 3429POPC   GL244270  16.829   7.995   5.914
 3429POPC   C1A44271  17.171   8.217   6.220
 3429POPC   D2A44272  17.028   8.122   6.634
 3429POPC   C3A44273  16.664   8.314   6.796
 3429POPC   C4A44274  16.766   8.451   7.168
 3429POPC   C1B44275  16.818   7.762   6.302
 3429POPC   C2B44276  16.635   7.803   6.726
 3429POPC   C3B44277  16.657   7.934   7.156
 3429POPC   C4B44278  16.459   7.786   7.556
 3430POPC   NC344279  18.633  42.316   5.424
 3430POPC   PO444280  18.994  42.850   5.269
 3430POPC   GL144281  18.890  42.674   5.712
 3430POPC   GL244282  19.067  42.352   5.742
 3430POPC   C1A44283  19.021  42.603   6.177
 3430POPC   D2A44284  19.155  42.377   6.568
 3430POPC   C3A44285  19.178  42.584   6.995
 3430POPC   C4A44286  18.845  42.636   7.303
 3430POPC   C1B44287  18.852  42.134   6.101
 3430POPC   C2B44288  18.668  42.184   6.489
 3430POPC   C3B44289  18.771  42.288   6.900
 3430POPC   C4B44290  18.583  42.202   7.262
 3431POPC   NC344291   9.995  14.663   5.466
 3431POPC   PO444292   9.501  14.138   5.468
 3431POPC   GL144293   9.678  14.381   5.796
 3431POPC   GL244294   9.934  14.178   5.806
 3431POPC   C1A44295   9.548  14.401   6.236
 3431POPC   D2A44296   9.690  14.514   6.629
 3431POPC   C3A44297   9.662  14.251   6.983
 3431POPC   C4A44298   9.583  14.515   7.300
 3431POPC   C1B44299   9.973  14.010   6.227
 3431POPC   C2B44300  10.061  14.130   6.649
 3431POPC   C3B44301  10.198  14.040   7.075
 3431POPC   C4B44302   9.976  14.200   7.477
 3432POPC   NC344303  19.707  29.708   5.415
 3432POPC   PO444304  19.763  30.350   5.514
 3432POPC   GL144305  19.788  30.080   5.833
 3432POPC   GL244306  20.074  29.856   5.845
 3432POPC   C1A44307  19.653  30.034   6.258
 3432POPC   D2A44308  19.950  29.905   6.575
 3432POPC   C3A44309  19.907  29.669   6.911
 3432POPC   C4A44310  19.867  29.851   7.308
 3432POPC   C1B44311  20.139  30.185   6.186
 3432POPC   C2B44312  20.312  30.265   6.614
 3432POPC   C3B44313  20.198  30.115   7.013
 3432POPC   C4B44314  20.214  30.164   7.480
 3433POPC   NC344315   4.068   7.188   5.255
 3433POPC   PO444316   4.477   6.580   5.411
 3433POPC   GL144317   4.274   6.669   5.748
 3433POPC   GL244318   4.283   7.011   5.715
 3433POPC   C1A44319   4.243   6.583   6.161
 3433POPC   D2A44320   4.003   6.672   6.492
 3433POPC   C3A44321   4.131   6.526   6.895
 3433POPC   C4A44322   4.106   6.734   7.252
 3433POPC   C1B44323   4.578   6.969   6.092
 3433POPC   C2B44324   4.471   6.910   6.551
 3433POPC   C3B44325   4.584   6.910   7.000
 3433POPC   C4B44326   4.599   6.548   7.261
 3434POPC   NC344327   1.222  40.263   5.110
 3434POPC   PO444328   1.095  39.787   5.622
 3434POPC   GL144329   1.389  39.892   5.897
 3434POPC   GL244330   1.521  40.185   5.727
 3434POPC   C1A44331   1.377  39.792   6.315
 3434POPC   D2A44332   1.168  40.061   6.550
 3434POPC   C3A44333   1.077  39.973   6.943
 3434POPC   C4A44334   1.174  40.134   7.301
 3434POPC   C1B44335   1.487  40.298   6.159
 3434POPC   C2B44336   1.677  40.209   6.523
 3434POPC   C3B44337   1.533  40.222   6.900
 3434POPC   C4B44338   1.701  40.262   7.280
 3435POPC   NC344339  30.521  13.884   5.521
 3435POPC   PO444340  30.444  14.532   5.415
 3435POPC   GL144341  30.434  14.466   5.838
 3435POPC   GL244342  30.369  14.134   5.923
 3435POPC   C1A44343  30.674  14.438   6.214
 3435POPC   D2A44344  30.932  14.219   6.489
 3435POPC   C3A44345  30.740  14.331   6.877
 3435POPC   C4A44346  30.889  14.336   7.278
 3435POPC   C1B44347  30.248  14.133   6.329
 3435POPC   C2B44348  30.283  14.435   6.615
 3435POPC   C3B44349  30.225  14.286   6.998
 3435POPC   C4B44350  30.407  14.218   7.379
 3436POPC   NC344351   7.284  24.254   5.576
 3436POPC   PO444352   7.830  24.556   5.297
 3436POPC   GL144353   7.704  24.560   5.794
 3436POPC   GL244354   7.365  24.552   5.997
 3436POPC   C1A44355   7.767  24.361   6.244
 3436POPC   D2A44356   7.921  24.288   6.690
 3436POPC   C3A44357   7.667  24.527   6.994
 3436POPC   C4A44358   7.339  24.823   7.075
 3436POPC   C1B44359   7.278  24.169   6.232
 3436POPC   C2B44360   7.230  24.029   6.622
 3436POPC   C3B44361   6.951  24.205   6.930
 3436POPC   C4B44362   7.158  24.345   7.261
 3437POPC   NC344363  18.023   8.011   5.582
 3437POPC   PO444364  18.385   8.512   5.227
 3437POPC   GL144365  18.401   8.351   5.704
 3437POPC   GL244366  18.124   8.327   5.978
 3437POPC   C1A44367  18.609   8.174   6.130
 3437POPC   D2A44368  18.587   7.849   6.518
 3437POPC   C3A44369  18.602   7.999   6.937
 3437POPC   C4A44370  18.453   8.293   7.248
 3437POPC   C1B44371  18.157   7.995   6.271
 3437POPC   C2B44372  18.080   8.066   6.692
 3437POPC   C3B44373  18.122   7.923   7.091
 3437POPC   C4B44374  18.013   8.102   7.489
 3438POPC   NC344375  28.766  33.548   5.089
 3438POPC   PO444376  29.090  34.033   5.393
 3438POPC   GL144377  29.122  33.682   5.708
 3438POPC   GL244378  29.210  33.968   5.906
 3438POPC   C1A44379  29.181  33.491   6.131
 3438POPC   D2A44380  29.371  33.658   6.515
 3438POPC   C3A44381  29.215  33.559   6.931
 3438POPC   C4A44382  28.875  33.739   7.161
 3438POPC   C1B44383  29.196  34.240   6.236
 3438POPC   C2B44384  29.224  34.141   6.638
 3438POPC   C3B44385  29.355  34.137   7.027
 3438POPC   C4B44386  29.072  34.163   7.337
 3439POPC   NC344387  19.239  34.969   5.508
 3439POPC   PO444388  19.194  35.699   5.390
 3439POPC   GL144389  19.020  35.444   5.716
 3439POPC   GL244390  18.651  35.382   5.751
 3439POPC   C1A44391  19.125  35.281   6.108
 3439POPC   D2A44392  19.130  35.458   6.496
 3439POPC   C3A44393  19.286  35.168   6.761
 3439POPC   C4A44394  19.337  35.448   7.070
 3439POPC   C1B44395  18.596  35.181   6.170
 3439POPC   C2B44396  18.792  35.081   6.576
 3439POPC   C3B44397  18.829  35.338   6.952
 3439POPC   C4B44398  18.562  35.206   7.278
 3440POPC   NC344399  11.034  27.255   5.522
 3440POPC   PO444400  11.360  27.857   5.345
 3440POPC   GL144401  11.289  27.733   5.786
 3440POPC   GL244402  11.430  27.392   5.848
 3440POPC   C1A44403  11.364  27.776   6.244
 3440POPC   D2A44404  11.508  27.459   6.556
 3440POPC   C3A44405  11.584  27.678   6.941
 3440POPC   C4A44406  11.228  27.833   7.158
 3440POPC   C1B44407  11.126  27.349   6.179
 3440POPC   C2B44408  10.992  27.356   6.628
 3440POPC   C3B44409  11.199  27.318   7.002
 3440POPC   C4B44410  11.451  27.381   7.334
 3441POPC   NC344411  37.122   7.078   5.319
 3441POPC   PO444412  36.651   6.640   5.334
 3441POPC   GL144413  36.831   6.841   5.717
 3441POPC   GL244414  37.178   6.982   5.841
 3441POPC   C1A44415  36.656   6.994   6.077
 3441POPC   D2A44416  36.579   6.979   6.487
 3441POPC   C3A44417  36.753   6.635   6.750
 3441POPC   C4A44418  36.708   6.332   7.115
 3441POPC   C1B44419  37.103   6.844   6.257
 3441POPC   C2B44420  36.879   6.451   6.312
 3441POPC   C3B44421  36.999   6.180   6.688
 3441POPC   C4B44422  37.210   6.302   7.057
 3442POPC   NC344423  41.217   1.971   5.183
 3442POPC   PO444424  40.730   2.184   5.477
 3442POPC   GL144425  40.747   2.027   5.872
 3442POPC   GL244426  40.846   2.332   5.996
 3442POPC   C1A44427  40.691   1.899   6.296
 3442POPC   D2A44428  40.805   2.123   6.658
 3442POPC   C3A44429  40.568   2.028   7.037
 3442POPC   C4A44430  40.491   2.218   7.455
 3442POPC   C1B44431  41.168   2.066   6.214
 3442POPC   C2B44432  41.314   1.971   6.658
 3442POPC   C3B44433  41.141   2.118   7.043
 3442POPC   C4B44434  40.923   1.945   7.394
 3443POPC   NC344435   3.242  37.819   5.430
 3443POPC   PO444436   3.858  37.608   5.372
 3443POPC   GL144437   3.667  37.625   5.771
 3443POPC   GL244438   3.376  37.411   5.714
 3443POPC   C1A44439   3.471  37.739   6.186
 3443POPC   D2A44440   3.296  37.852   6.629
 3443POPC   C3A44441   3.551  37.804   7.031
 3443POPC   C4A44442   3.507  37.874   7.459
 3443POPC   C1B44443   3.298  37.228   6.135
 3443POPC   C2B44444   3.401  37.324   6.590
 3443POPC   C3B44445   3.231  37.391   7.030
 3443POPC   C4B44446   3.408  37.387   7.465
 3444POPC   NC344447  28.504  22.696   5.426
 3444POPC   PO444448  27.999  23.182   5.418
 3444POPC   GL144449  28.172  22.943   5.765
 3444POPC   GL244450  28.521  23.028   5.840
 3444POPC   C1A44451  28.189  23.005   6.231
 3444POPC   D2A44452  28.426  23.200   6.592
 3444POPC   C3A44453  28.414  22.924   6.971
 3444POPC   C4A44454  28.124  22.898   7.326
 3444POPC   C1B44455  28.684  22.766   6.208
 3444POPC   C2B44456  28.948  22.694   6.620
 3444POPC   C3B44457  28.878  22.569   7.078
 3444POPC   C4B44458  28.712  22.827   7.445
 3445POPC   NC344459  37.307   1.939   5.370
 3445POPC   PO444460  38.077   2.019   5.339
 3445POPC   GL144461  37.909   2.201   5.739
 3445POPC   GL244462  37.560   2.146   5.869
 3445POPC   C1A44463  37.961   2.076   6.189
 3445POPC   D2A44464  37.719   2.178   6.566
 3445POPC   C3A44465  37.832   2.306   6.966
 3445POPC   C4A44466  37.663   2.033   7.293
 3445POPC   C1B44467  37.504   1.879   6.195
 3445POPC   C2B44468  37.334   1.819   6.577
 3445POPC   C3B44469  37.305   1.768   7.006
 3445POPC   C4B44470  37.271   1.743   7.433
 3446POPC   NC344471  22.473  12.022   5.429
 3446POPC   PO444472  21.960  12.436   5.234
 3446POPC   GL144473  22.131  12.293   5.706
 3446POPC   GL244474  22.132  11.913   5.811
 3446POPC   C1A44475  22.220  12.287   6.191
 3446POPC   D2A44476  22.454  12.546   6.520
 3446POPC   C3A44477  22.385  12.338   6.897
 3446POPC   C4A44478  22.013  12.220   7.174
 3446POPC   C1B44479  22.140  11.754   6.236
 3446POPC   C2B44480  22.166  11.931   6.653
 3446POPC   C3B44481  22.182  11.729   7.049
 3446POPC   C4B44482  21.873  11.757   7.366
 3447POPC   NC344483  33.233  38.415   5.366
 3447POPC   PO444484  32.617  38.219   5.379
 3447POPC   GL144485  32.869  38.303   5.729
 3447POPC   GL244486  32.790  38.624   5.850
 3447POPC   C1A44487  32.985  38.237   6.159
 3447POPC   D2A44488  32.862  38.449   6.531
 3447POPC   C3A44489  32.920  38.248   6.937
 3447POPC   C4A44490  32.843  38.472   7.319
 3447POPC   C1B44491  33.203  38.710   6.056
 3447POPC   C2B44492  33.398  38.729   6.471
 3447POPC   C3B44493  33.199  38.672   6.879
 3447POPC   C4B44494  33.171  38.852   7.293
 3448POPC   NC344495  25.352  16.105   5.448
 3448POPC   PO444496  25.233  15.469   5.322
 3448POPC   GL144497  25.233  15.697   5.725
 3448POPC   GL244498  25.583  15.754   5.845
 3448POPC   C1A44499  25.106  15.939   6.104
 3448POPC   D2A44500  25.034  15.791   6.524
 3448POPC   C3A44501  25.255  15.916   6.884
 3448POPC   C4A44502  25.290  16.072   7.293
 3448POPC   C1B44503  25.580  15.912   6.312
 3448POPC   C2B44504  25.685  15.725   6.735
 3448POPC   C3B44505  25.542  15.610   7.170
 3448POPC   C4B44506  25.534  15.371   7.551
 3449POPC   NC344507  31.527  38.334   5.560
 3449POPC   PO444508  31.418  39.015   5.423
 3449POPC   GL144509  31.561  38.779   5.802
 3449POPC   GL244510  31.231  38.559   5.909
 3449POPC   C1A44511  31.653  38.572   6.204
 3449POPC   D2A44512  31.423  38.427   6.555
 3449POPC   C3A44513  31.657  38.504   6.925
 3449POPC   C4A44514  31.623  38.318   7.317
 3449POPC   C1B44515  31.067  38.762   6.290
 3449POPC   C2B44516  30.983  38.651   6.711
 3449POPC   C3B44517  31.175  38.450   7.066
 3449POPC   C4B44518  31.195  38.595   7.525
 3450POPC   NC344519   6.964  26.446   5.586
 3450POPC   PO444520   6.553  26.891   5.294
 3450POPC   GL144521   6.503  26.700   5.724
 3450POPC   GL244522   6.802  26.842   5.845
 3450POPC   C1A44523   6.608  26.520   6.173
 3450POPC   D2A44524   6.527  26.535   6.613
 3450POPC   C3A44525   6.813  26.647   6.923
 3450POPC   C4A44526   6.549  26.650   7.265
 3450POPC   C1B44527   6.586  27.027   6.192
 3450POPC   C2B44528   6.675  27.080   6.621
 3450POPC   C3B44529   6.637  27.100   7.051
 3450POPC   C4B44530   6.725  27.105   7.485
 3451POPC   NC344531   0.005   6.907   5.484
 3451POPC   PO444532  44.401   6.696   5.143
 3451POPC   GL144533  44.385   6.800   5.699
 3451POPC   GL244534  44.689   6.741   5.873
 3451POPC   C1A44535  44.298   6.626   6.157
 3451POPC   D2A44536  44.450   6.832   6.558
 3451POPC   C3A44537  44.672   6.735   6.960
 3451POPC   C4A44538  44.649   6.878   7.424
 3451POPC   C1B44539  44.784   6.473   6.246
 3451POPC   C2B44540   0.131   6.411   6.518
 3451POPC   C3B44541   0.057   6.370   6.945
 3451POPC   C4B44542   0.067   6.593   7.332
 3452POPC   NC344543  10.536   1.516   5.434
 3452POPC   PO444544  10.228   0.918   5.508
 3452POPC   GL144545  10.221   1.253   5.776
 3452POPC   GL244546  10.597   1.213   5.847
 3452POPC   C1A44547  10.268   1.248   6.216
 3452POPC   D2A44548  10.591   1.343   6.456
 3452POPC   C3A44549  10.348   1.317   6.775
 3452POPC   C4A44550  10.459   1.351   7.146
 3452POPC   C1B44551  10.813   0.965   6.160
 3452POPC   C2B44552  10.977   0.946   6.542
 3452POPC   C3B44553  10.802   1.052   6.884
 3452POPC   C4B44554  10.919   1.145   7.256
 3453POPC   NC344555   9.239  16.082   5.571
 3453POPC   PO444556   8.915  15.567   5.415
 3453POPC   GL144557   8.740  15.763   5.813
 3453POPC   GL244558   8.733  16.129   5.807
 3453POPC   C1A44559   8.801  15.830   6.285
 3453POPC   D2A44560   9.029  16.068   6.610
 3453POPC   C3A44561   9.136  15.829   6.984
 3453POPC   C4A44562   9.412  15.534   7.162
 3453POPC   C1B44563   8.772  16.357   6.223
 3453POPC   C2B44564   8.740  16.521   6.669
 3453POPC   C3B44565   8.767  16.196   7.025
 3453POPC   C4B44566   8.765  16.141   7.511
 3454POPC   NC344567   6.688  44.070   5.487
 3454POPC   PO444568   6.811  43.418   5.440
 3454POPC   GL144569   6.724  43.657   5.813
 3454POPC   GL244570   6.398  43.662   5.781
 3454POPC   C1A44571   6.600  43.841   6.229
 3454POPC   D2A44572   6.887  43.835   6.570
 3454POPC   C3A44573   6.966  44.153   6.842
 3454POPC   C4A44574   6.767  44.013   7.177
 3454POPC   C1B44575   6.344  43.393   6.098
 3454POPC   C2B44576   6.312  43.492   6.512
 3454POPC   C3B44577   6.452  43.742   6.864
 3454POPC   C4B44578   6.350  43.592   7.267
 3455POPC   NC344579  27.377   0.427   5.066
 3455POPC   PO444580  27.686   0.706   5.629
 3455POPC   GL144581  27.596   0.329   5.785
 3455POPC   GL244582  27.951   0.250   5.853
 3455POPC   C1A44583  27.301   0.356   6.161
 3455POPC   D2A44584  27.340   0.565   6.544
 3455POPC   C3A44585  27.555   0.335   6.844
 3455POPC   C4A44586  27.608   0.363   7.306
 3455POPC   C1B44587  27.750   0.138   6.244
 3455POPC   C2B44588  27.856  44.957   6.614
 3455POPC   C3B44589  28.009   0.172   6.972
 3455POPC   C4B44590  28.111   0.276   7.359
 3456POPC   NC344591  34.812   6.566   5.319
 3456POPC   PO444592  34.305   6.841   5.467
 3456POPC   GL144593  34.605   6.740   5.787
 3456POPC   GL244594  34.751   6.415   5.796
 3456POPC   C1A44595  34.678   6.745   6.223
 3456POPC   D2A44596  34.718   6.508   6.591
 3456POPC   C3A44597  34.664   6.679   6.978
 3456POPC   C4A44598  34.500   6.819   7.382
 3456POPC   C1B44599  34.959   6.291   6.178
 3456POPC   C2B44600  34.901   6.026   6.542
 3456POPC   C3B44601  34.868   6.170   6.963
 3456POPC   C4B44602  34.722   6.339   7.371
 3457POPC   NC344603  20.945  12.417   5.475
 3457POPC   PO444604  20.573  11.817   5.543
 3457POPC   GL144605  20.501  12.075   5.926
 3457POPC   GL244606  20.819  12.132   5.885
 3457POPC   C1A44607  20.568  12.353   6.302
 3457POPC   D2A44608  20.728  12.302   6.738
 3457POPC   C3A44609  20.506  12.300   7.128
 3457POPC   C4A44610  20.388  11.948   7.409
 3457POPC   C1B44611  21.009  12.088   6.271
 3457POPC   C2B44612  21.188  11.898   6.615
 3457POPC   C3B44613  21.000  11.873   6.980
 3457POPC   C4B44614  21.000  12.227   7.199
 3458POPC   NC344615  14.367  32.801   5.415
 3458POPC   PO444616  14.795  33.329   5.432
 3458POPC   GL144617  14.579  33.135   5.792
 3458POPC   GL244618  14.204  33.145   5.774
 3458POPC   C1A44619  14.609  33.243   6.250
 3458POPC   D2A44620  14.626  33.060   6.679
 3458POPC   C3A44621  14.636  33.198   7.135
 3458POPC   C4A44622  14.657  33.216   7.607
 3458POPC   C1B44623  14.263  32.883   6.144
 3458POPC   C2B44624  14.159  32.793   6.581
 3458POPC   C3B44625  14.208  32.944   7.012
 3458POPC   C4B44626  14.315  32.872   7.440
 3459POPC   NC344627   3.309  16.745   5.442
 3459POPC   PO444628   3.896  16.472   5.339
 3459POPC   GL144629   3.732  16.604   5.755
 3459POPC   GL244630   3.919  16.902   5.817
 3459POPC   C1A44631   3.498  16.784   6.120
 3459POPC   D2A44632   3.622  16.824   6.547
 3459POPC   C3A44633   3.437  16.820   6.943
 3459POPC   C4A44634   3.524  16.903   7.411
 3459POPC   C1B44635   3.892  17.125   6.219
 3459POPC   C2B44636   3.754  17.301   6.608
 3459POPC   C3B44637   3.815  17.117   7.028
 3459POPC   C4B44638   4.041  16.908   7.374
 3460POPC   NC344639  39.972  11.943   5.347
 3460POPC   PO444640  40.515  12.349   5.432
 3460POPC   GL144641  40.202  12.144   5.770
 3460POPC   GL244642  39.806  12.067   5.816
 3460POPC   C1A44643  40.064  12.195   6.224
 3460POPC   D2A44644  39.899  12.338   6.643
 3460POPC   C3A44645  39.813  12.034   6.944
 3460POPC   C4A44646  40.248  11.975   7.054
 3460POPC   C1B44647  39.879  11.725   6.124
 3460POPC   C2B44648  40.027  11.798   6.546
 3460POPC   C3B44649  40.032  11.550   6.909
 3460POPC   C4B44650  39.865  11.620   7.261
 3461POPC   NC344651   9.678  39.467   5.092
 3461POPC   PO444652   9.602  38.908   5.328
 3461POPC   GL144653   9.778  38.995   5.759
 3461POPC   GL244654  10.047  38.762   5.852
 3461POPC   C1A44655   9.847  39.289   6.163
 3461POPC   D2A44656   9.754  39.547   6.579
 3461POPC   C3A44657   9.744  39.355   7.002
 3461POPC   C4A44658   9.568  38.956   7.170
 3461POPC   C1B44659   9.756  38.789   6.230
 3461POPC   C2B44660   9.827  39.021   6.625
 3461POPC   C3B44661  10.070  38.936   6.992
 3461POPC   C4B44662   9.970  38.639   7.327
 3462POPC   NC344663  28.193  40.256   5.483
 3462POPC   PO444664  28.732  40.042   5.187
 3462POPC   GL144665  28.608  39.956   5.651
 3462POPC   GL244666  28.293  39.853   5.774
 3462POPC   C1A44667  28.557  40.114   6.142
 3462POPC   D2A44668  28.355  40.035   6.578
 3462POPC   C3A44669  28.498  40.169   7.009
 3462POPC   C4A44670  28.719  40.222   7.418
 3462POPC   C1B44671  28.192  39.686   6.175
 3462POPC   C2B44672  28.270  39.523   6.597
 3462POPC   C3B44673  28.273  39.687   7.007
 3462POPC   C4B44674  28.611  39.747   7.280
 3463POPC   NC344675  27.895  32.592   5.564
 3463POPC   PO444676  28.521  32.942   5.433
 3463POPC   GL144677  28.290  32.959   5.786
 3463POPC   GL244678  28.229  33.329   5.796
 3463POPC   C1A44679  28.427  32.766   6.183
 3463POPC   D2A44680  28.530  32.929   6.568
 3463POPC   C3A44681  28.592  32.767   6.942
 3463POPC   C4A44682  28.376  32.891   7.311
 3463POPC   C1B44683  28.249  33.224   6.218
 3463POPC   C2B44684  28.075  33.193   6.596
 3463POPC   C3B44685  28.296  33.209   6.929
 3463POPC   C4B44686  28.248  33.411   7.279
 3464POPC   NC344687  39.390  27.781   5.493
 3464POPC   PO444688  38.911  27.390   5.459
 3464POPC   GL144689  39.038  27.665   5.863
 3464POPC   GL244690  39.374  27.730   5.981
 3464POPC   C1A44691  39.038  27.782   6.340
 3464POPC   D2A44692  39.343  27.694   6.636
 3464POPC   C3A44693  39.234  27.803   7.051
 3464POPC   C4A44694  38.957  27.479   7.219
 3464POPC   C1B44695  39.404  27.312   6.172
 3464POPC   C2B44696  39.449  27.182   6.595
 3464POPC   C3B44697  39.383  27.321   7.003
 3464POPC   C4B44698  39.660  27.576   7.231
 3465POPC   NC344699  21.488   8.641   5.244
 3465POPC   PO444700  21.344   9.254   5.251
 3465POPC   GL144701  21.512   8.985   5.622
 3465POPC   GL244702  21.385   8.632   5.758
 3465POPC   C1A44703  21.495   9.017   6.073
 3465POPC   D2A44704  21.301   8.891   6.469
 3465POPC   C3A44705  21.402   9.015   6.880
 3465POPC   C4A44706  21.192   8.938   7.255
 3465POPC   C1B44707  21.539   8.498   6.202
 3465POPC   C2B44708  21.617   8.559   6.672
 3465POPC   C3B44709  21.502   8.569   7.099
 3465POPC   C4B44710  21.670   8.725   7.469
 3466POPC   NC344711   5.270   2.205   5.552
 3466POPC   PO444712   4.906   2.885   5.434
 3466POPC   GL144713   5.209   2.873   5.794
 3466POPC   GL244714   5.338   2.566   5.915
 3466POPC   C1A44715   5.222   2.963   6.242
 3466POPC   D2A44716   4.943   3.043   6.566
 3466POPC   C3A44717   5.113   3.020   6.992
 3466POPC   C4A44718   4.919   2.937   7.396
 3466POPC   C1B44719   5.217   2.437   6.316
 3466POPC   C2B44720   5.167   2.583   6.721
 3466POPC   C3B44721   4.963   2.508   7.105
 3466POPC   C4B44722   5.161   2.393   7.489
 3467POPC   NC344723  32.517  35.349   5.467
 3467POPC   PO444724  32.056  34.874   5.430
 3467POPC   GL144725  32.146  35.144   5.788
 3467POPC   GL244726  32.409  34.979   5.819
 3467POPC   C1A44727  32.226  35.365   6.221
 3467POPC   D2A44728  32.151  35.604   6.630
 3467POPC   C3A44729  32.489  35.559   6.945
 3467POPC   C4A44730  32.414  35.258   7.238
 3467POPC   C1B44731  32.116  34.860   6.194
 3467POPC   C2B44732  32.013  35.024   6.611
 3467POPC   C3B44733  32.033  34.957   7.049
 3467POPC   C4B44734  31.790  35.034   7.374
 3468POPC   NC344735  19.724  19.678   5.443
 3468POPC   PO444736  20.244  20.014   5.403
 3468POPC   GL144737  20.026  19.908   5.801
 3468POPC   GL244738  19.626  19.937   5.881
 3468POPC   C1A44739  19.966  19.855   6.253
 3468POPC   D2A44740  19.682  19.952   6.596
 3468POPC   C3A44741  19.889  19.885   6.968
 3468POPC   C4A44742  20.061  19.492   7.081
 3468POPC   C1B44743  19.437  19.598   6.149
 3468POPC   C2B44744  19.240  19.668   6.565
 3468POPC   C3B44745  19.396  19.656   6.983
 3468POPC   C4B44746  19.334  19.375   7.323
 3469POPC   NC344747  39.553  37.842   5.591
 3469POPC   PO444748  38.862  37.584   5.509
 3469POPC   GL144749  39.105  37.716   5.814
 3469POPC   GL244750  39.150  37.391   5.933
 3469POPC   C1A44751  39.064  37.889   6.225
 3469POPC   D2A44752  39.431  37.929   6.546
 3469POPC   C3A44753  39.416  37.956   7.017
 3469POPC   C4A44754  39.249  37.810   7.426
 3469POPC   C1B44755  39.216  37.437   6.368
 3469POPC   C2B44756  39.100  37.594   6.766
 3469POPC   C3B44757  39.416  37.448   7.076
 3469POPC   C4B44758  39.481  37.340   7.494
 3470POPC   NC344759   6.879  10.247   5.498
 3470POPC   PO444760   6.563  10.835   5.471
 3470POPC   GL144761   6.575  10.692   5.850
 3470POPC   GL244762   6.441  10.341   5.843
 3470POPC   C1A44763   6.814  10.571   6.191
 3470POPC   D2A44764   6.783  10.191   6.431
 3470POPC   C3A44765   6.728  10.324   6.866
 3470POPC   C4A44766   6.820  10.476   7.286
 3470POPC   C1B44767   6.307  10.493   6.260
 3470POPC   C2B44768   6.377  10.669   6.674
 3470POPC   C3B44769   6.356  10.564   7.137
 3470POPC   C4B44770   6.435  10.563   7.623
 3471POPC   NC344771   2.233   6.008   5.220
 3471POPC   PO444772   1.634   5.731   5.305
 3471POPC   GL144773   1.937   5.768   5.685
 3471POPC   GL244774   2.101   6.124   5.726
 3471POPC   C1A44775   2.030   5.854   6.145
 3471POPC   D2A44776   2.005   5.953   6.576
 3471POPC   C3A44777   2.215   5.688   6.866
 3471POPC   C4A44778   2.063   5.667   7.278
 3471POPC   C1B44779   2.357   6.259   6.121
 3471POPC   C2B44780   2.483   6.080   6.551
 3471POPC   C3B44781   2.310   6.197   6.969
 3471POPC   C4B44782   2.215   6.125   7.434
 3472POPC   NC344783  30.601   6.451   5.386
 3472POPC   PO444784  30.463   7.130   5.423
 3472POPC   GL144785  30.695   6.942   5.793
 3472POPC   GL244786  31.056   7.056   5.860
 3472POPC   C1A44787  30.817   6.611   6.094
 3472POPC   D2A44788  30.576   6.404   6.405
 3472POPC   C3A44789  30.682   6.502   6.828
 3472POPC   C4A44790  30.546   6.466   7.256
 3472POPC   C1B44791  30.901   7.110   6.242
 3472POPC   C2B44792  30.944   6.895   6.574
 3472POPC   C3B44793  31.049   7.051   6.935
 3472POPC   C4B44794  30.947   6.759   7.205
 3473POPC   NC344795  11.041  38.318   5.362
 3473POPC   PO444796  10.335  38.437   5.417
 3473POPC   GL144797  10.530  38.280   5.791
 3473POPC   GL244798  10.553  38.616   5.869
 3473POPC   C1A44799  10.744  38.145   6.207
 3473POPC   D2A44800  10.949  38.133   6.651
 3473POPC   C3A44801  10.625  38.062   7.030
 3473POPC   C4A44802  10.673  38.041   7.519
 3473POPC   C1B44803  10.657  38.660   6.265
 3473POPC   C2B44804  10.540  38.422   6.638
 3473POPC   C3B44805  10.394  38.527   7.072
 3473POPC   C4B44806  10.438  38.520   7.551
 3474POPC   NC344807  19.870  21.960   5.403
 3474POPC   PO444808  19.539  22.428   5.149
 3474POPC   GL144809  19.623  22.319   5.665
 3474POPC   GL244810  19.533  21.963   5.765
 3474POPC   C1A44811  19.788  22.176   6.154
 3474POPC   D2A44812  19.946  22.037   6.626
 3474POPC   C3A44813  19.967  22.358   7.005
 3474POPC   C4A44814  19.632  22.538   7.299
 3474POPC   C1B44815  19.407  21.816   6.158
 3474POPC   C2B44816  19.405  21.998   6.570
 3474POPC   C3B44817  19.507  22.138   6.978
 3474POPC   C4B44818  19.479  22.077   7.433
 3475POPC   NC344819   5.471  21.982   5.339
 3475POPC   PO444820   4.841  22.297   5.343
 3475POPC   GL144821   5.074  22.063   5.680
 3475POPC   GL244822   5.382  22.239   5.783
 3475POPC   C1A44823   5.068  22.034   6.143
 3475POPC   D2A44824   5.060  22.153   6.581
 3475POPC   C3A44825   5.029  21.850   6.931
 3475POPC   C4A44826   5.117  22.086   7.295
 3475POPC   C1B44827   5.573  22.445   6.140
 3475POPC   C2B44828   5.488  22.474   6.574
 3475POPC   C3B44829   5.476  22.231   6.943
 3475POPC   C4B44830   5.610  22.349   7.342
 3476POPC   NC344831  29.824  22.112   5.401
 3476POPC   PO444832  30.288  22.620   5.222
 3476POPC   GL144833  30.155  22.429   5.654
 3476POPC   GL244834  30.070  22.085   5.844
 3476POPC   C1A44835  30.081  22.535   6.105
 3476POPC   D2A44836  29.945  22.309   6.471
 3476POPC   C3A44837  30.158  22.143   6.813
 3476POPC   C4A44838  30.050  22.381   7.167
 3476POPC   C1B44839  29.675  22.108   6.084
 3476POPC   C2B44840  29.551  21.979   6.496
 3476POPC   C3B44841  29.576  21.791   6.904
 3476POPC   C4B44842  29.917  21.873   7.229
 3477POPC   NC344843  28.425  14.682   5.339
 3477POPC   PO444844  28.071  14.170   5.566
 3477POPC   GL144845  28.337  14.438   5.817
 3477POPC   GL244846  28.675  14.386   5.699
 3477POPC   C1A44847  28.336  14.582   6.269
 3477POPC   D2A44848  28.339  14.593   6.725
 3477POPC   C3A44849  28.596  14.547   7.058
 3477POPC   C4A44850  28.366  14.547   7.430
 3477POPC   C1B44851  28.715  14.198   6.114
 3477POPC   C2B44852  28.492  14.127   6.514
 3477POPC   C3B44853  28.724  14.070   6.915
 3477POPC   C4B44854  28.793  14.180   7.375
 3478POPC   NC344855  28.545   7.889   5.509
 3478POPC   PO444856  28.185   8.428   5.420
 3478POPC   GL144857  28.202   8.189   5.796
 3478POPC   GL244858  28.446   8.430   5.885
 3478POPC   C1A44859  28.258   8.139   6.268
 3478POPC   D2A44860  28.049   8.117   6.676
 3478POPC   C3A44861  28.386   8.198   6.982
 3478POPC   C4A44862  28.477   7.903   7.346
 3478POPC   C1B44863  28.045   8.575   6.091
 3478POPC   C2B44864  28.117   8.612   6.537
 3478POPC   C3B44865  27.985   8.557   6.983
 3478POPC   C4B44866  28.258   8.549   7.354
 3479POPC   NC344867  20.189   8.623   5.559
 3479POPC   PO444868  19.638   9.003   5.276
 3479POPC   GL144869  19.721   9.190   5.744
 3479POPC   GL244870  20.099   9.110   5.765
 3479POPC   C1A44871  19.601   9.225   6.204
 3479POPC   D2A44872  19.449   9.291   6.647
 3479POPC   C3A44873  19.573   8.936   6.923
 3479POPC   C4A44874  19.748   8.652   7.232
 3479POPC   C1B44875  20.077   8.979   6.203
 3479POPC   C2B44876  19.955   9.097   6.622
 3479POPC   C3B44877  20.110   8.909   7.000
 3479POPC   C4B44878  20.176   8.828   7.451
 3480POPC   NC344879  24.087  40.255   5.525
 3480POPC   PO444880  24.161  40.856   5.404
 3480POPC   GL144881  24.272  40.905   5.830
 3480POPC   GL244882  24.245  40.587   5.966
 3480POPC   C1A44883  24.131  41.062   6.239
 3480POPC   D2A44884  24.083  40.874   6.641
 3480POPC   C3A44885  24.370  40.999   6.947
 3480POPC   C4A44886  24.610  40.912   7.303
 3480POPC   C1B44887  24.188  40.443   6.393
 3480POPC   C2B44888  24.290  40.426   6.832
 3480POPC   C3B44889  24.489  40.419   7.242
 3480POPC   C4B44890  24.660  40.362   7.671
 3481POPC   NC344891  37.225  34.625   5.478
 3481POPC   PO444892  36.692  34.834   5.434
 3481POPC   GL144893  36.885  34.671   5.863
 3481POPC   GL244894  37.191  34.425   5.942
 3481POPC   C1A44895  36.870  34.521   6.329
 3481POPC   D2A44896  37.056  34.458   6.750
 3481POPC   C3A44897  36.826  34.452   7.135
 3481POPC   C4A44898  36.468  34.659   7.362
 3481POPC   C1B44899  37.320  34.775   6.253
 3481POPC   C2B44900  37.354  34.880   6.731
 3481POPC   C3B44901  37.306  34.676   7.166
 3481POPC   C4B44902  37.266  34.516   7.595
 3482POPC   NC344903   6.103  13.995   5.083
 3482POPC   PO444904   5.791  13.394   5.333
 3482POPC   GL144905   5.957  13.321   5.765
 3482POPC   GL244906   6.070  13.619   5.967
 3482POPC   C1A44907   5.837  13.240   6.197
 3482POPC   D2A44908   6.081  13.433   6.520
 3482POPC   C3A44909   5.879  13.335   6.905
 3482POPC   C4A44910   6.097  13.277   7.307
 3482POPC   C1B44911   5.985  13.909   6.282
 3482POPC   C2B44912   6.006  13.927   6.721
 3482POPC   C3B44913   6.038  14.009   7.121
 3482POPC   C4B44914   5.845  13.712   7.267
 3483POPC   NC344915  22.836  42.006   5.134
 3483POPC   PO444916  23.237  42.351   5.560
 3483POPC   GL144917  23.015  42.141   5.827
 3483POPC   GL244918  22.654  42.163   5.945
 3483POPC   C1A44919  23.081  42.018   6.213
 3483POPC   D2A44920  22.931  42.171   6.591
 3483POPC   C3A44921  23.109  42.034   6.969
 3483POPC   C4A44922  23.007  42.254   7.322
 3483POPC   C1B44923  22.699  42.517   6.249
 3483POPC   C2B44924  22.828  42.673   6.639
 3483POPC   C3B44925  22.683  42.424   6.973
 3483POPC   C4B44926  22.537  42.478   7.390
 3484POPC   NC344927  34.200  15.376   5.432
 3484POPC   PO444928  34.784  15.076   5.266
 3484POPC   GL144929  34.586  15.054   5.690
 3484POPC   GL244930  34.838  14.811   5.808
 3484POPC   C1A44931  34.585  15.249   6.124
 3484POPC   D2A44932  34.687  15.027   6.521
 3484POPC   C3A44933  34.574  15.235   6.904
 3484POPC   C4A44934  34.171  15.327   7.059
 3484POPC   C1B44935  34.922  14.537   6.159
 3484POPC   C2B44936  35.116  14.638   6.559
 3484POPC   C3B44937  34.930  14.770   6.913
 3484POPC   C4B44938  34.698  14.855   7.229
 3485POPC   NC344939  26.234  26.802   5.665
 3485POPC   PO444940  26.754  26.871   5.201
 3485POPC   GL144941  26.717  27.005   5.647
 3485POPC   GL244942  27.016  26.902   5.765
 3485POPC   C1A44943  26.719  27.109   6.107
 3485POPC   D2A44944  26.797  26.861   6.465
 3485POPC   C3A44945  26.790  27.060   6.880
 3485POPC   C4A44946  26.782  26.958   7.259
 3485POPC   C1B44947  27.092  26.566   6.082
 3485POPC   C2B44948  27.066  26.406   6.513
 3485POPC   C3B44949  26.922  26.573   6.900
 3485POPC   C4B44950  27.096  26.515   7.283
 3486POPC   NC344951  15.406  39.917   5.479
 3486POPC   PO444952  14.732  39.660   5.489
 3486POPC   GL144953  15.045  39.703   5.810
 3486POPC   GL244954  15.056  40.073   5.842
 3486POPC   C1A44955  15.095  39.776   6.260
 3486POPC   D2A44956  14.836  39.929   6.570
 3486POPC   C3A44957  14.876  39.846   7.001
 3486POPC   C4A44958  15.082  39.571   7.261
 3486POPC   C1B44959  15.287  40.239   6.228
 3486POPC   C2B44960  15.217  40.290   6.672
 3486POPC   C3B44961  15.246  40.169   7.127
 3486POPC   C4B44962  15.305  40.423   7.504
 3487POPC   NC344963  44.262  24.752   5.495
 3487POPC   PO444964  43.559  24.538   5.315
 3487POPC   GL144965  43.772  24.435   5.752
 3487POPC   GL244966  44.140  24.385   5.857
 3487POPC   C1A44967  43.736  24.312   6.210
 3487POPC   D2A44968  43.697  24.551   6.575
 3487POPC   C3A44969  43.761  24.407   6.984
 3487POPC   C4A44970  43.727  24.686   7.318
 3487POPC   C1B44971  44.075  24.696   6.203
 3487POPC   C2B44972  44.138  24.823   6.639
 3487POPC   C3B44973  44.093  24.928   7.081
 3487POPC   C4B44974  44.258  24.724   7.482
 3488POPC   NC344975  31.155  18.936   5.549
 3488POPC   PO444976  31.705  19.311   5.390
 3488POPC   GL144977  31.526  19.202   5.771
 3488POPC   GL244978  31.752  19.277   5.965
 3488POPC   C1A44979  31.365  19.003   6.163
 3488POPC   D2A44980  31.065  19.165   6.445
 3488POPC   C3A44981  31.137  19.092   6.893
 3488POPC   C4A44982  31.405  19.049   7.258
 3488POPC   C1B44983  31.891  19.010   6.267
 3488POPC   C2B44984  32.105  19.108   6.637
 3488POPC   C3B44985  31.940  18.974   7.011
 3488POPC   C4B44986  31.878  19.213   7.353
 3489POPC   NC344987   4.429  40.662   5.394
 3489POPC   PO444988   3.992  41.150   5.332
 3489POPC   GL144989   4.236  41.030   5.761
 3489POPC   GL244990   4.280  40.664   5.863
 3489POPC   C1A44991   4.312  40.986   6.243
 3489POPC   D2A44992   4.232  40.776   6.679
 3489POPC   C3A44993   4.140  41.016   7.095
 3489POPC   C4A44994   4.122  41.136   7.569
 3489POPC   C1B44995   4.419  40.482   6.276
 3489POPC   C2B44996   4.708  40.485   6.622
 3489POPC   C3B44997   4.596  40.605   7.002
 3489POPC   C4B44998   4.190  40.492   7.159
 3490POPC   NC344999  39.865  41.917   5.402
 3490POPC   PO445000  39.884  42.630   5.452
 3490POPC   GL145001  39.862  42.373   5.824
 3490POPC   GL245002  39.662  42.010   5.845
 3490POPC   C1A45003  40.100  42.435   6.213
 3490POPC   D2A45004  40.316  42.187   6.518
 3490POPC   C3A45005  40.153  42.189   6.926
 3490POPC   C4A45006  40.281  42.071   7.336
 3490POPC   C1B45007  39.691  42.099   6.248
 3490POPC   C2B45008  39.728  41.936   6.615
 3490POPC   C3B45009  39.767  41.815   7.004
 3490POPC   C4B45010  39.524  41.958   7.338
 3491POPC   NC345011  12.055   4.673   5.411
 3491POPC   PO445012  11.657   4.065   5.207
 3491POPC   GL145013  12.058   4.200   5.569
 3491POPC   GL245014  11.832   4.411   5.761
 3491POPC   C1A45015  12.222   4.252   6.054
 3491POPC   D2A45016  12.452   4.383   6.446
 3491POPC   C3A45017  12.335   4.415   6.896
 3491POPC   C4A45018  12.105   4.192   7.176
 3491POPC   C1B45019  11.787   4.541   6.151
 3491POPC   C2B45020  11.940   4.458   6.543
 3491POPC   C3B45021  11.704   4.374   6.903
 3491POPC   C4B45022  11.810   4.593   7.274
 3492POPC   NC345023  13.444  13.780   5.402
 3492POPC   PO445024  13.623  14.459   5.387
 3492POPC   GL145025  13.749  14.419   5.825
 3492POPC   GL245026  13.702  14.078   5.815
 3492POPC   C1A45027  13.917  14.417   6.267
 3492POPC   D2A45028  14.089  14.664   6.624
 3492POPC   C3A45029  13.893  14.674   7.021
 3492POPC   C4A45030  13.667  14.363   7.211
 3492POPC   C1B45031  13.443  14.233   6.208
 3492POPC   C2B45032  13.537  14.352   6.657
 3492POPC   C3B45033  13.254  14.185   6.979
 3492POPC   C4B45034  13.280  14.116   7.405
 3493POPC   NC345035  33.354   8.462   5.401
 3493POPC   PO445036  32.850   8.974   5.509
 3493POPC   GL145037  33.009   9.035   5.854
 3493POPC   GL245038  33.286   8.850   5.813
 3493POPC   C1A45039  32.928   8.866   6.235
 3493POPC   D2A45040  32.779   9.062   6.581
 3493POPC   C3A45041  32.869   8.928   6.969
 3493POPC   C4A45042  32.694   9.129   7.322
 3493POPC   C1B45043  33.394   9.099   6.207
 3493POPC   C2B45044  33.296   9.002   6.642
 3493POPC   C3B45045  33.494   9.056   7.031
 3493POPC   C4B45046  33.203   9.016   7.353
 3494POPC   NC345047  15.918   6.767   5.252
 3494POPC   PO445048  15.893   7.443   5.270
 3494POPC   GL145049  16.047   7.372   5.704
 3494POPC   GL245050  15.746   7.247   5.819
 3494POPC   C1A45051  15.996   7.486   6.176
 3494POPC   D2A45052  15.739   7.496   6.553
 3494POPC   C3A45053  15.913   7.475   6.954
 3494POPC   C4A45054  16.045   7.457   7.346
 3494POPC   C1B45055  15.655   7.084   6.245
 3494POPC   C2B45056  15.353   7.115   6.551
 3494POPC   C3B45057  15.503   7.184   6.909
 3494POPC   C4B45058  15.637   7.073   7.270
 3495POPC   NC345059  18.471  31.750   5.418
 3495POPC   PO445060  18.091  31.208   5.507
 3495POPC   GL145061  18.298  31.446   5.820
 3495POPC   GL245062  18.205  31.785   5.830
 3495POPC   C1A45063  18.447  31.474   6.243
 3495POPC   D2A45064  18.174  31.514   6.636
 3495POPC   C3A45065  18.361  31.561   7.050
 3495POPC   C4A45066  18.217  31.352   7.431
 3495POPC   C1B45067  18.040  31.799   6.209
 3495POPC   C2B45068  17.916  31.969   6.583
 3495POPC   C3B45069  17.924  31.836   7.000
 3495POPC   C4B45070  18.108  31.879   7.408
 3496POPC   NC345071  12.523   1.338   5.342
 3496POPC   PO445072  13.111   1.320   4.963
 3496POPC   GL145073  12.978   1.366   5.540
 3496POPC   GL245074  13.027   1.041   5.776
 3496POPC   C1A45075  12.716   1.391   5.976
 3496POPC   D2A45076  12.533   1.161   6.363
 3496POPC   C3A45077  12.700   1.175   6.811
 3496POPC   C4A45078  12.672   1.345   7.226
 3496POPC   C1B45079  13.202   1.299   6.142
 3496POPC   C2B45080  13.385   1.448   6.546
 3496POPC   C3B45081  13.272   1.199   6.891
 3496POPC   C4B45082  13.159   1.200   7.299
 3497POPC   NC345083  12.410   2.325   5.457
 3497POPC   PO445084  12.124   2.902   5.244
 3497POPC   GL145085  12.168   2.686   5.703
 3497POPC   GL245086  12.513   2.688   5.872
 3497POPC   C1A45087  11.992   2.679   6.144
 3497POPC   D2A45088  11.986   2.963   6.529
 3497POPC   C3A45089  11.868   2.778   6.924
 3497POPC   C4A45090  11.860   2.722   7.352
 3497POPC   C1B45091  12.472   2.855   6.341
 3497POPC   C2B45092  12.403   2.837   6.788
 3497POPC   C3B45093  12.323   2.828   7.224
 3497POPC   C4B45094  12.315   2.582   7.597
 3498POPC   NC345095  10.099   9.749   5.450
 3498POPC   PO445096  10.767   9.988   5.463
 3498POPC   GL145097  10.632  10.021   5.904
 3498POPC   GL245098  10.269  10.017   5.869
 3498POPC   C1A45099  10.747   9.756   6.313
 3498POPC   D2A45100  10.751   9.479   6.709
 3498POPC   C3A45101  10.659   9.775   7.028
 3498POPC   C4A45102  10.688  10.217   7.139
 3498POPC   C1B45103  10.363   9.579   6.028
 3498POPC   C2B45104  10.273   9.492   6.477
 3498POPC   C3B45105  10.160   9.381   6.900
 3498POPC   C4B45106  10.263   9.516   7.311
 3499POPC   NC345107  17.354   5.788   5.426
 3499POPC   PO445108  17.096   6.370   5.378
 3499POPC   GL145109  17.283   6.138   5.799
 3499POPC   GL245110  17.427   5.798   5.918
 3499POPC   C1A45111  17.625   6.168   6.170
 3499POPC   D2A45112  17.485   5.849   6.461
 3499POPC   C3A45113  17.538   5.926   6.879
 3499POPC   C4A45114  17.507   6.197   7.187
 3499POPC   C1B45115  17.184   5.543   6.159
 3499POPC   C2B45116  17.173   5.387   6.572
 3499POPC   C3B45117  17.219   5.545   6.954
 3499POPC   C4B45118  17.544   5.513   7.193
 3500POPC   NC345119  17.377  24.143   5.514
 3500POPC   PO445120  17.668  23.516   5.339
 3500POPC   GL145121  17.491  23.592   5.804
 3500POPC   GL245122  17.361  23.906   5.938
 3500POPC   C1A45123  17.576  23.672   6.302
 3500POPC   D2A45124  17.808  23.799   6.660
 3500POPC   C3A45125  17.565  23.833   7.034
 3500POPC   C4A45126  17.651  23.832   7.482
 3500POPC   C1B45127  17.272  24.195   6.238
 3500POPC   C2B45128  17.361  24.086   6.628
 3500POPC   C3B45129  17.242  24.229   6.992
 3500POPC   C4B45130  17.263  24.128   7.378
 3501POPC   NC345131   7.927  10.552   5.393
 3501POPC   PO445132   7.304  10.433   5.564
 3501POPC   GL145133   7.452  10.596   5.920
 3501POPC   GL245134   7.815  10.696   5.865
 3501POPC   C1A45135   7.292  10.331   6.266
 3501POPC   D2A45136   7.219  10.227   6.700
 3501POPC   C3A45137   7.286  10.565   7.025
 3501POPC   C4A45138   7.143  10.906   7.306
 3501POPC   C1B45139   7.810  10.325   6.141
 3501POPC   C2B45140   7.690  10.505   6.532
 3501POPC   C3B45141   7.827  10.505   6.928
 3501POPC   C4B45142   7.729  10.830   7.201
 3502POPC   NC345143   0.573   3.694   5.440
 3502POPC   PO445144   0.138   3.263   5.506
 3502POPC   GL145145   0.318   3.428   5.854
 3502POPC   GL245146   0.619   3.303   5.787
 3502POPC   C1A45147   0.409   3.343   6.308
 3502POPC   D2A45148   0.528   3.629   6.640
 3502POPC   C3A45149   0.329   3.774   7.024
 3502POPC   C4A45150   0.621   4.044   7.237
 3502POPC   C1B45151   0.870   3.205   6.120
 3502POPC   C2B45152   0.967   3.373   6.505
 3502POPC   C3B45153   0.800   3.224   6.910
 3502POPC   C4B45154   0.358   3.221   6.963
 3503POPC   NC345155   7.265  38.232   5.275
 3503POPC   PO445156   7.373  38.835   5.427
 3503POPC   GL145157   7.466  38.565   5.784
 3503POPC   GL245158   7.287  38.237   5.820
 3503POPC   C1A45159   7.358  38.764   6.177
 3503POPC   D2A45160   7.367  38.704   6.608
 3503POPC   C3A45161   7.250  38.347   6.818
 3503POPC   C4A45162   7.225  38.558   7.204
 3503POPC   C1B45163   7.463  38.272   6.280
 3503POPC   C2B45164   7.748  38.201   6.645
 3503POPC   C3B45165   7.726  38.098   7.073
 3503POPC   C4B45166   7.302  38.021   7.228
 3504POPC   NC345167  27.025  32.765   5.667
 3504POPC   PO445168  26.754  33.115   5.203
 3504POPC   GL145169  26.723  33.250   5.634
 3504POPC   GL245170  26.472  32.997   5.747
 3504POPC   C1A45171  26.699  33.277   6.097
 3504POPC   D2A45172  26.470  33.218   6.483
 3504POPC   C3A45173  26.742  33.001   6.782
 3504POPC   C4A45174  27.058  33.271   7.023
 3504POPC   C1B45175  26.458  32.750   6.166
 3504POPC   C2B45176  26.273  32.755   6.605
 3504POPC   C3B45177  26.317  32.820   7.049
 3504POPC   C4B45178  26.602  33.131   7.248
 3505POPC   NC345179  17.624  36.976   5.352
 3505POPC   PO445180  17.131  36.550   5.409
 3505POPC   GL145181  17.299  36.647   5.813
 3505POPC   GL245182  17.629  36.784   5.832
 3505POPC   C1A45183  17.374  36.603   6.247
 3505POPC   D2A45184  17.329  36.884   6.582
 3505POPC   C3A45185  17.511  36.803   6.966
 3505POPC   C4A45186  17.577  36.602   7.365
 3505POPC   C1B45187  17.634  37.062   6.185
 3505POPC   C2B45188  17.796  37.095   6.601
 3505POPC   C3B45189  17.719  37.291   6.962
 3505POPC   C4B45190  17.545  37.168   7.328
 3506POPC   NC345191  12.207  28.538   5.510
 3506POPC   PO445192  12.248  27.872   5.638
 3506POPC   GL145193  12.228  28.235   5.928
 3506POPC   GL245194  11.904  28.417   5.964
 3506POPC   C1A45195  12.128  28.254   6.365
 3506POPC   D2A45196  11.834  28.396   6.638
 3506POPC   C3A45197  12.059  28.339   6.991
 3506POPC   C4A45198  12.088  28.066   7.330
 3506POPC   C1B45199  12.099  28.751   6.230
 3506POPC   C2B45200  12.307  28.677   6.622
 3506POPC   C3B45201  12.339  28.759   7.049
 3506POPC   C4B45202  12.096  28.633   7.399
 3507POPC   NC345203   3.333  26.622   5.398
 3507POPC   PO445204   3.859  27.037   5.457
 3507POPC   GL145205   3.557  26.892   5.777
 3507POPC   GL245206   3.597  26.533   5.847
 3507POPC   C1A45207   3.592  26.943   6.204
 3507POPC   D2A45208   3.450  27.058   6.576
 3507POPC   C3A45209   3.372  26.863   6.953
 3507POPC   C4A45210   3.658  27.023   7.269
 3507POPC   C1B45211   3.258  26.518   6.189
 3507POPC   C2B45212   3.144  26.291   6.617
 3507POPC   C3B45213   3.245  26.381   7.068
 3507POPC   C4B45214   3.611  26.516   7.279
 3508POPC   NC345215  10.577  41.416   5.528
 3508POPC   PO445216  10.482  42.017   5.426
 3508POPC   GL145217  10.698  41.894   5.781
 3508POPC   GL245218  10.409  41.751   5.932
 3508POPC   C1A45219  10.893  41.706   6.136
 3508POPC   D2A45220  10.904  41.566   6.555
 3508POPC   C3A45221  10.602  41.795   6.841
 3508POPC   C4A45222  10.432  41.579   7.213
 3508POPC   C1B45223  10.414  41.608   6.384
 3508POPC   C2B45224  10.232  41.397   6.768
 3508POPC   C3B45225   9.918  41.548   7.077
 3508POPC   C4B45226  10.018  41.895   7.303
 3509POPC   NC345227  32.464  12.421   5.494
 3509POPC   PO445228  32.351  12.900   5.054
 3509POPC   GL145229  32.230  12.836   5.632
 3509POPC   GL245230  32.491  12.712   5.910
 3509POPC   C1A45231  32.140  13.040   6.080
 3509POPC   D2A45232  31.981  13.152   6.530
 3509POPC   C3A45233  32.074  12.919   6.936
 3509POPC   C4A45234  31.944  12.956   7.379
 3509POPC   C1B45235  32.323  12.517   6.277
 3509POPC   C2B45236  32.078  12.427   6.648
 3509POPC   C3B45237  32.265  12.410   7.026
 3509POPC   C4B45238  32.396  12.690   7.307
 3510POPC   NC345239  27.806  20.444   5.475
 3510POPC   PO445240  27.290  20.893   5.343
 3510POPC   GL145241  27.451  20.671   5.796
 3510POPC   GL245242  27.784  20.704   5.947
 3510POPC   C1A45243  27.358  20.675   6.240
 3510POPC   D2A45244  27.565  20.773   6.624
 3510POPC   C3A45245  27.431  20.548   6.950
 3510POPC   C4A45246  27.289  20.803   7.219
 3510POPC   C1B45247  27.850  20.470   6.320
 3510POPC   C2B45248  27.866  20.335   6.739
 3510POPC   C3B45249  27.834  20.292   7.145
 3510POPC   C4B45250  27.737  20.663   7.395
 3511POPC   NC345251  10.074  15.541   5.475
 3511POPC   PO445252   9.585  14.918   5.495
 3511POPC   GL145253   9.829  14.928   5.862
 3511POPC   GL245254   9.811  15.277   5.811
 3511POPC   C1A45255   9.696  14.956   6.298
 3511POPC   D2A45256   9.482  15.212   6.645
 3511POPC   C3A45257   9.386  14.982   7.026
 3511POPC   C4A45258   9.732  15.147   7.225
 3511POPC   C1B45259  10.114  15.303   6.124
 3511POPC   C2B45260  10.081  15.170   6.552
 3511POPC   C3B45261  10.055  15.413   6.912
 3511POPC   C4B45262  10.234  15.277   7.305
 3512POPC   NC345263  20.054  37.262   5.473
 3512POPC   PO445264  19.624  36.747   5.482
 3512POPC   GL145265  19.750  37.002   5.865
 3512POPC   GL245266  20.131  37.025   5.909
 3512POPC   C1A45267  19.708  36.773   6.292
 3512POPC   D2A45268  19.564  36.822   6.725
 3512POPC   C3A45269  19.566  36.692   7.146
 3512POPC   C4A45270  19.436  36.851   7.546
 3512POPC   C1B45271  20.207  36.788   6.268
 3512POPC   C2B45272  20.070  36.928   6.646
 3512POPC   C3B45273  20.061  36.761   7.018
 3512POPC   C4B45274  19.988  36.889   7.419
 3513POPC   NC345275   0.280  25.327   5.571
 3513POPC   PO445276   0.794  24.831   5.557
 3513POPC   GL145277   0.613  25.124   5.874
 3513POPC   GL245278   0.720  25.482   5.783
 3513POPC   C1A45279   0.434  25.344   6.239
 3513POPC   D2A45280   0.159  25.565   6.545
 3513POPC   C3A45281   0.023  25.310   6.873
 3513POPC   C4A45282   0.238  25.131   7.206
 3513POPC   C1B45283   0.937  25.475   6.165
 3513POPC   C2B45284   0.829  25.314   6.555
 3513POPC   C3B45285   0.561  25.294   6.852
 3513POPC   C4B45286   0.583  25.493   7.237
 3514POPC   NC345287   1.061  41.217   5.365
 3514POPC   PO445288   1.665  41.424   5.493
 3514POPC   GL145289   1.380  41.661   5.757
 3514POPC   GL245290   1.651  41.913   5.800
 3514POPC   C1A45291   1.124  41.732   6.158
 3514POPC   D2A45292   1.221  41.544   6.592
 3514POPC   C3A45293   1.095  41.631   7.043
 3514POPC   C4A45294   1.041  41.368   7.420
 3514POPC   C1B45295   1.627  41.746   6.207
 3514POPC   C2B45296   1.734  41.717   6.604
 3514POPC   C3B45297   1.589  41.562   6.966
 3514POPC   C4B45298   1.517  41.682   7.383
 3515POPC   NC345299  10.868  42.253   5.443
 3515POPC   PO445300  11.564  42.129   5.547
 3515POPC   GL145301  11.418  42.242   5.943
 3515POPC   GL245302  11.170  42.446   5.818
 3515POPC   C1A45303  11.381  42.464   6.346
 3515POPC   D2A45304  11.397  42.402   6.805
 3515POPC   C3A45305  11.128  42.116   7.026
 3515POPC   C4A45306  11.254  41.793   7.340
 3515POPC   C1B45307  10.938  42.235   6.161
 3515POPC   C2B45308  10.848  42.295   6.599
 3515POPC   C3B45309  10.932  42.616   6.904
 3515POPC   C4B45310  11.201  42.581   7.251
 3516POPC   NC345311  40.541  28.446   5.218
 3516POPC   PO445312  40.709  27.807   5.267
 3516POPC   GL145313  40.677  28.151   5.648
 3516POPC   GL245314  40.444  28.449   5.713
 3516POPC   C1A45315  40.853  28.378   6.036
 3516POPC   D2A45316  40.960  28.351   6.491
 3516POPC   C3A45317  40.710  28.170   6.847
 3516POPC   C4A45318  40.895  28.343   7.220
 3516POPC   C1B45319  40.373  28.503   6.169
 3516POPC   C2B45320  40.487  28.636   6.616
 3516POPC   C3B45321  40.437  28.589   7.084
 3516POPC   C4B45322  40.441  28.606   7.546
 3517POPC   NC345323  17.319  26.263   5.254
 3517POPC   PO445324  17.203  25.580   5.382
 3517POPC   GL145325  17.281  25.880   5.758
 3517POPC   GL245326  17.477  26.186   5.749
 3517POPC   C1A45327  17.536  25.859   6.158
 3517POPC   D2A45328  17.320  25.923   6.544
 3517POPC   C3A45329  17.407  25.730   6.920
 3517POPC   C4A45330  17.414  25.952   7.326
 3517POPC   C1B45331  17.646  26.358   6.161
 3517POPC   C2B45332  17.688  26.264   6.566
 3517POPC   C3B45333  17.606  26.450   6.948
 3517POPC   C4B45334  17.435  26.472   7.386
 3518POPC   NC345335  35.539  27.071   5.458
 3518POPC   PO445336  35.211  26.397   5.456
 3518POPC   GL145337  35.377  26.689   5.778
 3518POPC   GL245338  35.118  26.949   5.823
 3518POPC   C1A45339  35.598  26.781   6.203
 3518POPC   D2A45340  35.410  26.882   6.655
 3518POPC   C3A45341  35.634  26.768   7.063
 3518POPC   C4A45342  35.738  26.914   7.510
 3518POPC   C1B45343  35.107  26.673   6.228
 3518POPC   C2B45344  34.972  26.577   6.649
 3518POPC   C3B45345  35.095  26.668   7.064
 3518POPC   C4B45346  35.259  27.021   7.283
 3519POPC   NC345347  35.206  20.084   5.367
 3519POPC   PO445348  35.560  19.525   5.612
 3519POPC   GL145349  35.289  19.636   5.905
 3519POPC   GL245350  35.082  19.958   5.845
 3519POPC   C1A45351  35.420  19.576   6.321
 3519POPC   D2A45352  35.740  19.658   6.586
 3519POPC   C3A45353  35.533  19.739   6.974
 3519POPC   C4A45354  35.707  19.884   7.276
 3519POPC   C1B45355  35.216  20.017   6.257
 3519POPC   C2B45356  35.179  19.917   6.676
 3519POPC   C3B45357  35.148  20.125   7.104
 3519POPC   C4B45358  34.938  20.137   7.533
 3520POPC   NC345359  33.634  41.525   5.526
 3520POPC   PO445360  34.205  41.829   5.396
 3520POPC   GL145361  34.044  41.658   5.815
 3520POPC   GL245362  33.680  41.764   5.973
 3520POPC   C1A45363  33.975  41.386   6.176
 3520POPC   D2A45364  33.818  41.624   6.502
 3520POPC   C3A45365  33.879  41.430   6.872
 3520POPC   C4A45366  33.672  41.226   7.174
 3520POPC   C1B45367  33.392  41.864   6.335
 3520POPC   C2B45368  33.415  41.793   6.810
 3520POPC   C3B45369  33.685  41.789   7.201
 3520POPC   C4B45370  33.934  41.926   7.584
 3521POPC   NC345371  31.806  39.273   5.514
 3521POPC   PO445372  31.111  39.495   5.451
 3521POPC   GL145373  31.348  39.353   5.782
 3521POPC   GL245374  31.149  39.060   5.862
 3521POPC   C1A45375  31.563  39.566   6.113
 3521POPC   D2A45376  31.298  39.609   6.464
 3521POPC   C3A45377  31.477  39.440   6.872
 3521POPC   C4A45378  31.375  39.425   7.313
 3521POPC   C1B45379  31.451  39.077   6.216
 3521POPC   C2B45380  31.543  38.919   6.629
 3521POPC   C3B45381  31.406  38.936   7.068
 3521POPC   C4B45382  31.731  39.062   7.351
 3522POPC   NC345383   3.631   3.398   4.951
 3522POPC   PO445384   3.084   3.487   5.328
 3522POPC   GL145385   3.412   3.545   5.671
 3522POPC   GL245386   3.750   3.401   5.601
 3522POPC   C1A45387   3.383   3.604   6.143
 3522POPC   D2A45388   3.399   3.374   6.554
 3522POPC   C3A45389   3.533   3.564   6.951
 3522POPC   C4A45390   3.239   3.669   7.267
 3522POPC   C1B45391   3.812   3.339   6.059
 3522POPC   C2B45392   3.938   3.308   6.481
 3522POPC   C3B45393   3.776   3.111   6.826
 3522POPC   C4B45394   3.775   3.209   7.264
 3523POPC   NC345395  15.669  34.145   5.580
 3523POPC   PO445396  15.076  33.866   5.524
 3523POPC   GL145397  14.952  33.643   5.876
 3523POPC   GL245398  14.832  33.969   5.973
 3523POPC   C1A45399  14.908  33.645   6.349
 3523POPC   D2A45400  15.174  33.766   6.685
 3523POPC   C3A45401  14.985  33.794   7.080
 3523POPC   C4A45402  14.706  33.687   7.404
 3523POPC   C1B45403  15.290  33.968   6.195
 3523POPC   C2B45404  15.597  34.027   6.584
 3523POPC   C3B45405  15.480  33.954   7.066
 3523POPC   C4B45406  15.420  33.677   7.422
 3524POPC   NC345407  11.314  35.128   5.477
 3524POPC   PO445408  11.691  35.712   5.588
 3524POPC   GL145409  11.406  35.447   5.874
 3524POPC   GL245410  11.035  35.440   5.841
 3524POPC   C1A45411  11.247  35.233   6.255
 3524POPC   D2A45412  11.428  35.303   6.656
 3524POPC   C3A45413  11.379  35.257   7.116
 3524POPC   C4A45414  11.375  35.257   7.586
 3524POPC   C1B45415  11.080  35.705   6.237
 3524POPC   C2B45416  11.139  35.723   6.676
 3524POPC   C3B45417  10.972  35.568   7.051
 3524POPC   C4B45418  10.924  35.200   7.290
 3525POPC   NC345419   7.034   5.083   5.425
 3525POPC   PO445420   6.448   4.857   5.500
 3525POPC   GL145421   6.734   5.065   5.831
 3525POPC   GL245422   6.735   5.445   5.686
 3525POPC   C1A45423   7.019   4.900   6.216
 3525POPC   D2A45424   6.966   4.841   6.702
 3525POPC   C3A45425   6.581   5.032   6.863
 3525POPC   C4A45426   6.381   4.856   7.201
 3525POPC   C1B45427   6.767   5.475   6.116
 3525POPC   C2B45428   6.915   5.320   6.506
 3525POPC   C3B45429   6.981   5.342   6.946
 3525POPC   C4B45430   6.703   5.333   7.288
 3526POPC   NC345431  21.534  30.866   5.515
 3526POPC   PO445432  21.475  30.255   5.281
 3526POPC   GL145433  21.374  30.457   5.769
 3526POPC   GL245434  21.243  30.758   5.922
 3526POPC   C1A45435  21.576  30.489   6.241
 3526POPC   D2A45436  21.621  30.717   6.692
 3526POPC   C3A45437  21.711  30.517   7.104
 3526POPC   C4A45438  21.727  30.187   7.423
 3526POPC   C1B45439  21.232  30.866   6.366
 3526POPC   C2B45440  21.076  31.205   6.590
 3526POPC   C3B45441  21.040  31.197   7.035
 3526POPC   C4B45442  21.268  30.822   7.182
 3527POPC   NC345443  12.444  10.448   5.426
 3527POPC   PO445444  11.822  10.715   5.317
 3527POPC   GL145445  12.015  10.563   5.722
 3527POPC   GL245446  12.328  10.576   5.922
 3527POPC   C1A45447  11.836  10.635   6.133
 3527POPC   D2A45448  11.762  10.461   6.544
 3527POPC   C3A45449  11.971  10.585   6.904
 3527POPC   C4A45450  11.862  10.387   7.288
 3527POPC   C1B45451  12.275  10.495   6.370
 3527POPC   C2B45452  12.432  10.325   6.754
 3527POPC   C3B45453  12.353  10.418   7.188
 3527POPC   C4B45454  12.320  10.296   7.621
 3528POPC   NC345455  38.583  12.285   5.419
 3528POPC   PO445456  38.166  11.778   5.510
 3528POPC   GL145457  38.355  12.027   5.815
 3528POPC   GL245458  38.681  11.893   5.763
 3528POPC   C1A45459  38.488  12.251   6.188
 3528POPC   D2A45460  38.530  11.983   6.520
 3528POPC   C3A45461  38.511  12.180   6.897
 3528POPC   C4A45462  38.386  12.028   7.270
 3528POPC   C1B45463  38.899  11.946   6.145
 3528POPC   C2B45464  39.021  11.782   6.506
 3528POPC   C3B45465  38.849  11.809   6.901
 3528POPC   C4B45466  38.920  12.055   7.285
 3529POPC   NC345467  22.728  30.251   5.424
 3529POPC   PO445468  23.047  29.698   5.447
 3529POPC   GL145469  23.009  29.718   5.853
 3529POPC   GL245470  22.979  30.062   5.873
 3529POPC   C1A45471  22.790  29.739   6.270
 3529POPC   D2A45472  22.753  29.923   6.693
 3529POPC   C3A45473  23.044  29.965   6.990
 3529POPC   C4A45474  23.178  29.983   7.413
 3529POPC   C1B45475  22.728  30.280   6.175
 3529POPC   C2B45476  22.558  30.508   6.543
 3529POPC   C3B45477  22.665  30.368   6.950
 3529POPC   C4B45478  22.622  30.040   7.277
 3530POPC   NC345479   8.331   2.010   5.078
 3530POPC   PO445480   7.816   2.017   5.527
 3530POPC   GL145481   8.012   1.849   5.932
 3530POPC   GL245482   8.366   1.719   5.904
 3530POPC   C1A45483   8.267   2.048   6.266
 3530POPC   D2A45484   8.193   1.903   6.660
 3530POPC   C3A45485   8.373   2.076   7.008
 3530POPC   C4A45486   8.263   2.125   7.419
 3530POPC   C1B45487   8.290   1.509   6.275
 3530POPC   C2B45488   8.512   1.484   6.648
 3530POPC   C3B45489   8.341   1.561   7.023
 3530POPC   C4B45490   8.513   1.687   7.363
 3531POPC   NC345491   7.565  20.423   5.510
 3531POPC   PO445492   7.457  21.023   5.253
 3531POPC   GL145493   7.438  20.875   5.719
 3531POPC   GL245494   7.152  20.624   5.803
 3531POPC   C1A45495   7.630  20.757   6.118
 3531POPC   D2A45496   7.650  20.635   6.551
 3531POPC   C3A45497   7.345  20.706   6.863
 3531POPC   C4A45498   7.627  20.687   7.153
 3531POPC   C1B45499   7.317  20.329   6.135
 3531POPC   C2B45500   7.309  20.232   6.566
 3531POPC   C3B45501   7.523  20.225   6.948
 3531POPC   C4B45502   7.445  20.269   7.379
 3532POPC   NC345503  17.023  33.755   5.378
 3532POPC   PO445504  16.430  33.370   5.374
 3532POPC   GL145505  16.617  33.534   5.743
 3532POPC   GL245506  16.766  33.834   5.793
 3532POPC   C1A45507  16.701  33.524   6.202
 3532POPC   D2A45508  16.940  33.516   6.589
 3532POPC   C3A45509  16.764  33.437   6.984
 3532POPC   C4A45510  16.618  33.619   7.381
 3532POPC   C1B45511  16.577  34.043   6.132
 3532POPC   C2B45512  16.666  33.947   6.554
 3532POPC   C3B45513  16.634  33.974   6.986
 3532POPC   C4B45514  16.345  34.084   7.276
 3533POPC   NC345515  34.006  42.951   5.700
 3533POPC   PO445516  34.526  42.684   5.376
 3533POPC   GL145517  34.296  42.477   5.753
 3533POPC   GL245518  34.357  42.082   5.827
 3533POPC   C1A45519  34.376  42.406   6.213
 3533POPC   D2A45520  34.262  42.348   6.635
 3533POPC   C3A45521  34.593  42.413   6.945
 3533POPC   C4A45522  34.547  42.564   7.343
 3533POPC   C1B45523  34.259  41.881   6.269
 3533POPC   C2B45524  34.244  41.793   6.742
 3533POPC   C3B45525  34.199  42.092   7.106
 3533POPC   C4B45526  34.448  42.077   7.463
 3534POPC   NC345527  15.308   4.189   5.120
 3534POPC   PO445528  15.288   4.743   5.571
 3534POPC   GL145529  15.210   5.026   5.876
 3534POPC   GL245530  15.356   5.354   5.849
 3534POPC   C1A45531  15.132   5.113   6.283
 3534POPC   D2A45532  15.312   5.217   6.639
 3534POPC   C3A45533  15.114   5.060   6.975
 3534POPC   C4A45534  14.735   4.822   7.078
 3534POPC   C1B45535  15.326   5.620   6.223
 3534POPC   C2B45536  15.539   5.679   6.641
 3534POPC   C3B45537  15.572   5.395   7.031
 3534POPC   C4B45538  15.248   5.364   7.339
 3535POPC   NC345539  18.678  32.388   5.266
 3535POPC   PO445540  18.068  32.206   5.450
 3535POPC   GL145541  18.216  32.292   5.847
 3535POPC   GL245542  18.535  32.197   5.736
 3535POPC   C1A45543  18.185  32.296   6.279
 3535POPC   D2A45544  18.434  32.412   6.590
 3535POPC   C3A45545  18.270  32.213   6.916
 3535POPC   C4A45546  18.202  32.391   7.298
 3535POPC   C1B45547  18.551  32.000   6.137
 3535POPC   C2B45548  18.522  31.897   6.550
 3535POPC   C3B45549  18.777  31.911   6.904
 3535POPC   C4B45550  18.569  31.982   7.261
 3536POPC   NC345551   0.832  43.586   5.222
 3536POPC   PO445552   0.465  44.172   5.416
 3536POPC   GL145553   0.279  43.943   5.840
 3536POPC   GL245554   0.107  43.690   5.804
 3536POPC   C1A45555   0.494  43.838   6.279
 3536POPC   D2A45556   0.685  44.134   6.597
 3536POPC   C3A45557   0.632  44.035   7.044
 3536POPC   C4A45558   0.588  43.691   7.342
 3536POPC   C1B45559   0.007  43.679   6.231
 3536POPC   C2B45560   0.138  43.563   6.608
 3536POPC   C3B45561   0.007  43.770   6.953
 3536POPC   C4B45562   0.167  43.966   7.267
 3537POPC   NC345563  28.447  12.649   5.385
 3537POPC   PO445564  28.443  13.321   5.308
 3537POPC   GL145565  28.637  13.187   5.742
 3537POPC   GL245566  28.739  12.806   5.769
 3537POPC   C1A45567  28.448  13.161   6.177
 3537POPC   D2A45568  28.092  12.956   6.437
 3537POPC   C3A45569  28.104  12.833   6.906
 3537POPC   C4A45570  28.428  12.932   7.232
 3537POPC   C1B45571  28.527  12.659   6.175
 3537POPC   C2B45572  28.569  12.818   6.608
 3537POPC   C3B45573  28.578  12.536   6.973
 3537POPC   C4B45574  28.218  12.437   7.256
 3538POPC   NC345575  21.760  35.284   5.464
 3538POPC   PO445576  21.177  35.117   5.482
 3538POPC   GL145577  21.283  35.428   5.826
 3538POPC   GL245578  21.620  35.469   5.912
 3538POPC   C1A45579  21.154  35.623   6.206
 3538POPC   D2A45580  21.087  35.288   6.553
 3538POPC   C3A45581  21.085  35.340   7.003
 3538POPC   C4A45582  21.239  35.285   7.457
 3538POPC   C1B45583  21.535  35.331   6.302
 3538POPC   C2B45584  21.497  35.521   6.722
 3538POPC   C3B45585  21.583  35.264   7.087
 3538POPC   C4B45586  21.735  35.459   7.473
 3539POPC   NC345587   6.261  21.091   5.547
 3539POPC   PO445588   6.863  21.439   5.374
 3539POPC   GL145589   6.678  21.284   5.781
 3539POPC   GL245590   6.708  20.931   5.856
 3539POPC   C1A45591   6.468  21.289   6.209
 3539POPC   D2A45592   6.621  21.505   6.594
 3539POPC   C3A45593   6.609  21.262   6.952
 3539POPC   C4A45594   6.446  21.358   7.375
 3539POPC   C1B45595   6.944  21.058   6.221
 3539POPC   C2B45596   7.008  21.069   6.668
 3539POPC   C3B45597   7.130  21.171   7.083
 3539POPC   C4B45598   6.913  21.531   7.249
 3540POPC   NC345599  12.110  35.397   5.459
 3540POPC   PO445600  11.690  34.867   5.459
 3540POPC   GL145601  11.852  35.103   5.797
 3540POPC   GL245602  12.241  35.070   5.804
 3540POPC   C1A45603  11.758  35.278   6.199
 3540POPC   D2A45604  11.906  35.480   6.548
 3540POPC   C3A45605  11.847  35.263   6.929
 3540POPC   C4A45606  11.822  35.468   7.341
 3540POPC   C1B45607  12.262  35.280   6.201
 3540POPC   C2B45608  12.297  35.160   6.611
 3540POPC   C3B45609  12.314  35.305   7.039
 3540POPC   C4B45610  12.273  34.991   7.320
 3541POPC   NC345611   6.168   2.942   5.507
 3541POPC   PO445612   5.553   2.561   5.440
 3541POPC   GL145613   5.829   2.690   5.807
 3541POPC   GL245614   5.716   3.009   5.852
 3541POPC   C1A45615   6.172   2.623   6.151
 3541POPC   D2A45616   6.377   2.726   6.581
 3541POPC   C3A45617   6.086   2.947   6.863
 3541POPC   C4A45618   5.914   2.727   7.227
 3541POPC   C1B45619   5.720   2.879   6.299
 3541POPC   C2B45620   5.559   2.951   6.723
 3541POPC   C3B45621   5.665   3.159   7.123
 3541POPC   C4B45622   5.727   3.089   7.604
 3542POPC   NC345623  36.814  25.624   5.592
 3542POPC   PO445624  36.777  26.258   5.399
 3542POPC   GL145625  36.826  26.267   5.852
 3542POPC   GL245626  36.522  26.404   5.969
 3542POPC   C1A45627  36.930  26.093   6.280
 3542POPC   D2A45628  37.134  26.074   6.717
 3542POPC   C3A45629  37.057  25.748   7.033
 3542POPC   C4A45630  37.035  25.834   7.486
 3542POPC   C1B45631  36.505  26.399   6.412
 3542POPC   C2B45632  36.752  26.501   6.754
 3542POPC   C3B45633  36.924  26.299   7.142
 3542POPC   C4B45634  36.685  26.184   7.527
 3543POPC   NC345635  24.520  28.852   5.452
 3543POPC   PO445636  24.009  29.432   5.496
 3543POPC   GL145637  24.239  29.098   5.797
 3543POPC   GL245638  24.615  29.136   5.874
 3543POPC   C1A45639  24.335  28.943   6.240
 3543POPC   D2A45640  24.501  29.121   6.597
 3543POPC   C3A45641  24.443  28.959   6.991
 3543POPC   C4A45642  24.123  29.171   7.229
 3543POPC   C1B45643  24.876  29.145   6.251
 3543POPC   C2B45644  24.993  29.064   6.708
 3543POPC   C3B45645  24.808  29.309   7.043
 3543POPC   C4B45646  24.746  29.337   7.456
 3544POPC   NC345647  28.380  31.878   5.381
 3544POPC   PO445648  28.718  31.292   5.375
 3544POPC   GL145649  28.632  31.552   5.768
 3544POPC   GL245650  28.258  31.582   5.807
 3544POPC   C1A45651  28.536  31.420   6.236
 3544POPC   D2A45652  28.547  31.206   6.653
 3544POPC   C3A45653  28.584  31.478   7.002
 3544POPC   C4A45654  28.949  31.712   7.192
 3544POPC   C1B45655  28.387  31.896   6.123
 3544POPC   C2B45656  28.504  31.862   6.579
 3544POPC   C3B45657  28.312  31.887   7.011
 3544POPC   C4B45658  28.106  31.553   7.261
 3545POPC   NC345659  16.993  14.560   5.593
 3545POPC   PO445660  16.479  14.045   5.461
 3545POPC   GL145661  16.676  14.253   5.832
 3545POPC   GL245662  16.975  14.133   5.920
 3545POPC   C1A45663  16.654  14.580   6.186
 3545POPC   D2A45664  16.361  14.616   6.557
 3545POPC   C3A45665  16.402  14.469   6.986
 3545POPC   C4A45666  16.522  14.202   7.396
 3545POPC   C1B45667  16.745  14.082   6.321
 3545POPC   C2B45668  16.816  14.387   6.646
 3545POPC   C3B45669  16.893  14.413   7.079
 3545POPC   C4B45670  17.012  14.004   7.196
 3546POPC   NC345671  14.834  43.038   5.651
 3546POPC   PO445672  14.307  43.228   5.317
 3546POPC   GL145673  14.316  43.141   5.754
 3546POPC   GL245674  14.094  42.886   5.750
 3546POPC   C1A45675  14.428  43.048   6.207
 3546POPC   D2A45676  14.512  43.247   6.611
 3546POPC   C3A45677  14.167  43.474   6.788
 3546POPC   C4A45678  14.170  43.437   7.224
 3546POPC   C1B45679  14.064  42.690   6.168
 3546POPC   C2B45680  14.130  42.624   6.594
 3546POPC   C3B45681  14.264  42.891   6.915
 3546POPC   C4B45682  14.465  42.933   7.299
 3547POPC   NC345683  35.942  30.112   5.303
 3547POPC   PO445684  36.551  30.054   5.436
 3547POPC   GL145685  36.175  29.801   5.654
 3547POPC   GL245686  35.893  30.042   5.809
 3547POPC   C1A45687  35.977  29.617   6.048
 3547POPC   D2A45688  35.934  29.761   6.489
 3547POPC   C3A45689  36.055  29.654   6.920
 3547POPC   C4A45690  35.741  29.510   7.226
 3547POPC   C1B45691  35.771  30.182   6.245
 3547POPC   C2B45692  35.875  30.256   6.687
 3547POPC   C3B45693  36.027  30.138   7.091
 3547POPC   C4B45694  35.978  30.230   7.546
 3548POPC   NC345695  29.262  25.060   5.375
 3548POPC   PO445696  28.987  25.637   5.543
 3548POPC   GL145697  29.234  25.359   5.794
 3548POPC   GL245698  29.030  25.047   5.870
 3548POPC   C1A45699  29.298  25.408   6.210
 3548POPC   D2A45700  29.094  25.301   6.563
 3548POPC   C3A45701  29.281  25.398   6.922
 3548POPC   C4A45702  29.056  25.225   7.262
 3548POPC   C1B45703  29.242  24.875   6.263
 3548POPC   C2B45704  29.492  24.953   6.668
 3548POPC   C3B45705  29.469  24.959   7.129
 3548POPC   C4B45706  29.354  25.020   7.617
 3549POPC   NC345707  31.452  15.406   5.546
 3549POPC   PO445708  31.292  14.810   5.564
 3549POPC   GL145709  31.575  15.026   5.910
 3549POPC   GL245710  31.761  15.402   5.945
 3549POPC   C1A45711  31.390  15.073   6.343
 3549POPC   D2A45712  31.079  15.202   6.659
 3549POPC   C3A45713  31.292  15.180   7.087
 3549POPC   C4A45714  31.700  14.978   7.221
 3549POPC   C1B45715  31.883  15.184   6.308
 3549POPC   C2B45716  31.867  15.117   6.739
 3549POPC   C3B45717  31.876  15.423   7.057
 3549POPC   C4B45718  31.686  15.424   7.487
 3550POPC   NC345719  35.908   8.579   5.013
 3550POPC   PO445720  36.222   8.024   5.171
 3550POPC   GL145721  36.149   8.086   5.665
 3550POPC   GL245722  36.303   7.847   5.882
 3550POPC   C1A45723  36.221   8.270   6.137
 3550POPC   D2A45724  36.133   8.408   6.581
 3550POPC   C3A45725  36.387   8.530   6.962
 3550POPC   C4A45726  36.215   8.350   7.353
 3550POPC   C1B45727  36.598   7.945   6.228
 3550POPC   C2B45728  36.345   7.924   6.559
 3550POPC   C3B45729  36.194   8.042   6.953
 3550POPC   C4B45730  36.192   7.815   7.326
 3551POPC   NC345731  15.593   1.325   5.320
 3551POPC   PO445732  16.220   1.435   5.556
 3551POPC   GL145733  15.927   1.276   5.844
 3551POPC   GL245734  15.636   1.081   5.777
 3551POPC   C1A45735  16.081   1.262   6.252
 3551POPC   D2A45736  16.182   1.560   6.532
 3551POPC   C3A45737  16.031   1.417   6.904
 3551POPC   C4A45738  16.189   1.174   7.242
 3551POPC   C1B45739  15.748   0.900   6.168
 3551POPC   C2B45740  15.915   0.818   6.591
 3551POPC   C3B45741  15.797   0.954   6.989
 3551POPC   C4B45742  15.686   1.299   7.256
 3552POPC   NC345743  33.454  25.369   5.470
 3552POPC   PO445744  34.153  25.164   5.422
 3552POPC   GL145745  33.852  25.209   5.741
 3552POPC   GL245746  33.773  24.937   5.945
 3552POPC   C1A45747  33.767  25.455   6.111
 3552POPC   D2A45748  33.764  25.371   6.544
 3552POPC   C3A45749  33.964  25.566   6.893
 3552POPC   C4A45750  33.758  25.485   7.292
 3552POPC   C1B45751  33.412  25.088   6.207
 3552POPC   C2B45752  33.298  25.206   6.649
 3552POPC   C3B45753  33.446  25.155   7.055
 3552POPC   C4B45754  33.587  25.004   7.461
 3553POPC   NC345755  35.704  15.775   5.634
 3553POPC   PO445756  36.284  16.182   5.527
 3553POPC   GL145757  36.124  16.019   5.887
 3553POPC   GL245758  35.823  16.197   5.924
 3553POPC   C1A45759  36.264  16.093   6.314
 3553POPC   D2A45760  36.141  16.252   6.694
 3553POPC   C3A45761  36.260  16.056   7.061
 3553POPC   C4A45762  36.020  16.157   7.397
 3553POPC   C1B45763  35.788  15.901   6.278
 3553POPC   C2B45764  35.694  15.997   6.694
 3553POPC   C3B45765  35.815  15.806   7.086
 3553POPC   C4B45766  35.595  15.564   7.379
 3554POPC   NC345767  27.208  20.449   5.434
 3554POPC   PO445768  26.558  20.456   5.335
 3554POPC   GL145769  26.713  20.618   5.746
 3554POPC   GL245770  26.537  20.921   5.903
 3554POPC   C1A45771  26.866  20.538   6.185
 3554POPC   D2A45772  27.006  20.681   6.630
 3554POPC   C3A45773  26.909  20.469   7.026
 3554POPC   C4A45774  27.118  20.341   7.378
 3554POPC   C1B45775  26.716  21.002   6.312
 3554POPC   C2B45776  26.610  20.993   6.738
 3554POPC   C3B45777  26.822  20.952   7.097
 3554POPC   C4B45778  26.912  20.797   7.550
 3555POPC   NC345779   1.654  43.981   5.357
 3555POPC   PO445780   2.229  43.767   5.064
 3555POPC   GL145781   2.113  43.811   5.540
 3555POPC   GL245782   2.063  44.177   5.674
 3555POPC   C1A45783   2.006  43.737   6.017
 3555POPC   D2A45784   2.061  43.850   6.494
 3555POPC   C3A45785   1.932  43.658   6.907
 3555POPC   C4A45786   1.880  43.482   7.312
 3555POPC   C1B45787   1.792  44.272   6.079
 3555POPC   C2B45788   1.758  44.365   6.534
 3555POPC   C3B45789   1.903  44.192   6.925
 3555POPC   C4B45790   1.783  44.005   7.290
 3556POPC   NC345791   4.401  31.823   5.596
 3556POPC   PO445792   4.112  32.509   5.589
 3556POPC   GL145793   4.453  32.419   5.853
 3556POPC   GL245794   4.236  32.149   5.970
 3556POPC   C1A45795   4.479  32.523   6.293
 3556POPC   D2A45796   4.168  32.450   6.602
 3556POPC   C3A45797   4.301  32.367   7.022
 3556POPC   C4A45798   4.092  32.132   7.371
 3556POPC   C1B45799   4.567  32.002   6.214
 3556POPC   C2B45800   4.645  32.121   6.619
 3556POPC   C3B45801   4.666  31.880   6.994
 3556POPC   C4B45802   4.547  31.903   7.406
 3557POPC   NC345803   9.800   3.857   5.644
 3557POPC   PO445804  10.133   3.393   5.438
 3557POPC   GL145805   9.894   3.325   5.827
 3557POPC   GL245806   9.522   3.432   5.842
 3557POPC   C1A45807   9.843   3.455   6.250
 3557POPC   D2A45808  10.070   3.723   6.506
 3557POPC   C3A45809  10.020   3.625   6.934
 3557POPC   C4A45810   9.906   3.393   7.259
 3557POPC   C1B45811   9.413   3.742   6.200
 3557POPC   C2B45812   9.556   3.747   6.647
 3557POPC   C3B45813   9.464   3.504   7.025
 3557POPC   C4B45814   9.260   3.532   7.436
 3558POPC   NC345815  17.876  19.294   5.596
 3558POPC   PO445816  17.350  19.814   5.404
 3558POPC   GL145817  17.384  19.977   5.788
 3558POPC   GL245818  17.720  19.842   5.806
 3558POPC   C1A45819  17.257  19.792   6.195
 3558POPC   D2A45820  17.488  19.705   6.557
 3558POPC   C3A45821  17.306  19.765   6.944
 3558POPC   C4A45822  17.394  19.656   7.362
 3558POPC   C1B45823  17.841  19.589   6.162
 3558POPC   C2B45824  17.912  19.404   6.531
 3558POPC   C3B45825  17.880  19.593   6.922
 3558POPC   C4B45826  17.868  19.808   7.296
 3559POPC   NC345827  20.173  42.379   4.999
 3559POPC   PO445828  20.711  42.073   5.164
 3559POPC   GL145829  20.689  42.108   5.662
 3559POPC   GL245830  21.000  41.976   5.812
 3559POPC   C1A45831  20.553  42.179   6.151
 3559POPC   D2A45832  20.547  42.062   6.641
 3559POPC   C3A45833  20.415  42.327   7.024
 3559POPC   C4A45834  20.519  42.668   7.316
 3559POPC   C1B45835  21.107  42.185   6.223
 3559POPC   C2B45836  21.036  42.179   6.674
 3559POPC   C3B45837  20.959  42.374   7.081
 3559POPC   C4B45838  20.856  42.237   7.466
 3560POPC   NC345839  35.682  24.569   5.265
 3560POPC   PO445840  35.067  24.779   5.553
 3560POPC   GL145841  35.368  24.491   5.771
 3560POPC   GL245842  35.281  24.127   5.796
 3560POPC   C1A45843  35.475  24.461   6.221
 3560POPC   D2A45844  35.316  24.658   6.603
 3560POPC   C3A45845  35.499  24.501   6.978
 3560POPC   C4A45846  35.338  24.595   7.370
 3560POPC   C1B45847  35.091  24.104   6.226
 3560POPC   C2B45848  35.117  24.184   6.672
 3560POPC   C3B45849  35.081  24.244   7.122
 3560POPC   C4B45850  35.107  24.203   7.631
 3561POPC   NC345851  35.689  10.991   5.468
 3561POPC   PO445852  35.058  11.391   5.364
 3561POPC   GL145853  35.023  11.548   5.791
 3561POPC   GL245854  35.348  11.709   5.863
 3561POPC   C1A45855  35.024  11.361   6.209
 3561POPC   D2A45856  35.271  11.204   6.576
 3561POPC   C3A45857  35.099  11.336   6.985
 3561POPC   C4A45858  35.050  11.363   7.441
 3561POPC   C1B45859  35.590  11.417   6.133
 3561POPC   C2B45860  35.792  11.299   6.524
 3561POPC   C3B45861  35.636  11.361   6.904
 3561POPC   C4B45862  35.534  11.511   7.277
 3562POPC   NC345863   8.729  18.533   5.390
 3562POPC   PO445864   8.750  17.940   5.345
 3562POPC   GL145865   8.815  18.159   5.757
 3562POPC   GL245866   8.624  18.461   5.867
 3562POPC   C1A45867   8.915  18.199   6.206
 3562POPC   D2A45868   8.791  18.307   6.629
 3562POPC   C3A45869   9.176  18.328   6.873
 3562POPC   C4A45870   9.381  18.056   7.193
 3562POPC   C1B45871   8.656  18.680   6.239
 3562POPC   C2B45872   8.654  18.811   6.657
 3562POPC   C3B45873   8.771  18.622   7.052
 3562POPC   C4B45874   9.034  18.415   7.343
 3563POPC   NC345875  43.609  15.428   5.714
 3563POPC   PO445876  43.985  14.920   5.453
 3563POPC   GL145877  43.996  15.143   5.844
 3563POPC   GL245878  44.218  15.429   5.766
 3563POPC   C1A45879  43.850  15.153   6.292
 3563POPC   D2A45880  43.908  14.964   6.712
 3563POPC   C3A45881  43.716  15.173   7.069
 3563POPC   C4A45882  43.654  15.067   7.490
 3563POPC   C1B45883  44.344  15.294   6.186
 3563POPC   C2B45884  44.175  15.414   6.604
 3563POPC   C3B45885  44.199  15.270   7.024
 3563POPC   C4B45886  44.039  15.402   7.437
 3564POPC   NC345887  18.343  10.920   5.022
 3564POPC   PO445888  18.293  10.394   5.398
 3564POPC   GL145889  18.179  10.520   5.796
 3564POPC   GL245890  18.485  10.432   5.885
 3564POPC   C1A45891  18.150  10.803   6.127
 3564POPC   D2A45892  18.316  10.893   6.526
 3564POPC   C3A45893  18.023  10.917   6.878
 3564POPC   C4A45894  18.151  10.801   7.279
 3564POPC   C1B45895  18.395  10.338   6.266
 3564POPC   C2B45896  18.604  10.461   6.601
 3564POPC   C3B45897  18.451  10.541   6.955
 3564POPC   C4B45898  18.343  10.258   7.248
 3565POPC   NC345899  44.012  16.301   5.439
 3565POPC   PO445900  43.896  15.684   5.466
 3565POPC   GL145901  43.773  15.910   5.822
 3565POPC   GL245902  43.626  16.259   5.788
 3565POPC   C1A45903  43.895  15.748   6.232
 3565POPC   D2A45904  43.957  15.902   6.629
 3565POPC   C3A45905  43.806  15.678   6.968
 3565POPC   C4A45906  43.866  15.872   7.356
 3565POPC   C1B45907  43.695  16.229   6.213
 3565POPC   C2B45908  43.588  16.395   6.584
 3565POPC   C3B45909  43.672  16.203   6.953
 3565POPC   C4B45910  43.695  16.338   7.331
 3566POPC   NC345911   4.757  17.621   5.270
 3566POPC   PO445912   5.340  17.437   5.365
 3566POPC   GL145913   5.096  17.646   5.687
 3566POPC   GL245914   5.048  17.347   5.822
 3566POPC   C1A45915   4.944  17.747   6.124
 3566POPC   D2A45916   4.947  17.886   6.529
 3566POPC   C3A45917   5.132  17.631   6.858
 3566POPC   C4A45918   4.956  17.563   7.275
 3566POPC   C1B45919   4.886  17.253   6.155
 3566POPC   C2B45920   4.767  17.413   6.524
 3566POPC   C3B45921   4.788  17.235   6.887
 3566POPC   C4B45922   4.979  17.060   7.228
 3567POPC   NC345923   3.203   7.632   5.488
 3567POPC   PO445924   3.740   7.480   5.416
 3567POPC   GL145925   3.621   7.380   5.815
 3567POPC   GL245926   3.363   7.138   5.745
 3567POPC   C1A45927   3.732   7.394   6.257
 3567POPC   D2A45928   4.010   7.203   6.540
 3567POPC   C3A45929   3.752   7.314   6.875
 3567POPC   C4A45930   3.712   7.454   7.285
 3567POPC   C1B45931   3.230   7.295   6.166
 3567POPC   C2B45932   3.272   7.396   6.619
 3567POPC   C3B45933   3.271   7.267   7.077
 3567POPC   C4B45934   3.282   7.197   7.549
 3568POPC   NC345935  20.605  28.530   4.929
 3568POPC   PO445936  20.869  28.106   5.379
 3568POPC   GL145937  20.928  28.289   5.782
 3568POPC   GL245938  20.590  28.371   5.770
 3568POPC   C1A45939  20.939  28.498   6.192
 3568POPC   D2A45940  20.715  28.629   6.600
 3568POPC   C3A45941  20.914  28.526   7.027
 3568POPC   C4A45942  20.903  28.544   7.496
 3568POPC   C1B45943  20.439  28.456   6.167
 3568POPC   C2B45944  20.342  28.248   6.538
 3568POPC   C3B45945  20.453  28.267   6.925
 3568POPC   C4B45946  20.453  28.392   7.331
 3569POPC   NC345947   1.193   5.792   5.256
 3569POPC   PO445948   0.788   6.218   5.522
 3569POPC   GL145949   1.053   5.899   5.766
 3569POPC   GL245950   1.289   5.591   5.707
 3569POPC   C1A45951   1.047   5.718   6.177
 3569POPC   D2A45952   0.899   5.830   6.568
 3569POPC   C3A45953   1.131   5.706   6.885
 3569POPC   C4A45954   0.910   5.776   7.232
 3569POPC   C1B45955   1.546   5.725   6.068
 3569POPC   C2B45956   1.507   5.875   6.510
 3569POPC   C3B45957   1.650   5.795   6.953
 3569POPC   C4B45958   1.568   5.572   7.376
 3570POPC   NC345959  12.263  31.890   5.441
 3570POPC   PO445960  11.872  31.357   5.332
 3570POPC   GL145961  11.972  31.241   5.755
 3570POPC   GL245962  11.711  31.491   5.823
 3570POPC   C1A45963  12.291  31.255   6.112
 3570POPC   D2A45964  12.344  31.397   6.561
 3570POPC   C3A45965  12.024  31.226   6.859
 3570POPC   C4A45966  12.005  31.332   7.286
 3570POPC   C1B45967  11.761  31.335   6.260
 3570POPC   C2B45968  11.805  31.633   6.588
 3570POPC   C3B45969  11.819  31.694   6.994
 3570POPC   C4B45970  11.746  31.811   7.372
 3571POPC   NC345971  27.899  42.951   5.448
 3571POPC   PO445972  27.391  43.283   5.378
 3571POPC   GL145973  27.650  43.241   5.779
 3571POPC   GL245974  27.986  43.413   5.790
 3571POPC   C1A45975  27.635  43.013   6.202
 3571POPC   D2A45976  27.469  42.865   6.628
 3571POPC   C3A45977  27.496  43.121   6.998
 3571POPC   C4A45978  27.525  43.424   7.277
 3571POPC   C1B45979  27.804  43.491   6.207
 3571POPC   C2B45980  27.862  43.228   6.629
 3571POPC   C3B45981  28.014  43.287   7.082
 3571POPC   C4B45982  27.970  43.445   7.523
 3572POPC   NC345983  37.631  22.163   5.523
 3572POPC   PO445984  38.236  22.437   5.735
 3572POPC   GL145985  37.849  22.342   5.984
 3572POPC   GL245986  37.761  22.006   5.981
 3572POPC   C1A45987  37.553  22.339   6.357
 3572POPC   D2A45988  37.499  22.153   6.796
 3572POPC   C3A45989  37.696  22.361   7.193
 3572POPC   C4A45990  37.790  22.245   7.630
 3572POPC   C1B45991  37.453  21.854   6.245
 3572POPC   C2B45992  37.391  21.657   6.640
 3572POPC   C3B45993  37.300  21.663   7.061
 3572POPC   C4B45994  37.515  21.918   7.332
 3573POPC   NC345995  23.770  13.215   5.367
 3573POPC   PO445996  23.611  12.567   5.586
 3573POPC   GL145997  23.819  12.911   5.819
 3573POPC   GL245998  23.546  13.155   5.823
 3573POPC   C1A45999  23.913  12.858   6.266
 3573POPC   D2A46000  23.708  12.638   6.626
 3573POPC   C3A46001  23.871  12.677   7.068
 3573POPC   C4A46002  23.871  12.653   7.529
 3573POPC   C1B46003  23.658  13.324   6.209
 3573POPC   C2B46004  23.666  13.182   6.618
 3573POPC   C3B46005  23.558  13.099   7.021
 3573POPC   C4B46006  23.875  13.162   7.245
 3574POPC   NC346007  38.008  41.358   5.679
 3574POPC   PO446008  37.659  41.890   5.414
 3574POPC   GL146009  37.427  41.872   5.826
 3574POPC   GL246010  37.457  41.529   5.812
 3574POPC   C1A46011  37.364  41.770   6.256
 3574POPC   D2A46012  37.614  41.658   6.600
 3574POPC   C3A46013  37.522  41.691   7.016
 3574POPC   C4A46014  37.808  41.401   7.216
 3574POPC   C1B46015  37.609  41.301   6.188
 3574POPC   C2B46016  37.756  41.174   6.594
 3574POPC   C3B46017  37.447  41.173   6.916
 3574POPC   C4B46018  37.302  41.303   7.276
 3575POPC   NC346019  31.537  32.105   5.371
 3575POPC   PO446020  31.912  32.664   5.667
 3575POPC   GL146021  31.625  32.451   5.886
 3575POPC   GL246022  31.299  32.412   5.824
 3575POPC   C1A46023  31.550  32.426   6.306
 3575POPC   D2A46024  31.797  32.219   6.590
 3575POPC   C3A46025  31.612  32.238   6.956
 3575POPC   C4A46026  31.374  32.567   7.110
 3575POPC   C1B46027  31.309  32.024   6.083
 3575POPC   C2B46028  31.378  31.944   6.537
 3575POPC   C3B46029  31.248  31.852   6.968
 3575POPC   C4B46030  31.106  32.147   7.252
 3576POPC   NC346031  37.575  21.127   5.481
 3576POPC   PO446032  37.664  21.718   5.338
 3576POPC   GL146033  37.635  21.540   5.803
 3576POPC   GL246034  37.623  21.196   5.963
 3576POPC   C1A46035  37.873  21.542   6.212
 3576POPC   D2A46036  37.827  21.360   6.614
 3576POPC   C3A46037  37.798  21.624   6.978
 3576POPC   C4A46038  37.722  21.469   7.422
 3576POPC   C1B46039  37.338  21.353   6.239
 3576POPC   C2B46040  37.337  21.144   6.627
 3576POPC   C3B46041  37.510  21.195   7.016
 3576POPC   C4B46042  37.402  21.043   7.405
 3577POPC   NC346043  13.915  18.668   5.437
 3577POPC   PO446044  14.667  18.498   5.403
 3577POPC   GL146045  14.504  18.352   5.786
 3577POPC   GL246046  14.267  18.555   5.810
 3577POPC   C1A46047  14.568  18.314   6.209
 3577POPC   D2A46048  14.367  18.475   6.547
 3577POPC   C3A46049  14.269  18.262   6.904
 3577POPC   C4A46050  14.565  18.150   7.194
 3577POPC   C1B46051  14.134  18.755   6.176
 3577POPC   C2B46052  13.942  18.750   6.580
 3577POPC   C3B46053  14.227  18.811   6.925
 3577POPC   C4B46054  14.330  18.624   7.289
 3578POPC   NC346055   2.577   5.190   5.388
 3578POPC   PO446056   3.227   5.164   5.613
 3578POPC   GL146057   2.866   5.243   5.859
 3578POPC   GL246058   2.510   5.246   5.891
 3578POPC   C1A46059   2.861   5.275   6.281
 3578POPC   D2A46060   3.132   5.123   6.569
 3578POPC   C3A46061   2.981   5.037   6.985
 3578POPC   C4A46062   3.075   4.868   7.381
 3578POPC   C1B46063   2.376   5.030   6.271
 3578POPC   C2B46064   2.545   5.069   6.684
 3578POPC   C3B46065   2.484   5.002   7.128
 3578POPC   C4B46066   2.380   5.289   7.436
 3579POPC   NC346067  44.405  26.494   5.267
 3579POPC   PO446068  44.826  26.935   5.535
 3579POPC   GL146069  44.560  26.846   5.872
 3579POPC   GL246070  44.704  26.557   6.013
 3579POPC   C1A46071  44.577  27.011   6.274
 3579POPC   D2A46072  44.667  26.801   6.621
 3579POPC   C3A46073  44.473  26.973   6.955
 3579POPC   C4A46074  44.441  26.692   7.285
 3579POPC   C1B46075   0.039  26.788   6.242
 3579POPC   C2B46076   0.207  26.633   6.632
 3579POPC   C3B46077  44.968  26.671   7.021
 3579POPC   C4B46078  44.935  27.082   7.147
 3580POPC   NC346079  44.738   3.502   5.436
 3580POPC   PO446080  44.073   3.690   5.397
 3580POPC   GL146081  44.407   3.719   5.775
 3580POPC   GL246082  44.800   3.687   5.895
 3580POPC   C1A46083  44.458   3.880   6.200
 3580POPC   D2A46084  44.766   3.806   6.528
 3580POPC   C3A46085  44.553   3.891   6.928
 3580POPC   C4A46086  44.500   3.569   7.267
 3580POPC   C1B46087  44.904   3.322   6.152
 3580POPC   C2B46088  44.981   3.185   6.585
 3580POPC   C3B46089  44.896   3.409   6.992
 3580POPC   C4B46090   0.077   3.397   7.416
 3581POPC   NC346091  14.402  29.131   5.351
 3581POPC   PO446092  14.413  29.822   5.554
 3581POPC   GL146093  14.309  29.397   5.800
 3581POPC   GL246094  14.595  29.109   5.826
 3581POPC   C1A46095  14.204  29.083   6.152
 3581POPC   D2A46096  14.025  28.949   6.551
 3581POPC   C3A46097  14.163  29.190   6.864
 3581POPC   C4A46098  14.227  28.939   7.176
 3581POPC   C1B46099  14.773  29.157   6.261
 3581POPC   C2B46100  14.808  29.483   6.596
 3581POPC   C3B46101  14.825  29.492   7.072
 3581POPC   C4B46102  14.725  29.091   7.293
 3582POPC   NC346103  34.852  35.708   5.425
 3582POPC   PO446104  34.461  35.101   5.422
 3582POPC   GL146105  34.491  35.439   5.745
 3582POPC   GL246106  34.362  35.208   5.970
 3582POPC   C1A46107  34.441  35.643   6.184
 3582POPC   D2A46108  34.361  35.408   6.566
 3582POPC   C3A46109  34.420  35.633   6.936
 3582POPC   C4A46110  34.685  35.579   7.318
 3582POPC   C1B46111  34.715  35.208   6.234
 3582POPC   C2B46112  34.820  34.944   6.604
 3582POPC   C3B46113  34.714  35.168   6.973
 3582POPC   C4B46114  34.343  35.198   7.170
 3583POPC   NC346115   3.248   4.105   5.021
 3583POPC   PO446116   3.759   4.331   5.460
 3583POPC   GL146117   3.642   4.410   5.868
 3583POPC   GL246118   3.320   4.244   5.816
 3583POPC   C1A46119   3.602   4.220   6.279
 3583POPC   D2A46120   3.403   4.227   6.669
 3583POPC   C3A46121   3.681   4.421   6.954
 3583POPC   C4A46122   3.779   4.121   7.217
 3583POPC   C1B46123   3.175   4.474   6.176
 3583POPC   C2B46124   3.118   4.627   6.589
 3583POPC   C3B46125   3.148   4.535   7.004
 3583POPC   C4B46126   3.352   4.425   7.331
 3584POPC   NC346127  33.204  27.899   5.463
 3584POPC   PO446128  32.873  27.272   5.389
 3584POPC   GL146129  33.062  27.497   5.751
 3584POPC   GL246130  33.428  27.427   5.740
 3584POPC   C1A46131  32.943  27.539   6.189
 3584POPC   D2A46132  32.840  27.251   6.536
 3584POPC   C3A46133  32.733  27.478   6.908
 3584POPC   C4A46134  33.000  27.671   7.174
 3584POPC   C1B46135  33.448  27.394   6.201
 3584POPC   C2B46136  33.275  27.555   6.599
 3584POPC   C3B46137  33.454  27.615   6.996
 3584POPC   C4B46138  33.365  27.371   7.405
 3585POPC   NC346139  11.905  39.518   5.438
 3585POPC   PO446140  12.271  39.090   5.172
 3585POPC   GL146141  12.296  39.225   5.648
 3585POPC   GL246142  12.273  39.565   5.807
 3585POPC   C1A46143  12.080  39.196   6.071
 3585POPC   D2A46144  12.108  39.093   6.495
 3585POPC   C3A46145  11.827  38.999   6.808
 3585POPC   C4A46146  11.955  39.296   7.147
 3585POPC   C1B46147  12.167  39.645   6.269
 3585POPC   C2B46148  12.112  39.565   6.701
 3585POPC   C3B46149  12.207  39.771   7.080
 3585POPC   C4B46150  12.353  39.586   7.418
 3586POPC   NC346151  16.922  30.403   5.418
 3586POPC   PO446152  16.459  29.852   5.504
 3586POPC   GL146153  16.692  30.010   5.841
 3586POPC   GL246154  17.046  30.092   5.828
 3586POPC   C1A46155  16.716  29.887   6.256
 3586POPC   D2A46156  16.780  29.606   6.593
 3586POPC   C3A46157  16.790  29.866   6.951
 3586POPC   C4A46158  16.418  29.929   7.211
 3586POPC   C1B46159  17.065  30.308   6.203
 3586POPC   C2B46160  16.861  30.252   6.566
 3586POPC   C3B46161  17.105  30.304   6.908
 3586POPC   C4B46162  17.312  30.358   7.304
 3587POPC   NC346163  40.511  25.305   5.441
 3587POPC   PO446164  39.827  25.555   5.484
 3587POPC   GL146165  39.929  25.242   5.818
 3587POPC   GL246166  40.237  25.417   5.863
 3587POPC   C1A46167  39.925  25.015   6.264
 3587POPC   D2A46168  40.113  25.217   6.639
 3587POPC   C3A46169  39.911  25.296   6.953
 3587POPC   C4A46170  40.139  25.098   7.203
 3587POPC   C1B46171  40.013  25.521   6.257
 3587POPC   C2B46172  40.142  25.745   6.638
 3587POPC   C3B46173  40.154  25.727   7.049
 3587POPC   C4B46174  40.389  25.523   7.278
 3588POPC   NC346175   5.509  29.377   5.467
 3588POPC   PO446176   6.230  29.210   5.485
 3588POPC   GL146177   5.993  29.042   5.820
 3588POPC   GL246178   5.654  29.122   5.872
 3588POPC   C1A46179   6.101  29.201   6.193
 3588POPC   D2A46180   6.212  29.566   6.422
 3588POPC   C3A46181   6.122  29.413   6.828
 3588POPC   C4A46182   5.986  29.132   7.126
 3588POPC   C1B46183   5.667  28.925   6.263
 3588POPC   C2B46184   5.694  29.153   6.640
 3588POPC   C3B46185   5.547  28.957   6.984
 3588POPC   C4B46186   5.598  28.569   7.225
 3589POPC   NC346187  19.309  37.085   5.430
 3589POPC   PO446188  18.719  37.249   5.466
 3589POPC   GL146189  18.917  36.876   5.727
 3589POPC   GL246190  19.277  36.806   5.844
 3589POPC   C1A46191  18.917  36.662   6.137
 3589POPC   D2A46192  18.719  36.611   6.503
 3589POPC   C3A46193  18.966  36.515   6.849
 3589POPC   C4A46194  19.042  36.623   7.250
 3589POPC   C1B46195  19.286  37.031   6.225
 3589POPC   C2B46196  19.096  36.965   6.626
 3589POPC   C3B46197  19.215  37.073   7.075
 3589POPC   C4B46198  19.117  37.256   7.494
 3590POPC   NC346199  15.486  43.469   5.417
 3590POPC   PO446200  15.198  42.799   5.466
 3590POPC   GL146201  15.292  43.055   5.890
 3590POPC   GL246202  15.414  43.408   5.926
 3590POPC   C1A46203  15.222  42.979   6.321
 3590POPC   D2A46204  14.875  42.880   6.578
 3590POPC   C3A46205  14.877  42.965   7.012
 3590POPC   C4A46206  15.219  42.854   7.275
 3590POPC   C1B46207  15.318  43.479   6.375
 3590POPC   C2B46208  15.219  43.281   6.785
 3590POPC   C3B46209  15.441  43.309   7.202
 3590POPC   C4B46210  15.313  43.525   7.611
 3591POPC   NC346211  40.555  22.191   5.425
 3591POPC   PO446212  39.905  22.069   5.327
 3591POPC   GL146213  39.886  22.124   5.763
 3591POPC   GL246214  39.717  21.831   5.822
 3591POPC   C1A46215  40.162  22.296   6.118
 3591POPC   D2A46216  40.237  22.463   6.552
 3591POPC   C3A46217  39.902  22.565   6.841
 3591POPC   C4A46218  39.826  22.382   7.233
 3591POPC   C1B46219  39.995  21.772   6.148
 3591POPC   C2B46220  40.227  21.918   6.491
 3591POPC   C3B46221  40.039  22.073   6.844
 3591POPC   C4B46222  40.076  21.929   7.223
 3592POPC   NC346223  29.919  31.266   5.460
 3592POPC   PO446224  30.248  31.882   5.400
 3592POPC   GL146225  30.001  31.627   5.793
 3592POPC   GL246226  29.659  31.394   5.883
 3592POPC   C1A46227  30.025  31.475   6.212
 3592POPC   D2A46228  29.892  31.638   6.572
 3592POPC   C3A46229  29.911  31.277   6.812
 3592POPC   C4A46230  29.907  31.354   7.237
 3592POPC   C1B46231  29.442  31.067   6.168
 3592POPC   C2B46232  29.452  30.898   6.617
 3592POPC   C3B46233  29.539  30.984   7.077
 3592POPC   C4B46234  29.671  31.039   7.555
 3593POPC   NC346235  43.519  25.925   5.248
 3593POPC   PO446236  44.086  26.181   5.421
 3593POPC   GL146237  43.768  26.152   5.717
 3593POPC   GL246238  43.651  25.825   5.738
 3593POPC   C1A46239  43.739  26.280   6.133
 3593POPC   D2A46240  43.569  26.140   6.532
 3593POPC   C3A46241  43.781  26.236   6.871
 3593POPC   C4A46242  43.623  26.423   7.218
 3593POPC   C1B46243  43.851  25.779   6.137
 3593POPC   C2B46244  43.856  25.723   6.563
 3593POPC   C3B46245  43.633  25.688   6.929
 3593POPC   C4B46246  43.758  25.910   7.282
 3594POPC   NC346247  17.503  22.237   5.121
 3594POPC   PO446248  17.893  22.282   5.620
 3594POPC   GL146249  17.824  21.999   5.928
 3594POPC   GL246250  17.576  22.228   6.079
 3594POPC   C1A46251  17.713  21.783   6.309
 3594POPC   D2A46252  17.522  21.987   6.644
 3594POPC   C3A46253  17.793  22.012   6.977
 3594POPC   C4A46254  17.714  21.966   7.380
 3594POPC   C1B46255  17.272  22.378   6.392
 3594POPC   C2B46256  17.206  22.541   6.782
 3594POPC   C3B46257  17.527  22.457   7.049
 3594POPC   C4B46258  17.573  22.480   7.485
 3595POPC   NC346259  44.527  25.502   5.219
 3595POPC   PO446260  44.968  25.008   5.449
 3595POPC   GL146261  44.589  25.072   5.753
 3595POPC   GL246262  44.481  25.420   5.830
 3595POPC   C1A46263  44.446  25.062   6.220
 3595POPC   D2A46264  44.377  25.289   6.633
 3595POPC   C3A46265  44.559  25.141   7.009
 3595POPC   C4A46266  44.793  25.309   7.373
 3595POPC   C1B46267  44.369  25.625   6.235
 3595POPC   C2B46268  44.613  25.768   6.619
 3595POPC   C3B46269  44.695  25.719   7.056
 3595POPC   C4B46270   0.128  25.702   7.177
 3596POPC   NC346271  10.654   0.714   5.584
 3596POPC   PO446272  10.298   0.137   5.454
 3596POPC   GL146273  10.310   0.423   5.810
 3596POPC   GL246274  10.628   0.404   6.004
 3596POPC   C1A46275  10.191   0.555   6.247
 3596POPC   D2A46276  10.425   0.847   6.540
 3596POPC   C3A46277  10.364   0.829   6.994
 3596POPC   C4A46278  10.647   0.702   7.299
 3596POPC   C1B46279  10.917   0.473   6.347
 3596POPC   C2B46280  10.796   0.524   6.767
 3596POPC   C3B46281  10.494   0.337   6.957
 3596POPC   C4B46282  10.435   0.207   7.351
 3597POPC   NC346283  42.891   9.298   5.518
 3597POPC   PO446284  43.441   8.922   5.370
 3597POPC   GL146285  43.315   8.997   5.828
 3597POPC   GL246286  42.952   8.977   5.903
 3597POPC   C1A46287  43.310   9.254   6.236
 3597POPC   D2A46288  43.519   9.288   6.624
 3597POPC   C3A46289  43.313   9.035   6.896
 3597POPC   C4A46290  43.262   9.120   7.300
 3597POPC   C1B46291  43.064   8.816   6.285
 3597POPC   C2B46292  42.905   9.108   6.615
 3597POPC   C3B46293  42.814   8.996   7.045
 3597POPC   C4B46294  42.984   8.674   7.309
 3598POPC   NC346295   8.330  33.313   5.500
 3598POPC   PO446296   7.974  32.805   5.360
 3598POPC   GL146297   8.049  32.994   5.770
 3598POPC   GL246298   8.387  32.869   5.790
 3598POPC   C1A46299   8.190  33.176   6.186
 3598POPC   D2A46300   8.287  33.435   6.556
 3598POPC   C3A46301   8.315  33.221   6.967
 3598POPC   C4A46302   8.049  33.056   7.291
 3598POPC   C1B46303   8.381  32.694   6.218
 3598POPC   C2B46304   8.199  32.836   6.622
 3598POPC   C3B46305   8.326  32.707   7.043
 3598POPC   C4B46306   8.429  32.783   7.529
 3599POPC   NC346307  29.692  20.447   5.355
 3599POPC   PO446308  30.139  20.880   5.522
 3599POPC   GL146309  29.938  20.613   5.808
 3599POPC   GL246310  30.235  20.441   5.874
 3599POPC   C1A46311  29.943  20.574   6.263
 3599POPC   D2A46312  29.730  20.733   6.578
 3599POPC   C3A46313  29.979  20.551   6.920
 3599POPC   C4A46314  30.022  20.370   7.323
 3599POPC   C1B46315  30.385  20.798   6.144
 3599POPC   C2B46316  30.333  20.735   6.588
 3599POPC   C3B46317  30.337  20.916   7.010
 3599POPC   C4B46318  30.175  20.848   7.438
 3600POPC   NC346319  35.515   5.398   5.450
 3600POPC   PO446320  35.519   4.751   5.643
 3600POPC   GL146321  35.254   4.846   5.984
 3600POPC   GL246322  35.244   5.197   5.876
 3600POPC   C1A46323  35.256   5.045   6.406
 3600POPC   D2A46324  35.157   5.251   6.778
 3600POPC   C3A46325  35.174   4.919   6.983
 3600POPC   C4A46326  35.431   4.788   7.234
 3600POPC   C1B46327  35.564   5.339   6.136
 3600POPC   C2B46328  35.730   5.247   6.537
 3600POPC   C3B46329  35.675   5.177   6.949
 3600POPC   C4B46330  35.479   5.287   7.281
 3601POPC   NC346331  26.134   4.657   5.595
 3601POPC   PO446332  26.011   5.319   5.440
 3601POPC   GL146333  25.868   5.191   5.824
 3601POPC   GL246334  25.747   4.873   5.819
 3601POPC   C1A46335  25.820   5.160   6.254
 3601POPC   D2A46336  26.155   5.010   6.536
 3601POPC   C3A46337  26.018   5.025   6.976
 3601POPC   C4A46338  26.028   5.230   7.390
 3601POPC   C1B46339  25.941   4.665   6.199
 3601POPC   C2B46340  25.803   4.675   6.604
 3601POPC   C3B46341  25.663   4.598   6.974
 3601POPC   C4B46342  25.778   4.756   7.387
 3602POPC   NC346343  18.448   2.498   5.360
 3602POPC   PO446344  18.169   3.114   5.394
 3602POPC   GL146345  18.411   2.915   5.683
 3602POPC   GL246346  18.200   2.614   5.818
 3602POPC   C1A46347  18.490   2.922   6.113
 3602POPC   D2A46348  18.337   2.618   6.411
 3602POPC   C3A46349  18.410   2.870   6.797
 3602POPC   C4A46350  18.533   2.821   7.187
 3602POPC   C1B46351  17.912   2.781   6.175
 3602POPC   C2B46352  17.929   2.817   6.644
 3602POPC   C3B46353  17.975   2.712   7.069
 3602POPC   C4B46354  17.777   2.914   7.418
 3603POPC   NC346355   2.914  40.251   5.354
 3603POPC   PO446356   2.459  39.797   5.490
 3603POPC   GL146357   2.600  40.060   5.798
 3603POPC   GL246358   2.949  40.047   5.839
 3603POPC   C1A46359   2.600  40.160   6.237
 3603POPC   D2A46360   2.709  40.368   6.615
 3603POPC   C3A46361   2.507  40.090   6.878
 3603POPC   C4A46362   2.622  39.915   7.258
 3603POPC   C1B46363   3.109  39.923   6.255
 3603POPC   C2B46364   3.009  39.954   6.716
 3603POPC   C3B46365   3.111  40.026   7.154
 3603POPC   C4B46366   2.992  39.998   7.602
 3604POPC   NC346367  40.708   8.641   5.450
 3604POPC   PO446368  40.999   9.206   5.291
 3604POPC   GL146369  40.967   9.024   5.730
 3604POPC   GL246370  40.649   9.057   5.790
 3604POPC   C1A46371  40.983   9.018   6.220
 3604POPC   D2A46372  40.970   8.725   6.607
 3604POPC   C3A46373  41.145   8.853   7.014
 3604POPC   C4A46374  40.924   8.997   7.385
 3604POPC   C1B46375  40.540   8.760   6.121
 3604POPC   C2B46376  40.468   8.858   6.571
 3604POPC   C3B46377  40.608   8.890   6.989
 3604POPC   C4B46378  40.790   8.516   7.165
 3605POPC   NC346379  25.261  17.694   5.376
 3605POPC   PO446380  25.156  17.014   5.423
 3605POPC   GL146381  25.294  17.262   5.819
 3605POPC   GL246382  25.342  17.631   5.873
 3605POPC   C1A46383  25.616  17.312   6.155
 3605POPC   D2A46384  25.567  17.229   6.601
 3605POPC   C3A46385  25.390  17.516   6.898
 3605POPC   C4A46386  25.409  17.770   7.283
 3605POPC   C1B46387  25.189  17.550   6.302
 3605POPC   C2B46388  24.927  17.622   6.670
 3605POPC   C3B46389  24.950  17.639   7.132
 3605POPC   C4B46390  25.167  17.325   7.376
 3606POPC   NC346391  16.915  16.032   5.417
 3606POPC   PO446392  16.241  15.796   5.311
 3606POPC   GL146393  16.532  15.834   5.725
 3606POPC   GL246394  16.743  16.155   5.880
 3606POPC   C1A46395  16.722  15.688   6.138
 3606POPC   D2A46396  16.577  15.881   6.536
 3606POPC   C3A46397  16.642  15.763   6.973
 3606POPC   C4A46398  17.063  15.735   7.099
 3606POPC   C1B46399  17.045  16.106   6.234
 3606POPC   C2B46400  17.070  16.001   6.656
 3606POPC   C3B46401  16.924  16.227   7.016
 3606POPC   C4B46402  17.255  16.330   7.274
 3607POPC   NC346403   4.179   8.810   5.246
 3607POPC   PO446404   4.714   9.162   5.425
 3607POPC   GL146405   4.386   8.968   5.732
 3607POPC   GL246406   4.080   9.098   5.735
 3607POPC   C1A46407   4.278   8.777   6.145
 3607POPC   D2A46408   4.093   8.843   6.562
 3607POPC   C3A46409   4.246   8.742   6.978
 3607POPC   C4A46410   4.499   8.988   7.228
 3607POPC   C1B46411   4.006   9.208   6.173
 3607POPC   C2B46412   4.012   9.364   6.613
 3607POPC   C3B46413   4.102   9.256   7.052
 3607POPC   C4B46414   4.281   9.374   7.493
 3608POPC   NC346415  41.905   2.143   5.330
 3608POPC   PO446416  41.473   1.598   5.151
 3608POPC   GL146417  41.494   1.810   5.606
 3608POPC   GL246418  41.229   2.095   5.687
 3608POPC   C1A46419  41.569   1.731   6.098
 3608POPC   D2A46420  41.850   1.763   6.470
 3608POPC   C3A46421  41.747   1.832   6.930
 3608POPC   C4A46422  41.926   1.848   7.353
 3608POPC   C1B46423  41.592   2.205   5.942
 3608POPC   C2B46424  41.634   2.233   6.372
 3608POPC   C3B46425  41.710   2.334   6.766
 3608POPC   C4B46426  41.606   2.268   7.190
 3609POPC   NC346427  28.257  13.768   5.436
 3609POPC   PO446428  28.894  13.996   5.460
 3609POPC   GL146429  28.629  13.763   5.799
 3609POPC   GL246430  28.339  13.936   5.907
 3609POPC   C1A46431  28.512  13.672   6.271
 3609POPC   D2A46432  28.195  13.456   6.495
 3609POPC   C3A46433  28.356  13.268   6.833
 3609POPC   C4A46434  28.324  13.507   7.191
 3609POPC   C1B46435  27.997  13.805   6.160
 3609POPC   C2B46436  27.842  13.815   6.574
 3609POPC   C3B46437  28.208  13.846   6.840
 3609POPC   C4B46438  28.307  14.067   7.223
 3610POPC   NC346439  39.712  34.990   5.207
 3610POPC   PO446440  40.295  34.686   5.533
 3610POPC   GL146441  39.931  34.646   5.830
 3610POPC   GL246442  39.723  34.938   5.747
 3610POPC   C1A46443  39.929  34.436   6.258
 3610POPC   D2A46444  40.172  34.518   6.641
 3610POPC   C3A46445  40.008  34.549   7.055
 3610POPC   C4A46446  39.796  34.258   7.297
 3610POPC   C1B46447  39.564  34.800   6.163
 3610POPC   C2B46448  39.521  34.607   6.586
 3610POPC   C3B46449  39.472  34.580   7.041
 3610POPC   C4B46450  39.670  34.719   7.441
 3611POPC   NC346451   0.336  40.606   5.423
 3611POPC   PO446452   0.604  41.209   5.433
 3611POPC   GL146453   0.790  41.041   5.807
 3611POPC   GL246454   0.737  40.671   5.761
 3611POPC   C1A46455   0.601  40.926   6.199
 3611POPC   D2A46456   0.403  40.692   6.499
 3611POPC   C3A46457   0.649  40.779   6.813
 3611POPC   C4A46458   0.493  40.810   7.189
 3611POPC   C1B46459   0.634  40.413   6.132
 3611POPC   C2B46460   0.734  40.316   6.546
 3611POPC   C3B46461   0.516  40.296   6.915
 3611POPC   C4B46462   0.697  40.352   7.304
 3612POPC   NC346463  42.964  30.334   5.607
 3612POPC   PO446464  42.864  30.875   5.334
 3612POPC   GL146465  42.933  30.978   5.826
 3612POPC   GL246466  43.061  30.668   5.970
 3612POPC   C1A46467  43.045  31.054   6.270
 3612POPC   D2A46468  43.049  30.874   6.665
 3612POPC   C3A46469  43.259  30.807   7.068
 3612POPC   C4A46470  43.048  30.939   7.448
 3612POPC   C1B46471  43.418  30.687   6.249
 3612POPC   C2B46472  43.412  30.519   6.644
 3612POPC   C3B46473  43.464  30.281   7.004
 3612POPC   C4B46474  43.560  30.443   7.379
 3613POPC   NC346475  33.604  13.534   5.171
 3613POPC   PO446476  34.123  13.458   5.607
 3613POPC   GL146477  33.800  13.617   5.883
 3613POPC   GL246478  33.596  13.896   5.807
 3613POPC   C1A46479  33.781  13.687   6.311
 3613POPC   D2A46480  33.846  13.439   6.653
 3613POPC   C3A46481  33.640  13.605   6.968
 3613POPC   C4A46482  33.975  13.645   7.232
 3613POPC   C1B46483  33.307  13.833   6.126
 3613POPC   C2B46484  33.331  13.824   6.555
 3613POPC   C3B46485  33.263  14.024   6.930
 3613POPC   C4B46486  33.273  13.750   7.290
 3614POPC   NC346487  24.785  44.110   5.325
 3614POPC   PO446488  24.212  43.897   5.299
 3614POPC   GL146489  24.473  43.920   5.703
 3614POPC   GL246490  24.362  43.617   5.890
 3614POPC   C1A46491  24.681  44.046   6.111
 3614POPC   D2A46492  24.586  44.196   6.549
 3614POPC   C3A46493  24.750  43.989   6.929
 3614POPC   C4A46494  24.725  43.906   7.368
 3614POPC   C1B46495  24.277  43.780   6.312
 3614POPC   C2B46496  24.314  43.782   6.757
 3614POPC   C3B46497  24.305  43.708   7.195
 3614POPC   C4B46498  24.219  43.721   7.644
 3615POPC   NC346499   3.692  20.010   5.467
 3615POPC   PO446500   3.080  19.685   5.412
 3615POPC   GL146501   3.282  19.813   5.753
 3615POPC   GL246502   3.558  19.562   5.732
 3615POPC   C1A46503   3.381  19.814   6.178
 3615POPC   D2A46504   3.628  19.843   6.531
 3615POPC   C3A46505   3.416  19.810   6.914
 3615POPC   C4A46506   3.348  19.530   7.243
 3615POPC   C1B46507   3.840  19.573   6.099
 3615POPC   C2B46508   4.027  19.347   6.461
 3615POPC   C3B46509   4.006  19.590   6.823
 3615POPC   C4B46510   3.835  19.688   7.198
 3616POPC   NC346511  33.951   7.088   5.610
 3616POPC   PO446512  33.586   6.574   5.337
 3616POPC   GL146513  33.651   6.699   5.779
 3616POPC   GL246514  34.020   6.639   5.863
 3616POPC   C1A46515  33.673   6.763   6.231
 3616POPC   D2A46516  33.801   6.877   6.643
 3616POPC   C3A46517  33.651   6.705   6.987
 3616POPC   C4A46518  33.472   6.661   7.331
 3616POPC   C1B46519  34.181   6.908   6.217
 3616POPC   C2B46520  34.335   6.895   6.637
 3616POPC   C3B46521  34.157   6.711   7.009
 3616POPC   C4B46522  33.970   6.832   7.397
 3617POPC   NC346523  43.564  37.807   5.568
 3617POPC   PO446524  44.206  37.587   5.428
 3617POPC   GL146525  44.090  37.365   5.805
 3617POPC   GL246526  43.849  37.613   5.948
 3617POPC   C1A46527  44.137  37.331   6.264
 3617POPC   D2A46528  43.849  37.573   6.512
 3617POPC   C3A46529  43.856  37.519   6.961
 3617POPC   C4A46530  44.049  37.819   7.232
 3617POPC   C1B46531  43.478  37.799   6.202
 3617POPC   C2B46532  43.465  38.028   6.602
 3617POPC   C3B46533  43.585  37.991   7.031
 3617POPC   C4B46534  43.563  37.702   7.356
 3618POPC   NC346535  44.379  16.979   5.530
 3618POPC   PO446536  43.696  16.650   5.456
 3618POPC   GL146537  43.940  16.712   5.823
 3618POPC   GL246538  44.149  16.453   5.898
 3618POPC   C1A46539  43.902  16.691   6.282
 3618POPC   D2A46540  43.754  16.896   6.661
 3618POPC   C3A46541  43.888  16.706   7.039
 3618POPC   C4A46542  43.775  16.790   7.502
 3618POPC   C1B46543  44.194  16.223   6.272
 3618POPC   C2B46544  44.088  16.389   6.668
 3618POPC   C3B46545  44.152  16.227   7.073
 3618POPC   C4B46546  44.197  16.503   7.393
 3619POPC   NC346547  15.248   3.272   5.506
 3619POPC   PO446548  15.018   3.912   5.425
 3619POPC   GL146549  15.067   3.654   5.803
 3619POPC   GL246550  14.901   3.320   5.871
 3619POPC   C1A46551  15.373   3.520   6.142
 3619POPC   D2A46552  15.332   3.703   6.575
 3619POPC   C3A46553  15.268   3.573   7.012
 3619POPC   C4A46554  15.516   3.795   7.282
 3619POPC   C1B46555  14.898   3.529   6.269
 3619POPC   C2B46556  14.954   3.365   6.669
 3619POPC   C3B46557  14.853   3.275   7.082
 3619POPC   C4B46558  14.943   3.532   7.488
 3620POPC   NC346559  32.238  13.977   5.458
 3620POPC   PO446560  32.525  14.535   5.423
 3620POPC   GL146561  32.374  14.336   5.790
 3620POPC   GL246562  32.046  14.442   5.826
 3620POPC   C1A46563  32.431  14.457   6.206
 3620POPC   D2A46564  32.438  14.291   6.581
 3620POPC   C3A46565  32.481  14.494   6.975
 3620POPC   C4A46566  32.183  14.218   7.163
 3620POPC   C1B46567  31.869  14.645   6.212
 3620POPC   C2B46568  31.641  14.654   6.619
 3620POPC   C3B46569  31.782  14.510   7.041
 3620POPC   C4B46570  32.103  14.664   7.369
 3621POPC   NC346571  30.836   3.643   5.430
 3621POPC   PO446572  30.306   3.225   5.530
 3621POPC   GL146573  30.574   3.463   5.844
 3621POPC   GL246574  30.908   3.336   5.806
 3621POPC   C1A46575  30.724   3.679   6.233
 3621POPC   D2A46576  31.042   3.760   6.588
 3621POPC   C3A46577  30.885   3.854   6.979
 3621POPC   C4A46578  30.500   3.703   7.116
 3621POPC   C1B46579  30.906   3.174   6.194
 3621POPC   C2B46580  30.751   3.300   6.602
 3621POPC   C3B46581  30.815   3.318   7.022
 3621POPC   C4B46582  30.854   3.532   7.437
 3622POPC   NC346583  41.160  17.401   5.457
 3622POPC   PO446584  41.804  17.424   5.486
 3622POPC   GL146585  41.714  17.636   5.832
 3622POPC   GL246586  41.403  17.774   5.741
 3622POPC   C1A46587  41.723  17.501   6.257
 3622POPC   D2A46588  41.716  17.240   6.639
 3622POPC   C3A46589  41.692  17.429   7.053
 3622POPC   C4A46590  41.258  17.432   7.165
 3622POPC   C1B46591  41.220  17.654   6.116
 3622POPC   C2B46592  41.226  17.630   6.559
 3622POPC   C3B46593  41.417  17.846   6.898
 3622POPC   C4B46594  41.498  17.842   7.338
 3623POPC   NC346595  38.155  36.338   5.356
 3623POPC   PO446596  38.671  35.927   5.505
 3623POPC   GL146597  38.549  36.334   5.737
 3623POPC   GL246598  38.183  36.426   5.847
 3623POPC   C1A46599  38.600  36.361   6.190
 3623POPC   D2A46600  38.771  36.080   6.531
 3623POPC   C3A46601  38.774  36.228   6.972
 3623POPC   C4A46602  38.497  36.308   7.334
 3623POPC   C1B46603  38.202  36.037   6.039
 3623POPC   C2B46604  38.250  36.075   6.478
 3623POPC   C3B46605  38.267  36.109   6.926
 3623POPC   C4B46606  38.112  35.948   7.317
 3624POPC   NC346607  18.059  21.884   5.443
 3624POPC   PO446608  18.365  21.232   5.410
 3624POPC   GL146609  18.413  21.352   5.818
 3624POPC   GL246610  18.585  21.040   5.914
 3624POPC   C1A46611  18.149  21.541   6.157
 3624POPC   D2A46612  18.255  21.453   6.590
 3624POPC   C3A46613  18.012  21.526   6.947
 3624POPC   C4A46614  18.291  21.512   7.283
 3624POPC   C1B46615  18.228  21.047   6.227
 3624POPC   C2B46616  18.122  20.915   6.616
 3624POPC   C3B46617  18.315  21.067   6.948
 3624POPC   C4B46618  18.104  21.066   7.270
 3625POPC   NC346619  36.221  11.832   5.375
 3625POPC   PO446620  36.222  12.430   5.659
 3625POPC   GL146621  36.192  12.061   5.845
 3625POPC   GL246622  35.860  11.922   5.773
 3625POPC   C1A46623  36.147  12.116   6.248
 3625POPC   D2A46624  36.100  12.007   6.620
 3625POPC   C3A46625  36.236  12.310   6.886
 3625POPC   C4A46626  36.171  12.260   7.316
 3625POPC   C1B46627  35.671  11.931   6.189
 3625POPC   C2B46628  35.657  11.779   6.595
 3625POPC   C3B46629  35.859  11.823   7.024
 3625POPC   C4B46630  35.793  11.922   7.454
 3626POPC   NC346631   7.972  21.657   5.531
 3626POPC   PO446632   8.436  21.144   5.420
 3626POPC   GL146633   8.301  21.361   5.806
 3626POPC   GL246634   8.357  21.708   5.889
 3626POPC   C1A46635   8.367  21.364   6.261
 3626POPC   D2A46636   8.510  21.239   6.647
 3626POPC   C3A46637   8.444  21.536   6.993
 3626POPC   C4A46638   8.167  21.364   7.319
 3626POPC   C1B46639   7.934  21.621   6.164
 3626POPC   C2B46640   7.734  21.603   6.551
 3626POPC   C3B46641   7.931  21.572   6.923
 3626POPC   C4B46642   8.055  21.844   7.262
 3627POPC   NC346643  35.629   7.082   5.434
 3627POPC   PO446644  35.200   7.675   5.502
 3627POPC   GL146645  35.332   7.302   5.765
 3627POPC   GL246646  35.638   7.499   5.759
 3627POPC   C1A46647  35.566   7.145   6.144
 3627POPC   D2A46648  35.285   7.278   6.434
 3627POPC   C3A46649  35.260   7.342   6.850
 3627POPC   C4A46650  35.318   7.200   7.241
 3627POPC   C1B46651  35.427   7.655   6.118
 3627POPC   C2B46652  35.355   7.835   6.484
 3627POPC   C3B46653  35.504   7.792   6.875
 3627POPC   C4B46654  35.318   7.728   7.226
 3628POPC   NC346655  12.083  42.876   5.354
 3628POPC   PO446656  12.409  43.497   5.369
 3628POPC   GL146657  12.262  43.341   5.858
 3628POPC   GL246658  12.235  42.976   6.065
 3628POPC   C1A46659  11.867  43.288   6.152
 3628POPC   D2A46660  11.883  42.948   6.462
 3628POPC   C3A46661  11.988  42.904   6.909
 3628POPC   C4A46662  11.697  42.716   7.201
 3628POPC   C1B46663  12.493  42.731   6.362
 3628POPC   C2B46664  12.488  42.674   6.822
 3628POPC   C3B46665  12.474  43.017   7.144
 3628POPC   C4B46666  12.473  43.473   7.284
 3629POPC   NC346667  27.881  33.900   5.392
 3629POPC   PO446668  27.316  33.549   5.426
 3629POPC   GL146669  27.497  33.525   5.811
 3629POPC   GL246670  27.830  33.663   5.846
 3629POPC   C1A46671  27.386  33.705   6.204
 3629POPC   D2A46672  27.169  33.825   6.561
 3629POPC   C3A46673  27.394  33.839   6.923
 3629POPC   C4A46674  27.375  33.637   7.286
 3629POPC   C1B46675  27.791  33.412   6.225
 3629POPC   C2B46676  27.634  33.468   6.652
 3629POPC   C3B46677  27.774  33.339   7.062
 3629POPC   C4B46678  27.793  33.450   7.491
 3630POPC   NC346679   3.421  13.167   5.397
 3630POPC   PO446680   3.886  12.693   5.374
 3630POPC   GL146681   3.698  12.898   5.781
 3630POPC   GL246682   3.309  12.868   5.821
 3630POPC   C1A46683   3.781  13.018   6.245
 3630POPC   D2A46684   3.748  12.803   6.670
 3630POPC   C3A46685   3.939  12.871   7.107
 3630POPC   C4A46686   3.972  12.637   7.528
 3630POPC   C1B46687   3.089  13.052   6.189
 3630POPC   C2B46688   3.318  13.095   6.593
 3630POPC   C3B46689   3.422  12.969   7.011
 3630POPC   C4B46690   3.278  13.181   7.320
 3631POPC   NC346691   2.512   6.955   5.378
 3631POPC   PO446692   2.925   6.537   5.164
 3631POPC   GL146693   2.797   6.595   5.640
 3631POPC   GL246694   2.910   6.895   5.823
 3631POPC   C1A46695   2.891   6.447   6.086
 3631POPC   D2A46696   2.673   6.540   6.475
 3631POPC   C3A46697   2.848   6.503   6.878
 3631POPC   C4A46698   2.982   6.841   7.184
 3631POPC   C1B46699   2.536   6.836   6.067
 3631POPC   C2B46700   2.384   6.980   6.479
 3631POPC   C3B46701   2.465   6.817   6.871
 3631POPC   C4B46702   2.485   7.008   7.232
 3632POPC   NC346703  23.002  34.005   5.366
 3632POPC   PO446704  23.397  33.502   5.531
 3632POPC   GL146705  23.204  33.839   5.815
 3632POPC   GL246706  23.163  34.243   5.817
 3632POPC   C1A46707  23.048  33.859   6.243
 3632POPC   D2A46708  22.682  33.848   6.544
 3632POPC   C3A46709  22.785  33.669   6.957
 3632POPC   C4A46710  22.689  33.880   7.367
 3632POPC   C1B46711  23.055  34.380   6.268
 3632POPC   C2B46712  23.092  34.158   6.681
 3632POPC   C3B46713  23.109  34.031   7.138
 3632POPC   C4B46714  23.052  34.136   7.617
 3633POPC   NC346715  13.855  11.126   5.318
 3633POPC   PO446716  13.331  11.503   5.287
 3633POPC   GL146717  13.579  11.382   5.687
 3633POPC   GL246718  13.628  11.012   5.780
 3633POPC   C1A46719  13.569  11.428   6.150
 3633POPC   D2A46720  13.750  11.325   6.559
 3633POPC   C3A46721  13.512  11.272   6.935
 3633POPC   C4A46722  13.617  11.539   7.262
 3633POPC   C1B46723  13.676  10.916   6.225
 3633POPC   C2B46724  13.732  10.832   6.686
 3633POPC   C3B46725  14.038  11.049   6.968
 3633POPC   C4B46726  14.016  11.221   7.379
 3634POPC   NC346727   0.868   6.648   5.647
 3634POPC   PO446728   1.356   7.029   5.379
 3634POPC   GL146729   1.336   6.794   5.811
 3634POPC   GL246730   1.301   6.402   5.748
 3634POPC   C1A46731   1.092   6.666   6.233
 3634POPC   D2A46732   0.982   6.741   6.662
 3634POPC   C3A46733   1.358   6.663   6.890
 3634POPC   C4A46734   1.410   6.536   7.301
 3634POPC   C1B46735   1.290   6.184   6.140
 3634POPC   C2B46736   1.185   6.265   6.559
 3634POPC   C3B46737   1.177   6.192   6.982
 3634POPC   C4B46738   1.367   6.026   7.335
 3635POPC   NC346739  40.327  39.320   4.948
 3635POPC   PO446740  39.778  39.229   5.396
 3635POPC   GL146741  39.944  39.148   5.839
 3635POPC   GL246742  39.651  38.980   5.907
 3635POPC   C1A46743  40.139  39.374   6.206
 3635POPC   D2A46744  40.357  39.207   6.570
 3635POPC   C3A46745  40.242  39.364   6.958
 3635POPC   C4A46746  40.286  39.168   7.353
 3635POPC   C1B46747  39.619  39.274   6.248
 3635POPC   C2B46748  39.815  39.375   6.634
 3635POPC   C3B46749  39.799  39.149   7.031
 3635POPC   C4B46750  39.790  39.319   7.415
 3636POPC   NC346751  29.075  24.173   5.426
 3636POPC   PO446752  28.870  24.798   5.378
 3636POPC   GL146753  28.868  24.552   5.715
 3636POPC   GL246754  29.239  24.591   5.745
 3636POPC   C1A46755  28.909  24.411   6.114
 3636POPC   D2A46756  28.877  24.585   6.525
 3636POPC   C3A46757  29.115  24.641   6.893
 3636POPC   C4A46758  29.127  24.350   7.211
 3636POPC   C1B46759  29.412  24.394   6.117
 3636POPC   C2B46760  29.448  24.455   6.549
 3636POPC   C3B46761  29.583  24.419   7.003
 3636POPC   C4B46762  29.569  24.577   7.434
 3637POPC   NC346763  44.068  30.899   5.532
 3637POPC   PO446764  43.388  30.545   5.604
 3637POPC   GL146765  43.772  30.580   5.819
 3637POPC   GL246766  43.822  30.915   5.964
 3637POPC   C1A46767  43.949  30.491   6.229
 3637POPC   D2A46768  43.890  30.386   6.648
 3637POPC   C3A46769  43.776  30.700   6.960
 3637POPC   C4A46770  44.060  30.446   7.169
 3637POPC   C1B46771  44.215  30.931   6.217
 3637POPC   C2B46772  44.144  30.885   6.664
 3637POPC   C3B46773  44.268  30.900   7.119
 3637POPC   C4B46774  44.327  30.943   7.608
 3638POPC   NC346775  31.678  28.345   5.312
 3638POPC   PO446776  31.106  28.487   5.662
 3638POPC   GL146777  31.448  28.320   5.809
 3638POPC   GL246778  31.669  28.582   5.745
 3638POPC   C1A46779  31.448  28.213   6.247
 3638POPC   D2A46780  31.492  27.949   6.622
 3638POPC   C3A46781  31.387  28.207   6.957
 3638POPC   C4A46782  31.313  28.543   7.260
 3638POPC   C1B46783  31.780  28.625   6.139
 3638POPC   C2B46784  31.580  28.656   6.514
 3638POPC   C3B46785  31.750  28.558   6.875
 3638POPC   C4B46786  31.841  28.741   7.236
 3639POPC   NC346787  34.352   4.847   5.549
 3639POPC   PO446788  34.624   5.477   5.346
 3639POPC   GL146789  34.543   5.284   5.779
 3639POPC   GL246790  34.785   4.980   5.776
 3639POPC   C1A46791  34.319   5.303   6.228
 3639POPC   D2A46792  34.202   5.586   6.625
 3639POPC   C3A46793  34.233   5.371   7.045
 3639POPC   C4A46794  34.373   5.071   7.347
 3639POPC   C1B46795  34.813   5.124   6.179
 3639POPC   C2B46796  34.723   4.995   6.571
 3639POPC   C3B46797  34.693   5.088   6.974
 3639POPC   C4B46798  34.841   4.863   7.368
 3640POPC   NC346799   4.533  15.471   5.378
 3640POPC   PO446800   4.100  14.964   5.480
 3640POPC   GL146801   4.161  15.291   5.796
 3640POPC   GL246802   4.307  15.086   5.984
 3640POPC   C1A46803   4.032  15.437   6.239
 3640POPC   D2A46804   4.107  15.178   6.618
 3640POPC   C3A46805   4.136  15.309   7.060
 3640POPC   C4A46806   3.978  15.246   7.506
 3640POPC   C1B46807   4.574  15.015   6.310
 3640POPC   C2B46808   4.579  14.975   6.719
 3640POPC   C3B46809   4.513  14.960   7.122
 3640POPC   C4B46810   4.824  14.852   7.414
 3641POPC   NC346811  19.063  41.282   5.625
 3641POPC   PO446812  18.914  41.932   5.485
 3641POPC   GL146813  19.089  41.740   5.871
 3641POPC   GL246814  18.738  41.596   5.882
 3641POPC   C1A46815  19.258  41.471   6.243
 3641POPC   D2A46816  19.076  41.331   6.649
 3641POPC   C3A46817  19.319  41.448   7.011
 3641POPC   C4A46818  19.175  41.546   7.456
 3641POPC   C1B46819  18.782  41.663   6.316
 3641POPC   C2B46820  19.054  41.852   6.617
 3641POPC   C3B46821  19.053  41.891   7.062
 3641POPC   C4B46822  19.115  42.202   7.352
 3642POPC   NC346823  28.622  37.788   5.396
 3642POPC   PO446824  28.043  38.087   5.584
 3642POPC   GL146825  28.327  37.807   5.858
 3642POPC   GL246826  28.669  37.578   5.852
 3642POPC   C1A46827  28.246  37.782   6.303
 3642POPC   D2A46828  28.016  37.777   6.696
 3642POPC   C3A46829  28.339  37.815   6.984
 3642POPC   C4A46830  28.437  37.756   7.410
 3642POPC   C1B46831  28.539  37.378   6.230
 3642POPC   C2B46832  28.380  37.365   6.670
 3642POPC   C3B46833  28.608  37.375   7.077
 3642POPC   C4B46834  28.457  37.257   7.481
 3643POPC   NC346835  15.512  19.400   5.158
 3643POPC   PO446836  15.054  18.945   5.303
 3643POPC   GL146837  15.232  18.881   5.732
 3643POPC   GL246838  15.050  19.154   5.842
 3643POPC   C1A46839  15.269  18.913   6.236
 3643POPC   D2A46840  15.156  19.126   6.673
 3643POPC   C3A46841  15.161  18.854   7.041
 3643POPC   C4A46842  15.526  18.628   7.149
 3643POPC   C1B46843  15.194  19.413   6.217
 3643POPC   C2B46844  15.533  19.469   6.536
 3643POPC   C3B46845  15.473  19.445   6.983
 3643POPC   C4B46846  15.091  19.347   7.203
 3644POPC   NC346847   8.461   8.434   5.533
 3644POPC   PO446848   7.809   8.436   5.540
 3644POPC   GL146849   8.064   8.189   5.811
 3644POPC   GL246850   8.350   7.951   5.751
 3644POPC   C1A46851   8.117   8.260   6.224
 3644POPC   D2A46852   8.292   8.525   6.518
 3644POPC   C3A46853   8.187   8.299   6.887
 3644POPC   C4A46854   8.061   8.312   7.309
 3644POPC   C1B46855   8.502   7.934   6.166
 3644POPC   C2B46856   8.273   7.877   6.551
 3644POPC   C3B46857   8.412   7.855   6.959
 3644POPC   C4B46858   8.540   8.080   7.307
 3645POPC   NC346859  20.370  22.693   5.596
 3645POPC   PO446860  20.989  22.874   5.324
 3645POPC   GL146861  20.791  23.035   5.790
 3645POPC   GL246862  20.450  23.086   5.907
 3645POPC   C1A46863  20.881  23.093   6.263
 3645POPC   D2A46864  20.906  23.235   6.720
 3645POPC   C3A46865  20.768  23.025   7.124
 3645POPC   C4A46866  20.748  23.227   7.542
 3645POPC   C1B46867  20.488  22.775   6.229
 3645POPC   C2B46868  20.638  22.796   6.644
 3645POPC   C3B46869  20.349  22.765   6.955
 3645POPC   C4B46870  20.253  22.623   7.351
 3646POPC   NC346871   2.578  24.092   5.301
 3646POPC   PO446872   3.027  23.576   5.345
 3646POPC   GL146873   2.845  23.753   5.731
 3646POPC   GL246874   2.470  23.678   5.745
 3646POPC   C1A46875   2.977  23.813   6.189
 3646POPC   D2A46876   2.846  23.725   6.631
 3646POPC   C3A46877   3.043  23.700   7.065
 3646POPC   C4A46878   2.803  23.713   7.497
 3646POPC   C1B46879   2.473  23.711   6.209
 3646POPC   C2B46880   2.344  23.576   6.647
 3646POPC   C3B46881   2.521  23.643   7.076
 3646POPC   C4B46882   2.288  23.689   7.502
 3647POPC   NC346883  12.503  37.231   5.443
 3647POPC   PO446884  12.158  36.645   5.476
 3647POPC   GL146885  12.063  36.904   5.834
 3647POPC   GL246886  12.230  37.228   5.889
 3647POPC   C1A46887  11.864  36.917   6.231
 3647POPC   D2A46888  12.008  37.108   6.628
 3647POPC   C3A46889  11.810  37.110   7.003
 3647POPC   C4A46890  11.855  36.741   7.174
 3647POPC   C1B46891  12.363  36.996   6.265
 3647POPC   C2B46892  12.473  36.889   6.667
 3647POPC   C3B46893  12.395  37.041   7.106
 3647POPC   C4B46894  12.563  37.099   7.572
 3648POPC   NC346895  30.304  26.306   5.706
 3648POPC   PO446896  29.719  26.119   5.396
 3648POPC   GL146897  29.861  25.973   5.801
 3648POPC   GL246898  30.084  25.673   5.857
 3648POPC   C1A46899  29.699  25.853   6.221
 3648POPC   D2A46900  29.899  25.996   6.628
 3648POPC   C3A46901  29.652  26.263   6.884
 3648POPC   C4A46902  29.526  25.974   7.208
 3648POPC   C1B46903  30.185  25.980   6.206
 3648POPC   C2B46904  30.426  26.046   6.540
 3648POPC   C3B46905  30.352  25.923   6.942
 3648POPC   C4B46906  30.031  26.088   7.198
 3649POPC   NC346907   6.003  37.236   5.374
 3649POPC   PO446908   5.953  36.652   5.656
 3649POPC   GL146909   5.989  36.909   5.916
 3649POPC   GL246910   6.276  37.073   5.820
 3649POPC   C1A46911   5.901  36.793   6.308
 3649POPC   D2A46912   5.704  36.716   6.655
 3649POPC   C3A46913   5.712  37.017   6.950
 3649POPC   C4A46914   5.529  37.058   7.333
 3649POPC   C1B46915   6.189  37.217   6.244
 3649POPC   C2B46916   6.153  37.042   6.653
 3649POPC   C3B46917   6.174  37.219   7.009
 3649POPC   C4B46918   6.039  37.018   7.362
 3650POPC   NC346919  32.448   6.152   5.400
 3650POPC   PO446920  32.417   5.538   5.660
 3650POPC   GL146921  32.170   5.824   5.848
 3650POPC   GL246922  31.825   5.678   5.833
 3650POPC   C1A46923  32.263   5.944   6.264
 3650POPC   D2A46924  32.155   5.763   6.646
 3650POPC   C3A46925  32.358   5.951   6.986
 3650POPC   C4A46926  32.296   6.212   7.367
 3650POPC   C1B46927  31.764   5.748   6.276
 3650POPC   C2B46928  31.635   5.747   6.717
 3650POPC   C3B46929  31.862   5.912   7.061
 3650POPC   C4B46930  32.125   5.739   7.405
 3651POPC   NC346931  37.976  23.825   5.447
 3651POPC   PO446932  37.311  24.034   5.412
 3651POPC   GL146933  37.595  24.002   5.810
 3651POPC   GL246934  37.714  23.638   5.839
 3651POPC   C1A46935  37.678  23.857   6.269
 3651POPC   D2A46936  37.693  23.576   6.615
 3651POPC   C3A46937  37.747  23.868   6.949
 3651POPC   C4A46938  37.728  24.027   7.373
 3651POPC   C1B46939  37.966  23.425   6.187
 3651POPC   C2B46940  38.026  23.182   6.570
 3651POPC   C3B46941  38.069  23.362   6.965
 3651POPC   C4B46942  38.244  23.613   7.294
 3652POPC   NC346943  22.319  23.898   5.392
 3652POPC   PO446944  21.800  23.457   5.371
 3652POPC   GL146945  22.004  23.686   5.748
 3652POPC   GL246946  22.059  24.075   5.802
 3652POPC   C1A46947  21.931  23.777   6.191
 3652POPC   D2A46948  22.123  23.604   6.541
 3652POPC   C3A46949  22.183  23.681   6.959
 3652POPC   C4A46950  21.974  23.565   7.300
 3652POPC   C1B46951  22.281  24.138   6.230
 3652POPC   C2B46952  22.178  24.127   6.662
 3652POPC   C3B46953  22.286  24.177   7.080
 3652POPC   C4B46954  22.319  23.890   7.442
 3653POPC   NC346955  36.237  36.172   5.184
 3653POPC   PO446956  35.921  35.785   5.568
 3653POPC   GL146957  36.027  36.123   5.844
 3653POPC   GL246958  36.186  36.402   5.688
 3653POPC   C1A46959  36.211  36.022   6.243
 3653POPC   D2A46960  36.329  35.900   6.673
 3653POPC   C3A46961  36.039  35.889   7.037
 3653POPC   C4A46962  35.981  35.836   7.469
 3653POPC   C1B46963  36.303  36.518   6.106
 3653POPC   C2B46964  36.133  36.421   6.529
 3653POPC   C3B46965  36.245  36.345   6.921
 3653POPC   C4B46966  36.248  36.263   7.336
 3654POPC   NC346967  19.757   3.598   5.486
 3654POPC   PO446968  20.273   3.206   5.475
 3654POPC   GL146969  20.049   3.383   5.839
 3654POPC   GL246970  20.073   3.778   5.835
 3654POPC   C1A46971  19.868   3.312   6.254
 3654POPC   D2A46972  19.950   3.565   6.622
 3654POPC   C3A46973  19.689   3.538   6.972
 3654POPC   C4A46974  19.671   3.545   7.408
 3654POPC   C1B46975  19.766   3.796   6.153
 3654POPC   C2B46976  19.697   4.016   6.562
 3654POPC   C3B46977  19.912   4.030   6.972
 3654POPC   C4B46978  19.832   4.046   7.434
 3655POPC   NC346979  31.711  29.344   5.336
 3655POPC   PO446980  31.036  29.180   5.322
 3655POPC   GL146981  31.337  28.987   5.664
 3655POPC   GL246982  31.708  29.091   5.772
 3655POPC   C1A46983  31.355  28.942   6.128
 3655POPC   D2A46984  31.366  29.207   6.517
 3655POPC   C3A46985  31.626  29.077   6.881
 3655POPC   C4A46986  31.426  29.044   7.297
 3655POPC   C1B46987  31.812  29.244   6.201
 3655POPC   C2B46988  31.787  29.510   6.591
 3655POPC   C3B46989  31.788  29.576   7.028
 3655POPC   C4B46990  31.583  29.517   7.454
 3656POPC   NC346991  30.673  24.085   5.476
 3656POPC   PO446992  30.679  23.454   5.336
 3656POPC   GL146993  30.886  23.617   5.699
 3656POPC   GL246994  30.574  23.748   5.868
 3656POPC   C1A46995  31.012  23.740   6.133
 3656POPC   D2A46996  30.729  23.755   6.489
 3656POPC   C3A46997  30.896  23.793   6.909
 3656POPC   C4A46998  30.697  23.579   7.248
 3656POPC   C1B46999  30.299  24.041   6.114
 3656POPC   C2B47000  30.294  24.036   6.540
 3656POPC   C3B47001  30.390  23.823   6.910
 3656POPC   C4B47002  30.315  23.931   7.332
 3657POPC   NC347003  33.255  26.232   5.479
 3657POPC   PO447004  33.140  25.628   5.220
 3657POPC   GL147005  32.950  25.843   5.633
 3657POPC   GL247006  32.586  25.866   5.698
 3657POPC   C1A47007  32.957  26.049   6.067
 3657POPC   D2A47008  33.111  26.174   6.484
 3657POPC   C3A47009  32.919  26.114   6.872
 3657POPC   C4A47010  33.170  26.156   7.240
 3657POPC   C1B47011  32.702  25.616   6.056
 3657POPC   C2B47012  32.780  25.723   6.468
 3657POPC   C3B47013  32.756  25.625   6.884
 3657POPC   C4B47014  32.764  25.786   7.270
 3658POPC   NC347015  42.139   5.880   5.586
 3658POPC   PO447016  42.700   5.665   5.372
 3658POPC   GL147017  42.542   5.561   5.796
 3658POPC   GL247018  42.188   5.437   5.831
 3658POPC   C1A47019  42.530   5.826   6.170
 3658POPC   D2A47020  42.313   5.862   6.582
 3658POPC   C3A47021  42.397   6.003   7.020
 3658POPC   C4A47022  42.467   5.720   7.387
 3658POPC   C1B47023  42.036   5.629   6.201
 3658POPC   C2B47024  41.853   5.640   6.604
 3658POPC   C3B47025  42.052   5.647   6.966
 3658POPC   C4B47026  41.985   5.887   7.312
 3659POPC   NC347027   4.935  20.532   5.188
 3659POPC   PO447028   5.466  20.867   5.438
 3659POPC   GL147029   5.295  20.748   5.829
 3659POPC   GL247030   5.142  20.446   5.802
 3659POPC   C1A47031   5.100  20.842   6.229
 3659POPC   D2A47032   5.162  20.650   6.652
 3659POPC   C3A47033   5.235  20.934   6.984
 3659POPC   C4A47034   5.377  20.942   7.401
 3659POPC   C1B47035   4.973  20.350   6.219
 3659POPC   C2B47036   4.829  20.281   6.608
 3659POPC   C3B47037   4.936  20.267   6.999
 3659POPC   C4B47038   5.097  20.531   7.268
 3660POPC   NC347039   3.825  39.877   5.529
 3660POPC   PO447040   3.179  39.859   5.406
 3660POPC   GL147041   3.382  39.767   5.788
 3660POPC   GL247042   3.471  40.089   5.837
 3660POPC   C1A47043   3.583  39.708   6.209
 3660POPC   D2A47044   3.335  39.581   6.572
 3660POPC   C3A47045   3.495  39.684   6.977
 3660POPC   C4A47046   3.851  39.529   7.231
 3660POPC   C1B47047   3.581  40.215   6.224
 3660POPC   C2B47048   3.661  40.038   6.644
 3660POPC   C3B47049   3.578  40.225   7.060
 3660POPC   C4B47050   3.388  40.322   7.479
 3661POPC   NC347051  34.374  12.399   5.396
 3661POPC   PO447052  34.749  11.864   5.487
 3661POPC   GL147053  34.566  12.128   5.811
 3661POPC   GL247054  34.658  12.500   5.814
 3661POPC   C1A47055  34.407  12.044   6.209
 3661POPC   D2A47056  34.540  12.145   6.608
 3661POPC   C3A47057  34.257  12.152   6.952
 3661POPC   C4A47058  34.162  11.840   7.233
 3661POPC   C1B47059  34.809  12.402   6.231
 3661POPC   C2B47060  34.924  12.486   6.680
 3661POPC   C3B47061  34.912  12.142   6.957
 3661POPC   C4B47062  34.643  12.116   7.305
 3662POPC   NC347063  39.055  36.351   5.447
 3662POPC   PO447064  39.542  35.932   5.176
 3662POPC   GL147065  39.515  35.917   5.650
 3662POPC   GL247066  39.172  35.917   5.742
 3662POPC   C1A47067  39.535  36.087   6.112
 3662POPC   D2A47068  39.269  35.973   6.452
 3662POPC   C3A47069  39.404  36.010   6.859
 3662POPC   C4A47070  39.183  36.070   7.233
 3662POPC   C1B47071  38.936  35.762   6.101
 3662POPC   C2B47072  38.946  35.574   6.505
 3662POPC   C3B47073  38.953  35.741   6.915
 3662POPC   C4B47074  38.695  35.801   7.278
 3663POPC   NC347075  24.074  20.492   4.872
 3663POPC   PO447076  23.586  20.704   5.286
 3663POPC   GL147077  23.580  20.687   5.757
 3663POPC   GL247078  23.479  20.350   5.823
 3663POPC   C1A47079  23.561  20.666   6.249
 3663POPC   D2A47080  23.942  20.580   6.532
 3663POPC   C3A47081  23.843  20.607   6.968
 3663POPC   C4A47082  23.482  20.723   7.186
 3663POPC   C1B47083  23.697  20.186   6.207
 3663POPC   C2B47084  23.561  20.224   6.651
 3663POPC   C3B47085  23.589  20.173   7.100
 3663POPC   C4B47086  23.545  20.030   7.513
 3664POPC   NC347087   9.167  44.899   5.331
 3664POPC   PO447088   8.667  44.641   5.663
 3664POPC   GL147089   9.041  44.752   5.897
 3664POPC   GL247090   9.398  44.867   5.821
 3664POPC   C1A47091   8.999  44.759   6.347
 3664POPC   D2A47092   8.966  44.453   6.690
 3664POPC   C3A47093   8.852  44.725   7.030
 3664POPC   C4A47094   8.817  44.956   7.437
 3664POPC   C1B47095   9.472  44.642   6.229
 3664POPC   C2B47096   9.401  44.763   6.680
 3664POPC   C3B47097   9.323  44.480   7.045
 3664POPC   C4B47098   9.109  44.538   7.447
 3665POPC   NC347099  11.354   3.702   5.430
 3665POPC   PO447100  11.503   3.077   5.217
 3665POPC   GL147101  11.462   3.271   5.713
 3665POPC   GL247102  11.147   3.204   5.890
 3665POPC   C1A47103  11.410   3.541   6.172
 3665POPC   D2A47104  11.516   3.742   6.587
 3665POPC   C3A47105  11.369   3.563   7.012
 3665POPC   C4A47106  11.442   3.547   7.452
 3665POPC   C1B47107  10.918   3.443   6.179
 3665POPC   C2B47108  11.058   3.465   6.598
 3665POPC   C3B47109  10.885   3.695   6.946
 3665POPC   C4B47110  10.884   3.491   7.334
 3666POPC   NC347111  42.490  32.729   5.511
 3666POPC   PO447112  42.212  33.345   5.461
 3666POPC   GL147113  42.296  33.103   5.815
 3666POPC   GL247114  42.003  32.873   5.730
 3666POPC   C1A47115  42.553  32.935   6.194
 3666POPC   D2A47116  42.512  32.725   6.626
 3666POPC   C3A47117  42.395  33.057   6.938
 3666POPC   C4A47118  42.184  33.457   7.040
 3666POPC   C1B47119  42.025  32.888   6.178
 3666POPC   C2B47120  41.958  32.881   6.607
 3666POPC   C3B47121  42.056  32.557   6.857
 3666POPC   C4B47122  42.328  32.588   7.163
 3667POPC   NC347123  41.614  24.591   5.257
 3667POPC   PO447124  41.321  24.091   5.574
 3667POPC   GL147125  41.579  24.313   5.835
 3667POPC   GL247126  41.410  24.595   5.814
 3667POPC   C1A47127  41.811  24.198   6.196
 3667POPC   D2A47128  41.617  24.211   6.584
 3667POPC   C3A47129  41.810  24.187   6.956
 3667POPC   C4A47130  41.888  24.526   7.250
 3667POPC   C1B47131  41.325  24.478   6.258
 3667POPC   C2B47132  41.483  24.685   6.675
 3667POPC   C3B47133  41.443  24.790   7.127
 3667POPC   C4B47134  41.175  24.780   7.553
 3668POPC   NC347135  16.734  39.979   5.111
 3668POPC   PO447136  16.412  40.251   5.610
 3668POPC   GL147137  16.750  40.037   5.862
 3668POPC   GL247138  16.866  39.730   5.824
 3668POPC   C1A47139  16.970  40.143   6.205
 3668POPC   D2A47140  16.699  40.195   6.536
 3668POPC   C3A47141  16.789  40.099   6.926
 3668POPC   C4A47142  16.488  40.169   7.233
 3668POPC   C1B47143  16.732  39.643   6.228
 3668POPC   C2B47144  16.580  39.609   6.656
 3668POPC   C3B47145  16.514  39.693   7.085
 3668POPC   C4B47146  16.842  39.808   7.360
 3669POPC   NC347147  21.146   2.384   5.629
 3669POPC   PO447148  20.793   2.864   5.227
 3669POPC   GL147149  20.750   2.812   5.708
 3669POPC   GL247150  20.812   3.125   5.913
 3669POPC   C1A47151  20.805   2.613   6.157
 3669POPC   D2A47152  20.533   2.605   6.552
 3669POPC   C3A47153  20.713   2.564   6.982
 3669POPC   C4A47154  20.968   2.758   7.325
 3669POPC   C1B47155  20.626   3.069   6.318
 3669POPC   C2B47156  20.696   3.053   6.777
 3669POPC   C3B47157  20.526   3.230   7.131
 3669POPC   C4B47158  20.399   2.850   7.264
 3670POPC   NC347159  18.560  41.672   5.360
 3670POPC   PO447160  17.999  41.275   5.280
 3670POPC   GL147161  18.061  41.431   5.734
 3670POPC   GL247162  18.246  41.735   5.764
 3670POPC   C1A47163  18.325  41.394   6.133
 3670POPC   D2A47164  18.557  41.223   6.495
 3670POPC   C3A47165  18.373  41.378   6.865
 3670POPC   C4A47166  18.647  41.586   7.150
 3670POPC   C1B47167  18.366  41.940   6.141
 3670POPC   C2B47168  18.364  41.794   6.595
 3670POPC   C3B47169  18.224  41.900   7.042
 3670POPC   C4B47170  18.201  42.004   7.524
 3671POPC   NC347171  24.597   8.356   5.377
 3671POPC   PO447172  24.355   7.804   5.482
 3671POPC   GL147173  24.557   8.096   5.827
 3671POPC   GL247174  24.717   8.462   5.865
 3671POPC   C1A47175  24.356   8.221   6.229
 3671POPC   D2A47176  24.100   8.121   6.593
 3671POPC   C3A47177  24.169   8.034   7.039
 3671POPC   C4A47178  24.580   7.931   7.131
 3671POPC   C1B47179  24.804   8.448   6.306
 3671POPC   C2B47180  24.626   8.220   6.691
 3671POPC   C3B47181  24.503   8.422   7.084
 3671POPC   C4B47182  24.667   8.636   7.440
 3672POPC   NC347183  41.131  10.394   5.440
 3672POPC   PO447184  40.480  10.730   5.416
 3672POPC   GL147185  40.752  10.678   5.796
 3672POPC   GL247186  41.119  10.675   5.853
 3672POPC   C1A47187  40.857  10.554   6.257
 3672POPC   D2A47188  40.668  10.575   6.644
 3672POPC   C3A47189  40.677  10.705   7.059
 3672POPC   C4A47190  40.817  10.391   7.347
 3672POPC   C1B47191  41.300  10.826   6.194
 3672POPC   C2B47192  41.167  10.811   6.585
 3672POPC   C3B47193  41.378  10.858   6.970
 3672POPC   C4B47194  41.128  10.788   7.306
 3673POPC   NC347195  29.040  40.452   5.445
 3673POPC   PO447196  29.167  41.073   5.151
 3673POPC   GL147197  29.285  40.882   5.578
 3673POPC   GL247198  28.959  40.808   5.800
 3673POPC   C1A47199  29.413  40.985   5.997
 3673POPC   D2A47200  29.327  41.030   6.438
 3673POPC   C3A47201  29.493  40.865   6.823
 3673POPC   C4A47202  29.259  40.931   7.197
 3673POPC   C1B47203  28.829  40.615   6.211
 3673POPC   C2B47204  28.718  40.413   6.603
 3673POPC   C3B47205  28.868  40.539   7.023
 3673POPC   C4B47206  28.890  40.700   7.454
 3674POPC   NC347207  15.341   5.960   5.379
 3674POPC   PO447208  14.834   5.527   5.412
 3674POPC   GL147209  14.952   5.721   5.817
 3674POPC   GL247210  15.073   6.074   5.803
 3674POPC   C1A47211  14.847   5.864   6.247
 3674POPC   D2A47212  14.981   5.593   6.596
 3674POPC   C3A47213  15.150   5.696   6.965
 3674POPC   C4A47214  14.870   5.847   7.204
 3674POPC   C1B47215  15.313   6.149   6.179
 3674POPC   C2B47216  15.161   6.082   6.597
 3674POPC   C3B47217  15.159   6.214   7.009
 3674POPC   C4B47218  15.562   6.173   7.172
 3675POPC   NC347219  18.974  26.937   5.439
 3675POPC   PO447220  18.617  26.434   5.771
 3675POPC   GL147221  18.975  26.702   5.952
 3675POPC   GL247222  19.115  27.062   5.904
 3675POPC   C1A47223  19.028  26.901   6.370
 3675POPC   D2A47224  18.916  27.023   6.763
 3675POPC   C3A47225  18.902  26.704   7.090
 3675POPC   C4A47226  19.150  26.555   7.431
 3675POPC   C1B47227  19.452  27.157   6.221
 3675POPC   C2B47228  19.535  27.099   6.668
 3675POPC   C3B47229  19.300  27.129   7.080
 3675POPC   C4B47230  19.390  27.395   7.414
 3676POPC   NC347231  25.693  15.420   5.374
 3676POPC   PO447232  26.370  15.157   5.498
 3676POPC   GL147233  26.245  15.387   5.839
 3676POPC   GL247234  25.906  15.309   5.825
 3676POPC   C1A47235  26.312  15.227   6.224
 3676POPC   D2A47236  26.110  14.895   6.446
 3676POPC   C3A47237  26.147  15.002   6.850
 3676POPC   C4A47238  25.963  15.022   7.248
 3676POPC   C1B47239  25.872  15.498   6.229
 3676POPC   C2B47240  26.105  15.483   6.618
 3676POPC   C3B47241  26.044  15.481   7.050
 3676POPC   C4B47242  26.019  15.599   7.462
 3677POPC   NC347243  17.711  18.352   5.419
 3677POPC   PO447244  17.144  18.039   5.447
 3677POPC   GL147245  17.429  18.186   5.803
 3677POPC   GL247246  17.357  18.525   5.850
 3677POPC   C1A47247  17.788  18.161   6.149
 3677POPC   D2A47248  17.692  18.368   6.575
 3677POPC   C3A47249  17.912  18.329   6.944
 3677POPC   C4A47250  17.779  18.079   7.256
 3677POPC   C1B47251  17.096  18.606   6.232
 3677POPC   C2B47252  17.132  18.564   6.706
 3677POPC   C3B47253  17.373  18.335   7.041
 3677POPC   C4B47254  17.369  18.436   7.496
 3678POPC   NC347255  27.509  22.766   5.358
 3678POPC   PO447256  27.231  23.361   5.480
 3678POPC   GL147257  27.383  23.057   5.825
 3678POPC   GL247258  27.218  22.738   5.781
 3678POPC   C1A47259  27.603  23.016   6.267
 3678POPC   D2A47260  27.897  23.038   6.665
 3678POPC   C3A47261  27.809  23.215   7.085
 3678POPC   C4A47262  27.554  23.196   7.478
 3678POPC   C1B47263  27.274  22.606   6.178
 3678POPC   C2B47264  27.187  22.711   6.589
 3678POPC   C3B47265  27.253  22.567   6.997
 3678POPC   C4B47266  27.500  22.723   7.333
 3679POPC   NC347267  27.181  41.560   5.430
 3679POPC   PO447268  26.742  41.934   5.709
 3679POPC   GL147269  26.855  41.566   5.907
 3679POPC   GL247270  27.062  41.277   5.816
 3679POPC   C1A47271  26.881  41.668   6.344
 3679POPC   D2A47272  26.980  41.807   6.759
 3679POPC   C3A47273  26.741  41.575   7.052
 3679POPC   C4A47274  26.564  41.680   7.449
 3679POPC   C1B47275  27.051  41.183   6.241
 3679POPC   C2B47276  27.040  41.291   6.670
 3679POPC   C3B47277  26.966  41.070   7.015
 3679POPC   C4B47278  26.795  41.179   7.378
 3680POPC   NC347279  25.780  32.127   5.431
 3680POPC   PO447280  26.439  32.548   5.502
 3680POPC   GL147281  26.052  32.450   5.729
 3680POPC   GL247282  26.265  32.250   5.930
 3680POPC   C1A47283  25.813  32.286   6.111
 3680POPC   D2A47284  26.113  32.277   6.469
 3680POPC   C3A47285  25.944  32.355   6.858
 3680POPC   C4A47286  25.819  32.054   7.200
 3680POPC   C1B47287  26.334  31.901   6.182
 3680POPC   C2B47288  26.523  31.947   6.568
 3680POPC   C3B47289  26.259  31.910   6.917
 3680POPC   C4B47290  26.360  31.785   7.311
 3681POPC   NC347291  40.379   4.853   5.562
 3681POPC   PO447292  40.068   5.385   5.546
 3681POPC   GL147293  39.991   5.141   5.886
 3681POPC   GL247294  39.753   5.394   6.011
 3681POPC   C1A47295  40.012   4.830   6.237
 3681POPC   D2A47296  40.040   4.619   6.664
 3681POPC   C3A47297  40.276   4.829   6.987
 3681POPC   C4A47298  40.024   5.126   7.212
 3681POPC   C1B47299  40.095   5.356   6.340
 3681POPC   C2B47300  40.196   5.370   6.792
 3681POPC   C3B47301  39.972   5.631   7.137
 3681POPC   C4B47302  39.778   5.604   7.559
 3682POPC   NC347303  18.107  33.375   5.618
 3682POPC   PO447304  18.551  33.972   5.481
 3682POPC   GL147305  18.370  33.767   5.798
 3682POPC   GL247306  18.607  33.502   5.771
 3682POPC   C1A47307  18.203  33.697   6.225
 3682POPC   D2A47308  18.338  33.799   6.642
 3682POPC   C3A47309  18.089  33.803   6.986
 3682POPC   C4A47310  17.933  33.805   7.387
 3682POPC   C1B47311  18.713  33.600   6.204
 3682POPC   C2B47312  18.628  33.378   6.607
 3682POPC   C3B47313  18.492  33.491   7.063
 3682POPC   C4B47314  18.398  33.620   7.516
 3683POPC   NC347315  28.889  30.781   5.373
 3683POPC   PO447316  29.517  31.011   5.412
 3683POPC   GL147317  29.291  30.760   5.787
 3683POPC   GL247318  28.974  30.891   5.875
 3683POPC   C1A47319  29.154  30.585   6.253
 3683POPC   D2A47320  29.045  30.329   6.668
 3683POPC   C3A47321  29.263  30.541   7.040
 3683POPC   C4A47322  29.522  30.510   7.420
 3683POPC   C1B47323  28.791  30.934   6.300
 3683POPC   C2B47324  28.931  30.816   6.733
 3683POPC   C3B47325  28.776  30.591   7.147
 3683POPC   C4B47326  28.707  30.789   7.606
 3684POPC   NC347327  11.171  32.494   5.193
 3684POPC   PO447328  11.511  32.790   5.714
 3684POPC   GL147329  11.322  32.411   5.949
 3684POPC   GL247330  11.167  32.206   5.685
 3684POPC   C1A47331  11.366  32.214   6.376
 3684POPC   D2A47332  11.533  32.078   6.784
 3684POPC   C3A47333  11.772  32.356   7.002
 3684POPC   C4A47334  11.633  32.666   7.284
 3684POPC   C1B47335  10.985  32.030   6.055
 3684POPC   C2B47336  10.883  32.003   6.498
 3684POPC   C3B47337  11.020  32.085   6.930
 3684POPC   C4B47338  11.326  32.221   7.262
 3685POPC   NC347339  30.958   8.135   5.506
 3685POPC   PO447340  30.509   8.557   5.213
 3685POPC   GL147341  30.481   8.220   5.696
 3685POPC   GL247342  30.734   7.981   5.919
 3685POPC   C1A47343  30.445   8.291   6.179
 3685POPC   D2A47344  30.694   8.110   6.563
 3685POPC   C3A47345  30.606   8.347   6.960
 3685POPC   C4A47346  30.227   8.608   7.075
 3685POPC   C1B47347  31.106   8.076   6.179
 3685POPC   C2B47348  31.216   8.065   6.616
 3685POPC   C3B47349  31.014   8.020   7.015
 3685POPC   C4B47350  30.807   8.093   7.402
 3686POPC   NC347351   9.150  33.148   5.427
 3686POPC   PO447352   9.830  32.864   5.561
 3686POPC   GL147353   9.622  33.064   5.839
 3686POPC   GL247354   9.494  32.835   6.076
 3686POPC   C1A47355   9.476  33.324   6.177
 3686POPC   D2A47356   9.144  33.156   6.448
 3686POPC   C3A47357   9.318  32.892   6.773
 3686POPC   C4A47358   9.470  33.130   7.134
 3686POPC   C1B47359   9.873  32.996   6.326
 3686POPC   C2B47360  10.092  33.262   6.648
 3686POPC   C3B47361   9.957  33.219   7.043
 3686POPC   C4B47362   9.804  32.775   7.195
 3687POPC   NC347363  37.798  28.272   5.517
 3687POPC   PO447364  37.191  28.454   5.633
 3687POPC   GL147365  37.514  28.511   5.955
 3687POPC   GL247366  37.888  28.458   5.970
 3687POPC   C1A47367  37.576  28.409   6.386
 3687POPC   D2A47368  37.440  28.185   6.735
 3687POPC   C3A47369  37.670  28.313   7.084
 3687POPC   C4A47370  37.525  28.336   7.515
 3687POPC   C1B47371  37.785  28.012   6.145
 3687POPC   C2B47372  37.952  27.927   6.578
 3687POPC   C3B47373  37.800  27.835   6.991
 3687POPC   C4B47374  37.875  27.986   7.417
 3688POPC   NC347375  29.426  25.786   5.542
 3688POPC   PO447376  28.870  26.248   5.437
 3688POPC   GL147377  29.078  26.097   5.790
 3688POPC   GL247378  29.409  26.215   5.835
 3688POPC   C1A47379  29.173  25.905   6.183
 3688POPC   D2A47380  29.337  25.858   6.596
 3688POPC   C3A47381  28.997  25.831   6.861
 3688POPC   C4A47382  29.049  25.746   7.267
 3688POPC   C1B47383  29.287  26.405   6.208
 3688POPC   C2B47384  29.155  26.378   6.637
 3688POPC   C3B47385  29.158  26.293   7.063
 3688POPC   C4B47386  29.251  26.329   7.516
 3689POPC   NC347387  10.232  37.913   5.474
 3689POPC   PO447388  10.921  37.800   5.449
 3689POPC   GL147389  10.605  37.757   5.798
 3689POPC   GL247390  10.408  37.437   5.840
 3689POPC   C1A47391  10.301  37.905   6.115
 3689POPC   D2A47392  10.424  37.934   6.552
 3689POPC   C3A47393  10.490  37.595   6.860
 3689POPC   C4A47394  10.381  37.677   7.306
 3689POPC   C1B47395  10.560  37.496   6.262
 3689POPC   C2B47396  10.904  37.676   6.443
 3689POPC   C3B47397  11.042  37.677   6.843
 3689POPC   C4B47398  10.883  37.590   7.205
 3690POPC   NC347399  28.580  25.874   5.522
 3690POPC   PO447400  28.219  26.453   5.427
 3690POPC   GL147401  28.189  26.222   5.765
 3690POPC   GL247402  27.838  26.325   5.801
 3690POPC   C1A47403  28.440  26.114   6.136
 3690POPC   D2A47404  28.765  26.110   6.462
 3690POPC   C3A47405  28.641  26.219   6.886
 3690POPC   C4A47406  28.457  25.972   7.234
 3690POPC   C1B47407  27.925  26.027   6.154
 3690POPC   C2B47408  27.981  25.928   6.589
 3690POPC   C3B47409  27.917  25.873   7.042
 3690POPC   C4B47410  27.976  26.127   7.429
 3691POPC   NC347411  14.834  30.000   5.592
 3691POPC   PO447412  14.057  30.262   5.493
 3691POPC   GL147413  14.238  30.183   5.891
 3691POPC   GL247414  14.549  29.998   6.011
 3691POPC   C1A47415  14.108  29.939   6.253
 3691POPC   D2A47416  13.862  29.952   6.624
 3691POPC   C3A47417  14.034  30.031   7.055
 3691POPC   C4A47418  14.306  29.958   7.395
 3691POPC   C1B47419  14.866  30.026   6.337
 3691POPC   C2B47420  14.734  29.963   6.771
 3691POPC   C3B47421  14.766  30.014   7.187
 3691POPC   C4B47422  14.745  29.825   7.591
 3692POPC   NC347423  33.631   0.008   5.446
 3692POPC   PO447424  33.763  44.322   5.420
 3692POPC   GL147425  33.745  44.577   5.774
 3692POPC   GL247426  34.052  44.621   5.869
 3692POPC   C1A47427  33.496  44.490   6.159
 3692POPC   D2A47428  33.546  44.311   6.578
 3692POPC   C3A47429  33.526  44.530   7.005
 3692POPC   C4A47430  33.660  44.379   7.437
 3692POPC   C1B47431  33.905  44.784   6.236
 3692POPC   C2B47432  33.923  44.660   6.631
 3692POPC   C3B47433  34.040  44.891   6.948
 3692POPC   C4B47434  33.945  44.762   7.320
 3693POPC   NC347435  39.069  33.431   5.450
 3693POPC   PO447436  38.510  33.072   5.177
 3693POPC   GL147437  38.525  33.067   5.662
 3693POPC   GL247438  38.514  32.761   5.836
 3693POPC   C1A47439  38.553  33.189   6.132
 3693POPC   D2A47440  38.695  33.162   6.594
 3693POPC   C3A47441  38.424  33.285   6.942
 3693POPC   C4A47442  38.048  33.172   7.205
 3693POPC   C1B47443  38.725  32.658   6.219
 3693POPC   C2B47444  38.884  32.633   6.636
 3693POPC   C3B47445  38.686  32.722   7.038
 3693POPC   C4B47446  38.526  32.981   7.374
 3694POPC   NC347447   3.273  24.733   5.328
 3694POPC   PO447448   3.680  24.148   5.509
 3694POPC   GL147449   3.639  24.587   5.652
 3694POPC   GL247450   3.982  24.672   5.646
 3694POPC   C1A47451   3.472  24.789   6.042
 3694POPC   D2A47452   3.344  24.600   6.441
 3694POPC   C3A47453   3.409  24.841   6.826
 3694POPC   C4A47454   3.356  24.669   7.220
 3694POPC   C1B47455   3.888  24.500   6.076
 3694POPC   C2B47456   3.853  24.713   6.465
 3694POPC   C3B47457   3.849  24.558   6.861
 3694POPC   C4B47458   3.776  24.407   7.238
 3695POPC   NC347459  42.996  28.485   5.422
 3695POPC   PO447460  43.469  28.041   5.272
 3695POPC   GL147461  43.267  28.136   5.711
 3695POPC   GL247462  42.878  28.229   5.841
 3695POPC   C1A47463  43.261  28.155   6.167
 3695POPC   D2A47464  43.108  28.206   6.569
 3695POPC   C3A47465  43.305  27.960   6.871
 3695POPC   C4A47466  43.415  28.254   7.174
 3695POPC   C1B47467  42.876  28.527   6.208
 3695POPC   C2B47468  42.773  28.592   6.677
 3695POPC   C3B47469  42.902  28.354   7.054
 3695POPC   C4B47470  42.641  28.257   7.418
 3696POPC   NC347471   5.324  13.384   5.219
 3696POPC   PO447472   4.834  13.000   5.466
 3696POPC   GL147473   5.083  12.949   5.813
 3696POPC   GL247474   4.911  13.203   5.953
 3696POPC   C1A47475   5.028  12.743   6.225
 3696POPC   D2A47476   5.177  12.623   6.636
 3696POPC   C3A47477   4.939  12.760   6.984
 3696POPC   C4A47478   5.213  12.825   7.298
 3696POPC   C1B47479   5.278  13.215   6.201
 3696POPC   C2B47480   5.243  13.331   6.580
 3696POPC   C3B47481   5.270  13.189   6.951
 3696POPC   C4B47482   4.953  13.249   7.266
 3697POPC   NC347483  21.326  28.153   5.470
 3697POPC   PO447484  21.726  28.741   5.423
 3697POPC   GL147485  21.684  28.441   5.802
 3697POPC   GL247486  21.653  28.053   5.836
 3697POPC   C1A47487  21.472  28.459   6.216
 3697POPC   D2A47488  21.230  28.553   6.597
 3697POPC   C3A47489  21.433  28.435   6.920
 3697POPC   C4A47490  21.371  28.382   7.326
 3697POPC   C1B47491  21.280  27.992   6.119
 3697POPC   C2B47492  21.381  28.045   6.557
 3697POPC   C3B47493  21.415  27.937   6.978
 3697POPC   C4B47494  21.245  27.883   7.348
 3698POPC   NC347495  27.990  41.766   5.625
 3698POPC   PO447496  27.496  41.215   5.449
 3698POPC   GL147497  27.559  41.456   5.795
 3698POPC   GL247498  27.854  41.301   5.831
 3698POPC   C1A47499  27.378  41.627   6.190
 3698POPC   D2A47500  27.477  41.882   6.587
 3698POPC   C3A47501  27.443  41.703   7.011
 3698POPC   C4A47502  27.218  41.447   7.282
 3698POPC   C1B47503  27.893  41.522   6.237
 3698POPC   C2B47504  27.990  41.652   6.652
 3698POPC   C3B47505  27.924  41.506   7.068
 3698POPC   C4B47506  27.792  41.661   7.470
 3699POPC   NC347507  10.570  38.853   5.420
 3699POPC   PO447508  10.738  39.496   5.588
 3699POPC   GL147509  10.752  39.317   5.973
 3699POPC   GL247510  10.437  39.125   5.902
 3699POPC   C1A47511  10.566  39.343   6.390
 3699POPC   D2A47512  10.261  39.379   6.746
 3699POPC   C3A47513  10.552  39.481   7.075
 3699POPC   C4A47514  10.991  39.408   7.220
 3699POPC   C1B47515  10.246  38.964   6.289
 3699POPC   C2B47516  10.482  38.917   6.672
 3699POPC   C3B47517  10.647  38.978   7.048
 3699POPC   C4B47518  10.416  38.985   7.393
 3700POPC   NC347519  24.396   4.600   5.392
 3700POPC   PO447520  24.843   4.063   5.407
 3700POPC   GL147521  24.633   4.272   5.774
 3700POPC   GL247522  24.752   4.600   5.801
 3700POPC   C1A47523  24.535   4.150   6.215
 3700POPC   D2A47524  24.469   4.345   6.622
 3700POPC   C3A47525  24.105   4.313   6.914
 3700POPC   C4A47526  24.293   4.367   7.331
 3700POPC   C1B47527  24.913   4.644   6.223
 3700POPC   C2B47528  24.769   4.771   6.648
 3700POPC   C3B47529  24.647   4.607   7.054
 3700POPC   C4B47530  24.800   4.623   7.472
 3701POPC   NC347531  34.977  16.134   5.395
 3701POPC   PO447532  34.298  15.941   5.390
 3701POPC   GL147533  34.442  16.054   5.808
 3701POPC   GL247534  34.814  16.068   5.878
 3701POPC   C1A47535  34.491  15.864   6.224
 3701POPC   D2A47536  34.501  15.614   6.576
 3701POPC   C3A47537  34.394  15.808   6.967
 3701POPC   C4A47538  34.413  16.212   7.201
 3701POPC   C1B47539  34.859  16.215   6.314
 3701POPC   C2B47540  34.683  16.218   6.745
 3701POPC   C3B47541  34.891  16.147   7.143
 3701POPC   C4B47542  35.009  16.112   7.596
 3702POPC   NC347543  16.850  44.197   5.504
 3702POPC   PO447544  16.656  43.532   5.269
 3702POPC   GL147545  16.757  43.738   5.717
 3702POPC   GL247546  16.535  43.891   5.862
 3702POPC   C1A47547  16.840  43.751   6.227
 3702POPC   D2A47548  17.088  44.010   6.551
 3702POPC   C3A47549  16.892  44.044   6.980
 3702POPC   C4A47550  16.511  44.293   7.065
 3702POPC   C1B47551  16.363  44.049   6.239
 3702POPC   C2B47552  16.510  43.967   6.651
 3702POPC   C3B47553  16.473  43.725   7.046
 3702POPC   C4B47554  16.271  43.621   7.449
 3703POPC   NC347555  38.247  21.167   5.272
 3703POPC   PO447556  38.651  21.626   5.471
 3703POPC   GL147557  38.450  21.407   5.836
 3703POPC   GL247558  38.105  21.256   5.794
 3703POPC   C1A47559  38.416  21.469   6.297
 3703POPC   D2A47560  38.390  21.812   6.616
 3703POPC   C3A47561  38.311  21.605   6.980
 3703POPC   C4A47562  38.563  21.239   7.149
 3703POPC   C1B47563  38.094  21.065   6.230
 3703POPC   C2B47564  38.273  21.124   6.684
 3703POPC   C3B47565  38.037  21.180   7.097
 3703POPC   C4B47566  37.959  21.001   7.519
 3704POPC   NC347567   6.894  22.666   5.124
 3704POPC   PO447568   6.705  23.324   5.006
 3704POPC   GL147569   6.600  23.031   5.432
 3704POPC   GL247570   6.866  22.835   5.625
 3704POPC   C1A47571   6.441  22.926   5.910
 3704POPC   D2A47572   6.309  23.079   6.368
 3704POPC   C3A47573   6.340  22.877   6.794
 3704POPC   C4A47574   6.378  22.697   7.192
 3704POPC   C1B47575   6.899  22.731   6.082
 3704POPC   C2B47576   6.714  22.741   6.483
 3704POPC   C3B47577   6.838  22.776   6.926
 3704POPC   C4B47578   6.920  22.500   7.285
 3705POPC   NC347579  11.594   7.052   5.372
 3705POPC   PO447580  11.068   7.491   5.394
 3705POPC   GL147581  11.199   7.470   5.785
 3705POPC   GL247582  11.570   7.440   5.792
 3705POPC   C1A47583  11.111   7.298   6.184
 3705POPC   D2A47584  11.173   7.101   6.568
 3705POPC   C3A47585  10.973   7.234   6.928
 3705POPC   C4A47586  11.333   7.231   7.156
 3705POPC   C1B47587  11.627   7.706   6.200
 3705POPC   C2B47588  11.800   7.837   6.590
 3705POPC   C3B47589  11.665   7.823   7.008
 3705POPC   C4B47590  11.710   7.541   7.336
 3706POPC   NC347591  43.884  39.572   5.725
 3706POPC   PO447592  44.012  38.910   5.565
 3706POPC   GL147593  43.872  39.085   5.910
 3706POPC   GL247594  43.509  39.161   5.801
 3706POPC   C1A47595  43.958  39.169   6.356
 3706POPC   D2A47596  43.878  38.940   6.750
 3706POPC   C3A47597  43.979  39.123   7.147
 3706POPC   C4A47598  43.843  39.544   7.307
 3706POPC   C1B47599  43.486  38.980   6.219
 3706POPC   C2B47600  43.490  39.278   6.556
 3706POPC   C3B47601  43.546  39.272   6.969
 3706POPC   C4B47602  43.468  38.884   7.167
 3707POPC   NC347603  23.990  26.005   5.487
 3707POPC   PO447604  23.372  26.236   5.389
 3707POPC   GL147605  23.646  26.292   5.739
 3707POPC   GL247606  23.608  25.904   5.810
 3707POPC   C1A47607  23.715  26.206   6.185
 3707POPC   D2A47608  23.570  25.859   6.446
 3707POPC   C3A47609  23.528  26.035   6.850
 3707POPC   C4A47610  23.794  26.249   7.144
 3707POPC   C1B47611  23.945  25.744   6.076
 3707POPC   C2B47612  24.019  25.534   6.444
 3707POPC   C3B47613  23.855  25.628   6.847
 3707POPC   C4B47614  23.941  25.770   7.262
 3708POPC   NC347615  31.089   2.944   5.340
 3708POPC   PO447616  30.476   2.882   5.125
 3708POPC   GL147617  30.749   2.733   5.620
 3708POPC   GL247618  30.574   2.953   5.875
 3708POPC   C1A47619  30.919   2.666   6.084
 3708POPC   D2A47620  30.679   2.820   6.448
 3708POPC   C3A47621  30.685   2.774   6.880
 3708POPC   C4A47622  30.968   2.875   7.204
 3708POPC   C1B47623  30.376   3.183   6.245
 3708POPC   C2B47624  30.217   2.971   6.633
 3708POPC   C3B47625  30.220   2.916   7.061
 3708POPC   C4B47626  30.481   3.152   7.361
 3709POPC   NC347627  38.245   4.894   5.376
 3709POPC   PO447628  38.581   5.413   5.342
 3709POPC   GL147629  38.404   5.200   5.766
 3709POPC   GL247630  38.058   5.019   5.860
 3709POPC   C1A47631  38.494   4.973   6.182
 3709POPC   D2A47632  38.671   4.704   6.535
 3709POPC   C3A47633  38.567   4.771   6.979
 3709POPC   C4A47634  38.831   5.026   7.276
 3709POPC   C1B47635  38.009   4.859   6.305
 3709POPC   C2B47636  38.273   5.025   6.646
 3709POPC   C3B47637  38.282   5.178   7.073
 3709POPC   C4B47638  37.977   5.142   7.373
 3710POPC   NC347639  39.331  10.501   5.554
 3710POPC   PO447640  38.818  11.048   5.545
 3710POPC   GL147641  38.967  10.744   5.843
 3710POPC   GL247642  39.326  10.743   5.987
 3710POPC   C1A47643  38.970  10.450   6.181
 3710POPC   D2A47644  39.137  10.474   6.589
 3710POPC   C3A47645  38.827  10.335   6.859
 3710POPC   C4A47646  38.792  10.532   7.258
 3710POPC   C1B47647  39.525  10.753   6.355
 3710POPC   C2B47648  39.740  10.641   6.732
 3710POPC   C3B47649  39.600  10.712   7.106
 3710POPC   C4B47650  39.274  10.407   7.094
 3711POPC   NC347651  30.228  34.096   5.485
 3711POPC   PO447652  30.573  34.733   5.432
 3711POPC   GL147653  30.627  34.460   5.789
 3711POPC   GL247654  30.981  34.421   5.902
 3711POPC   C1A47655  30.543  34.509   6.241
 3711POPC   D2A47656  30.712  34.462   6.646
 3711POPC   C3A47657  30.479  34.596   7.003
 3711POPC   C4A47658  30.402  34.421   7.423
 3711POPC   C1B47659  30.921  34.846   6.094
 3711POPC   C2B47660  30.977  34.917   6.550
 3711POPC   C3B47661  31.010  34.734   6.975
 3711POPC   C4B47662  30.995  34.695   7.418
 3712POPC   NC347663  16.609  38.239   5.505
 3712POPC   PO447664  16.993  38.824   5.489
 3712POPC   GL147665  16.806  38.739   5.903
 3712POPC   GL247666  16.505  38.580   5.864
 3712POPC   C1A47667  16.812  38.430   6.260
 3712POPC   D2A47668  17.100  38.285   6.604
 3712POPC   C3A47669  16.837  38.271   6.971
 3712POPC   C4A47670  16.691  38.683   7.099
 3712POPC   C1B47671  16.327  38.253   6.142
 3712POPC   C2B47672  16.380  38.051   6.537
 3712POPC   C3B47673  16.316  38.256   6.928
 3712POPC   C4B47674  16.414  38.062   7.257
 3713POPC   NC347675   0.135  35.405   5.479
 3713POPC   PO447676   0.656  35.739   5.438
 3713POPC   GL147677   0.556  35.537   5.852
 3713POPC   GL247678   0.333  35.231   5.967
 3713POPC   C1A47679   0.517  35.546   6.315
 3713POPC   D2A47680   0.449  35.156   6.549
 3713POPC   C3A47681   0.252  35.166   6.922
 3713POPC   C4A47682   0.190  35.431   7.238
 3713POPC   C1B47683   0.773  35.108   6.146
 3713POPC   C2B47684   0.949  34.953   6.550
 3713POPC   C3B47685   0.736  34.941   6.953
 3713POPC   C4B47686   0.671  35.254   7.242
 3714POPC   NC347687  15.133  10.897   5.438
 3714POPC   PO447688  14.962  11.485   5.256
 3714POPC   GL147689  15.014  11.386   5.717
 3714POPC   GL247690  14.893  11.062   5.875
 3714POPC   C1A47691  15.204  11.489   6.125
 3714POPC   D2A47692  15.158  11.671   6.543
 3714POPC   C3A47693  15.281  11.484   6.925
 3714POPC   C4A47694  14.996  11.452   7.241
 3714POPC   C1B47695  15.129  11.008   6.284
 3714POPC   C2B47696  15.349  10.904   6.667
 3714POPC   C3B47697  15.203  10.990   7.089
 3714POPC   C4B47698  14.902  10.782   7.326
 3715POPC   NC347699  17.715  13.999   5.503
 3715POPC   PO447700  17.753  13.322   5.465
 3715POPC   GL147701  17.560  13.583   5.803
 3715POPC   GL247702  17.486  13.943   5.946
 3715POPC   C1A47703  17.582  13.479   6.216
 3715POPC   D2A47704  17.429  13.552   6.618
 3715POPC   C3A47705  17.660  13.396   6.940
 3715POPC   C4A47706  17.860  13.583   7.247
 3715POPC   C1B47707  17.202  13.841   6.261
 3715POPC   C2B47708  17.108  13.954   6.691
 3715POPC   C3B47709  17.482  13.940   7.026
 3715POPC   C4B47710  17.393  13.984   7.540
 3716POPC   NC347711   5.731   2.176   5.231
 3716POPC   PO447712   5.948   1.645   5.508
 3716POPC   GL147713   5.741   1.869   5.835
 3716POPC   GL247714   5.700   2.198   5.815
 3716POPC   C1A47715   5.723   1.872   6.263
 3716POPC   D2A47716   5.670   1.736   6.681
 3716POPC   C3A47717   5.821   1.957   7.047
 3716POPC   C4A47718   5.653   2.266   7.288
 3716POPC   C1B47719   5.726   2.374   6.234
 3716POPC   C2B47720   6.006   2.328   6.612
 3716POPC   C3B47721   6.222   2.310   7.032
 3716POPC   C4B47722   6.219   2.396   7.514
 3717POPC   NC347723  33.630  14.298   5.506
 3717POPC   PO447724  34.097  14.827   5.427
 3717POPC   GL147725  33.892  14.710   5.831
 3717POPC   GL247726  33.889  14.357   5.944
 3717POPC   C1A47727  33.726  14.744   6.286
 3717POPC   D2A47728  33.555  14.574   6.700
 3717POPC   C3A47729  33.898  14.494   6.995
 3717POPC   C4A47730  33.934  14.495   7.471
 3717POPC   C1B47731  33.654  14.200   6.310
 3717POPC   C2B47732  33.760  14.058   6.743
 3717POPC   C3B47733  33.696  14.074   7.213
 3717POPC   C4B47734  33.772  13.935   7.634
 3718POPC   NC347735   2.430  36.109   5.369
 3718POPC   PO447736   1.834  35.879   5.136
 3718POPC   GL147737   1.811  35.897   5.601
 3718POPC   GL247738   2.021  36.164   5.709
 3718POPC   C1A47739   1.738  35.889   6.068
 3718POPC   D2A47740   1.831  35.782   6.510
 3718POPC   C3A47741   1.589  35.873   6.897
 3718POPC   C4A47742   1.838  36.036   7.235
 3718POPC   C1B47743   1.809  36.402   6.033
 3718POPC   C2B47744   1.968  36.556   6.434
 3718POPC   C3B47745   1.964  36.386   6.843
 3718POPC   C4B47746   1.842  36.559   7.233
 3719POPC   NC347747   9.797   9.162   5.378
 3719POPC   PO447748   9.386   8.644   5.391
 3719POPC   GL147749   9.603   8.810   5.762
 3719POPC   GL247750   9.969   8.886   5.783
 3719POPC   C1A47751   9.574   8.908   6.203
 3719POPC   D2A47752   9.410   9.080   6.608
 3719POPC   C3A47753   9.671   9.167   6.973
 3719POPC   C4A47754   9.561   9.105   7.383
 3719POPC   C1B47755  10.014   9.185   6.135
 3719POPC   C2B47756   9.945   9.020   6.552
 3719POPC   C3B47757  10.074   8.839   6.930
 3719POPC   C4B47758  10.061   9.045   7.303
 3720POPC   NC347759  18.735  17.657   5.377
 3720POPC   PO447760  19.422  17.766   5.148
 3720POPC   GL147761  19.232  17.612   5.618
 3720POPC   GL247762  18.977  17.799   5.795
 3720POPC   C1A47763  19.144  17.437   6.099
 3720POPC   D2A47764  19.140  17.590   6.574
 3720POPC   C3A47765  19.171  17.296   6.975
 3720POPC   C4A47766  19.166  17.244   7.458
 3720POPC   C1B47767  19.008  17.962   6.197
 3720POPC   C2B47768  18.836  18.075   6.582
 3720POPC   C3B47769  19.033  17.959   6.938
 3720POPC   C4B47770  18.987  17.695   7.286
 3721POPC   NC347771   9.629  23.841   5.369
 3721POPC   PO447772  10.108  23.394   5.534
 3721POPC   GL147773   9.981  23.780   5.792
 3721POPC   GL247774   9.616  23.850   5.861
 3721POPC   C1A47775   9.946  23.975   6.215
 3721POPC   D2A47776   9.794  23.779   6.599
 3721POPC   C3A47777   9.884  23.840   7.027
 3721POPC   C4A47778   9.883  23.420   7.158
 3721POPC   C1B47779   9.678  23.539   6.160
 3721POPC   C2B47780   9.374  23.473   6.519
 3721POPC   C3B47781   9.413  23.625   6.960
 3721POPC   C4B47782   9.408  23.361   7.307
 3722POPC   NC347783  29.210  28.079   5.383
 3722POPC   PO447784  29.036  28.731   5.219
 3722POPC   GL147785  29.102  28.488   5.672
 3722POPC   GL247786  29.226  28.133   5.881
 3722POPC   C1A47787  29.079  28.524   6.134
 3722POPC   D2A47788  29.335  28.486   6.490
 3722POPC   C3A47789  29.094  28.685   6.800
 3722POPC   C4A47790  29.053  28.570   7.209
 3722POPC   C1B47791  28.968  27.944   6.232
 3722POPC   C2B47792  28.930  28.154   6.586
 3722POPC   C3B47793  29.225  28.182   6.891
 3722POPC   C4B47794  29.301  28.028   7.256
 3723POPC   NC347795  18.933  33.221   5.458
 3723POPC   PO447796  19.000  32.621   5.478
 3723POPC   GL147797  18.990  32.876   5.819
 3723POPC   GL247798  19.321  32.976   5.760
 3723POPC   C1A47799  18.830  33.071   6.185
 3723POPC   D2A47800  18.797  32.776   6.518
 3723POPC   C3A47801  18.613  32.930   6.876
 3723POPC   C4A47802  18.803  32.942   7.266
 3723POPC   C1B47803  19.325  32.904   6.202
 3723POPC   C2B47804  19.212  33.064   6.606
 3723POPC   C3B47805  19.220  32.887   6.972
 3723POPC   C4B47806  19.322  33.146   7.294
 3724POPC   NC347807  35.813  10.214   5.462
 3724POPC   PO447808  36.113  10.730   5.453
 3724POPC   GL147809  35.881  10.623   5.809
 3724POPC   GL247810  36.141  10.416   5.888
 3724POPC   C1A47811  35.829  10.528   6.252
 3724POPC   D2A47812  36.183  10.370   6.545
 3724POPC   C3A47813  36.050  10.363   6.979
 3724POPC   C4A47814  35.775  10.578   7.255
 3724POPC   C1B47815  36.368  10.710   6.160
 3724POPC   C2B47816  36.566  10.843   6.572
 3724POPC   C3B47817  36.442  10.955   7.000
 3724POPC   C4B47818  36.265  10.699   7.318
 3725POPC   NC347819  36.787   4.614   5.118
 3725POPC   PO447820  37.192   4.099   5.345
 3725POPC   GL147821  36.965   4.324   5.683
 3725POPC   GL247822  36.917   4.021   5.868
 3725POPC   C1A47823  36.934   4.414   6.155
 3725POPC   D2A47824  36.766   4.338   6.536
 3725POPC   C3A47825  36.910   4.497   6.900
 3725POPC   C4A47826  36.904   4.357   7.283
 3725POPC   C1B47827  36.900   3.904   6.307
 3725POPC   C2B47828  36.960   3.916   6.751
 3725POPC   C3B47829  36.645   3.967   7.085
 3725POPC   C4B47830  36.748   3.851   7.528
 3726POPC   NC347831   4.641  11.151   5.595
 3726POPC   PO447832   4.166  11.582   5.375
 3726POPC   GL147833   4.240  11.452   5.805
 3726POPC   GL247834   4.559  11.499   5.945
 3726POPC   C1A47835   4.247  11.208   6.218
 3726POPC   D2A47836   4.088  11.374   6.619
 3726POPC   C3A47837   4.332  11.269   6.986
 3726POPC   C4A47838   4.106  11.129   7.333
 3726POPC   C1B47839   4.397  11.689   6.285
 3726POPC   C2B47840   4.529  11.632   6.674
 3726POPC   C3B47841   4.635  11.707   7.059
 3726POPC   C4B47842   4.392  11.606   7.374
 3727POPC   NC347843  20.696  39.488   5.419
 3727POPC   PO447844  20.196  39.088   5.380
 3727POPC   GL147845  20.492  39.115   5.720
 3727POPC   GL247846  20.866  39.061   5.683
 3727POPC   C1A47847  20.671  39.351   6.075
 3727POPC   D2A47848  20.643  39.209   6.493
 3727POPC   C3A47849  20.668  39.480   6.842
 3727POPC   C4A47850  20.845  39.412   7.240
 3727POPC   C1B47851  20.750  38.836   6.084
 3727POPC   C2B47852  20.918  38.779   6.498
 3727POPC   C3B47853  20.919  39.008   6.886
 3727POPC   C4B47854  20.894  38.927   7.316
 3728POPC   NC347855  21.628  13.767   5.540
 3728POPC   PO447856  20.925  13.660   5.459
 3728POPC   GL147857  21.175  13.721   5.812
 3728POPC   GL247858  21.394  13.445   5.882
 3728POPC   C1A47859  21.464  13.845   6.181
 3728POPC   D2A47860  21.661  13.601   6.506
 3728POPC   C3A47861  21.427  13.584   6.891
 3728POPC   C4A47862  21.559  13.701   7.299
 3728POPC   C1B47863  21.158  13.439   6.280
 3728POPC   C2B47864  21.038  13.106   6.580
 3728POPC   C3B47865  21.047  13.257   6.982
 3728POPC   C4B47866  21.132  13.414   7.393
 3729POPC   NC347867   0.942  37.862   5.343
 3729POPC   PO447868   1.335  37.369   5.529
 3729POPC   GL147869   1.126  37.467   5.833
 3729POPC   GL247870   1.113  37.797   5.812
 3729POPC   C1A47871   1.187  37.352   6.216
 3729POPC   D2A47872   1.422  37.267   6.544
 3729POPC   C3A47873   1.216  37.384   6.918
 3729POPC   C4A47874   1.363  37.564   7.272
 3729POPC   C1B47875   1.318  37.831   6.193
 3729POPC   C2B47876   1.139  37.769   6.584
 3729POPC   C3B47877   1.427  37.878   6.897
 3729POPC   C4B47878   1.593  38.047   7.276
 3730POPC   NC347879  36.050  29.213   5.458
 3730POPC   PO447880  36.204  28.602   5.704
 3730POPC   GL147881  36.163  29.017   5.917
 3730POPC   GL247882  36.330  29.324   5.859
 3730POPC   C1A47883  35.970  29.186   6.294
 3730POPC   D2A47884  35.793  29.284   6.685
 3730POPC   C3A47885  36.055  29.149   7.049
 3730POPC   C4A47886  36.010  29.007   7.441
 3730POPC   C1B47887  36.440  29.405   6.255
 3730POPC   C2B47888  36.348  29.307   6.651
 3730POPC   C3B47889  36.512  29.402   7.049
 3730POPC   C4B47890  36.454  29.237   7.455
 3731POPC   NC347891  41.311  20.688   5.487
 3731POPC   PO447892  41.751  20.220   5.293
 3731POPC   GL147893  41.733  20.530   5.707
 3731POPC   GL247894  41.858  20.901   5.720
 3731POPC   C1A47895  41.460  20.509   6.113
 3731POPC   D2A47896  41.575  20.551   6.563
 3731POPC   C3A47897  41.420  20.826   6.901
 3731POPC   C4A47898  41.441  20.562   7.268
 3731POPC   C1B47899  41.859  20.830   6.188
 3731POPC   C2B47900  41.945  20.911   6.650
 3731POPC   C3B47901  41.890  20.714   7.054
 3731POPC   C4B47902  41.872  20.668   7.496
 3732POPC   NC347903   6.114  26.951   5.437
 3732POPC   PO447904   5.775  26.503   5.790
 3732POPC   GL147905   5.759  26.919   5.928
 3732POPC   GL247906   6.086  27.022   5.952
 3732POPC   C1A47907   5.713  27.043   6.354
 3732POPC   D2A47908   5.706  27.142   6.779
 3732POPC   C3A47909   5.574  26.760   6.946
 3732POPC   C4A47910   5.792  26.586   7.236
 3732POPC   C1B47911   6.159  26.782   6.336
 3732POPC   C2B47912   6.206  26.912   6.784
 3732POPC   C3B47913   6.153  26.963   7.238
 3732POPC   C4B47914   6.249  27.104   7.680
 3733POPC   NC347915   7.308  11.712   5.495
 3733POPC   PO447916   7.524  12.380   5.526
 3733POPC   GL147917   7.560  12.050   5.823
 3733POPC   GL247918   7.761  11.720   5.815
 3733POPC   C1A47919   7.357  11.976   6.219
 3733POPC   D2A47920   7.497  11.847   6.621
 3733POPC   C3A47921   7.325  12.098   6.936
 3733POPC   C4A47922   7.122  11.992   7.324
 3733POPC   C1B47923   7.887  11.980   6.209
 3733POPC   C2B47924   8.014  11.890   6.627
 3733POPC   C3B47925   7.835  11.928   7.022
 3733POPC   C4B47926   7.507  11.681   7.132
 3734POPC   NC347927  19.915   6.917   5.372
 3734POPC   PO447928  19.721   7.611   5.464
 3734POPC   GL147929  19.725   7.265   5.777
 3734POPC   GL247930  20.052   7.150   5.812
 3734POPC   C1A47931  19.678   7.330   6.246
 3734POPC   D2A47932  19.884   7.672   6.545
 3734POPC   C3A47933  19.669   7.718   6.938
 3734POPC   C4A47934  19.553   7.322   7.063
 3734POPC   C1B47935  20.179   7.372   6.167
 3734POPC   C2B47936  20.257   7.250   6.582
 3734POPC   C3B47937  20.078   7.352   6.962
 3734POPC   C4B47938  20.132   7.104   7.333
 3735POPC   NC347939  34.219  30.025   5.359
 3735POPC   PO447940  33.582  30.246   5.436
 3735POPC   GL147941  33.874  30.326   5.841
 3735POPC   GL247942  34.033  30.015   5.845
 3735POPC   C1A47943  34.070  30.211   6.299
 3735POPC   D2A47944  33.971  29.879   6.624
 3735POPC   C3A47945  33.896  29.923   7.070
 3735POPC   C4A47946  33.988  30.288   7.295
 3735POPC   C1B47947  33.778  29.755   6.134
 3735POPC   C2B47948  33.545  29.602   6.493
 3735POPC   C3B47949  33.417  29.732   6.934
 3735POPC   C4B47950  33.485  29.465   7.292
 3736POPC   NC347951  35.912  13.434   5.424
 3736POPC   PO447952  36.488  13.739   5.627
 3736POPC   GL147953  36.216  13.886   5.895
 3736POPC   GL247954  35.921  13.739   5.850
 3736POPC   C1A47955  36.142  13.832   6.331
 3736POPC   D2A47956  35.765  13.805   6.575
 3736POPC   C3A47957  35.910  13.664   6.987
 3736POPC   C4A47958  36.307  13.680   7.245
 3736POPC   C1B47959  35.963  13.383   6.151
 3736POPC   C2B47960  36.123  13.393   6.587
 3736POPC   C3B47961  36.272  13.268   6.970
 3736POPC   C4B47962  36.601  13.209   7.264
 3737POPC   NC347963  14.901  26.952   5.644
 3737POPC   PO447964  14.231  26.736   5.606
 3737POPC   GL147965  14.141  26.719   5.972
 3737POPC   GL247966  13.943  27.035   5.964
 3737POPC   C1A47967  14.492  26.756   6.261
 3737POPC   D2A47968  14.526  26.970   6.643
 3737POPC   C3A47969  14.493  26.692   6.981
 3737POPC   C4A47970  14.601  26.815   7.390
 3737POPC   C1B47971  14.041  26.971   6.393
 3737POPC   C2B47972  14.127  26.635   6.614
 3737POPC   C3B47973  14.012  26.843   6.970
 3737POPC   C4B47974  14.116  26.716   7.351
 3738POPC   NC347975  24.793   0.670   5.372
 3738POPC   PO447976  24.177   0.418   5.369
 3738POPC   GL147977  24.342   0.586   5.744
 3738POPC   GL247978  24.639   0.403   5.867
 3738POPC   C1A47979  24.260   0.534   6.190
 3738POPC   D2A47980  24.017   0.631   6.543
 3738POPC   C3A47981  24.186   0.460   6.882
 3738POPC   C4A47982  24.326   0.607   7.207
 3738POPC   C1B47983  24.763   0.626   6.281
 3738POPC   C2B47984  24.671   0.650   6.747
 3738POPC   C3B47985  24.777   0.404   7.140
 3738POPC   C4B47986  24.980   0.299   7.535
 3739POPC   NC347987  19.332  15.633   5.078
 3739POPC   PO447988  19.094  16.238   5.336
 3739POPC   GL147989  19.057  16.210   5.799
 3739POPC   GL247990  19.033  15.858   5.911
 3739POPC   C1A47991  18.810  16.266   6.195
 3739POPC   D2A47992  18.563  16.130   6.541
 3739POPC   C3A47993  18.880  16.077   6.844
 3739POPC   C4A47994  18.844  16.320   7.181
 3739POPC   C1B47995  19.236  16.006   6.321
 3739POPC   C2B47996  19.442  16.313   6.632
 3739POPC   C3B47997  19.474  16.293   7.089
 3739POPC   C4B47998  19.215  15.984   7.248
 3740POPC   NC347999  40.103  38.879   5.453
 3740POPC   PO448000  40.131  38.260   5.577
 3740POPC   GL148001  39.955  38.547   5.852
 3740POPC   GL248002  40.284  38.687   5.892
 3740POPC   C1A48003  39.891  38.416   6.289
 3740POPC   D2A48004  40.154  38.356   6.667
 3740POPC   C3A48005  39.883  38.339   7.016
 3740POPC   C4A48006  39.890  38.210   7.421
 3740POPC   C1B48007  40.092  38.877   6.232
 3740POPC   C2B48008  39.963  38.863   6.621
 3740POPC   C3B48009  40.194  38.812   6.964
 3740POPC   C4B48010  40.074  38.683   7.359
 3741POPC   NC348011   1.493   3.116   5.603
 3741POPC   PO448012   0.925   3.424   5.386
 3741POPC   GL148013   0.961   3.684   5.777
 3741POPC   GL248014   1.206   3.508   5.939
 3741POPC   C1A48015   0.809   3.788   6.197
 3741POPC   D2A48016   0.962   3.947   6.623
 3741POPC   C3A48017   1.146   3.609   6.913
 3741POPC   C4A48018   1.196   3.534   7.380
 3741POPC   C1B48019   1.441   3.354   6.268
 3741POPC   C2B48020   1.452   3.208   6.670
 3741POPC   C3B48021   1.591   3.390   7.038
 3741POPC   C4B48022   1.606   3.251   7.467
 3742POPC   NC348023  27.047   7.598   5.370
 3742POPC   PO448024  26.672   7.064   5.486
 3742POPC   GL148025  26.817   7.356   5.797
 3742POPC   GL248026  26.653   7.683   5.771
 3742POPC   C1A48027  27.029   7.421   6.192
 3742POPC   D2A48028  26.857   7.459   6.615
 3742POPC   C3A48029  27.118   7.467   6.995
 3742POPC   C4A48030  27.203   7.192   7.355
 3742POPC   C1B48031  26.505   7.638   6.225
 3742POPC   C2B48032  26.538   7.865   6.662
 3742POPC   C3B48033  26.599   7.587   7.062
 3742POPC   C4B48034  26.451   7.627   7.511
 3743POPC   NC348035   3.835  15.437   5.448
 3743POPC   PO448036   3.430  14.989   5.250
 3743POPC   GL148037   3.588  15.033   5.672
 3743POPC   GL248038   3.821  14.856   5.876
 3743POPC   C1A48039   3.573  15.315   6.039
 3743POPC   D2A48040   3.411  15.284   6.483
 3743POPC   C3A48041   3.635  15.083   6.835
 3743POPC   C4A48042   3.553  15.272   7.231
 3743POPC   C1B48043   3.542  14.857   6.223
 3743POPC   C2B48044   3.345  14.711   6.550
 3743POPC   C3B48045   3.233  14.762   6.936
 3743POPC   C4B48046   3.394  14.804   7.285
 3744POPC   NC348047  22.099  40.184   5.355
 3744POPC   PO448048  22.075  39.589   5.775
 3744POPC   GL148049  21.961  40.037   5.840
 3744POPC   GL248050  22.176  40.325   5.874
 3744POPC   C1A48051  21.816  40.248   6.207
 3744POPC   D2A48052  22.020  40.121   6.583
 3744POPC   C3A48053  21.854  40.215   6.964
 3744POPC   C4A48054  21.657  40.001   7.292
 3744POPC   C1B48055  22.360  40.054   6.174
 3744POPC   C2B48056  22.490  39.912   6.573
 3744POPC   C3B48057  22.318  39.884   6.963
 3744POPC   C4B48058  22.515  40.043   7.307
 3745POPC   NC348059  22.406  41.124   5.506
 3745POPC   PO448060  21.967  40.617   5.521
 3745POPC   GL148061  21.930  40.805   5.905
 3745POPC   GL248062  22.180  41.046   5.962
 3745POPC   C1A48063  21.989  40.722   6.339
 3745POPC   D2A48064  22.193  40.855   6.706
 3745POPC   C3A48065  22.050  40.686   7.070
 3745POPC   C4A48066  22.079  40.810   7.475
 3745POPC   C1B48067  22.433  40.720   6.108
 3745POPC   C2B48068  22.402  40.450   6.475
 3745POPC   C3B48069  22.443  40.398   6.919
 3745POPC   C4B48070  22.527  40.607   7.324
 3746POPC   NC348071  33.191  26.909   5.317
 3746POPC   PO448072  32.722  26.498   5.483
 3746POPC   GL148073  33.005  26.616   5.774
 3746POPC   GL248074  33.089  26.971   5.811
 3746POPC   C1A48075  32.886  26.543   6.181
 3746POPC   D2A48076  32.739  26.625   6.563
 3746POPC   C3A48077  33.076  26.610   6.836
 3746POPC   C4A48078  33.044  26.701   7.270
 3746POPC   C1B48079  33.184  26.956   6.246
 3746POPC   C2B48080  33.372  27.038   6.629
 3746POPC   C3B48081  33.158  27.152   6.968
 3746POPC   C4B48082  32.737  26.975   6.954
 3747POPC   NC348083  15.510  19.371   5.659
 3747POPC   PO448084  15.163  19.857   5.347
 3747POPC   GL148085  15.203  19.861   5.786
 3747POPC   GL248086  14.923  19.648   5.818
 3747POPC   C1A48087  15.447  19.887   6.191
 3747POPC   D2A48088  15.439  20.173   6.586
 3747POPC   C3A48089  15.543  19.992   7.006
 3747POPC   C4A48090  15.386  19.796   7.394
 3747POPC   C1B48091  14.893  19.833   6.213
 3747POPC   C2B48092  15.121  19.783   6.567
 3747POPC   C3B48093  15.076  19.780   6.938
 3747POPC   C4B48094  14.792  19.773   7.227
 3748POPC   NC348095   0.182  27.288   5.493
 3748POPC   PO448096   0.816  27.645   5.576
 3748POPC   GL148097   0.519  27.467   5.835
 3748POPC   GL248098   0.502  27.786   6.001
 3748POPC   C1A48099   0.244  27.360   6.175
 3748POPC   D2A48100   0.235  27.561   6.551
 3748POPC   C3A48101   0.271  27.358   6.883
 3748POPC   C4A48102   0.419  27.386   7.249
 3748POPC   C1B48103   0.102  27.881   6.179
 3748POPC   C2B48104  44.943  27.954   6.633
 3748POPC   C3B48105   0.186  27.859   7.026
 3748POPC   C4B48106   0.397  27.857   7.452
 3749POPC   NC348107  26.846  35.753   5.546
 3749POPC   PO448108  27.011  36.382   5.477
 3749POPC   GL148109  26.751  36.259   5.832
 3749POPC   GL248110  26.892  36.015   5.972
 3749POPC   C1A48111  26.467  36.288   6.203
 3749POPC   D2A48112  26.439  36.103   6.650
 3749POPC   C3A48113  26.772  36.311   6.932
 3749POPC   C4A48114  27.111  36.305   7.244
 3749POPC   C1B48115  26.876  36.024   6.386
 3749POPC   C2B48116  27.134  35.823   6.650
 3749POPC   C3B48117  26.992  35.864   7.038
 3749POPC   C4B48118  27.173  35.801   7.412
 3750POPC   NC348119   9.102  19.528   5.377
 3750POPC   PO448120   8.730  18.978   5.329
 3750POPC   GL148121   8.767  19.057   5.775
 3750POPC   GL248122   8.765  19.416   5.808
 3750POPC   C1A48123   8.977  19.107   6.189
 3750POPC   D2A48124   9.303  19.052   6.511
 3750POPC   C3A48125   9.149  18.974   6.936
 3750POPC   C4A48126   9.233  19.077   7.365
 3750POPC   C1B48127   8.671  19.508   6.265
 3750POPC   C2B48128   8.831  19.289   6.656
 3750POPC   C3B48129   8.644  19.113   7.079
 3750POPC   C4B48130   8.368  19.226   7.454
 3751POPC   NC348131  12.014   3.708   5.458
 3751POPC   PO448132  12.305   3.156   5.809
 3751POPC   GL148133  12.220   3.568   5.907
 3751POPC   GL248134  11.884   3.585   6.011
 3751POPC   C1A48135  12.292   3.663   6.309
 3751POPC   D2A48136  12.018   3.502   6.597
 3751POPC   C3A48137  12.193   3.520   6.993
 3751POPC   C4A48138  11.991   3.223   7.250
 3751POPC   C1B48139  11.887   3.968   6.306
 3751POPC   C2B48140  12.078   3.993   6.699
 3751POPC   C3B48141  11.803   3.831   7.002
 3751POPC   C4B48142  11.636   4.020   7.320
 3752POPC   NC348143  15.576  31.726   5.697
 3752POPC   PO448144  15.066  31.567   5.254
 3752POPC   GL148145  15.158  31.390   5.655
 3752POPC   GL248146  15.078  31.672   5.846
 3752POPC   C1A48147  15.114  31.215   6.087
 3752POPC   D2A48148  14.982  31.257   6.504
 3752POPC   C3A48149  15.274  31.249   6.835
 3752POPC   C4A48150  15.026  31.392   7.135
 3752POPC   C1B48151  15.210  31.758   6.262
 3752POPC   C2B48152  15.068  31.726   6.665
 3752POPC   C3B48153  15.237  31.844   7.043
 3752POPC   C4B48154  15.518  31.907   7.351
 3753POPC   NC348155  10.874   6.963   5.412
 3753POPC   PO448156  11.420   6.669   5.198
 3753POPC   GL148157  11.427   6.678   5.672
 3753POPC   GL248158  11.216   6.955   5.800
 3753POPC   C1A48159  11.522   6.712   6.126
 3753POPC   D2A48160  11.633   6.845   6.535
 3753POPC   C3A48161  11.618   6.672   6.899
 3753POPC   C4A48162  11.560   6.770   7.325
 3753POPC   C1B48163  10.961   6.800   6.190
 3753POPC   C2B48164  11.028   6.613   6.623
 3753POPC   C3B48165  11.134   6.741   7.052
 3753POPC   C4B48166  11.120   6.871   7.498
 3754POPC   NC348167   8.269   2.084   5.580
 3754POPC   PO448168   8.974   2.004   5.421
 3754POPC   GL148169   8.840   1.918   5.809
 3754POPC   GL248170   8.659   2.159   5.873
 3754POPC   C1A48171   8.776   1.775   6.228
 3754POPC   D2A48172   9.005   1.663   6.593
 3754POPC   C3A48173   8.846   1.846   6.972
 3754POPC   C4A48174   8.770   2.115   7.335
 3754POPC   C1B48175   9.068   2.323   6.029
 3754POPC   C2B48176   9.381   2.379   6.339
 3754POPC   C3B48177   9.221   2.155   6.709
 3754POPC   C4B48178   9.190   2.268   7.126
 3755POPC   NC348179  17.904  21.015   5.355
 3755POPC   PO448180  17.573  21.723   5.241
 3755POPC   GL148181  17.477  21.341   5.578
 3755POPC   GL248182  17.180  21.356   5.828
 3755POPC   C1A48183  17.653  21.141   6.013
 3755POPC   D2A48184  17.787  21.281   6.468
 3755POPC   C3A48185  17.718  21.107   6.905
 3755POPC   C4A48186  17.639  21.251   7.311
 3755POPC   C1B48187  17.314  21.393   6.308
 3755POPC   C2B48188  17.369  21.487   6.763
 3755POPC   C3B48189  17.321  21.653   7.211
 3755POPC   C4B48190  17.097  21.757   7.636
 3756POPC   NC348191  16.806   2.440   5.603
 3756POPC   PO448192  16.551   3.058   5.556
 3756POPC   GL148193  16.570   2.786   5.911
 3756POPC   GL248194  16.927   2.862   5.897
 3756POPC   C1A48195  16.489   2.423   6.198
 3756POPC   D2A48196  16.618   2.329   6.605
 3756POPC   C3A48197  16.502   2.611   6.946
 3756POPC   C4A48198  16.512   2.554   7.410
 3756POPC   C1B48199  16.982   2.587   6.257
 3756POPC   C2B48200  17.145   2.747   6.640
 3756POPC   C3B48201  17.039   2.800   7.035
 3756POPC   C4B48202  16.686   2.991   7.227
 3757POPC   NC348203   2.775  41.868   5.106
 3757POPC   PO448204   2.753  42.594   5.317
 3757POPC   GL148205   2.918  42.518   5.708
 3757POPC   GL248206   2.633  42.333   5.846
 3757POPC   C1A48207   3.045  42.495   6.135
 3757POPC   D2A48208   2.935  42.172   6.395
 3757POPC   C3A48209   2.948  42.191   6.852
 3757POPC   C4A48210   2.996  42.305   7.300
 3757POPC   C1B48211   2.442  42.336   6.246
 3757POPC   C2B48212   2.475  42.149   6.648
 3757POPC   C3B48213   2.508  42.216   7.105
 3757POPC   C4B48214   2.387  42.109   7.534
 3758POPC   NC348215  41.154  25.380   5.226
 3758POPC   PO448216  40.777  25.481   5.787
 3758POPC   GL148217  40.856  25.136   5.997
 3758POPC   GL248218  40.549  25.007   5.854
 3758POPC   C1A48219  40.869  25.198   6.437
 3758POPC   D2A48220  40.597  25.464   6.691
 3758POPC   C3A48221  40.829  25.516   7.053
 3758POPC   C4A48222  40.785  25.215   7.373
 3758POPC   C1B48223  40.414  25.136   6.242
 3758POPC   C2B48224  40.478  24.869   6.576
 3758POPC   C3B48225  40.573  24.941   6.985
 3758POPC   C4B48226  40.475  24.800   7.413
 3759POPC   NC348227  43.570  44.529   5.358
 3759POPC   PO448228  42.946  44.755   5.438
 3759POPC   GL148229  43.264  44.702   5.752
 3759POPC   GL248230  43.440   0.027   5.733
 3759POPC   C1A48231  43.233  44.523   6.168
 3759POPC   D2A48232  42.923  44.705   6.471
 3759POPC   C3A48233  42.922  44.592   6.902
 3759POPC   C4A48234  43.262  44.391   7.152
 3759POPC   C1B48235  43.545  44.925   6.175
 3759POPC   C2B48236  43.400  44.780   6.596
 3759POPC   C3B48237  43.307  44.928   6.989
 3759POPC   C4B48238  43.554  44.812   7.345
 3760POPC   NC348239  11.277  29.768   4.910
 3760POPC   PO448240  11.273  29.965   5.542
 3760POPC   GL148241  11.502  30.035   5.868
 3760POPC   GL248242  11.518  30.398   5.840
 3760POPC   C1A48243  11.506  29.882   6.242
 3760POPC   D2A48244  11.315  30.047   6.626
 3760POPC   C3A48245  11.333  29.754   6.974
 3760POPC   C4A48246  11.040  29.423   7.109
 3760POPC   C1B48247  11.652  30.367   6.259
 3760POPC   C2B48248  11.720  30.358   6.694
 3760POPC   C3B48249  11.459  30.337   7.039
 3760POPC   C4B48250  11.401  30.064   7.389
 3761POPC   NC348251  38.106  22.894   5.757
 3761POPC   PO448252  38.639  23.229   5.431
 3761POPC   GL148253  38.529  23.180   5.839
 3761POPC   GL248254  38.616  22.836   5.833
 3761POPC   C1A48255  38.475  23.090   6.291
 3761POPC   D2A48256  38.504  22.720   6.573
 3761POPC   C3A48257  38.377  22.791   7.012
 3761POPC   C4A48258  38.478  23.168   7.218
 3761POPC   C1B48259  38.875  22.665   6.176
 3761POPC   C2B48260  38.999  22.530   6.592
 3761POPC   C3B48261  38.865  22.687   6.973
 3761POPC   C4B48262  38.699  22.571   7.372
 3762POPC   NC348263  19.632   2.040   5.099
 3762POPC   PO448264  20.140   2.215   5.482
 3762POPC   GL148265  19.940   1.998   5.820
 3762POPC   GL248266  19.604   1.957   5.677
 3762POPC   C1A48267  19.957   1.940   6.294
 3762POPC   D2A48268  19.633   1.807   6.638
 3762POPC   C3A48269  19.715   1.806   7.110
 3762POPC   C4A48270  19.997   2.117   7.306
 3762POPC   C1B48271  19.482   2.077   6.102
 3762POPC   C2B48272  19.670   2.306   6.462
 3762POPC   C3B48273  19.732   2.255   6.879
 3762POPC   C4B48274  19.491   2.237   7.266
 3763POPC   NC348275  18.050  16.754   5.400
 3763POPC   PO448276  18.584  16.379   5.620
 3763POPC   GL148277  18.344  16.658   5.876
 3763POPC   GL248278  18.378  16.965   5.747
 3763POPC   C1A48279  18.026  16.676   6.210
 3763POPC   D2A48280  18.037  16.451   6.618
 3763POPC   C3A48281  18.027  16.706   7.008
 3763POPC   C4A48282  18.031  16.624   7.523
 3763POPC   C1B48283  18.350  17.097   6.166
 3763POPC   C2B48284  18.377  16.841   6.551
 3763POPC   C3B48285  18.484  16.548   6.878
 3763POPC   C4B48286  18.455  16.763   7.286
 3764POPC   NC348287  15.418  30.215   5.316
 3764POPC   PO448288  15.110  29.656   5.489
 3764POPC   GL148289  15.156  29.752   5.899
 3764POPC   GL248290  15.405  29.946   5.798
 3764POPC   C1A48291  15.288  29.641   6.297
 3764POPC   D2A48292  15.215  29.817   6.657
 3764POPC   C3A48293  15.484  29.792   6.946
 3764POPC   C4A48294  15.227  29.769   7.318
 3764POPC   C1B48295  15.422  30.124   6.192
 3764POPC   C2B48296  15.323  30.306   6.585
 3764POPC   C3B48297  15.226  30.207   7.030
 3764POPC   C4B48298  15.482  30.292   7.394
 3765POPC   NC348299   7.645   2.417   5.362
 3765POPC   PO448300   7.517   3.091   5.394
 3765POPC   GL148301   7.403   2.907   5.807
 3765POPC   GL248302   7.414   2.558   5.807
 3765POPC   C1A48303   7.595   2.780   6.217
 3765POPC   D2A48304   7.665   2.603   6.622
 3765POPC   C3A48305   7.307   2.715   6.880
 3765POPC   C4A48306   7.212   2.983   7.210
 3765POPC   C1B48307   7.244   2.362   6.185
 3765POPC   C2B48308   7.293   2.232   6.577
 3765POPC   C3B48309   7.485   2.252   6.968
 3765POPC   C4B48310   7.333   2.431   7.323
 3766POPC   NC348311  16.929   3.175   5.315
 3766POPC   PO448312  16.740   3.955   5.247
 3766POPC   GL148313  16.843   3.909   5.737
 3766POPC   GL248314  16.906   3.584   5.624
 3766POPC   C1A48315  16.677   3.851   6.194
 3766POPC   D2A48316  16.721   3.619   6.593
 3766POPC   C3A48317  16.469   3.633   6.977
 3766POPC   C4A48318  16.405   3.397   7.385
 3766POPC   C1B48319  16.972   3.429   6.024
 3766POPC   C2B48320  17.105   3.319   6.422
 3766POPC   C3B48321  17.110   3.282   6.854
 3766POPC   C4B48322  16.890   3.445   7.213
 3767POPC   NC348323   2.178  40.149   5.337
 3767POPC   PO448324   1.502  39.851   5.265
 3767POPC   GL148325   1.862  39.832   5.653
 3767POPC   GL248326   2.044  40.149   5.804
 3767POPC   C1A48327   1.857  39.870   6.155
 3767POPC   D2A48328   2.136  39.983   6.527
 3767POPC   C3A48329   1.964  39.899   6.967
 3767POPC   C4A48330   1.543  39.765   7.131
 3767POPC   C1B48331   2.002  40.402   6.152
 3767POPC   C2B48332   2.208  40.506   6.513
 3767POPC   C3B48333   2.055  40.389   6.878
 3767POPC   C4B48334   2.223  40.288   7.247
 3768POPC   NC348335  30.819  14.819   5.520
 3768POPC   PO448336  30.968  15.522   5.479
 3768POPC   GL148337  30.686  15.401   5.802
 3768POPC   GL248338  30.402  15.176   5.705
 3768POPC   C1A48339  30.782  15.305   6.233
 3768POPC   D2A48340  30.536  15.368   6.590
 3768POPC   C3A48341  30.714  15.301   6.987
 3768POPC   C4A48342  30.513  15.195   7.310
 3768POPC   C1B48343  30.478  14.919   6.088
 3768POPC   C2B48344  30.643  14.865   6.511
 3768POPC   C3B48345  30.456  14.827   6.891
 3768POPC   C4B48346  30.501  14.689   7.250
 3769POPC   NC348347  13.101   3.515   5.092
 3769POPC   PO448348  12.567   3.682   5.320
 3769POPC   GL148349  12.921   3.562   5.618
 3769POPC   GL248350  12.714   3.472   5.859
 3769POPC   C1A48351  13.112   3.690   6.067
 3769POPC   D2A48352  13.094   3.860   6.530
 3769POPC   C3A48353  12.940   3.611   6.947
 3769POPC   C4A48354  12.859   3.527   7.443
 3769POPC   C1B48355  12.761   3.328   6.278
 3769POPC   C2B48356  12.559   3.365   6.666
 3769POPC   C3B48357  12.602   3.227   7.091
 3769POPC   C4B48358  12.660   3.056   7.527
 3770POPC   NC348359  36.456  28.240   5.552
 3770POPC   PO448360  35.878  28.060   5.585
 3770POPC   GL148361  35.895  28.263   6.016
 3770POPC   GL248362  35.858  28.635   6.087
 3770POPC   C1A48363  36.058  28.282   6.425
 3770POPC   D2A48364  36.348  28.405   6.728
 3770POPC   C3A48365  36.276  28.195   7.105
 3770POPC   C4A48366  35.879  28.140   7.246
 3770POPC   C1B48367  36.229  28.759   6.342
 3770POPC   C2B48368  36.022  28.818   6.672
 3770POPC   C3B48369  35.965  28.627   7.035
 3770POPC   C4B48370  36.357  28.682   7.232
 3771POPC   NC348371   4.853  34.154   5.441
 3771POPC   PO448372   4.861  34.743   5.690
 3771POPC   GL148373   4.920  34.389   5.898
 3771POPC   GL248374   5.264  34.395   5.986
 3771POPC   C1A48375   4.908  34.430   6.326
 3771POPC   D2A48376   5.023  34.207   6.609
 3771POPC   C3A48377   5.025  34.434   6.987
 3771POPC   C4A48378   5.308  34.425   7.312
 3771POPC   C1B48379   5.254  34.815   6.217
 3771POPC   C2B48380   5.144  34.913   6.642
 3771POPC   C3B48381   5.352  34.931   7.040
 3771POPC   C4B48382   5.133  34.912   7.398
 3772POPC   NC348383   0.915  35.343   5.491
 3772POPC   PO448384   1.349  35.743   5.410
 3772POPC   GL148385   1.307  35.501   5.818
 3772POPC   GL248386   1.255  35.165   5.886
 3772POPC   C1A48387   1.128  35.416   6.293
 3772POPC   D2A48388   0.886  35.455   6.676
 3772POPC   C3A48389   1.145  35.566   7.010
 3772POPC   C4A48390   1.155  35.349   7.361
 3772POPC   C1B48391   1.374  34.916   6.245
 3772POPC   C2B48392   1.486  34.871   6.669
 3772POPC   C3B48393   1.265  34.965   7.043
 3772POPC   C4B48394   1.210  34.874   7.507
 3773POPC   NC348395  44.491  34.066   5.401
 3773POPC   PO448396  44.834  33.483   5.298
 3773POPC   GL148397  44.730  33.586   5.753
 3773POPC   GL248398  44.727  33.946   5.831
 3773POPC   C1A48399  44.768  33.661   6.237
 3773POPC   D2A48400  44.577  33.814   6.621
 3773POPC   C3A48401  44.688  33.553   6.936
 3773POPC   C4A48402  44.455  33.472   7.259
 3773POPC   C1B48403  44.595  34.165   6.229
 3773POPC   C2B48404  44.751  34.307   6.608
 3773POPC   C3B48405  44.523  34.249   6.929
 3773POPC   C4B48406  44.507  33.972   7.200
 3774POPC   NC348407   1.173  21.664   5.341
 3774POPC   PO448408   0.943  22.356   5.335
 3774POPC   GL148409   1.210  22.163   5.721
 3774POPC   GL248410   0.966  22.152   5.978
 3774POPC   C1A48411   1.411  22.195   6.193
 3774POPC   D2A48412   1.183  22.071   6.581
 3774POPC   C3A48413   1.304  22.198   6.983
 3774POPC   C4A48414   1.249  22.005   7.354
 3774POPC   C1B48415   0.900  22.431   6.315
 3774POPC   C2B48416   0.793  22.392   6.749
 3774POPC   C3B48417   0.885  22.433   7.167
 3774POPC   C4B48418   0.880  22.278   7.571
 3775POPC   NC348419  36.477  26.627   5.508
 3775POPC   PO448420  35.952  27.035   5.668
 3775POPC   GL148421  36.129  26.724   5.876
 3775POPC   GL248422  36.429  26.928   5.936
 3775POPC   C1A48423  36.017  26.433   6.202
 3775POPC   D2A48424  35.858  26.576   6.604
 3775POPC   C3A48425  35.970  26.383   6.997
 3775POPC   C4A48426  35.866  26.442   7.425
 3775POPC   C1B48427  36.267  26.897   6.351
 3775POPC   C2B48428  36.285  26.779   6.785
 3775POPC   C3B48429  36.127  26.866   7.190
 3775POPC   C4B48430  36.441  26.987   7.462
 3776POPC   NC348431  25.238  34.817   5.427
 3776POPC   PO448432  25.340  34.123   5.424
 3776POPC   GL148433  25.375  34.462   5.790
 3776POPC   GL248434  25.089  34.644   5.901
 3776POPC   C1A48435  25.492  34.574   6.250
 3776POPC   D2A48436  25.409  34.481   6.688
 3776POPC   C3A48437  25.633  34.593   7.080
 3776POPC   C4A48438  25.505  34.776   7.481
 3776POPC   C1B48439  24.874  34.637   6.302
 3776POPC   C2B48440  24.945  34.839   6.692
 3776POPC   C3B48441  25.155  34.748   7.063
 3776POPC   C4B48442  25.104  34.497   7.423
 3777POPC   NC348443  15.564   0.058   5.498
 3777POPC   PO448444  15.753   0.769   5.385
 3777POPC   GL148445  15.954   0.588   5.798
 3777POPC   GL248446  16.154   0.296   5.722
 3777POPC   C1A48447  15.849   0.415   6.265
 3777POPC   D2A48448  15.640   0.365   6.710
 3777POPC   C3A48449  15.796   0.451   7.103
 3777POPC   C4A48450  16.168   0.666   7.204
 3777POPC   C1B48451  16.241   0.115   6.108
 3777POPC   C2B48452  16.132   0.042   6.536
 3777POPC   C3B48453  16.237   0.252   6.920
 3777POPC   C4B48454  16.188   0.154   7.350
 3778POPC   NC348455   4.899  35.902   5.413
 3778POPC   PO448456   5.050  36.611   5.384
 3778POPC   GL148457   5.031  36.317   5.719
 3778POPC   GL248458   5.367  36.165   5.793
 3778POPC   C1A48459   4.886  36.162   6.151
 3778POPC   D2A48460   5.121  35.942   6.496
 3778POPC   C3A48461   4.953  36.097   6.916
 3778POPC   C4A48462   4.811  35.998   7.373
 3778POPC   C1B48463   5.340  36.393   6.198
 3778POPC   C2B48464   5.336  36.376   6.645
 3778POPC   C3B48465   5.510  36.100   6.947
 3778POPC   C4B48466   5.293  36.159   7.318
 3779POPC   NC348467  15.332  26.881   5.096
 3779POPC   PO448468  14.933  26.491   5.513
 3779POPC   GL148469  15.280  26.632   5.795
 3779POPC   GL248470  15.610  26.548   5.662
 3779POPC   C1A48471  15.311  26.859   6.209
 3779POPC   D2A48472  15.042  27.053   6.554
 3779POPC   C3A48473  14.954  26.884   6.970
 3779POPC   C4A48474  15.078  26.964   7.364
 3779POPC   C1B48475  15.593  26.342   6.087
 3779POPC   C2B48476  15.586  26.559   6.502
 3779POPC   C3B48477  15.417  26.787   6.793
 3779POPC   C4B48478  15.356  26.580   7.169
 3780POPC   NC348479  19.975  36.575   5.715
 3780POPC   PO448480  20.002  36.002   5.415
 3780POPC   GL148481  19.858  36.040   5.828
 3780POPC   GL248482  19.541  35.893   5.738
 3780POPC   C1A48483  20.038  36.169   6.251
 3780POPC   D2A48484  19.891  36.420   6.639
 3780POPC   C3A48485  19.882  36.270   7.092
 3780POPC   C4A48486  19.777  36.445   7.542
 3780POPC   C1B48487  19.414  35.775   6.142
 3780POPC   C2B48488  19.639  35.970   6.496
 3780POPC   C3B48489  19.586  35.860   6.915
 3780POPC   C4B48490  19.700  35.748   7.304
 3781POPC   NC348491  26.245  20.758   5.516
 3781POPC   PO448492  25.820  20.351   5.356
 3781POPC   GL148493  25.884  20.509   5.787
 3781POPC   GL248494  26.231  20.444   5.917
 3781POPC   C1A48495  25.945  20.821   6.139
 3781POPC   D2A48496  26.277  20.734   6.437
 3781POPC   C3A48497  26.203  20.711   6.869
 3781POPC   C4A48498  25.979  20.796   7.203
 3781POPC   C1B48499  26.440  20.280   6.288
 3781POPC   C2B48500  26.517  20.339   6.735
 3781POPC   C3B48501  26.398  20.343   7.186
 3781POPC   C4B48502  26.544  20.379   7.650
 3782POPC   NC348503  13.055   0.345   5.675
 3782POPC   PO448504  12.632   0.866   5.462
 3782POPC   GL148505  12.657   0.622   5.825
 3782POPC   GL248506  12.608   0.260   5.861
 3782POPC   C1A48507  12.844   0.587   6.232
 3782POPC   D2A48508  13.020   0.916   6.478
 3782POPC   C3A48509  13.025   0.722   6.868
 3782POPC   C4A48510  12.816   0.816   7.216
 3782POPC   C1B48511  12.435   0.158   6.203
 3782POPC   C2B48512  12.619   0.106   6.593
 3782POPC   C3B48513  12.550   0.332   6.944
 3782POPC   C4B48514  12.739   0.293   7.286
 3783POPC   NC348515  22.466  31.000   5.177
 3783POPC   PO448516  21.934  31.357   5.416
 3783POPC   GL148517  22.000  31.469   5.822
 3783POPC   GL248518  22.335  31.620   5.856
 3783POPC   C1A48519  21.991  31.224   6.215
 3783POPC   D2A48520  22.082  31.132   6.646
 3783POPC   C3A48521  21.984  31.454   6.924
 3783POPC   C4A48522  22.167  31.414   7.336
 3783POPC   C1B48523  22.416  31.487   6.292
 3783POPC   C2B48524  22.464  31.522   6.725
 3783POPC   C3B48525  22.352  31.791   7.041
 3783POPC   C4B48526  22.387  31.873   7.475
 3784POPC   NC348527  38.925  18.015   5.243
 3784POPC   PO448528  39.348  17.459   5.084
 3784POPC   GL148529  39.210  17.526   5.580
 3784POPC   GL248530  39.323  17.786   5.776
 3784POPC   C1A48531  39.250  17.356   6.057
 3784POPC   D2A48532  39.138  17.183   6.496
 3784POPC   C3A48533  39.351  17.271   6.907
 3784POPC   C4A48534  39.339  17.479   7.283
 3784POPC   C1B48535  39.564  17.764   6.176
 3784POPC   C2B48536  39.550  17.563   6.543
 3784POPC   C3B48537  39.552  17.772   6.941
 3784POPC   C4B48538  39.801  17.692   7.312
 3785POPC   NC348539  41.373  40.261   5.411
 3785POPC   PO448540  41.263  39.634   5.631
 3785POPC   GL148541  41.574  39.850   5.903
 3785POPC   GL248542  41.634  40.198   5.866
 3785POPC   C1A48543  41.684  39.913   6.325
 3785POPC   D2A48544  41.411  39.907   6.651
 3785POPC   C3A48545  41.527  39.753   7.013
 3785POPC   C4A48546  41.421  39.929   7.371
 3785POPC   C1B48547  41.562  40.434   6.255
 3785POPC   C2B48548  41.443  40.420   6.686
 3785POPC   C3B48549  41.659  40.470   7.069
 3785POPC   C4B48550  41.618  40.393   7.516
 3786POPC   NC348551  29.987  23.771   5.357
 3786POPC   PO448552  29.524  24.245   5.493
 3786POPC   GL148553  29.726  23.945   5.829
 3786POPC   GL248554  30.046  23.731   5.849
 3786POPC   C1A48555  29.739  23.751   6.263
 3786POPC   D2A48556  29.534  23.628   6.688
 3786POPC   C3A48557  29.671  23.864   7.084
 3786POPC   C4A48558  29.814  23.749   7.482
 3786POPC   C1B48559  30.250  23.556   6.252
 3786POPC   C2B48560  30.040  23.559   6.655
 3786POPC   C3B48561  30.029  23.510   7.104
 3786POPC   C4B48562  30.245  23.474   7.543
 3787POPC   NC348563  14.091  14.311   5.454
 3787POPC   PO448564  14.808  14.017   5.486
 3787POPC   GL148565  14.601  14.251   5.876
 3787POPC   GL248566  14.236  14.162   5.906
 3787POPC   C1A48567  14.457  14.492   6.267
 3787POPC   D2A48568  14.534  14.417   6.718
 3787POPC   C3A48569  14.410  14.648   7.067
 3787POPC   C4A48570  14.292  14.537   7.476
 3787POPC   C1B48571  14.252  14.011   6.309
 3787POPC   C2B48572  14.004  14.067   6.675
 3787POPC   C3B48573  14.130  14.200   7.069
 3787POPC   C4B48574  14.349  14.019   7.376
 3788POPC   NC348575  18.397  27.415   5.275
 3788POPC   PO448576  17.838  27.839   5.269
 3788POPC   GL148577  18.055  27.647   5.647
 3788POPC   GL248578  18.274  27.867   5.857
 3788POPC   C1A48579  18.209  27.380   6.037
 3788POPC   D2A48580  18.194  27.109   6.433
 3788POPC   C3A48581  18.395  27.260   6.803
 3788POPC   C4A48582  18.253  27.367   7.206
 3788POPC   C1B48583  18.478  27.776   6.296
 3788POPC   C2B48584  18.445  27.781   6.797
 3788POPC   C3B48585  18.525  27.781   7.256
 3788POPC   C4B48586  18.298  27.950   7.621
 3789POPC   NC348587  40.550  29.428   5.405
 3789POPC   PO448588  40.887  28.776   5.311
 3789POPC   GL148589  40.738  28.918   5.748
 3789POPC   GL248590  40.625  29.259   5.871
 3789POPC   C1A48591  40.826  28.926   6.205
 3789POPC   D2A48592  41.022  29.183   6.536
 3789POPC   C3A48593  40.833  29.112   6.941
 3789POPC   C4A48594  40.836  28.861   7.296
 3789POPC   C1B48595  40.827  29.509   6.190
 3789POPC   C2B48596  40.714  29.659   6.599
 3789POPC   C3B48597  40.525  29.529   6.980
 3789POPC   C4B48598  40.730  29.379   7.399
 3790POPC   NC348599  38.846  26.154   5.389
 3790POPC   PO448600  38.352  25.838   5.158
 3790POPC   GL148601  38.429  26.035   5.632
 3790POPC   GL248602  38.701  25.843   5.777
 3790POPC   C1A48603  38.399  26.129   6.118
 3790POPC   D2A48604  38.295  25.896   6.528
 3790POPC   C3A48605  38.211  26.157   6.917
 3790POPC   C4A48606  38.292  26.248   7.349
 3790POPC   C1B48607  38.666  25.690   6.194
 3790POPC   C2B48608  38.674  25.554   6.603
 3790POPC   C3B48609  38.627  25.815   6.925
 3790POPC   C4B48610  38.616  25.844   7.321
 3791POPC   NC348611  20.187   7.503   5.476
 3791POPC   PO448612  20.848   7.547   5.468
 3791POPC   GL148613  20.576   7.364   5.795
 3791POPC   GL248614  20.427   7.713   5.867
 3791POPC   C1A48615  20.632   7.151   6.207
 3791POPC   D2A48616  20.783   7.247   6.631
 3791POPC   C3A48617  20.562   7.135   7.021
 3791POPC   C4A48618  20.870   7.326   7.265
 3791POPC   C1B48619  20.243   7.892   6.229
 3791POPC   C2B48620  20.402   7.768   6.608
 3791POPC   C3B48621  20.592   7.641   6.958
 3791POPC   C4B48622  20.390   7.539   7.322
 3792POPC   NC348623  19.768  26.665   4.970
 3792POPC   PO448624  19.732  26.977   5.545
 3792POPC   GL148625  19.821  26.890   5.938
 3792POPC   GL248626  19.515  26.702   5.974
 3792POPC   C1A48627  20.181  26.954   6.231
 3792POPC   D2A48628  20.326  27.241   6.544
 3792POPC   C3A48629  20.069  27.141   6.883
 3792POPC   C4A48630  19.792  27.035   7.204
 3792POPC   C1B48631  19.446  26.612   6.398
 3792POPC   C2B48632  19.370  26.661   6.853
 3792POPC   C3B48633  19.608  26.533   7.199
 3792POPC   C4B48634  19.672  26.395   7.611
 3793POPC   NC348635  19.526  25.521   5.557
 3793POPC   PO448636  19.932  24.982   5.416
 3793POPC   GL148637  20.017  25.025   5.828
 3793POPC   GL248638  20.096  25.391   5.804
 3793POPC   C1A48639  19.756  25.025   6.228
 3793POPC   D2A48640  19.756  25.217   6.642
 3793POPC   C3A48641  19.799  24.987   7.052
 3793POPC   C4A48642  19.605  24.848   7.462
 3793POPC   C1B48643  19.884  25.552   6.202
 3793POPC   C2B48644  19.826  25.730   6.630
 3793POPC   C3B48645  19.922  25.514   7.024
 3793POPC   C4B48646  19.957  25.565   7.454
 3794POPC   NC348647  22.325  26.902   4.941
 3794POPC   PO448648  22.047  26.516   5.479
 3794POPC   GL148649  22.017  26.712   5.833
 3794POPC   GL248650  22.017  27.065   5.777
 3794POPC   C1A48651  22.074  26.739   6.245
 3794POPC   D2A48652  22.303  26.595   6.571
 3794POPC   C3A48653  22.105  26.759   6.893
 3794POPC   C4A48654  22.196  26.939   7.271
 3794POPC   C1B48655  21.809  27.178   6.203
 3794POPC   C2B48656  21.799  27.069   6.626
 3794POPC   C3B48657  21.770  27.134   7.071
 3794POPC   C4B48658  21.784  27.163   7.526
 3795POPC   NC348659  14.580  27.745   5.273
 3795POPC   PO448660  14.486  28.411   5.424
 3795POPC   GL148661  14.230  28.625   5.762
 3795POPC   GL248662  14.363  28.319   5.935
 3795POPC   C1A48663  14.052  28.589   6.196
 3795POPC   D2A48664  14.289  28.360   6.491
 3795POPC   C3A48665  14.216  28.459   6.902
 3795POPC   C4A48666  14.415  28.233   7.253
 3795POPC   C1B48667  14.555  28.687   6.173
 3795POPC   C2B48668  14.552  28.805   6.626
 3795POPC   C3B48669  14.656  28.655   7.060
 3795POPC   C4B48670  14.491  28.680   7.510
 3796POPC   NC348671  40.280  37.473   5.410
 3796POPC   PO448672  39.642  37.428   5.783
 3796POPC   GL148673  40.016  37.666   5.832
 3796POPC   GL248674  40.297  37.462   5.938
 3796POPC   C1A48675  40.162  37.851   6.237
 3796POPC   D2A48676  40.226  37.625   6.642
 3796POPC   C3A48677  40.011  37.810   7.016
 3796POPC   C4A48678  39.745  37.746   7.381
 3796POPC   C1B48679  40.513  37.310   6.328
 3796POPC   C2B48680  40.522  37.214   6.792
 3796POPC   C3B48681  40.417  37.448   7.202
 3796POPC   C4B48682  40.469  37.447   7.698
 3797POPC   NC348683  13.326  14.819   5.382
 3797POPC   PO448684  13.972  15.159   5.212
 3797POPC   GL148685  13.783  15.333   5.640
 3797POPC   GL248686  13.480  15.106   5.789
 3797POPC   C1A48687  13.741  15.407   6.111
 3797POPC   D2A48688  13.766  15.058   6.436
 3797POPC   C3A48689  13.666  15.136   6.858
 3797POPC   C4A48690  13.799  15.420   7.176
 3797POPC   C1B48691  13.473  14.760   6.133
 3797POPC   C2B48692  13.289  14.792   6.579
 3797POPC   C3B48693  13.384  14.730   7.025
 3797POPC   C4B48694  13.522  15.033   7.347
 3798POPC   NC348695   3.077  42.974   5.460
 3798POPC   PO448696   2.756  43.590   5.411
 3798POPC   GL148697   2.914  43.461   5.841
 3798POPC   GL248698   2.927  43.078   5.916
 3798POPC   C1A48699   2.838  43.361   6.302
 3798POPC   D2A48700   2.680  43.122   6.659
 3798POPC   C3A48701   2.916  43.305   6.994
 3798POPC   C4A48702   2.746  43.592   7.283
 3798POPC   C1B48703   2.686  42.846   6.197
 3798POPC   C2B48704   2.720  42.606   6.581
 3798POPC   C3B48705   2.760  42.680   7.003
 3798POPC   C4B48706   3.111  42.807   7.250
 3799POPC   NC348707  23.252  21.856   5.470
 3799POPC   PO448708  22.555  21.821   5.549
 3799POPC   GL148709  22.804  22.036   5.840
 3799POPC   GL248710  23.122  22.235   5.791
 3799POPC   C1A48711  22.893  22.010   6.260
 3799POPC   D2A48712  22.905  22.327   6.542
 3799POPC   C3A48713  22.850  22.134   6.892
 3799POPC   C4A48714  23.012  22.173   7.266
 3799POPC   C1B48715  23.287  22.357   6.194
 3799POPC   C2B48716  23.388  22.515   6.619
 3799POPC   C3B48717  23.455  22.415   7.064
 3799POPC   C4B48718  23.333  22.477   7.519
 3800POPC   NC348719   7.260  43.381   5.299
 3800POPC   PO448720   7.514  43.997   5.222
 3800POPC   GL148721   7.538  43.857   5.675
 3800POPC   GL248722   7.265  43.592   5.758
 3800POPC   C1A48723   7.577  44.024   6.110
 3800POPC   D2A48724   7.777  43.931   6.514
 3800POPC   C3A48725   7.592  44.063   6.900
 3800POPC   C4A48726   7.572  43.865   7.296
 3800POPC   C1B48727   7.180  43.701   6.163
 3800POPC   C2B48728   7.318  43.554   6.564
 3800POPC   C3B48729   7.218  43.697   6.984
 3800POPC   C4B48730   7.167  43.647   7.464
 3801POPC   NC348731  10.038  28.599   5.319
 3801POPC   PO448732  10.718  28.634   5.416
 3801POPC   GL148733  10.699  28.375   5.763
 3801POPC   GL248734  10.913  28.084   5.626
 3801POPC   C1A48735  10.538  28.366   6.188
 3801POPC   D2A48736  10.320  28.151   6.539
 3801POPC   C3A48737  10.363  28.389   6.911
 3801POPC   C4A48738  10.550  28.462   7.308
 3801POPC   C1B48739  11.002  28.074   6.057
 3801POPC   C2B48740  10.869  28.084   6.480
 3801POPC   C3B48741  10.792  28.101   6.917
 3801POPC   C4B48742  10.802  28.020   7.355
 3802POPC   NC348743  43.539  27.635   5.491
 3802POPC   PO448744  42.912  27.769   5.617
 3802POPC   GL148745  43.041  27.727   6.006
 3802POPC   GL248746  43.366  27.685   5.963
 3802POPC   C1A48747  43.125  27.595   6.429
 3802POPC   D2A48748  42.838  27.386   6.729
 3802POPC   C3A48749  42.937  27.606   7.070
 3802POPC   C4A48750  43.020  27.926   7.313
 3802POPC   C1B48751  43.494  27.283   6.119
 3802POPC   C2B48752  43.718  27.280   6.477
 3802POPC   C3B48753  43.511  27.424   6.843
 3802POPC   C4B48754  43.376  27.448   7.262
 3803POPC   NC348755   4.772   2.422   5.378
 3803POPC   PO448756   4.133   2.605   5.398
 3803POPC   GL148757   4.202   2.599   5.806
 3803POPC   GL248758   4.544   2.677   5.785
 3803POPC   C1A48759   4.131   2.824   6.229
 3803POPC   D2A48760   4.203   2.722   6.666
 3803POPC   C3A48761   4.119   2.858   7.075
 3803POPC   C4A48762   4.061   2.821   7.520
 3803POPC   C1B48763   4.780   2.677   6.161
 3803POPC   C2B48764   4.683   2.598   6.576
 3803POPC   C3B48765   4.618   2.861   6.956
 3803POPC   C4B48766   4.504   2.688   7.374
 3804POPC   NC348767  43.266  31.053   5.467
 3804POPC   PO448768  42.862  31.655   5.368
 3804POPC   GL148769  42.898  31.517   5.775
 3804POPC   GL248770  43.250  31.425   5.877
 3804POPC   C1A48771  42.805  31.494   6.191
 3804POPC   D2A48772  43.115  31.459   6.541
 3804POPC   C3A48773  42.906  31.299   6.913
 3804POPC   C4A48774  43.039  31.421   7.295
 3804POPC   C1B48775  43.512  31.229   6.204
 3804POPC   C2B48776  43.537  31.057   6.612
 3804POPC   C3B48777  43.411  31.287   6.960
 3804POPC   C4B48778  43.504  31.168   7.369
 3805POPC   NC348779  19.410  19.004   5.573
 3805POPC   PO448780  20.021  19.309   5.511
 3805POPC   GL148781  19.978  19.105   5.910
 3805POPC   GL248782  19.963  18.733   5.959
 3805POPC   C1A48783  19.684  19.069   6.237
 3805POPC   D2A48784  19.633  18.834   6.617
 3805POPC   C3A48785  19.652  19.166   6.914
 3805POPC   C4A48786  19.706  19.039   7.302
 3805POPC   C1B48787  20.180  18.853   6.336
 3805POPC   C2B48788  20.402  18.961   6.700
 3805POPC   C3B48789  20.143  18.987   7.046
 3805POPC   C4B48790  20.169  19.128   7.459
 3806POPC   NC348791   6.323  29.671   5.388
 3806POPC   PO448792   5.697  29.799   5.507
 3806POPC   GL148793   6.004  29.926   5.811
 3806POPC   GL248794   6.120  29.590   5.862
 3806POPC   C1A48795   5.897  30.037   6.253
 3806POPC   D2A48796   5.864  30.290   6.629
 3806POPC   C3A48797   5.909  30.016   6.983
 3806POPC   C4A48798   5.713  30.017   7.423
 3806POPC   C1B48799   5.759  29.567   6.137
 3806POPC   C2B48800   5.681  29.666   6.572
 3806POPC   C3B48801   5.656  29.561   6.995
 3806POPC   C4B48802   5.969  29.609   7.294
 3807POPC   NC348803  13.236  38.771   5.489
 3807POPC   PO448804  12.612  38.446   5.536
 3807POPC   GL148805  12.754  38.541   5.903
 3807POPC   GL248806  13.042  38.345   5.830
 3807POPC   C1A48807  12.806  38.341   6.304
 3807POPC   D2A48808  13.037  38.317   6.676
 3807POPC   C3A48809  12.739  38.487   6.963
 3807POPC   C4A48810  12.371  38.447   7.201
 3807POPC   C1B48811  13.200  38.627   6.155
 3807POPC   C2B48812  13.068  38.810   6.531
 3807POPC   C3B48813  13.172  38.766   6.940
 3807POPC   C4B48814  13.132  38.531   7.311
 3808POPC   NC348815  35.594  27.763   5.380
 3808POPC   PO448816  35.097  27.388   5.524
 3808POPC   GL148817  35.271  27.692   5.808
 3808POPC   GL248818  35.538  27.898   5.911
 3808POPC   C1A48819  35.118  27.907   6.183
 3808POPC   D2A48820  35.318  27.962   6.593
 3808POPC   C3A48821  35.036  27.822   6.926
 3808POPC   C4A48822  35.119  27.481   7.173
 3808POPC   C1B48823  35.523  27.588   6.272
 3808POPC   C2B48824  35.613  27.412   6.707
 3808POPC   C3B48825  35.742  27.294   7.130
 3808POPC   C4B48826  36.051  27.324   7.457
 3809POPC   NC348827  34.157  28.549   5.524
 3809POPC   PO448828  33.566  28.173   5.341
 3809POPC   GL148829  33.729  28.375   5.747
 3809POPC   GL248830  33.447  28.443   5.943
 3809POPC   C1A48831  33.982  28.325   6.161
 3809POPC   D2A48832  34.036  28.579   6.547
 3809POPC   C3A48833  34.194  28.474   6.930
 3809POPC   C4A48834  34.144  28.312   7.312
 3809POPC   C1B48835  33.497  28.302   6.378
 3809POPC   C2B48836  33.542  28.544   6.746
 3809POPC   C3B48837  33.673  28.512   7.147
 3809POPC   C4B48838  33.725  28.338   7.559
 3810POPC   NC348839  28.215  19.237   5.260
 3810POPC   PO448840  28.603  18.624   5.270
 3810POPC   GL148841  28.552  18.987   5.618
 3810POPC   GL248842  28.217  19.108   5.770
 3810POPC   C1A48843  28.659  19.068   6.091
 3810POPC   D2A48844  28.677  19.261   6.543
 3810POPC   C3A48845  28.631  18.985   6.925
 3810POPC   C4A48846  28.235  18.771   7.089
 3810POPC   C1B48847  28.191  19.250   6.233
 3810POPC   C2B48848  28.198  19.170   6.711
 3810POPC   C3B48849  28.113  19.249   7.172
 3810POPC   C4B48850  28.014  19.014   7.545
 3811POPC   NC348851  19.681   5.482   5.434
 3811POPC   PO448852  19.689   4.816   5.584
 3811POPC   GL148853  19.948   5.117   5.809
 3811POPC   GL248854  20.071   5.438   5.779
 3811POPC   C1A48855  20.162   5.099   6.200
 3811POPC   D2A48856  20.066   4.904   6.599
 3811POPC   C3A48857  20.124   5.095   6.986
 3811POPC   C4A48858  19.727   5.100   7.159
 3811POPC   C1B48859  19.823   5.492   6.161
 3811POPC   C2B48860  19.940   5.441   6.609
 3811POPC   C3B48861  19.845   5.588   7.037
 3811POPC   C4B48862  19.995   5.431   7.439
 3812POPC   NC348863  12.879  19.162   5.514
 3812POPC   PO448864  13.453  18.806   5.521
 3812POPC   GL148865  13.572  19.099   5.779
 3812POPC   GL248866  13.264  19.218   5.827
 3812POPC   C1A48867  13.683  19.023   6.202
 3812POPC   D2A48868  13.762  19.253   6.572
 3812POPC   C3A48869  13.683  19.008   6.938
 3812POPC   C4A48870  13.793  19.009   7.337
 3812POPC   C1B48871  13.170  19.008   6.200
 3812POPC   C2B48872  13.310  18.889   6.605
 3812POPC   C3B48873  13.177  19.011   7.049
 3812POPC   C4B48874  13.325  19.145   7.440
 3813POPC   NC348875  12.792  30.284   5.337
 3813POPC   PO448876  12.703  30.894   5.327
 3813POPC   GL148877  12.858  30.654   5.723
 3813POPC   GL248878  12.622  30.382   5.818
 3813POPC   C1A48879  13.016  30.589   6.175
 3813POPC   D2A48880  13.148  30.707   6.604
 3813POPC   C3A48881  12.934  30.690   6.977
 3813POPC   C4A48882  12.828  31.000   7.265
 3813POPC   C1B48883  12.627  30.249   6.248
 3813POPC   C2B48884  12.570  30.497   6.626
 3813POPC   C3B48885  12.473  30.487   7.053
 3813POPC   C4B48886  12.650  30.545   7.425
 3814POPC   NC348887  21.081  27.298   5.363
 3814POPC   PO448888  21.551  27.757   5.417
 3814POPC   GL148889  21.426  27.577   5.792
 3814POPC   GL248890  21.792  27.546   5.855
 3814POPC   C1A48891  21.192  27.444   6.168
 3814POPC   D2A48892  21.027  27.671   6.503
 3814POPC   C3A48893  21.092  27.554   6.906
 3814POPC   C4A48894  21.372  27.417   7.246
 3814POPC   C1B48895  21.647  27.676   6.274
 3814POPC   C2B48896  21.599  27.533   6.725
 3814POPC   C3B48897  21.831  27.645   7.124
 3814POPC   C4B48898  21.738  28.014   7.379
 3815POPC   NC348899  31.117  23.193   5.389
 3815POPC   PO448900  31.646  23.701   5.388
 3815POPC   GL148901  31.427  23.720   5.774
 3815POPC   GL248902  31.342  23.386   5.828
 3815POPC   C1A48903  31.491  23.948   6.160
 3815POPC   D2A48904  31.680  23.924   6.559
 3815POPC   C3A48905  31.489  23.650   6.843
 3815POPC   C4A48906  31.316  23.828   7.203
 3815POPC   C1B48907  31.400  23.416   6.288
 3815POPC   C2B48908  31.101  23.397   6.633
 3815POPC   C3B48909  31.136  23.348   7.118
 3815POPC   C4B48910  31.201  23.192   7.575
 3816POPC   NC348911  44.352  29.951   5.471
 3816POPC   PO448912  43.677  29.652   5.544
 3816POPC   GL148913  43.842  29.841   5.923
 3816POPC   GL248914  44.052  30.130   5.862
 3816POPC   C1A48915  43.669  29.836   6.337
 3816POPC   D2A48916  43.634  29.551   6.677
 3816POPC   C3A48917  43.566  29.774   7.024
 3816POPC   C4A48918  43.844  30.010   7.274
 3816POPC   C1B48919  44.170  30.017   6.289
 3816POPC   C2B48920  44.064  29.907   6.699
 3816POPC   C3B48921  44.315  30.023   7.013
 3816POPC   C4B48922  44.322  29.922   7.401
 3817POPC   NC348923  43.843  43.424   5.488
 3817POPC   PO448924  43.184  43.254   5.468
 3817POPC   GL148925  43.154  43.101   5.841
 3817POPC   GL248926  43.490  43.094   5.971
 3817POPC   C1A48927  43.077  42.879   6.215
 3817POPC   D2A48928  43.353  42.902   6.572
 3817POPC   C3A48929  43.165  42.858   6.996
 3817POPC   C4A48930  42.891  42.594   7.237
 3817POPC   C1B48931  43.309  43.356   6.320
 3817POPC   C2B48932  43.259  43.360   6.793
 3817POPC   C3B48933  43.304  43.295   7.257
 3817POPC   C4B48934  43.297  43.481   7.691
 3818POPC   NC348935  41.072  31.890   5.357
 3818POPC   PO448936  40.735  31.337   5.473
 3818POPC   GL148937  40.906  31.570   5.791
 3818POPC   GL248938  41.070  31.270   5.911
 3818POPC   C1A48939  40.991  31.666   6.234
 3818POPC   D2A48940  41.119  31.619   6.669
 3818POPC   C3A48941  40.867  31.697   7.039
 3818POPC   C4A48942  40.417  31.653   7.107
 3818POPC   C1B48943  40.735  31.221   6.217
 3818POPC   C2B48944  40.630  31.361   6.649
 3818POPC   C3B48945  40.707  31.208   7.067
 3818POPC   C4B48946  40.964  31.184   7.439
 3819POPC   NC348947  27.135   4.621   5.572
 3819POPC   PO448948  27.093   3.919   5.515
 3819POPC   GL148949  26.877   4.136   5.857
 3819POPC   GL248950  27.172   4.258   5.919
 3819POPC   C1A48951  26.638   4.102   6.272
 3819POPC   D2A48952  26.453   3.970   6.673
 3819POPC   C3A48953  26.537   4.217   7.024
 3819POPC   C4A48954  26.649   4.677   7.119
 3819POPC   C1B48955  27.022   4.443   6.272
 3819POPC   C2B48956  26.844   4.467   6.668
 3819POPC   C3B48957  27.039   4.354   7.047
 3819POPC   C4B48958  26.903   4.073   7.336
 3820POPC   NC348959   3.474  31.674   5.539
 3820POPC   PO448960   3.897  31.260   5.153
 3820POPC   GL148961   3.610  31.159   5.675
 3820POPC   GL248962   3.284  31.261   5.806
 3820POPC   C1A48963   3.658  31.278   6.148
 3820POPC   D2A48964   3.485  31.247   6.562
 3820POPC   C3A48965   3.714  31.539   6.819
 3820POPC   C4A48966   3.753  31.500   7.259
 3820POPC   C1B48967   3.189  31.525   6.171
 3820POPC   C2B48968   3.215  31.666   6.585
 3820POPC   C3B48969   3.241  31.438   6.987
 3820POPC   C4B48970   3.294  31.713   7.337
 3821POPC   NC348971  34.860   9.737   5.124
 3821POPC   PO448972  34.307   9.324   5.294
 3821POPC   GL148973  34.433   9.441   5.733
 3821POPC   GL248974  34.544   9.790   5.750
 3821POPC   C1A48975  34.300   9.522   6.185
 3821POPC   D2A48976  34.354   9.357   6.607
 3821POPC   C3A48977  34.725   9.471   6.836
 3821POPC   C4A48978  34.518   9.666   7.130
 3821POPC   C1B48979  34.457  10.018   6.135
 3821POPC   C2B48980  34.534   9.893   6.555
 3821POPC   C3B48981  34.677  10.090   6.915
 3821POPC   C4B48982  34.618  10.127   7.333
 3822POPC   NC348983  35.891  37.863   5.384
 3822POPC   PO448984  35.894  37.171   5.461
 3822POPC   GL148985  36.219  37.405   5.702
 3822POPC   GL248986  36.094  37.735   5.828
 3822POPC   C1A48987  36.487  37.521   6.061
 3822POPC   D2A48988  36.354  37.730   6.439
 3822POPC   C3A48989  36.517  37.622   6.861
 3822POPC   C4A48990  36.349  37.644   7.288
 3822POPC   C1B48991  35.810  37.849   6.165
 3822POPC   C2B48992  35.845  37.949   6.630
 3822POPC   C3B48993  35.893  37.759   7.071
 3822POPC   C4B48994  35.950  37.826   7.564
 3823POPC   NC348995   2.094   3.560   5.447
 3823POPC   PO448996   1.427   3.562   5.502
 3823POPC   GL148997   1.743   3.530   5.847
 3823POPC   GL248998   2.021   3.786   5.903
 3823POPC   C1A48999   1.940   3.460   6.264
 3823POPC   D2A49000   1.759   3.676   6.613
 3823POPC   C3A49001   2.002   3.739   6.965
 3823POPC   C4A49002   2.059   3.392   7.224
 3823POPC   C1B49003   2.080   4.005   6.322
 3823POPC   C2B49004   2.389   4.157   6.644
 3823POPC   C3B49005   2.413   4.079   7.106
 3823POPC   C4B49006   2.222   3.817   7.441
 3824POPC   NC349007  28.937  16.170   5.478
 3824POPC   PO449008  29.419  15.665   5.487
 3824POPC   GL149009  29.251  15.934   5.821
 3824POPC   GL249010  28.878  15.856   5.874
 3824POPC   C1A49011  29.229  15.852   6.257
 3824POPC   D2A49012  29.467  15.695   6.593
 3824POPC   C3A49013  29.334  15.768   7.017
 3824POPC   C4A49014  29.474  15.874   7.425
 3824POPC   C1B49015  28.940  16.266   6.115
 3824POPC   C2B49016  29.103  16.347   6.504
 3824POPC   C3B49017  28.876  16.279   6.878
 3824POPC   C4B49018  28.922  16.002   7.209
 3825POPC   NC349019  13.841  19.426   5.442
 3825POPC   PO449020  13.464  19.925   5.330
 3825POPC   GL149021  13.667  19.926   5.711
 3825POPC   GL249022  13.511  19.650   5.810
 3825POPC   C1A49023  13.700  19.948   6.178
 3825POPC   D2A49024  13.516  19.847   6.576
 3825POPC   C3A49025  13.432  20.143   6.880
 3825POPC   C4A49026  13.495  19.936   7.255
 3825POPC   C1B49027  13.427  19.474   6.231
 3825POPC   C2B49028  13.274  19.398   6.663
 3825POPC   C3B49029  13.473  19.463   7.069
 3825POPC   C4B49030  13.754  19.503   7.453
 3826POPC   NC349031  24.781  41.853   5.493
 3826POPC   PO449032  24.526  42.452   5.259
 3826POPC   GL149033  24.323  42.305   5.649
 3826POPC   GL249034  24.346  42.601   5.888
 3826POPC   C1A49035  24.452  42.182   6.100
 3826POPC   D2A49036  24.405  42.293   6.551
 3826POPC   C3A49037  24.371  41.987   6.890
 3826POPC   C4A49038  24.570  42.100   7.289
 3826POPC   C1B49039  24.132  42.662   6.283
 3826POPC   C2B49040  24.231  42.795   6.714
 3826POPC   C3B49041  24.329  42.494   7.066
 3826POPC   C4B49042  24.241  42.399   7.526
 3827POPC   NC349043   6.956   1.158   5.117
 3827POPC   PO449044   7.502   1.214   5.506
 3827POPC   GL149045   7.414   1.303   5.918
 3827POPC   GL249046   7.114   1.424   5.836
 3827POPC   C1A49047   7.390   1.004   6.270
 3827POPC   D2A49048   7.684   0.801   6.538
 3827POPC   C3A49049   7.541   0.875   6.952
 3827POPC   C4A49050   7.749   0.951   7.349
 3827POPC   C1B49051   6.972   1.345   6.240
 3827POPC   C2B49052   7.246   1.419   6.574
 3827POPC   C3B49053   7.446   1.402   6.961
 3827POPC   C4B49054   7.431   1.323   7.382
 3828POPC   NC349055  42.586  41.322   5.444
 3828POPC   PO449056  42.229  41.837   5.438
 3828POPC   GL149057  42.314  41.733   5.834
 3828POPC   GL249058  42.337  41.381   5.873
 3828POPC   C1A49059  42.474  41.779   6.216
 3828POPC   D2A49060  42.641  41.675   6.602
 3828POPC   C3A49061  42.428  41.821   6.950
 3828POPC   C4A49062  42.428  41.693   7.373
 3828POPC   C1B49063  42.595  41.279   6.215
 3828POPC   C2B49064  42.431  41.193   6.632
 3828POPC   C3B49065  42.567  41.326   7.031
 3828POPC   C4B49066  42.662  41.237   7.474
 3829POPC   NC349067   3.059   1.303   5.376
 3829POPC   PO449068   2.577   0.835   5.471
 3829POPC   GL149069   2.676   1.094   5.800
 3829POPC   GL249070   2.636   1.420   5.634
 3829POPC   C1A49071   2.743   1.027   6.265
 3829POPC   D2A49072   2.531   0.954   6.685
 3829POPC   C3A49073   2.646   1.057   7.130
 3829POPC   C4A49074   2.906   0.985   7.511
 3829POPC   C1B49075   2.533   1.496   6.092
 3829POPC   C2B49076   2.661   1.457   6.525
 3829POPC   C3B49077   2.468   1.483   6.906
 3829POPC   C4B49078   2.613   1.558   7.319
 3830POPC   NC349079   7.635  44.457   5.221
 3830POPC   PO449080   7.206  44.943   5.118
 3830POPC   GL149081   7.487  44.889   5.555
 3830POPC   GL249082   7.219  44.761   5.785
 3830POPC   C1A49083   7.644  44.809   6.066
 3830POPC   D2A49084   7.389  44.614   6.473
 3830POPC   C3A49085   7.450  44.586   6.959
 3830POPC   C4A49086   7.371  44.645   7.440
 3830POPC   C1B49087   7.186  44.993   6.201
 3830POPC   C2B49088   7.148   0.056   6.667
 3830POPC   C3B49089   7.267   0.048   7.108
 3830POPC   C4B49090   7.049   0.225   7.459
 3831POPC   NC349091  10.189  32.562   5.491
 3831POPC   PO449092  10.803  32.214   5.305
 3831POPC   GL149093  10.657  32.296   5.724
 3831POPC   GL249094  10.605  31.931   5.733
 3831POPC   C1A49095  10.701  32.431   6.184
 3831POPC   D2A49096  10.898  32.536   6.572
 3831POPC   C3A49097  10.617  32.352   6.834
 3831POPC   C4A49098  10.617  32.229   7.263
 3831POPC   C1B49099  10.493  31.832   6.146
 3831POPC   C2B49100  10.379  32.009   6.529
 3831POPC   C3B49101  10.529  31.840   6.906
 3831POPC   C4B49102  10.292  31.821   7.270
 3832POPC   NC349103  20.432   4.003   5.435
 3832POPC   PO449104  20.674   4.645   5.544
 3832POPC   GL149105  20.760   4.255   5.807
 3832POPC   GL249106  20.475   4.083   5.939
 3832POPC   C1A49107  20.893   4.072   6.206
 3832POPC   D2A49108  20.644   3.918   6.561
 3832POPC   C3A49109  20.480   4.184   6.919
 3832POPC   C4A49110  20.685   4.317   7.289
 3832POPC   C1B49111  20.473   4.502   6.183
 3832POPC   C2B49112  20.527   4.716   6.601
 3832POPC   C3B49113  20.471   4.709   7.066
 3832POPC   C4B49114  20.540   4.747   7.535
 3833POPC   NC349115  21.271  17.844   5.249
 3833POPC   PO449116  21.170  17.268   5.534
 3833POPC   GL149117  21.329  17.336   5.889
 3833POPC   GL249118  21.671  17.221   5.919
 3833POPC   C1A49119  21.340  17.488   6.275
 3833POPC   D2A49120  21.183  17.674   6.601
 3833POPC   C3A49121  21.508  17.664   6.857
 3833POPC   C4A49122  21.589  17.646   7.286
 3833POPC   C1B49123  21.534  17.011   6.302
 3833POPC   C2B49124  21.775  16.927   6.695
 3833POPC   C3B49125  21.782  16.869   7.143
 3833POPC   C4B49126  21.584  17.096   7.535
 3834POPC   NC349127  20.186  18.843   5.507
 3834POPC   PO449128  20.781  19.218   5.497
 3834POPC   GL149129  20.487  19.180   5.818
 3834POPC   GL249130  20.477  18.862   5.916
 3834POPC   C1A49131  20.540  19.243   6.262
 3834POPC   D2A49132  20.862  19.181   6.594
 3834POPC   C3A49133  20.712  19.375   6.984
 3834POPC   C4A49134  20.891  19.308   7.427
 3834POPC   C1B49135  20.780  18.781   6.214
 3834POPC   C2B49136  21.020  18.640   6.549
 3834POPC   C3B49137  20.818  18.692   6.908
 3834POPC   C4B49138  20.617  18.943   7.200
 3835POPC   NC349139  40.686  34.499   5.367
 3835POPC   PO449140  40.852  35.121   5.345
 3835POPC   GL149141  40.828  34.850   5.758
 3835POPC   GL249142  40.664  34.504   5.875
 3835POPC   C1A49143  40.707  34.922   6.216
 3835POPC   D2A49144  40.626  34.768   6.662
 3835POPC   C3A49145  40.952  34.710   6.973
 3835POPC   C4A49146  40.923  34.583   7.422
 3835POPC   C1B49147  40.480  34.249   6.242
 3835POPC   C2B49148  40.538  34.166   6.714
 3835POPC   C3B49149  40.524  34.442   7.084
 3835POPC   C4B49150  40.511  34.866   7.253
 3836POPC   NC349151  37.689  42.343   5.248
 3836POPC   PO449152  37.245  42.792   5.535
 3836POPC   GL149153  37.460  42.579   5.873
 3836POPC   GL249154  37.686  42.313   5.762
 3836POPC   C1A49155  37.349  42.282   6.234
 3836POPC   D2A49156  37.292  42.068   6.671
 3836POPC   C3A49157  37.569  42.263   6.968
 3836POPC   C4A49158  37.491  42.614   7.223
 3836POPC   C1B49159  37.810  42.017   6.109
 3836POPC   C2B49160  37.791  42.119   6.523
 3836POPC   C3B49161  37.961  41.938   6.894
 3836POPC   C4B49162  37.840  41.965   7.317
 3837POPC   NC349163  37.003  24.156   5.079
 3837POPC   PO449164  36.833  24.626   5.531
 3837POPC   GL149165  36.779  24.557   5.950
 3837POPC   GL249166  37.084  24.583   6.123
 3837POPC   C1A49167  36.612  24.776   6.322
 3837POPC   D2A49168  36.645  24.998   6.753
 3837POPC   C3A49169  36.672  24.685   7.120
 3837POPC   C4A49170  36.792  24.686   7.594
 3837POPC   C1B49171  37.401  24.293   6.265
 3837POPC   C2B49172  37.399  24.077   6.642
 3837POPC   C3B49173  37.350  24.213   7.052
 3837POPC   C4B49174  36.981  24.300   7.302
 3838POPC   NC349175  28.894  43.376   5.529
 3838POPC   PO449176  29.284  42.871   5.419
 3838POPC   GL149177  29.179  43.052   5.793
 3838POPC   GL249178  28.828  42.893   5.778
 3838POPC   C1A49179  29.334  43.224   6.184
 3838POPC   D2A49180  29.262  43.041   6.614
 3838POPC   C3A49181  29.468  43.178   7.002
 3838POPC   C4A49182  29.387  43.237   7.446
 3838POPC   C1B49183  29.025  42.707   6.154
 3838POPC   C2B49184  28.964  42.599   6.598
 3838POPC   C3B49185  28.941  42.767   7.032
 3838POPC   C4B49186  28.940  43.174   7.179
 3839POPC   NC349187  36.720  19.623   5.440
 3839POPC   PO449188  37.277  19.991   5.521
 3839POPC   GL149189  37.116  19.746   5.821
 3839POPC   GL249190  36.813  19.913   5.846
 3839POPC   C1A49191  37.149  19.857   6.253
 3839POPC   D2A49192  37.209  19.988   6.649
 3839POPC   C3A49193  37.086  19.701   6.939
 3839POPC   C4A49194  37.058  19.917   7.283
 3839POPC   C1B49195  36.728  19.591   6.163
 3839POPC   C2B49196  36.717  19.734   6.577
 3839POPC   C3B49197  36.599  19.909   6.965
 3839POPC   C4B49198  36.605  19.757   7.391
 3840POPC   NC349199  14.956  28.541   5.363
 3840POPC   PO449200  15.322  28.030   5.275
 3840POPC   GL149201  15.383  28.248   5.653
 3840POPC   GL249202  15.044  28.295   5.819
 3840POPC   C1A49203  15.483  28.301   6.093
 3840POPC   D2A49204  15.234  28.351   6.427
 3840POPC   C3A49205  15.376  28.348   6.809
 3840POPC   C4A49206  15.439  28.310   7.219
 3840POPC   C1B49207  14.788  28.237   6.207
 3840POPC   C2B49208  14.776  28.317   6.660
 3840POPC   C3B49209  14.935  28.232   7.069
 3840POPC   C4B49210  14.859  28.340   7.495
 3841POPC   NC349211  41.403  36.830   5.650
 3841POPC   PO449212  41.966  36.507   5.661
 3841POPC   GL149213  41.800  36.783   5.972
 3841POPC   GL249214  41.753  37.152   5.915
 3841POPC   C1A49215  41.649  36.903   6.363
 3841POPC   D2A49216  41.730  37.061   6.759
 3841POPC   C3A49217  41.479  36.811   7.039
 3841POPC   C4A49218  41.541  36.566   7.418
 3841POPC   C1B49219  41.510  37.362   6.230
 3841POPC   C2B49220  41.257  37.251   6.626
 3841POPC   C3B49221  41.341  37.294   7.067
 3841POPC   C4B49222  41.735  37.169   7.266
 3842POPC   NC349223  10.514  24.790   5.506
 3842POPC   PO449224  10.769  24.108   5.459
 3842POPC   GL149225  10.422  24.268   5.753
 3842POPC   GL249226  10.653  24.467   5.892
 3842POPC   C1A49227  10.195  24.441   6.172
 3842POPC   D2A49228  10.261  24.666   6.611
 3842POPC   C3A49229  10.290  24.417   7.015
 3842POPC   C4A49230  10.673  24.256   7.241
 3842POPC   C1B49231  10.861  24.804   6.098
 3842POPC   C2B49232  10.820  24.868   6.517
 3842POPC   C3B49233  10.799  24.665   6.917
 3842POPC   C4B49234  10.562  24.784   7.269
 3843POPC   NC349235  13.117   1.979   5.385
 3843POPC   PO449236  12.473   1.853   5.459
 3843POPC   GL149237  12.782   2.011   5.795
 3843POPC   GL249238  13.116   2.201   5.864
 3843POPC   C1A49239  13.018   1.790   6.143
 3843POPC   D2A49240  12.880   1.519   6.478
 3843POPC   C3A49241  12.966   1.631   6.898
 3843POPC   C4A49242  12.725   1.881   7.170
 3843POPC   C1B49243  13.406   2.141   6.210
 3843POPC   C2B49244  13.341   2.002   6.634
 3843POPC   C3B49245  13.105   2.206   6.977
 3843POPC   C4B49246  13.060   2.175   7.417
 3844POPC   NC349247  44.245  19.154   5.357
 3844POPC   PO449248  43.745  18.684   5.196
 3844POPC   GL149249  43.814  18.883   5.620
 3844POPC   GL249250  43.893  19.245   5.731
 3844POPC   C1A49251  43.837  18.885   6.097
 3844POPC   D2A49252  44.093  18.868   6.492
 3844POPC   C3A49253  43.965  19.116   6.841
 3844POPC   C4A49254  43.743  19.026   7.221
 3844POPC   C1B49255  44.201  19.337   6.086
 3844POPC   C2B49256  44.247  19.465   6.525
 3844POPC   C3B49257  44.440  19.358   6.900
 3844POPC   C4B49258  44.217  19.308   7.243
 3845POPC   NC349259  37.685  17.997   5.260
 3845POPC   PO449260  37.183  18.505   5.441
 3845POPC   GL149261  37.544  18.325   5.701
 3845POPC   GL249262  37.594  17.948   5.786
 3845POPC   C1A49263  37.672  18.423   6.135
 3845POPC   D2A49264  37.408  18.450   6.526
 3845POPC   C3A49265  37.536  18.466   6.968
 3845POPC   C4A49266  37.495  18.478   7.425
 3845POPC   C1B49267  37.771  17.926   6.238
 3845POPC   C2B49268  37.759  18.050   6.704
 3845POPC   C3B49269  37.819  18.091   7.183
 3845POPC   C4B49270  37.946  18.139   7.638
 3846POPC   NC349271  32.370  42.158   5.504
 3846POPC   PO449272  32.007  42.627   5.334
 3846POPC   GL149273  32.128  42.487   5.798
 3846POPC   GL249274  32.429  42.225   5.990
 3846POPC   C1A49275  31.954  42.265   6.124
 3846POPC   D2A49276  31.866  42.408   6.492
 3846POPC   C3A49277  32.157  42.451   6.820
 3846POPC   C4A49278  32.201  42.340   7.243
 3846POPC   C1B49279  32.353  42.527   6.294
 3846POPC   C2B49280  32.633  42.628   6.603
 3846POPC   C3B49281  32.708  42.797   6.965
 3846POPC   C4B49282  32.368  42.807   7.202
 3847POPC   NC349283  34.179   3.337   5.119
 3847POPC   PO449284  33.770   2.874   5.447
 3847POPC   GL149285  33.808   2.816   5.868
 3847POPC   GL249286  34.148   2.820   5.954
 3847POPC   C1A49287  33.875   2.565   6.257
 3847POPC   D2A49288  33.826   2.690   6.643
 3847POPC   C3A49289  34.080   2.846   6.958
 3847POPC   C4A49290  34.033   2.712   7.354
 3847POPC   C1B49291  33.908   3.077   6.270
 3847POPC   C2B49292  34.030   3.235   6.608
 3847POPC   C3B49293  33.825   3.299   6.946
 3847POPC   C4B49294  33.947   3.211   7.320
 3848POPC   NC349295  10.149   2.226   5.399
 3848POPC   PO449296  10.737   1.878   5.237
 3848POPC   GL149297  10.532   1.957   5.669
 3848POPC   GL249298  10.752   2.114   5.906
 3848POPC   C1A49299  10.459   1.707   6.078
 3848POPC   D2A49300  10.576   1.879   6.490
 3848POPC   C3A49301  10.467   1.819   6.923
 3848POPC   C4A49302  10.681   2.038   7.280
 3848POPC   C1B49303  10.301   2.185   6.087
 3848POPC   C2B49304  10.210   2.250   6.528
 3848POPC   C3B49305  10.401   2.349   6.913
 3848POPC   C4B49306  10.255   2.354   7.342
 3849POPC   NC349307  33.045  31.788   5.424
 3849POPC   PO449308  32.619  31.205   5.374
 3849POPC   GL149309  32.862  31.382   5.718
 3849POPC   GL249310  32.603  31.636   5.698
 3849POPC   C1A49311  33.139  31.418   6.122
 3849POPC   D2A49312  33.224  31.292   6.573
 3849POPC   C3A49313  33.163  31.540   6.954
 3849POPC   C4A49314  33.211  31.418   7.383
 3849POPC   C1B49315  32.672  31.602   6.137
 3849POPC   C2B49316  32.849  31.667   6.549
 3849POPC   C3B49317  32.652  31.603   6.945
 3849POPC   C4B49318  32.730  31.610   7.371
 3850POPC   NC349319  35.157   3.596   5.036
 3850POPC   PO449320  35.468   3.216   5.513
 3850POPC   GL149321  35.375   3.304   5.927
 3850POPC   GL249322  35.175   3.604   6.010
 3850POPC   C1A49323  35.346   3.278   6.359
 3850POPC   D2A49324  35.493   3.531   6.700
 3850POPC   C3A49325  35.335   3.390   7.083
 3850POPC   C4A49326  35.124   3.608   7.389
 3850POPC   C1B49327  35.474   3.788   6.244
 3850POPC   C2B49328  35.512   4.049   6.581
 3850POPC   C3B49329  35.688   3.962   6.949
 3850POPC   C4B49330  35.608   3.809   7.333
 3851POPC   NC349331  14.663  23.854   5.168
 3851POPC   PO449332  14.254  23.472   5.576
 3851POPC   GL149333  14.380  23.724   5.884
 3851POPC   GL249334  14.615  23.919   5.717
 3851POPC   C1A49335  14.462  23.570   6.294
 3851POPC   D2A49336  14.637  23.539   6.679
 3851POPC   C3A49337  14.299  23.643   6.946
 3851POPC   C4A49338  14.416  23.642   7.346
 3851POPC   C1B49339  14.717  24.023   6.151
 3851POPC   C2B49340  14.615  24.047   6.595
 3851POPC   C3B49341  14.682  23.962   7.030
 3851POPC   C4B49342  14.731  24.045   7.483
 3852POPC   NC349343  24.268  24.562   5.388
 3852POPC   PO449344  24.887  24.418   5.622
 3852POPC   GL149345  24.451  24.437   5.853
 3852POPC   GL249346  24.277  24.142   5.752
 3852POPC   C1A49347  24.241  24.561   6.266
 3852POPC   D2A49348  24.454  24.803   6.590
 3852POPC   C3A49349  24.602  24.605   6.968
 3852POPC   C4A49350  24.617  24.743   7.406
 3852POPC   C1B49351  24.309  24.042   6.223
 3852POPC   C2B49352  24.369  24.182   6.690
 3852POPC   C3B49353  24.611  24.110   7.094
 3852POPC   C4B49354  24.531  24.286   7.559
 3853POPC   NC349355   1.824   8.312   5.594
 3853POPC   PO449356   2.370   8.599   5.430
 3853POPC   GL149357   2.207   8.432   5.889
 3853POPC   GL249358   2.083   8.050   5.967
 3853POPC   C1A49359   1.976   8.390   6.306
 3853POPC   D2A49360   2.015   8.211   6.745
 3853POPC   C3A49361   1.882   8.532   7.106
 3853POPC   C4A49362   1.733   8.636   7.542
 3853POPC   C1B49363   1.758   7.913   6.295
 3853POPC   C2B49364   1.590   7.919   6.744
 3853POPC   C3B49365   1.753   8.047   7.138
 3853POPC   C4B49366   2.167   8.001   7.239
 3854POPC   NC349367  33.028  17.613   5.148
 3854POPC   PO449368  33.220  17.030   5.460
 3854POPC   GL149369  33.295  17.325   5.801
 3854POPC   GL249370  33.060  17.602   5.818
 3854POPC   C1A49371  33.173  17.316   6.243
 3854POPC   D2A49372  33.101  17.572   6.606
 3854POPC   C3A49373  33.138  17.331   6.985
 3854POPC   C4A49374  32.843  17.161   7.264
 3854POPC   C1B49375  32.791  17.673   6.158
 3854POPC   C2B49376  32.608  17.698   6.538
 3854POPC   C3B49377  32.606  17.453   6.901
 3854POPC   C4B49378  32.815  17.666   7.227
 3855POPC   NC349379   0.413  36.912   5.269
 3855POPC   PO449380   0.121  36.422   5.472
 3855POPC   GL149381   0.423  36.633   5.728
 3855POPC   GL249382   0.432  37.037   5.755
 3855POPC   C1A49383   0.281  36.761   6.141
 3855POPC   D2A49384   0.378  37.036   6.480
 3855POPC   C3A49385   0.256  36.944   6.874
 3855POPC   C4A49386   0.496  36.748   7.174
 3855POPC   C1B49387   0.708  37.175   6.099
 3855POPC   C2B49388   0.817  37.312   6.547
 3855POPC   C3B49389   0.765  37.101   6.924
 3855POPC   C4B49390   0.970  36.948   7.280
 3856POPC   NC349391  19.330  14.793   5.079
 3856POPC   PO449392  18.955  15.362   5.173
 3856POPC   GL149393  18.995  15.273   5.685
 3856POPC   GL249394  19.267  15.015   5.721
 3856POPC   C1A49395  19.256  15.396   6.121
 3856POPC   D2A49396  19.507  15.246   6.531
 3856POPC   C3A49397  19.350  15.303   6.976
 3856POPC   C4A49398  18.989  15.546   7.133
 3856POPC   C1B49399  19.074  14.928   6.125
 3856POPC   C2B49400  19.078  14.919   6.574
 3856POPC   C3B49401  18.944  14.977   6.989
 3856POPC   C4B49402  19.212  14.909   7.344
 3857POPC   NC349403  25.853  36.182   5.508
 3857POPC   PO449404  26.386  35.729   5.574
 3857POPC   GL149405  26.096  35.910   5.882
 3857POPC   GL249406  25.752  35.790   5.840
 3857POPC   C1A49407  26.010  36.050   6.330
 3857POPC   D2A49408  25.954  36.401   6.653
 3857POPC   C3A49409  26.297  36.490   6.947
 3857POPC   C4A49410  26.407  36.075   7.198
 3857POPC   C1B49411  25.520  35.901   6.189
 3857POPC   C2B49412  25.565  35.980   6.618
 3857POPC   C3B49413  25.894  35.962   6.921
 3857POPC   C4B49414  25.912  36.295   7.173
 3858POPC   NC349415  24.115  28.146   5.504
 3858POPC   PO449416  24.752  28.431   5.374
 3858POPC   GL149417  24.700  28.516   5.803
 3858POPC   GL249418  24.362  28.587   5.888
 3858POPC   C1A49419  24.792  28.661   6.198
 3858POPC   D2A49420  24.692  28.630   6.639
 3858POPC   C3A49421  24.422  28.324   6.845
 3858POPC   C4A49422  24.479  28.447   7.253
 3858POPC   C1B49423  24.384  28.359   6.286
 3858POPC   C2B49424  24.145  28.040   6.497
 3858POPC   C3B49425  24.053  27.936   6.909
 3858POPC   C4B49426  24.049  28.176   7.273
 3859POPC   NC349427  30.403  37.106   5.555
 3859POPC   PO449428  30.856  36.843   5.195
 3859POPC   GL149429  30.952  36.678   5.662
 3859POPC   GL249430  30.778  36.912   5.890
 3859POPC   C1A49431  30.919  36.477   6.122
 3859POPC   D2A49432  30.844  36.721   6.530
 3859POPC   C3A49433  30.703  36.580   6.955
 3859POPC   C4A49434  30.450  36.628   7.327
 3859POPC   C1B49435  30.424  36.940   6.223
 3859POPC   C2B49436  30.370  37.114   6.651
 3859POPC   C3B49437  30.566  37.078   7.074
 3859POPC   C4B49438  30.388  37.099   7.522
 3860POPC   NC349439   2.043  17.321   5.121
 3860POPC   PO449440   1.783  17.628   5.682
 3860POPC   GL149441   1.829  17.379   6.048
 3860POPC   GL249442   2.131  17.228   5.884
 3860POPC   C1A49443   1.683  17.545   6.460
 3860POPC   D2A49444   1.710  17.948   6.695
 3860POPC   C3A49445   1.926  17.753   7.028
 3860POPC   C4A49446   1.824  17.325   7.129
 3860POPC   C1B49447   2.310  17.299   6.308
 3860POPC   C2B49448   2.240  17.423   6.750
 3860POPC   C3B49449   2.313  17.380   7.192
 3860POPC   C4B49450   2.370  17.266   7.632
 3861POPC   NC349451  14.095  27.222   5.512
 3861POPC   PO449452  14.773  27.363   5.444
 3861POPC   GL149453  14.475  27.504   5.750
 3861POPC   GL249454  14.441  27.161   5.893
 3861POPC   C1A49455  14.455  27.831   6.085
 3861POPC   D2A49456  14.683  27.809   6.477
 3861POPC   C3A49457  14.513  27.916   6.869
 3861POPC   C4A49458  14.260  27.746   7.190
 3861POPC   C1B49459  14.210  27.407   6.207
 3861POPC   C2B49460  14.286  27.467   6.656
 3861POPC   C3B49461  14.345  27.243   7.052
 3861POPC   C4B49462  14.249  27.184   7.488
 3862POPC   NC349463  18.321  40.906   5.307
 3862POPC   PO449464  18.034  40.288   5.435
 3862POPC   GL149465  18.251  40.553   5.760
 3862POPC   GL249466  18.161  40.912   5.815
 3862POPC   C1A49467  18.193  40.502   6.214
 3862POPC   D2A49468  17.810  40.537   6.474
 3862POPC   C3A49469  17.882  40.674   6.890
 3862POPC   C4A49470  18.248  40.674   7.154
 3862POPC   C1B49471  18.542  40.865   6.103
 3862POPC   C2B49472  18.547  40.702   6.551
 3862POPC   C3B49473  18.668  40.886   6.938
 3862POPC   C4B49474  18.446  41.114   7.266
 3863POPC   NC349475  17.940  15.915   5.369
 3863POPC   PO449476  17.359  16.210   5.347
 3863POPC   GL149477  17.297  16.023   5.768
 3863POPC   GL249478  17.230  16.360   5.838
 3863POPC   C1A49479  17.459  15.772   6.163
 3863POPC   D2A49480  17.719  15.462   6.438
 3863POPC   C3A49481  17.763  15.625   6.865
 3863POPC   C4A49482  17.542  15.832   7.195
 3863POPC   C1B49483  17.617  16.272   6.094
 3863POPC   C2B49484  17.560  16.244   6.550
 3863POPC   C3B49485  17.713  16.274   6.983
 3863POPC   C4B49486  17.759  16.220   7.432
 3864POPC   NC349487  17.722   4.882   5.215
 3864POPC   PO449488  17.327   4.377   5.480
 3864POPC   GL149489  17.676   4.330   5.794
 3864POPC   GL249490  17.892   4.636   5.865
 3864POPC   C1A49491  17.566   4.166   6.203
 3864POPC   D2A49492  17.344   4.285   6.567
 3864POPC   C3A49493  17.506   4.118   6.945
 3864POPC   C4A49494  17.374   4.161   7.355
 3864POPC   C1B49495  17.728   4.677   6.300
 3864POPC   C2B49496  17.788   4.777   6.756
 3864POPC   C3B49497  17.511   4.613   7.109
 3864POPC   C4B49498  17.715   4.565   7.526
 3865POPC   NC349499  32.426   1.422   5.366
 3865POPC   PO449500  32.730   0.753   5.560
 3865POPC   GL149501  32.327   1.047   5.739
 3865POPC   GL249502  32.359   1.438   5.861
 3865POPC   C1A49503  32.075   1.166   6.149
 3865POPC   D2A49504  32.322   1.174   6.526
 3865POPC   C3A49505  32.223   0.943   6.875
 3865POPC   C4A49506  31.932   1.024   7.220
 3865POPC   C1B49507  32.642   1.446   6.224
 3865POPC   C2B49508  32.587   1.600   6.653
 3865POPC   C3B49509  32.381   1.461   7.020
 3865POPC   C4B49510  32.621   1.537   7.421
 3866POPC   NC349511  33.180  39.341   5.147
 3866POPC   PO449512  32.955  38.784   5.356
 3866POPC   GL149513  33.101  39.100   5.684
 3866POPC   GL249514  33.110  39.486   5.674
 3866POPC   C1A49515  33.034  39.207   6.123
 3866POPC   D2A49516  32.951  38.975   6.497
 3866POPC   C3A49517  33.143  39.183   6.848
 3866POPC   C4A49518  32.929  39.316   7.212
 3866POPC   C1B49519  33.337  39.625   6.077
 3866POPC   C2B49520  33.432  39.523   6.541
 3866POPC   C3B49521  33.332  39.667   6.986
 3866POPC   C4B49522  33.200  39.658   7.466
 3867POPC   NC349523  41.708  19.066   5.356
 3867POPC   PO449524  41.193  19.398   5.177
 3867POPC   GL149525  41.368  19.074   5.710
 3867POPC   GL249526  41.765  18.951   5.828
 3867POPC   C1A49527  41.396  18.830   6.141
 3867POPC   D2A49528  41.590  18.779   6.564
 3867POPC   C3A49529  41.453  18.875   6.999
 3867POPC   C4A49530  41.478  19.264   7.237
 3867POPC   C1B49531  41.814  19.235   6.172
 3867POPC   C2B49532  41.750  19.290   6.612
 3867POPC   C3B49533  41.922  19.151   7.002
 3867POPC   C4B49534  42.017  19.322   7.407
 3868POPC   NC349535  39.113  38.721   5.409
 3868POPC   PO449536  39.200  38.111   5.435
 3868POPC   GL149537  39.145  38.276   5.834
 3868POPC   GL249538  39.377  38.553   5.815
 3868POPC   C1A49539  39.264  38.344   6.274
 3868POPC   D2A49540  39.063  38.279   6.673
 3868POPC   C3A49541  39.369  38.455   6.953
 3868POPC   C4A49542  39.418  38.340   7.391
 3868POPC   C1B49543  39.013  38.726   6.059
 3868POPC   C2B49544  39.096  38.782   6.503
 3868POPC   C3B49545  38.934  38.737   6.897
 3868POPC   C4B49546  39.109  38.723   7.287
 3869POPC   NC349547  23.485  14.909   5.288
 3869POPC   PO449548  23.877  15.640   5.502
 3869POPC   GL149549  23.731  15.412   5.903
 3869POPC   GL249550  23.693  15.015   5.900
 3869POPC   C1A49551  23.777  15.338   6.336
 3869POPC   D2A49552  23.612  15.206   6.722
 3869POPC   C3A49553  23.878  15.213   7.084
 3869POPC   C4A49554  23.797  15.512   7.447
 3869POPC   C1B49555  23.369  14.796   6.146
 3869POPC   C2B49556  23.284  14.813   6.598
 3869POPC   C3B49557  23.480  14.835   7.041
 3869POPC   C4B49558  23.349  14.927   7.466
 3870POPC   NC349559  40.900  16.444   5.243
 3870POPC   PO449560  40.881  17.041   5.466
 3870POPC   GL149561  40.694  16.832   5.842
 3870POPC   GL249562  40.710  16.474   5.731
 3870POPC   C1A49563  40.741  16.820   6.321
 3870POPC   D2A49564  40.541  16.853   6.727
 3870POPC   C3A49565  40.753  16.873   7.141
 3870POPC   C4A49566  41.082  16.698   7.411
 3870POPC   C1B49567  40.568  16.366   6.153
 3870POPC   C2B49568  40.413  16.381   6.578
 3870POPC   C3B49569  40.448  16.454   7.036
 3870POPC   C4B49570  40.426  16.124   7.343
 3871POPC   NC349571  35.580   1.709   5.491
 3871POPC   PO449572  35.177   2.286   5.285
 3871POPC   GL149573  35.302   2.131   5.755
 3871POPC   GL249574  35.363   1.792   5.941
 3871POPC   C1A49575  35.227   2.172   6.234
 3871POPC   D2A49576  35.322   2.058   6.657
 3871POPC   C3A49577  35.219   1.924   7.054
 3871POPC   C4A49578  35.224   2.285   7.363
 3871POPC   C1B49579  35.589   1.736   6.347
 3871POPC   C2B49580  35.653   1.689   6.781
 3871POPC   C3B49581  35.588   1.525   7.155
 3871POPC   C4B49582  35.481   1.772   7.487
 3872POPC   NC349583  18.619   8.095   5.258
 3872POPC   PO449584  19.260   8.081   5.358
 3872POPC   GL149585  19.226   8.049   5.816
 3872POPC   GL249586  19.190   8.423   5.862
 3872POPC   C1A49587  19.034   7.900   6.257
 3872POPC   D2A49588  18.963   8.221   6.625
 3872POPC   C3A49589  18.955   8.327   7.109
 3872POPC   C4A49590  18.888   8.163   7.561
 3872POPC   C1B49591  19.351   8.293   6.258
 3872POPC   C2B49592  19.446   7.981   6.550
 3872POPC   C3B49593  19.400   8.167   6.916
 3872POPC   C4B49594  19.450   8.257   7.335
 3873POPC   NC349595  20.237  30.332   5.551
 3873POPC   PO449596  20.906  30.333   5.493
 3873POPC   GL149597  20.771  30.568   5.861
 3873POPC   GL249598  20.429  30.580   5.953
 3873POPC   C1A49599  20.756  30.871   6.189
 3873POPC   D2A49600  20.687  30.633   6.514
 3873POPC   C3A49601  20.888  30.758   6.829
 3873POPC   C4A49602  20.796  30.642   7.224
 3873POPC   C1B49603  20.207  30.687   6.313
 3873POPC   C2B49604  20.249  30.760   6.762
 3873POPC   C3B49605  20.256  30.606   7.180
 3873POPC   C4B49606  20.422  30.796   7.536
 3874POPC   NC349607  18.080   1.585   5.536
 3874POPC   PO449608  18.026   2.241   5.431
 3874POPC   GL149609  18.269   2.067   5.821
 3874POPC   GL249610  18.349   1.684   5.946
 3874POPC   C1A49611  18.402   2.067   6.271
 3874POPC   D2A49612  18.222   1.786   6.575
 3874POPC   C3A49613  18.292   1.925   6.953
 3874POPC   C4A49614  18.384   2.345   7.124
 3874POPC   C1B49615  17.931   1.726   6.164
 3874POPC   C2B49616  17.779   1.538   6.556
 3874POPC   C3B49617  17.842   1.675   6.974
 3874POPC   C4B49618  18.025   1.688   7.387
 3875POPC   NC349619  21.079  19.124   5.157
 3875POPC   PO449620  21.570  19.050   5.630
 3875POPC   GL149621  21.250  19.319   5.729
 3875POPC   GL249622  20.981  19.191   5.974
 3875POPC   C1A49623  21.339  19.539   6.094
 3875POPC   D2A49624  21.302  19.459   6.543
 3875POPC   C3A49625  21.219  19.382   6.971
 3875POPC   C4A49626  21.381  19.399   7.372
 3875POPC   C1B49627  21.260  19.024   6.273
 3875POPC   C2B49628  21.392  18.981   6.698
 3875POPC   C3B49629  21.526  18.967   7.118
 3875POPC   C4B49630  21.133  18.926   7.239
 3876POPC   NC349631  36.883  30.376   5.515
 3876POPC   PO449632  37.075  30.884   5.246
 3876POPC   GL149633  37.026  30.865   5.731
 3876POPC   GL249634  37.221  30.621   5.905
 3876POPC   C1A49635  36.903  30.882   6.213
 3876POPC   D2A49636  36.726  30.653   6.599
 3876POPC   C3A49637  36.801  30.824   7.015
 3876POPC   C4A49638  37.171  30.907   7.276
 3876POPC   C1B49639  37.150  30.445   6.304
 3876POPC   C2B49640  37.396  30.450   6.679
 3876POPC   C3B49641  37.304  30.380   7.084
 3876POPC   C4B49642  36.885  30.318   7.163
 3877POPC   NC349643  34.233  34.865   5.093
 3877POPC   PO449644  33.704  35.363   5.248
 3877POPC   GL149645  33.905  35.352   5.700
 3877POPC   GL249646  33.981  35.001   5.720
 3877POPC   C1A49647  33.736  35.478   6.151
 3877POPC   D2A49648  33.496  35.659   6.517
 3877POPC   C3A49649  33.674  35.583   6.928
 3877POPC   C4A49650  33.979  35.582   7.256
 3877POPC   C1B49651  33.935  35.015   6.201
 3877POPC   C2B49652  33.780  35.176   6.622
 3877POPC   C3B49653  33.863  35.110   7.083
 3877POPC   C4B49654  34.101  34.959   7.535
 3878POPC   NC349655  13.242  24.451   5.466
 3878POPC   PO449656  12.705  24.792   5.204
 3878POPC   GL149657  12.789  24.696   5.671
 3878POPC   GL249658  12.832  24.320   5.751
 3878POPC   C1A49659  12.984  24.614   6.120
 3878POPC   D2A49660  13.080  24.376   6.520
 3878POPC   C3A49661  12.767  24.392   6.842
 3878POPC   C4A49662  12.808  24.684   7.153
 3878POPC   C1B49663  12.802  24.096   6.186
 3878POPC   C2B49664  12.858  23.913   6.624
 3878POPC   C3B49665  13.119  24.024   6.991
 3878POPC   C4B49666  12.904  24.214   7.335
 3879POPC   NC349667  38.131   8.751   5.541
 3879POPC   PO449668  38.348   9.399   5.406
 3879POPC   GL149669  38.431   9.128   5.793
 3879POPC   GL249670  38.771   9.026   5.839
 3879POPC   C1A49671  38.460   8.831   6.196
 3879POPC   D2A49672  38.612   8.799   6.656
 3879POPC   C3A49673  38.445   9.025   7.063
 3879POPC   C4A49674  38.116   8.843   7.368
 3879POPC   C1B49675  38.941   8.996   6.276
 3879POPC   C2B49676  39.140   8.693   6.593
 3879POPC   C3B49677  39.367   8.692   7.000
 3879POPC   C4B49678  39.317   8.818   7.455
 3880POPC   NC349679  10.007  34.941   5.417
 3880POPC   PO449680   9.884  35.618   5.484
 3880POPC   GL149681   9.756  35.585   5.859
 3880POPC   GL249682   9.722  35.196   5.841
 3880POPC   C1A49683   9.601  35.485   6.243
 3880POPC   D2A49684   9.808  35.300   6.555
 3880POPC   C3A49685   9.632  35.449   6.914
 3880POPC   C4A49686   9.454  35.432   7.289
 3880POPC   C1B49687  10.049  35.017   6.144
 3880POPC   C2B49688  10.301  35.062   6.501
 3880POPC   C3B49689  10.124  35.112   6.907
 3880POPC   C4B49690   9.784  35.001   7.107
 3881POPC   NC349691  41.446  34.123   5.337
 3881POPC   PO449692  41.268  33.500   5.502
 3881POPC   GL149693  41.537  33.730   5.844
 3881POPC   GL249694  41.616  34.125   5.818
 3881POPC   C1A49695  41.567  33.732   6.330
 3881POPC   D2A49696  41.876  33.697   6.690
 3881POPC   C3A49697  41.697  33.794   7.121
 3881POPC   C4A49698  41.308  33.861   7.396
 3881POPC   C1B49699  41.730  34.220   6.247
 3881POPC   C2B49700  41.667  34.172   6.689
 3881POPC   C3B49701  41.855  34.311   7.064
 3881POPC   C4B49702  41.744  34.182   7.468
 3882POPC   NC349703  36.982  44.255   5.537
 3882POPC   PO449704  36.606  44.838   5.399
 3882POPC   GL149705  36.757  44.800   5.819
 3882POPC   GL249706  36.973  44.533   5.942
 3882POPC   C1A49707  36.885  44.929   6.250
 3882POPC   D2A49708  36.946  44.773   6.669
 3882POPC   C3A49709  36.602  44.598   6.898
 3882POPC   C4A49710  36.649  44.627   7.332
 3882POPC   C1B49711  37.125  44.420   6.334
 3882POPC   C2B49712  37.328  44.433   6.727
 3882POPC   C3B49713  37.053  44.448   7.088
 3882POPC   C4B49714  37.053  44.390   7.537
 3883POPC   NC349715  34.832  22.579   5.449
 3883POPC   PO449716  34.489  21.994   5.547
 3883POPC   GL149717  34.409  22.153   5.950
 3883POPC   GL249718  34.418  22.510   5.891
 3883POPC   C1A49719  34.684  22.318   6.298
 3883POPC   D2A49720  34.704  22.471   6.727
 3883POPC   C3A49721  34.638  22.096   7.002
 3883POPC   C4A49722  34.813  21.896   7.369
 3883POPC   C1B49723  34.160  22.472   6.276
 3883POPC   C2B49724  34.190  22.465   6.739
 3883POPC   C3B49725  34.266  22.389   7.197
 3883POPC   C4B49726  34.190  22.361   7.680
 3884POPC   NC349727  32.448  32.488   5.504
 3884POPC   PO449728  31.799  32.523   5.208
 3884POPC   GL149729  31.987  32.177   5.613
 3884POPC   GL249730  32.329  32.068   5.772
 3884POPC   C1A49731  32.010  32.200   6.123
 3884POPC   D2A49732  32.245  32.461   6.457
 3884POPC   C3A49733  32.093  32.485   6.887
 3884POPC   C4A49734  32.054  32.192   7.222
 3884POPC   C1B49735  32.517  32.079   6.222
 3884POPC   C2B49736  32.512  32.046   6.690
 3884POPC   C3B49737  32.552  32.081   7.153
 3884POPC   C4B49738  32.430  31.973   7.604
 3885POPC   NC349739  35.199  11.835   5.378
 3885POPC   PO449740  35.555  12.352   5.232
 3885POPC   GL149741  35.453  12.259   5.690
 3885POPC   GL249742  35.093  12.157   5.802
 3885POPC   C1A49743  35.495  12.402   6.124
 3885POPC   D2A49744  35.313  12.196   6.485
 3885POPC   C3A49745  35.550  12.223   6.859
 3885POPC   C4A49746  35.424  12.235   7.286
 3885POPC   C1B49747  34.961  11.903   6.173
 3885POPC   C2B49748  35.127  11.715   6.565
 3885POPC   C3B49749  35.296  11.801   6.945
 3885POPC   C4B49750  35.117  11.837   7.314
 3886POPC   NC349751  11.679  38.555   5.379
 3886POPC   PO449752  11.032  38.792   5.397
 3886POPC   GL149753  11.290  38.581   5.728
 3886POPC   GL249754  11.029  38.427   5.887
 3886POPC   C1A49755  11.567  38.595   6.113
 3886POPC   D2A49756  11.589  38.325   6.490
 3886POPC   C3A49757  11.470  38.574   6.836
 3886POPC   C4A49758  11.357  38.480   7.225
 3886POPC   C1B49759  11.125  38.489   6.311
 3886POPC   C2B49760  10.995  38.666   6.647
 3886POPC   C3B49761  10.899  38.504   6.996
 3886POPC   C4B49762  10.874  38.618   7.360
 3887POPC   NC349763  26.068  28.530   5.487
 3887POPC   PO449764  26.153  27.904   5.224
 3887POPC   GL149765  26.088  28.057   5.684
 3887POPC   GL249766  26.376  28.196   5.862
 3887POPC   C1A49767  25.942  28.226   6.091
 3887POPC   D2A49768  26.036  28.401   6.466
 3887POPC   C3A49769  25.690  28.487   6.754
 3887POPC   C4A49770  25.802  28.295   7.135
 3887POPC   C1B49771  26.472  28.500   6.191
 3887POPC   C2B49772  26.551  28.535   6.622
 3887POPC   C3B49773  26.297  28.463   6.982
 3887POPC   C4B49774  26.362  28.681   7.354
 3888POPC   NC349775  42.907  34.637   5.484
 3888POPC   PO449776  43.472  34.315   5.444
 3888POPC   GL149777  43.357  34.551   5.816
 3888POPC   GL249778  43.190  34.869   5.838
 3888POPC   C1A49779  43.391  34.550   6.247
 3888POPC   D2A49780  43.137  34.333   6.526
 3888POPC   C3A49781  43.344  34.435   6.913
 3888POPC   C4A49782  43.162  34.344   7.321
 3888POPC   C1B49783  42.936  34.772   6.212
 3888POPC   C2B49784  43.035  34.816   6.641
 3888POPC   C3B49785  42.796  34.968   6.960
 3888POPC   C4B49786  43.020  34.824   7.260
 3889POPC   NC349787  43.113  32.021   5.269
 3889POPC   PO449788  42.943  32.635   5.501
 3889POPC   GL149789  43.116  32.345   5.820
 3889POPC   GL249790  43.206  31.988   5.760
 3889POPC   C1A49791  43.008  32.366   6.256
 3889POPC   D2A49792  42.861  32.294   6.678
 3889POPC   C3A49793  43.208  32.462   6.856
 3889POPC   C4A49794  43.265  32.583   7.255
 3889POPC   C1B49795  43.147  31.865   6.149
 3889POPC   C2B49796  43.254  31.958   6.546
 3889POPC   C3B49797  43.196  31.800   6.926
 3889POPC   C4B49798  43.107  32.095   7.222
 3890POPC   NC349799   7.352  12.824   5.419
 3890POPC   PO449800   7.849  13.309   5.576
 3890POPC   GL149801   7.491  13.088   5.844
 3890POPC   GL249802   7.391  12.698   5.901
 3890POPC   C1A49803   7.374  12.995   6.282
 3890POPC   D2A49804   7.321  12.676   6.567
 3890POPC   C3A49805   7.607  12.884   6.784
 3890POPC   C4A49806   7.394  12.964   7.140
 3890POPC   C1B49807   7.612  12.431   6.215
 3890POPC   C2B49808   7.720  12.312   6.660
 3890POPC   C3B49809   7.629  12.462   7.068
 3890POPC   C4B49810   7.175  12.506   7.199
 3891POPC   NC349811  11.109  25.589   5.413
 3891POPC   PO449812  11.616  26.148   5.516
 3891POPC   GL149813  11.321  26.107   5.891
 3891POPC   GL249814  11.052  25.903   5.828
 3891POPC   C1A49815  11.184  26.018   6.332
 3891POPC   D2A49816  11.102  25.944   6.754
 3891POPC   C3A49817  11.476  26.070   6.974
 3891POPC   C4A49818  11.503  26.292   7.352
 3891POPC   C1B49819  10.812  26.247   6.064
 3891POPC   C2B49820  10.832  26.430   6.498
 3891POPC   C3B49821  10.859  26.366   6.964
 3891POPC   C4B49822  10.880  26.087   7.349
 3892POPC   NC349823  31.997  20.389   5.396
 3892POPC   PO449824  32.616  20.722   5.439
 3892POPC   GL149825  32.421  20.514   5.826
 3892POPC   GL249826  32.052  20.622   5.885
 3892POPC   C1A49827  32.343  20.568   6.314
 3892POPC   D2A49828  32.092  20.859   6.591
 3892POPC   C3A49829  32.083  20.885   7.023
 3892POPC   C4A49830  32.265  20.665   7.365
 3892POPC   C1B49831  31.773  20.618   6.267
 3892POPC   C2B49832  31.795  20.434   6.683
 3892POPC   C3B49833  32.146  20.371   6.956
 3892POPC   C4B49834  32.176  20.158   7.391
 3893POPC   NC349835  23.217   6.033   5.428
 3893POPC   PO449836  22.743   5.638   5.369
 3893POPC   GL149837  23.013   5.671   5.767
 3893POPC   GL249838  23.201   5.967   5.933
 3893POPC   C1A49839  22.777   5.781   6.147
 3893POPC   D2A49840  22.810   5.649   6.589
 3893POPC   C3A49841  22.820   5.851   7.001
 3893POPC   C4A49842  23.063   5.664   7.326
 3893POPC   C1B49843  23.255   5.749   6.339
 3893POPC   C2B49844  23.272   5.717   6.806
 3893POPC   C3B49845  23.340   6.032   7.112
 3893POPC   C4B49846  23.638   6.092   7.416
 3894POPC   NC349847  29.207  23.335   5.436
 3894POPC   PO449848  28.739  23.853   5.378
 3894POPC   GL149849  28.978  23.737   5.710
 3894POPC   GL249850  28.830  23.429   5.766
 3894POPC   C1A49851  29.189  23.908   6.070
 3894POPC   D2A49852  29.044  24.070   6.453
 3894POPC   C3A49853  29.268  24.057   6.807
 3894POPC   C4A49854  29.181  23.854   7.162
 3894POPC   C1B49855  28.814  23.508   6.182
 3894POPC   C2B49856  28.659  23.686   6.550
 3894POPC   C3B49857  28.669  23.569   6.966
 3894POPC   C4B49858  28.917  23.482   7.315
 3895POPC   NC349859  31.097  17.058   5.404
 3895POPC   PO449860  31.478  17.608   5.440
 3895POPC   GL149861  31.496  17.413   5.820
 3895POPC   GL249862  31.706  17.149   5.814
 3895POPC   C1A49863  31.518  17.533   6.246
 3895POPC   D2A49864  31.748  17.654   6.599
 3895POPC   C3A49865  31.473  17.723   6.915
 3895POPC   C4A49866  31.141  17.872   7.154
 3895POPC   C1B49867  31.873  17.166   6.243
 3895POPC   C2B49868  31.645  17.150   6.650
 3895POPC   C3B49869  31.566  17.229   7.086
 3895POPC   C4B49870  31.629  17.174   7.524
 3896POPC   NC349871  38.941  24.509   5.366
 3896POPC   PO449872  39.530  24.835   5.331
 3896POPC   GL149873  39.519  24.571   5.726
 3896POPC   GL249874  39.152  24.483   5.820
 3896POPC   C1A49875  39.442  24.710   6.177
 3896POPC   D2A49876  39.170  24.673   6.532
 3896POPC   C3A49877  39.386  24.701   6.903
 3896POPC   C4A49878  39.264  24.637   7.299
 3896POPC   C1B49879  39.182  24.253   6.210
 3896POPC   C2B49880  39.107  24.076   6.593
 3896POPC   C3B49881  39.069  24.186   7.023
 3896POPC   C4B49882  39.402  24.165   7.323
 3897POPC   NC349883   3.710  22.742   5.412
 3897POPC   PO449884   3.038  22.636   5.505
 3897POPC   GL149885   3.369  22.740   5.795
 3897POPC   GL249886   3.676  22.527   5.862
 3897POPC   C1A49887   3.421  23.026   6.119
 3897POPC   D2A49888   3.322  22.990   6.531
 3897POPC   C3A49889   3.604  23.088   6.829
 3897POPC   C4A49890   3.353  23.253   7.121
 3897POPC   C1B49891   3.527  22.421   6.248
 3897POPC   C2B49892   3.586  22.567   6.666
 3897POPC   C3B49893   3.366  22.680   7.031
 3897POPC   C4B49894   3.664  22.882   7.284
 3898POPC   NC349895   5.475  26.198   5.596
 3898POPC   PO449896   4.910  25.826   5.456
 3898POPC   GL149897   5.038  25.873   5.881
 3898POPC   GL249898   5.336  25.710   5.902
 3898POPC   C1A49899   5.117  26.214   6.204
 3898POPC   D2A49900   5.337  26.244   6.620
 3898POPC   C3A49901   5.056  26.027   6.872
 3898POPC   C4A49902   4.730  26.153   7.118
 3898POPC   C1B49903   5.464  25.856   6.265
 3898POPC   C2B49904   5.476  25.665   6.650
 3898POPC   C3B49905   5.497  25.832   7.030
 3898POPC   C4B49906   5.439  26.220   7.197
 3899POPC   NC349907   6.774  32.887   5.385
 3899POPC   PO449908   7.216  33.372   5.353
 3899POPC   GL149909   6.774  33.345   5.594
 3899POPC   GL249910   6.417  33.137   5.660
 3899POPC   C1A49911   6.722  33.261   6.047
 3899POPC   D2A49912   6.825  33.085   6.490
 3899POPC   C3A49913   6.788  33.311   6.887
 3899POPC   C4A49914   6.809  33.103   7.287
 3899POPC   C1B49915   6.425  32.843   6.057
 3899POPC   C2B49916   6.481  32.706   6.510
 3899POPC   C3B49917   6.553  32.847   6.914
 3899POPC   C4B49918   6.413  32.762   7.295
 3900POPC   NC349919  37.268   2.835   5.474
 3900POPC   PO449920  36.547   2.725   5.619
 3900POPC   GL149921  36.941   2.702   5.842
 3900POPC   GL249922  37.009   3.059   5.858
 3900POPC   C1A49923  37.300   2.783   6.138
 3900POPC   D2A49924  37.283   2.947   6.534
 3900POPC   C3A49925  36.990   2.711   6.805
 3900POPC   C4A49926  37.014   2.677   7.247
 3900POPC   C1B49927  36.839   3.004   6.269
 3900POPC   C2B49928  36.780   3.162   6.680
 3900POPC   C3B49929  36.666   3.014   7.104
 3900POPC   C4B49930  36.517   2.601   7.242
 3901POPC   NC349931  19.384  40.439   5.426
 3901POPC   PO449932  18.773  40.962   5.439
 3901POPC   GL149933  19.025  40.798   5.786
 3901POPC   GL249934  19.140  40.487   5.872
 3901POPC   C1A49935  19.195  40.921   6.184
 3901POPC   D2A49936  19.045  40.829   6.571
 3901POPC   C3A49937  19.216  40.898   6.968
 3901POPC   C4A49938  18.990  41.120   7.253
 3901POPC   C1B49939  18.872  40.459   6.228
 3901POPC   C2B49940  18.939  40.352   6.680
 3901POPC   C3B49941  18.947  40.442   7.127
 3901POPC   C4B49942  19.154  40.211   7.463
 3902POPC   NC349943   7.470   3.547   5.313
 3902POPC   PO449944   6.957   4.000   5.420
 3902POPC   GL149945   7.299   3.790   5.728
 3902POPC   GL249946   7.284   3.409   5.758
 3902POPC   C1A49947   7.490   3.619   6.166
 3902POPC   D2A49948   7.620   3.642   6.628
 3902POPC   C3A49949   7.447   3.916   6.977
 3902POPC   C4A49950   7.540   3.821   7.423
 3902POPC   C1B49951   7.112   3.283   6.157
 3902POPC   C2B49952   7.273   3.073   6.514
 3902POPC   C3B49953   7.574   3.144   6.828
 3902POPC   C4B49954   7.496   3.419   7.141
 3903POPC   NC349955  42.238  44.165   5.376
 3903POPC   PO449956  42.772  43.773   5.370
 3903POPC   GL149957  42.531  43.775   5.779
 3903POPC   GL249958  42.196  43.974   5.845
 3903POPC   C1A49959  42.469  43.785   6.238
 3903POPC   D2A49960  42.642  44.033   6.567
 3903POPC   C3A49961  42.528  43.834   6.949
 3903POPC   C4A49962  42.538  43.817   7.378
 3903POPC   C1B49963  41.911  43.929   6.205
 3903POPC   C2B49964  41.858  43.693   6.578
 3903POPC   C3B49965  42.011  43.754   7.008
 3903POPC   C4B49966  42.023  43.834   7.465
 3904POPC   NC349967  35.019  42.774   5.398
 3904POPC   PO449968  35.137  42.028   5.374
 3904POPC   GL149969  35.114  42.202   5.772
 3904POPC   GL249970  34.795  42.347   5.708
 3904POPC   C1A49971  35.376  42.403   6.095
 3904POPC   D2A49972  35.510  42.313   6.507
 3904POPC   C3A49973  35.450  42.568   6.867
 3904POPC   C4A49974  35.476  42.348   7.221
 3904POPC   C1B49975  34.877  42.561   6.109
 3904POPC   C2B49976  35.003  42.393   6.514
 3904POPC   C3B49977  35.101  42.179   6.887
 3904POPC   C4B49978  34.949  42.246   7.304
 3905POPC   NC349979  11.440  14.796   5.236
 3905POPC   PO449980  11.134  15.259   5.494
 3905POPC   GL149981  11.219  14.967   5.840
 3905POPC   GL249982  11.540  14.800   5.747
 3905POPC   C1A49983  11.095  15.053   6.300
 3905POPC   D2A49984  11.000  15.351   6.678
 3905POPC   C3A49985  11.086  15.462   7.165
 3905POPC   C4A49986  11.011  15.323   7.634
 3905POPC   C1B49987  11.652  15.067   6.136
 3905POPC   C2B49988  11.528  15.094   6.582
 3905POPC   C3B49989  11.337  15.056   6.986
 3905POPC   C4B49990  11.527  15.156   7.365
 3906POPC   NC349991   6.037  22.307   5.495
 3906POPC   PO449992   5.876  21.754   5.228
 3906POPC   GL149993   5.832  21.907   5.719
 3906POPC   GL249994   5.542  21.732   5.777
 3906POPC   C1A49995   6.018  22.185   6.129
 3906POPC   D2A49996   6.255  22.407   6.497
 3906POPC   C3A49997   6.076  22.388   6.900
 3906POPC   C4A49998   6.016  22.080   7.195
 3906POPC   C1B49999   5.573  21.947   6.162
 3906POPC   C2B50000   5.776  22.019   6.562
 3906POPC   C3B50001   5.717  21.766   6.919
 3906POPC   C4B50002   5.544  21.825   7.316
 3907POPC   NC350003   5.467  17.946   5.450
 3907POPC   PO450004   4.970  18.358   5.241
 3907POPC   GL150005   5.068  18.187   5.699
 3907POPC   GL250006   5.319  18.395   5.899
 3907POPC   C1A50007   4.949  18.247   6.150
 3907POPC   D2A50008   5.247  18.319   6.459
 3907POPC   C3A50009   5.069  18.272   6.816
 3907POPC   C4A50010   4.793  18.015   7.030
 3907POPC   C1B50011   5.409  17.969   6.102
 3907POPC   C2B50012   5.477  17.871   6.538
 3907POPC   C3B50013   5.529  18.088   6.912
 3907POPC   C4B50014   5.328  17.912   7.267
 3908POPC   NC350015  32.816  11.777   5.049
 3908POPC   PO450016  33.292  12.101   5.320
 3908POPC   GL150017  33.034  12.144   5.700
 3908POPC   GL250018  32.974  12.487   5.744
 3908POPC   C1A50019  32.984  12.022   6.158
 3908POPC   D2A50020  32.987  11.863   6.592
 3908POPC   C3A50021  33.274  11.891   6.968
 3908POPC   C4A50022  33.206  12.044   7.385
 3908POPC   C1B50023  32.894  12.523   6.178
 3908POPC   C2B50024  32.936  12.386   6.604
 3908POPC   C3B50025  32.772  12.533   6.995
 3908POPC   C4B50026  32.969  12.508   7.374
 3909POPC   NC350027  14.983  15.656   5.420
 3909POPC   PO450028  15.374  16.196   5.361
 3909POPC   GL150029  15.299  15.946   5.740
 3909POPC   GL250030  14.960  15.910   5.864
 3909POPC   C1A50031  15.368  15.990   6.208
 3909POPC   D2A50032  15.104  16.062   6.605
 3909POPC   C3A50033  15.178  15.967   7.058
 3909POPC   C4A50034  14.927  16.217   7.359
 3909POPC   C1B50035  14.859  15.506   6.073
 3909POPC   C2B50036  14.773  15.398   6.497
 3909POPC   C3B50037  14.958  15.516   6.877
 3909POPC   C4B50038  14.958  15.344   7.288
 3910POPC   NC350039   5.031   6.270   5.457
 3910POPC   PO450040   5.200   7.008   5.398
 3910POPC   GL150041   5.065   6.816   5.770
 3910POPC   GL250042   4.799   6.606   5.797
 3910POPC   C1A50043   5.105   6.805   6.210
 3910POPC   D2A50044   4.980   6.926   6.636
 3910POPC   C3A50045   5.018   6.586   6.943
 3910POPC   C4A50046   5.143   6.624   7.372
 3910POPC   C1B50047   4.734   6.449   6.222
 3910POPC   C2B50048   4.539   6.383   6.627
 3910POPC   C3B50049   4.557   6.108   7.000
 3910POPC   C4B50050   4.925   6.153   7.262
 3911POPC   NC350051  26.950  31.386   5.273
 3911POPC   PO450052  26.393  31.237   5.427
 3911POPC   GL150053  26.651  31.569   5.705
 3911POPC   GL250054  26.951  31.380   5.793
 3911POPC   C1A50055  26.815  31.722   6.151
 3911POPC   D2A50056  26.815  31.491   6.546
 3911POPC   C3A50057  26.708  31.632   6.946
 3911POPC   C4A50058  26.799  31.527   7.382
 3911POPC   C1B50059  26.983  31.165   6.193
 3911POPC   C2B50060  27.067  31.029   6.638
 3911POPC   C3B50061  26.842  31.124   7.036
 3911POPC   C4B50062  27.008  31.079   7.455
 3912POPC   NC350063   2.384  43.378   5.241
 3912POPC   PO450064   1.892  43.087   5.443
 3912POPC   GL150065   2.051  43.238   5.834
 3912POPC   GL250066   2.386  43.425   5.801
 3912POPC   C1A50067   1.858  43.089   6.239
 3912POPC   D2A50068   1.769  42.866   6.639
 3912POPC   C3A50069   1.847  43.049   7.046
 3912POPC   C4A50070   1.982  43.027   7.507
 3912POPC   C1B50071   2.340  43.264   6.250
 3912POPC   C2B50072   2.154  43.252   6.669
 3912POPC   C3B50073   2.322  43.315   7.094
 3912POPC   C4B50074   2.343  43.406   7.562
 3913POPC   NC350075  28.223  31.179   5.439
 3913POPC   PO450076  28.486  30.549   5.326
 3913POPC   GL150077  28.470  30.714   5.775
 3913POPC   GL250078  28.497  31.069   5.857
 3913POPC   C1A50079  28.355  30.667   6.234
 3913POPC   D2A50080  28.445  30.685   6.676
 3913POPC   C3A50081  28.136  30.559   6.953
 3913POPC   C4A50082  28.305  30.691   7.308
 3913POPC   C1B50083  28.115  31.094   6.112
 3913POPC   C2B50084  28.055  30.998   6.556
 3913POPC   C3B50085  28.169  31.071   6.985
 3913POPC   C4B50086  27.910  31.013   7.352
 3914POPC   NC350087  19.368  44.673   5.354
 3914POPC   PO450088  18.754  44.612   5.341
 3914POPC   GL150089  18.974  44.813   5.712
 3914POPC   GL250090  18.750   0.106   5.795
 3914POPC   C1A50091  19.168  44.707   6.153
 3914POPC   D2A50092  19.266  44.537   6.587
 3914POPC   C3A50093  18.903  44.412   6.825
 3914POPC   C4A50094  18.894  44.328   7.249
 3914POPC   C1B50095  19.010   0.188   6.183
 3914POPC   C2B50096  18.954  44.984   6.575
 3914POPC   C3B50097  18.825  44.887   6.991
 3914POPC   C4B50098  19.041  44.840   7.373
 3915POPC   NC350099  19.038   6.824   5.448
 3915POPC   PO450100  19.360   6.283   5.294
 3915POPC   GL150101  19.278   6.489   5.773
 3915POPC   GL250102  18.934   6.639   5.917
 3915POPC   C1A50103  19.292   6.456   6.197
 3915POPC   D2A50104  19.007   6.535   6.538
 3915POPC   C3A50105  19.218   6.653   6.916
 3915POPC   C4A50106  19.377   6.473   7.288
 3915POPC   C1B50107  18.696   6.905   6.226
 3915POPC   C2B50108  18.483   6.740   6.596
 3915POPC   C3B50109  18.695   6.538   6.934
 3915POPC   C4B50110  18.895   6.628   7.327
 3916POPC   NC350111  39.109   4.440   5.157
 3916POPC   PO450112  39.509   3.863   5.354
 3916POPC   GL150113  39.233   4.049   5.699
 3916POPC   GL250114  39.158   4.392   5.694
 3916POPC   C1A50115  39.037   3.908   6.088
 3916POPC   D2A50116  39.280   3.935   6.472
 3916POPC   C3A50117  39.175   4.036   6.878
 3916POPC   C4A50118  39.204   4.371   7.207
 3916POPC   C1B50119  39.306   4.341   6.141
 3916POPC   C2B50120  39.136   4.444   6.557
 3916POPC   C3B50121  39.095   4.766   6.901
 3916POPC   C4B50122  39.351   4.871   7.299
 3917POPC   NC350123  15.441  42.415   5.307
 3917POPC   PO450124  15.269  41.806   5.375
 3917POPC   GL150125  15.243  42.150   5.733
 3917POPC   GL250126  15.443  42.447   5.811
 3917POPC   C1A50127  15.109  42.354   6.170
 3917POPC   D2A50128  14.981  42.232   6.585
 3917POPC   C3A50129  15.079  42.489   6.949
 3917POPC   C4A50130  15.007  42.359   7.393
 3917POPC   C1B50131  15.587  42.626   6.212
 3917POPC   C2B50132  15.555  42.747   6.645
 3917POPC   C3B50133  15.668  42.479   6.987
 3917POPC   C4B50134  15.500  42.439   7.369
 3918POPC   NC350135  23.444  15.744   5.615
 3918POPC   PO450136  22.815  15.765   5.463
 3918POPC   GL150137  22.803  15.877   5.875
 3918POPC   GL250138  23.118  16.015   5.926
 3918POPC   C1A50139  22.648  15.969   6.277
 3918POPC   D2A50140  22.630  16.268   6.619
 3918POPC   C3A50141  22.502  16.007   6.954
 3918POPC   C4A50142  22.774  15.619   7.166
 3918POPC   C1B50143  23.134  15.743   6.271
 3918POPC   C2B50144  23.377  15.657   6.651
 3918POPC   C3B50145  23.311  15.850   7.052
 3918POPC   C4B50146  23.270  15.848   7.478
 3919POPC   NC350147  28.695  17.409   5.090
 3919POPC   PO450148  28.264  17.292   5.621
 3919POPC   GL150149  28.172  17.382   6.006
 3919POPC   GL250150  27.823  17.317   5.909
 3919POPC   C1A50151  28.544  17.469   6.280
 3919POPC   D2A50152  28.727  17.624   6.655
 3919POPC   C3A50153  28.439  17.535   6.988
 3919POPC   C4A50154  28.561  17.365   7.370
 3919POPC   C1B50155  27.849  17.090   6.314
 3919POPC   C2B50156  28.068  17.208   6.706
 3919POPC   C3B50157  28.127  17.146   7.156
 3919POPC   C4B50158  28.089  17.309   7.588
 3920POPC   NC350159   8.357  17.699   5.369
 3920POPC   PO450160   8.268  18.436   5.413
 3920POPC   GL150161   8.158  18.281   5.825
 3920POPC   GL250162   8.341  17.996   5.820
 3920POPC   C1A50163   7.927  18.221   6.253
 3920POPC   D2A50164   7.772  18.325   6.624
 3920POPC   C3A50165   7.780  18.128   6.996
 3920POPC   C4A50166   8.065  18.273   7.301
 3920POPC   C1B50167   8.418  18.195   6.249
 3920POPC   C2B50168   8.282  18.209   6.659
 3920POPC   C3B50169   8.498  18.200   7.053
 3920POPC   C4B50170   8.537  18.337   7.482
 3921POPC   NC350171  17.957   8.660   5.151
 3921POPC   PO450172  17.478   8.999   5.403
 3921POPC   GL150173  17.424   8.985   5.855
 3921POPC   GL250174  17.147   8.778   5.946
 3921POPC   C1A50175  17.630   9.117   6.259
 3921POPC   D2A50176  17.868   9.142   6.668
 3921POPC   C3A50177  17.851   9.480   6.969
 3921POPC   C4A50178  17.600   9.536   7.327
 3921POPC   C1B50179  17.089   9.044   6.292
 3921POPC   C2B50180  17.302   9.120   6.669
 3921POPC   C3B50181  17.486   9.094   7.048
 3921POPC   C4B50182  17.497   8.716   7.271
 3922POPC   NC350183  31.534  30.823   5.593
 3922POPC   PO450184  31.034  30.362   5.650
 3922POPC   GL150185  31.403  30.414   5.895
 3922POPC   GL250186  31.314  30.726   6.039
 3922POPC   C1A50187  31.613  30.433   6.295
 3922POPC   D2A50188  31.722  30.601   6.696
 3922POPC   C3A50189  31.378  30.747   6.982
 3922POPC   C4A50190  31.467  30.913   7.399
 3922POPC   C1B50191  31.506  30.939   6.352
 3922POPC   C2B50192  31.796  31.108   6.611
 3922POPC   C3B50193  31.739  31.117   7.023
 3922POPC   C4B50194  31.921  31.340   7.324
 3923POPC   NC350195   1.716   1.548   5.324
 3923POPC   PO450196   2.050   2.142   5.420
 3923POPC   GL150197   1.919   1.868   5.701
 3923POPC   GL250198   2.233   1.720   5.731
 3923POPC   C1A50199   1.767   2.006   6.094
 3923POPC   D2A50200   1.926   1.936   6.507
 3923POPC   C3A50201   1.791   2.234   6.822
 3923POPC   C4A50202   1.644   2.209   7.240
 3923POPC   C1B50203   2.300   1.961   6.097
 3923POPC   C2B50204   2.425   1.905   6.518
 3923POPC   C3B50205   2.247   1.966   6.916
 3923POPC   C4B50206   2.310   1.994   7.330
 3924POPC   NC350207  19.229  23.954   5.380
 3924POPC   PO450208  18.558  23.903   5.098
 3924POPC   GL150209  18.772  23.865   5.610
 3924POPC   GL250210  19.085  23.697   5.790
 3924POPC   C1A50211  18.723  23.810   6.112
 3924POPC   D2A50212  18.877  23.945   6.537
 3924POPC   C3A50213  18.726  23.803   6.930
 3924POPC   C4A50214  18.901  23.670   7.299
 3924POPC   C1B50215  19.253  23.923   6.157
 3924POPC   C2B50216  19.395  23.936   6.598
 3924POPC   C3B50217  19.356  24.062   7.055
 3924POPC   C4B50218  19.372  23.847   7.478
 3925POPC   NC350219  41.533  22.389   5.490
 3925POPC   PO450220  41.846  21.862   5.549
 3925POPC   GL150221  41.783  22.145   5.928
 3925POPC   GL250222  41.873  22.495   5.830
 3925POPC   C1A50223  41.473  22.095   6.302
 3925POPC   D2A50224  41.182  22.059   6.677
 3925POPC   C3A50225  41.419  22.173   7.039
 3925POPC   C4A50226  41.602  21.929   7.361
 3925POPC   C1B50227  42.001  22.581   6.191
 3925POPC   C2B50228  41.839  22.381   6.522
 3925POPC   C3B50229  41.924  22.484   6.905
 3925POPC   C4B50230  41.850  22.364   7.290
 3926POPC   NC350231  34.432  19.938   5.506
 3926POPC   PO450232  35.056  19.650   5.418
 3926POPC   GL150233  34.799  19.527   5.797
 3926POPC   GL250234  34.466  19.433   5.767
 3926POPC   C1A50235  34.884  19.561   6.249
 3926POPC   D2A50236  34.683  19.765   6.603
 3926POPC   C3A50237  34.853  19.710   7.014
 3926POPC   C4A50238  34.644  19.755   7.385
 3926POPC   C1B50239  34.418  19.741   6.122
 3926POPC   C2B50240  34.288  20.065   6.418
 3926POPC   C3B50241  34.207  20.013   6.806
 3926POPC   C4B50242  34.157  19.975   7.214
 3927POPC   NC350243  24.110  10.380   5.393
 3927POPC   PO450244  24.795  10.502   5.406
 3927POPC   GL150245  24.453  10.525   5.745
 3927POPC   GL250246  24.257  10.201   5.837
 3927POPC   C1A50247  24.361  10.516   6.212
 3927POPC   D2A50248  24.539  10.631   6.590
 3927POPC   C3A50249  24.353  10.410   6.899
 3927POPC   C4A50250  24.307  10.598   7.325
 3927POPC   C1B50251  24.664  10.150   6.050
 3927POPC   C2B50252  24.649  10.093   6.515
 3927POPC   C3B50253  24.807  10.110   6.937
 3927POPC   C4B50254  24.650  10.193   7.337
 3928POPC   NC350255  44.425   5.085   5.305
 3928POPC   PO450256  43.803   5.117   5.409
 3928POPC   GL150257  44.046   5.103   5.747
 3928POPC   GL250258  44.193   4.750   5.664
 3928POPC   C1A50259  43.870   5.195   6.175
 3928POPC   D2A50260  43.758   4.963   6.570
 3928POPC   C3A50261  43.618   5.214   6.913
 3928POPC   C4A50262  43.827   5.378   7.291
 3928POPC   C1B50263  44.173   4.790   6.127
 3928POPC   C2B50264  44.188   4.642   6.553
 3928POPC   C3B50265  44.133   4.807   6.971
 3928POPC   C4B50266  44.502   4.837   7.263
 3929POPC   NC350267  28.028  13.374   5.068
 3929POPC   PO450268  27.431  13.108   5.188
 3929POPC   GL150269  27.465  12.951   5.640
 3929POPC   GL250270  27.164  13.050   5.807
 3929POPC   C1A50271  27.527  12.888   6.142
 3929POPC   D2A50272  27.632  12.832   6.612
 3929POPC   C3A50273  27.426  12.589   6.922
 3929POPC   C4A50274  27.704  12.359   7.190
 3929POPC   C1B50275  27.190  13.281   6.225
 3929POPC   C2B50276  27.217  13.138   6.687
 3929POPC   C3B50277  27.435  13.083   7.101
 3929POPC   C4B50278  27.178  13.116   7.479
 3930POPC   NC350279  23.507  24.313   5.241
 3930POPC   PO450280  23.907  24.616   5.667
 3930POPC   GL150281  23.780  24.248   5.760
 3930POPC   GL250282  23.462  24.310   5.831
 3930POPC   C1A50283  23.826  24.226   6.193
 3930POPC   D2A50284  23.724  24.407   6.553
 3930POPC   C3A50285  24.045  24.594   6.779
 3930POPC   C4A50286  24.172  24.790   7.151
 3930POPC   C1B50287  23.495  24.665   6.159
 3930POPC   C2B50288  23.451  24.823   6.618
 3930POPC   C3B50289  23.588  24.640   7.016
 3930POPC   C4B50290  23.431  24.218   7.076
 3931POPC   NC350291  17.023   9.116   5.454
 3931POPC   PO450292  16.334   9.323   5.401
 3931POPC   GL150293  16.366   9.161   5.836
 3931POPC   GL250294  16.675   9.015   5.809
 3931POPC   C1A50295  16.568   9.217   6.263
 3931POPC   D2A50296  16.412   8.917   6.579
 3931POPC   C3A50297  16.582   8.896   6.978
 3931POPC   C4A50298  16.619   9.181   7.328
 3931POPC   C1B50299  16.654   8.711   6.132
 3931POPC   C2B50300  16.918   8.600   6.464
 3931POPC   C3B50301  17.125   8.657   6.846
 3931POPC   C4B50302  17.031   8.892   7.210
 3932POPC   NC350303  15.449   7.565   5.097
 3932POPC   PO450304  15.390   7.049   5.499
 3932POPC   GL150305  15.256   7.113   5.903
 3932POPC   GL250306  14.968   7.299   5.858
 3932POPC   C1A50307  15.353   7.483   6.166
 3932POPC   D2A50308  15.237   7.649   6.565
 3932POPC   C3A50309  15.087   7.458   6.915
 3932POPC   C4A50310  15.383   7.517   7.295
 3932POPC   C1B50311  14.846   7.589   6.207
 3932POPC   C2B50312  14.743   7.734   6.612
 3932POPC   C3B50313  14.600   7.637   7.022
 3932POPC   C4B50314  14.871   7.539   7.386
 3933POPC   NC350315  34.421  13.754   5.785
 3933POPC   PO450316  34.896  13.448   5.426
 3933POPC   GL150317  34.800  13.400   5.833
 3933POPC   GL250318  34.940  13.728   5.881
 3933POPC   C1A50319  34.704  13.475   6.297
 3933POPC   D2A50320  34.309  13.599   6.483
 3933POPC   C3A50321  34.307  13.452   6.899
 3933POPC   C4A50322  34.479  13.453   7.299
 3933POPC   C1B50323  34.927  14.008   6.199
 3933POPC   C2B50324  34.701  13.928   6.560
 3933POPC   C3B50325  34.675  13.808   6.971
 3933POPC   C4B50326  35.044  13.914   7.167
 3934POPC   NC350327  40.849  26.189   5.417
 3934POPC   PO450328  40.743  25.574   5.126
 3934POPC   GL150329  40.479  25.825   5.594
 3934POPC   GL250330  40.669  26.070   5.849
 3934POPC   C1A50331  40.393  25.822   6.149
 3934POPC   D2A50332  40.494  26.121   6.503
 3934POPC   C3A50333  40.666  25.985   6.915
 3934POPC   C4A50334  40.509  26.024   7.350
 3934POPC   C1B50335  41.012  26.223   6.116
 3934POPC   C2B50336  41.049  26.144   6.554
 3934POPC   C3B50337  41.103  26.301   6.937
 3934POPC   C4B50338  41.027  26.135   7.325
 3935POPC   NC350339  25.602   5.192   5.266
 3935POPC   PO450340  25.015   4.853   5.428
 3935POPC   GL150341  25.012   5.064   5.878
 3935POPC   GL250342  25.350   5.201   5.873
 3935POPC   C1A50343  25.126   5.127   6.367
 3935POPC   D2A50344  25.523   5.116   6.665
 3935POPC   C3A50345  25.383   4.998   7.086
 3935POPC   C4A50346  24.956   5.025   7.119
 3935POPC   C1B50347  25.411   5.516   6.197
 3935POPC   C2B50348  25.082   5.649   6.484
 3935POPC   C3B50349  25.250   5.517   6.866
 3935POPC   C4B50350  25.671   5.411   7.069
 3936POPC   NC350351   7.038  21.001   5.434
 3936POPC   PO450352   6.476  20.597   5.539
 3936POPC   GL150353   6.585  20.422   5.927
 3936POPC   GL250354   6.246  20.441   5.969
 3936POPC   C1A50355   6.824  20.335   6.282
 3936POPC   D2A50356   6.928  20.568   6.613
 3936POPC   C3A50357   6.646  20.727   6.886
 3936POPC   C4A50358   6.499  20.503   7.225
 3936POPC   C1B50359   6.442  20.724   6.324
 3936POPC   C2B50360   6.236  20.971   6.677
 3936POPC   C3B50361   6.237  20.967   7.140
 3936POPC   C4B50362   6.315  20.798   7.592
 3937POPC   NC350363  16.384   7.270   5.296
 3937POPC   PO450364  16.810   7.754   5.463
 3937POPC   GL150365  16.858   7.430   5.800
 3937POPC   GL250366  16.571   7.175   5.782
 3937POPC   C1A50367  17.002   7.265   6.235
 3937POPC   D2A50368  16.857   7.355   6.668
 3937POPC   C3A50369  16.948   7.231   7.098
 3937POPC   C4A50370  16.865   7.538   7.381
 3937POPC   C1B50371  16.498   7.360   6.197
 3937POPC   C2B50372  16.310   7.397   6.612
 3937POPC   C3B50373  16.455   7.437   7.038
 3937POPC   C4B50374  16.491   7.186   7.398
 3938POPC   NC350375  13.990  42.071   5.500
 3938POPC   PO450376  14.397  41.552   5.391
 3938POPC   GL150377  14.289  41.732   5.794
 3938POPC   GL250378  14.093  41.440   5.814
 3938POPC   C1A50379  14.532  41.798   6.209
 3938POPC   D2A50380  14.779  41.752   6.596
 3938POPC   C3A50381  14.486  41.717   6.916
 3938POPC   C4A50382  14.438  41.934   7.284
 3938POPC   C1B50383  14.443  41.311   6.067
 3938POPC   C2B50384  14.513  41.327   6.492
 3938POPC   C3B50385  14.435  41.211   6.882
 3938POPC   C4B50386  14.329  41.298   7.267
 3939POPC   NC350387  11.894   8.005   5.342
 3939POPC   PO450388  12.466   8.359   5.340
 3939POPC   GL150389  12.298   8.045   5.711
 3939POPC   GL250390  11.961   7.865   5.824
 3939POPC   C1A50391  12.296   8.056   6.177
 3939POPC   D2A50392  12.192   8.288   6.572
 3939POPC   C3A50393  12.138   8.076   6.963
 3939POPC   C4A50394  12.397   8.191   7.289
 3939POPC   C1B50395  11.797   8.211   6.047
 3939POPC   C2B50396  11.709   8.310   6.453
 3939POPC   C3B50397  11.691   8.337   6.892
 3939POPC   C4B50398  11.914   8.455   7.259
 3940POPC   NC350399   9.633  28.676   5.645
 3940POPC   PO450400   9.990  28.131   5.350
 3940POPC   GL150401   9.914  28.271   5.810
 3940POPC   GL250402  10.183  28.497   5.813
 3940POPC   C1A50403   9.657  28.439   6.236
 3940POPC   D2A50404   9.322  28.338   6.577
 3940POPC   C3A50405   9.364  28.460   7.031
 3940POPC   C4A50406   9.591  28.330   7.412
 3940POPC   C1B50407  10.116  28.714   6.218
 3940POPC   C2B50408   9.945  28.625   6.636
 3940POPC   C3B50409   9.887  28.492   7.043
 3940POPC   C4B50410  10.055  28.534   7.465
 3941POPC   NC350411  14.151  37.135   5.307
 3941POPC   PO450412  14.221  36.574   5.629
 3941POPC   GL150413  14.448  36.897   5.842
 3941POPC   GL250414  14.678  37.221   5.824
 3941POPC   C1A50415  14.273  36.835   6.257
 3941POPC   D2A50416  14.182  36.538   6.590
 3941POPC   C3A50417  14.295  36.741   6.966
 3941POPC   C4A50418  14.496  36.832   7.352
 3941POPC   C1B50419  14.762  36.985   6.214
 3941POPC   C2B50420  14.644  36.863   6.610
 3941POPC   C3B50421  14.736  37.047   6.970
 3941POPC   C4B50422  14.692  37.294   7.309
 3942POPC   NC350423  21.782  36.861   5.553
 3942POPC   PO450424  22.376  37.056   5.365
 3942POPC   GL150425  22.217  37.047   5.819
 3942POPC   GL250426  21.861  37.218   5.927
 3942POPC   C1A50427  22.378  37.055   6.267
 3942POPC   D2A50428  22.186  37.107   6.686
 3942POPC   C3A50429  22.336  36.961   7.084
 3942POPC   C4A50430  22.345  36.499   7.059
 3942POPC   C1B50431  21.910  36.864   6.211
 3942POPC   C2B50432  21.926  36.632   6.592
 3942POPC   C3B50433  21.878  36.774   6.995
 3942POPC   C4B50434  21.878  37.229   7.086
 3943POPC   NC350435  44.756  12.523   5.423
 3943POPC   PO450436  44.552  11.952   5.428
 3943POPC   GL150437  44.603  12.243   5.815
 3943POPC   GL250438  44.920  12.394   5.910
 3943POPC   C1A50439  44.549  12.215   6.248
 3943POPC   D2A50440  44.796  12.016   6.564
 3943POPC   C3A50441  44.541  11.831   6.887
 3943POPC   C4A50442  44.442  11.510   7.170
 3943POPC   C1B50443  44.846  12.637   6.280
 3943POPC   C2B50444  44.659  12.492   6.672
 3943POPC   C3B50445  44.775  12.276   7.050
 3943POPC   C4B50446  44.521  12.483   7.360
 3944POPC   NC350447  17.452   4.804   5.644
 3944POPC   PO450448  17.487   5.382   5.257
 3944POPC   GL150449  17.429   5.295   5.768
 3944POPC   GL250450  17.703   5.110   5.965
 3944POPC   C1A50451  17.256   5.042   6.197
 3944POPC   D2A50452  17.283   4.823   6.608
 3944POPC   C3A50453  17.426   5.082   6.945
 3944POPC   C4A50454  17.566   5.040   7.383
 3944POPC   C1B50455  17.660   5.400   6.271
 3944POPC   C2B50456  17.716   5.449   6.699
 3944POPC   C3B50457  17.908   5.222   7.020
 3944POPC   C4B50458  17.984   5.361   7.430
 3945POPC   NC350459  30.371   4.509   5.249
 3945POPC   PO450460  30.829   4.108   5.489
 3945POPC   GL150461  30.602   4.305   5.794
 3945POPC   GL250462  30.424   4.609   5.745
 3945POPC   C1A50463  30.465   4.188   6.192
 3945POPC   D2A50464  30.633   4.074   6.573
 3945POPC   C3A50465  30.476   4.216   6.945
 3945POPC   C4A50466  30.547   4.122   7.387
 3945POPC   C1B50467  30.641   4.681   6.137
 3945POPC   C2B50468  30.462   4.604   6.530
 3945POPC   C3B50469  30.556   4.753   6.915
 3945POPC   C4B50470  30.512   4.602   7.302
 3946POPC   NC350471  29.597  38.653   5.575
 3946POPC   PO450472  28.908  38.590   5.603
 3946POPC   GL150473  29.239  38.426   5.848
 3946POPC   GL250474  29.402  38.106   5.728
 3946POPC   C1A50475  29.398  38.588   6.233
 3946POPC   D2A50476  29.454  38.339   6.578
 3946POPC   C3A50477  29.130  38.261   6.908
 3946POPC   C4A50478  28.950  38.574   7.188
 3946POPC   C1B50479  29.331  37.983   6.182
 3946POPC   C2B50480  29.381  37.857   6.648
 3946POPC   C3B50481  29.609  38.080   6.981
 3946POPC   C4B50482  29.388  38.243   7.365
 3947POPC   NC350483   6.373   7.171   5.575
 3947POPC   PO450484   7.011   7.252   5.852
 3947POPC   GL150485   6.708   7.596   5.992
 3947POPC   GL250486   6.351   7.555   5.913
 3947POPC   C1A50487   6.723   7.907   6.338
 3947POPC   D2A50488   6.884   7.940   6.767
 3947POPC   C3A50489   6.739   7.527   6.952
 3947POPC   C4A50490   6.758   7.215   7.291
 3947POPC   C1B50491   6.418   7.237   6.225
 3947POPC   C2B50492   6.518   7.093   6.629
 3947POPC   C3B50493   6.320   7.146   7.020
 3947POPC   C4B50494   6.284   7.553   7.211
 3948POPC   NC350495   9.738  44.144   5.402
 3948POPC   PO450496   9.957  43.472   5.491
 3948POPC   GL150497   9.749  43.541   5.863
 3948POPC   GL250498   9.875  43.889   5.851
 3948POPC   C1A50499   9.524  43.728   6.204
 3948POPC   D2A50500   9.661  43.757   6.618
 3948POPC   C3A50501   9.798  44.103   6.819
 3948POPC   C4A50502   9.580  44.061   7.194
 3948POPC   C1B50503  10.107  43.819   6.248
 3948POPC   C2B50504  10.149  43.700   6.693
 3948POPC   C3B50505   9.932  43.654   7.072
 3948POPC   C4B50506  10.073  43.882   7.393
 3949POPC   NC350507   7.941  42.835   5.512
 3949POPC   PO450508   8.219  43.407   5.405
 3949POPC   GL150509   8.179  43.207   5.787
 3949POPC   GL250510   8.448  43.003   5.711
 3949POPC   C1A50511   7.925  43.059   6.153
 3949POPC   D2A50512   7.656  42.962   6.534
 3949POPC   C3A50513   7.893  43.032   6.937
 3949POPC   C4A50514   8.180  42.880   7.274
 3949POPC   C1B50515   8.532  43.188   6.132
 3949POPC   C2B50516   8.293  43.144   6.522
 3949POPC   C3B50517   8.475  43.061   6.892
 3949POPC   C4B50518   8.771  43.104   7.184
 3950POPC   NC350519  24.470   6.245   5.097
 3950POPC   PO450520  24.591   5.710   5.538
 3950POPC   GL150521  24.665   5.898   5.869
 3950POPC   GL250522  24.584   6.220   5.693
 3950POPC   C1A50523  24.585   5.820   6.338
 3950POPC   D2A50524  24.273   5.958   6.702
 3950POPC   C3A50525  24.335   5.686   7.067
 3950POPC   C4A50526  24.798   5.580   7.112
 3950POPC   C1B50527  24.424   6.267   6.119
 3950POPC   C2B50528  24.634   6.291   6.506
 3950POPC   C3B50529  24.818   6.007   6.793
 3950POPC   C4B50530  24.657   6.067   7.190
 3951POPC   NC350531  37.843  11.448   5.383
 3951POPC   PO450532  37.194  11.257   5.434
 3951POPC   GL150533  37.461  11.278   5.820
 3951POPC   GL250534  37.809  11.147   5.790
 3951POPC   C1A50535  37.539  11.464   6.254
 3951POPC   D2A50536  37.734  11.723   6.615
 3951POPC   C3A50537  37.512  11.543   6.954
 3951POPC   C4A50538  37.273  11.230   7.192
 3951POPC   C1B50539  38.003  11.251   6.210
 3951POPC   C2B50540  37.848  11.222   6.651
 3951POPC   C3B50541  38.039  11.323   7.071
 3951POPC   C4B50542  38.071  11.108   7.493
 3952POPC   NC350543  17.967  42.641   5.464
 3952POPC   PO450544  18.249  42.011   5.342
 3952POPC   GL150545  18.183  42.255   5.727
 3952POPC   GL250546  18.460  42.411   5.889
 3952POPC   C1A50547  17.968  42.324   6.116
 3952POPC   D2A50548  18.072  42.185   6.518
 3952POPC   C3A50549  18.283  42.401   6.826
 3952POPC   C4A50550  18.066  42.382   7.217
 3952POPC   C1B50551  18.383  42.574   6.286
 3952POPC   C2B50552  18.675  42.685   6.566
 3952POPC   C3B50553  18.620  42.855   6.918
 3952POPC   C4B50554  18.344  42.809   7.265
 3953POPC   NC350555  20.451  19.559   5.483
 3953POPC   PO450556  20.763  20.195   5.285
 3953POPC   GL150557  20.709  19.976   5.682
 3953POPC   GL250558  20.869  19.662   5.811
 3953POPC   C1A50559  20.477  19.870   6.064
 3953POPC   D2A50560  20.576  19.997   6.463
 3953POPC   C3A50561  20.413  19.806   6.826
 3953POPC   C4A50562  20.517  19.987   7.186
 3953POPC   C1B50563  20.886  19.631   6.289
 3953POPC   C2B50564  20.934  19.765   6.742
 3953POPC   C3B50565  20.966  19.773   7.218
 3953POPC   C4B50566  21.029  19.720   7.677
 3954POPC   NC350567  21.103   4.425   5.467
 3954POPC   PO450568  21.693   4.061   5.622
 3954POPC   GL150569  21.297   4.134   5.853
 3954POPC   GL250570  21.191   4.519   5.954
 3954POPC   C1A50571  21.388   4.202   6.282
 3954POPC   D2A50572  21.371   4.457   6.625
 3954POPC   C3A50573  21.387   4.141   6.930
 3954POPC   C4A50574  21.310   4.310   7.307
 3954POPC   C1B50575  20.956   4.566   6.361
 3954POPC   C2B50576  20.916   4.497   6.847
 3954POPC   C3B50577  20.989   4.713   7.258
 3954POPC   C4B50578  21.086   4.545   7.697
 3955POPC   NC350579  29.595  17.843   5.060
 3955POPC   PO450580  29.672  17.289   5.496
 3955POPC   GL150581  29.930  17.498   5.785
 3955POPC   GL250582  30.211  17.722   5.742
 3955POPC   C1A50583  29.768  17.550   6.211
 3955POPC   D2A50584  29.726  17.282   6.566
 3955POPC   C3A50585  29.747  17.499   6.944
 3955POPC   C4A50586  29.953  17.437   7.309
 3955POPC   C1B50587  30.267  17.504   6.168
 3955POPC   C2B50588  30.172  17.597   6.601
 3955POPC   C3B50589  30.338  17.614   7.017
 3955POPC   C4B50590  30.290  17.786   7.463
 3956POPC   NC350591  36.862  15.559   5.222
 3956POPC   PO450592  36.632  15.034   5.494
 3956POPC   GL150593  36.716  15.032   5.869
 3956POPC   GL250594  36.970  15.268   5.842
 3956POPC   C1A50595  36.961  14.916   6.207
 3956POPC   D2A50596  37.230  14.970   6.520
 3956POPC   C3A50597  37.031  14.797   6.875
 3956POPC   C4A50598  37.042  15.121   7.145
 3956POPC   C1B50599  36.714  15.433   6.182
 3956POPC   C2B50600  36.533  15.365   6.576
 3956POPC   C3B50601  36.709  15.436   6.926
 3956POPC   C4B50602  36.735  15.504   7.333
 3957POPC   NC350603  17.675  37.888   5.591
 3957POPC   PO450604  18.239  37.654   5.297
 3957POPC   GL150605  18.328  37.767   5.703
 3957POPC   GL250606  18.677  37.699   5.772
 3957POPC   C1A50607  18.162  37.690   6.122
 3957POPC   D2A50608  18.183  37.385   6.472
 3957POPC   C3A50609  18.187  37.568   6.900
 3957POPC   C4A50610  18.076  37.946   7.173
 3957POPC   C1B50611  18.644  37.865   6.182
 3957POPC   C2B50612  18.613  37.666   6.597
 3957POPC   C3B50613  18.708  37.485   6.984
 3957POPC   C4B50614  18.486  37.599   7.341
 3958POPC   NC350615  37.895  14.977   5.514
 3958POPC   PO450616  37.270  15.410   5.446
 3958POPC   GL150617  37.476  15.339   5.848
 3958POPC   GL250618  37.449  14.971   5.851
 3958POPC   C1A50619  37.614  15.324   6.309
 3958POPC   D2A50620  37.972  15.415   6.620
 3958POPC   C3A50621  37.800  15.466   7.032
 3958POPC   C4A50622  37.514  15.310   7.308
 3958POPC   C1B50623  37.803  14.851   6.134
 3958POPC   C2B50624  37.738  14.850   6.549
 3958POPC   C3B50625  37.747  14.959   6.960
 3958POPC   C4B50626  37.817  14.908   7.380
 3959POPC   NC350627   8.825  26.401   4.989
 3959POPC   PO450628   9.072  26.166   5.549
 3959POPC   GL150629   8.904  25.940   5.857
 3959POPC   GL250630   8.679  26.225   5.904
 3959POPC   C1A50631   8.879  25.734   6.219
 3959POPC   D2A50632   8.948  25.940   6.591
 3959POPC   C3A50633   8.861  25.717   6.934
 3959POPC   C4A50634   8.937  25.926   7.284
 3959POPC   C1B50635   9.024  26.298   6.210
 3959POPC   C2B50636   9.173  26.404   6.636
 3959POPC   C3B50637   9.248  26.254   7.057
 3959POPC   C4B50638   9.108  26.392   7.499
 3960POPC   NC350639  40.486  17.281   5.459
 3960POPC   PO450640  40.972  17.831   5.458
 3960POPC   GL150641  40.716  17.702   5.791
 3960POPC   GL250642  40.801  17.375   5.851
 3960POPC   C1A50643  40.637  17.709   6.237
 3960POPC   D2A50644  40.486  17.724   6.654
 3960POPC   C3A50645  40.863  17.687   6.923
 3960POPC   C4A50646  41.038  17.983   7.208
 3960POPC   C1B50647  40.508  17.234   6.154
 3960POPC   C2B50648  40.698  17.289   6.557
 3960POPC   C3B50649  40.522  17.313   6.980
 3960POPC   C4B50650  40.781  17.416   7.336
 3961POPC   NC350651  42.725   2.195   5.285
 3961POPC   PO450652  42.262   1.777   5.388
 3961POPC   GL150653  42.200   2.076   5.728
 3961POPC   GL250654  42.529   2.102   5.831
 3961POPC   C1A50655  42.078   2.209   6.151
 3961POPC   D2A50656  42.184   2.124   6.597
 3961POPC   C3A50657  42.114   2.199   7.040
 3961POPC   C4A50658  42.525   2.115   7.188
 3961POPC   C1B50659  42.307   1.758   6.096
 3961POPC   C2B50660  42.347   1.626   6.524
 3961POPC   C3B50661  42.263   1.727   6.932
 3961POPC   C4B50662  42.406   1.616   7.329
 3962POPC   NC350663  11.722  28.005   5.610
 3962POPC   PO450664  12.116  27.623   5.166
 3962POPC   GL150665  11.877  27.504   5.608
 3962POPC   GL250666  11.939  27.183   5.804
 3962POPC   C1A50667  11.827  27.593   6.113
 3962POPC   D2A50668  11.786  27.896   6.499
 3962POPC   C3A50669  12.074  27.840   6.859
 3962POPC   C4A50670  12.216  27.565   7.202
 3962POPC   C1B50671  11.751  27.095   6.259
 3962POPC   C2B50672  11.792  27.036   6.734
 3962POPC   C3B50673  11.885  27.168   7.165
 3962POPC   C4B50674  11.891  27.389   7.575
 3963POPC   NC350675   0.864  32.988   5.474
 3963POPC   PO450676   1.418  33.391   5.601
 3963POPC   GL150677   1.386  33.117   5.986
 3963POPC   GL250678   1.278  32.790   5.851
 3963POPC   C1A50679   1.368  33.018   6.452
 3963POPC   D2A50680   1.019  32.942   6.775
 3963POPC   C3A50681   1.089  33.110   7.146
 3963POPC   C4A50682   1.430  33.397   7.194
 3963POPC   C1B50683   0.994  32.780   6.189
 3963POPC   C2B50684   1.025  32.496   6.543
 3963POPC   C3B50685   1.279  32.527   6.935
 3963POPC   C4B50686   1.168  32.632   7.388
 3964POPC   NC350687   9.117  13.028   5.462
 3964POPC   PO450688   8.507  12.521   5.454
 3964POPC   GL150689   8.823  12.703   5.798
 3964POPC   GL250690   8.838  13.061   5.875
 3964POPC   C1A50691   9.142  12.801   6.179
 3964POPC   D2A50692   9.211  13.048   6.606
 3964POPC   C3A50693   9.000  12.892   7.032
 3964POPC   C4A50694   8.876  12.591   7.363
 3964POPC   C1B50695   8.776  13.154   6.315
 3964POPC   C2B50696   8.540  13.280   6.656
 3964POPC   C3B50697   8.518  13.087   7.025
 3964POPC   C4B50698   8.738  13.095   7.437
 3965POPC   NC350699  12.121   9.633   5.569
 3965POPC   PO450700  11.918   9.133   5.144
 3965POPC   GL150701  11.859   9.174   5.641
 3965POPC   GL250702  12.199   9.166   5.807
 3965POPC   C1A50703  11.829   9.109   6.144
 3965POPC   D2A50704  11.893   8.776   6.469
 3965POPC   C3A50705  11.849   8.851   6.894
 3965POPC   C4A50706  12.085   9.165   7.093
 3965POPC   C1B50707  12.367   8.980   6.196
 3965POPC   C2B50708  12.341   8.930   6.652
 3965POPC   C3B50709  12.319   8.622   6.979
 3965POPC   C4B50710  12.291   8.774   7.394
 3966POPC   NC350711   9.616  10.349   5.286
 3966POPC   PO450712   9.664   9.602   5.329
 3966POPC   GL150713   9.786   9.528   5.782
 3966POPC   GL250714   9.530   9.716   5.900
 3966POPC   C1A50715   9.933   9.764   6.196
 3966POPC   D2A50716  10.138  10.075   6.503
 3966POPC   C3A50717  10.172  10.032   6.979
 3966POPC   C4A50718   9.810  10.123   7.249
 3966POPC   C1B50719   9.548   9.419   6.230
 3966POPC   C2B50720   9.757   9.489   6.584
 3966POPC   C3B50721   9.762   9.708   6.941
 3966POPC   C4B50722   9.716   9.606   7.353
 3967POPC   NC350723  22.018   4.826   5.454
 3967POPC   PO450724  21.882   5.461   5.619
 3967POPC   GL150725  22.176   5.191   5.862
 3967POPC   GL250726  22.274   4.842   5.911
 3967POPC   C1A50727  22.462   5.254   6.168
 3967POPC   D2A50728  22.353   5.454   6.496
 3967POPC   C3A50729  22.457   5.281   6.851
 3967POPC   C4A50730  22.179   5.364   7.150
 3967POPC   C1B50731  21.855   4.927   6.159
 3967POPC   C2B50732  21.729   4.843   6.607
 3967POPC   C3B50733  21.981   4.926   6.995
 3967POPC   C4B50734  22.391   4.894   7.183
 3968POPC   NC350735   3.463  25.643   5.556
 3968POPC   PO450736   3.690  24.961   5.293
 3968POPC   GL150737   3.728  25.160   5.684
 3968POPC   GL250738   3.368  25.146   5.684
 3968POPC   C1A50739   3.877  25.147   6.144
 3968POPC   D2A50740   3.670  25.211   6.557
 3968POPC   C3A50741   3.870  25.059   6.956
 3968POPC   C4A50742   3.788  25.131   7.397
 3968POPC   C1B50743   3.383  25.292   6.107
 3968POPC   C2B50744   3.153  25.411   6.436
 3968POPC   C3B50745   3.230  25.352   6.843
 3968POPC   C4B50746   3.325  25.486   7.240
 3969POPC   NC350747  22.113  32.850   5.238
 3969POPC   PO450748  22.418  33.414   5.351
 3969POPC   GL150749  22.386  33.024   5.653
 3969POPC   GL250750  22.024  32.909   5.731
 3969POPC   C1A50751  22.392  32.846   6.095
 3969POPC   D2A50752  22.552  32.994   6.507
 3969POPC   C3A50753  22.296  32.970   6.889
 3969POPC   C4A50754  22.138  32.795   7.297
 3969POPC   C1B50755  21.989  33.272   5.989
 3969POPC   C2B50756  22.128  33.239   6.405
 3969POPC   C3B50757  22.118  33.453   6.789
 3969POPC   C4B50758  21.972  33.254   7.160
 3970POPC   NC350759  17.443  11.218   5.418
 3970POPC   PO450760  18.092  10.944   5.401
 3970POPC   GL150761  17.785  10.872   5.739
 3970POPC   GL250762  17.850  11.195   5.893
 3970POPC   C1A50763  17.592  10.823   6.165
 3970POPC   D2A50764  17.589  10.991   6.606
 3970POPC   C3A50765  17.240  11.218   6.836
 3970POPC   C4A50766  17.232  11.158   7.276
 3970POPC   C1B50767  17.989  11.282   6.334
 3970POPC   C2B50768  17.782  11.462   6.705
 3970POPC   C3B50769  17.652  11.383   7.105
 3970POPC   C4B50770  17.346  11.644   7.274
 3971POPC   NC350771  24.966  26.155   5.329
 3971POPC   PO450772  25.593  25.923   5.268
 3971POPC   GL150773  25.397  25.937   5.736
 3971POPC   GL250774  25.155  26.216   5.828
 3971POPC   C1A50775  25.335  25.855   6.224
 3971POPC   D2A50776  25.138  26.013   6.637
 3971POPC   C3A50777  25.212  26.101   7.097
 3971POPC   C4A50778  25.157  26.194   7.544
 3971POPC   C1B50779  25.518  26.332   6.093
 3971POPC   C2B50780  25.665  26.222   6.496
 3971POPC   C3B50781  25.562  26.402   6.889
 3971POPC   C4B50782  25.317  26.645   7.235
 3972POPC   NC350783   7.850  28.279   5.367
 3972POPC   PO450784   8.436  28.724   5.162
 3972POPC   GL150785   8.190  28.622   5.561
 3972POPC   GL250786   8.456  28.487   5.781
 3972POPC   C1A50787   7.988  28.481   5.997
 3972POPC   D2A50788   8.004  28.258   6.434
 3972POPC   C3A50789   8.278  28.462   6.766
 3972POPC   C4A50790   8.298  28.491   7.215
 3972POPC   C1B50791   8.429  28.151   6.112
 3972POPC   C2B50792   8.544  28.065   6.542
 3972POPC   C3B50793   8.299  27.946   6.891
 3972POPC   C4B50794   8.342  27.981   7.306
 3973POPC   NC350795  16.389  42.167   5.106
 3973POPC   PO450796  15.881  42.481   5.491
 3973POPC   GL150797  15.924  42.360   5.950
 3973POPC   GL250798  16.265  42.465   6.038
 3973POPC   C1A50799  15.989  42.114   6.340
 3973POPC   D2A50800  15.818  41.835   6.670
 3973POPC   C3A50801  15.881  41.985   7.074
 3973POPC   C4A50802  15.832  42.088   7.500
 3973POPC   C1B50803  16.361  42.480   6.457
 3973POPC   C2B50804  16.156  42.331   6.777
 3973POPC   C3B50805  16.163  42.555   7.093
 3973POPC   C4B50806  15.977  42.577   7.436
 3974POPC   NC350807  28.643   2.867   5.146
 3974POPC   PO450808  28.140   2.400   5.151
 3974POPC   GL150809  28.235   2.561   5.613
 3974POPC   GL250810  28.253   2.944   5.738
 3974POPC   C1A50811  28.307   2.519   6.095
 3974POPC   D2A50812  28.240   2.718   6.515
 3974POPC   C3A50813  28.517   2.680   6.864
 3974POPC   C4A50814  28.348   2.525   7.230
 3974POPC   C1B50815  28.433   3.030   6.168
 3974POPC   C2B50816  28.432   3.173   6.640
 3974POPC   C3B50817  28.398   3.145   7.090
 3974POPC   C4B50818  28.237   3.009   7.491
 3975POPC   NC350819  38.217   3.112   5.326
 3975POPC   PO450820  38.621   3.539   5.535
 3975POPC   GL150821  38.473   3.644   5.898
 3975POPC   GL250822  38.140   3.580   5.833
 3975POPC   C1A50823  38.542   3.816   6.273
 3975POPC   D2A50824  38.834   3.725   6.597
 3975POPC   C3A50825  38.674   3.832   6.993
 3975POPC   C4A50826  38.733   3.462   7.231
 3975POPC   C1B50827  38.176   3.458   6.282
 3975POPC   C2B50828  38.320   3.569   6.702
 3975POPC   C3B50829  38.238   3.507   7.126
 3975POPC   C4B50830  38.072   3.201   7.386
 3976POPC   NC350831  34.598  14.646   5.368
 3976POPC   PO450832  34.610  13.968   5.436
 3976POPC   GL150833  34.658  14.240   5.807
 3976POPC   GL250834  34.383  14.490   5.787
 3976POPC   C1A50835  34.454  14.265   6.248
 3976POPC   D2A50836  34.356  14.277   6.707
 3976POPC   C3A50837  34.766  14.302   6.917
 3976POPC   C4A50838  34.886  14.382   7.333
 3976POPC   C1B50839  34.426  14.758   6.119
 3976POPC   C2B50840  34.209  14.723   6.494
 3976POPC   C3B50841  34.293  14.807   6.910
 3976POPC   C4B50842  34.375  14.475   7.189
 3977POPC   NC350843   6.702   8.535   5.278
 3977POPC   PO450844   6.407   7.894   5.527
 3977POPC   GL150845   6.461   8.053   5.930
 3977POPC   GL250846   6.707   8.308   5.887
 3977POPC   C1A50847   6.332   8.241   6.310
 3977POPC   D2A50848   6.533   8.495   6.621
 3977POPC   C3A50849   6.459   8.352   7.034
 3977POPC   C4A50850   6.620   7.958   7.219
 3977POPC   C1B50851   6.973   8.358   6.266
 3977POPC   C2B50852   7.045   8.595   6.650
 3977POPC   C3B50853   6.952   8.484   7.082
 3977POPC   C4B50854   6.726   8.375   7.483
 3978POPC   NC350855   1.743  25.170   5.269
 3978POPC   PO450856   2.265  25.611   5.267
 3978POPC   GL150857   2.237  25.320   5.644
 3978POPC   GL250858   1.948  25.123   5.764
 3978POPC   C1A50859   2.296  25.249   6.118
 3978POPC   D2A50860   2.326  25.030   6.531
 3978POPC   C3A50861   2.251  25.191   6.928
 3978POPC   C4A50862   1.932  25.463   7.101
 3978POPC   C1B50863   1.890  24.965   6.215
 3978POPC   C2B50864   1.819  25.168   6.652
 3978POPC   C3B50865   1.607  25.042   7.075
 3978POPC   C4B50866   1.557  25.042   7.570
 3979POPC   NC350867  18.540  25.548   5.392
 3979POPC   PO450868  18.372  24.841   5.392
 3979POPC   GL150869  18.356  25.185   5.714
 3979POPC   GL250870  18.162  25.502   5.760
 3979POPC   C1A50871  18.392  25.241   6.168
 3979POPC   D2A50872  18.349  25.001   6.553
 3979POPC   C3A50873  18.364  25.113   6.981
 3979POPC   C4A50874  18.087  25.154   7.333
 3979POPC   C1B50875  18.121  25.664   6.192
 3979POPC   C2B50876  18.352  25.549   6.594
 3979POPC   C3B50877  18.204  25.589   7.031
 3979POPC   C4B50878  17.799  25.607   7.248
 3980POPC   NC350879  28.559  29.256   5.350
 3980POPC   PO450880  27.865  29.406   5.302
 3980POPC   GL150881  28.115  29.236   5.684
 3980POPC   GL250882  28.423  29.387   5.820
 3980POPC   C1A50883  28.125  29.055   6.131
 3980POPC   D2A50884  27.965  28.911   6.568
 3980POPC   C3A50885  28.146  29.061   6.961
 3980POPC   C4A50886  28.444  28.843   7.237
 3980POPC   C1B50887  28.633  29.269   6.159
 3980POPC   C2B50888  28.439  29.234   6.534
 3980POPC   C3B50889  28.650  29.200   6.880
 3980POPC   C4B50890  28.551  29.346   7.243
 3981POPC   NC350891  24.148  21.730   5.622
 3981POPC   PO450892  24.414  22.272   5.264
 3981POPC   GL150893  24.404  22.180   5.743
 3981POPC   GL250894  24.250  22.451   5.939
 3981POPC   C1A50895  24.506  21.931   6.152
 3981POPC   D2A50896  24.655  21.664   6.513
 3981POPC   C3A50897  24.437  21.899   6.796
 3981POPC   C4A50898  24.460  22.096   7.197
 3981POPC   C1B50899  24.442  22.432   6.337
 3981POPC   C2B50900  24.452  22.406   6.795
 3981POPC   C3B50901  24.772  22.486   7.139
 3981POPC   C4B50902  24.768  22.433   7.606
 3982POPC   NC350903   8.797  31.857   5.087
 3982POPC   PO450904   9.067  32.358   5.456
 3982POPC   GL150905   8.846  32.271   5.835
 3982POPC   GL250906   8.526  32.374   5.844
 3982POPC   C1A50907   8.942  32.205   6.267
 3982POPC   D2A50908   9.259  32.409   6.535
 3982POPC   C3A50909   9.263  32.337   6.951
 3982POPC   C4A50910   9.260  32.320   7.387
 3982POPC   C1B50911   8.474  32.011   6.122
 3982POPC   C2B50912   8.473  31.832   6.542
 3982POPC   C3B50913   8.665  31.702   6.936
 3982POPC   C4B50914   8.857  32.071   7.124
 3983POPC   NC350915  13.449  22.219   5.399
 3983POPC   PO450916  14.036  22.469   5.642
 3983POPC   GL150917  13.757  22.082   5.806
 3983POPC   GL250918  13.358  21.999   5.839
 3983POPC   C1A50919  13.831  21.888   6.218
 3983POPC   D2A50920  13.798  22.194   6.548
 3983POPC   C3A50921  13.957  22.268   6.950
 3983POPC   C4A50922  13.923  22.049   7.332
 3983POPC   C1B50923  13.415  22.205   6.189
 3983POPC   C2B50924  13.316  22.360   6.552
 3983POPC   C3B50925  13.432  22.199   6.923
 3983POPC   C4B50926  13.474  22.266   7.378
 3984POPC   NC350927  15.843  27.061   5.328
 3984POPC   PO450928  16.378  26.672   5.497
 3984POPC   GL150929  16.056  26.800   5.751
 3984POPC   GL250930  16.101  27.122   5.819
 3984POPC   C1A50931  15.943  26.716   6.172
 3984POPC   D2A50932  16.065  26.617   6.615
 3984POPC   C3A50933  15.853  26.641   7.028
 3984POPC   C4A50934  15.887  26.818   7.474
 3984POPC   C1B50935  15.726  27.181   6.061
 3984POPC   C2B50936  15.734  27.077   6.475
 3984POPC   C3B50937  15.807  27.132   6.885
 3984POPC   C4B50938  15.531  27.087   7.205
 3985POPC   NC350939  34.007  39.756   5.453
 3985POPC   PO450940  33.621  40.335   5.533
 3985POPC   GL150941  33.688  39.991   5.833
 3985POPC   GL250942  34.051  40.040   5.910
 3985POPC   C1A50943  33.723  39.911   6.282
 3985POPC   D2A50944  34.026  40.034   6.605
 3985POPC   C3A50945  33.839  39.935   6.997
 3985POPC   C4A50946  33.704  39.724   7.375
 3985POPC   C1B50947  34.063  40.408   6.227
 3985POPC   C2B50948  33.982  40.524   6.694
 3985POPC   C3B50949  34.246  40.317   7.043
 3985POPC   C4B50950  34.105  40.062   7.418
 3986POPC   NC350951  31.886  23.241   5.297
 3986POPC   PO450952  31.290  22.845   5.127
 3986POPC   GL150953  31.480  22.904   5.597
 3986POPC   GL250954  31.763  23.079   5.754
 3986POPC   C1A50955  31.373  22.937   6.062
 3986POPC   D2A50956  31.515  22.866   6.459
 3986POPC   C3A50957  31.273  22.946   6.806
 3986POPC   C4A50958  31.327  22.846   7.230
 3986POPC   C1B50959  31.923  23.076   6.162
 3986POPC   C2B50960  31.856  23.253   6.551
 3986POPC   C3B50961  31.737  23.084   6.925
 3986POPC   C4B50962  31.620  23.323   7.266
 3987POPC   NC350963  24.093   7.432   5.386
 3987POPC   PO450964  24.731   7.227   5.488
 3987POPC   GL150965  24.516   7.461   5.857
 3987POPC   GL250966  24.778   7.679   6.034
 3987POPC   C1A50967  24.290   7.651   6.241
 3987POPC   D2A50968  24.367   7.697   6.701
 3987POPC   C3A50969  24.082   7.519   7.044
 3987POPC   C4A50970  24.210   7.232   7.416
 3987POPC   C1B50971  24.789   7.264   6.245
 3987POPC   C2B50972  24.649   7.206   6.672
 3987POPC   C3B50973  24.601   7.420   7.077
 3987POPC   C4B50974  24.970   7.620   7.179
 3988POPC   NC350975  18.501  30.930   5.468
 3988POPC   PO450976  18.019  30.405   5.471
 3988POPC   GL150977  18.199  30.659   5.772
 3988POPC   GL250978  18.516  30.454   5.749
 3988POPC   C1A50979  18.152  30.867   6.184
 3988POPC   D2A50980  18.380  31.041   6.555
 3988POPC   C3A50981  18.203  31.063   6.983
 3988POPC   C4A50982  18.343  30.850   7.347
 3988POPC   C1B50983  18.331  30.355   6.143
 3988POPC   C2B50984  18.444  30.529   6.499
 3988POPC   C3B50985  18.304  30.546   6.890
 3988POPC   C4B50986  18.390  30.320   7.256
 3989POPC   NC350987  44.983  33.124   5.541
 3989POPC   PO450988   0.534  32.671   5.390
 3989POPC   GL150989   0.384  32.843   5.753
 3989POPC   GL250990   0.138  32.610   5.802
 3989POPC   C1A50991   0.500  33.135   6.074
 3989POPC   D2A50992   0.643  33.052   6.470
 3989POPC   C3A50993   0.449  33.085   6.874
 3989POPC   C4A50994   0.605  33.274   7.244
 3989POPC   C1B50995   0.098  32.818   6.205
 3989POPC   C2B50996   0.023  32.767   6.651
 3989POPC   C3B50997   0.170  32.705   7.081
 3989POPC   C4B50998   0.329  32.901   7.469
 3990POPC   NC350999  36.422  43.570   5.403
 3990POPC   PO451000  37.149  43.832   5.387
 3990POPC   GL151001  37.062  43.809   5.808
 3990POPC   GL251002  36.816  43.598   5.755
 3990POPC   C1A51003  36.844  44.022   6.150
 3990POPC   D2A51004  36.693  44.240   6.526
 3990POPC   C3A51005  36.749  44.066   6.917
 3990POPC   C4A51006  36.614  44.125   7.332
 3990POPC   C1B51007  36.611  43.569   6.109
 3990POPC   C2B51008  36.704  43.667   6.517
 3990POPC   C3B51009  36.926  43.582   6.855
 3990POPC   C4B51010  36.734  43.626   7.225
 3991POPC   NC351011   7.849   8.908   5.572
 3991POPC   PO451012   8.510   9.041   5.320
 3991POPC   GL151013   8.330   9.072   5.745
 3991POPC   GL251014   8.258   8.732   5.920
 3991POPC   C1A51015   8.062   9.162   6.128
 3991POPC   D2A51016   8.001   8.968   6.526
 3991POPC   C3A51017   7.992   9.153   6.907
 3991POPC   C4A51018   7.786   9.139   7.292
 3991POPC   C1B51019   8.509   8.929   6.298
 3991POPC   C2B51020   8.443   8.952   6.777
 3991POPC   C3B51021   8.364   8.709   7.124
 3991POPC   C4B51022   8.703   8.832   7.357
 3992POPC   NC351023  39.811  22.812   5.548
 3992POPC   PO451024  40.483  22.712   5.486
 3992POPC   GL151025  40.250  22.821   5.872
 3992POPC   GL251026  39.975  23.106   5.931
 3992POPC   C1A51027  40.290  22.915   6.300
 3992POPC   D2A51028  40.025  23.056   6.628
 3992POPC   C3A51029  40.183  22.942   7.028
 3992POPC   C4A51030  40.106  23.102   7.438
 3992POPC   C1B51031  39.662  23.297   6.225
 3992POPC   C2B51032  39.584  23.354   6.673
 3992POPC   C3B51033  39.787  23.264   7.065
 3992POPC   C4B51034  39.693  22.866   7.295
 3993POPC   NC351035  32.949  33.323   5.280
 3993POPC   PO451036  32.881  32.647   5.423
 3993POPC   GL151037  33.056  32.852   5.755
 3993POPC   GL251038  33.402  32.732   5.765
 3993POPC   C1A51039  32.906  33.032   6.137
 3993POPC   D2A51040  32.947  33.276   6.507
 3993POPC   C3A51041  32.859  33.062   6.877
 3993POPC   C4A51042  33.012  32.947   7.255
 3993POPC   C1B51043  33.303  32.701   6.180
 3993POPC   C2B51044  33.183  32.815   6.557
 3993POPC   C3B51045  33.181  32.607   6.919
 3993POPC   C4B51046  33.303  32.360   7.277
 3994POPC   NC351047   9.670  36.133   5.312
 3994POPC   PO451048  10.355  36.150   5.378
 3994POPC   GL151049   9.946  36.151   5.745
 3994POPC   GL251050   9.538  36.276   5.779
 3994POPC   C1A51051   9.757  36.040   6.175
 3994POPC   D2A51052   9.825  35.833   6.568
 3994POPC   C3A51053   9.700  35.979   6.968
 3994POPC   C4A51054   9.779  35.826   7.387
 3994POPC   C1B51055   9.354  36.397   6.189
 3994POPC   C2B51056   9.397  36.238   6.603
 3994POPC   C3B51057   9.319  36.346   7.024
 3994POPC   C4B51058   9.619  36.337   7.355
 3995POPC   NC351059  12.315  14.577   5.030
 3995POPC   PO451060  11.981  14.025   5.460
 3995POPC   GL151061  12.111  14.224   5.845
 3995POPC   GL251062  12.095  14.521   5.678
 3995POPC   C1A51063  12.166  14.317   6.329
 3995POPC   D2A51064  12.499  14.436   6.597
 3995POPC   C3A51065  12.508  14.316   7.004
 3995POPC   C4A51066  12.446  14.675   7.284
 3995POPC   C1B51067  11.852  14.608   6.085
 3995POPC   C2B51068  11.856  14.700   6.535
 3995POPC   C3B51069  12.093  14.642   6.906
 3995POPC   C4B51070  12.052  14.314   7.213
 3996POPC   NC351071  10.967  11.420   5.518
 3996POPC   PO451072  11.553  11.479   5.246
 3996POPC   GL151073  11.420  11.373   5.788
 3996POPC   GL251074  11.550  11.577   6.093
 3996POPC   C1A51075  11.180  11.219   6.172
 3996POPC   D2A51076  11.238  11.386   6.604
 3996POPC   C3A51077  11.050  11.154   6.936
 3996POPC   C4A51078  11.124  10.966   7.321
 3996POPC   C1B51079  11.697  11.154   6.248
 3996POPC   C2B51080  11.764  11.005   6.687
 3996POPC   C3B51081  11.546  11.164   7.077
 3996POPC   C4B51082  11.435  11.574   7.311
 3997POPC   NC351083  38.804  15.499   5.410
 3997POPC   PO451084  38.361  15.008   5.529
 3997POPC   GL151085  38.441  15.046   5.913
 3997POPC   GL251086  38.724  14.835   5.925
 3997POPC   C1A51087  38.450  15.320   6.272
 3997POPC   D2A51088  38.633  15.301   6.676
 3997POPC   C3A51089  38.389  15.462   6.986
 3997POPC   C4A51090  38.171  15.209   7.219
 3997POPC   C1B51091  38.811  14.947   6.356
 3997POPC   C2B51092  38.687  14.797   6.770
 3997POPC   C3B51093  38.642  15.028   7.166
 3997POPC   C4B51094  38.762  14.869   7.611
 3998POPC   NC351095  14.291  16.974   5.619
 3998POPC   PO451096  13.938  16.474   5.398
 3998POPC   GL151097  14.227  16.412   5.800
 3998POPC   GL251098  14.556  16.581   5.880
 3998POPC   C1A51099  14.182  16.580   6.260
 3998POPC   D2A51100  14.157  16.906   6.613
 3998POPC   C3A51101  14.203  16.678   6.995
 3998POPC   C4A51102  14.478  16.303   7.072
 3998POPC   C1B51103  14.647  16.839   6.268
 3998POPC   C2B51104  14.628  16.694   6.691
 3998POPC   C3B51105  14.726  16.782   7.104
 3998POPC   C4B51106  14.681  17.065   7.433
 3999POPC   NC351107  24.028  36.042   5.189
 3999POPC   PO451108  23.613  36.355   5.615
 3999POPC   GL151109  23.669  36.035   5.864
 3999POPC   GL251110  23.615  35.715   5.679
 3999POPC   C1A51111  23.788  36.176   6.267
 3999POPC   D2A51112  23.534  36.385   6.577
 3999POPC   C3A51113  23.689  36.210   6.958
 3999POPC   C4A51114  23.745  36.229   7.388
 3999POPC   C1B51115  23.768  35.608   6.112
 3999POPC   C2B51116  23.680  35.765   6.523
 3999POPC   C3B51117  23.600  35.679   6.906
 3999POPC   C4B51118  23.669  35.727   7.291
 4000POPC   NC351119  23.469  12.043   5.526
 4000POPC   PO451120  22.893  12.399   5.192
 4000POPC   GL151121  22.723  12.397   5.637
 4000POPC   GL251122  22.882  12.049   5.741
 4000POPC   C1A51123  22.708  12.428   6.089
 4000POPC   D2A51124  22.975  12.497   6.460
 4000POPC   C3A51125  23.039  12.280   6.866
 4000POPC   C4A51126  23.164  12.045   7.251
 4000POPC   C1B51127  22.622  11.897   6.088
 4000POPC   C2B51128  22.643  12.052   6.497
 4000POPC   C3B51129  22.659  11.913   6.904
 4000POPC   C4B51130  22.534  12.024   7.270
 4001POPC   NC351131  44.046   0.357   5.135
 4001POPC   PO451132  44.003  44.711   5.342
 4001POPC   GL151133  44.128  44.681   5.764
 4001POPC   GL251134  43.782  44.601   5.821
 4001POPC   C1A51135  44.063  44.795   6.194
 4001POPC   D2A51136  43.902  44.828   6.581
 4001POPC   C3A51137  44.148  44.844   6.951
 4001POPC   C4A51138  44.088  44.758   7.335
 4001POPC   C1B51139  43.742  44.359   6.180
 4001POPC   C2B51140  43.636  44.320   6.584
 4001POPC   C3B51141  43.736  44.519   6.957
 4001POPC   C4B51142  43.740  44.335   7.341
 4002POPC   NC351143  34.459  38.183   5.437
 4002POPC   PO451144  34.914  38.678   5.269
 4002POPC   GL151145  34.760  38.630   5.731
 4002POPC   GL251146  34.390  38.706   5.777
 4002POPC   C1A51147  34.688  38.375   6.139
 4002POPC   D2A51148  34.611  38.175   6.554
 4002POPC   C3A51149  34.643  38.341   6.953
 4002POPC   C4A51150  34.474  38.200   7.307
 4002POPC   C1B51151  34.278  38.684   6.222
 4002POPC   C2B51152  34.447  38.688   6.655
 4002POPC   C3B51153  34.370  38.710   7.168
 4002POPC   C4B51154  34.358  38.546   7.657
 4003POPC   NC351155   0.167  15.502   5.203
 4003POPC   PO451156   0.853  15.424   5.393
 4003POPC   GL151157   0.664  15.230   5.800
 4003POPC   GL251158   0.403  14.935   5.792
 4003POPC   C1A51159   0.457  15.234   6.240
 4003POPC   D2A51160   0.388  15.132   6.701
 4003POPC   C3A51161   0.458  15.317   7.141
 4003POPC   C4A51162   0.783  15.512   7.439
 4003POPC   C1B51163   0.146  14.792   6.156
 4003POPC   C2B51164  44.944  14.908   6.570
 4003POPC   C3B51165   0.024  15.003   7.034
 4003POPC   C4B51166   0.232  14.815   7.390
 4004POPC   NC351167  32.800  21.143   5.551
 4004POPC   PO451168  33.304  21.441   5.348
 4004POPC   GL151169  33.136  21.459   5.787
 4004POPC   GL251170  32.777  21.613   5.785
 4004POPC   C1A51171  33.098  21.249   6.214
 4004POPC   D2A51172  32.922  21.359   6.624
 4004POPC   C3A51173  32.969  21.217   7.042
 4004POPC   C4A51174  33.284  21.364   7.297
 4004POPC   C1B51175  32.611  21.482   6.201
 4004POPC   C2B51176  32.506  21.678   6.603
 4004POPC   C3B51177  32.695  21.667   7.007
 4004POPC   C4B51178  32.679  21.652   7.444
 4005POPC   NC351179  15.109  37.391   5.439
 4005POPC   PO451180  15.518  37.915   5.454
 4005POPC   GL151181  15.363  37.659   5.822
 4005POPC   GL251182  15.018  37.625   5.885
 4005POPC   C1A51183  15.485  37.657   6.245
 4005POPC   D2A51184  15.307  37.790   6.606
 4005POPC   C3A51185  15.502  37.664   6.972
 4005POPC   C4A51186  15.316  37.581   7.318
 4005POPC   C1B51187  15.008  37.425   6.235
 4005POPC   C2B51188  14.778  37.381   6.576
 4005POPC   C3B51189  14.992  37.485   6.931
 4005POPC   C4B51190  14.863  37.756   7.250
 4006POPC   NC351191  24.101  12.550   5.553
 4006POPC   PO451192  23.923  11.861   5.357
 4006POPC   GL151193  23.914  12.075   5.766
 4006POPC   GL251194  23.903  11.698   5.843
 4006POPC   C1A51195  23.777  12.308   6.184
 4006POPC   D2A51196  23.467  12.173   6.536
 4006POPC   C3A51197  23.585  12.244   6.964
 4006POPC   C4A51198  23.907  12.210   7.281
 4006POPC   C1B51199  23.657  11.806   6.180
 4006POPC   C2B51200  23.628  11.669   6.582
 4006POPC   C3B51201  23.486  11.744   6.952
 4006POPC   C4B51202  23.649  11.778   7.297
 4007POPC   NC351203  33.678  19.289   5.436
 4007POPC   PO451204  33.914  18.654   5.206
 4007POPC   GL151205  33.955  18.793   5.678
 4007POPC   GL251206  34.028  19.145   5.767
 4007POPC   C1A51207  33.901  18.790   6.162
 4007POPC   D2A51208  34.064  18.952   6.565
 4007POPC   C3A51209  33.983  18.785   6.980
 4007POPC   C4A51210  33.853  19.027   7.337
 4007POPC   C1B51211  33.781  19.293   6.107
 4007POPC   C2B51212  33.726  19.369   6.535
 4007POPC   C3B51213  33.911  19.328   6.921
 4007POPC   C4B51214  33.924  19.539   7.277
 4008POPC   NC351215  26.854   5.170   5.361
 4008POPC   PO451216  26.566   4.570   5.442
 4008POPC   GL151217  26.759   4.837   5.844
 4008POPC   GL251218  26.788   5.237   5.876
 4008POPC   C1A51219  27.066   4.948   6.213
 4008POPC   D2A51220  27.008   5.229   6.556
 4008POPC   C3A51221  26.932   5.094   6.951
 4008POPC   C4A51222  27.128   4.840   7.252
 4008POPC   C1B51223  26.593   5.133   6.289
 4008POPC   C2B51224  26.499   5.321   6.732
 4008POPC   C3B51225  26.488   5.192   7.194
 4008POPC   C4B51226  26.447   5.257   7.672
 4009POPC   NC351227  10.909  37.362   5.624
 4009POPC   PO451228  10.501  36.940   5.161
 4009POPC   GL151229  10.513  36.955   5.655
 4009POPC   GL251230  10.810  36.913   5.860
 4009POPC   C1A51231  10.278  36.950   6.085
 4009POPC   D2A51232  10.112  36.872   6.539
 4009POPC   C3A51233  10.472  36.809   6.872
 4009POPC   C4A51234  10.468  36.661   7.306
 4009POPC   C1B51235  10.891  37.105   6.274
 4009POPC   C2B51236  10.822  37.220   6.705
 4009POPC   C3B51237  10.880  37.083   7.127
 4009POPC   C4B51238  10.810  36.990   7.558
 4010POPC   NC351239   0.028  44.035   5.397
 4010POPC   PO451240  44.581  43.617   5.169
 4010POPC   GL151241  44.641  43.743   5.623
 4010POPC   GL251242  44.648  43.476   5.837
 4010POPC   C1A51243  44.734  44.039   6.018
 4010POPC   D2A51244  44.716  44.334   6.372
 4010POPC   C3A51245  44.632  44.174   6.790
 4010POPC   C4A51246  44.691  44.134   7.237
 4010POPC   C1B51247  44.472  43.639   6.216
 4010POPC   C2B51248  44.611  43.697   6.616
 4010POPC   C3B51249  44.478  43.727   7.033
 4010POPC   C4B51250  44.767  43.640   7.374
 4011POPC   NC351251   8.422  19.978   5.248
 4011POPC   PO451252   7.965  20.248   5.628
 4011POPC   GL151253   7.925  19.943   5.973
 4011POPC   GL251254   7.877  19.565   5.940
 4011POPC   C1A51255   8.044  20.021   6.397
 4011POPC   D2A51256   8.358  19.817   6.655
 4011POPC   C3A51257   8.259  19.976   7.051
 4011POPC   C4A51258   8.467  20.188   7.350
 4011POPC   C1B51259   8.066  19.525   6.328
 4011POPC   C2B51260   7.928  19.570   6.757
 4011POPC   C3B51261   8.096  19.513   7.151
 4011POPC   C4B51262   7.956  19.517   7.583
 4012POPC   NC351263  44.501  44.884   5.439
 4012POPC   PO451264  44.593  44.213   5.426
 4012POPC   GL151265  44.668  44.511   5.782
 4012POPC   GL251266  44.895  44.819   5.744
 4012POPC   C1A51267  44.564  44.783   6.134
 4012POPC   D2A51268  44.456  44.754   6.570
 4012POPC   C3A51269  44.641  44.634   7.008
 4012POPC   C4A51270  44.574  44.559   7.468
 4012POPC   C1B51271   0.060  44.721   6.160
 4012POPC   C2B51272  44.970  44.715   6.595
 4012POPC   C3B51273   0.062  44.935   6.956
 4012POPC   C4B51274   0.016  44.898   7.372
 4013POPC   NC351275   1.312   9.469   5.390
 4013POPC   PO451276   1.353  10.156   5.304
 4013POPC   GL151277   1.317   9.915   5.669
 4013POPC   GL251278   0.979   9.806   5.696
 4013POPC   C1A51279   1.359   9.911   6.114
 4013POPC   D2A51280   1.196   9.752   6.507
 4013POPC   C3A51281   1.270   9.893   6.931
 4013POPC   C4A51282   1.396   9.968   7.350
 4013POPC   C1B51283   0.827   9.769   6.111
 4013POPC   C2B51284   0.690   9.737   6.519
 4013POPC   C3B51285   0.899   9.516   6.878
 4013POPC   C4B51286   0.973   9.672   7.301
 4014POPC   NC351287  41.157   4.381   5.311
 4014POPC   PO451288  41.775   4.143   5.519
 4014POPC   GL151289  41.559   4.492   5.732
 4014POPC   GL251290  41.229   4.639   5.746
 4014POPC   C1A51291  41.639   4.614   6.147
 4014POPC   D2A51292  41.806   4.314   6.435
 4014POPC   C3A51293  41.742   4.419   6.836
 4014POPC   C4A51294  41.695   4.734   7.101
 4014POPC   C1B51295  41.193   4.361   6.109
 4014POPC   C2B51296  41.304   4.499   6.552
 4014POPC   C3B51297  41.276   4.461   7.017
 4014POPC   C4B51298  41.387   4.003   7.124
 4015POPC   NC351299  12.468  34.866   5.365
 4015POPC   PO451300  13.018  34.438   5.593
 4015POPC   GL151301  13.020  34.724   5.956
 4015POPC   GL251302  12.767  34.904   5.780
 4015POPC   C1A51303  13.172  34.654   6.369
 4015POPC   D2A51304  13.099  34.607   6.793
 4015POPC   C3A51305  12.767  34.367   6.940
 4015POPC   C4A51306  12.910  34.260   7.335
 4015POPC   C1B51307  12.551  34.854   6.149
 4015POPC   C2B51308  12.698  34.816   6.544
 4015POPC   C3B51309  12.598  34.856   6.929
 4015POPC   C4B51310  12.759  34.734   7.326
 4016POPC   NC351311  29.197  31.315   5.253
 4016POPC   PO451312  29.621  31.711   5.479
 4016POPC   GL151313  29.261  31.702   5.783
 4016POPC   GL251314  29.135  31.365   5.746
 4016POPC   C1A51315  29.355  31.733   6.239
 4016POPC   D2A51316  29.441  31.414   6.538
 4016POPC   C3A51317  29.494  31.534   6.948
 4016POPC   C4A51318  29.341  31.378   7.332
 4016POPC   C1B51319  29.023  31.364   6.153
 4016POPC   C2B51320  28.946  31.562   6.555
 4016POPC   C3B51321  29.054  31.298   6.887
 4016POPC   C4B51322  28.821  31.072   7.158
 4017POPC   NC351323  30.405  24.653   5.432
 4017POPC   PO451324  31.041  24.378   5.454
 4017POPC   GL151325  30.816  24.607   5.762
 4017POPC   GL251326  30.546  24.399   5.855
 4017POPC   C1A51327  30.806  24.701   6.207
 4017POPC   D2A51328  31.083  24.760   6.586
 4017POPC   C3A51329  30.877  24.716   7.007
 4017POPC   C4A51330  30.669  24.595   7.431
 4017POPC   C1B51331  30.744  24.201   6.220
 4017POPC   C2B51332  30.708  24.371   6.630
 4017POPC   C3B51333  30.596  24.272   7.041
 4017POPC   C4B51334  30.847  24.084   7.375
 4018POPC   NC351335  31.819   7.638   5.398
 4018POPC   PO451336  31.400   7.159   5.473
 4018POPC   GL151337  31.583   7.401   5.801
 4018POPC   GL251338  31.488   7.761   5.758
 4018POPC   C1A51339  31.596   7.236   6.203
 4018POPC   D2A51340  31.368   7.186   6.553
 4018POPC   C3A51341  31.564   7.198   6.952
 4018POPC   C4A51342  31.333   7.241   7.322
 4018POPC   C1B51343  31.585   7.869   6.151
 4018POPC   C2B51344  31.546   7.673   6.521
 4018POPC   C3B51345  31.712   7.734   6.900
 4018POPC   C4B51346  31.822   7.512   7.268
 4019POPC   NC351347   0.942  24.005   5.224
 4019POPC   PO451348   1.337  24.537   5.410
 4019POPC   GL151349   1.328  24.674   5.814
 4019POPC   GL251350   1.409  24.319   5.878
 4019POPC   C1A51351   1.322  24.652   6.251
 4019POPC   D2A51352   1.559  24.742   6.573
 4019POPC   C3A51353   1.483  24.516   6.907
 4019POPC   C4A51354   1.423  24.632   7.330
 4019POPC   C1B51355   1.147  24.181   6.244
 4019POPC   C2B51356   1.077  24.256   6.676
 4019POPC   C3B51357   1.032  24.391   7.107
 4019POPC   C4B51358   1.059  24.347   7.555
 4020POPC   NC351359  31.131  16.111   5.085
 4020POPC   PO451360  31.591  15.856   5.539
 4020POPC   GL151361  31.528  15.887   5.947
 4020POPC   GL251362  31.527  16.249   5.962
 4020POPC   C1A51363  31.385  15.644   6.304
 4020POPC   D2A51364  31.512  15.465   6.688
 4020POPC   C3A51365  31.444  15.678   7.052
 4020POPC   C4A51366  31.054  15.760   7.104
 4020POPC   C1B51367  31.228  16.143   6.297
 4020POPC   C2B51368  31.285  16.050   6.716
 4020POPC   C3B51369  31.414  16.200   7.101
 4020POPC   C4B51370  31.813  16.382   7.241
 4021POPC   NC351371  36.260  41.991   5.451
 4021POPC   PO451372  35.951  41.503   5.126
 4021POPC   GL151373  36.183  41.467   5.594
 4021POPC   GL251374  36.267  41.730   5.861
 4021POPC   C1A51375  36.088  41.316   6.059
 4021POPC   D2A51376  35.979  41.200   6.498
 4021POPC   C3A51377  36.345  41.202   6.781
 4021POPC   C4A51378  36.257  41.284   7.200
 4021POPC   C1B51379  36.113  41.794   6.280
 4021POPC   C2B51380  36.076  41.667   6.713
 4021POPC   C3B51381  36.090  41.806   7.129
 4021POPC   C4B51382  35.843  42.037   7.387
 4022POPC   NC351383  40.469  10.245   5.470
 4022POPC   PO451384  39.767  10.333   5.529
 4022POPC   GL151385  39.856  10.570   5.891
 4022POPC   GL251386  40.243  10.578   5.863
 4022POPC   C1A51387  39.979  10.564   6.300
 4022POPC   D2A51388  40.206  10.388   6.613
 4022POPC   C3A51389  40.029  10.252   6.971
 4022POPC   C4A51390  39.801  10.327   7.326
 4022POPC   C1B51391  40.406  10.801   6.219
 4022POPC   C2B51392  40.226  10.905   6.622
 4022POPC   C3B51393  40.141  10.758   7.036
 4022POPC   C4B51394  40.273  10.529   7.409
 4023POPC   NC351395  43.743   5.588   5.423
 4023POPC   PO451396  44.474   5.542   5.412
 4023POPC   GL151397  44.177   5.605   5.806
 4023POPC   GL251398  43.893   5.858   5.830
 4023POPC   C1A51399  44.088   5.703   6.266
 4023POPC   D2A51400  44.109   5.927   6.661
 4023POPC   C3A51401  44.230   5.714   7.026
 4023POPC   C4A51402  44.139   6.062   7.232
 4023POPC   C1B51403  43.605   5.645   6.107
 4023POPC   C2B51404  43.633   5.527   6.522
 4023POPC   C3B51405  43.713   5.718   6.927
 4023POPC   C4B51406  43.663   5.945   7.317
 4024POPC   NC351407   1.940  36.981   5.376
 4024POPC   PO451408   2.491  36.572   5.436
 4024POPC   GL151409   2.155  36.688   5.760
 4024POPC   GL251410   2.278  37.002   5.915
 4024POPC   C1A51411   1.817  36.912   6.070
 4024POPC   D2A51412   1.919  37.116   6.470
 4024POPC   C3A51413   1.817  36.941   6.868
 4024POPC   C4A51414   1.957  37.115   7.280
 4024POPC   C1B51415   2.447  36.658   6.221
 4024POPC   C2B51416   2.433  36.584   6.697
 4024POPC   C3B51417   2.270  36.789   7.053
 4024POPC   C4B51418   2.219  36.768   7.525
 4025POPC   NC351419  35.099  25.297   5.566
 4025POPC   PO451420  35.473  24.952   5.123
 4025POPC   GL151421  35.555  24.961   5.644
 4025POPC   GL251422  35.561  25.309   5.780
 4025POPC   C1A51423  35.406  24.972   6.135
 4025POPC   D2A51424  35.109  25.137   6.497
 4025POPC   C3A51425  35.221  25.026   6.946
 4025POPC   C4A51426  34.962  24.923   7.286
 4025POPC   C1B51427  35.380  25.494   6.164
 4025POPC   C2B51428  35.275  25.672   6.547
 4025POPC   C3B51429  35.068  25.584   6.925
 4025POPC   C4B51430  35.309  25.763   7.232
 4026POPC   NC351431   7.536  10.007   5.597
 4026POPC   PO451432   7.622   9.318   5.462
 4026POPC   GL151433   7.496   9.519   5.848
 4026POPC   GL251434   7.147   9.597   5.799
 4026POPC   C1A51435   7.458   9.824   6.225
 4026POPC   D2A51436   7.729  10.007   6.553
 4026POPC   C3A51437   7.579  10.046   6.989
 4026POPC   C4A51438   7.164  10.101   7.212
 4026POPC   C1B51439   7.123   9.423   6.206
 4026POPC   C2B51440   7.288   9.555   6.626
 4026POPC   C3B51441   7.267   9.624   7.077
 4026POPC   C4B51442   7.003   9.641   7.443
 4027POPC   NC351443  36.242  14.022   5.380
 4027POPC   PO451444  36.015  14.587   5.341
 4027POPC   GL151445  35.986  14.319   5.699
 4027POPC   GL251446  36.121  14.593   5.873
 4027POPC   C1A51447  35.873  14.197   6.114
 4027POPC   D2A51448  36.109  14.324   6.507
 4027POPC   C3A51449  35.917  14.186   6.906
 4027POPC   C4A51450  36.028  14.087   7.317
 4027POPC   C1B51451  36.480  14.663   6.142
 4027POPC   C2B51452  36.556  14.857   6.546
 4027POPC   C3B51453  36.555  14.607   6.920
 4027POPC   C4B51454  36.190  14.544   7.178
 4028POPC   NC351455  13.437  10.457   5.545
 4028POPC   PO451456  12.835  10.673   5.475
 4028POPC   GL151457  12.810  10.349   5.802
 4028POPC   GL251458  13.159  10.257   5.933
 4028POPC   C1A51459  12.761  10.393   6.241
 4028POPC   D2A51460  12.831  10.637   6.605
 4028POPC   C3A51461  12.967  10.359   6.911
 4028POPC   C4A51462  12.813  10.285   7.312
 4028POPC   C1B51463  13.194  10.691   6.119
 4028POPC   C2B51464  13.250  10.931   6.500
 4028POPC   C3B51465  13.234  10.829   6.914
 4028POPC   C4B51466  13.168  11.017   7.319
 4029POPC   NC351467  19.394  36.099   5.287
 4029POPC   PO451468  18.802  36.269   5.290
 4029POPC   GL151469  18.823  36.263   5.760
 4029POPC   GL251470  19.032  35.961   5.820
 4029POPC   C1A51471  18.843  36.174   6.244
 4029POPC   D2A51472  19.138  35.982   6.524
 4029POPC   C3A51473  19.058  35.891   6.946
 4029POPC   C4A51474  18.850  36.135   7.239
 4029POPC   C1B51475  19.300  36.289   6.010
 4029POPC   C2B51476  19.304  36.474   6.426
 4029POPC   C3B51477  19.422  36.323   6.825
 4029POPC   C4B51478  19.376  36.213   7.251
 4030POPC   NC351479  13.904  12.664   5.619
 4030POPC   PO451480  14.413  13.103   5.367
 4030POPC   GL151481  14.405  12.852   5.709
 4030POPC   GL251482  14.405  12.496   5.583
 4030POPC   C1A51483  14.444  12.981   6.155
 4030POPC   D2A51484  14.218  13.128   6.529
 4030POPC   C3A51485  14.414  13.089   6.881
 4030POPC   C4A51486  14.618  13.152   7.274
 4030POPC   C1B51487  14.358  12.480   6.060
 4030POPC   C2B51488  14.208  12.632   6.469
 4030POPC   C3B51489  14.324  12.560   6.885
 4030POPC   C4B51490  14.236  12.750   7.238
 4031POPC   NC351491  14.459  10.850   5.543
 4031POPC   PO451492  14.759  10.370   5.209
 4031POPC   GL151493  14.391  10.351   5.649
 4031POPC   GL251494  14.504  10.534   5.976
 4031POPC   C1A51495  14.194  10.181   6.110
 4031POPC   D2A51496  14.435  10.333   6.530
 4031POPC   C3A51497  14.339  10.179   6.979
 4031POPC   C4A51498  14.269  10.338   7.430
 4031POPC   C1B51499  14.650  10.759   6.313
 4031POPC   C2B51500  14.437  10.884   6.648
 4031POPC   C3B51501  14.436  10.682   7.025
 4031POPC   C4B51502  14.362  10.841   7.394
 4032POPC   NC351503  35.897  43.936   5.085
 4032POPC   PO451504  35.290  43.941   5.334
 4032POPC   GL151505  35.300  43.990   5.757
 4032POPC   GL251506  35.590  43.777   5.780
 4032POPC   C1A51507  35.283  44.125   6.196
 4032POPC   D2A51508  35.091  43.913   6.549
 4032POPC   C3A51509  35.267  44.019   6.931
 4032POPC   C4A51510  35.286  44.205   7.321
 4032POPC   C1B51511  35.362  43.633   6.149
 4032POPC   C2B51512  35.534  43.681   6.574
 4032POPC   C3B51513  35.283  43.489   6.899
 4032POPC   C4B51514  35.204  43.620   7.309
 4033POPC   NC351515  10.756  14.813   5.547
 4033POPC   PO451516  10.153  15.087   5.395
 4033POPC   GL151517  10.342  15.049   5.759
 4033POPC   GL251518  10.518  15.368   5.720
 4033POPC   C1A51519  10.405  14.906   6.191
 4033POPC   D2A51520  10.614  15.000   6.566
 4033POPC   C3A51521  10.418  14.944   6.965
 4033POPC   C4A51522  10.662  14.988   7.345
 4033POPC   C1B51523  10.654  15.349   6.155
 4033POPC   C2B51524  10.467  15.484   6.544
 4033POPC   C3B51525  10.588  15.440   6.976
 4033POPC   C4B51526  10.639  15.574   7.405
 4034POPC   NC351527   5.252   5.339   5.390
 4034POPC   PO451528   5.479   4.656   5.363
 4034POPC   GL151529   5.308   4.949   5.738
 4034POPC   GL251530   5.014   4.848   5.934
 4034POPC   C1A51531   5.239   5.285   6.112
 4034POPC   D2A51532   5.149   5.480   6.537
 4034POPC   C3A51533   5.145   5.269   6.953
 4034POPC   C4A51534   4.836   5.141   7.274
 4034POPC   C1B51535   5.363   4.809   6.236
 4034POPC   C2B51536   5.258   4.819   6.669
 4034POPC   C3B51537   5.469   4.857   7.029
 4034POPC   C4B51538   5.390   4.916   7.442
 4035POPC   NC351539  28.434  35.951   5.327
 4035POPC   PO451540  28.010  36.429   5.480
 4035POPC   GL151541  28.217  36.071   5.765
 4035POPC   GL251542  28.594  36.121   5.788
 4035POPC   C1A51543  28.348  35.836   6.161
 4035POPC   D2A51544  28.136  35.961   6.550
 4035POPC   C3A51545  28.359  35.936   6.951
 4035POPC   C4A51546  28.272  35.987   7.379
 4035POPC   C1B51547  28.415  36.337   6.157
 4035POPC   C2B51548  28.514  36.307   6.558
 4035POPC   C3B51549  28.606  36.460   6.934
 4035POPC   C4B51550  28.654  36.280   7.277
 4036POPC   NC351551  25.919  30.191   5.491
 4036POPC   PO451552  25.805  29.549   5.317
 4036POPC   GL151553  25.773  29.715   5.745
 4036POPC   GL251554  26.128  29.804   5.801
 4036POPC   C1A51555  25.825  29.704   6.210
 4036POPC   D2A51556  25.751  29.933   6.563
 4036POPC   C3A51557  25.854  29.972   6.973
 4036POPC   C4A51558  25.864  30.109   7.381
 4036POPC   C1B51559  26.167  30.076   6.180
 4036POPC   C2B51560  26.311  30.073   6.623
 4036POPC   C3B51561  26.320  30.139   7.072
 4036POPC   C4B51562  26.383  30.027   7.502
 4037POPC   NC351563   8.946  17.538   5.312
 4037POPC   PO451564   9.451  17.217   5.297
 4037POPC   GL151565   9.075  17.254   5.713
 4037POPC   GL251566   8.759  17.519   5.788
 4037POPC   C1A51567   8.919  17.237   6.200
 4037POPC   D2A51568   9.130  17.007   6.595
 4037POPC   C3A51569   9.002  17.086   7.025
 4037POPC   C4A51570   8.758  17.416   7.213
 4037POPC   C1B51571   8.639  17.733   6.191
 4037POPC   C2B51572   8.601  17.800   6.669
 4037POPC   C3B51573   8.893  17.904   7.037
 4037POPC   C4B51574   8.967  17.931   7.489
 4038POPC   NC351575   0.037   0.571   5.155
 4038POPC   PO451576   0.646   0.907   5.350
 4038POPC   GL151577   0.529   0.615   5.698
 4038POPC   GL251578   0.781   0.368   5.842
 4038POPC   C1A51579   0.319   0.428   6.077
 4038POPC   D2A51580   0.331   0.593   6.502
 4038POPC   C3A51581   0.397   0.355   6.883
 4038POPC   C4A51582   0.140   0.370   7.235
 4038POPC   C1B51583   0.727   0.703   6.179
 4038POPC   C2B51584   0.836   0.762   6.610
 4038POPC   C3B51585   0.646   0.768   7.033
 4038POPC   C4B51586   0.685   0.452   7.380
 4039POPC   NC351587   3.750  12.223   5.428
 4039POPC   PO451588   3.068  12.124   5.454
 4039POPC   GL151589   3.420  11.911   5.728
 4039POPC   GL251590   3.747  11.665   5.722
 4039POPC   C1A51591   3.537  11.961   6.170
 4039POPC   D2A51592   3.329  12.083   6.564
 4039POPC   C3A51593   3.466  12.398   6.857
 4039POPC   C4A51594   3.612  12.373   7.258
 4039POPC   C1B51595   3.884  11.593   6.176
 4039POPC   C2B51596   3.886  11.868   6.569
 4039POPC   C3B51597   3.680  11.906   6.978
 4039POPC   C4B51598   3.869  11.624   7.292
 4040POPC   NC351599  18.766  28.527   5.157
 4040POPC   PO451600  19.329  28.278   5.406
 4040POPC   GL151601  19.143  28.454   5.821
 4040POPC   GL251602  18.777  28.514   5.818
 4040POPC   C1A51603  18.937  28.368   6.264
 4040POPC   D2A51604  18.943  28.577   6.648
 4040POPC   C3A51605  19.019  28.443   7.080
 4040POPC   C4A51606  18.772  28.201   7.431
 4040POPC   C1B51607  18.595  28.775   6.212
 4040POPC   C2B51608  18.693  29.002   6.595
 4040POPC   C3B51609  18.679  28.810   7.030
 4040POPC   C4B51610  18.723  28.712   7.467
 4041POPC   NC351611  16.967  29.677   5.522
 4041POPC   PO451612  17.048  29.043   5.510
 4041POPC   GL151613  17.149  29.220   5.884
 4041POPC   GL251614  16.968  29.523   6.016
 4041POPC   C1A51615  17.082  29.016   6.276
 4041POPC   D2A51616  16.757  29.078   6.579
 4041POPC   C3A51617  16.847  29.144   7.014
 4041POPC   C4A51618  16.509  28.952   7.252
 4041POPC   C1B51619  16.523  29.404   6.182
 4041POPC   C2B51620  16.261  29.313   6.563
 4041POPC   C3B51621  16.388  29.406   6.993
 4041POPC   C4B51622  16.271  29.383   7.434
 4042POPC   NC351623  36.542  12.658   5.414
 4042POPC   PO451624  37.060  13.108   5.429
 4042POPC   GL151625  36.949  12.904   5.835
 4042POPC   GL251626  36.882  12.545   5.801
 4042POPC   C1A51627  36.814  12.834   6.287
 4042POPC   D2A51628  36.688  13.043   6.704
 4042POPC   C3A51629  36.957  12.905   7.044
 4042POPC   C4A51630  37.164  12.492   7.102
 4042POPC   C1B51631  36.635  12.344   6.125
 4042POPC   C2B51632  36.437  12.501   6.441
 4042POPC   C3B51633  36.716  12.515   6.780
 4042POPC   C4B51634  36.665  12.378   7.195
 4043POPC   NC351635  24.179   5.891   5.579
 4043POPC   PO451636  23.521   5.641   5.407
 4043POPC   GL151637  23.671   5.801   5.780
 4043POPC   GL251638  23.900   5.529   5.825
 4043POPC   C1A51639  23.688   6.062   6.169
 4043POPC   D2A51640  23.551   6.089   6.605
 4043POPC   C3A51641  23.840   6.130   6.948
 4043POPC   C4A51642  24.142   6.131   7.286
 4043POPC   C1B51643  23.721   5.551   6.255
 4043POPC   C2B51644  23.772   5.637   6.710
 4043POPC   C3B51645  23.652   5.633   7.150
 4043POPC   C4B51646  23.483   5.549   7.565
 4044POPC   NC351647  27.276  43.730   5.382
 4044POPC   PO451648  27.327  44.383   5.706
 4044POPC   GL151649  27.490  43.987   5.804
 4044POPC   GL251650  27.786  43.897   5.705
 4044POPC   C1A51651  27.410  43.866   6.208
 4044POPC   D2A51652  27.437  44.194   6.477
 4044POPC   C3A51653  27.407  44.100   6.900
 4044POPC   C4A51654  27.212  43.766   7.087
 4044POPC   C1B51655  27.857  44.091   6.135
 4044POPC   C2B51656  27.836  43.878   6.518
 4044POPC   C3B51657  27.701  43.664   6.847
 4044POPC   C4B51658  27.803  43.855   7.200
 4045POPC   NC351659   0.711  43.831   5.656
 4045POPC   PO451660   1.240  43.841   5.196
 4045POPC   GL151661   1.275  43.959   5.683
 4045POPC   GL251662   1.188  43.662   5.823
 4045POPC   C1A51663   1.352  43.996   6.189
 4045POPC   D2A51664   1.560  43.888   6.622
 4045POPC   C3A51665   1.331  43.959   7.038
 4045POPC   C4A51666   1.011  43.953   7.417
 4045POPC   C1B51667   1.028  43.553   6.222
 4045POPC   C2B51668   1.066  43.771   6.598
 4045POPC   C3B51669   0.951  43.639   6.979
 4045POPC   C4B51670   1.007  43.392   7.285
 4046POPC   NC351671  10.327   7.795   5.380
 4046POPC   PO451672  10.280   7.135   5.410
 4046POPC   GL151673  10.608   7.336   5.648
 4046POPC   GL251674  10.689   7.673   5.748
 4046POPC   C1A51675  10.599   7.212   6.076
 4046POPC   D2A51676  10.664   7.246   6.513
 4046POPC   C3A51677  10.421   7.170   6.885
 4046POPC   C4A51678  10.393   7.348   7.325
 4046POPC   C1B51679  10.607   7.732   6.193
 4046POPC   C2B51680  10.449   7.724   6.623
 4046POPC   C3B51681  10.648   7.656   7.009
 4046POPC   C4B51682  10.723   7.806   7.437
 4047POPC   NC351683   1.279  10.599   5.385
 4047POPC   PO451684   0.799  10.879   5.717
 4047POPC   GL151685   1.102  10.539   5.872
 4047POPC   GL251686   1.456  10.390   5.812
 4047POPC   C1A51687   1.218  10.488   6.299
 4047POPC   D2A51688   1.065  10.802   6.600
 4047POPC   C3A51689   0.996  10.676   7.005
 4047POPC   C4A51690   1.043  10.294   7.202
 4047POPC   C1B51691   1.555  10.782   6.015
 4047POPC   C2B51692   1.548  10.864   6.456
 4047POPC   C3B51693   1.515  10.809   6.902
 4047POPC   C4B51694   1.554  10.459   7.158
 4048POPC   NC351695  43.663  23.252   5.566
 4048POPC   PO451696  43.571  22.627   5.688
 4048POPC   GL151697  43.828  22.890   5.932
 4048POPC   GL251698  44.048  23.192   6.033
 4048POPC   C1A51699  43.699  23.021   6.324
 4048POPC   D2A51700  43.949  23.159   6.629
 4048POPC   C3A51701  43.824  22.936   6.956
 4048POPC   C4A51702  44.134  23.080   7.230
 4048POPC   C1B51703  44.157  22.776   6.290
 4048POPC   C2B51704  44.232  22.489   6.644
 4048POPC   C3B51705  44.182  22.583   7.074
 4048POPC   C4B51706  44.137  22.668   7.523
 4049POPC   NC351707   5.117  22.685   5.392
 4049POPC   PO451708   4.997  23.362   5.414
 4049POPC   GL151709   5.211  23.136   5.787
 4049POPC   GL251710   5.294  22.761   5.850
 4049POPC   C1A51711   5.084  23.075   6.228
 4049POPC   D2A51712   4.900  23.185   6.603
 4049POPC   C3A51713   5.085  23.125   7.015
 4049POPC   C4A51714   5.427  23.128   7.323
 4049POPC   C1B51715   5.082  22.563   6.240
 4049POPC   C2B51716   5.011  22.673   6.699
 4049POPC   C3B51717   5.181  22.624   7.131
 4049POPC   C4B51718   5.103  22.514   7.567
 4050POPC   NC351719  43.630   2.122   5.155
 4050POPC   PO451720  44.078   1.646   5.371
 4050POPC   GL151721  43.852   1.843   5.717
 4050POPC   GL251722  43.611   2.118   5.657
 4050POPC   C1A51723  43.748   1.992   6.126
 4050POPC   D2A51724  43.955   2.098   6.477
 4050POPC   C3A51725  43.785   1.987   6.852
 4050POPC   C4A51726  43.935   1.956   7.253
 4050POPC   C1B51727  43.472   2.407   5.982
 4050POPC   C2B51728  43.526   2.393   6.433
 4050POPC   C3B51729  43.600   2.492   6.853
 4050POPC   C4B51730  43.555   2.292   7.223
 4051POPC   NC351731  30.628  30.560   5.476
 4051POPC   PO451732  31.223  30.711   5.251
 4051POPC   GL151733  30.998  30.878   5.673
 4051POPC   GL251734  30.651  31.016   5.729
 4051POPC   C1A51735  30.829  30.782   6.133
 4051POPC   D2A51736  31.044  30.765   6.546
 4051POPC   C3A51737  30.841  30.895   6.942
 4051POPC   C4A51738  30.968  30.805   7.359
 4051POPC   C1B51739  30.538  31.231   6.162
 4051POPC   C2B51740  30.375  31.122   6.593
 4051POPC   C3B51741  30.360  31.141   7.042
 4051POPC   C4B51742  30.639  31.201   7.356
 4052POPC   NC351743   6.247  28.704   5.520
 4052POPC   PO451744   5.761  28.261   5.416
 4052POPC   GL151745   5.866  28.499   5.795
 4052POPC   GL251746   5.548  28.621   5.851
 4052POPC   C1A51747   6.123  28.666   6.173
 4052POPC   D2A51748   6.129  28.880   6.581
 4052POPC   C3A51749   5.907  28.617   6.826
 4052POPC   C4A51750   6.070  28.335   7.122
 4052POPC   C1B51751   5.611  28.248   6.149
 4052POPC   C2B51752   5.747  28.212   6.535
 4052POPC   C3B51753   5.657  28.115   6.947
 4052POPC   C4B51754   5.511  28.083   7.355
 4053POPC   NC351755  19.919   9.364   5.317
 4053POPC   PO451756  19.783  10.052   5.374
 4053POPC   GL151757  19.714   9.738   5.723
 4053POPC   GL251758  20.031   9.626   5.774
 4053POPC   C1A51759  19.660   9.830   6.204
 4053POPC   D2A51760  19.727  10.086   6.601
 4053POPC   C3A51761  19.679  10.023   7.050
 4053POPC   C4A51762  19.781   9.785   7.447
 4053POPC   C1B51763  20.047   9.494   6.207
 4053POPC   C2B51764  19.988   9.635   6.629
 4053POPC   C3B51765  19.769   9.504   7.007
 4053POPC   C4B51766  19.811   9.181   7.316
 4054POPC   NC351767  42.151  28.976   5.490
 4054POPC   PO451768  42.480  29.488   5.249
 4054POPC   GL151769  42.471  29.491   5.725
 4054POPC   GL251770  42.512  29.114   5.813
 4054POPC   C1A51771  42.602  29.425   6.181
 4054POPC   D2A51772  42.765  29.179   6.532
 4054POPC   C3A51773  42.525  29.242   6.897
 4054POPC   C4A51774  42.300  29.398   7.217
 4054POPC   C1B51775  42.289  28.953   6.205
 4054POPC   C2B51776  42.321  28.839   6.648
 4054POPC   C3B51777  42.153  28.916   7.042
 4054POPC   C4B51778  42.044  29.038   7.437
 4055POPC   NC351779  42.639  35.280   5.095
 4055POPC   PO451780  43.259  34.996   5.337
 4055POPC   GL151781  42.988  35.273   5.570
 4055POPC   GL251782  43.197  35.466   5.807
 4055POPC   C1A51783  42.789  35.244   6.003
 4055POPC   D2A51784  42.733  35.174   6.454
 4055POPC   C3A51785  43.086  35.337   6.719
 4055POPC   C4A51786  43.056  35.351   7.181
 4055POPC   C1B51787  43.305  35.202   6.201
 4055POPC   C2B51788  43.513  34.996   6.566
 4055POPC   C3B51789  43.425  35.049   7.020
 4055POPC   C4B51790  43.345  35.136   7.524
 4056POPC   NC351791  15.631  15.134   5.312
 4056POPC   PO451792  14.965  15.199   5.324
 4056POPC   GL151793  15.113  15.192   5.746
 4056POPC   GL251794  15.357  15.431   5.737
 4056POPC   C1A51795  15.141  15.025   6.188
 4056POPC   D2A51796  15.230  15.171   6.596
 4056POPC   C3A51797  15.223  15.006   6.991
 4056POPC   C4A51798  15.301  14.960   7.425
 4056POPC   C1B51799  15.400  15.474   6.183
 4056POPC   C2B51800  15.423  15.643   6.613
 4056POPC   C3B51801  15.454  15.486   7.030
 4056POPC   C4B51802  15.434  15.443   7.463
 4057POPC   NC351803  16.142  26.325   5.283
 4057POPC   PO451804  15.634  25.850   5.476
 4057POPC   GL151805  15.923  25.955   5.781
 4057POPC   GL251806  16.062  26.284   5.799
 4057POPC   C1A51807  15.985  25.875   6.199
 4057POPC   D2A51808  15.784  26.099   6.515
 4057POPC   C3A51809  15.878  26.097   6.948
 4057POPC   C4A51810  15.621  26.170   7.308
 4057POPC   C1B51811  16.285  26.303   6.198
 4057POPC   C2B51812  16.310  26.164   6.625
 4057POPC   C3B51813  16.311  26.392   7.022
 4057POPC   C4B51814  16.066  26.362   7.405
 4058POPC   NC351815  14.898  40.790   5.456
 4058POPC   PO451816  15.418  40.361   5.588
 4058POPC   GL151817  15.125  40.595   5.890
 4058POPC   GL251818  15.056  40.958   5.902
 4058POPC   C1A51819  15.071  40.691   6.340
 4058POPC   D2A51820  15.319  40.873   6.666
 4058POPC   C3A51821  15.271  40.662   7.027
 4058POPC   C4A51822  14.945  40.695   7.282
 4058POPC   C1B51823  15.285  41.161   6.226
 4058POPC   C2B51824  15.028  41.289   6.581
 4058POPC   C3B51825  14.982  41.134   7.004
 4058POPC   C4B51826  15.325  41.130   7.213
 4059POPC   NC351827  41.551  27.904   5.328
 4059POPC   PO451828  41.300  27.319   5.160
 4059POPC   GL151829  41.370  27.518   5.641
 4059POPC   GL251830  41.714  27.455   5.747
 4059POPC   C1A51831  41.479  27.719   6.112
 4059POPC   D2A51832  41.710  27.568   6.521
 4059POPC   C3A51833  41.608  27.724   6.957
 4059POPC   C4A51834  41.696  27.821   7.419
 4059POPC   C1B51835  41.537  27.212   6.118
 4059POPC   C2B51836  41.232  27.280   6.481
 4059POPC   C3B51837  41.369  27.246   6.916
 4059POPC   C4B51838  41.649  27.326   7.290
 4060POPC   NC351839  16.945  20.150   5.519
 4060POPC   PO451840  16.580  19.648   5.415
 4060POPC   GL151841  16.722  19.749   5.809
 4060POPC   GL251842  16.542  20.049   5.862
 4060POPC   C1A51843  16.698  19.704   6.264
 4060POPC   D2A51844  16.884  19.906   6.620
 4060POPC   C3A51845  16.750  19.686   6.991
 4060POPC   C4A51846  16.944  19.876   7.328
 4060POPC   C1B51847  16.336  20.087   6.263
 4060POPC   C2B51848  16.371  19.941   6.673
 4060POPC   C3B51849  16.574  20.150   7.014
 4060POPC   C4B51850  16.434  20.104   7.405
 4061POPC   NC351851  30.392  18.166   5.367
 4061POPC   PO451852  30.861  18.649   5.347
 4061POPC   GL151853  30.778  18.328   5.719
 4061POPC   GL251854  30.441  18.174   5.873
 4061POPC   C1A51855  30.846  18.239   6.171
 4061POPC   D2A51856  30.903  18.484   6.553
 4061POPC   C3A51857  30.821  18.284   6.924
 4061POPC   C4A51858  30.632  18.010   7.176
 4061POPC   C1B51859  30.379  18.415   6.277
 4061POPC   C2B51860  30.380  18.511   6.706
 4061POPC   C3B51861  30.352  18.561   7.146
 4061POPC   C4B51862  30.391  18.312   7.479
 4062POPC   NC351863   6.715  29.262   5.464
 4062POPC   PO451864   6.671  28.637   5.678
 4062POPC   GL151865   6.511  28.992   5.901
 4062POPC   GL251866   6.574  29.367   5.935
 4062POPC   C1A51867   6.562  29.050   6.337
 4062POPC   D2A51868   6.605  29.310   6.668
 4062POPC   C3A51869   6.671  29.052   7.013
 4062POPC   C4A51870   6.332  28.784   7.059
 4062POPC   C1B51871   6.920  29.449   6.241
 4062POPC   C2B51872   7.096  29.443   6.658
 4062POPC   C3B51873   6.844  29.564   7.033
 4062POPC   C4B51874   6.439  29.438   7.256
 4063POPC   NC351875  33.139  43.422   5.088
 4063POPC   PO451876  33.085  42.853   5.230
 4063POPC   GL151877  32.940  42.928   5.736
 4063POPC   GL251878  33.267  42.878   5.932
 4063POPC   C1A51879  32.975  43.260   6.113
 4063POPC   D2A51880  33.174  43.360   6.532
 4063POPC   C3A51881  33.027  43.198   6.926
 4063POPC   C4A51882  33.143  43.199   7.366
 4063POPC   C1B51883  33.004  42.785   6.276
 4063POPC   C2B51884  33.133  42.767   6.676
 4063POPC   C3B51885  33.200  42.699   7.150
 4063POPC   C4B51886  33.308  42.784   7.599
 4064POPC   NC351887  35.929  18.636   5.470
 4064POPC   PO451888  35.767  17.917   5.301
 4064POPC   GL151889  35.997  18.155   5.634
 4064POPC   GL251890  35.993  17.925   5.846
 4064POPC   C1A51891  36.256  18.324   6.021
 4064POPC   D2A51892  36.213  18.304   6.473
 4064POPC   C3A51893  36.004  18.577   6.775
 4064POPC   C4A51894  36.210  18.532   7.151
 4064POPC   C1B51895  35.822  18.070   6.223
 4064POPC   C2B51896  35.588  18.019   6.601
 4064POPC   C3B51897  35.747  18.015   7.025
 4064POPC   C4B51898  36.064  18.105   7.343
 4065POPC   NC351899  42.207  26.558   5.625
 4065POPC   PO451900  42.627  27.043   5.448
 4065POPC   GL151901  42.480  26.942   5.811
 4065POPC   GL251902  42.697  26.655   5.796
 4065POPC   C1A51903  42.320  26.959   6.215
 4065POPC   D2A51904  42.045  27.000   6.554
 4065POPC   C3A51905  42.349  26.992   6.880
 4065POPC   C4A51906  42.154  27.057   7.285
 4065POPC   C1B51907  42.869  26.941   6.132
 4065POPC   C2B51908  42.759  26.890   6.567
 4065POPC   C3B51909  42.770  26.701   6.972
 4065POPC   C4B51910  42.472  26.664   7.272
 4066POPC   NC351911  27.225  40.828   5.423
 4066POPC   PO451912  26.693  41.273   5.403
 4066POPC   GL151913  26.670  40.937   5.740
 4066POPC   GL251914  26.970  40.780   5.838
 4066POPC   C1A51915  26.625  40.767   6.178
 4066POPC   D2A51916  26.681  40.926   6.568
 4066POPC   C3A51917  26.630  40.649   6.922
 4066POPC   C4A51918  26.458  40.741   7.310
 4066POPC   C1B51919  27.173  40.687   6.216
 4066POPC   C2B51920  27.059  40.605   6.630
 4066POPC   C3B51921  27.228  40.635   7.014
 4066POPC   C4B51922  26.963  40.643   7.336
 4067POPC   NC351923  35.024   1.061   5.648
 4067POPC   PO451924  35.621   0.792   5.497
 4067POPC   GL151925  35.505   1.069   5.815
 4067POPC   GL251926  35.323   0.849   6.044
 4067POPC   C1A51927  35.337   1.335   6.182
 4067POPC   D2A51928  35.194   1.424   6.610
 4067POPC   C3A51929  35.382   1.144   6.898
 4067POPC   C4A51930  35.438   1.072   7.371
 4067POPC   C1B51931  35.001   0.973   6.325
 4067POPC   C2B51932  34.862   0.998   6.728
 4067POPC   C3B51933  35.017   0.894   7.124
 4067POPC   C4B51934  34.970   0.979   7.548
 4068POPC   NC351935  29.857  22.665   5.037
 4068POPC   PO451936  29.686  23.349   5.269
 4068POPC   GL151937  29.777  23.307   5.768
 4068POPC   GL251938  30.158  23.231   5.834
 4068POPC   C1A51939  29.850  23.230   6.257
 4068POPC   D2A51940  29.930  22.840   6.525
 4068POPC   C3A51941  29.882  22.992   6.947
 4068POPC   C4A51942  29.548  23.297   7.111
 4068POPC   C1B51943  30.324  23.028   6.222
 4068POPC   C2B51944  30.327  23.131   6.670
 4068POPC   C3B51945  30.369  23.162   7.139
 4068POPC   C4B51946  30.368  22.980   7.537
 4069POPC   NC351947  24.936  27.732   5.392
 4069POPC   PO451948  24.264  27.652   5.401
 4069POPC   GL151949  24.526  27.697   5.756
 4069POPC   GL251950  24.606  27.404   5.951
 4069POPC   C1A51951  24.557  27.845   6.183
 4069POPC   D2A51952  24.606  27.594   6.543
 4069POPC   C3A51953  24.548  27.791   6.942
 4069POPC   C4A51954  24.770  27.876   7.335
 4069POPC   C1B51955  24.369  27.227   6.235
 4069POPC   C2B51956  24.413  27.112   6.625
 4069POPC   C3B51957  24.718  27.260   6.927
 4069POPC   C4B51958  24.644  27.393   7.306
 4070POPC   NC351959  38.561   2.147   5.237
 4070POPC   PO451960  38.518   1.522   5.506
 4070POPC   GL151961  38.341   1.866   5.811
 4070POPC   GL251962  38.422   2.216   5.724
 4070POPC   C1A51963  38.452   2.070   6.245
 4070POPC   D2A51964  38.216   2.092   6.659
 4070POPC   C3A51965  38.355   1.817   6.990
 4070POPC   C4A51966  38.651   1.599   7.264
 4070POPC   C1B51967  38.218   2.486   6.048
 4070POPC   C2B51968  38.213   2.584   6.492
 4070POPC   C3B51969  38.391   2.509   6.921
 4070POPC   C4B51970  38.259   2.251   7.261
 4071POPC   NC351971   8.492  16.709   5.428
 4071POPC   PO451972   7.848  16.726   5.576
 4071POPC   GL151973   8.164  16.813   5.850
 4071POPC   GL251974   8.371  16.510   5.896
 4071POPC   C1A51975   8.077  16.890   6.265
 4071POPC   D2A51976   8.211  16.735   6.676
 4071POPC   C3A51977   8.016  16.913   7.099
 4071POPC   C4A51978   8.102  16.972   7.587
 4071POPC   C1B51979   8.020  16.397   6.175
 4071POPC   C2B51980   7.881  16.305   6.599
 4071POPC   C3B51981   8.038  16.381   7.005
 4071POPC   C4B51982   8.328  16.189   7.266
 4072POPC   NC351983  17.180   3.956   5.372
 4072POPC   PO451984  17.567   3.422   5.305
 4072POPC   GL151985  17.397   3.443   5.719
 4072POPC   GL251986  17.349   3.793   5.857
 4072POPC   C1A51987  17.525   3.402   6.143
 4072POPC   D2A51988  17.574   3.604   6.545
 4072POPC   C3A51989  17.847   3.389   6.839
 4072POPC   C4A51990  17.755   3.390   7.245
 4072POPC   C1B51991  17.178   3.833   6.299
 4072POPC   C2B51992  17.163   3.789   6.768
 4072POPC   C3B51993  17.354   3.666   7.138
 4072POPC   C4B51994  17.210   3.624   7.554
 4073POPC   NC351995   6.932   7.594   5.527
 4073POPC   PO451996   7.616   7.456   5.482
 4073POPC   GL151997   7.482   7.500   5.887
 4073POPC   GL251998   7.210   7.710   5.939
 4073POPC   C1A51999   7.409   7.385   6.321
 4073POPC   D2A52000   7.361   7.031   6.550
 4073POPC   C3A52001   7.123   7.167   6.889
 4073POPC   C4A52002   7.285   7.277   7.258
 4073POPC   C1B52003   7.233   7.856   6.333
 4073POPC   C2B52004   7.390   7.707   6.720
 4073POPC   C3B52005   7.377   7.753   7.127
 4073POPC   C4B52006   7.018   7.693   7.355
 4074POPC   NC352007   6.564  12.268   5.123
 4074POPC   PO452008   6.500  12.833   5.481
 4074POPC   GL152009   6.906  12.863   5.713
 4074POPC   GL252010   6.974  13.196   5.861
 4074POPC   C1A52011   6.930  12.777   6.154
 4074POPC   D2A52012   6.688  12.899   6.495
 4074POPC   C3A52013   6.842  12.685   6.823
 4074POPC   C4A52014   6.610  12.648   7.166
 4074POPC   C1B52015   6.977  13.303   6.310
 4074POPC   C2B52016   7.078  13.164   6.741
 4074POPC   C3B52017   6.827  13.114   7.137
 4074POPC   C4B52018   6.883  13.300   7.581
 4075POPC   NC352019   6.198  36.275   5.544
 4075POPC   PO452020   6.771  36.488   5.105
 4075POPC   GL152021   6.680  36.055   5.657
 4075POPC   GL252022   6.659  36.300   6.003
 4075POPC   C1A52023   6.384  35.913   6.065
 4075POPC   D2A52024   6.577  36.109   6.452
 4075POPC   C3A52025   6.628  36.056   6.864
 4075POPC   C4A52026   6.454  36.332   7.138
 4075POPC   C1B52027   6.938  36.539   6.241
 4075POPC   C2B52028   7.163  36.562   6.589
 4075POPC   C3B52029   7.148  36.252   6.832
 4075POPC   C4B52030   6.944  36.280   7.187
 4076POPC   NC352031   2.301  42.416   5.404
 4076POPC   PO452032   1.622  42.422   5.455
 4076POPC   GL152033   1.744  42.419   5.868
 4076POPC   GL252034   2.088  42.338   5.856
 4076POPC   C1A52035   1.860  42.483   6.290
 4076POPC   D2A52036   1.740  42.332   6.651
 4076POPC   C3A52037   2.015  42.084   6.826
 4076POPC   C4A52038   2.020  42.268   7.209
 4076POPC   C1B52039   2.205  42.749   6.009
 4076POPC   C2B52040   2.248  42.795   6.446
 4076POPC   C3B52041   2.213  42.579   6.811
 4076POPC   C4B52042   2.274  42.767   7.189
 4077POPC   NC352043  32.905  23.511   5.292
 4077POPC   PO452044  33.156  24.083   5.420
 4077POPC   GL152045  33.056  23.758   5.725
 4077POPC   GL252046  32.711  23.645   5.778
 4077POPC   C1A52047  33.233  23.623   6.104
 4077POPC   D2A52048  33.089  23.650   6.530
 4077POPC   C3A52049  33.372  23.757   6.853
 4077POPC   C4A52050  33.309  23.755   7.303
 4077POPC   C1B52051  32.738  23.851   6.183
 4077POPC   C2B52052  32.642  23.882   6.630
 4077POPC   C3B52053  32.860  23.872   7.043
 4077POPC   C4B52054  32.718  23.808   7.507
 4078POPC   NC352055  13.985  16.032   5.483
 4078POPC   PO452056  14.528  15.666   5.416
 4078POPC   GL152057  14.399  15.858   5.779
 4078POPC   GL252058  14.086  15.713   5.867
 4078POPC   C1A52059  14.542  15.941   6.178
 4078POPC   D2A52060  14.477  16.171   6.550
 4078POPC   C3A52061  14.514  15.832   6.843
 4078POPC   C4A52062  14.691  15.789   7.220
 4078POPC   C1B52063  14.041  16.075   6.153
 4078POPC   C2B52064  13.962  16.131   6.590
 4078POPC   C3B52065  14.003  15.813   6.906
 4078POPC   C4B52066  14.184  15.940   7.289
 4079POPC   NC352067  15.109  38.037   5.598
 4079POPC   PO452068  15.088  38.726   5.510
 4079POPC   GL152069  15.337  38.606   5.847
 4079POPC   GL252070  15.526  38.340   5.745
 4079POPC   C1A52071  15.331  38.635   6.270
 4079POPC   D2A52072  15.167  38.553   6.643
 4079POPC   C3A52073  15.376  38.732   6.969
 4079POPC   C4A52074  15.160  38.653   7.313
 4079POPC   C1B52075  15.427  38.148   6.151
 4079POPC   C2B52076  15.559  38.244   6.564
 4079POPC   C3B52077  15.417  38.178   6.954
 4079POPC   C4B52078  15.178  38.147   7.299
 4080POPC   NC352079  25.131  24.798   5.449
 4080POPC   PO452080  25.457  24.221   5.322
 4080POPC   GL152081  25.402  24.407   5.746
 4080POPC   GL252082  25.288  24.723   5.917
 4080POPC   C1A52083  25.260  24.257   6.154
 4080POPC   D2A52084  25.395  24.266   6.563
 4080POPC   C3A52085  25.118  24.252   6.908
 4080POPC   C4A52086  24.976  24.420   7.271
 4080POPC   C1B52087  25.503  24.723   6.319
 4080POPC   C2B52088  25.349  24.757   6.752
 4080POPC   C3B52089  25.422  24.658   7.165
 4080POPC   C4B52090  25.632  24.924   7.496
 4081POPC   NC352091   9.263  14.579   5.569
 4081POPC   PO452092   8.671  14.360   5.309
 4081POPC   GL152093   8.853  14.303   5.749
 4081POPC   GL252094   8.657  14.046   5.782
 4081POPC   C1A52095   9.035  14.404   6.170
 4081POPC   D2A52096   9.068  14.630   6.567
 4081POPC   C3A52097   9.179  14.492   6.983
 4081POPC   C4A52098   9.105  14.702   7.419
 4081POPC   C1B52099   8.516  14.349   6.116
 4081POPC   C2B52100   8.665  14.270   6.518
 4081POPC   C3B52101   8.531  14.380   6.888
 4081POPC   C4B52102   8.742  14.408   7.242
 4082POPC   NC352103  39.812  39.597   5.683
 4082POPC   PO452104  40.347  39.959   5.562
 4082POPC   GL152105  40.135  39.958   5.943
 4082POPC   GL252106  39.794  40.078   5.893
 4082POPC   C1A52107  40.158  40.190   6.345
 4082POPC   D2A52108  40.403  40.170   6.717
 4082POPC   C3A52109  40.141  39.895   6.968
 4082POPC   C4A52110  40.120  39.695   7.344
 4082POPC   C1B52111  39.760  39.824   6.274
 4082POPC   C2B52112  39.741  39.911   6.668
 4082POPC   C3B52113  39.675  39.672   7.042
 4082POPC   C4B52114  39.626  39.824   7.436
 4083POPC   NC352115  44.480  34.802   5.452
 4083POPC   PO452116  44.981  34.254   5.454
 4083POPC   GL152117  44.779  34.470   5.808
 4083POPC   GL252118  44.449  34.383   5.810
 4083POPC   C1A52119  44.870  34.629   6.238
 4083POPC   D2A52120  44.917  34.837   6.661
 4083POPC   C3A52121  44.845  34.618   7.047
 4083POPC   C4A52122  44.881  34.608   7.501
 4083POPC   C1B52123  44.378  34.689   6.156
 4083POPC   C2B52124  44.352  34.651   6.611
 4083POPC   C3B52125  44.343  34.727   7.060
 4083POPC   C4B52126  44.419  34.431   7.399
 4084POPC   NC352127  24.457  22.659   5.500
 4084POPC   PO452128  24.208  23.220   5.604
 4084POPC   GL152129  24.380  22.968   5.914
 4084POPC   GL252130  24.683  22.887   5.878
 4084POPC   C1A52131  24.374  22.994   6.339
 4084POPC   D2A52132  24.047  23.227   6.548
 4084POPC   C3A52133  24.187  23.289   6.940
 4084POPC   C4A52134  24.124  23.060   7.261
 4084POPC   C1B52135  24.872  22.721   6.220
 4084POPC   C2B52136  24.742  22.768   6.619
 4084POPC   C3B52137  24.513  22.894   6.975
 4084POPC   C4B52138  24.598  22.863   7.417
 4085POPC   NC352139  37.198   8.629   5.421
 4085POPC   PO452140  36.871   9.280   5.361
 4085POPC   GL152141  36.806   9.068   5.792
 4085POPC   GL252142  37.071   8.842   5.959
 4085POPC   C1A52143  36.620   9.026   6.217
 4085POPC   D2A52144  36.723   8.909   6.633
 4085POPC   C3A52145  36.591   9.113   7.009
 4085POPC   C4A52146  36.632   8.900   7.394
 4085POPC   C1B52147  37.089   9.206   6.292
 4085POPC   C2B52148  37.088   9.273   6.754
 4085POPC   C3B52149  37.158   9.221   7.191
 4085POPC   C4B52150  37.080   9.032   7.598
 4086POPC   NC352151   7.553   0.234   5.003
 4086POPC   PO452152   7.961   0.506   5.455
 4086POPC   GL152153   7.591   0.418   5.759
 4086POPC   GL252154   7.229   0.283   5.769
 4086POPC   C1A52155   7.598   0.326   6.213
 4086POPC   D2A52156   7.648   0.064   6.574
 4086POPC   C3A52157   7.636   0.348   6.906
 4086POPC   C4A52158   7.570   0.458   7.322
 4086POPC   C1B52159   7.118   0.499   6.157
 4086POPC   C2B52160   7.246   0.548   6.588
 4086POPC   C3B52161   7.134   0.540   7.031
 4086POPC   C4B52162   7.232   0.831   7.364
 4087POPC   NC352163  28.363  20.102   5.387
 4087POPC   PO452164  28.660  19.440   5.247
 4087POPC   GL152165  28.643  19.622   5.675
 4087POPC   GL252166  28.277  19.723   5.744
 4087POPC   C1A52167  28.580  19.579   6.141
 4087POPC   D2A52168  28.326  19.638   6.548
 4087POPC   C3A52169  28.491  19.534   6.987
 4087POPC   C4A52170  28.789  19.602   7.350
 4087POPC   C1B52171  28.413  20.061   6.058
 4087POPC   C2B52172  28.240  20.130   6.475
 4087POPC   C3B52173  28.273  20.015   6.900
 4087POPC   C4B52174  28.539  20.044   7.257
 4088POPC   NC352175   9.239  38.634   5.428
 4088POPC   PO452176   8.777  38.307   5.224
 4088POPC   GL152177   8.830  38.303   5.727
 4088POPC   GL252178   9.136  38.452   5.907
 4088POPC   C1A52179   8.789  38.335   6.253
 4088POPC   D2A52180   8.913  38.481   6.721
 4088POPC   C3A52181   8.653  38.562   7.129
 4088POPC   C4A52182   8.644  38.867   7.498
 4088POPC   C1B52183   9.297  38.550   6.341
 4088POPC   C2B52184   9.321  38.809   6.722
 4088POPC   C3B52185   9.041  38.929   7.086
 4088POPC   C4B52186   9.153  38.929   7.517
 4089POPC   NC352187  23.967   1.597   5.630
 4089POPC   PO452188  23.759   2.092   5.207
 4089POPC   GL152189  23.722   2.030   5.722
 4089POPC   GL252190  23.398   1.912   5.794
 4089POPC   C1A52191  23.964   1.949   6.165
 4089POPC   D2A52192  24.003   1.715   6.577
 4089POPC   C3A52193  23.943   1.956   6.985
 4089POPC   C4A52194  23.989   2.379   7.185
 4089POPC   C1B52195  23.547   1.669   6.178
 4089POPC   C2B52196  23.529   1.525   6.620
 4089POPC   C3B52197  23.515   1.670   7.045
 4089POPC   C4B52198  23.715   1.806   7.435
 4090POPC   NC352199  17.299  16.682   5.374
 4090POPC   PO452200  17.820  17.037   5.669
 4090POPC   GL152201  17.526  16.781   5.853
 4090POPC   GL252202  17.172  16.876   5.834
 4090POPC   C1A52203  17.515  16.730   6.281
 4090POPC   D2A52204  17.735  17.033   6.505
 4090POPC   C3A52205  17.597  16.943   6.884
 4090POPC   C4A52206  17.595  16.703   7.266
 4090POPC   C1B52207  17.015  16.644   6.213
 4090POPC   C2B52208  17.130  16.539   6.636
 4090POPC   C3B52209  17.127  16.760   7.028
 4090POPC   C4B52210  17.148  16.799   7.509
 4091POPC   NC352211  10.880  40.005   5.389
 4091POPC   PO452212  11.471  39.690   5.420
 4091POPC   GL152213  11.289  39.937   5.722
 4091POPC   GL252214  11.190  39.635   5.902
 4091POPC   C1A52215  11.256  40.099   6.151
 4091POPC   D2A52216  11.055  40.139   6.563
 4091POPC   C3A52217  11.269  40.301   6.943
 4091POPC   C4A52218  11.343  40.310   7.418
 4091POPC   C1B52219  11.226  39.497   6.337
 4091POPC   C2B52220  11.104  39.667   6.749
 4091POPC   C3B52221  11.236  39.844   7.149
 4091POPC   C4B52222  11.221  39.820   7.595
 4092POPC   NC352223   0.739  11.137   5.339
 4092POPC   PO452224   0.404  10.479   5.373
 4092POPC   GL152225   0.299  10.360   5.784
 4092POPC   GL252226   0.636  10.312   5.843
 4092POPC   C1A52227   0.326  10.541   6.225
 4092POPC   D2A52228   0.355  10.726   6.647
 4092POPC   C3A52229   0.506  10.478   7.024
 4092POPC   C4A52230   0.271  10.512   7.444
 4092POPC   C1B52231   0.757  10.262   6.268
 4092POPC   C2B52232   0.908  10.202   6.682
 4092POPC   C3B52233   0.700   9.978   7.003
 4092POPC   C4B52234   0.610  10.117   7.408
 4093POPC   NC352235  41.219  37.950   5.396
 4093POPC   PO452236  41.428  37.284   5.534
 4093POPC   GL152237  41.581  37.657   5.788
 4093POPC   GL252238  41.382  37.982   5.859
 4093POPC   C1A52239  41.808  37.810   6.138
 4093POPC   D2A52240  42.034  37.600   6.470
 4093POPC   C3A52241  41.950  37.762   6.882
 4093POPC   C4A52242  41.682  37.654   7.195
 4093POPC   C1B52243  41.293  37.825   6.234
 4093POPC   C2B52244  41.509  37.714   6.605
 4093POPC   C3B52245  41.273  37.831   6.934
 4093POPC   C4B52246  41.205  37.727   7.329
 4094POPC   NC352247  27.222   3.409   5.513
 4094POPC   PO452248  27.700   3.616   5.149
 4094POPC   GL152249  27.724   3.604   5.689
 4094POPC   GL252250  27.455   3.800   5.850
 4094POPC   C1A52251  27.876   3.797   6.124
 4094POPC   D2A52252  27.635   3.791   6.538
 4094POPC   C3A52253  27.861   3.756   6.910
 4094POPC   C4A52254  27.734   3.697   7.313
 4094POPC   C1B52255  27.451   3.493   6.169
 4094POPC   C2B52256  27.274   3.417   6.569
 4094POPC   C3B52257  27.444   3.414   6.967
 4094POPC   C4B52258  27.446   3.269   7.386
 4095POPC   NC352259   2.379   7.639   5.669
 4095POPC   PO452260   2.902   7.258   5.470
 4095POPC   GL152261   2.861   7.498   5.852
 4095POPC   GL252262   2.973   7.881   5.866
 4095POPC   C1A52263   2.719   7.295   6.222
 4095POPC   D2A52264   2.892   7.023   6.554
 4095POPC   C3A52265   2.769   7.275   6.908
 4095POPC   C4A52266   2.891   7.584   7.223
 4095POPC   C1B52267   2.954   7.760   6.295
 4095POPC   C2B52268   2.582   7.714   6.533
 4095POPC   C3B52269   2.479   7.734   6.950
 4095POPC   C4B52270   2.383   7.507   7.311
 4096POPC   NC352271  30.014  39.554   5.453
 4096POPC   PO452272  29.763  38.902   5.231
 4096POPC   GL152273  29.725  39.156   5.678
 4096POPC   GL252274  29.457  39.015   5.873
 4096POPC   C1A52275  29.852  39.451   6.088
 4096POPC   D2A52276  29.747  39.524   6.562
 4096POPC   C3A52277  29.950  39.514   7.016
 4096POPC   C4A52278  30.045  39.281   7.414
 4096POPC   C1B52279  29.740  38.971   6.192
 4096POPC   C2B52280  30.073  39.106   6.429
 4096POPC   C3B52281  30.088  39.044   6.838
 4096POPC   C4B52282  29.746  39.051   7.086
 4097POPC   NC352283  40.986  37.264   5.382
 4097POPC   PO452284  40.714  37.818   5.371
 4097POPC   GL152285  40.746  37.589   5.732
 4097POPC   GL252286  41.077  37.569   5.789
 4097POPC   C1A52287  40.675  37.792   6.141
 4097POPC   D2A52288  40.557  38.049   6.516
 4097POPC   C3A52289  40.533  37.886   6.945
 4097POPC   C4A52290  40.741  37.918   7.329
 4097POPC   C1B52291  40.999  37.408   6.195
 4097POPC   C2B52292  40.898  37.624   6.584
 4097POPC   C3B52293  40.883  37.507   7.000
 4097POPC   C4B52294  40.870  37.311   7.391
 4098POPC   NC352295  40.844  27.370   5.148
 4098POPC   PO452296  40.250  27.367   5.438
 4098POPC   GL152297  40.597  27.491   5.738
 4098POPC   GL252298  40.891  27.275   5.701
 4098POPC   C1A52299  40.730  27.748   6.125
 4098POPC   D2A52300  40.773  27.592   6.573
 4098POPC   C3A52301  41.048  27.728   6.923
 4098POPC   C4A52302  40.851  27.726   7.327
 4098POPC   C1B52303  40.773  27.232   6.162
 4098POPC   C2B52304  40.727  27.081   6.592
 4098POPC   C3B52305  40.789  27.284   7.022
 4098POPC   C4B52306  41.113  27.166   7.350
 4099POPC   NC352307  15.606  38.834   5.474
 4099POPC   PO452308  16.264  38.534   5.393
 4099POPC   GL152309  16.034  38.391   5.734
 4099POPC   GL252310  16.007  38.742   5.792
 4099POPC   C1A52311  15.830  38.452   6.156
 4099POPC   D2A52312  16.032  38.428   6.552
 4099POPC   C3A52313  15.830  38.481   6.954
 4099POPC   C4A52314  15.623  38.419   7.352
 4099POPC   C1B52315  16.209  38.787   6.201
 4099POPC   C2B52316  16.464  38.710   6.571
 4099POPC   C3B52317  16.221  38.794   6.939
 4099POPC   C4B52318  16.221  38.606   7.331
 4100POPC   NC352319  43.811  34.373   5.148
 4100POPC   PO452320  44.097  33.802   5.332
 4100POPC   GL152321  44.221  33.807   5.761
 4100POPC   GL252322  43.873  33.852   5.852
 4100POPC   C1A52323  44.239  33.780   6.215
 4100POPC   D2A52324  43.992  33.629   6.554
 4100POPC   C3A52325  44.135  33.735   6.940
 4100POPC   C4A52326  43.979  33.725   7.340
 4100POPC   C1B52327  43.585  34.084   6.100
 4100POPC   C2B52328  43.590  34.097   6.531
 4100POPC   C3B52329  43.616  33.867   6.887
 4100POPC   C4B52330  43.568  34.060   7.259
 4101POPC   NC352331  10.313  25.445   5.450
 4101POPC   PO452332  10.931  25.166   5.540
 4101POPC   GL152333  10.573  25.233   5.839
 4101POPC   GL252334  10.216  25.422   5.952
 4101POPC   C1A52335  10.695  25.303   6.239
 4101POPC   D2A52336  10.758  25.440   6.643
 4101POPC   C3A52337  10.561  25.140   6.884
 4101POPC   C4A52338  10.289  25.250   7.188
 4101POPC   C1B52339  10.185  25.348   6.387
 4101POPC   C2B52340  10.249  25.559   6.774
 4101POPC   C3B52341  10.138  25.749   7.195
 4101POPC   C4B52342  10.121  25.536   7.626
 4102POPC   NC352343  26.365   3.057   5.562
 4102POPC   PO452344  25.970   2.594   5.314
 4102POPC   GL152345  25.858   2.636   5.791
 4102POPC   GL252346  26.077   2.883   5.931
 4102POPC   C1A52347  25.780   2.685   6.281
 4102POPC   D2A52348  26.018   2.897   6.624
 4102POPC   C3A52349  26.020   2.671   7.035
 4102POPC   C4A52350  25.667   2.434   7.184
 4102POPC   C1B52351  26.320   2.630   6.227
 4102POPC   C2B52352  26.395   2.563   6.660
 4102POPC   C3B52353  26.454   2.921   6.908
 4102POPC   C4B52354  26.324   3.012   7.337
 4103POPC   NC352355   9.137  36.973   5.207
 4103POPC   PO452356   8.582  36.601   5.474
 4103POPC   GL152357   8.833  36.722   5.821
 4103POPC   GL252358   9.165  36.855   5.718
 4103POPC   C1A52359   8.937  36.730   6.264
 4103POPC   D2A52360   9.103  36.651   6.672
 4103POPC   C3A52361   8.886  36.684   7.052
 4103POPC   C4A52362   8.792  36.694   7.489
 4103POPC   C1B52363   9.283  37.085   6.102
 4103POPC   C2B52364   9.182  37.142   6.544
 4103POPC   C3B52365   9.012  37.177   6.976
 4103POPC   C4B52366   9.122  37.037   7.374
 4104POPC   NC352367  38.266  24.755   5.444
 4104POPC   PO452368  38.301  24.095   5.287
 4104POPC   GL152369  38.452  24.154   5.731
 4104POPC   GL252370  38.614  24.498   5.762
 4104POPC   C1A52371  38.660  24.137   6.155
 4104POPC   D2A52372  38.390  24.279   6.488
 4104POPC   C3A52373  38.490  24.419   6.903
 4104POPC   C4A52374  38.269  24.429   7.282
 4104POPC   C1B52375  38.799  24.664   6.145
 4104POPC   C2B52376  38.672  24.761   6.572
 4104POPC   C3B52377  38.863  24.748   6.999
 4104POPC   C4B52378  38.800  24.467   7.385
 4105POPC   NC352379  16.481  12.522   5.414
 4105POPC   PO452380  16.968  12.866   5.044
 4105POPC   GL152381  16.888  12.802   5.554
 4105POPC   GL252382  16.540  12.928   5.728
 4105POPC   C1A52383  16.877  12.572   5.979
 4105POPC   D2A52384  16.585  12.571   6.366
 4105POPC   C3A52385  16.644  12.650   6.839
 4105POPC   C4A52386  16.635  12.786   7.296
 4105POPC   C1B52387  16.747  13.027   6.127
 4105POPC   C2B52388  16.740  13.068   6.557
 4105POPC   C3B52389  16.664  13.175   6.973
 4105POPC   C4B52390  16.875  13.274   7.361
 4106POPC   NC352391  36.806  37.841   5.375
 4106POPC   PO452392  36.795  37.165   5.342
 4106POPC   GL152393  36.890  37.420   5.716
 4106POPC   GL252394  36.973  37.781   5.838
 4106POPC   C1A52395  36.977  37.373   6.142
 4106POPC   D2A52396  36.929  37.649   6.492
 4106POPC   C3A52397  37.012  37.455   6.910
 4106POPC   C4A52398  36.800  37.426   7.322
 4106POPC   C1B52399  36.647  38.026   6.056
 4106POPC   C2B52400  36.650  38.142   6.470
 4106POPC   C3B52401  36.872  38.036   6.822
 4106POPC   C4B52402  36.789  37.933   7.209
 4107POPC   NC352403   4.037  44.811   5.440
 4107POPC   PO452404   4.668  44.420   5.491
 4107POPC   GL152405   4.430  44.636   5.783
 4107POPC   GL252406   4.114  44.470   5.863
 4107POPC   C1A52407   4.478  44.813   6.187
 4107POPC   D2A52408   4.284  44.670   6.545
 4107POPC   C3A52409   4.366  44.579   6.960
 4107POPC   C4A52410   4.448  44.217   7.237
 4107POPC   C1B52411   3.970  44.827   6.106
 4107POPC   C2B52412   3.907  44.992   6.501
 4107POPC   C3B52413   4.101   0.048   6.871
 4107POPC   C4B52414   3.977  44.928   7.262
 4108POPC   NC352415  19.808  17.924   5.399
 4108POPC   PO452416  19.668  18.600   5.553
 4108POPC   GL152417  19.880  18.262   5.769
 4108POPC   GL252418  20.248  18.252   5.702
 4108POPC   C1A52419  19.893  18.141   6.180
 4108POPC   D2A52420  19.935  18.390   6.562
 4108POPC   C3A52421  19.904  18.130   6.927
 4108POPC   C4A52422  19.739  18.091   7.351
 4108POPC   C1B52423  20.336  18.413   6.125
 4108POPC   C2B52424  20.486  18.471   6.557
 4108POPC   C3B52425  20.290  18.505   6.949
 4108POPC   C4B52426  19.887  18.560   7.205
 4109POPC   NC352427  39.587  41.051   5.407
 4109POPC   PO452428  39.063  40.682   5.394
 4109POPC   GL152429  39.308  40.721   5.770
 4109POPC   GL252430  39.355  41.075   5.855
 4109POPC   C1A52431  39.487  40.671   6.190
 4109POPC   D2A52432  39.516  40.502   6.610
 4109POPC   C3A52433  39.162  40.558   6.899
 4109POPC   C4A52434  39.237  40.661   7.293
 4109POPC   C1B52435  39.070  40.965   6.171
 4109POPC   C2B52436  39.265  40.995   6.587
 4109POPC   C3B52437  39.074  41.054   6.990
 4109POPC   C4B52438  39.126  41.148   7.412
 4110POPC   NC352439  43.312  18.794   5.379
 4110POPC   PO452440  43.104  19.387   5.294
 4110POPC   GL152441  43.066  19.141   5.731
 4110POPC   GL252442  42.722  19.077   5.883
 4110POPC   C1A52443  43.257  18.978   6.133
 4110POPC   D2A52444  43.445  18.816   6.549
 4110POPC   C3A52445  43.299  18.967   6.976
 4110POPC   C4A52446  43.308  18.809   7.409
 4110POPC   C1B52447  42.760  18.894   6.258
 4110POPC   C2B52448  42.927  18.789   6.629
 4110POPC   C3B52449  42.791  18.924   6.979
 4110POPC   C4B52450  42.813  18.724   7.309
 4111POPC   NC352451  38.146  18.090   5.516
 4111POPC   PO452452  38.626  18.442   5.268
 4111POPC   GL152453  38.548  18.342   5.719
 4111POPC   GL252454  38.760  18.037   5.748
 4111POPC   C1A52455  38.193  18.282   6.107
 4111POPC   D2A52456  38.245  18.104   6.524
 4111POPC   C3A52457  38.115  18.398   6.849
 4111POPC   C4A52458  38.276  18.320   7.250
 4111POPC   C1B52459  38.656  18.125   6.177
 4111POPC   C2B52460  38.792  18.115   6.582
 4111POPC   C3B52461  38.671  18.053   6.992
 4111POPC   C4B52462  38.805  18.342   7.331
 4112POPC   NC352463   5.236  25.479   5.465
 4112POPC   PO452464   4.600  25.310   5.518
 4112POPC   GL152465   4.904  25.345   5.824
 4112POPC   GL252466   5.044  25.024   5.769
 4112POPC   C1A52467   5.052  25.428   6.241
 4112POPC   D2A52468   4.940  25.257   6.647
 4112POPC   C3A52469   5.100  25.502   6.997
 4112POPC   C4A52470   5.243  25.382   7.420
 4112POPC   C1B52471   5.275  24.966   6.122
 4112POPC   C2B52472   5.235  24.828   6.543
 4112POPC   C3B52473   5.230  24.990   6.962
 4112POPC   C4B52474   5.169  24.850   7.346
 4113POPC   NC352475   0.767  14.827   5.432
 4113POPC   PO452476   0.132  14.732   5.364
 4113POPC   GL152477   0.316  14.422   5.666
 4113POPC   GL252478   0.648  14.443   5.761
 4113POPC   C1A52479   0.314  14.292   6.125
 4113POPC   D2A52480   0.266  14.463   6.542
 4113POPC   C3A52481   0.361  14.216   6.893
 4113POPC   C4A52482   0.126  14.196   7.278
 4113POPC   C1B52483   0.796  14.467   6.206
 4113POPC   C2B52484   0.696  14.745   6.556
 4113POPC   C3B52485   0.520  14.710   6.977
 4113POPC   C4B52486   0.613  14.413   7.321
 4114POPC   NC352487  14.958   6.877   5.488
 4114POPC   PO452488  15.429   6.400   5.507
 4114POPC   GL152489  15.169   6.584   5.849
 4114POPC   GL252490  14.795   6.529   5.843
 4114POPC   C1A52491  15.284   6.710   6.248
 4114POPC   D2A52492  15.637   6.624   6.518
 4114POPC   C3A52493  15.505   6.670   6.930
 4114POPC   C4A52494  15.306   6.596   7.303
 4114POPC   C1B52495  14.880   6.403   6.279
 4114POPC   C2B52496  15.029   6.580   6.676
 4114POPC   C3B52497  14.882   6.723   7.068
 4114POPC   C4B52498  15.117   7.061   7.229
 4115POPC   NC352499   9.750   7.337   5.479
 4115POPC   PO452500   9.688   6.603   5.450
 4115POPC   GL152501   9.886   6.897   5.713
 4115POPC   GL252502   9.604   7.036   5.866
 4115POPC   C1A52503  10.075   6.981   6.124
 4115POPC   D2A52504  10.023   6.891   6.587
 4115POPC   C3A52505   9.673   6.800   6.881
 4115POPC   C4A52506   9.505   6.907   7.362
 4115POPC   C1B52507   9.583   6.785   6.242
 4115POPC   C2B52508   9.570   6.432   6.524
 4115POPC   C3B52509   9.703   6.280   6.906
 4115POPC   C4B52510   9.774   6.503   7.292
 4116POPC   NC352511  23.920  44.234   5.376
 4116POPC   PO452512  23.672  44.778   5.313
 4116POPC   GL152513  23.850  44.608   5.723
 4116POPC   GL252514  23.615  44.347   5.804
 4116POPC   C1A52515  23.832  44.672   6.195
 4116POPC   D2A52516  23.647  44.526   6.599
 4116POPC   C3A52517  23.627  44.649   7.024
 4116POPC   C4A52518  24.039  44.625   7.207
 4116POPC   C1B52519  23.438  44.285   6.211
 4116POPC   C2B52520  23.388  44.089   6.656
 4116POPC   C3B52521  23.317  44.207   7.096
 4116POPC   C4B52522  23.591  44.338   7.430
 4117POPC   NC352523  44.176  25.746   5.565
 4117POPC   PO452524  44.783  25.905   5.173
 4117POPC   GL152525  44.674  25.874   5.644
 4117POPC   GL252526  44.505  26.184   5.712
 4117POPC   C1A52527  44.728  25.978   6.135
 4117POPC   D2A52528  44.677  26.310   6.481
 4117POPC   C3A52529  44.647  26.241   6.951
 4117POPC   C4A52530  44.593  26.230   7.434
 4117POPC   C1B52531  44.240  26.123   6.080
 4117POPC   C2B52532  44.214  26.066   6.496
 4117POPC   C3B52533  44.207  25.954   6.928
 4117POPC   C4B52534  44.131  26.258   7.254
 4118POPC   NC352535  22.683  35.210   5.372
 4118POPC   PO452536  23.259  35.496   5.312
 4118POPC   GL152537  23.069  35.267   5.700
 4118POPC   GL252538  22.814  35.512   5.776
 4118POPC   C1A52539  22.924  35.190   6.170
 4118POPC   D2A52540  22.790  35.287   6.606
 4118POPC   C3A52541  22.818  35.090   7.003
 4118POPC   C4A52542  23.021  35.380   7.319
 4118POPC   C1B52543  22.810  35.711   6.173
 4118POPC   C2B52544  22.795  35.880   6.567
 4118POPC   C3B52545  22.892  35.703   6.936
 4118POPC   C4B52546  22.727  35.857   7.338
 4119POPC   NC352547  41.101  38.941   5.455
 4119POPC   PO452548  40.490  39.091   5.305
 4119POPC   GL152549  40.525  39.144   5.766
 4119POPC   GL252550  40.898  39.236   5.858
 4119POPC   C1A52551  40.600  38.966   6.183
 4119POPC   D2A52552  40.874  39.087   6.516
 4119POPC   C3A52553  40.737  39.202   6.935
 4119POPC   C4A52554  40.885  39.139   7.354
 4119POPC   C1B52555  40.659  39.474   6.193
 4119POPC   C2B52556  40.418  39.715   6.483
 4119POPC   C3B52557  40.600  39.713   6.876
 4119POPC   C4B52558  40.600  39.566   7.293
 4120POPC   NC352559  32.661  40.647   5.154
 4120POPC   PO452560  32.004  40.732   5.314
 4120POPC   GL152561  32.229  40.824   5.719
 4120POPC   GL252562  32.448  41.088   5.693
 4120POPC   C1A52563  32.333  40.570   6.118
 4120POPC   D2A52564  32.453  40.568   6.549
 4120POPC   C3A52565  32.258  40.652   6.973
 4120POPC   C4A52566  32.396  40.681   7.411
 4120POPC   C1B52567  32.322  41.065   6.144
 4120POPC   C2B52568  32.228  41.028   6.539
 4120POPC   C3B52569  32.476  41.102   6.866
 4120POPC   C4B52570  32.253  41.127   7.228
 4121POPC   NC352571  14.880  39.155   5.439
 4121POPC   PO452572  15.527  39.250   5.288
 4121POPC   GL152573  15.286  39.205   5.736
 4121POPC   GL252574  15.008  39.004   5.923
 4121POPC   C1A52575  15.323  39.318   6.180
 4121POPC   D2A52576  15.357  39.070   6.551
 4121POPC   C3A52577  15.290  39.254   6.928
 4121POPC   C4A52578  15.354  39.135   7.344
 4121POPC   C1B52579  14.896  38.921   6.362
 4121POPC   C2B52580  14.898  38.935   6.833
 4121POPC   C3B52581  14.861  39.057   7.263
 4121POPC   C4B52582  14.842  38.848   7.675
 4122POPC   NC352583  30.902  39.905   5.533
 4122POPC   PO452584  30.329  40.117   5.481
 4122POPC   GL152585  30.575  40.197   5.839
 4122POPC   GL252586  30.574  39.856   5.928
 4122POPC   C1A52587  30.559  40.216   6.282
 4122POPC   D2A52588  30.530  40.011   6.658
 4122POPC   C3A52589  30.755  40.214   6.949
 4122POPC   C4A52590  30.647  40.159   7.332
 4122POPC   C1B52591  30.783  39.750   6.291
 4122POPC   C2B52592  30.815  39.575   6.672
 4122POPC   C3B52593  30.747  39.718   7.059
 4122POPC   C4B52594  30.895  39.575   7.440
 4123POPC   NC352595  25.233   7.029   5.396
 4123POPC   PO452596  24.825   6.459   5.300
 4123POPC   GL152597  24.947   6.592   5.735
 4123POPC   GL252598  24.929   6.909   5.827
 4123POPC   C1A52599  25.290   6.607   6.088
 4123POPC   D2A52600  25.542   6.719   6.484
 4123POPC   C3A52601  25.485   6.849   6.897
 4123POPC   C4A52602  25.208   6.729   7.190
 4123POPC   C1B52603  24.810   6.738   6.226
 4123POPC   C2B52604  24.990   6.775   6.630
 4123POPC   C3B52605  24.865   6.498   6.922
 4123POPC   C4B52606  24.756   6.520   7.349
 4124POPC   NC352607   3.435  31.213   5.218
 4124POPC   PO452608   3.701  30.567   5.378
 4124POPC   GL152609   3.430  30.654   5.707
 4124POPC   GL252610   3.723  30.704   5.887
 4124POPC   C1A52611   3.253  30.450   6.076
 4124POPC   D2A52612   3.343  30.367   6.500
 4124POPC   C3A52613   3.443  30.647   6.828
 4124POPC   C4A52614   3.279  30.589   7.198
 4124POPC   C1B52615   3.537  30.809   6.263
 4124POPC   C2B52616   3.801  30.865   6.560
 4124POPC   C3B52617   3.851  31.064   6.929
 4124POPC   C4B52618   3.508  31.042   7.175
 4125POPC   NC352619  36.552  15.828   5.663
 4125POPC   PO452620  37.156  16.143   5.471
 4125POPC   GL152621  36.946  16.111   5.843
 4125POPC   GL252622  37.045  15.774   5.829
 4125POPC   C1A52623  36.776  15.954   6.272
 4125POPC   D2A52624  36.598  15.894   6.693
 4125POPC   C3A52625  36.800  15.964   7.109
 4125POPC   C4A52626  36.857  16.081   7.568
 4125POPC   C1B52627  37.204  15.637   6.200
 4125POPC   C2B52628  37.085  15.493   6.589
 4125POPC   C3B52629  37.178  15.601   7.018
 4125POPC   C4B52630  37.185  15.751   7.424
 4126POPC   NC352631  41.254  42.658   5.421
 4126POPC   PO452632  41.854  42.343   5.307
 4126POPC   GL152633  41.638  42.373   5.714
 4126POPC   GL252634  41.824  42.699   5.767
 4126POPC   C1A52635  41.430  42.198   6.147
 4126POPC   D2A52636  41.336  42.390   6.596
 4126POPC   C3A52637  41.422  42.166   7.015
 4126POPC   C4A52638  41.645  42.117   7.416
 4126POPC   C1B52639  41.763  42.560   6.187
 4126POPC   C2B52640  41.851  42.339   6.554
 4126POPC   C3B52641  41.853  42.493   6.978
 4126POPC   C4B52642  41.583  42.578   7.276
 4127POPC   NC352643  18.636   9.526   5.294
 4127POPC   PO452644  18.061   9.350   5.287
 4127POPC   GL152645  18.309   9.523   5.678
 4127POPC   GL252646  18.437   9.895   5.620
 4127POPC   C1A52647  18.267   9.663   6.118
 4127POPC   D2A52648  18.054   9.660   6.522
 4127POPC   C3A52649  18.301   9.798   6.882
 4127POPC   C4A52650  18.337   9.584   7.271
 4127POPC   C1B52651  18.661   9.982   5.991
 4127POPC   C2B52652  18.669   9.936   6.458
 4127POPC   C3B52653  18.785  10.048   6.875
 4127POPC   C4B52654  18.726   9.914   7.301
 4128POPC   NC352655   1.074  28.045   5.524
 4128POPC   PO452656   1.642  28.465   5.536
 4128POPC   GL152657   1.471  28.171   5.865
 4128POPC   GL252658   1.129  28.295   5.960
 4128POPC   C1A52659   1.429  28.125   6.337
 4128POPC   D2A52660   1.326  28.422   6.709
 4128POPC   C3A52661   1.582  28.409   7.119
 4128POPC   C4A52662   1.626  28.312   7.584
 4128POPC   C1B52663   0.954  27.950   6.195
 4128POPC   C2B52664   1.067  27.858   6.603
 4128POPC   C3B52665   1.080  28.064   6.976
 4128POPC   C4B52666   1.239  28.039   7.387
 4129POPC   NC352667  34.848   5.837   5.170
 4129POPC   PO452668  35.493   5.935   5.307
 4129POPC   GL152669  35.504   5.859   5.735
 4129POPC   GL252670  35.801   5.647   5.797
 4129POPC   C1A52671  35.208   5.845   6.075
 4129POPC   D2A52672  35.206   5.607   6.434
 4129POPC   C3A52673  35.194   5.771   6.895
 4129POPC   C4A52674  35.285   5.757   7.357
 4129POPC   C1B52675  35.708   5.823   6.211
 4129POPC   C2B52676  35.647   5.720   6.643
 4129POPC   C3B52677  35.691   5.685   7.081
 4129POPC   C4B52678  35.760   5.691   7.529
 4130POPC   NC352679  15.298   0.882   5.441
 4130POPC   PO452680  15.053   0.235   5.472
 4130POPC   GL152681  15.218   0.282   5.881
 4130POPC   GL252682  15.450   0.545   5.809
 4130POPC   C1A52683  15.318   0.335   6.328
 4130POPC   D2A52684  15.101   0.370   6.745
 4130POPC   C3A52685  15.324   0.219   7.131
 4130POPC   C4A52686  15.322   0.174   7.624
 4130POPC   C1B52687  15.260   0.803   6.133
 4130POPC   C2B52688  15.394   0.799   6.567
 4130POPC   C3B52689  15.338   0.724   7.010
 4130POPC   C4B52690  15.415   0.650   7.423
 4131POPC   NC352691  16.346  16.982   5.428
 4131POPC   PO452692  16.878  16.525   5.486
 4131POPC   GL152693  16.682  16.687   5.823
 4131POPC   GL252694  16.682  17.034   5.803
 4131POPC   C1A52695  16.498  16.588   6.221
 4131POPC   D2A52696  16.632  16.385   6.594
 4131POPC   C3A52697  16.447  16.530   6.969
 4131POPC   C4A52698  16.710  16.637   7.289
 4131POPC   C1B52699  16.814  17.129   6.194
 4131POPC   C2B52700  16.688  16.916   6.566
 4131POPC   C3B52701  16.633  17.051   6.953
 4131POPC   C4B52702  16.861  17.128   7.278
 4132POPC   NC352703  23.548   7.974   5.586
 4132POPC   PO452704  22.959   8.196   5.332
 4132POPC   GL152705  22.994   8.237   5.751
 4132POPC   GL252706  22.693   8.062   5.805
 4132POPC   C1A52707  23.117   8.091   6.168
 4132POPC   D2A52708  22.984   7.880   6.553
 4132POPC   C3A52709  23.156   7.960   6.956
 4132POPC   C4A52710  23.088   8.256   7.250
 4132POPC   C1B52711  22.609   8.193   6.186
 4132POPC   C2B52712  22.472   8.091   6.575
 4132POPC   C3B52713  22.648   8.149   6.966
 4132POPC   C4B52714  22.535   8.377   7.337
 4133POPC   NC352715  29.636   6.704   5.463
 4133POPC   PO452716  30.142   6.316   5.243
 4133POPC   GL152717  30.004   6.410   5.692
 4133POPC   GL252718  30.117   6.779   5.701
 4133POPC   C1A52719  29.797   6.617   6.103
 4133POPC   D2A52720  29.874   6.807   6.538
 4133POPC   C3A52721  29.858   6.531   6.903
 4133POPC   C4A52722  29.735   6.513   7.319
 4133POPC   C1B52723  30.305   6.768   6.121
 4133POPC   C2B52724  30.424   6.863   6.548
 4133POPC   C3B52725  30.276   6.838   6.961
 4133POPC   C4B52726  29.859   6.993   7.106
 4134POPC   NC352727   0.694  42.915   5.670
 4134POPC   PO452728   0.346  43.487   5.408
 4134POPC   GL152729   0.329  43.236   5.805
 4134POPC   GL252730   0.302  42.867   5.956
 4134POPC   C1A52731   0.432  43.300   6.248
 4134POPC   D2A52732   0.654  43.451   6.609
 4134POPC   C3A52733   0.549  43.281   7.014
 4134POPC   C4A52734   0.190  43.360   7.238
 4134POPC   C1B52735   0.307  42.760   6.362
 4134POPC   C2B52736   0.213  43.037   6.680
 4134POPC   C3B52737   0.107  42.882   7.065
 4134POPC   C4B52738   0.338  42.837   7.406
 4135POPC   NC352739  36.840  21.043   5.327
 4135POPC   PO452740  36.665  21.667   5.310
 4135POPC   GL152741  36.794  21.394   5.719
 4135POPC   GL252742  37.129  21.200   5.788
 4135POPC   C1A52743  36.775  21.262   6.188
 4135POPC   D2A52744  36.892  21.441   6.616
 4135POPC   C3A52745  36.571  21.401   6.911
 4135POPC   C4A52746  36.752  21.407   7.308
 4135POPC   C1B52747  37.120  20.901   6.200
 4135POPC   C2B52748  36.867  20.938   6.618
 4135POPC   C3B52749  36.985  21.008   7.075
 4135POPC   C4B52750  36.900  21.000   7.555
 4136POPC   NC352751  11.022  32.714   5.688
 4136POPC   PO452752  11.346  33.050   5.226
 4136POPC   GL152753  11.218  33.217   5.662
 4136POPC   GL252754  10.911  33.381   5.783
 4136POPC   C1A52755  11.292  33.233   6.131
 4136POPC   D2A52756  11.507  33.098   6.513
 4136POPC   C3A52757  11.361  32.991   6.926
 4136POPC   C4A52758  11.497  33.312   7.195
 4136POPC   C1B52759  10.829  33.370   6.255
 4136POPC   C2B52760  10.927  33.136   6.664
 4136POPC   C3B52761  10.951  33.217   7.134
 4136POPC   C4B52762  11.121  33.277   7.541
 4137POPC   NC352763   5.206  37.834   5.461
 4137POPC   PO452764   4.809  37.312   5.461
 4137POPC   GL152765   5.013  37.443   5.826
 4137POPC   GL252766   5.379  37.493   5.834
 4137POPC   C1A52767   5.139  37.335   6.238
 4137POPC   D2A52768   5.153  37.566   6.633
 4137POPC   C3A52769   5.274  37.398   7.032
 4137POPC   C4A52770   5.205  37.421   7.492
 4137POPC   C1B52771   5.213  37.830   6.147
 4137POPC   C2B52772   5.246  38.074   6.548
 4137POPC   C3B52773   5.159  37.966   6.980
 4137POPC   C4B52774   5.399  37.864   7.376
 4138POPC   NC352775  37.645  10.326   5.289
 4138POPC   PO452776  37.708   9.648   5.354
 4138POPC   GL152777  37.637   9.695   5.786
 4138POPC   GL252778  37.834   9.990   5.937
 4138POPC   C1A52779  37.729   9.484   6.183
 4138POPC   D2A52780  37.931   9.482   6.618
 4138POPC   C3A52781  37.611   9.453   6.979
 4138POPC   C4A52782  37.660   9.723   7.305
 4138POPC   C1B52783  37.862   9.928   6.394
 4138POPC   C2B52784  37.758   9.950   6.826
 4138POPC   C3B52785  38.018  10.065   7.165
 4138POPC   C4B52786  37.926  10.122   7.578
 4139POPC   NC352787  29.210  15.176   4.964
 4139POPC   PO452788  28.709  15.028   5.421
 4139POPC   GL152789  28.834  15.313   5.797
 4139POPC   GL252790  29.182  15.437   5.909
 4139POPC   C1A52791  28.813  15.478   6.234
 4139POPC   D2A52792  28.808  15.258   6.576
 4139POPC   C3A52793  29.173  15.325   6.814
 4139POPC   C4A52794  29.175  15.358   7.268
 4139POPC   C1B52795  29.125  15.067   6.191
 4139POPC   C2B52796  29.201  14.865   6.592
 4139POPC   C3B52797  29.072  14.874   7.050
 4139POPC   C4B52798  29.293  14.904   7.477
 4140POPC   NC352799  11.583  41.638   5.485
 4140POPC   PO452800  11.021  41.301   5.540
 4140POPC   GL152801  11.312  41.394   5.857
 4140POPC   GL252802  11.650  41.221   5.800
 4140POPC   C1A52803  11.403  41.739   6.146
 4140POPC   D2A52804  11.243  41.968   6.499
 4140POPC   C3A52805  11.317  41.681   6.848
 4140POPC   C4A52806  10.949  41.499   7.061
 4140POPC   C1B52807  11.494  41.104   6.221
 4140POPC   C2B52808  11.474  41.246   6.618
 4140POPC   C3B52809  11.349  41.180   7.022
 4140POPC   C4B52810  11.594  41.336   7.318
 4141POPC   NC352811   5.200  39.323   5.188
 4141POPC   PO452812   4.703  39.099   5.424
 4141POPC   GL152813   5.108  39.169   5.692
 4141POPC   GL252814   5.246  39.533   5.681
 4141POPC   C1A52815   5.120  39.044   6.143
 4141POPC   D2A52816   4.872  39.133   6.522
 4141POPC   C3A52817   4.839  38.983   6.978
 4141POPC   C4A52818   4.903  39.233   7.350
 4141POPC   C1B52819   5.395  39.477   6.115
 4141POPC   C2B52820   5.395  39.268   6.529
 4141POPC   C3B52821   5.237  39.322   6.941
 4141POPC   C4B52822   5.385  39.517   7.343
 4142POPC   NC352823  43.530  35.353   5.170
 4142POPC   PO452824  44.066  35.119   5.481
 4142POPC   GL152825  43.787  35.205   5.831
 4142POPC   GL252826  43.703  35.531   5.830
 4142POPC   C1A52827  43.859  35.289   6.268
 4142POPC   D2A52828  44.042  35.075   6.620
 4142POPC   C3A52829  43.981  35.270   7.032
 4142POPC   C4A52830  43.840  35.236   7.463
 4142POPC   C1B52831  43.516  35.671   6.241
 4142POPC   C2B52832  43.603  35.501   6.683
 4142POPC   C3B52833  43.537  35.530   7.131
 4142POPC   C4B52834  43.317  35.717   7.478
 4143POPC   NC352835   0.110  24.538   5.380
 4143POPC   PO452836  44.434  24.293   5.441
 4143POPC   GL152837  44.679  24.384   5.762
 4143POPC   GL252838  44.943  24.129   5.668
 4143POPC   C1A52839  44.543  24.422   6.205
 4143POPC   D2A52840  44.633  24.647   6.593
 4143POPC   C3A52841  44.472  24.587   7.012
 4143POPC   C4A52842  44.733  24.783   7.332
 4143POPC   C1B52843   0.041  24.221   6.104
 4143POPC   C2B52844   0.085  24.375   6.519
 4143POPC   C3B52845  44.913  24.339   6.954
 4143POPC   C4B52846  44.901  24.290   7.442
 4144POPC   NC352847  28.424  23.414   5.399
 4144POPC   PO452848  28.013  23.982   5.423
 4144POPC   GL152849  28.100  23.700   5.767
 4144POPC   GL252850  28.436  23.771   5.781
 4144POPC   C1A52851  28.236  23.595   6.227
 4144POPC   D2A52852  28.155  23.804   6.639
 4144POPC   C3A52853  28.164  23.644   7.080
 4144POPC   C4A52854  28.144  23.837   7.486
 4144POPC   C1B52855  28.630  23.978   6.101
 4144POPC   C2B52856  28.531  24.178   6.477
 4144POPC   C3B52857  28.744  24.105   6.871
 4144POPC   C4B52858  28.582  24.007   7.247
 4145POPC   NC352859  12.791  25.222   5.349
 4145POPC   PO452860  13.122  25.793   5.241
 4145POPC   GL152861  12.945  25.594   5.708
 4145POPC   GL252862  13.018  25.206   5.794
 4145POPC   C1A52863  12.914  25.450   6.201
 4145POPC   D2A52864  13.057  25.195   6.554
 4145POPC   C3A52865  13.002  25.342   6.975
 4145POPC   C4A52866  12.994  25.517   7.381
 4145POPC   C1B52867  12.674  25.013   6.081
 4145POPC   C2B52868  12.687  24.829   6.501
 4145POPC   C3B52869  12.605  25.072   6.857
 4145POPC   C4B52870  12.511  25.108   7.287
 4146POPC   NC352871  12.139  33.836   4.798
 4146POPC   PO452872  11.761  33.642   5.295
 4146POPC   GL152873  11.978  33.785   5.704
 4146POPC   GL252874  12.041  33.480   5.824
 4146POPC   C1A52875  12.055  33.884   6.178
 4146POPC   D2A52876  12.243  34.085   6.546
 4146POPC   C3A52877  12.088  33.944   6.945
 4146POPC   C4A52878  12.092  34.088   7.371
 4146POPC   C1B52879  11.730  33.490   6.121
 4146POPC   C2B52880  11.818  33.499   6.520
 4146POPC   C3B52881  11.930  33.392   6.910
 4146POPC   C4B52882  11.949  33.590   7.291
 4147POPC   NC352883  41.555   3.729   5.454
 4147POPC   PO452884  41.145   3.090   5.395
 4147POPC   GL152885  41.346   3.357   5.734
 4147POPC   GL252886  41.667   3.342   5.867
 4147POPC   C1A52887  41.260   3.586   6.138
 4147POPC   D2A52888  41.114   3.645   6.581
 4147POPC   C3A52889  41.301   3.367   6.876
 4147POPC   C4A52890  41.393   3.470   7.285
 4147POPC   C1B52891  41.759   3.490   6.282
 4147POPC   C2B52892  41.681   3.832   6.571
 4147POPC   C3B52893  41.913   3.962   6.924
 4147POPC   C4B52894  41.836   3.731   7.257
 4148POPC   NC352895  25.568  21.168   5.510
 4148POPC   PO452896  25.133  21.706   5.471
 4148POPC   GL152897  25.178  21.385   5.797
 4148POPC   GL252898  25.453  21.522   5.891
 4148POPC   C1A52899  25.245  21.025   6.108
 4148POPC   D2A52900  25.553  21.038   6.441
 4148POPC   C3A52901  25.398  21.213   6.808
 4148POPC   C4A52902  25.281  21.085   7.214
 4148POPC   C1B52903  25.279  21.490   6.316
 4148POPC   C2B52904  25.155  21.657   6.718
 4148POPC   C3B52905  25.269  21.638   7.179
 4148POPC   C4B52906  25.282  21.777   7.649
 4149POPC   NC352907  28.393  15.383   5.502
 4149POPC   PO452908  27.996  14.860   5.348
 4149POPC   GL152909  28.267  14.939   5.745
 4149POPC   GL252910  28.072  15.160   5.860
 4149POPC   C1A52911  28.458  15.104   6.167
 4149POPC   D2A52912  28.291  15.070   6.589
 4149POPC   C3A52913  28.569  15.051   6.965
 4149POPC   C4A52914  28.515  15.038   7.396
 4149POPC   C1B52915  28.042  15.390   6.239
 4149POPC   C2B52916  28.342  15.562   6.519
 4149POPC   C3B52917  28.275  15.472   6.925
 4149POPC   C4B52918  28.160  15.417   7.322
 4150POPC   NC352919  18.475  44.991   5.346
 4150POPC   PO452920  18.052  44.504   5.408
 4150POPC   GL152921  18.192  44.733   5.760
 4150POPC   GL252922  18.506  44.624   5.804
 4150POPC   C1A52923  18.234  44.909   6.198
 4150POPC   D2A52924  18.430  44.991   6.618
 4150POPC   C3A52925  18.321  44.831   7.038
 4150POPC   C4A52926  18.548  44.655   7.383
 4150POPC   C1B52927  18.404  44.408   6.205
 4150POPC   C2B52928  18.381  44.441   6.666
 4150POPC   C3B52929  18.394  44.261   7.071
 4150POPC   C4B52930  18.129  44.363   7.395
 4151POPC   NC352931  44.123  44.264   5.462
 4151POPC   PO452932  43.733  43.760   5.193
 4151POPC   GL152933  43.922  43.795   5.787
 4151POPC   GL252934  44.245  43.956   5.839
 4151POPC   C1A52935  43.997  43.903   6.258
 4151POPC   D2A52936  44.108  43.794   6.642
 4151POPC   C3A52937  43.881  44.001   6.932
 4151POPC   C4A52938  44.033  43.897   7.314
 4151POPC   C1B52939  44.264  44.318   6.149
 4151POPC   C2B52940  44.154  44.346   6.628
 4151POPC   C3B52941  44.229  44.328   7.113
 4151POPC   C4B52942  44.163  44.310   7.614
 4152POPC   NC352943  36.898  13.590   5.468
 4152POPC   PO452944  37.556  13.659   5.478
 4152POPC   GL152945  37.261  13.722   5.839
 4152POPC   GL252946  36.943  13.944   5.856
 4152POPC   C1A52947  37.000  13.480   6.155
 4152POPC   D2A52948  36.605  13.504   6.415
 4152POPC   C3A52949  36.661  13.557   6.860
 4152POPC   C4A52950  36.801  13.833   7.146
 4152POPC   C1B52951  36.999  13.974   6.318
 4152POPC   C2B52952  37.107  13.720   6.681
 4152POPC   C3B52953  37.292  13.840   7.092
 4152POPC   C4B52954  37.150  13.890   7.508
 4153POPC   NC352955  35.356  34.425   5.504
 4153POPC   PO452956  35.829  34.799   5.430
 4153POPC   GL152957  35.540  34.786   5.834
 4153POPC   GL252958  35.174  34.849   5.720
 4153POPC   C1A52959  35.477  34.602   6.304
 4153POPC   D2A52960  35.182  34.542   6.700
 4153POPC   C3A52961  35.373  34.535   7.142
 4153POPC   C4A52962  35.603  34.914   7.292
 4153POPC   C1B52963  35.157  34.978   6.154
 4153POPC   C2B52964  35.345  35.045   6.545
 4153POPC   C3B52965  35.222  34.990   6.955
 4153POPC   C4B52966  34.922  34.768   7.190
 4154POPC   NC352967  35.780  25.254   5.296
 4154POPC   PO452968  36.431  25.522   5.344
 4154POPC   GL152969  36.343  25.407   5.782
 4154POPC   GL252970  36.055  25.215   5.771
 4154POPC   C1A52971  36.338  25.188   6.201
 4154POPC   D2A52972  36.127  25.140   6.572
 4154POPC   C3A52973  36.105  25.366   6.927
 4154POPC   C4A52974  36.277  25.066   7.195
 4154POPC   C1B52975  35.867  25.361   6.178
 4154POPC   C2B52976  35.612  25.230   6.551
 4154POPC   C3B52977  35.563  25.404   6.953
 4154POPC   C4B52978  35.779  25.467   7.319
 4155POPC   NC352979  16.571   5.207   5.340
 4155POPC   PO452980  16.998   4.801   5.575
 4155POPC   GL152981  16.846   5.173   5.812
 4155POPC   GL252982  16.471   5.200   5.846
 4155POPC   C1A52983  16.786   5.256   6.252
 4155POPC   D2A52984  16.796   4.996   6.589
 4155POPC   C3A52985  16.926   5.108   6.954
 4155POPC   C4A52986  17.075   4.846   7.250
 4155POPC   C1B52987  16.307   5.363   6.240
 4155POPC   C2B52988  16.492   5.403   6.686
 4155POPC   C3B52989  16.446   5.138   7.107
 4155POPC   C4B52990  16.583   5.293   7.535
 4156POPC   NC352991  39.278  30.252   5.506
 4156POPC   PO452992  38.959  30.769   5.395
 4156POPC   GL152993  39.227  30.797   5.814
 4156POPC   GL252994  39.189  30.473   5.966
 4156POPC   C1A52995  39.395  30.834   6.285
 4156POPC   D2A52996  39.288  30.726   6.745
 4156POPC   C3A52997  39.367  30.948   7.149
 4156POPC   C4A52998  39.192  31.085   7.546
 4156POPC   C1B52999  39.650  30.410   6.068
 4156POPC   C2B53000  39.813  30.262   6.464
 4156POPC   C3B53001  39.773  30.427   6.844
 4156POPC   C4B53002  39.477  30.438   7.133
 4157POPC   NC353003  27.497  34.686   5.248
 4157POPC   PO453004  27.972  34.335   5.495
 4157POPC   GL153005  27.547  34.379   5.688
 4157POPC   GL253006  27.412  34.044   5.744
 4157POPC   C1A53007  27.330  34.596   6.052
 4157POPC   D2A53008  27.439  34.802   6.439
 4157POPC   C3A53009  27.339  34.835   6.869
 4157POPC   C4A53010  27.634  34.802   7.192
 4157POPC   C1B53011  27.574  34.175   6.177
 4157POPC   C2B53012  27.416  34.299   6.608
 4157POPC   C3B53013  27.491  34.321   7.069
 4157POPC   C4B53014  27.514  34.407   7.521
 4158POPC   NC353015  34.382  34.674   5.587
 4158POPC   PO453016  34.928  34.370   5.376
 4158POPC   GL153017  34.795  34.460   5.833
 4158POPC   GL253018  34.710  34.806   5.943
 4158POPC   C1A53019  34.512  34.326   6.212
 4158POPC   D2A53020  34.281  34.424   6.617
 4158POPC   C3A53021  34.607  34.522   6.876
 4158POPC   C4A53022  34.921  34.261   7.068
 4158POPC   C1B53023  34.406  34.820   6.303
 4158POPC   C2B53024  34.241  34.932   6.704
 4158POPC   C3B53025  34.166  34.712   7.068
 4158POPC   C4B53026  34.466  34.640   7.365
 4159POPC   NC353027   4.682  16.111   5.207
 4159POPC   PO453028   4.129  15.725   5.219
 4159POPC   GL153029   4.142  15.807   5.684
 4159POPC   GL253030   4.028  16.157   5.762
 4159POPC   C1A53031   4.407  15.752   6.079
 4159POPC   D2A53032   4.503  15.502   6.470
 4159POPC   C3A53033   4.512  15.697   6.877
 4159POPC   C4A53034   4.361  15.708   7.294
 4159POPC   C1B53035   3.935  15.964   6.172
 4159POPC   C2B53036   4.104  15.889   6.593
 4159POPC   C3B53037   3.975  16.073   7.017
 4159POPC   C4B53038   4.124  16.090   7.487
 4160POPC   NC353039  12.668  36.538   5.492
 4160POPC   PO453040  12.946  37.140   5.457
 4160POPC   GL153041  12.948  37.053   5.846
 4160POPC   GL253042  12.623  36.901   5.849
 4160POPC   C1A53043  12.901  37.034   6.266
 4160POPC   D2A53044  12.985  36.770   6.565
 4160POPC   C3A53045  12.900  37.060   6.895
 4160POPC   C4A53046  12.943  36.898   7.304
 4160POPC   C1B53047  12.593  36.544   6.170
 4160POPC   C2B53048  12.624  36.378   6.596
 4160POPC   C3B53049  12.738  36.576   6.971
 4160POPC   C4B53050  12.513  36.631   7.364
 4161POPC   NC353051  23.650   2.472   5.466
 4161POPC   PO453052  24.084   3.035   5.528
 4161POPC   GL153053  23.825   2.870   5.907
 4161POPC   GL253054  23.883   2.502   5.928
 4161POPC   C1A53055  23.547   2.852   6.326
 4161POPC   D2A53056  23.256   2.939   6.713
 4161POPC   C3A53057  23.355   2.908   7.119
 4161POPC   C4A53058  23.764   2.872   7.188
 4161POPC   C1B53059  23.626   2.316   6.252
 4161POPC   C2B53060  23.716   2.362   6.711
 4161POPC   C3B53061  23.503   2.409   7.114
 4161POPC   C4B53062  23.491   2.612   7.536
 4162POPC   NC353063   7.725   5.342   5.419
 4162POPC   PO453064   7.353   4.749   5.412
 4162POPC   GL153065   7.404   5.125   5.771
 4162POPC   GL253066   7.746   5.221   5.897
 4162POPC   C1A53067   7.347   5.308   6.198
 4162POPC   D2A53068   7.377   5.107   6.585
 4162POPC   C3A53069   7.492   5.323   6.969
 4162POPC   C4A53070   7.280   5.042   7.258
 4162POPC   C1B53071   7.673   4.897   6.185
 4162POPC   C2B53072   7.814   4.826   6.585
 4162POPC   C3B53073   7.647   4.861   6.950
 4162POPC   C4B53074   7.745   4.793   7.345
 4163POPC   NC353075  29.514  17.731   5.566
 4163POPC   PO453076  29.150  17.274   5.158
 4163POPC   GL153077  29.176  17.341   5.635
 4163POPC   GL253078  28.992  17.642   5.726
 4163POPC   C1A53079  29.122  17.298   6.122
 4163POPC   D2A53080  29.191  17.217   6.591
 4163POPC   C3A53081  29.180  17.408   7.012
 4163POPC   C4A53082  29.416  17.661   7.320
 4163POPC   C1B53083  29.032  17.809   6.188
 4163POPC   C2B53084  29.215  17.798   6.629
 4163POPC   C3B53085  29.022  17.895   7.047
 4163POPC   C4B53086  29.004  18.163   7.431
 4164POPC   NC353087  38.001  40.500   5.542
 4164POPC   PO453088  37.573  41.123   5.538
 4164POPC   GL153089  37.724  40.847   5.810
 4164POPC   GL253090  37.513  40.551   5.754
 4164POPC   C1A53091  37.938  40.882   6.189
 4164POPC   D2A53092  38.027  40.676   6.565
 4164POPC   C3A53093  37.670  40.736   6.821
 4164POPC   C4A53094  37.705  40.884   7.258
 4164POPC   C1B53095  37.686  40.409   6.176
 4164POPC   C2B53096  37.823  40.220   6.586
 4164POPC   C3B53097  37.847  40.350   7.053
 4164POPC   C4B53098  37.551  40.443   7.458
 4165POPC   NC353099  39.523  23.711   5.511
 4165POPC   PO453100  38.896  24.068   5.504
 4165POPC   GL153101  39.134  23.911   5.820
 4165POPC   GL253102  39.462  24.075   5.835
 4165POPC   C1A53103  39.043  23.719   6.196
 4165POPC   D2A53104  38.977  23.511   6.558
 4165POPC   C3A53105  39.201  23.640   6.862
 4165POPC   C4A53106  39.174  23.712   7.237
 4165POPC   C1B53107  39.529  23.842   6.218
 4165POPC   C2B53108  39.618  23.864   6.663
 4165POPC   C3B53109  39.652  23.754   7.117
 4165POPC   C4B53110  39.566  23.790   7.607
 4166POPC   NC353111   2.551  13.302   5.430
 4166POPC   PO453112   2.561  14.013   5.531
 4166POPC   GL153113   2.823  13.704   5.734
 4166POPC   GL253114   2.521  13.574   5.859
 4166POPC   C1A53115   2.924  13.598   6.175
 4166POPC   D2A53116   2.745  13.768   6.577
 4166POPC   C3A53117   2.975  13.650   6.948
 4166POPC   C4A53118   3.035  13.815   7.358
 4166POPC   C1B53119   2.339  13.739   6.223
 4166POPC   C2B53120   2.260  13.560   6.630
 4166POPC   C3B53121   2.487  13.479   6.976
 4166POPC   C4B53122   2.707  13.416   7.332
 4167POPC   NC353123  13.179  41.731   5.172
 4167POPC   PO453124  13.489  41.246   5.572
 4167POPC   GL153125  13.590  41.389   5.937
 4167POPC   GL253126  13.702  41.741   5.893
 4167POPC   C1A53127  13.634  41.445   6.356
 4167POPC   D2A53128  13.579  41.790   6.566
 4167POPC   C3A53129  13.473  41.717   6.964
 4167POPC   C4A53130  13.542  41.362   7.130
 4167POPC   C1B53131  14.001  41.762   6.232
 4167POPC   C2B53132  14.062  41.637   6.657
 4167POPC   C3B53133  13.991  41.643   7.109
 4167POPC   C4B53134  14.055  41.778   7.561
 4168POPC   NC353135  31.128  11.997   5.593
 4168POPC   PO453136  31.548  12.333   5.238
 4168POPC   GL153137  31.488  12.322   5.731
 4168POPC   GL253138  31.578  11.967   5.862
 4168POPC   C1A53139  31.317  12.217   6.194
 4168POPC   D2A53140  31.599  12.165   6.540
 4168POPC   C3A53141  31.447  11.993   6.908
 4168POPC   C4A53142  31.437  12.177   7.299
 4168POPC   C1B53143  31.394  11.711   6.210
 4168POPC   C2B53144  31.637  11.638   6.539
 4168POPC   C3B53145  31.692  11.550   6.958
 4168POPC   C4B53146  31.621  11.705   7.372
 4169POPC   NC353147   6.498   3.754   5.430
 4169POPC   PO453148   6.616   3.092   5.443
 4169POPC   GL153149   6.755   3.272   5.814
 4169POPC   GL253150   6.824   3.615   5.779
 4169POPC   C1A53151   6.623   3.495   6.233
 4169POPC   D2A53152   6.621   3.877   6.511
 4169POPC   C3A53153   6.619   3.713   6.918
 4169POPC   C4A53154   6.505   3.307   7.005
 4169POPC   C1B53155   7.015   3.808   6.157
 4169POPC   C2B53156   7.083   3.600   6.560
 4169POPC   C3B53157   7.025   3.387   6.940
 4169POPC   C4B53158   7.061   3.702   7.250
 4170POPC   NC353159   8.050  24.896   5.548
 4170POPC   PO453160   8.417  25.424   5.406
 4170POPC   GL153161   8.257  25.313   5.818
 4170POPC   GL253162   7.911  25.457   5.858
 4170POPC   C1A53163   8.235  25.506   6.248
 4170POPC   D2A53164   8.099  25.320   6.620
 4170POPC   C3A53165   8.426  25.183   6.891
 4170POPC   C4A53166   8.170  25.344   7.175
 4170POPC   C1B53167   7.943  25.083   6.168
 4170POPC   C2B53168   7.807  24.878   6.557
 4170POPC   C3B53169   7.817  25.021   7.000
 4170POPC   C4B53170   7.692  24.888   7.432
 4171POPC   NC353171  30.730  35.185   5.438
 4171POPC   PO453172  31.310  35.504   5.647
 4171POPC   GL153173  30.934  35.408   5.861
 4171POPC   GL253174  30.597  35.553   5.790
 4171POPC   C1A53175  30.812  35.576   6.260
 4171POPC   D2A53176  30.709  35.372   6.621
 4171POPC   C3A53177  30.717  35.516   7.062
 4171POPC   C4A53178  30.711  35.089   7.289
 4171POPC   C1B53179  30.509  35.188   6.101
 4171POPC   C2B53180  30.239  35.190   6.494
 4171POPC   C3B53181  30.360  35.156   6.922
 4171POPC   C4B53182  30.274  35.389   7.304
 4172POPC   NC353183  28.328  27.610   5.432
 4172POPC   PO453184  28.812  28.011   5.623
 4172POPC   GL153185  28.594  27.705   5.890
 4172POPC   GL253186  28.220  27.690   5.929
 4172POPC   C1A53187  28.587  27.579   6.329
 4172POPC   D2A53188  28.488  27.342   6.710
 4172POPC   C3A53189  28.420  27.638   7.066
 4172POPC   C4A53190  28.520  27.599   7.495
 4172POPC   C1B53191  28.139  27.342   6.222
 4172POPC   C2B53192  27.982  27.344   6.641
 4172POPC   C3B53193  28.036  27.306   7.059
 4172POPC   C4B53194  28.071  27.418   7.478
 4173POPC   NC353195  37.325  22.760   5.583
 4173POPC   PO453196  36.849  22.410   5.212
 4173POPC   GL153197  36.777  22.561   5.731
 4173POPC   GL253198  36.624  22.854   5.852
 4173POPC   C1A53199  36.964  22.623   6.180
 4173POPC   D2A53200  37.144  22.560   6.628
 4173POPC   C3A53201  36.956  22.805   7.009
 4173POPC   C4A53202  37.061  23.242   7.104
 4173POPC   C1B53203  36.775  23.103   6.203
 4173POPC   C2B53204  36.752  23.061   6.632
 4173POPC   C3B53205  36.562  23.252   7.024
 4173POPC   C4B53206  36.498  23.396   7.416
 4174POPC   NC353207  14.517   4.776   5.290
 4174POPC   PO453208  14.109   4.203   5.400
 4174POPC   GL153209  14.335   4.427   5.722
 4174POPC   GL253210  14.267   4.126   5.900
 4174POPC   C1A53211  14.515   4.481   6.168
 4174POPC   D2A53212  14.486   4.271   6.595
 4174POPC   C3A53213  14.679   4.316   7.015
 4174POPC   C4A53214  14.366   4.470   7.350
 4174POPC   C1B53215  14.035   3.925   6.238
 4174POPC   C2B53216  14.158   3.830   6.652
 4174POPC   C3B53217  14.279   4.004   7.011
 4174POPC   C4B53218  14.078   4.004   7.386
 4175POPC   NC353219   5.002   4.571   5.505
 4175POPC   PO453220   5.454   4.247   5.774
 4175POPC   GL153221   5.090   4.333   5.944
 4175POPC   GL253222   4.894   4.121   5.748
 4175POPC   C1A53223   5.072   4.423   6.355
 4175POPC   D2A53224   5.420   4.336   6.591
 4175POPC   C3A53225   5.248   4.367   6.977
 4175POPC   C4A53226   5.008   4.683   7.163
 4175POPC   C1B53227   4.889   3.953   6.205
 4175POPC   C2B53228   4.972   4.031   6.666
 4175POPC   C3B53229   4.988   3.908   7.092
 4175POPC   C4B53230   4.696   3.932   7.460
 4176POPC   NC353231   6.482  27.645   5.425
 4176POPC   PO453232   7.041  27.176   5.534
 4176POPC   GL153233   6.766  27.351   5.788
 4176POPC   GL253234   6.487  27.225   5.721
 4176POPC   C1A53235   6.825  27.468   6.190
 4176POPC   D2A53236   6.962  27.619   6.556
 4176POPC   C3A53237   6.681  27.561   6.854
 4176POPC   C4A53238   6.882  27.522   7.233
 4176POPC   C1B53239   6.306  27.462   6.087
 4176POPC   C2B53240   6.291  27.427   6.522
 4176POPC   C3B53241   6.169  27.400   6.943
 4176POPC   C4B53242   6.380  27.455   7.295
 4177POPC   NC353243  11.860  36.089   5.362
 4177POPC   PO453244  12.242  35.594   5.050
 4177POPC   GL153245  12.353  35.831   5.512
 4177POPC   GL253246  12.324  36.183   5.695
 4177POPC   C1A53247  12.242  35.772   5.997
 4177POPC   D2A53248  12.168  35.943   6.439
 4177POPC   C3A53249  12.116  35.796   6.890
 4177POPC   C4A53250  11.878  36.135   7.026
 4177POPC   C1B53251  12.073  36.362   6.083
 4177POPC   C2B53252  12.058  36.546   6.521
 4177POPC   C3B53253  12.230  36.516   6.925
 4177POPC   C4B53254  12.448  36.179   7.095
 4178POPC   NC353255  13.494  39.737   5.507
 4178POPC   PO453256  13.532  40.397   5.643
 4178POPC   GL153257  13.726  40.052   5.896
 4178POPC   GL253258  13.847  39.657   5.864
 4178POPC   C1A53259  13.557  40.071   6.329
 4178POPC   D2A53260  13.424  40.322   6.704
 4178POPC   C3A53261  13.496  40.119   7.119
 4178POPC   C4A53262  13.366  39.671   7.130
 4178POPC   C1B53263  14.027  39.790   6.247
 4178POPC   C2B53264  13.926  39.653   6.682
 4178POPC   C3B53265  13.919  39.834   7.087
 4178POPC   C4B53266  14.043  40.279   7.160
 4179POPC   NC353267  14.676  31.859   5.281
 4179POPC   PO453268  14.719  32.498   5.370
 4179POPC   GL153269  14.408  32.349   5.706
 4179POPC   GL253270  14.362  32.016   5.643
 4179POPC   C1A53271  14.338  32.354   6.160
 4179POPC   D2A53272  14.614  32.602   6.419
 4179POPC   C3A53273  14.565  32.596   6.874
 4179POPC   C4A53274  14.362  32.431   7.231
 4179POPC   C1B53275  14.318  31.829   6.021
 4179POPC   C2B53276  14.354  31.896   6.464
 4179POPC   C3B53277  14.301  32.055   6.896
 4179POPC   C4B53278  14.421  31.953   7.360
 4180POPC   NC353279   2.287  11.551   5.388
 4180POPC   PO453280   1.630  11.265   5.318
 4180POPC   GL153281   1.801  11.355   5.730
 4180POPC   GL253282   2.152  11.297   5.820
 4180POPC   C1A53283   1.672  11.361   6.164
 4180POPC   D2A53284   1.734  11.298   6.624
 4180POPC   C3A53285   1.839  11.679   6.896
 4180POPC   C4A53286   2.097  11.664   7.311
 4180POPC   C1B53287   2.311  11.393   6.234
 4180POPC   C2B53288   2.220  11.395   6.647
 4180POPC   C3B53289   2.108  11.259   7.014
 4180POPC   C4B53290   2.300  11.192   7.380
 4181POPC   NC353291  26.341  13.431   5.569
 4181POPC   PO453292  26.789  13.767   5.240
 4181POPC   GL153293  26.756  13.747   5.728
 4181POPC   GL253294  26.827  13.432   5.810
 4181POPC   C1A53295  26.930  13.835   6.213
 4181POPC   D2A53296  27.048  14.078   6.643
 4181POPC   C3A53297  26.953  13.889   7.039
 4181POPC   C4A53298  27.113  13.485   7.082
 4181POPC   C1B53299  26.614  13.423   6.225
 4181POPC   C2B53300  26.754  13.534   6.640
 4181POPC   C3B53301  26.544  13.589   7.011
 4181POPC   C4B53302  26.634  13.546   7.445
 4182POPC   NC353303  32.798  20.432   5.115
 4182POPC   PO453304  33.334  20.456   5.518
 4182POPC   GL153305  32.979  20.617   5.784
 4182POPC   GL253306  32.906  20.327   6.057
 4182POPC   C1A53307  32.768  20.798   6.128
 4182POPC   D2A53308  32.825  20.569   6.554
 4182POPC   C3A53309  32.638  20.746   6.950
 4182POPC   C4A53310  32.761  20.762   7.388
 4182POPC   C1B53311  33.237  20.655   6.214
 4182POPC   C2B53312  33.244  20.909   6.583
 4182POPC   C3B53313  33.172  20.759   6.977
 4182POPC   C4B53314  33.108  20.415   7.217
 4183POPC   NC353315  16.696  27.149   5.442
 4183POPC   PO453316  17.042  26.549   5.491
 4183POPC   GL153317  16.830  26.746   5.846
 4183POPC   GL253318  16.754  27.050   5.948
 4183POPC   C1A53319  16.745  26.559   6.248
 4183POPC   D2A53320  16.561  26.653   6.621
 4183POPC   C3A53321  16.786  26.620   6.964
 4183POPC   C4A53322  16.903  26.902   7.274
 4183POPC   C1B53323  16.398  26.972   6.213
 4183POPC   C2B53324  16.258  27.093   6.625
 4183POPC   C3B53325  16.297  26.951   7.052
 4183POPC   C4B53326  16.499  27.196   7.400
 4184POPC   NC353327  25.696  25.526   5.060
 4184POPC   PO453328  25.612  24.936   5.429
 4184POPC   GL153329  25.399  25.219   5.724
 4184POPC   GL253330  25.671  25.489   5.768
 4184POPC   C1A53331  25.055  25.367   6.058
 4184POPC   D2A53332  24.892  25.618   6.432
 4184POPC   C3A53333  24.918  25.462   6.886
 4184POPC   C4A53334  25.247  25.159   7.108
 4184POPC   C1B53335  25.540  25.345   6.197
 4184POPC   C2B53336  25.367  25.458   6.605
 4184POPC   C3B53337  25.391  25.645   7.006
 4184POPC   C4B53338  25.088  25.677   7.365
 4185POPC   NC353339  20.835  22.166   5.560
 4185POPC   PO453340  20.171  22.287   5.544
 4185POPC   GL153341  20.395  22.057   5.832
 4185POPC   GL253342  20.594  22.322   5.993
 4185POPC   C1A53343  20.361  21.930   6.256
 4185POPC   D2A53344  20.542  22.135   6.601
 4185POPC   C3A53345  20.364  21.998   6.982
 4185POPC   C4A53346  20.456  22.164   7.371
 4185POPC   C1B53347  20.901  22.026   6.198
 4185POPC   C2B53348  21.057  21.939   6.613
 4185POPC   C3B53349  20.873  22.000   6.990
 4185POPC   C4B53350  20.958  22.315   7.310
 4186POPC   NC353351  15.844  11.473   5.521
 4186POPC   PO453352  15.597  10.788   5.426
 4186POPC   GL153353  15.705  11.044   5.785
 4186POPC   GL253354  16.026  11.141   5.879
 4186POPC   C1A53355  15.635  11.105   6.235
 4186POPC   D2A53356  15.860  10.995   6.613
 4186POPC   C3A53357  15.709  11.101   7.022
 4186POPC   C4A53358  15.774  11.536   7.121
 4186POPC   C1B53359  16.238  11.163   6.264
 4186POPC   C2B53360  16.240  11.435   6.596
 4186POPC   C3B53361  16.203  11.268   6.970
 4186POPC   C4B53362  16.435  11.058   7.257
 4187POPC   NC353363  24.172  23.570   5.312
 4187POPC   PO453364  23.527  23.824   5.190
 4187POPC   GL153365  23.691  23.550   5.550
 4187POPC   GL253366  23.944  23.736   5.737
 4187POPC   C1A53367  23.569  23.351   5.986
 4187POPC   D2A53368  23.513  23.465   6.465
 4187POPC   C3A53369  23.739  23.539   6.861
 4187POPC   C4A53370  23.697  23.786   7.223
 4187POPC   C1B53371  23.860  23.724   6.173
 4187POPC   C2B53372  23.938  23.898   6.571
 4187POPC   C3B53373  23.901  24.135   6.929
 4187POPC   C4B53374  24.147  24.289   7.231
 4188POPC   NC353375  18.650  24.374   5.122
 4188POPC   PO453376  19.284  24.432   5.357
 4188POPC   GL153377  19.094  24.309   5.771
 4188POPC   GL253378  19.168  24.649   5.899
 4188POPC   C1A53379  18.957  24.350   6.232
 4188POPC   D2A53380  19.127  24.391   6.675
 4188POPC   C3A53381  18.854  24.336   7.059
 4188POPC   C4A53382  18.984  24.404   7.504
 4188POPC   C1B53383  19.259  24.870   6.288
 4188POPC   C2B53384  19.451  24.795   6.685
 4188POPC   C3B53385  19.281  24.675   7.105
 4188POPC   C4B53386  19.095  24.925   7.466
 4189POPC   NC353387  12.048   5.562   5.419
 4189POPC   PO453388  11.683   4.995   5.470
 4189POPC   GL153389  11.889   4.966   5.866
 4189POPC   GL253390  12.011   5.302   5.881
 4189POPC   C1A53391  12.015   4.959   6.324
 4189POPC   D2A53392  12.326   4.861   6.652
 4189POPC   C3A53393  12.164   4.898   7.067
 4189POPC   C4A53394  11.880   5.129   7.345
 4189POPC   C1B53395  12.347   5.315   6.191
 4189POPC   C2B53396  12.358   5.370   6.605
 4189POPC   C3B53397  12.111   5.406   6.959
 4189POPC   C4B53398  12.341   5.331   7.314
 4190POPC   NC353399  31.087  33.585   5.459
 4190POPC   PO453400  30.449  33.762   5.255
 4190POPC   GL153401  30.657  33.848   5.649
 4190POPC   GL253402  30.454  33.605   5.775
 4190POPC   C1A53403  30.602  34.013   6.080
 4190POPC   D2A53404  30.615  33.825   6.497
 4190POPC   C3A53405  30.923  34.016   6.788
 4190POPC   C4A53406  30.851  34.262   7.176
 4190POPC   C1B53407  30.826  33.541   6.082
 4190POPC   C2B53408  30.897  33.380   6.499
 4190POPC   C3B53409  30.638  33.456   6.860
 4190POPC   C4B53410  30.693  33.765   7.173
 4191POPC   NC353411  42.940   8.303   5.430
 4191POPC   PO453412  42.286   8.037   5.468
 4191POPC   GL153413  42.364   8.131   5.912
 4191POPC   GL253414  42.674   8.278   5.864
 4191POPC   C1A53415  42.155   8.325   6.278
 4191POPC   D2A53416  42.181   8.425   6.744
 4191POPC   C3A53417  42.267   8.091   7.090
 4191POPC   C4A53418  42.558   7.733   7.186
 4191POPC   C1B53419  42.655   8.418   6.277
 4191POPC   C2B53420  42.801   8.581   6.641
 4191POPC   C3B53421  42.629   8.497   6.987
 4191POPC   C4B53422  42.479   8.459   7.392
 4192POPC   NC353423   8.486  30.509   5.364
 4192POPC   PO453424   9.087  30.769   5.533
 4192POPC   GL153425   8.964  30.640   5.910
 4192POPC   GL253426   8.628  30.525   5.879
 4192POPC   C1A53427   9.113  30.652   6.332
 4192POPC   D2A53428   9.178  30.305   6.613
 4192POPC   C3A53429   9.178  30.347   7.087
 4192POPC   C4A53430   8.959  30.447   7.478
 4192POPC   C1B53431   8.608  30.853   6.211
 4192POPC   C2B53432   8.716  30.836   6.651
 4192POPC   C3B53433   8.731  30.660   7.077
 4192POPC   C4B53434   8.481  30.633   7.484
 4193POPC   NC353435   6.937  38.814   5.254
 4193POPC   PO453436   6.853  38.143   5.540
 4193POPC   GL153437   6.712  38.501   5.751
 4193POPC   GL253438   6.982  38.700   5.788
 4193POPC   C1A53439   6.482  38.521   6.153
 4193POPC   D2A53440   6.256  38.207   6.425
 4193POPC   C3A53441   6.319  38.213   6.889
 4193POPC   C4A53442   6.287  38.550   7.199
 4193POPC   C1B53443   6.978  38.418   6.186
 4193POPC   C2B53444   6.752  38.397   6.582
 4193POPC   C3B53445   6.754  38.491   7.012
 4193POPC   C4B53446   6.872  38.257   7.359
 4194POPC   NC353447  26.756  24.627   5.526
 4194POPC   PO453448  26.415  24.019   5.530
 4194POPC   GL153449  26.635  24.254   5.876
 4194POPC   GL253450  26.812  24.596   6.005
 4194POPC   C1A53451  26.506  24.321   6.282
 4194POPC   D2A53452  26.625  24.550   6.617
 4194POPC   C3A53453  26.616  24.316   6.979
 4194POPC   C4A53454  26.636  24.674   7.234
 4194POPC   C1B53455  27.066  24.414   6.299
 4194POPC   C2B53456  27.073  24.264   6.705
 4194POPC   C3B53457  27.083  24.459   7.104
 4194POPC   C4B53458  26.846  24.292   7.480
 4195POPC   NC353459  20.355  33.211   5.462
 4195POPC   PO453460  20.599  32.649   5.419
 4195POPC   GL153461  20.664  32.848   5.824
 4195POPC   GL253462  20.679  33.190   5.863
 4195POPC   C1A53463  20.857  32.957   6.250
 4195POPC   D2A53464  20.652  33.065   6.610
 4195POPC   C3A53465  20.791  33.066   6.996
 4195POPC   C4A53466  20.639  33.169   7.408
 4195POPC   C1B53467  20.484  33.451   6.191
 4195POPC   C2B53468  20.089  33.464   6.443
 4195POPC   C3B53469  20.050  33.372   6.881
 4195POPC   C4B53470  20.403  33.506   7.107
 4196POPC   NC353471   8.769  10.810   5.551
 4196POPC   PO453472   9.133  10.292   5.273
 4196POPC   GL153473   9.063  10.263   5.753
 4196POPC   GL253474   8.769  10.407   5.869
 4196POPC   C1A53475   9.135  10.334   6.231
 4196POPC   D2A53476   9.053  10.130   6.647
 4196POPC   C3A53477   8.654  10.158   6.806
 4196POPC   C4A53478   8.901  10.355   7.161
 4196POPC   C1B53479   8.632  10.505   6.293
 4196POPC   C2B53480   8.830  10.624   6.684
 4196POPC   C3B53481   8.757  10.820   7.085
 4196POPC   C4B53482   9.162  10.878   7.169
 4197POPC   NC353483  40.892  24.387   5.325
 4197POPC   PO453484  41.248  24.974   5.480
 4197POPC   GL153485  40.919  24.700   5.723
 4197POPC   GL253486  40.574  24.491   5.715
 4197POPC   C1A53487  40.782  24.663   6.161
 4197POPC   D2A53488  40.982  24.723   6.553
 4197POPC   C3A53489  41.070  24.410   6.830
 4197POPC   C4A53490  40.889  24.586   7.184
 4197POPC   C1B53491  40.428  24.188   6.037
 4197POPC   C2B53492  40.416  24.121   6.478
 4197POPC   C3B53493  40.556  24.390   6.795
 4197POPC   C4B53494  40.420  24.333   7.197
 4198POPC   NC353495   9.428  43.316   5.493
 4198POPC   PO453496   9.797  42.745   5.456
 4198POPC   GL153497   9.745  43.015   5.764
 4198POPC   GL253498   9.443  42.903   5.846
 4198POPC   C1A53499   9.798  43.039   6.179
 4198POPC   D2A53500   9.909  43.365   6.383
 4198POPC   C3A53501   9.935  43.223   6.782
 4198POPC   C4A53502   9.816  43.139   7.186
 4198POPC   C1B53503   9.348  43.243   6.128
 4198POPC   C2B53504   9.409  43.324   6.559
 4198POPC   C3B53505   9.436  43.449   6.996
 4198POPC   C4B53506   9.377  43.250   7.421
 4199POPC   NC353507  30.731  31.850   5.464
 4199POPC   PO453508  31.087  31.340   5.450
 4199POPC   GL153509  30.852  31.479   5.812
 4199POPC   GL253510  30.480  31.496   5.727
 4199POPC   C1A53511  30.884  31.708   6.194
 4199POPC   D2A53512  30.996  31.612   6.588
 4199POPC   C3A53513  30.779  31.442   6.918
 4199POPC   C4A53514  30.887  31.657   7.298
 4199POPC   C1B53515  30.401  31.782   6.086
 4199POPC   C2B53516  30.413  31.635   6.523
 4199POPC   C3B53517  30.250  31.829   6.893
 4199POPC   C4B53518  30.365  31.626   7.252
 4200POPC   NC353519  17.701  20.195   5.309
 4200POPC   PO453520  17.459  20.808   5.398
 4200POPC   GL153521  17.622  20.644   5.784
 4200POPC   GL253522  17.828  20.348   5.796
 4200POPC   C1A53523  17.514  20.675   6.224
 4200POPC   D2A53524  17.410  20.902   6.573
 4200POPC   C3A53525  17.367  20.640   6.927
 4200POPC   C4A53526  17.433  20.729   7.338
 4200POPC   C1B53527  17.628  20.180   6.196
 4200POPC   C2B53528  17.453  20.213   6.633
 4200POPC   C3B53529  17.584  20.195   7.095
 4200POPC   C4B53530  17.342  20.163   7.504
 4201POPC   NC353531  29.440   1.367   5.105
 4201POPC   PO453532  30.075   1.485   5.388
 4201POPC   GL153533  29.996   1.370   5.773
 4201POPC   GL253534  30.063   1.034   5.721
 4201POPC   C1A53535  29.890   1.393   6.191
 4201POPC   D2A53536  30.046   1.213   6.542
 4201POPC   C3A53537  29.745   1.144   6.842
 4201POPC   C4A53538  30.037   1.233   7.144
 4201POPC   C1B53539  29.953   0.893   6.119
 4201POPC   C2B53540  30.009   0.697   6.504
 4201POPC   C3B53541  30.137   0.796   6.904
 4201POPC   C4B53542  30.022   0.699   7.332
 4202POPC   NC353543  13.971  40.418   5.498
 4202POPC   PO453544  13.679  40.892   5.169
 4202POPC   GL153545  13.754  40.838   5.730
 4202POPC   GL253546  13.438  40.874   5.917
 4202POPC   C1A53547  13.747  40.628   6.221
 4202POPC   D2A53548  13.631  40.787   6.667
 4202POPC   C3A53549  13.655  40.600   7.082
 4202POPC   C4A53550  13.712  40.454   7.535
 4202POPC   C1B53551  13.390  41.017   6.287
 4202POPC   C2B53552  13.316  41.184   6.676
 4202POPC   C3B53553  13.276  40.950   7.053
 4202POPC   C4B53554  13.531  40.939   7.437
 4203POPC   NC353555  18.903  23.218   5.359
 4203POPC   PO453556  19.242  22.654   5.575
 4203POPC   GL153557  18.960  22.840   5.800
 4203POPC   GL253558  19.091  23.170   5.825
 4203POPC   C1A53559  19.041  22.802   6.228
 4203POPC   D2A53560  18.898  22.973   6.581
 4203POPC   C3A53561  19.005  22.790   6.987
 4203POPC   C4A53562  19.147  22.429   7.182
 4203POPC   C1B53563  18.985  23.361   6.217
 4203POPC   C2B53564  19.050  23.469   6.644
 4203POPC   C3B53565  18.813  23.294   6.961
 4203POPC   C4B53566  18.827  23.145   7.355
 4204POPC   NC353567  23.610  10.810   5.566
 4204POPC   PO453568  23.667  10.232   5.303
 4204POPC   GL153569  23.767  10.371   5.786
 4204POPC   GL253570  23.979  10.661   5.895
 4204POPC   C1A53571  23.863  10.369   6.271
 4204POPC   D2A53572  24.012  10.680   6.597
 4204POPC   C3A53573  23.876  10.574   7.021
 4204POPC   C4A53574  23.673  10.239   7.232
 4204POPC   C1B53575  23.699  10.868   6.220
 4204POPC   C2B53576  23.354  10.825   6.549
 4204POPC   C3B53577  23.386  10.826   7.017
 4204POPC   C4B53578  23.414  10.639   7.443
 4205POPC   NC353579  20.983  15.379   5.473
 4205POPC   PO453580  21.503  14.909   5.451
 4205POPC   GL153581  21.343  15.134   5.774
 4205POPC   GL253582  21.458  15.478   5.723
 4205POPC   C1A53583  21.479  15.075   6.190
 4205POPC   D2A53584  21.268  15.089   6.565
 4205POPC   C3A53585  21.522  15.056   6.896
 4205POPC   C4A53586  21.393  15.069   7.328
 4205POPC   C1B53587  21.233  15.512   6.136
 4205POPC   C2B53588  21.377  15.594   6.575
 4205POPC   C3B53589  21.249  15.461   7.014
 4205POPC   C4B53590  21.473  15.580   7.421
 4206POPC   NC353591  19.895  34.099   5.435
 4206POPC   PO453592  20.017  33.466   5.610
 4206POPC   GL153593  19.973  33.825   5.848
 4206POPC   GL253594  19.587  33.877   5.787
 4206POPC   C1A53595  19.997  33.977   6.268
 4206POPC   D2A53596  20.288  33.938   6.611
 4206POPC   C3A53597  20.042  33.874   6.985
 4206POPC   C4A53598  19.653  34.004   7.190
 4206POPC   C1B53599  19.645  33.608   6.156
 4206POPC   C2B53600  19.602  33.689   6.580
 4206POPC   C3B53601  19.531  33.446   6.930
 4206POPC   C4B53602  19.781  33.498   7.301
 4207POPC   NC353603  42.044  32.067   5.198
 4207POPC   PO453604  42.186  31.434   5.409
 4207POPC   GL153605  42.376  31.375   5.787
 4207POPC   GL253606  42.156  31.633   5.901
 4207POPC   C1A53607  42.321  31.170   6.181
 4207POPC   D2A53608  42.545  31.247   6.552
 4207POPC   C3A53609  42.353  31.324   6.936
 4207POPC   C4A53610  42.499  31.182   7.343
 4207POPC   C1B53611  42.311  31.665   6.273
 4207POPC   C2B53612  42.181  31.750   6.639
 4207POPC   C3B53613  42.015  31.776   6.992
 4207POPC   C4B53614  42.255  31.653   7.310
 4208POPC   NC353615   6.890   9.247   5.523
 4208POPC   PO453616   6.356   8.816   5.459
 4208POPC   GL153617   6.702   8.851   5.806
 4208POPC   GL253618   6.710   9.197   5.979
 4208POPC   C1A53619   7.039   8.876   6.175
 4208POPC   D2A53620   7.030   9.095   6.591
 4208POPC   C3A53621   6.712   8.925   6.860
 4208POPC   C4A53622   6.561   8.812   7.264
 4208POPC   C1B53623   6.530   9.011   6.330
 4208POPC   C2B53624   6.200   8.990   6.616
 4208POPC   C3B53625   6.305   9.203   6.973
 4208POPC   C4B53626   6.708   9.387   7.116
 4209POPC   NC353627  18.609   4.159   5.375
 4209POPC   PO453628  18.068   4.584   5.355
 4209POPC   GL153629  18.294   4.357   5.741
 4209POPC   GL253630  18.221   4.007   5.820
 4209POPC   C1A53631  18.474   4.518   6.149
 4209POPC   D2A53632  18.327   4.547   6.586
 4209POPC   C3A53633  18.336   4.175   6.875
 4209POPC   C4A53634  18.423   4.421   7.224
 4209POPC   C1B53635  18.066   4.238   6.218
 4209POPC   C2B53636  17.871   4.297   6.634
 4209POPC   C3B53637  17.934   4.364   7.094
 4209POPC   C4B53638  18.031   4.161   7.499
 4210POPC   NC353639  40.655  11.214   5.309
 4210POPC   PO453640  41.194  10.840   5.383
 4210POPC   GL153641  40.988  11.138   5.695
 4210POPC   GL253642  40.753  11.437   5.748
 4210POPC   C1A53643  40.833  11.064   6.117
 4210POPC   D2A53644  40.711  11.071   6.536
 4210POPC   C3A53645  40.952  11.130   6.901
 4210POPC   C4A53646  40.814  11.170   7.293
 4210POPC   C1B53647  40.829  11.577   6.143
 4210POPC   C2B53648  40.967  11.520   6.554
 4210POPC   C3B53649  40.798  11.601   6.974
 4210POPC   C4B53650  40.967  11.618   7.399
 4211POPC   NC353651   1.460   7.526   5.382
 4211POPC   PO453652   2.132   7.221   5.494
 4211POPC   GL153653   1.760   7.296   5.740
 4211POPC   GL253654   1.804   7.628   5.856
 4211POPC   C1A53655   1.678   7.228   6.166
 4211POPC   D2A53656   1.870   7.088   6.567
 4211POPC   C3A53657   2.166   7.223   6.890
 4211POPC   C4A53658   2.016   7.160   7.322
 4211POPC   C1B53659   2.096   7.532   6.244
 4211POPC   C2B53660   2.044   7.673   6.671
 4211POPC   C3B53661   1.849   7.565   7.063
 4211POPC   C4B53662   1.931   7.648   7.514
 4212POPC   NC353663  36.366   6.791   4.978
 4212POPC   PO453664  35.950   6.736   5.520
 4212POPC   GL153665  36.082   6.623   5.847
 4212POPC   GL253666  36.402   6.475   5.803
 4212POPC   C1A53667  35.841   6.669   6.198
 4212POPC   D2A53668  35.772   6.459   6.523
 4212POPC   C3A53669  35.805   6.640   6.923
 4212POPC   C4A53670  35.515   6.652   7.224
 4212POPC   C1B53671  36.385   6.581   6.241
 4212POPC   C2B53672  36.241   6.624   6.635
 4212POPC   C3B53673  36.230   6.353   6.960
 4212POPC   C4B53674  36.244   6.417   7.367
 4213POPC   NC353675  36.684   6.191   5.465
 4213POPC   PO453676  37.187   5.739   5.458
 4213POPC   GL153677  37.024   5.677   5.809
 4213POPC   GL253678  36.749   5.862   5.855
 4213POPC   C1A53679  36.992   5.541   6.191
 4213POPC   D2A53680  36.805   5.733   6.492
 4213POPC   C3A53681  36.949   5.505   6.818
 4213POPC   C4A53682  37.034   5.369   7.239
 4213POPC   C1B53683  36.550   6.089   6.163
 4213POPC   C2B53684  36.514   6.175   6.580
 4213POPC   C3B53685  36.574   5.892   6.920
 4213POPC   C4B53686  36.961   5.867   7.158
 4214POPC   NC353687  41.776  41.908   5.425
 4214POPC   PO453688  41.301  41.511   5.256
 4214POPC   GL153689  41.462  41.479   5.732
 4214POPC   GL253690  41.828  41.580   5.814
 4214POPC   C1A53691  41.494  41.682   6.175
 4214POPC   D2A53692  41.568  41.884   6.582
 4214POPC   C3A53693  41.494  41.643   6.984
 4214POPC   C4A53694  41.253  41.300   7.206
 4214POPC   C1B53695  41.977  41.437   6.235
 4214POPC   C2B53696  41.906  41.366   6.686
 4214POPC   C3B53697  42.013  41.515   7.103
 4214POPC   C4B53698  41.938  41.740   7.495
 4215POPC   NC353699  35.920  38.670   5.608
 4215POPC   PO453700  36.355  38.055   5.459
 4215POPC   GL153701  36.180  38.249   5.814
 4215POPC   GL253702  36.248  38.574   5.956
 4215POPC   C1A53703  36.172  38.186   6.266
 4215POPC   D2A53704  36.039  38.452   6.593
 4215POPC   C3A53705  35.982  38.304   7.019
 4215POPC   C4A53706  35.686  38.520   7.300
 4215POPC   C1B53707  36.475  38.611   6.284
 4215POPC   C2B53708  36.405  38.801   6.649
 4215POPC   C3B53709  36.142  38.787   7.017
 4215POPC   C4B53710  36.169  38.598   7.446
 4216POPC   NC353711  38.630  40.779   5.319
 4216POPC   PO453712  38.044  40.967   5.405
 4216POPC   GL153713  38.351  40.793   5.775
 4216POPC   GL253714  38.739  40.688   5.816
 4216POPC   C1A53715  38.435  40.774   6.230
 4216POPC   D2A53716  38.335  41.092   6.549
 4216POPC   C3A53717  38.127  41.006   6.950
 4216POPC   C4A53718  38.207  40.727   7.263
 4216POPC   C1B53719  38.877  40.489   6.207
 4216POPC   C2B53720  38.819  40.753   6.568
 4216POPC   C3B53721  38.626  40.779   6.935
 4216POPC   C4B53722  38.754  40.766   7.338
 4217POPC   NC353723  26.555  40.078   5.478
 4217POPC   PO453724  27.143  40.382   5.343
 4217POPC   GL153725  26.925  40.276   5.782
 4217POPC   GL253726  26.834  39.912   5.886
 4217POPC   C1A53727  26.838  40.290   6.251
 4217POPC   D2A53728  27.070  40.102   6.614
 4217POPC   C3A53729  26.924  40.220   7.053
 4217POPC   C4A53730  26.940  40.194   7.552
 4217POPC   C1B53731  26.740  39.787   6.327
 4217POPC   C2B53732  26.424  39.631   6.596
 4217POPC   C3B53733  26.316  39.796   7.033
 4217POPC   C4B53734  26.444  40.214   7.261
 4218POPC   NC353735   6.390  17.563   5.405
 4218POPC   PO453736   6.985  17.224   5.492
 4218POPC   GL153737   6.681  17.387   5.810
 4218POPC   GL253738   6.406  17.692   5.879
 4218POPC   C1A53739   6.745  17.551   6.226
 4218POPC   D2A53740   6.455  17.649   6.523
 4218POPC   C3A53741   6.704  17.602   6.856
 4218POPC   C4A53742   6.631  17.764   7.234
 4218POPC   C1B53743   6.268  17.339   6.134
 4218POPC   C2B53744   6.079  17.254   6.531
 4218POPC   C3B53745   6.262  17.343   6.946
 4218POPC   C4B53746   6.643  17.173   7.118
 4219POPC   NC353747  29.253  11.000   5.232
 4219POPC   PO453748  29.167  11.514   5.523
 4219POPC   GL153749  29.375  11.357   5.921
 4219POPC   GL253750  29.215  11.044   5.922
 4219POPC   C1A53751  29.435  11.155   6.376
 4219POPC   D2A53752  29.501  11.193   6.845
 4219POPC   C3A53753  29.131  11.387   7.065
 4219POPC   C4A53754  29.023  11.379   7.520
 4219POPC   C1B53755  29.047  10.813   6.311
 4219POPC   C2B53756  29.074  10.924   6.777
 4219POPC   C3B53757  29.052  10.910   7.265
 4219POPC   C4B53758  28.770  10.982   7.685
 4220POPC   NC353759  32.393   3.170   5.382
 4220POPC   PO453760  32.106   2.574   5.522
 4220POPC   GL153761  32.289   2.877   5.795
 4220POPC   GL253762  32.068   3.150   5.871
 4220POPC   C1A53763  32.412   2.878   6.212
 4220POPC   D2A53764  32.295   3.033   6.600
 4220POPC   C3A53765  32.528   2.832   6.927
 4220POPC   C4A53766  32.439   2.803   7.350
 4220POPC   C1B53767  31.898   2.834   6.138
 4220POPC   C2B53768  31.830   2.704   6.563
 4220POPC   C3B53769  32.011   2.812   6.966
 4220POPC   C4B53770  31.956   2.657   7.369
 4221POPC   NC353771  28.464  25.012   5.440
 4221POPC   PO453772  28.085  25.629   5.429
 4221POPC   GL153773  28.350  25.406   5.733
 4221POPC   GL253774  28.139  25.138   5.879
 4221POPC   C1A53775  28.589  25.230   6.129
 4221POPC   D2A53776  28.621  25.070   6.586
 4221POPC   C3A53777  28.698  25.386   6.932
 4221POPC   C4A53778  28.614  25.465   7.393
 4221POPC   C1B53779  28.159  25.546   6.171
 4221POPC   C2B53780  28.260  25.491   6.610
 4221POPC   C3B53781  28.205  25.190   6.931
 4221POPC   C4B53782  28.488  24.989   7.222
 4222POPC   NC353783  16.526  32.890   5.312
 4222POPC   PO453784  17.087  33.291   5.464
 4222POPC   GL153785  16.978  33.208   5.873
 4222POPC   GL253786  16.671  33.008   5.803
 4222POPC   C1A53787  16.906  33.040   6.265
 4222POPC   D2A53788  16.599  33.141   6.561
 4222POPC   C3A53789  16.698  32.916   6.891
 4222POPC   C4A53790  16.846  32.759   7.238
 4222POPC   C1B53791  16.418  32.835   6.143
 4222POPC   C2B53792  16.153  32.905   6.545
 4222POPC   C3B53793  16.198  33.067   6.989
 4222POPC   C4B53794  16.510  33.128   7.302
 4223POPC   NC353795  39.371  31.019   5.375
 4223POPC   PO453796  39.128  31.655   5.388
 4223POPC   GL153797  39.288  31.503   5.768
 4223POPC   GL253798  39.554  31.243   5.810
 4223POPC   C1A53799  39.198  31.313   6.183
 4223POPC   D2A53800  39.351  31.239   6.619
 4223POPC   C3A53801  39.088  31.344   6.981
 4223POPC   C4A53802  38.809  31.342   7.322
 4223POPC   C1B53803  39.640  31.569   6.138
 4223POPC   C2B53804  39.638  31.748   6.545
 4223POPC   C3B53805  39.606  31.555   6.942
 4223POPC   C4B53806  39.443  31.487   7.335
 4224POPC   NC353807  30.185  28.793   5.417
 4224POPC   PO453808  29.541  28.543   5.322
 4224POPC   GL153809  29.643  28.354   5.689
 4224POPC   GL253810  29.665  27.989   5.632
 4224POPC   C1A53811  29.682  28.490   6.110
 4224POPC   D2A53812  29.925  28.563   6.480
 4224POPC   C3A53813  29.767  28.493   6.885
 4224POPC   C4A53814  30.020  28.620   7.258
 4224POPC   C1B53815  29.837  27.989   6.048
 4224POPC   C2B53816  29.682  28.090   6.458
 4224POPC   C3B53817  29.695  27.965   6.879
 4224POPC   C4B53818  29.854  28.138   7.257
 4225POPC   NC353819  42.563  39.012   5.573
 4225POPC   PO453820  42.268  39.605   5.494
 4225POPC   GL153821  42.329  39.423   5.907
 4225POPC   GL253822  42.153  39.096   5.898
 4225POPC   C1A53823  42.411  39.465   6.374
 4225POPC   D2A53824  42.200  39.319   6.746
 4225POPC   C3A53825  42.270  39.408   7.182
 4225POPC   C4A53826  42.090  39.213   7.575
 4225POPC   C1B53827  42.466  38.997   6.203
 4225POPC   C2B53828  42.648  39.046   6.598
 4225POPC   C3B53829  42.596  39.051   7.008
 4225POPC   C4B53830  42.544  39.031   7.427
 4226POPC   NC353831  23.721  11.437   5.416
 4226POPC   PO453832  24.078  10.866   5.454
 4226POPC   GL153833  23.919  11.176   5.814
 4226POPC   GL253834  23.559  11.232   5.876
 4226POPC   C1A53835  23.893  11.358   6.259
 4226POPC   D2A53836  23.759  11.164   6.652
 4226POPC   C3A53837  23.935  11.265   7.051
 4226POPC   C4A53838  23.805  10.950   7.360
 4226POPC   C1B53839  23.384  11.298   6.303
 4226POPC   C2B53840  23.284  11.301   6.759
 4226POPC   C3B53841  23.427  11.296   7.213
 4226POPC   C4B53842  23.433  11.145   7.661
 4227POPC   NC353843   8.032  20.890   5.457
 4227POPC   PO453844   8.434  20.401   5.422
 4227POPC   GL153845   8.395  20.611   5.796
 4227POPC   GL253846   8.531  20.914   5.857
 4227POPC   C1A53847   8.522  20.554   6.249
 4227POPC   D2A53848   8.177  20.615   6.542
 4227POPC   C3A53849   8.153  20.496   6.956
 4227POPC   C4A53850   7.955  20.329   7.265
 4227POPC   C1B53851   8.149  20.920   6.121
 4227POPC   C2B53852   7.984  21.102   6.506
 4227POPC   C3B53853   8.128  21.022   6.932
 4227POPC   C4B53854   8.047  20.876   7.360
 4228POPC   NC353855  33.586   4.784   5.574
 4228POPC   PO453856  34.060   5.210   5.593
 4228POPC   GL153857  33.826   5.101   5.895
 4228POPC   GL253858  33.987   4.796   5.960
 4228POPC   C1A53859  33.725   5.097   6.301
 4228POPC   D2A53860  33.978   5.125   6.644
 4228POPC   C3A53861  33.725   5.303   6.954
 4228POPC   C4A53862  33.526   5.119   7.278
 4228POPC   C1B53863  34.287   4.771   6.327
 4228POPC   C2B53864  34.309   4.774   6.805
 4228POPC   C3B53865  33.957   4.837   7.108
 4228POPC   C4B53866  33.549   4.612   7.262
 4229POPC   NC353867  26.291  35.266   5.558
 4229POPC   PO453868  25.634  35.078   5.472
 4229POPC   GL153869  25.826  35.287   5.789
 4229POPC   GL253870  26.036  35.025   5.930
 4229POPC   C1A53871  26.005  35.490   6.160
 4229POPC   D2A53872  25.939  35.595   6.570
 4229POPC   C3A53873  26.117  35.333   6.848
 4229POPC   C4A53874  26.276  35.512   7.198
 4229POPC   C1B53875  25.725  35.054   6.236
 4229POPC   C2B53876  25.510  35.421   6.370
 4229POPC   C3B53877  25.479  35.524   6.811
 4229POPC   C4B53878  25.738  35.543   7.175
 4230POPC   NC353879   7.911  43.753   5.308
 4230POPC   PO453880   8.541  43.877   5.211
 4230POPC   GL153881   8.233  43.999   5.609
 4230POPC   GL253882   8.079  43.716   5.790
 4230POPC   C1A53883   8.082  44.083   6.102
 4230POPC   D2A53884   8.237  44.138   6.497
 4230POPC   C3A53885   8.103  44.162   6.884
 4230POPC   C4A53886   8.063  43.898   7.171
 4230POPC   C1B53887   8.193  43.575   6.226
 4230POPC   C2B53888   8.248  43.657   6.709
 4230POPC   C3B53889   8.195  43.419   7.113
 4230POPC   C4B53890   7.934  43.526   7.480
 4231POPC   NC353891  44.170  35.632   5.610
 4231POPC   PO453892  44.708  35.214   5.388
 4231POPC   GL153893  44.618  35.092   5.836
 4231POPC   GL253894  44.291  35.200   5.945
 4231POPC   C1A53895  44.701  35.129   6.274
 4231POPC   D2A53896  44.892  35.364   6.611
 4231POPC   C3A53897  44.739  35.267   7.025
 4231POPC   C4A53898  44.860  35.094   7.419
 4231POPC   C1B53899  44.347  35.514   6.295
 4231POPC   C2B53900  44.481  35.659   6.731
 4231POPC   C3B53901  44.394  35.617   7.201
 4231POPC   C4B53902  44.207  35.550   7.674
 4232POPC   NC353903   4.541  14.760   5.521
 4232POPC   PO453904   4.141  14.288   5.193
 4232POPC   GL153905   4.152  14.443   5.678
 4232POPC   GL253906   4.484  14.356   5.881
 4232POPC   C1A53907   4.190  14.633   6.141
 4232POPC   D2A53908   4.438  14.522   6.499
 4232POPC   C3A53909   4.162  14.688   6.798
 4232POPC   C4A53910   3.975  14.830   7.160
 4232POPC   C1B53911   4.186  14.128   6.237
 4232POPC   C2B53912   4.097  14.159   6.699
 4232POPC   C3B53913   4.213  14.305   7.119
 4232POPC   C4B53914   4.625  14.481   7.018
 4233POPC   NC353915  28.661  26.667   5.417
 4233POPC   PO453916  28.277  27.168   5.556
 4233POPC   GL153917  28.588  27.025   5.813
 4233POPC   GL253918  28.429  26.698   5.867
 4233POPC   C1A53919  28.607  27.060   6.247
 4233POPC   D2A53920  28.272  26.906   6.509
 4233POPC   C3A53921  28.289  26.877   6.929
 4233POPC   C4A53922  28.522  27.152   7.208
 4233POPC   C1B53923  28.136  26.546   6.168
 4233POPC   C2B53924  28.259  26.379   6.542
 4233POPC   C3B53925  28.122  26.328   6.929
 4233POPC   C4B53926  28.298  26.488   7.274
 4234POPC   NC353927  37.210   9.628   5.383
 4234POPC   PO453928  36.560   9.761   5.284
 4234POPC   GL153929  36.820   9.796   5.698
 4234POPC   GL253930  37.155   9.928   5.778
 4234POPC   C1A53931  36.910   9.737   6.171
 4234POPC   D2A53932  36.938   9.863   6.585
 4234POPC   C3A53933  36.787   9.640   6.948
 4234POPC   C4A53934  36.804  10.001   7.198
 4234POPC   C1B53935  37.399   9.878   6.180
 4234POPC   C2B53936  37.410   9.674   6.563
 4234POPC   C3B53937  37.268   9.825   6.973
 4234POPC   C4B53938  37.155   9.693   7.380
 4235POPC   NC353939  12.726  23.552   5.411
 4235POPC   PO453940  13.234  23.979   5.443
 4235POPC   GL153941  12.965  23.805   5.799
 4235POPC   GL253942  12.565  23.887   5.768
 4235POPC   C1A53943  13.050  23.615   6.239
 4235POPC   D2A53944  13.279  23.611   6.666
 4235POPC   C3A53945  13.021  23.516   7.035
 4235POPC   C4A53946  12.970  23.261   7.411
 4235POPC   C1B53947  12.555  23.543   6.045
 4235POPC   C2B53948  12.549  23.518   6.472
 4235POPC   C3B53949  12.523  23.507   6.896
 4235POPC   C4B53950  12.624  23.863   7.111
 4236POPC   NC353951  12.371  41.945   5.222
 4236POPC   PO453952  11.997  41.434   5.365
 4236POPC   GL153953  11.991  41.622   5.770
 4236POPC   GL253954  12.310  41.672   5.714
 4236POPC   C1A53955  11.864  41.502   6.183
 4236POPC   D2A53956  12.059  41.582   6.564
 4236POPC   C3A53957  11.868  41.550   6.950
 4236POPC   C4A53958  12.087  41.565   7.344
 4236POPC   C1B53959  12.281  41.836   6.143
 4236POPC   C2B53960  12.211  42.072   6.543
 4236POPC   C3B53961  12.241  41.925   6.987
 4236POPC   C4B53962  12.503  41.851   7.389
 4237POPC   NC353963   9.242   5.477   5.738
 4237POPC   PO453964   9.200   4.826   5.413
 4237POPC   GL153965   9.168   4.982   5.823
 4237POPC   GL253966   8.830   5.117   5.794
 4237POPC   C1A53967   9.087   5.100   6.257
 4237POPC   D2A53968   8.839   5.033   6.613
 4237POPC   C3A53969   9.077   5.010   6.973
 4237POPC   C4A53970   9.124   5.185   7.369
 4237POPC   C1B53971   8.603   5.208   6.167
 4237POPC   C2B53972   8.453   5.386   6.545
 4237POPC   C3B53973   8.571   5.354   6.956
 4237POPC   C4B53974   8.736   5.580   7.295
 4238POPC   NC353975  32.331  30.825   5.377
 4238POPC   PO453976  31.836  30.436   5.521
 4238POPC   GL153977  31.935  30.512   5.895
 4238POPC   GL253978  32.280  30.529   5.812
 4238POPC   C1A53979  31.995  30.777   6.257
 4238POPC   D2A53980  32.275  30.917   6.601
 4238POPC   C3A53981  32.135  30.813   6.998
 4238POPC   C4A53982  32.009  30.854   7.422
 4238POPC   C1B53983  32.486  30.651   6.197
 4238POPC   C2B53984  32.708  30.642   6.553
 4238POPC   C3B53985  32.634  30.704   6.962
 4238POPC   C4B53986  32.506  30.703   7.377
 4239POPC   NC353987  27.583  40.305   5.269
 4239POPC   PO453988  27.950  39.778   5.389
 4239POPC   GL153989  27.782  39.900   5.791
 4239POPC   GL253990  27.773  40.272   5.776
 4239POPC   C1A53991  27.683  39.811   6.251
 4239POPC   D2A53992  27.725  39.800   6.717
 4239POPC   C3A53993  27.347  39.855   6.990
 4239POPC   C4A53994  27.381  40.205   7.289
 4239POPC   C1B53995  28.026  40.188   6.144
 4239POPC   C2B53996  27.920  40.303   6.574
 4239POPC   C3B53997  27.967  40.151   6.995
 4239POPC   C4B53998  27.809  39.815   7.242
 4240POPC   NC353999   9.856  44.944   5.494
 4240POPC   PO454000   9.432  44.486   5.335
 4240POPC   GL154001   9.665  44.433   5.799
 4240POPC   GL254002   9.909  44.708   5.933
 4240POPC   C1A54003   9.868  44.296   6.210
 4240POPC   D2A54004   9.985  44.655   6.487
 4240POPC   C3A54005   9.828  44.614   6.911
 4240POPC   C4A54006   9.991  44.368   7.244
 4240POPC   C1B54007  10.196   0.033   6.104
 4240POPC   C2B54008  10.358   0.077   6.508
 4240POPC   C3B54009  10.274  44.882   6.909
 4240POPC   C4B54010  10.032  44.901   7.273
 4241POPC   NC354011  32.036  32.915   5.296
 4241POPC   PO454012  32.501  33.345   5.231
 4241POPC   GL154013  32.478  33.004   5.615
 4241POPC   GL254014  32.157  33.099   5.781
 4241POPC   C1A54015  32.421  32.836   6.094
 4241POPC   D2A54016  32.198  32.987   6.482
 4241POPC   C3A54017  32.349  32.931   6.901
 4241POPC   C4A54018  32.342  32.651   7.285
 4241POPC   C1B54019  31.988  33.386   6.106
 4241POPC   C2B54020  31.898  33.419   6.561
 4241POPC   C3B54021  32.010  33.402   7.016
 4241POPC   C4B54022  32.180  33.122   7.328
 4242POPC   NC354023  29.036   1.439   5.620
 4242POPC   PO454024  29.260   0.952   5.161
 4242POPC   GL154025  29.533   1.183   5.618
 4242POPC   GL254026  29.505   1.490   5.826
 4242POPC   C1A54027  29.476   1.080   6.151
 4242POPC   D2A54028  29.114   0.937   6.456
 4242POPC   C3A54029  29.169   1.009   6.916
 4242POPC   C4A54030  29.168   1.016   7.384
 4242POPC   C1B54031  29.338   1.579   6.221
 4242POPC   C2B54032  29.338   1.387   6.605
 4242POPC   C3B54033  29.223   1.528   6.999
 4242POPC   C4B54034  29.364   1.481   7.406
 4243POPC   NC354035  29.799   4.946   5.486
 4243POPC   PO454036  29.984   5.464   5.202
 4243POPC   GL154037  29.995   5.328   5.737
 4243POPC   GL254038  30.079   4.960   5.891
 4243POPC   C1A54039  29.803   5.242   6.186
 4243POPC   D2A54040  29.878   4.976   6.573
 4243POPC   C3A54041  29.875   5.264   6.922
 4243POPC   C4A54042  29.919   5.544   7.255
 4243POPC   C1B54043  30.302   5.038   6.288
 4243POPC   C2B54044  30.421   5.237   6.670
 4243POPC   C3B54045  30.404   5.205   7.115
 4243POPC   C4B54046  30.108   4.910   7.219
 4244POPC   NC354047   5.792  41.897   5.514
 4244POPC   PO454048   6.088  41.347   5.687
 4244POPC   GL154049   5.689  41.554   5.906
 4244POPC   GL254050   5.635  41.933   6.001
 4244POPC   C1A54051   5.582  41.557   6.352
 4244POPC   D2A54052   5.781  41.738   6.722
 4244POPC   C3A54053   5.837  41.380   6.988
 4244POPC   C4A54054   5.710  41.353   7.417
 4244POPC   C1B54055   6.045  41.759   6.213
 4244POPC   C2B54056   6.312  41.648   6.573
 4244POPC   C3B54057   6.331  41.872   6.954
 4244POPC   C4B54058   5.984  41.791   7.238
 4245POPC   NC354059  14.502  43.643   5.414
 4245POPC   PO454060  14.692  44.314   5.420
 4245POPC   GL154061  14.566  44.031   5.753
 4245POPC   GL254062  14.299  44.132   5.915
 4245POPC   C1A54063  14.657  43.800   6.160
 4245POPC   D2A54064  14.849  43.655   6.587
 4245POPC   C3A54065  14.599  43.722   6.969
 4245POPC   C4A54066  14.628  44.105   7.187
 4245POPC   C1B54067  14.218  44.005   6.345
 4245POPC   C2B54068  14.271  44.125   6.769
 4245POPC   C3B54069  14.128  43.941   7.134
 4245POPC   C4B54070  14.121  44.160   7.493
 4246POPC   NC354071  36.068  23.648   5.229
 4246POPC   PO454072  36.675  23.978   5.358
 4246POPC   GL154073  36.321  23.821   5.659
 4246POPC   GL254074  36.207  23.485   5.679
 4246POPC   C1A54075  36.234  23.684   6.134
 4246POPC   D2A54076  36.369  23.792   6.582
 4246POPC   C3A54077  36.293  23.702   7.027
 4246POPC   C4A54078  35.955  23.846   7.320
 4246POPC   C1B54079  35.843  23.380   5.893
 4246POPC   C2B54080  35.819  23.420   6.331
 4246POPC   C3B54081  35.739  23.420   6.771
 4246POPC   C4B54082  35.943  23.353   7.166
 4247POPC   NC354083  15.283  26.182   5.464
 4247POPC   PO454084  14.895  25.630   5.473
 4247POPC   GL154085  15.180  25.804   5.802
 4247POPC   GL254086  15.105  26.161   5.925
 4247POPC   C1A54087  15.376  25.869   6.218
 4247POPC   D2A54088  15.248  26.191   6.481
 4247POPC   C3A54089  15.333  26.075   6.896
 4247POPC   C4A54090  15.147  25.973   7.300
 4247POPC   C1B54091  14.805  26.324   6.203
 4247POPC   C2B54092  14.849  26.530   6.605
 4247POPC   C3B54093  14.898  26.352   7.013
 4247POPC   C4B54094  14.967  26.449   7.460
 4248POPC   NC354095  38.579  23.736   5.395
 4248POPC   PO454096  38.032  23.352   5.536
 4248POPC   GL154097  38.277  23.647   5.817
 4248POPC   GL254098  38.651  23.680   5.878
 4248POPC   C1A54099  38.176  23.920   6.155
 4248POPC   D2A54100  38.150  23.756   6.591
 4248POPC   C3A54101  38.237  23.995   6.968
 4248POPC   C4A54102  38.606  24.026   7.253
 4248POPC   C1B54103  38.550  23.620   6.291
 4248POPC   C2B54104  38.640  23.869   6.667
 4248POPC   C3B54105  38.688  23.603   7.000
 4248POPC   C4B54106  38.749  23.559   7.430
 4249POPC   NC354107  40.787  35.480   5.054
 4249POPC   PO454108  40.671  35.601   5.679
 4249POPC   GL154109  40.799  35.374   5.982
 4249POPC   GL254110  41.064  35.301   5.825
 4249POPC   C1A54111  40.879  35.455   6.405
 4249POPC   D2A54112  40.579  35.288   6.663
 4249POPC   C3A54113  40.567  35.353   7.095
 4249POPC   C4A54114  40.400  35.321   7.522
 4249POPC   C1B54115  41.210  35.088   6.157
 4249POPC   C2B54116  41.084  35.013   6.563
 4249POPC   C3B54117  41.064  35.253   6.908
 4249POPC   C4B54118  40.991  35.094   7.293
 4250POPC   NC354119  41.777  43.507   5.345
 4250POPC   PO454120  41.244  43.134   5.343
 4250POPC   GL154121  41.428  43.024   5.732
 4250POPC   GL254122  41.705  43.229   5.778
 4250POPC   C1A54123  41.447  42.964   6.170
 4250POPC   D2A54124  41.554  43.196   6.517
 4250POPC   C3A54125  41.477  42.950   6.864
 4250POPC   C4A54126  41.602  43.057   7.253
 4250POPC   C1B54127  41.930  43.083   6.146
 4250POPC   C2B54128  41.964  42.872   6.542
 4250POPC   C3B54129  42.005  42.988   6.951
 4250POPC   C4B54130  42.074  42.899   7.368
 4251POPC   NC354131   1.777  26.585   5.448
 4251POPC   PO454132   2.081  27.128   5.296
 4251POPC   GL154133   2.056  26.973   5.727
 4251POPC   GL254134   2.335  26.708   5.771
 4251POPC   C1A54135   2.190  27.020   6.163
 4251POPC   D2A54136   2.089  26.852   6.554
 4251POPC   C3A54137   2.129  27.046   6.956
 4251POPC   C4A54138   1.922  27.017   7.339
 4251POPC   C1B54139   2.065  26.508   6.115
 4251POPC   C2B54140   2.003  26.337   6.540
 4251POPC   C3B54141   2.043  26.507   6.941
 4251POPC   C4B54142   2.362  26.636   7.209
 4252POPC   NC354143   6.365  21.716   5.271
 4252POPC   PO454144   6.608  22.406   5.390
 4252POPC   GL154145   6.463  22.374   5.796
 4252POPC   GL254146   6.364  22.005   5.805
 4252POPC   C1A54147   6.641  22.285   6.188
 4252POPC   D2A54148   6.788  22.089   6.564
 4252POPC   C3A54149   6.611  22.305   6.900
 4252POPC   C4A54150   6.480  22.240   7.315
 4252POPC   C1B54151   6.354  21.829   6.257
 4252POPC   C2B54152   6.278  21.910   6.709
 4252POPC   C3B54153   6.476  21.790   7.103
 4252POPC   C4B54154   6.369  21.832   7.571
 4253POPC   NC354155  44.350   8.499   5.472
 4253POPC   PO454156  44.214   9.106   5.655
 4253POPC   GL154157  43.863   8.867   5.872
 4253POPC   GL254158  44.021   8.579   5.882
 4253POPC   C1A54159  43.744   8.940   6.307
 4253POPC   D2A54160  43.987   9.055   6.694
 4253POPC   C3A54161  43.773   8.993   7.088
 4253POPC   C4A54162  43.500   8.676   7.195
 4253POPC   C1B54163  44.239   8.786   6.246
 4253POPC   C2B54164  44.455   8.815   6.667
 4253POPC   C3B54165  44.280   8.865   7.080
 4253POPC   C4B54166  44.101   9.157   7.429
 4254POPC   NC354167   3.285  43.777   5.413
 4254POPC   PO454168   3.805  44.332   5.408
 4254POPC   GL154169   3.760  44.066   5.752
 4254POPC   GL254170   3.396  44.045   5.853
 4254POPC   C1A54171   3.779  43.942   6.194
 4254POPC   D2A54172   3.455  44.039   6.491
 4254POPC   C3A54173   3.625  44.127   6.898
 4254POPC   C4A54174   3.441  44.218   7.270
 4254POPC   C1B54175   3.370  43.607   6.080
 4254POPC   C2B54176   3.383  43.415   6.506
 4254POPC   C3B54177   3.369  43.661   6.919
 4254POPC   C4B54178   3.266  43.751   7.364
 4255POPC   NC354179  16.146  35.569   5.396
 4255POPC   PO454180  16.258  34.965   5.224
 4255POPC   GL154181  16.133  35.107   5.657
 4255POPC   GL254182  15.795  35.090   5.750
 4255POPC   C1A54183  16.140  35.325   6.088
 4255POPC   D2A54184  16.288  35.619   6.439
 4255POPC   C3A54185  16.139  35.533   6.864
 4255POPC   C4A54186  16.226  35.494   7.315
 4255POPC   C1B54187  15.764  34.961   6.198
 4255POPC   C2B54188  16.099  34.948   6.541
 4255POPC   C3B54189  16.126  35.041   6.981
 4255POPC   C4B54190  15.811  35.227   7.243
 4256POPC   NC354191  15.356  30.851   5.533
 4256POPC   PO454192  14.959  30.353   5.310
 4256POPC   GL154193  15.166  30.391   5.747
 4256POPC   GL254194  14.866  30.386   5.924
 4256POPC   C1A54195  15.346  30.621   6.149
 4256POPC   D2A54196  15.221  30.814   6.563
 4256POPC   C3A54197  15.330  30.707   6.994
 4256POPC   C4A54198  15.236  30.741   7.459
 4256POPC   C1B54199  14.860  30.547   6.325
 4256POPC   C2B54200  14.875  30.451   6.747
 4256POPC   C3B54201  14.869  30.523   7.181
 4256POPC   C4B54202  15.002  30.287   7.544
 4257POPC   NC354203  15.967  37.904   5.408
 4257POPC   PO454204  15.589  37.303   5.526
 4257POPC   GL154205  15.843  37.537   5.908
 4257POPC   GL254206  15.823  37.914   5.891
 4257POPC   C1A54207  16.222  37.610   6.202
 4257POPC   D2A54208  16.284  37.413   6.615
 4257POPC   C3A54209  16.232  37.597   7.032
 4257POPC   C4A54210  16.251  37.653   7.478
 4257POPC   C1B54211  15.902  37.975   6.305
 4257POPC   C2B54212  15.910  37.868   6.718
 4257POPC   C3B54213  15.877  37.978   7.146
 4257POPC   C4B54214  15.608  37.934   7.521
 4258POPC   NC354215  39.703   9.865   5.488
 4258POPC   PO454216  40.366   9.782   5.397
 4258POPC   GL154217  40.258   9.796   5.823
 4258POPC   GL254218  40.111  10.090   5.819
 4258POPC   C1A54219  40.116   9.590   6.216
 4258POPC   D2A54220  39.832   9.345   6.535
 4258POPC   C3A54221  39.763   9.491   6.954
 4258POPC   C4A54222  39.783   9.843   7.178
 4258POPC   C1B54223  40.018  10.073   6.245
 4258POPC   C2B54224  39.969   9.854   6.643
 4258POPC   C3B54225  40.246   9.758   6.989
 4258POPC   C4B54226  40.204  10.000   7.398
 4259POPC   NC354227   0.575  10.047   5.384
 4259POPC   PO454228   0.859   9.390   5.409
 4259POPC   GL154229   0.535   9.487   5.748
 4259POPC   GL254230   0.416   9.835   5.816
 4259POPC   C1A54231   0.340   9.504   6.183
 4259POPC   D2A54232   0.156   9.367   6.561
 4259POPC   C3A54233   0.387   9.555   6.877
 4259POPC   C4A54234   0.361   9.683   7.266
 4259POPC   C1B54235   0.288  10.021   6.209
 4259POPC   C2B54236   0.386  10.139   6.644
 4259POPC   C3B54237   0.146  10.099   7.064
 4259POPC   C4B54238   0.142  10.031   7.546
 4260POPC   NC354239   9.265   6.818   5.479
 4260POPC   PO454240   8.706   6.438   5.354
 4260POPC   GL154241   8.888   6.571   5.768
 4260POPC   GL254242   8.797   6.915   5.689
 4260POPC   C1A54243   9.065   6.533   6.240
 4260POPC   D2A54244   9.210   6.785   6.615
 4260POPC   C3A54245   9.260   6.544   7.008
 4260POPC   C4A54246   8.892   6.461   7.185
 4260POPC   C1B54247   8.904   6.994   6.105
 4260POPC   C2B54248   8.687   6.877   6.480
 4260POPC   C3B54249   8.749   6.902   6.905
 4260POPC   C4B54250   9.122   7.033   7.073
 4261POPC   NC354251  42.042  10.815   5.455
 4261POPC   PO454252  42.689  10.525   5.377
 4261POPC   GL154253  42.478  10.543   5.770
 4261POPC   GL254254  42.107  10.408   5.784
 4261POPC   C1A54255  42.422  10.504   6.206
 4261POPC   D2A54256  42.184  10.638   6.545
 4261POPC   C3A54257  42.402  10.686   6.932
 4261POPC   C4A54258  42.247  10.647   7.346
 4261POPC   C1B54259  42.012  10.204   6.206
 4261POPC   C2B54260  42.322  10.125   6.573
 4261POPC   C3B54261  42.357  10.191   7.047
 4261POPC   C4B54262  42.618  10.302   7.411
 4262POPC   NC354263   3.582   5.482   5.490
 4262POPC   PO454264   3.287   6.167   5.557
 4262POPC   GL154265   3.521   6.015   5.898
 4262POPC   GL254266   3.766   5.738   5.922
 4262POPC   C1A54267   3.468   5.994   6.313
 4262POPC   D2A54268   3.688   5.767   6.604
 4262POPC   C3A54269   3.423   5.937   6.907
 4262POPC   C4A54270   3.537   5.935   7.305
 4262POPC   C1B54271   3.389   5.526   6.156
 4262POPC   C2B54272   3.191   5.622   6.550
 4262POPC   C3B54273   3.333   5.438   6.920
 4262POPC   C4B54274   3.339   5.301   7.302
 4263POPC   NC354275  33.673  20.093   5.461
 4263POPC   PO454276  34.067  19.604   5.480
 4263POPC   GL154277  33.987  19.846   5.813
 4263POPC   GL254278  33.665  19.690   5.815
 4263POPC   C1A54279  33.916  19.772   6.246
 4263POPC   D2A54280  33.670  19.903   6.546
 4263POPC   C3A54281  33.737  19.836   6.919
 4263POPC   C4A54282  33.704  20.188   7.120
 4263POPC   C1B54283  33.404  19.630   6.192
 4263POPC   C2B54284  33.274  19.608   6.618
 4263POPC   C3B54285  33.385  19.481   6.987
 4263POPC   C4B54286  33.466  19.399   7.396
 4264POPC   NC354287  38.866  26.935   5.592
 4264POPC   PO454288  39.535  26.900   5.484
 4264POPC   GL154289  39.380  26.782   5.872
 4264POPC   GL254290  39.077  26.905   6.048
 4264POPC   C1A54291  39.524  26.758   6.293
 4264POPC   D2A54292  39.280  26.702   6.642
 4264POPC   C3A54293  39.456  26.817   7.023
 4264POPC   C4A54294  39.236  26.595   7.300
 4264POPC   C1B54295  38.892  27.309   6.217
 4264POPC   C2B54296  38.895  27.371   6.676
 4264POPC   C3B54297  38.972  27.015   6.977
 4264POPC   C4B54298  38.980  27.016   7.447
 4265POPC   NC354299  34.583  11.423   5.448
 4265POPC   PO454300  34.495  10.754   5.452
 4265POPC   GL154301  34.540  11.028   5.812
 4265POPC   GL254302  34.252  11.244   5.865
 4265POPC   C1A54303  34.565  11.064   6.258
 4265POPC   D2A54304  34.795  10.984   6.627
 4265POPC   C3A54305  34.592  11.158   6.975
 4265POPC   C4A54306  34.585  11.117   7.411
 4265POPC   C1B54307  34.546  11.549   6.067
 4265POPC   C2B54308  34.624  11.626   6.469
 4265POPC   C3B54309  34.484  11.688   6.858
 4265POPC   C4B54310  34.660  11.606   7.218
 4266POPC   NC354311  10.394  28.024   5.561
 4266POPC   PO454312  10.617  27.444   5.494
 4266POPC   GL154313  10.752  27.581   5.884
 4266POPC   GL254314  10.537  27.862   6.027
 4266POPC   C1A54315  10.628  27.427   6.291
 4266POPC   D2A54316  10.559  27.681   6.639
 4266POPC   C3A54317  10.756  27.610   7.039
 4266POPC   C4A54318  10.929  27.504   7.459
 4266POPC   C1B54319  10.168  27.728   6.284
 4266POPC   C2B54320  10.039  27.672   6.708
 4266POPC   C3B54321  10.290  27.880   7.015
 4266POPC   C4B54322  10.405  27.744   7.410
 4267POPC   NC354323  11.812  30.170   5.499
 4267POPC   PO454324  11.998  29.566   5.260
 4267POPC   GL154325  11.962  29.744   5.784
 4267POPC   GL254326  12.019  30.121   5.951
 4267POPC   C1A54327  12.020  29.766   6.290
 4267POPC   D2A54328  11.772  29.821   6.660
 4267POPC   C3A54329  11.892  29.580   6.948
 4267POPC   C4A54330  12.275  29.667   7.141
 4267POPC   C1B54331  12.141  30.325   6.369
 4267POPC   C2B54332  12.183  30.139   6.795
 4267POPC   C3B54333  11.876  30.052   7.123
 4267POPC   C4B54334  11.851  30.152   7.601
 4268POPC   NC354335  43.403   8.521   5.152
 4268POPC   PO454336  43.280   7.948   5.528
 4268POPC   GL154337  43.201   8.173   5.900
 4268POPC   GL254338  43.138   8.506   5.864
 4268POPC   C1A54339  43.105   8.230   6.365
 4268POPC   D2A54340  42.827   8.043   6.724
 4268POPC   C3A54341  43.055   7.737   7.030
 4268POPC   C4A54342  43.385   7.909   7.294
 4268POPC   C1B54343  43.497   8.514   6.166
 4268POPC   C2B54344  43.438   8.628   6.619
 4268POPC   C3B54345  43.177   8.374   6.929
 4268POPC   C4B54346  42.896   8.160   7.239
 4269POPC   NC354347  35.288  23.678   5.179
 4269POPC   PO454348  35.874  24.084   5.303
 4269POPC   GL154349  35.742  23.823   5.662
 4269POPC   GL254350  35.410  23.642   5.692
 4269POPC   C1A54351  35.614  23.860   6.115
 4269POPC   D2A54352  35.412  23.745   6.512
 4269POPC   C3A54353  35.507  23.909   6.914
 4269POPC   C4A54354  35.309  23.840   7.285
 4269POPC   C1B54355  35.144  23.621   6.097
 4269POPC   C2B54356  34.915  23.634   6.492
 4269POPC   C3B54357  34.962  23.764   6.911
 4269POPC   C4B54358  34.961  23.474   7.267
 4270POPC   NC354359  28.110  16.503   5.024
 4270POPC   PO454360  28.481  16.002   5.407
 4270POPC   GL154361  28.358  15.917   5.850
 4270POPC   GL254362  28.413  15.605   5.968
 4270POPC   C1A54363  28.092  15.907   6.221
 4270POPC   D2A54364  28.115  16.098   6.609
 4270POPC   C3A54365  28.455  15.980   6.818
 4270POPC   C4A54366  28.409  15.883   7.196
 4270POPC   C1B54367  28.606  15.934   6.304
 4270POPC   C2B54368  28.901  15.799   6.653
 4270POPC   C3B54369  28.770  15.556   7.012
 4270POPC   C4B54370  28.642  15.528   7.439
 4271POPC   NC354371  21.855   6.988   5.527
 4271POPC   PO454372  21.237   6.629   5.403
 4271POPC   GL154373  21.303   6.750   5.796
 4271POPC   GL254374  21.016   6.975   5.825
 4271POPC   C1A54375  21.500   6.576   6.176
 4271POPC   D2A54376  21.615   6.258   6.457
 4271POPC   C3A54377  21.490   6.348   6.891
 4271POPC   C4A54378  21.415   6.633   7.251
 4271POPC   C1B54379  21.092   6.887   6.264
 4271POPC   C2B54380  21.220   6.837   6.681
 4271POPC   C3B54381  21.006   6.879   7.060
 4271POPC   C4B54382  21.009   6.822   7.525
 4272POPC   NC354383  24.977  15.082   5.379
 4272POPC   PO454384  25.643  14.902   5.524
 4272POPC   GL154385  25.402  15.221   5.770
 4272POPC   GL254386  25.056  15.175   5.863
 4272POPC   C1A54387  25.349  15.435   6.206
 4272POPC   D2A54388  25.297  15.382   6.683
 4272POPC   C3A54389  25.469  15.120   7.027
 4272POPC   C4A54390  25.115  15.236   7.274
 4272POPC   C1B54391  25.276  14.903   6.158
 4272POPC   C2B54392  25.284  14.842   6.598
 4272POPC   C3B54393  25.048  14.824   6.953
 4272POPC   C4B54394  25.153  14.711   7.329
 4273POPC   NC354395  17.292   1.333   5.273
 4273POPC   PO454396  17.932   1.185   5.375
 4273POPC   GL154397  17.628   1.272   5.702
 4273POPC   GL254398  17.243   1.277   5.767
 4273POPC   C1A54399  17.584   1.335   6.136
 4273POPC   D2A54400  17.410   1.161   6.495
 4273POPC   C3A54401  17.656   1.137   6.842
 4273POPC   C4A54402  17.495   1.001   7.188
 4273POPC   C1B54403  17.047   1.297   6.165
 4273POPC   C2B54404  17.061   1.546   6.550
 4273POPC   C3B54405  17.346   1.540   6.885
 4273POPC   C4B54406  17.511   1.504   7.315
 4274POPC   NC354407  30.475  23.046   5.283
 4274POPC   PO454408  30.961  22.789   5.590
 4274POPC   GL154409  30.705  23.103   5.751
 4274POPC   GL254410  30.458  22.825   5.749
 4274POPC   C1A54411  30.792  23.253   6.162
 4274POPC   D2A54412  30.860  22.914   6.471
 4274POPC   C3A54413  30.785  23.065   6.868
 4274POPC   C4A54414  30.822  22.971   7.276
 4274POPC   C1B54415  30.594  22.602   6.128
 4274POPC   C2B54416  30.402  22.609   6.545
 4274POPC   C3B54417  30.429  22.685   6.979
 4274POPC   C4B54418  30.483  22.526   7.391
 4275POPC   NC354419  22.333   1.431   5.356
 4275POPC   PO454420  22.035   0.893   5.582
 4275POPC   GL154421  22.233   1.128   5.912
 4275POPC   GL254422  22.302   1.475   5.888
 4275POPC   C1A54423  22.311   1.126   6.371
 4275POPC   D2A54424  22.414   0.885   6.748
 4275POPC   C3A54425  22.287   1.104   7.127
 4275POPC   C4A54426  22.094   0.884   7.474
 4275POPC   C1B54427  22.465   1.629   6.305
 4275POPC   C2B54428  22.265   1.734   6.716
 4275POPC   C3B54429  22.021   1.555   7.071
 4275POPC   C4B54430  22.179   1.449   7.497
 4276POPC   NC354431  16.718   1.515   5.500
 4276POPC   PO454432  16.384   2.158   5.597
 4276POPC   GL154433  16.718   2.008   5.896
 4276POPC   GL254434  16.946   1.711   5.907
 4276POPC   C1A54435  16.943   2.050   6.291
 4276POPC   D2A54436  17.155   2.230   6.628
 4276POPC   C3A54437  16.925   2.303   7.009
 4276POPC   C4A54438  16.512   2.114   7.092
 4276POPC   C1B54439  16.635   1.611   6.243
 4276POPC   C2B54440  16.628   1.809   6.662
 4276POPC   C3B54441  16.891   1.777   7.030
 4276POPC   C4B54442  16.720   1.824   7.475
 4277POPC   NC354443  17.660  30.242   5.233
 4277POPC   PO454444  17.240  30.800   5.336
 4277POPC   GL154445  17.321  30.755   5.791
 4277POPC   GL254446  17.675  30.677   5.814
 4277POPC   C1A54447  17.450  30.939   6.217
 4277POPC   D2A54448  17.316  30.672   6.584
 4277POPC   C3A54449  17.338  30.806   7.015
 4277POPC   C4A54450  17.642  30.973   7.293
 4277POPC   C1B54451  17.585  30.453   6.194
 4277POPC   C2B54452  17.908  30.507   6.493
 4277POPC   C3B54453  17.825  30.735   6.845
 4277POPC   C4B54454  17.933  30.591   7.233
 4278POPC   NC354455   2.985  44.678   5.564
 4278POPC   PO454456   2.365  44.510   5.383
 4278POPC   GL154457   2.531  44.487   5.783
 4278POPC   GL254458   2.615  44.847   5.857
 4278POPC   C1A54459   2.812  44.397   6.130
 4278POPC   D2A54460   2.972  44.279   6.545
 4278POPC   C3A54461   2.666  44.365   6.883
 4278POPC   C4A54462   2.794  44.625   7.214
 4278POPC   C1B54463   2.799  44.905   6.280
 4278POPC   C2B54464   2.902  44.793   6.715
 4278POPC   C3B54465   2.734   0.086   7.039
 4278POPC   C4B54466   2.559   0.051   7.421
 4279POPC   NC354467   6.590   6.491   5.444
 4279POPC   PO454468   6.787   7.135   5.366
 4279POPC   GL154469   6.712   6.844   5.801
 4279POPC   GL254470   6.811   6.480   5.893
 4279POPC   C1A54471   6.510   6.727   6.228
 4279POPC   D2A54472   6.542   6.584   6.659
 4279POPC   C3A54473   6.749   6.802   6.982
 4279POPC   C4A54474   6.638   6.683   7.359
 4279POPC   C1B54475   7.022   6.702   6.220
 4279POPC   C2B54476   7.059   6.585   6.635
 4279POPC   C3B54477   6.926   6.308   6.979
 4279POPC   C4B54478   7.034   6.136   7.379
 4280POPC   NC354479  33.076  29.275   4.859
 4280POPC   PO454480  32.922  28.902   5.456
 4280POPC   GL154481  32.920  29.084   5.871
 4280POPC   GL254482  33.155  28.863   5.963
 4280POPC   C1A54483  32.949  29.156   6.350
 4280POPC   D2A54484  33.125  29.394   6.690
 4280POPC   C3A54485  33.039  29.298   7.128
 4280POPC   C4A54486  32.816  28.924   7.153
 4280POPC   C1B54487  33.181  28.707   6.374
 4280POPC   C2B54488  33.176  28.890   6.779
 4280POPC   C3B54489  33.442  28.985   7.100
 4280POPC   C4B54490  33.290  29.030   7.493
 4281POPC   NC354491  10.718  29.109   5.413
 4281POPC   PO454492   9.999  28.972   5.586
 4281POPC   GL154493  10.422  28.952   5.814
 4281POPC   GL254494  10.552  29.300   5.859
 4281POPC   C1A54495  10.607  28.950   6.241
 4281POPC   D2A54496  10.640  29.272   6.591
 4281POPC   C3A54497  10.635  29.092   7.020
 4281POPC   C4A54498  10.253  28.860   7.128
 4281POPC   C1B54499  10.223  29.405   6.141
 4281POPC   C2B54500  10.226  29.599   6.546
 4281POPC   C3B54501  10.212  29.394   6.937
 4281POPC   C4B54502  10.020  29.334   7.325
 4282POPC   NC354503  20.512  17.213   5.369
 4282POPC   PO454504  20.873  17.692   5.080
 4282POPC   GL154505  20.792  17.608   5.590
 4282POPC   GL254506  20.745  17.276   5.799
 4282POPC   C1A54507  20.918  17.682   6.064
 4282POPC   D2A54508  20.689  17.712   6.472
 4282POPC   C3A54509  20.780  17.634   6.906
 4282POPC   C4A54510  20.461  17.476   7.213
 4282POPC   C1B54511  20.499  17.372   6.130
 4282POPC   C2B54512  20.652  17.188   6.490
 4282POPC   C3B54513  20.693  17.130   6.902
 4282POPC   C4B54514  20.952  17.243   7.223
 4283POPC   NC354515  17.754  37.928   5.074
 4283POPC   PO454516  17.577  37.436   5.443
 4283POPC   GL154517  17.434  37.478   5.837
 4283POPC   GL254518  17.230  37.792   5.871
 4283POPC   C1A54519  17.646  37.597   6.228
 4283POPC   D2A54520  17.535  37.917   6.527
 4283POPC   C3A54521  17.527  37.784   6.960
 4283POPC   C4A54522  17.208  37.816   7.264
 4283POPC   C1B54523  17.146  37.498   6.245
 4283POPC   C2B54524  17.351  37.391   6.615
 4283POPC   C3B54525  17.187  37.354   7.017
 4283POPC   C4B54526  17.070  37.308   7.436
 4284POPC   NC354527   3.525  17.784   5.620
 4284POPC   PO454528   3.238  17.218   5.442
 4284POPC   GL154529   3.480  17.233   5.820
 4284POPC   GL254530   3.794  17.409   5.818
 4284POPC   C1A54531   3.360  17.266   6.253
 4284POPC   D2A54532   3.192  17.231   6.676
 4284POPC   C3A54533   3.432  17.488   6.941
 4284POPC   C4A54534   3.575  17.425   7.348
 4284POPC   C1B54535   3.900  17.664   6.190
 4284POPC   C2B54536   3.875  17.801   6.622
 4284POPC   C3B54537   3.961  17.598   7.020
 4284POPC   C4B54538   4.052  17.421   7.473
 4285POPC   NC354539  18.046  24.774   5.753
 4285POPC   PO454540  18.595  24.373   5.577
 4285POPC   GL154541  18.462  24.198   5.938
 4285POPC   GL254542  18.144  24.319   5.982
 4285POPC   C1A54543  18.476  24.206   6.368
 4285POPC   D2A54544  18.638  24.540   6.605
 4285POPC   C3A54545  18.368  24.603   6.894
 4285POPC   C4A54546  18.268  24.313   7.174
 4285POPC   C1B54547  18.126  24.572   6.374
 4285POPC   C2B54548  17.866  24.794   6.650
 4285POPC   C3B54549  17.921  24.737   7.099
 4285POPC   C4B54550  18.071  24.615   7.515
 4286POPC   NC354551  43.516  33.845   5.444
 4286POPC   PO454552  42.906  33.493   5.374
 4286POPC   GL154553  43.073  33.717   5.749
 4286POPC   GL254554  43.397  33.603   5.888
 4286POPC   C1A54555  43.081  33.955   6.140
 4286POPC   D2A54556  42.974  33.818   6.535
 4286POPC   C3A54557  43.095  33.979   6.932
 4286POPC   C4A54558  43.065  33.851   7.357
 4286POPC   C1B54559  43.438  33.634   6.338
 4286POPC   C2B54560  43.250  33.397   6.629
 4286POPC   C3B54561  43.209  33.471   7.017
 4286POPC   C4B54562  43.478  33.568   7.324
 4287POPC   NC354563   2.906  11.690   5.495
 4287POPC   PO454564   2.410  12.135   5.235
 4287POPC   GL154565   2.542  12.092   5.671
 4287POPC   GL254566   2.398  12.345   5.814
 4287POPC   C1A54567   2.838  12.174   6.052
 4287POPC   D2A54568   2.790  12.218   6.508
 4287POPC   C3A54569   2.927  11.887   6.808
 4287POPC   C4A54570   3.023  12.109   7.196
 4287POPC   C1B54571   2.394  12.017   6.200
 4287POPC   C2B54572   2.409  11.878   6.608
 4287POPC   C3B54573   2.506  12.114   6.952
 4287POPC   C4B54574   2.507  11.995   7.337
 4288POPC   NC354575  30.595  32.715   5.419
 4288POPC   PO454576  31.058  32.205   5.421
 4288POPC   GL154577  30.793  32.307   5.758
 4288POPC   GL254578  30.848  32.652   5.844
 4288POPC   C1A54579  30.858  32.278   6.205
 4288POPC   D2A54580  30.609  32.088   6.500
 4288POPC   C3A54581  30.747  31.959   6.896
 4288POPC   C4A54582  30.595  32.077   7.294
 4288POPC   C1B54583  30.449  32.587   6.073
 4288POPC   C2B54584  30.505  32.601   6.505
 4288POPC   C3B54585  30.528  32.430   6.897
 4288POPC   C4B54586  30.383  32.578   7.265
 4289POPC   NC354587  43.941  36.380   5.345
 4289POPC   PO454588  43.830  35.685   5.299
 4289POPC   GL154589  43.804  36.005   5.705
 4289POPC   GL254590  43.934  36.353   5.843
 4289POPC   C1A54591  43.963  35.933   6.157
 4289POPC   D2A54592  43.789  35.999   6.578
 4289POPC   C3A54593  44.001  35.792   6.902
 4289POPC   C4A54594  43.932  35.782   7.329
 4289POPC   C1B54595  44.196  36.398   6.194
 4289POPC   C2B54596  44.241  36.330   6.630
 4289POPC   C3B54597  44.008  36.313   7.021
 4289POPC   C4B54598  43.635  36.562   7.159
 4290POPC   NC354599   0.413  34.444   5.483
 4290POPC   PO454600   0.532  35.085   5.525
 4290POPC   GL154601   0.577  34.754   5.864
 4290POPC   GL254602   0.270  34.561   5.944
 4290POPC   C1A54603   0.549  34.683   6.342
 4290POPC   D2A54604   0.249  34.443   6.538
 4290POPC   C3A54605   0.339  34.518   6.919
 4290POPC   C4A54606   0.288  34.775   7.239
 4290POPC   C1B54607   0.577  34.251   6.084
 4290POPC   C2B54608   0.601  34.094   6.475
 4290POPC   C3B54609   0.579  34.051   6.906
 4290POPC   C4B54610   0.619  34.279   7.277
 4291POPC   NC354611   9.107  34.836   5.246
 4291POPC   PO454612   8.648  34.486   5.442
 4291POPC   GL154613   8.979  34.454   5.768
 4291POPC   GL254614   9.018  34.817   5.801
 4291POPC   C1A54615   9.240  34.483   6.176
 4291POPC   D2A54616   9.152  34.624   6.629
 4291POPC   C3A54617   9.141  34.323   6.987
 4291POPC   C4A54618   9.178  34.270   7.448
 4291POPC   C1B54619   9.059  34.962   6.244
 4291POPC   C2B54620   9.332  35.104   6.605
 4291POPC   C3B54621   9.282  34.984   7.052
 4291POPC   C4B54622   9.039  34.721   7.301
 4292POPC   NC354623  24.098  32.417   5.398
 4292POPC   PO454624  24.544  31.885   5.558
 4292POPC   GL154625  24.589  32.254   5.823
 4292POPC   GL254626  24.441  32.563   5.784
 4292POPC   C1A54627  24.762  32.402   6.221
 4292POPC   D2A54628  25.006  32.187   6.572
 4292POPC   C3A54629  24.903  32.323   6.983
 4292POPC   C4A54630  24.750  32.218   7.386
 4292POPC   C1B54631  24.237  32.454   6.204
 4292POPC   C2B54632  24.439  32.449   6.647
 4292POPC   C3B54633  24.399  32.493   7.105
 4292POPC   C4B54634  24.267  32.282   7.503
 4293POPC   NC354635  17.087  39.444   5.420
 4293POPC   PO454636  17.651  39.142   5.298
 4293POPC   GL154637  17.595  39.079   5.723
 4293POPC   GL254638  17.544  39.420   5.788
 4293POPC   C1A54639  17.499  39.092   6.175
 4293POPC   D2A54640  17.380  39.344   6.542
 4293POPC   C3A54641  17.476  39.231   6.945
 4293POPC   C4A54642  17.667  38.876   7.133
 4293POPC   C1B54643  17.253  39.589   6.122
 4293POPC   C2B54644  17.110  39.778   6.539
 4293POPC   C3B54645  17.033  39.592   6.936
 4293POPC   C4B54646  17.270  39.512   7.326
 4294POPC   NC354647  17.495  29.068   5.414
 4294POPC   PO454648  17.893  29.496   5.495
 4294POPC   GL154649  17.654  29.360   5.884
 4294POPC   GL254650  17.610  28.983   5.926
 4294POPC   C1A54651  17.396  29.426   6.280
 4294POPC   D2A54652  17.211  29.362   6.686
 4294POPC   C3A54653  17.509  29.427   6.994
 4294POPC   C4A54654  17.723  29.242   7.338
 4294POPC   C1B54655  17.671  29.018   6.379
 4294POPC   C2B54656  17.371  28.879   6.678
 4294POPC   C3B54657  17.378  28.944   7.089
 4294POPC   C4B54658  17.764  28.754   7.169
 4295POPC   NC354659  32.313  26.337   5.630
 4295POPC   PO454660  32.170  25.664   5.463
 4295POPC   GL154661  32.082  25.888   5.849
 4295POPC   GL254662  31.849  26.153   5.872
 4295POPC   C1A54663  32.282  25.838   6.253
 4295POPC   D2A54664  32.473  26.131   6.564
 4295POPC   C3A54665  32.408  26.015   6.988
 4295POPC   C4A54666  32.206  25.982   7.377
 4295POPC   C1B54667  31.855  26.103   6.339
 4295POPC   C2B54668  31.944  26.140   6.789
 4295POPC   C3B54669  32.042  26.406   7.160
 4295POPC   C4B54670  31.972  26.402   7.620
 4296POPC   NC354671  12.857   4.826   5.551
 4296POPC   PO454672  12.449   5.315   5.452
 4296POPC   GL154673  12.428   5.008   5.772
 4296POPC   GL254674  12.744   5.204   5.898
 4296POPC   C1A54675  12.540   4.821   6.182
 4296POPC   D2A54676  12.818   5.025   6.514
 4296POPC   C3A54677  12.686   5.144   6.952
 4296POPC   C4A54678  12.616   4.859   7.307
 4296POPC   C1B54679  13.123   5.400   6.124
 4296POPC   C2B54680  13.361   5.322   6.518
 4296POPC   C3B54681  13.218   5.110   6.883
 4296POPC   C4B54682  13.109   5.219   7.310
 4297POPC   NC354683  22.670  22.998   5.512
 4297POPC   PO454684  23.283  23.057   5.363
 4297POPC   GL154685  23.086  23.086   5.823
 4297POPC   GL254686  22.767  23.325   5.879
 4297POPC   C1A54687  22.989  22.775   6.201
 4297POPC   D2A54688  22.730  22.804   6.599
 4297POPC   C3A54689  22.984  22.658   6.959
 4297POPC   C4A54690  23.253  22.904   7.223
 4297POPC   C1B54691  22.834  23.234   6.296
 4297POPC   C2B54692  23.144  23.141   6.607
 4297POPC   C3B54693  23.149  23.340   6.977
 4297POPC   C4B54694  22.773  23.120   7.095
 4298POPC   NC354695   2.668  32.906   5.368
 4298POPC   PO454696   3.114  33.456   5.227
 4298POPC   GL154697   2.952  33.416   5.642
 4298POPC   GL254698   2.614  33.324   5.695
 4298POPC   C1A54699   2.885  33.483   6.093
 4298POPC   D2A54700   2.983  33.280   6.480
 4298POPC   C3A54701   2.767  33.204   6.845
 4298POPC   C4A54702   2.809  32.808   7.052
 4298POPC   C1B54703   2.579  33.046   6.065
 4298POPC   C2B54704   2.557  32.870   6.485
 4298POPC   C3B54705   2.388  32.616   6.801
 4298POPC   C4B54706   2.353  32.675   7.248
 4299POPC   NC354707  15.627  27.763   5.044
 4299POPC   PO454708  16.122  27.444   5.437
 4299POPC   GL154709  15.934  27.616   5.807
 4299POPC   GL254710  16.210  27.725   5.899
 4299POPC   C1A54711  15.690  27.702   6.223
 4299POPC   D2A54712  15.665  27.959   6.616
 4299POPC   C3A54713  15.762  27.748   7.026
 4299POPC   C4A54714  15.654  27.691   7.464
 4299POPC   C1B54715  16.128  27.433   6.237
 4299POPC   C2B54716  15.994  27.540   6.624
 4299POPC   C3B54717  16.193  27.471   7.014
 4299POPC   C4B54718  15.977  27.289   7.335
 4300POPC   NC354719  19.500  16.364   5.528
 4300POPC   PO454720  19.961  15.919   5.298
 4300POPC   GL154721  19.928  16.008   5.751
 4300POPC   GL254722  19.566  15.987   5.852
 4300POPC   C1A54723  20.099  15.832   6.148
 4300POPC   D2A54724  20.187  15.966   6.559
 4300POPC   C3A54725  19.915  15.992   6.921
 4300POPC   C4A54726  19.898  16.149   7.346
 4300POPC   C1B54727  19.719  16.161   6.221
 4300POPC   C2B54728  19.696  15.810   6.491
 4300POPC   C3B54729  19.449  15.784   6.839
 4300POPC   C4B54730  19.630  15.699   7.239
 4301POPC   NC354731  17.901  17.441   5.440
 4301POPC   PO454732  18.591  17.193   5.342
 4301POPC   GL154733  18.360  17.467   5.671
 4301POPC   GL254734  18.630  17.434   5.866
 4301POPC   C1A54735  18.166  17.602   6.087
 4301POPC   D2A54736  18.126  17.388   6.507
 4301POPC   C3A54737  17.908  17.383   6.892
 4301POPC   C4A54738  18.103  17.671   7.201
 4301POPC   C1B54739  18.660  17.567   6.281
 4301POPC   C2B54740  18.640  17.280   6.608
 4301POPC   C3B54741  18.392  17.175   6.968
 4301POPC   C4B54742  18.712  17.249   7.257
 4302POPC   NC354743   7.101  28.541   5.073
 4302POPC   PO454744   6.703  28.060   5.370
 4302POPC   GL154745   6.557  28.147   5.803
 4302POPC   GL254746   6.613  27.832   5.894
 4302POPC   C1A54747   6.564  28.369   6.233
 4302POPC   D2A54748   6.581  28.613   6.620
 4302POPC   C3A54749   6.556  28.357   6.998
 4302POPC   C4A54750   6.465  28.449   7.466
 4302POPC   C1B54751   6.531  27.862   6.324
 4302POPC   C2B54752   6.737  28.062   6.617
 4302POPC   C3B54753   6.903  27.989   6.996
 4302POPC   C4B54754   6.953  28.297   7.279
 4303POPC   NC354755   8.928   8.673   5.309
 4303POPC   PO454756   8.641   8.050   5.341
 4303POPC   GL154757   8.848   8.136   5.756
 4303POPC   GL254758   9.107   8.396   5.869
 4303POPC   C1A54759   9.017   7.894   6.117
 4303POPC   D2A54760   9.177   7.797   6.544
 4303POPC   C3A54761   8.947   7.939   6.930
 4303POPC   C4A54762   9.209   8.134   7.209
 4303POPC   C1B54763   8.782   8.360   6.237
 4303POPC   C2B54764   8.660   8.223   6.653
 4303POPC   C3B54765   8.803   8.425   7.068
 4303POPC   C4B54766   8.911   8.394   7.549
 4304POPC   NC354767  40.359  20.463   5.280
 4304POPC   PO454768  41.025  20.363   5.348
 4304POPC   GL154769  40.900  20.546   5.741
 4304POPC   GL254770  40.615  20.438   5.723
 4304POPC   C1A54771  40.942  20.451   6.179
 4304POPC   D2A54772  41.048  20.669   6.565
 4304POPC   C3A54773  41.004  20.537   6.992
 4304POPC   C4A54774  40.986  20.780   7.383
 4304POPC   C1B54775  40.448  20.528   6.129
 4304POPC   C2B54776  40.568  20.410   6.557
 4304POPC   C3B54777  40.509  20.470   6.995
 4304POPC   C4B54778  40.601  20.433   7.457
 4305POPC   NC354779   7.082  25.135   5.484
 4305POPC   PO454780   6.437  25.270   5.359
 4305POPC   GL154781   6.657  25.269   5.749
 4305POPC   GL254782   6.774  25.602   5.724
 4305POPC   C1A54783   6.550  25.174   6.182
 4305POPC   D2A54784   6.443  25.025   6.619
 4305POPC   C3A54785   6.506  25.292   6.972
 4305POPC   C4A54786   6.507  25.098   7.380
 4305POPC   C1B54787   6.428  25.661   6.049
 4305POPC   C2B54788   6.433  25.617   6.513
 4305POPC   C3B54789   6.404  25.779   6.948
 4305POPC   C4B54790   6.490  25.621   7.384
 4306POPC   NC354791   6.412  19.230   5.268
 4306POPC   PO454792   6.907  18.847   5.368
 4306POPC   GL154793   6.828  18.971   5.813
 4306POPC   GL254794   6.517  19.124   5.765
 4306POPC   C1A54795   6.733  18.992   6.294
 4306POPC   D2A54796   6.371  18.920   6.612
 4306POPC   C3A54797   6.443  19.112   7.032
 4306POPC   C4A54798   6.840  19.029   7.247
 4306POPC   C1B54799   6.586  19.424   6.107
 4306POPC   C2B54800   6.542  19.399   6.540
 4306POPC   C3B54801   6.639  19.617   6.900
 4306POPC   C4B54802   6.659  19.512   7.318
 4307POPC   NC354803  20.071  16.670   5.394
 4307POPC   PO454804  20.112  17.298   5.595
 4307POPC   GL154805  19.861  16.925   5.852
 4307POPC   GL254806  19.899  16.534   5.856
 4307POPC   C1A54807  19.755  16.740   6.295
 4307POPC   D2A54808  19.760  16.933   6.715
 4307POPC   C3A54809  19.875  16.718   7.098
 4307POPC   C4A54810  19.892  16.914   7.533
 4307POPC   C1B54811  20.165  16.403   6.235
 4307POPC   C2B54812  20.025  16.443   6.656
 4307POPC   C3B54813  20.235  16.375   7.041
 4307POPC   C4B54814  20.214  16.532   7.483
 4308POPC   NC354815  37.950  25.699   5.343
 4308POPC   PO454816  37.656  26.285   5.451
 4308POPC   GL154817  37.529  26.166   5.861
 4308POPC   GL254818  37.889  26.082   5.950
 4308POPC   C1A54819  37.453  26.137   6.311
 4308POPC   D2A54820  37.812  26.056   6.568
 4308POPC   C3A54821  37.727  25.971   6.972
 4308POPC   C4A54822  37.401  26.089   7.216
 4308POPC   C1B54823  37.699  25.730   6.192
 4308POPC   C2B54824  37.437  25.665   6.570
 4308POPC   C3B54825  37.524  25.503   6.973
 4308POPC   C4B54826  37.669  25.603   7.383
 4309POPC   NC354827  44.853  22.067   5.485
 4309POPC   PO454828  44.483  22.584   5.416
 4309POPC   GL154829  44.499  22.343   5.797
 4309POPC   GL254830  44.869  22.322   5.932
 4309POPC   C1A54831  44.468  22.239   6.245
 4309POPC   D2A54832  44.718  22.218   6.618
 4309POPC   C3A54833  44.500  22.177   6.997
 4309POPC   C4A54834  44.548  22.381   7.375
 4309POPC   C1B54835   0.029  22.013   6.244
 4309POPC   C2B54836   0.051  21.830   6.687
 4309POPC   C3B54837  44.958  21.975   7.126
 4309POPC   C4B54838  44.960  21.843   7.571
 4310POPC   NC354839   4.723  27.752   5.373
 4310POPC   PO454840   5.313  27.469   5.360
 4310POPC   GL154841   4.994  27.444   5.700
 4310POPC   GL254842   4.925  27.786   5.826
 4310POPC   C1A54843   4.829  27.386   6.122
 4310POPC   D2A54844   4.888  27.676   6.459
 4310POPC   C3A54845   4.863  27.508   6.871
 4310POPC   C4A54846   4.734  27.638   7.272
 4310POPC   C1B54847   5.307  27.698   6.089
 4310POPC   C2B54848   5.388  27.837   6.531
 4310POPC   C3B54849   5.236  27.837   6.972
 4310POPC   C4B54850   5.281  27.610   7.379
 4311POPC   NC354851  27.221  33.194   5.136
 4311POPC   PO454852  27.662  32.649   5.160
 4311POPC   GL154853  27.519  33.013   5.553
 4311POPC   GL254854  27.792  33.079   5.773
 4311POPC   C1A54855  27.418  33.086   6.088
 4311POPC   D2A54856  27.618  32.968   6.531
 4311POPC   C3A54857  27.457  32.957   6.954
 4311POPC   C4A54858  27.097  32.745   7.137
 4311POPC   C1B54859  27.919  32.825   6.158
 4311POPC   C2B54860  28.070  32.690   6.577
 4311POPC   C3B54861  27.964  32.825   6.972
 4311POPC   C4B54862  27.810  32.908   7.363
 4312POPC   NC354863   5.991  25.369   5.484
 4312POPC   PO454864   5.435  24.976   5.429
 4312POPC   GL154865   5.565  25.243   5.790
 4312POPC   GL254866   5.903  25.150   5.921
 4312POPC   C1A54867   5.573  25.363   6.236
 4312POPC   D2A54868   5.613  25.151   6.630
 4312POPC   C3A54869   5.601  25.334   7.038
 4312POPC   C4A54870   5.634  25.064   7.381
 4312POPC   C1B54871   6.065  25.245   6.329
 4312POPC   C2B54872   6.046  25.386   6.755
 4312POPC   C3B54873   6.057  25.123   7.106
 4312POPC   C4B54874   6.066  25.283   7.532
 4313POPC   NC354875   1.900   4.541   5.430
 4313POPC   PO454876   2.246   4.008   5.490
 4313POPC   GL154877   2.079   4.291   5.840
 4313POPC   GL254878   2.130   4.682   5.873
 4313POPC   C1A54879   1.709   4.338   6.119
 4313POPC   D2A54880   1.732   4.499   6.532
 4313POPC   C3A54881   1.917   4.233   6.824
 4313POPC   C4A54882   1.894   4.193   7.269
 4313POPC   C1B54883   2.179   4.529   6.286
 4313POPC   C2B54884   2.185   4.680   6.708
 4313POPC   C3B54885   2.213   4.550   7.117
 4313POPC   C4B54886   2.232   4.493   7.581
 4314POPC   NC354887   2.745  26.334   5.475
 4314POPC   PO454888   3.153  25.802   5.247
 4314POPC   GL154889   2.931  25.871   5.750
 4314POPC   GL254890   2.892  26.232   5.939
 4314POPC   C1A54891   3.063  25.882   6.244
 4314POPC   D2A54892   2.841  25.871   6.669
 4314POPC   C3A54893   3.076  25.897   7.069
 4314POPC   C4A54894   3.158  25.918   7.538
 4314POPC   C1B54895   2.584  26.124   6.226
 4314POPC   C2B54896   2.533  26.336   6.605
 4314POPC   C3B54897   2.524  26.190   7.009
 4314POPC   C4B54898   2.798  26.287   7.303
 4315POPC   NC354899  35.653  26.301   5.580
 4315POPC   PO454900  35.388  25.702   5.506
 4315POPC   GL154901  35.350  25.981   5.841
 4315POPC   GL254902  35.073  25.815   5.937
 4315POPC   C1A54903  35.444  26.263   6.185
 4315POPC   D2A54904  35.600  26.142   6.551
 4315POPC   C3A54905  35.426  26.371   6.802
 4315POPC   C4A54906  35.462  26.246   7.161
 4315POPC   C1B54907  34.930  26.171   6.148
 4315POPC   C2B54908  34.883  26.055   6.570
 4315POPC   C3B54909  34.996  26.135   6.992
 4315POPC   C4B54910  34.923  26.325   7.400
 4316POPC   NC354911  22.751   4.665   5.426
 4316POPC   PO454912  23.032   4.091   5.620
 4316POPC   GL154913  22.951   4.438   5.886
 4316POPC   GL254914  23.293   4.568   5.865
 4316POPC   C1A54915  22.665   4.467   6.289
 4316POPC   D2A54916  22.482   4.596   6.722
 4316POPC   C3A54917  22.636   4.420   7.137
 4316POPC   C4A54918  22.813   4.053   7.307
 4316POPC   C1B54919  23.298   4.315   6.243
 4316POPC   C2B54920  23.229   4.034   6.591
 4316POPC   C3B54921  23.120   4.242   6.962
 4316POPC   C4B54922  23.261   4.617   7.123
 4317POPC   NC354923  14.816   1.758   5.480
 4317POPC   PO454924  15.048   1.179   5.142
 4317POPC   GL154925  14.896   1.138   5.603
 4317POPC   GL254926  15.158   1.297   5.775
 4317POPC   C1A54927  14.818   1.038   6.079
 4317POPC   D2A54928  15.007   1.126   6.506
 4317POPC   C3A54929  14.847   1.022   6.926
 4317POPC   C4A54930  14.926   0.815   7.313
 4317POPC   C1B54931  15.394   1.324   6.159
 4317POPC   C2B54932  15.641   1.275   6.538
 4317POPC   C3B54933  15.365   1.203   6.879
 4317POPC   C4B54934  15.171   1.262   7.257
 4318POPC   NC354935  22.165  23.196   5.258
 4318POPC   PO454936  22.385  22.648   5.429
 4318POPC   GL154937  22.211  22.838   5.811
 4318POPC   GL254938  22.260  23.216   5.786
 4318POPC   C1A54939  22.105  22.722   6.258
 4318POPC   D2A54940  22.213  22.856   6.696
 4318POPC   C3A54941  22.048  22.725   7.123
 4318POPC   C4A54942  22.141  22.600   7.552
 4318POPC   C1B54943  22.327  23.191   6.249
 4318POPC   C2B54944  22.489  23.287   6.689
 4318POPC   C3B54945  22.263  23.185   7.085
 4318POPC   C4B54946  22.060  23.112   7.507
 4319POPC   NC354947  34.116  16.372   5.417
 4319POPC   PO454948  34.786  16.639   5.353
 4319POPC   GL154949  34.525  16.555   5.720
 4319POPC   GL254950  34.243  16.795   5.759
 4319POPC   C1A54951  34.685  16.664   6.137
 4319POPC   D2A54952  34.898  16.675   6.564
 4319POPC   C3A54953  34.723  16.748   6.994
 4319POPC   C4A54954  34.721  17.056   7.387
 4319POPC   C1B54955  34.167  16.652   6.148
 4319POPC   C2B54956  34.372  16.585   6.530
 4319POPC   C3B54957  34.201  16.541   6.901
 4319POPC   C4B54958  34.038  16.511   7.334
 4320POPC   NC354959  18.822  24.811   5.562
 4320POPC   PO454960  18.993  25.540   5.528
 4320POPC   GL154961  18.724  25.544   5.892
 4320POPC   GL254962  18.834  25.191   5.912
 4320POPC   C1A54963  18.842  25.473   6.352
 4320POPC   D2A54964  19.275  25.342   6.512
 4320POPC   C3A54965  19.301  25.201   6.946
 4320POPC   C4A54966  18.986  25.358   7.184
 4320POPC   C1B54967  18.752  24.880   6.226
 4320POPC   C2B54968  18.884  25.000   6.636
 4320POPC   C3B54969  18.820  24.866   7.028
 4320POPC   C4B54970  18.549  24.777   7.356
 4321POPC   NC354971  16.177  30.287   5.450
 4321POPC   PO454972  15.695  29.813   5.374
 4321POPC   GL154973  15.917  29.947   5.784
 4321POPC   GL254974  15.795  30.272   5.821
 4321POPC   C1A54975  16.187  29.850   6.173
 4321POPC   D2A54976  16.322  29.826   6.620
 4321POPC   C3A54977  16.019  29.761   6.935
 4321POPC   C4A54978  15.911  30.012   7.256
 4321POPC   C1B54979  15.924  30.292   6.227
 4321POPC   C2B54980  15.781  30.067   6.584
 4321POPC   C3B54981  15.715  30.324   6.930
 4321POPC   C4B54982  16.100  30.447   7.077
 4322POPC   NC354983  13.013  19.968   5.296
 4322POPC   PO454984  12.568  19.515   5.500
 4322POPC   GL154985  12.949  19.712   5.749
 4322POPC   GL254986  12.848  20.081   5.782
 4322POPC   C1A54987  13.182  19.918   6.120
 4322POPC   D2A54988  13.052  20.085   6.528
 4322POPC   C3A54989  13.049  19.810   6.892
 4322POPC   C4A54990  12.905  19.885   7.290
 4322POPC   C1B54991  12.666  19.913   6.174
 4322POPC   C2B54992  12.583  19.858   6.631
 4322POPC   C3B54993  12.581  19.585   7.015
 4322POPC   C4B54994  12.828  19.361   7.367
 4323POPC   NC354995  12.400  41.092   5.302
 4323POPC   PO454996  12.081  40.440   5.427
 4323POPC   GL154997  11.983  40.813   5.746
 4323POPC   GL254998  12.190  41.148   5.779
 4323POPC   C1A54999  11.978  40.956   6.204
 4323POPC   D2A55000  11.819  40.836   6.614
 4323POPC   C3A55001  12.063  40.712   6.983
 4323POPC   C4A55002  11.945  40.864   7.411
 4323POPC   C1B55003  12.360  41.313   6.205
 4323POPC   C2B55004  12.293  41.141   6.658
 4323POPC   C3B55005  12.272  41.137   7.136
 4323POPC   C4B55006  12.417  40.985   7.570
 4324POPC   NC355007  15.165  32.662   5.434
 4324POPC   PO455008  15.524  32.131   5.466
 4324POPC   GL155009  15.234  32.173   5.804
 4324POPC   GL255010  14.887  32.118   5.686
 4324POPC   C1A55011  15.207  32.292   6.255
 4324POPC   D2A55012  15.381  32.146   6.652
 4324POPC   C3A55013  15.374  32.366   7.067
 4324POPC   C4A55014  15.585  32.370   7.470
 4324POPC   C1B55015  14.772  32.047   6.140
 4324POPC   C2B55016  14.788  32.149   6.609
 4324POPC   C3B55017  14.866  32.240   7.057
 4324POPC   C4B55018  15.032  32.096   7.436
 4325POPC   NC355019  24.833  12.900   5.408
 4325POPC   PO455020  24.184  13.036   5.431
 4325POPC   GL155021  24.478  13.074   5.764
 4325POPC   GL255022  24.422  12.739   5.899
 4325POPC   C1A55023  24.726  13.033   6.165
 4325POPC   D2A55024  24.564  12.817   6.530
 4325POPC   C3A55025  24.505  13.005   6.920
 4325POPC   C4A55026  24.814  13.150   7.218
 4325POPC   C1B55027  24.283  12.477   6.242
 4325POPC   C2B55028  24.194  12.508   6.692
 4325POPC   C3B55029  24.401  12.475   7.083
 4325POPC   C4B55030  24.329  12.376   7.518
 4326POPC   NC355031  18.499  40.229   5.424
 4326POPC   PO455032  18.485  39.550   5.291
 4326POPC   GL155033  18.423  39.678   5.713
 4326POPC   GL255034  18.085  39.521   5.785
 4326POPC   C1A55035  18.535  39.969   6.084
 4326POPC   D2A55036  18.502  40.180   6.490
 4326POPC   C3A55037  18.148  40.198   6.779
 4326POPC   C4A55038  18.321  40.185   7.181
 4326POPC   C1B55039  18.331  39.494   6.177
 4326POPC   C2B55040  18.299  39.708   6.576
 4326POPC   C3B55041  18.217  39.705   7.011
 4326POPC   C4B55042  18.109  39.827   7.447
 4327POPC   NC355043  42.731  22.798   5.547
 4327POPC   PO455044  42.439  23.407   5.290
 4327POPC   GL155045  42.356  23.154   5.722
 4327POPC   GL255046  42.043  22.988   5.800
 4327POPC   C1A55047  42.385  22.931   6.176
 4327POPC   D2A55048  42.190  22.829   6.595
 4327POPC   C3A55049  42.468  22.798   6.928
 4327POPC   C4A55050  42.498  22.885   7.383
 4327POPC   C1B55051  41.925  23.173   6.197
 4327POPC   C2B55052  42.046  23.335   6.607
 4327POPC   C3B55053  42.158  23.205   7.018
 4327POPC   C4B55054  42.027  22.835   7.236
 4328POPC   NC355055  43.711  29.184   5.456
 4328POPC   PO455056  44.069  28.745   5.757
 4328POPC   GL155057  43.909  29.150   5.915
 4328POPC   GL255058  44.119  29.432   5.770
 4328POPC   C1A55059  43.599  29.243   6.259
 4328POPC   D2A55060  43.640  29.013   6.671
 4328POPC   C3A55061  43.670  29.205   7.066
 4328POPC   C4A55062  43.931  29.110   7.421
 4328POPC   C1B55063  44.049  29.500   6.245
 4328POPC   C2B55064  44.122  29.406   6.694
 4328POPC   C3B55065  44.050  29.547   7.135
 4328POPC   C4B55066  44.164  29.508   7.629
 4329POPC   NC355067  13.245  11.933   5.425
 4329POPC   PO455068  13.672  12.435   5.302
 4329POPC   GL155069  13.728  12.106   5.597
 4329POPC   GL255070  14.005  12.194   5.795
 4329POPC   C1A55071  13.568  11.966   6.024
 4329POPC   D2A55072  13.416  12.060   6.456
 4329POPC   C3A55073  13.556  11.880   6.854
 4329POPC   C4A55074  13.448  12.019   7.278
 4329POPC   C1B55075  13.880  12.323   6.230
 4329POPC   C2B55076  13.928  12.254   6.692
 4329POPC   C3B55077  13.847  12.376   7.139
 4329POPC   C4B55078  13.837  12.165   7.578
 4330POPC   NC355079  16.744  24.558   5.546
 4330POPC   PO455080  16.920  24.014   5.417
 4330POPC   GL155081  16.963  24.201   5.819
 4330POPC   GL255082  16.615  24.120   5.849
 4330POPC   C1A55083  16.866  24.531   6.181
 4330POPC   D2A55084  16.544  24.655   6.514
 4330POPC   C3A55085  16.706  24.640   6.944
 4330POPC   C4A55086  16.468  24.445   7.266
 4330POPC   C1B55087  16.791  24.035   6.259
 4330POPC   C2B55088  16.866  24.240   6.630
 4330POPC   C3B55089  16.745  24.101   7.028
 4330POPC   C4B55090  16.784  24.121   7.475
 4331POPC   NC355091  29.509  16.872   5.054
 4331POPC   PO455092  29.117  16.615   5.563
 4331POPC   GL155093  29.140  16.754   5.962
 4331POPC   GL255094  29.401  16.518   6.043
 4331POPC   C1A55095  28.927  16.842   6.336
 4331POPC   D2A55096  28.982  16.769   6.759
 4331POPC   C3A55097  29.077  16.913   7.135
 4331POPC   C4A55098  28.920  16.537   7.310
 4331POPC   C1B55099  29.508  16.875   6.315
 4331POPC   C2B55100  29.509  16.844   6.764
 4331POPC   C3B55101  29.359  16.501   7.001
 4331POPC   C4B55102  29.536  16.370   7.349
 4332POPC   NC355103  32.816  17.191   5.626
 4332POPC   PO455104  32.932  16.639   5.251
 4332POPC   GL155105  32.882  16.695   5.741
 4332POPC   GL255106  32.792  16.384   5.873
 4332POPC   C1A55107  33.078  16.792   6.186
 4332POPC   D2A55108  32.937  16.995   6.603
 4332POPC   C3A55109  33.101  16.812   6.988
 4332POPC   C4A55110  33.020  16.701   7.424
 4332POPC   C1B55111  32.729  16.411   6.322
 4332POPC   C2B55112  32.779  16.472   6.742
 4332POPC   C3B55113  32.731  16.381   7.167
 4332POPC   C4B55114  32.696  16.350   7.598
 4333POPC   NC355115  18.388  20.147   5.461
 4333POPC   PO455116  18.186  19.527   5.347
 4333POPC   GL155117  18.226  19.736   5.750
 4333POPC   GL255118  18.398  19.475   5.853
 4333POPC   C1A55119  18.124  20.021   6.111
 4333POPC   D2A55120  17.934  19.956   6.534
 4333POPC   C3A55121  18.181  20.014   6.900
 4333POPC   C4A55122  18.140  20.238   7.221
 4333POPC   C1B55123  18.367  19.483   6.241
 4333POPC   C2B55124  18.346  19.667   6.577
 4333POPC   C3B55125  18.416  19.497   6.948
 4333POPC   C4B55126  18.386  19.741   7.282
 4334POPC   NC355127   4.141  42.283   5.356
 4334POPC   PO455128   4.797  42.022   5.420
 4334POPC   GL155129   4.521  42.068   5.795
 4334POPC   GL255130   4.301  42.364   5.828
 4334POPC   C1A55131   4.541  42.223   6.248
 4334POPC   D2A55132   4.421  42.067   6.627
 4334POPC   C3A55133   4.620  42.253   6.982
 4334POPC   C4A55134   4.622  42.323   7.425
 4334POPC   C1B55135   4.071  42.395   6.208
 4334POPC   C2B55136   3.911  42.329   6.598
 4334POPC   C3B55137   4.113  42.299   6.952
 4334POPC   C4B55138   3.975  42.405   7.286
 4335POPC   NC355139  28.447  21.600   5.439
 4335POPC   PO455140  28.526  22.226   5.244
 4335POPC   GL155141  28.379  22.265   5.678
 4335POPC   GL255142  28.295  21.941   5.805
 4335POPC   C1A55143  28.397  22.323   6.146
 4335POPC   D2A55144  28.550  22.126   6.559
 4335POPC   C3A55145  28.300  22.163   6.948
 4335POPC   C4A55146  28.392  22.460   7.248
 4335POPC   C1B55147  28.639  21.842   6.119
 4335POPC   C2B55148  28.642  21.621   6.535
 4335POPC   C3B55149  28.487  21.674   6.956
 4335POPC   C4B55150  28.606  21.940   7.314
 4336POPC   NC355151  20.088  32.486   5.592
 4336POPC   PO455152  19.642  31.951   5.430
 4336POPC   GL155153  19.736  32.177   5.831
 4336POPC   GL255154  19.661  32.532   5.952
 4336POPC   C1A55155  19.847  32.070   6.248
 4336POPC   D2A55156  19.986  32.057   6.657
 4336POPC   C3A55157  19.774  32.345   6.918
 4336POPC   C4A55158  19.779  32.083   7.264
 4336POPC   C1B55159  20.014  32.561   6.276
 4336POPC   C2B55160  20.299  32.461   6.641
 4336POPC   C3B55161  20.255  32.335   7.073
 4336POPC   C4B55162  20.050  32.461   7.467
 4337POPC   NC355163  20.313  25.967   5.394
 4337POPC   PO455164  20.888  26.350   5.415
 4337POPC   GL155165  20.727  26.076   5.761
 4337POPC   GL255166  20.533  25.749   5.799
 4337POPC   C1A55167  20.577  26.082   6.201
 4337POPC   D2A55168  20.301  26.257   6.524
 4337POPC   C3A55169  20.557  26.279   6.911
 4337POPC   C4A55170  20.958  26.372   7.098
 4337POPC   C1B55171  20.410  25.607   6.179
 4337POPC   C2B55172  20.372  25.752   6.587
 4337POPC   C3B55173  20.215  25.915   6.941
 4337POPC   C4B55174  20.448  25.870   7.298
 4338POPC   NC355175  26.332  23.575   5.432
 4338POPC   PO455176  25.691  23.660   5.460
 4338POPC   GL155177  26.012  23.782   5.787
 4338POPC   GL255178  26.174  23.468   5.900
 4338POPC   C1A55179  26.196  23.873   6.204
 4338POPC   D2A55180  26.125  23.591   6.541
 4338POPC   C3A55181  26.258  23.692   6.971
 4338POPC   C4A55182  25.988  23.892   7.279
 4338POPC   C1B55183  25.782  23.457   6.124
 4338POPC   C2B55184  25.639  23.367   6.520
 4338POPC   C3B55185  25.769  23.524   6.923
 4338POPC   C4B55186  25.868  23.235   7.228
 4339POPC   NC355187   3.262  11.006   5.418
 4339POPC   PO455188   2.623  11.229   5.430
 4339POPC   GL155189   2.685  11.331   5.848
 4339POPC   GL255190   2.527  11.641   5.861
 4339POPC   C1A55191   2.861  11.133   6.222
 4339POPC   D2A55192   2.978  10.964   6.646
 4339POPC   C3A55193   2.881  11.150   7.071
 4339POPC   C4A55194   2.778  11.184   7.519
 4339POPC   C1B55195   2.772  11.661   6.250
 4339POPC   C2B55196   2.719  11.431   6.632
 4339POPC   C3B55197   2.541  11.552   7.026
 4339POPC   C4B55198   2.862  11.636   7.279
 4340POPC   NC355199  14.295   2.974   5.456
 4340POPC   PO455200  14.953   2.920   5.535
 4340POPC   GL155201  14.632   2.832   5.846
 4340POPC   GL255202  14.279   2.821   5.929
 4340POPC   C1A55203  14.624   2.697   6.284
 4340POPC   D2A55204  14.633   2.966   6.649
 4340POPC   C3A55205  14.794   2.739   6.979
 4340POPC   C4A55206  14.784   2.734   7.392
 4340POPC   C1B55207  14.057   2.658   6.268
 4340POPC   C2B55208  14.246   2.617   6.665
 4340POPC   C3B55209  14.278   2.866   7.015
 4340POPC   C4B55210  14.266   2.776   7.418
 4341POPC   NC355211  31.699   3.141   5.492
 4341POPC   PO455212  31.444   2.649   5.308
 4341POPC   GL155213  31.483   2.755   5.787
 4341POPC   GL255214  31.318   3.059   5.839
 4341POPC   C1A55215  31.394   2.833   6.276
 4341POPC   D2A55216  31.141   2.816   6.644
 4341POPC   C3A55217  31.212   2.516   6.958
 4341POPC   C4A55218  31.491   2.742   7.195
 4341POPC   C1B55219  31.623   3.282   6.106
 4341POPC   C2B55220  31.814   3.229   6.468
 4341POPC   C3B55221  31.628   3.113   6.837
 4341POPC   C4B55222  31.777   3.182   7.224
 4342POPC   NC355223   7.978  23.779   5.027
 4342POPC   PO455224   8.473  23.712   5.492
 4342POPC   GL155225   8.159  23.620   5.810
 4342POPC   GL255226   7.919  23.297   5.762
 4342POPC   C1A55227   8.309  23.761   6.226
 4342POPC   D2A55228   8.474  23.858   6.624
 4342POPC   C3A55229   8.159  23.878   6.917
 4342POPC   C4A55230   8.120  23.841   7.319
 4342POPC   C1B55231   7.985  23.374   6.218
 4342POPC   C2B55232   8.121  23.459   6.639
 4342POPC   C3B55233   8.072  23.375   7.095
 4342POPC   C4B55234   8.204  23.411   7.561
 4343POPC   NC355235   0.916   1.401   5.418
 4343POPC   PO455236   1.515   1.140   5.219
 4343POPC   GL155237   1.371   1.200   5.711
 4343POPC   GL255238   1.046   1.374   5.900
 4343POPC   C1A55239   1.477   1.370   6.161
 4343POPC   D2A55240   1.217   1.480   6.559
 4343POPC   C3A55241   1.441   1.353   6.949
 4343POPC   C4A55242   1.629   1.035   7.173
 4343POPC   C1B55243   0.809   1.696   6.159
 4343POPC   C2B55244   0.926   1.906   6.558
 4343POPC   C3B55245   0.930   1.766   6.958
 4343POPC   C4B55246   0.962   1.384   7.193
 4344POPC   NC355247  43.601   1.461   5.456
 4344POPC   PO455248  43.867   0.776   5.283
 4344POPC   GL155249  43.832   0.995   5.704
 4344POPC   GL255250  44.024   1.320   5.777
 4344POPC   C1A55251  43.921   0.950   6.152
 4344POPC   D2A55252  43.834   1.193   6.490
 4344POPC   C3A55253  43.770   1.056   6.860
 4344POPC   C4A55254  43.757   1.027   7.273
 4344POPC   C1B55255  43.715   1.473   6.090
 4344POPC   C2B55256  43.629   1.655   6.498
 4344POPC   C3B55257  43.584   1.529   6.955
 4344POPC   C4B55258  43.694   1.550   7.412
 4345POPC   NC355259  18.297  24.001   5.500
 4345POPC   PO455260  17.824  24.425   5.532
 4345POPC   GL155261  17.847  23.972   5.772
 4345POPC   GL255262  18.021  23.598   5.718
 4345POPC   C1A55263  18.063  23.807   6.169
 4345POPC   D2A55264  18.366  23.714   6.483
 4345POPC   C3A55265  18.271  23.977   6.799
 4345POPC   C4A55266  18.056  23.824   7.149
 4345POPC   C1B55267  18.317  23.363   6.054
 4345POPC   C2B55268  18.435  23.212   6.494
 4345POPC   C3B55269  18.269  23.331   6.891
 4345POPC   C4B55270  18.417  23.431   7.262
 4346POPC   NC355271  17.241  43.549   5.321
 4346POPC   PO455272  17.309  44.226   5.365
 4346POPC   GL155273  17.284  43.923   5.713
 4346POPC   GL255274  17.086  44.075   5.942
 4346POPC   C1A55275  17.396  43.689   6.113
 4346POPC   D2A55276  17.600  43.786   6.524
 4346POPC   C3A55277  17.380  43.785   6.912
 4346POPC   C4A55278  17.456  43.699   7.356
 4346POPC   C1B55279  17.438  44.199   6.216
 4346POPC   C2B55280  17.595  44.276   6.626
 4346POPC   C3B55281  17.327  44.326   6.941
 4346POPC   C4B55282  17.275  44.139   7.299
 4347POPC   NC355283  13.427  26.130   5.200
 4347POPC   PO455284  14.004  26.235   5.243
 4347POPC   GL155285  13.639  26.091   5.662
 4347POPC   GL255286  13.519  26.330   5.898
 4347POPC   C1A55287  13.658  25.933   6.164
 4347POPC   D2A55288  13.937  26.038   6.528
 4347POPC   C3A55289  13.853  25.843   6.941
 4347POPC   C4A55290  13.527  25.976   7.209
 4347POPC   C1B55291  13.350  26.304   6.337
 4347POPC   C2B55292  13.353  26.190   6.760
 4347POPC   C3B55293  13.215  26.356   7.151
 4347POPC   C4B55294  13.369  26.272   7.608
 4348POPC   NC355295  32.234  40.378   5.505
 4348POPC   PO455296  31.938  39.757   5.526
 4348POPC   GL155297  32.068  40.043   5.856
 4348POPC   GL255298  32.432  40.112   5.902
 4348POPC   C1A55299  32.048  40.167   6.274
 4348POPC   D2A55300  32.038  40.291   6.697
 4348POPC   C3A55301  32.077  39.980   7.018
 4348POPC   C4A55302  32.082  39.941   7.441
 4348POPC   C1B55303  32.553  40.090   6.341
 4348POPC   C2B55304  32.530  40.120   6.796
 4348POPC   C3B55305  32.478  40.199   7.241
 4348POPC   C4B55306  32.588  39.860   7.549
 4349POPC   NC355307  19.243  29.360   5.351
 4349POPC   PO455308  18.729  28.987   5.287
 4349POPC   GL155309  18.878  29.032   5.758
 4349POPC   GL255310  19.143  29.271   5.838
 4349POPC   C1A55311  19.100  28.857   6.152
 4349POPC   D2A55312  19.358  28.855   6.529
 4349POPC   C3A55313  19.134  29.005   6.887
 4349POPC   C4A55314  19.125  28.993   7.327
 4349POPC   C1B55315  19.280  29.338   6.257
 4349POPC   C2B55316  19.015  29.423   6.579
 4349POPC   C3B55317  18.943  29.708   6.890
 4349POPC   C4B55318  19.075  29.502   7.268
 4350POPC   NC355319   4.173  35.751   5.333
 4350POPC   PO455320   4.014  35.092   5.619
 4350POPC   GL155321   4.260  35.388   5.895
 4350POPC   GL255322   4.510  35.582   5.713
 4350POPC   C1A55323   4.417  35.354   6.340
 4350POPC   D2A55324   4.570  35.055   6.693
 4350POPC   C3A55325   4.283  35.135   7.049
 4350POPC   C4A55326   4.117  35.561   7.006
 4350POPC   C1B55327   4.764  35.660   6.101
 4350POPC   C2B55328   4.646  35.782   6.538
 4350POPC   C3B55329   4.614  35.707   6.964
 4350POPC   C4B55330   4.325  35.970   7.207
 4351POPC   NC355331  27.661  23.588   5.418
 4351POPC   PO455332  27.323  24.189   5.147
 4351POPC   GL155333  27.405  23.954   5.606
 4351POPC   GL255334  27.676  24.060   5.792
 4351POPC   C1A55335  27.455  23.692   6.064
 4351POPC   D2A55336  27.686  23.524   6.465
 4351POPC   C3A55337  27.500  23.581   6.896
 4351POPC   C4A55338  27.685  23.654   7.331
 4351POPC   C1B55339  27.528  24.192   6.194
 4351POPC   C2B55340  27.529  24.003   6.607
 4351POPC   C3B55341  27.784  23.999   6.976
 4351POPC   C4B55342  27.760  24.146   7.405
 4352POPC   NC355343  29.089  39.823   5.385
 4352POPC   PO455344  29.439  40.287   5.654
 4352POPC   GL155345  29.085  40.070   5.868
 4352POPC   GL255346  28.931  39.736   5.959
 4352POPC   C1A55347  29.074  40.119   6.318
 4352POPC   D2A55348  29.232  40.461   6.608
 4352POPC   C3A55349  29.366  40.373   7.047
 4352POPC   C4A55350  29.223  40.265   7.465
 4352POPC   C1B55351  28.745  39.714   6.390
 4352POPC   C2B55352  28.885  39.943   6.763
 4352POPC   C3B55353  29.114  39.893   7.133
 4352POPC   C4B55354  29.013  39.799   7.575
 4353POPC   NC355355  34.981  24.316   5.408
 4353POPC   PO455356  34.338  24.540   5.233
 4353POPC   GL155357  34.349  24.619   5.710
 4353POPC   GL255358  34.281  24.926   5.867
 4353POPC   C1A55359  34.532  24.504   6.116
 4353POPC   D2A55360  34.891  24.559   6.371
 4353POPC   C3A55361  34.830  24.608   6.828
 4353POPC   C4A55362  34.586  24.292   7.019
 4353POPC   C1B55363  34.127  24.765   6.281
 4353POPC   C2B55364  34.326  24.543   6.632
 4353POPC   C3B55365  34.302  24.689   7.058
 4353POPC   C4B55366  34.327  24.723   7.510
 4354POPC   NC355367  43.850  28.245   5.397
 4354POPC   PO455368  44.384  28.526   5.328
 4354POPC   GL155369  44.203  28.227   5.748
 4354POPC   GL255370  43.805  28.301   5.886
 4354POPC   C1A55371  44.127  28.134   6.217
 4354POPC   D2A55372  44.129  28.383   6.598
 4354POPC   C3A55373  44.050  28.201   6.997
 4354POPC   C4A55374  43.855  28.215   7.409
 4354POPC   C1B55375  43.665  28.434   6.307
 4354POPC   C2B55376  43.624  28.459   6.755
 4354POPC   C3B55377  43.723  28.676   7.148
 4354POPC   C4B55378  43.567  28.611   7.581
 4355POPC   NC355379  35.027  37.360   5.412
 4355POPC   PO455380  35.453  37.777   5.128
 4355POPC   GL155381  35.481  37.590   5.551
 4355POPC   GL255382  35.245  37.817   5.662
 4355POPC   C1A55383  35.424  37.524   6.034
 4355POPC   D2A55384  35.563  37.546   6.493
 4355POPC   C3A55385  35.380  37.683   6.902
 4355POPC   C4A55386  34.974  37.560   7.093
 4355POPC   C1B55387  35.118  37.982   6.058
 4355POPC   C2B55388  35.290  38.037   6.464
 4355POPC   C3B55389  35.026  38.039   6.820
 4355POPC   C4B55390  34.968  38.067   7.245
 4356POPC   NC355391  10.070  37.044   5.414
 4356POPC   PO455392   9.534  36.686   5.182
 4356POPC   GL155393   9.673  36.772   5.615
 4356POPC   GL255394   9.641  37.141   5.710
 4356POPC   C1A55395   9.775  36.674   6.066
 4356POPC   D2A55396   9.554  36.787   6.459
 4356POPC   C3A55397   9.655  36.729   6.895
 4356POPC   C4A55398  10.018  36.899   7.102
 4356POPC   C1B55399   9.794  37.185   6.161
 4356POPC   C2B55400   9.703  37.274   6.607
 4356POPC   C3B55401   9.523  37.212   7.015
 4356POPC   C4B55402   9.490  37.351   7.433
 4357POPC   NC355403  32.372  42.877   5.478
 4357POPC   PO455404  32.076  43.491   5.555
 4357POPC   GL155405  32.197  43.234   5.867
 4357POPC   GL255406  32.541  43.275   5.784
 4357POPC   C1A55407  32.172  43.255   6.325
 4357POPC   D2A55408  32.168  42.894   6.595
 4357POPC   C3A55409  31.924  42.888   6.981
 4357POPC   C4A55410  32.046  43.246   7.237
 4357POPC   C1B55411  32.553  42.980   6.132
 4357POPC   C2B55412  32.671  43.125   6.523
 4357POPC   C3B55413  32.444  43.228   6.870
 4357POPC   C4B55414  32.632  43.233   7.243
 4358POPC   NC355415  16.427   9.802   5.368
 4358POPC   PO455416  17.117   9.581   5.424
 4358POPC   GL155417  16.812   9.831   5.720
 4358POPC   GL255418  16.656   9.548   5.749
 4358POPC   C1A55419  16.593   9.787   6.183
 4358POPC   D2A55420  16.483   9.623   6.583
 4358POPC   C3A55421  16.697   9.830   6.877
 4358POPC   C4A55422  16.733   9.705   7.251
 4358POPC   C1B55423  16.978   9.478   6.061
 4358POPC   C2B55424  16.979   9.518   6.511
 4358POPC   C3B55425  16.882   9.326   6.906
 4358POPC   C4B55426  17.101   9.369   7.309
 4359POPC   NC355427  31.716  35.308   5.546
 4359POPC   PO455428  31.146  35.000   5.376
 4359POPC   GL155429  31.343  35.027   5.825
 4359POPC   GL255430  31.712  34.881   5.844
 4359POPC   C1A55431  31.238  35.270   6.253
 4359POPC   D2A55432  31.189  35.558   6.633
 4359POPC   C3A55433  31.127  35.245   6.940
 4359POPC   C4A55434  31.282  35.085   7.300
 4359POPC   C1B55435  31.740  35.206   6.169
 4359POPC   C2B55436  31.666  35.432   6.521
 4359POPC   C3B55437  31.642  35.292   6.922
 4359POPC   C4B55438  31.958  35.479   7.122
 4360POPC   NC355439  44.486  35.560   5.167
 4360POPC   PO455440  44.266  36.100   5.526
 4360POPC   GL155441  44.568  35.962   5.812
 4360POPC   GL255442  44.648  35.606   5.810
 4360POPC   C1A55443  44.542  35.991   6.256
 4360POPC   D2A55444  44.713  36.140   6.626
 4360POPC   C3A55445  44.496  36.099   7.013
 4360POPC   C4A55446  44.781  36.164   7.307
 4360POPC   C1B55447  44.957  35.622   6.147
 4360POPC   C2B55448   0.104  35.820   6.532
 4360POPC   C3B55449  44.957  35.799   6.967
 4360POPC   C4B55450   0.228  35.916   7.327
 4361POPC   NC355451   5.122   9.268   5.214
 4361POPC   PO455452   5.088   9.916   5.441
 4361POPC   GL155453   5.146   9.492   5.720
 4361POPC   GL255454   5.480   9.419   5.828
 4361POPC   C1A55455   5.114   9.359   6.181
 4361POPC   D2A55456   4.942   9.249   6.582
 4361POPC   C3A55457   5.105   9.426   6.971
 4361POPC   C4A55458   4.917   9.835   7.116
 4361POPC   C1B55459   5.329   9.819   6.080
 4361POPC   C2B55460   5.359  10.051   6.465
 4361POPC   C3B55461   5.385   9.852   6.871
 4361POPC   C4B55462   5.387   9.711   7.309
 4362POPC   NC355463  23.589  35.180   5.358
 4362POPC   PO455464  24.079  35.619   5.433
 4362POPC   GL155465  23.942  35.265   5.733
 4362POPC   GL255466  23.573  35.225   5.853
 4362POPC   C1A55467  23.957  35.110   6.169
 4362POPC   D2A55468  23.682  35.247   6.516
 4362POPC   C3A55469  23.893  35.259   6.901
 4362POPC   C4A55470  24.018  35.052   7.266
 4362POPC   C1B55471  23.287  35.530   6.068
 4362POPC   C2B55472  23.209  35.552   6.503
 4362POPC   C3B55473  23.264  35.300   6.859
 4362POPC   C4B55474  23.512  35.243   7.227
 4363POPC   NC355475  35.168   4.467   5.564
 4363POPC   PO455476  35.342   3.830   5.396
 4363POPC   GL155477  35.339   4.050   5.816
 4363POPC   GL255478  34.979   4.140   5.890
 4363POPC   C1A55479  35.405   4.363   6.183
 4363POPC   D2A55480  35.168   4.544   6.542
 4363POPC   C3A55481  35.311   4.400   6.936
 4363POPC   C4A55482  35.603   4.327   7.272
 4363POPC   C1B55483  35.021   4.044   6.288
 4363POPC   C2B55484  35.018   4.071   6.673
 4363POPC   C3B55485  35.192   3.894   6.977
 4363POPC   C4B55486  35.138   4.102   7.329
 4364POPC   NC355487   0.698  21.050   5.470
 4364POPC   PO455488   1.378  21.221   5.335
 4364POPC   GL155489   1.122  21.286   5.731
 4364POPC   GL255490   1.018  21.639   5.835
 4364POPC   C1A55491   1.168  21.228   6.189
 4364POPC   D2A55492   1.403  21.263   6.573
 4364POPC   C3A55493   1.138  21.135   6.889
 4364POPC   C4A55494   1.031  21.001   7.279
 4364POPC   C1B55495   1.181  21.730   6.195
 4364POPC   C2B55496   1.000  21.591   6.555
 4364POPC   C3B55497   1.246  21.643   6.892
 4364POPC   C4B55498   1.172  21.504   7.268
 4365POPC   NC355499  40.115  30.891   5.291
 4365POPC   PO455500  39.532  30.568   5.265
 4365POPC   GL155501  39.755  30.774   5.647
 4365POPC   GL255502  40.115  30.629   5.742
 4365POPC   C1A55503  39.855  30.916   6.074
 4365POPC   D2A55504  39.965  30.771   6.486
 4365POPC   C3A55505  39.828  30.935   6.906
 4365POPC   C4A55506  39.863  30.701   7.304
 4365POPC   C1B55507  40.206  30.368   6.133
 4365POPC   C2B55508  40.289  30.399   6.596
 4365POPC   C3B55509  40.246  30.473   7.029
 4365POPC   C4B55510  40.296  30.496   7.486
 4366POPC   NC355511   1.601  10.930   5.011
 4366POPC   PO455512   2.018  10.470   5.190
 4366POPC   GL155513   1.952  10.466   5.646
 4366POPC   GL255514   2.005  10.812   5.776
 4366POPC   C1A55515   1.963  10.430   6.108
 4366POPC   D2A55516   2.233  10.502   6.454
 4366POPC   C3A55517   2.095  10.384   6.872
 4366POPC   C4A55518   2.239  10.387   7.305
 4366POPC   C1B55519   1.997  10.966   6.245
 4366POPC   C2B55520   1.999  10.873   6.704
 4366POPC   C3B55521   1.985  10.796   7.154
 4366POPC   C4B55522   1.727  10.882   7.469
 4367POPC   NC355523   7.347  17.295   5.229
 4367POPC   PO455524   7.887  17.645   5.395
 4367POPC   GL155525   7.606  17.508   5.774
 4367POPC   GL255526   7.422  17.231   5.761
 4367POPC   C1A55527   7.778  17.316   6.157
 4367POPC   D2A55528   7.604  17.319   6.557
 4367POPC   C3A55529   7.794  17.455   6.946
 4367POPC   C4A55530   7.513  17.674   7.216
 4367POPC   C1B55531   7.192  17.252   6.131
 4367POPC   C2B55532   7.097  17.146   6.534
 4367POPC   C3B55533   7.196  17.400   6.862
 4367POPC   C4B55534   7.079  17.391   7.236
 4368POPC   NC355535  30.638  13.173   5.469
 4368POPC   PO455536  31.108  12.647   5.496
 4368POPC   GL155537  30.987  12.963   5.821
 4368POPC   GL255538  30.643  12.943   5.948
 4368POPC   C1A55539  31.062  13.032   6.262
 4368POPC   D2A55540  30.801  12.918   6.572
 4368POPC   C3A55541  30.951  12.847   6.958
 4368POPC   C4A55542  30.747  12.960   7.344
 4368POPC   C1B55543  30.446  12.649   6.280
 4368POPC   C2B55544  30.210  12.459   6.639
 4368POPC   C3B55545  30.362  12.305   7.055
 4368POPC   C4B55546  30.372  12.542   7.439
 4369POPC   NC355547  43.139  24.329   5.173
 4369POPC   PO455548  42.751  24.194   5.696
 4369POPC   GL155549  43.087  24.505   5.773
 4369POPC   GL255550  42.951  24.844   5.817
 4369POPC   C1A55551  43.292  24.586   6.200
 4369POPC   D2A55552  43.115  24.550   6.654
 4369POPC   C3A55553  43.265  24.585   7.099
 4369POPC   C4A55554  43.294  24.706   7.567
 4369POPC   C1B55555  42.784  24.611   6.220
 4369POPC   C2B55556  42.634  24.356   6.580
 4369POPC   C3B55557  42.817  24.178   6.951
 4369POPC   C4B55558  42.953  24.313   7.357
 4370POPC   NC355559   7.151  36.523   5.391
 4370POPC   PO455560   7.246  37.224   5.500
 4370POPC   GL155561   7.444  36.989   5.795
 4370POPC   GL255562   7.207  36.754   5.851
 4370POPC   C1A55563   7.402  37.028   6.246
 4370POPC   D2A55564   7.427  37.276   6.589
 4370POPC   C3A55565   7.304  36.999   6.905
 4370POPC   C4A55566   7.568  37.107   7.218
 4370POPC   C1B55567   7.448  36.528   6.173
 4370POPC   C2B55568   7.643  36.694   6.602
 4370POPC   C3B55569   7.539  36.547   7.023
 4370POPC   C4B55570   7.259  36.669   7.322
 4371POPC   NC355571  34.192  44.530   5.392
 4371POPC   PO455572  34.851  44.804   5.368
 4371POPC   GL155573  34.711  44.636   5.736
 4371POPC   GL255574  34.481  44.881   5.827
 4371POPC   C1A55575  34.864  44.435   6.118
 4371POPC   D2A55576  34.743  44.282   6.533
 4371POPC   C3A55577  34.897  44.406   6.951
 4371POPC   C4A55578  34.868  44.648   7.336
 4371POPC   C1B55579  34.437  44.704   6.256
 4371POPC   C2B55580  34.450  44.656   6.721
 4371POPC   C3B55581  34.405  44.576   7.164
 4371POPC   C4B55582  34.398  44.892   7.485
 4372POPC   NC355583  33.862  42.129   5.349
 4372POPC   PO455584  33.601  42.753   5.564
 4372POPC   GL155585  33.772  42.548   5.904
 4372POPC   GL255586  33.847  42.224   5.852
 4372POPC   C1A55587  33.943  42.669   6.309
 4372POPC   D2A55588  33.819  42.625   6.725
 4372POPC   C3A55589  34.120  42.629   7.066
 4372POPC   C4A55590  34.068  42.427   7.495
 4372POPC   C1B55591  33.824  42.161   6.309
 4372POPC   C2B55592  33.838  42.092   6.750
 4372POPC   C3B55593  33.706  42.299   7.119
 4372POPC   C4B55594  33.303  42.162   7.217
 4373POPC   NC355595  28.104   3.492   5.335
 4373POPC   PO455596  28.700   3.143   5.516
 4373POPC   GL155597  28.565   3.416   5.842
 4373POPC   GL255598  28.208   3.498   5.852
 4373POPC   C1A55599  28.513   3.516   6.279
 4373POPC   D2A55600  28.666   3.715   6.655
 4373POPC   C3A55601  28.368   3.654   6.965
 4373POPC   C4A55602  28.222   3.566   7.368
 4373POPC   C1B55603  27.980   3.295   6.220
 4373POPC   C2B55604  27.900   3.284   6.691
 4373POPC   C3B55605  27.892   3.212   7.166
 4373POPC   C4B55606  27.891   3.345   7.663
 4374POPC   NC355607  41.402   8.109   5.337
 4374POPC   PO455608  40.747   8.204   5.556
 4374POPC   GL155609  41.168   8.250   5.776
 4374POPC   GL255610  41.245   8.597   5.901
 4374POPC   C1A55611  41.508   8.040   6.073
 4374POPC   D2A55612  41.749   8.103   6.486
 4374POPC   C3A55613  41.598   7.997   6.894
 4374POPC   C4A55614  41.775   7.955   7.288
 4374POPC   C1B55615  41.483   8.523   6.290
 4374POPC   C2B55616  41.465   8.501   6.761
 4374POPC   C3B55617  41.281   8.356   7.168
 4374POPC   C4B55618  41.048   8.346   7.589
 4375POPC   NC355619  26.479  30.774   5.467
 4375POPC   PO455620  25.814  30.636   5.382
 4375POPC   GL155621  26.083  30.614   5.771
 4375POPC   GL255622  26.192  30.954   5.838
 4375POPC   C1A55623  26.157  30.582   6.227
 4375POPC   D2A55624  25.906  30.428   6.564
 4375POPC   C3A55625  26.023  30.541   6.962
 4375POPC   C4A55626  26.168  30.532   7.374
 4375POPC   C1B55627  26.024  31.089   6.216
 4375POPC   C2B55628  26.049  30.950   6.619
 4375POPC   C3B55629  25.820  31.039   6.973
 4375POPC   C4B55630  25.930  31.024   7.343
 4376POPC   NC355631  19.438   4.079   5.343
 4376POPC   PO455632  18.868   4.553   5.471
 4376POPC   GL155633  19.095   4.497   5.830
 4376POPC   GL255634  19.220   4.173   5.792
 4376POPC   C1A55635  18.961   4.313   6.214
 4376POPC   D2A55636  18.685   4.147   6.518
 4376POPC   C3A55637  18.853   4.176   6.964
 4376POPC   C4A55638  19.214   4.409   7.154
 4376POPC   C1B55639  19.285   3.937   6.169
 4376POPC   C2B55640  19.172   3.969   6.604
 4376POPC   C3B55641  19.378   3.946   7.009
 4376POPC   C4B55642  19.297   4.001   7.456
 4377POPC   NC355643  41.776  23.971   5.535
 4377POPC   PO455644  41.493  23.420   5.267
 4377POPC   GL155645  41.481  23.637   5.765
 4377POPC   GL255646  41.174  23.686   5.876
 4377POPC   C1A55647  41.731  23.673   6.225
 4377POPC   D2A55648  41.978  23.846   6.580
 4377POPC   C3A55649  41.795  23.649   6.952
 4377POPC   C4A55650  41.389  23.505   7.093
 4377POPC   C1B55651  41.316  23.945   6.223
 4377POPC   C2B55652  41.368  23.800   6.656
 4377POPC   C3B55653  41.325  24.004   7.021
 4377POPC   C4B55654  41.328  24.343   7.297
 4378POPC   NC355655   5.950   5.881   5.387
 4378POPC   PO455656   5.460   6.405   5.464
 4378POPC   GL155657   5.712   6.147   5.771
 4378POPC   GL255658   5.662   5.776   5.829
 4378POPC   C1A55659   5.897   6.079   6.198
 4378POPC   D2A55660   6.028   5.815   6.559
 4378POPC   C3A55661   5.971   5.986   6.966
 4378POPC   C4A55662   5.604   6.086   7.218
 4378POPC   C1B55663   5.617   5.636   6.286
 4378POPC   C2B55664   5.561   5.697   6.747
 4378POPC   C3B55665   5.642   5.448   7.109
 4378POPC   C4B55666   5.907   5.669   7.369
 4379POPC   NC355667   2.870  32.012   5.423
 4379POPC   PO455668   2.414  32.490   5.378
 4379POPC   GL155669   2.339  32.318   5.797
 4379POPC   GL255670   2.589  32.059   5.850
 4379POPC   C1A55671   2.488  32.396   6.235
 4379POPC   D2A55672   2.833  32.390   6.529
 4379POPC   C3A55673   2.757  32.291   6.949
 4379POPC   C4A55674   2.715  32.376   7.386
 4379POPC   C1B55675   2.772  31.863   6.199
 4379POPC   C2B55676   2.729  31.841   6.612
 4379POPC   C3B55677   2.925  31.821   6.968
 4379POPC   C4B55678   2.823  31.908   7.332
 4380POPC   NC355679  38.519  30.086   5.490
 4380POPC   PO455680  38.044  29.576   5.468
 4380POPC   GL155681  38.239  29.793   5.830
 4380POPC   GL255682  38.344  29.461   5.901
 4380POPC   C1A55683  38.387  30.091   6.202
 4380POPC   D2A55684  38.399  30.263   6.658
 4380POPC   C3A55685  38.565  30.118   7.063
 4380POPC   C4A55686  38.424  29.950   7.455
 4380POPC   C1B55687  38.352  29.594   6.314
 4380POPC   C2B55688  38.351  29.733   6.753
 4380POPC   C3B55689  38.368  29.504   7.146
 4380POPC   C4B55690  38.294  29.489   7.591
 4381POPC   NC355691  12.939   9.820   5.392
 4381POPC   PO455692  12.468   9.355   5.423
 4381POPC   GL155693  12.649   9.613   5.751
 4381POPC   GL255694  12.432   9.591   5.982
 4381POPC   C1A55695  12.871   9.863   6.086
 4381POPC   D2A55696  13.019  10.025   6.499
 4381POPC   C3A55697  12.802   9.865   6.861
 4381POPC   C4A55698  12.958   9.796   7.271
 4381POPC   C1B55699  12.240   9.454   6.333
 4381POPC   C2B55700  12.396   9.443   6.744
 4381POPC   C3B55701  12.559   9.418   7.167
 4381POPC   C4B55702  12.678   9.493   7.594
 4382POPC   NC355703  15.771  12.333   5.526
 4382POPC   PO455704  16.146  11.758   5.725
 4382POPC   GL155705  16.094  12.154   5.883
 4382POPC   GL255706  15.731  12.147   5.982
 4382POPC   C1A55707  16.087  12.364   6.276
 4382POPC   D2A55708  16.200  12.202   6.661
 4382POPC   C3A55709  16.241  12.349   7.048
 4382POPC   C4A55710  15.941  12.032   7.119
 4382POPC   C1B55711  15.609  12.126   6.397
 4382POPC   C2B55712  15.719  12.473   6.639
 4382POPC   C3B55713  15.731  12.500   7.059
 4382POPC   C4B55714  15.540  12.222   7.397
 4383POPC   NC355715  44.702  20.999   5.543
 4383POPC   PO455716  44.750  21.621   5.391
 4383POPC   GL155717  44.654  21.452   5.817
 4383POPC   GL255718  44.413  21.111   5.915
 4383POPC   C1A55719  44.608  21.717   6.211
 4383POPC   D2A55720  44.377  21.803   6.622
 4383POPC   C3A55721  44.551  21.677   7.053
 4383POPC   C4A55722  44.584  21.510   7.499
 4383POPC   C1B55723  44.732  21.182   6.230
 4383POPC   C2B55724  44.744  21.401   6.598
 4383POPC   C3B55725  44.652  21.200   6.935
 4383POPC   C4B55726  44.679  21.071   7.298
 4384POPC   NC355727  21.814  37.121   5.048
 4384POPC   PO455728  21.331  36.961   5.452
 4384POPC   GL155729  21.396  36.821   5.870
 4384POPC   GL255730  21.468  36.495   5.771
 4384POPC   C1A55731  21.414  36.988   6.258
 4384POPC   D2A55732  21.652  37.098   6.612
 4384POPC   C3A55733  21.428  37.002   6.957
 4384POPC   C4A55734  21.343  37.047   7.344
 4384POPC   C1B55735  21.630  36.440   6.147
 4384POPC   C2B55736  21.412  36.496   6.452
 4384POPC   C3B55737  21.402  36.490   6.838
 4384POPC   C4B55738  21.469  36.539   7.226
 4385POPC   NC355739   8.005   3.094   5.413
 4385POPC   PO455740   8.122   2.402   5.263
 4385POPC   GL155741   8.207   2.582   5.699
 4385POPC   GL255742   7.923   2.402   5.850
 4385POPC   C1A55743   8.367   2.912   6.036
 4385POPC   D2A55744   8.526   2.928   6.496
 4385POPC   C3A55745   8.234   2.868   6.898
 4385POPC   C4A55746   8.328   2.625   7.306
 4385POPC   C1B55747   8.071   2.531   6.244
 4385POPC   C2B55748   8.224   2.425   6.644
 4385POPC   C3B55749   7.972   2.431   7.013
 4385POPC   C4B55750   7.732   2.782   7.179
 4386POPC   NC355751   1.993  22.623   5.152
 4386POPC   PO455752   1.866  22.073   5.525
 4386POPC   GL155753   1.881  22.215   5.909
 4386POPC   GL255754   2.171  22.415   5.804
 4386POPC   C1A55755   1.922  22.322   6.304
 4386POPC   D2A55756   1.722  22.230   6.676
 4386POPC   C3A55757   1.907  22.297   7.090
 4386POPC   C4A55758   1.853  22.579   7.428
 4386POPC   C1B55759   2.291  22.014   6.047
 4386POPC   C2B55760   2.247  21.986   6.511
 4386POPC   C3B55761   2.151  21.811   6.901
 4386POPC   C4B55762   2.127  21.903   7.342
 4387POPC   NC355763  18.642  12.474   5.016
 4387POPC   PO455764  18.608  13.029   5.468
 4387POPC   GL155765  18.349  12.956   5.848
 4387POPC   GL255766  17.993  12.939   5.740
 4387POPC   C1A55767  18.337  12.721   6.268
 4387POPC   D2A55768  18.281  12.572   6.697
 4387POPC   C3A55769  18.561  12.828   6.928
 4387POPC   C4A55770  18.548  12.892   7.337
 4387POPC   C1B55771  17.916  13.022   6.182
 4387POPC   C2B55772  17.691  13.086   6.541
 4387POPC   C3B55773  17.697  12.848   6.907
 4387POPC   C4B55774  18.086  12.834   7.120
 4388POPC   NC355775   9.538  12.282   5.748
 4388POPC   PO455776  10.065  12.177   5.370
 4388POPC   GL155777   9.913  11.963   5.777
 4388POPC   GL255778  10.032  12.320   5.863
 4388POPC   C1A55779   9.676  11.850   6.202
 4388POPC   D2A55780   9.549  11.995   6.621
 4388POPC   C3A55781   9.684  11.710   6.929
 4388POPC   C4A55782   9.784  11.775   7.324
 4388POPC   C1B55783   9.867  12.499   6.244
 4388POPC   C2B55784   9.958  12.294   6.593
 4388POPC   C3B55785   9.781  12.272   6.981
 4388POPC   C4B55786   9.839  12.616   7.191
 4389POPC   NC355787  27.534  15.131   5.400
 4389POPC   PO455788  27.989  15.595   5.611
 4389POPC   GL155789  27.619  15.399   5.852
 4389POPC   GL255790  27.584  15.011   5.896
 4389POPC   C1A55791  27.545  15.304   6.314
 4389POPC   D2A55792  27.813  15.325   6.705
 4389POPC   C3A55793  27.572  15.156   7.052
 4389POPC   C4A55794  27.303  15.052   7.434
 4389POPC   C1B55795  27.875  14.864   6.250
 4389POPC   C2B55796  27.859  14.801   6.714
 4389POPC   C3B55797  28.070  14.959   7.085
 4389POPC   C4B55798  28.030  14.972   7.546
 4390POPC   NC355799  41.778  39.627   5.495
 4390POPC   PO455800  41.508  39.049   5.299
 4390POPC   GL155801  41.426  39.149   5.781
 4390POPC   GL255802  41.691  39.329   5.889
 4390POPC   C1A55803  41.309  39.273   6.234
 4390POPC   D2A55804  41.378  39.056   6.629
 4390POPC   C3A55805  41.272  39.216   6.999
 4390POPC   C4A55806  41.372  39.194   7.420
 4390POPC   C1B55807  41.890  39.413   6.259
 4390POPC   C2B55808  41.703  39.442   6.647
 4390POPC   C3B55809  41.776  39.285   7.068
 4390POPC   C4B55810  41.850  39.600   7.373
 4391POPC   NC355811  32.906  14.212   5.402
 4391POPC   PO455812  33.394  14.625   5.696
 4391POPC   GL155813  33.206  14.270   5.858
 4391POPC   GL255814  32.874  14.438   5.865
 4391POPC   C1A55815  33.135  14.274   6.320
 4391POPC   D2A55816  32.899  14.482   6.639
 4391POPC   C3A55817  33.092  14.567   7.015
 4391POPC   C4A55818  33.457  14.529   7.252
 4391POPC   C1B55819  32.745  14.043   6.061
 4391POPC   C2B55820  32.796  13.926   6.498
 4391POPC   C3B55821  32.719  14.031   6.923
 4391POPC   C4B55822  32.916  14.160   7.276
 4392POPC   NC355823  18.814  43.270   5.321
 4392POPC   PO455824  19.465  43.199   5.490
 4392POPC   GL155825  19.135  43.113   5.770
 4392POPC   GL255826  18.821  43.276   5.821
 4392POPC   C1A55827  19.172  43.124   6.209
 4392POPC   D2A55828  19.143  42.898   6.582
 4392POPC   C3A55829  19.287  43.104   6.935
 4392POPC   C4A55830  19.205  43.008   7.334
 4392POPC   C1B55831  18.695  42.972   6.120
 4392POPC   C2B55832  18.730  43.199   6.528
 4392POPC   C3B55833  18.805  43.343   6.959
 4392POPC   C4B55834  18.709  43.154   7.339
 4393POPC   NC355835   6.295   8.342   5.557
 4393POPC   PO455836   5.582   7.932   5.367
 4393POPC   GL155837   5.624   8.180   5.727
 4393POPC   GL255838   5.937   8.074   5.769
 4393POPC   C1A55839   5.609   8.175   6.193
 4393POPC   D2A55840   5.881   8.131   6.575
 4393POPC   C3A55841   5.650   8.182   6.964
 4393POPC   C4A55842   5.751   8.442   7.314
 4393POPC   C1B55843   6.002   7.874   6.121
 4393POPC   C2B55844   6.245   7.713   6.431
 4393POPC   C3B55845   6.308   7.898   6.821
 4393POPC   C4B55846   6.098   8.047   7.226
 4394POPC   NC355847  41.025   4.972   5.106
 4394POPC   PO455848  40.796   5.596   5.231
 4394POPC   GL155849  40.682   5.281   5.609
 4394POPC   GL255850  40.938   5.064   5.796
 4394POPC   C1A55851  40.528   5.168   6.083
 4394POPC   D2A55852  40.445   4.959   6.480
 4394POPC   C3A55853  40.710   5.120   6.777
 4394POPC   C4A55854  40.572   5.243   7.151
 4394POPC   C1B55855  40.891   4.771   6.180
 4394POPC   C2B55856  40.818   4.635   6.625
 4394POPC   C3B55857  40.853   4.745   7.095
 4394POPC   C4B55858  41.234   4.847   7.385
 4395POPC   NC355859  43.231  43.709   5.355
 4395POPC   PO455860  43.687  44.133   5.551
 4395POPC   GL155861  43.332  43.966   5.788
 4395POPC   GL255862  43.413  43.596   5.839
 4395POPC   C1A55863  43.035  44.026   6.173
 4395POPC   D2A55864  43.121  44.237   6.587
 4395POPC   C3A55865  43.016  43.985   6.946
 4395POPC   C4A55866  43.037  43.755   7.327
 4395POPC   C1B55867  43.503  43.838   6.236
 4395POPC   C2B55868  43.441  43.841   6.654
 4395POPC   C3B55869  43.465  43.745   7.063
 4395POPC   C4B55870  43.543  43.863   7.450
 4396POPC   NC355871  40.911  22.880   5.337
 4396POPC   PO455872  40.719  23.516   5.340
 4396POPC   GL155873  40.789  23.214   5.763
 4396POPC   GL255874  40.991  22.862   5.838
 4396POPC   C1A55875  40.806  23.115   6.240
 4396POPC   D2A55876  41.167  23.015   6.542
 4396POPC   C3A55877  41.138  23.025   7.001
 4396POPC   C4A55878  40.703  23.007   7.054
 4396POPC   C1B55879  40.710  22.621   6.160
 4396POPC   C2B55880  40.663  22.740   6.614
 4396POPC   C3B55881  40.500  22.530   7.017
 4396POPC   C4B55882  40.453  22.756   7.429
 4397POPC   NC355883  13.255  44.986   5.257
 4397POPC   PO455884  13.752  44.534   5.402
 4397POPC   GL155885  13.573  44.625   5.791
 4397POPC   GL255886  13.318  44.901   5.846
 4397POPC   C1A55887  13.724  44.798   6.188
 4397POPC   D2A55888  13.503  44.915   6.542
 4397POPC   C3A55889  13.752  44.967   6.886
 4397POPC   C4A55890  13.573  44.950   7.248
 4397POPC   C1B55891  13.293  44.546   6.190
 4397POPC   C2B55892  13.353  44.315   6.570
 4397POPC   C3B55893  13.431  44.554   6.913
 4397POPC   C4B55894  13.373  44.488   7.306
 4398POPC   NC355895  23.304  41.904   5.435
 4398POPC   PO455896  22.701  41.529   5.424
 4398POPC   GL155897  22.812  41.692   5.802
 4398POPC   GL255898  23.112  41.602   5.798
 4398POPC   C1A55899  22.688  41.693   6.247
 4398POPC   D2A55900  22.947  41.664   6.610
 4398POPC   C3A55901  22.894  41.528   7.008
 4398POPC   C4A55902  23.014  41.728   7.440
 4398POPC   C1B55903  23.131  41.430   6.197
 4398POPC   C2B55904  23.125  41.182   6.573
 4398POPC   C3B55905  23.304  41.101   6.930
 4398POPC   C4B55906  23.198  41.274   7.318
 4399POPC   NC355907  10.925   9.530   5.441
 4399POPC   PO455908  10.255   9.174   5.460
 4399POPC   GL155909  10.526   9.086   5.841
 4399POPC   GL255910  10.598   8.697   5.903
 4399POPC   C1A55911  10.653   9.207   6.261
 4399POPC   D2A55912  10.455   9.034   6.633
 4399POPC   C3A55913  10.547   9.083   7.064
 4399POPC   C4A55914  10.433   8.700   7.285
 4399POPC   C1B55915  10.973   8.819   6.136
 4399POPC   C2B55916  10.945   8.909   6.582
 4399POPC   C3B55917  10.844   8.668   6.961
 4399POPC   C4B55918  10.925   8.891   7.370
 4400POPC   NC355919  26.632  15.538   5.540
 4400POPC   PO455920  27.283  15.557   5.423
 4400POPC   GL155921  27.089  15.363   5.829
 4400POPC   GL255922  26.775  15.123   5.836
 4400POPC   C1A55923  26.926  15.339   6.278
 4400POPC   D2A55924  26.603  15.486   6.573
 4400POPC   C3A55925  26.576  15.369   7.017
 4400POPC   C4A55926  26.952  15.413   7.284
 4400POPC   C1B55927  26.677  14.871   6.241
 4400POPC   C2B55928  26.660  14.966   6.705
 4400POPC   C3B55929  26.927  14.915   7.108
 4400POPC   C4B55930  26.794  14.976   7.570
 4401POPC   NC355931  35.240  16.827   5.367
 4401POPC   PO455932  35.666  16.304   5.432
 4401POPC   GL155933  35.471  16.573   5.755
 4401POPC   GL255934  35.599  16.902   5.874
 4401POPC   C1A55935  35.215  16.646   6.115
 4401POPC   D2A55936  35.346  16.892   6.466
 4401POPC   C3A55937  35.300  16.796   6.893
 4401POPC   C4A55938  35.239  16.499   7.203
 4401POPC   C1B55939  35.742  16.626   6.203
 4401POPC   C2B55940  35.679  16.507   6.611
 4401POPC   C3B55941  35.729  16.384   7.034
 4401POPC   C4B55942  35.719  16.577   7.435
 4402POPC   NC355943   6.816  14.059   5.470
 4402POPC   PO455944   6.911  14.685   5.432
 4402POPC   GL155945   6.675  14.483   5.726
 4402POPC   GL255946   6.353  14.301   5.704
 4402POPC   C1A55947   6.789  14.384   6.105
 4402POPC   D2A55948   6.713  14.278   6.468
 4402POPC   C3A55949   6.645  14.562   6.759
 4402POPC   C4A55950   6.617  14.507   7.179
 4402POPC   C1B55951   6.431  14.017   6.070
 4402POPC   C2B55952   6.458  13.850   6.495
 4402POPC   C3B55953   6.494  14.071   6.876
 4402POPC   C4B55954   6.527  13.997   7.281
 4403POPC   NC355955  18.568  10.761   5.506
 4403POPC   PO455956  19.272  10.590   5.451
 4403POPC   GL155957  19.056  10.345   5.774
 4403POPC   GL255958  18.932  10.650   5.851
 4403POPC   C1A55959  18.944  10.324   6.229
 4403POPC   D2A55960  19.119  10.512   6.593
 4403POPC   C3A55961  19.250  10.288   6.918
 4403POPC   C4A55962  18.986  10.345   7.258
 4403POPC   C1B55963  18.746  10.797   6.232
 4403POPC   C2B55964  18.866  10.948   6.634
 4403POPC   C3B55965  18.780  10.918   7.047
 4403POPC   C4B55966  18.639  10.697   7.405
 4404POPC   NC355967   9.556   4.546   5.550
 4404POPC   PO455968  10.124   4.169   5.475
 4404POPC   GL155969   9.888   4.308   5.867
 4404POPC   GL255970   9.894   4.669   5.914
 4404POPC   C1A55971   9.613   4.260   6.248
 4404POPC   D2A55972   9.659   4.396   6.694
 4404POPC   C3A55973   9.534   4.122   7.041
 4404POPC   C4A55974   9.846   3.929   7.328
 4404POPC   C1B55975   9.497   4.765   6.166
 4404POPC   C2B55976   9.329   4.785   6.594
 4404POPC   C3B55977   9.538   4.780   7.021
 4404POPC   C4B55978   9.876   4.516   7.173
 4405POPC   NC355979  22.659  24.835   5.478
 4405POPC   PO455980  23.199  24.570   5.467
 4405POPC   GL155981  22.985  24.525   5.822
 4405POPC   GL255982  22.963  24.195   5.869
 4405POPC   C1A55983  23.027  24.557   6.274
 4405POPC   D2A55984  23.208  24.328   6.594
 4405POPC   C3A55985  23.089  24.577   6.908
 4405POPC   C4A55986  22.871  24.657   7.246
 4405POPC   C1B55987  22.790  24.111   6.264
 4405POPC   C2B55988  22.679  24.302   6.638
 4405POPC   C3B55989  22.831  24.148   7.024
 4405POPC   C4B55990  22.679  24.229   7.407
 4406POPC   NC355991   5.381  28.504   5.333
 4406POPC   PO455992   4.765  28.280   5.497
 4406POPC   GL155993   5.078  28.426   5.812
 4406POPC   GL255994   5.309  28.141   5.772
 4406POPC   C1A55995   5.238  28.541   6.272
 4406POPC   D2A55996   5.384  28.512   6.723
 4406POPC   C3A55997   5.148  28.399   7.085
 4406POPC   C4A55998   5.195  28.452   7.547
 4406POPC   C1B55999   5.033  28.101   6.193
 4406POPC   C2B56000   4.975  28.154   6.635
 4406POPC   C3B56001   4.778  28.066   7.019
 4406POPC   C4B56002   5.005  28.024   7.409
 4407POPC   NC356003  25.657  42.296   5.306
 4407POPC   PO456004  26.283  42.155   5.354
 4407POPC   GL156005  26.107  42.454   5.708
 4407POPC   GL256006  25.752  42.515   5.747
 4407POPC   C1A56007  26.025  42.638   6.143
 4407POPC   D2A56008  25.965  42.375   6.494
 4407POPC   C3A56009  26.240  42.436   6.813
 4407POPC   C4A56010  26.068  42.358   7.186
 4407POPC   C1B56011  25.849  42.148   6.040
 4407POPC   C2B56012  25.585  42.050   6.412
 4407POPC   C3B56013  25.652  42.126   6.845
 4407POPC   C4B56014  25.658  42.007   7.266
 4408POPC   NC356015  42.816  25.259   4.996
 4408POPC   PO456016  43.343  25.512   5.396
 4408POPC   GL156017  43.073  25.355   5.699
 4408POPC   GL256018  43.128  25.643   5.890
 4408POPC   C1A56019  43.123  25.184   6.135
 4408POPC   D2A56020  42.879  25.044   6.467
 4408POPC   C3A56021  43.040  25.009   6.871
 4408POPC   C4A56022  43.161  25.099   7.264
 4408POPC   C1B56023  43.386  25.595   6.277
 4408POPC   C2B56024  43.226  25.424   6.647
 4408POPC   C3B56025  43.094  25.561   7.036
 4408POPC   C4B56026  43.348  25.625   7.376
 4409POPC   NC356027   3.926  36.515   5.583
 4409POPC   PO456028   4.502  36.108   5.285
 4409POPC   GL156029   4.566  36.087   5.755
 4409POPC   GL256030   4.491  36.407   5.828
 4409POPC   C1A56031   4.357  35.985   6.182
 4409POPC   D2A56032   4.005  36.184   6.429
 4409POPC   C3A56033   3.901  36.042   6.863
 4409POPC   C4A56034   3.853  36.239   7.273
 4409POPC   C1B56035   4.468  36.484   6.256
 4409POPC   C2B56036   4.479  36.280   6.651
 4409POPC   C3B56037   4.318  36.440   7.034
 4409POPC   C4B56038   4.477  36.373   7.454
 4410POPC   NC356039  23.863  41.899   5.392
 4410POPC   PO456040  23.398  41.470   5.200
 4410POPC   GL156041  23.585  41.499   5.639
 4410POPC   GL256042  23.922  41.520   5.745
 4410POPC   C1A56043  23.532  41.741   6.057
 4410POPC   D2A56044  23.428  41.797   6.501
 4410POPC   C3A56045  23.399  41.598   6.899
 4410POPC   C4A56046  23.486  41.790   7.283
 4410POPC   C1B56047  23.991  41.568   6.167
 4410POPC   C2B56048  23.965  41.836   6.536
 4410POPC   C3B56049  23.903  41.692   6.952
 4410POPC   C4B56050  23.879  41.518   7.392
 4411POPC   NC356051  31.782   2.226   5.413
 4411POPC   PO456052  31.313   1.699   5.561
 4411POPC   GL156053  31.429   2.009   5.817
 4411POPC   GL256054  31.230   2.303   5.902
 4411POPC   C1A56055  31.455   1.943   6.247
 4411POPC   D2A56056  31.367   2.225   6.570
 4411POPC   C3A56057  31.177   2.005   6.906
 4411POPC   C4A56058  31.263   1.769   7.261
 4411POPC   C1B56059  31.641   2.395   6.150
 4411POPC   C2B56060  31.867   2.172   6.527
 4411POPC   C3B56061  31.696   2.128   6.964
 4411POPC   C4B56062  31.483   2.239   7.336
 4412POPC   NC356063  12.856  34.025   5.469
 4412POPC   PO456064  12.922  33.404   5.530
 4412POPC   GL156065  12.862  33.638   5.880
 4412POPC   GL256066  12.514  33.748   5.856
 4412POPC   C1A56067  12.878  33.678   6.340
 4412POPC   D2A56068  12.713  33.855   6.719
 4412POPC   C3A56069  13.062  33.945   6.960
 4412POPC   C4A56070  13.367  33.899   7.245
 4412POPC   C1B56071  12.400  33.502   6.220
 4412POPC   C2B56072  12.306  33.563   6.630
 4412POPC   C3B56073  12.428  33.562   7.050
 4412POPC   C4B56074  12.546  33.955   7.205
 4413POPC   NC356075  29.040  22.321   5.081
 4413POPC   PO456076  29.607  22.527   5.410
 4413POPC   GL156077  29.243  22.443   5.730
 4413POPC   GL256078  28.902  22.256   5.820
 4413POPC   C1A56079  29.164  22.523   6.168
 4413POPC   D2A56080  29.447  22.497   6.500
 4413POPC   C3A56081  29.296  22.293   6.833
 4413POPC   C4A56082  29.561  22.240   7.156
 4413POPC   C1B56083  29.144  21.979   6.159
 4413POPC   C2B56084  29.122  21.746   6.581
 4413POPC   C3B56085  28.916  21.952   6.906
 4413POPC   C4B56086  29.082  22.142   7.287
 4414POPC   NC356087   6.328  43.449   5.319
 4414POPC   PO456088   6.553  42.836   5.287
 4414POPC   GL156089   6.506  43.078   5.716
 4414POPC   GL256090   6.854  43.174   5.890
 4414POPC   C1A56091   6.522  42.930   6.175
 4414POPC   D2A56092   6.390  42.996   6.598
 4414POPC   C3A56093   6.706  42.891   6.899
 4414POPC   C4A56094   6.501  43.091   7.254
 4414POPC   C1B56095   6.811  43.371   6.293
 4414POPC   C2B56096   6.775  43.365   6.729
 4414POPC   C3B56097   6.817  43.464   7.156
 4414POPC   C4B56098   6.826  43.322   7.607
 4415POPC   NC356099  25.367  29.560   5.430
 4415POPC   PO456100  24.950  29.042   5.485
 4415POPC   GL156101  25.198  28.974   5.868
 4415POPC   GL256102  25.469  29.132   5.698
 4415POPC   C1A56103  25.351  29.002   6.335
 4415POPC   D2A56104  25.507  29.013   6.788
 4415POPC   C3A56105  25.270  29.099   7.189
 4415POPC   C4A56106  25.429  28.950   7.626
 4415POPC   C1B56107  25.683  29.259   6.042
 4415POPC   C2B56108  25.822  29.244   6.465
 4415POPC   C3B56109  25.761  29.484   6.843
 4415POPC   C4B56110  25.553  29.625   7.235
 4416POPC   NC356111  25.825  27.582   5.592
 4416POPC   PO456112  25.302  27.545   5.193
 4416POPC   GL156113  25.328  27.604   5.698
 4416POPC   GL256114  25.228  27.937   5.787
 4416POPC   C1A56115  25.096  27.586   6.133
 4416POPC   D2A56116  25.097  27.406   6.539
 4416POPC   C3A56117  25.041  27.683   6.862
 4416POPC   C4A56118  25.181  27.573   7.230
 4416POPC   C1B56119  25.435  28.033   6.195
 4416POPC   C2B56120  25.346  28.053   6.652
 4416POPC   C3B56121  25.353  28.060   7.110
 4416POPC   C4B56122  25.283  28.005   7.547
 4417POPC   NC356123  34.653  27.425   5.357
 4417POPC   PO456124  34.362  28.065   5.525
 4417POPC   GL156125  34.435  27.685   5.749
 4417POPC   GL256126  34.766  27.691   5.825
 4417POPC   C1A56127  34.446  27.488   6.174
 4417POPC   D2A56128  34.679  27.636   6.539
 4417POPC   C3A56129  34.603  27.534   6.966
 4417POPC   C4A56130  34.712  27.663   7.409
 4417POPC   C1B56131  34.962  27.408   6.149
 4417POPC   C2B56132  35.122  27.359   6.558
 4417POPC   C3B56133  34.951  27.118   6.872
 4417POPC   C4B56134  34.693  27.138   7.254
 4418POPC   NC356135   2.429  10.525   5.399
 4418POPC   PO456136   3.132  10.552   5.381
 4418POPC   GL156137   2.843  10.478   5.720
 4418POPC   GL256138   2.771  10.820   5.750
 4418POPC   C1A56139   2.631  10.418   6.131
 4418POPC   D2A56140   2.726  10.524   6.561
 4418POPC   C3A56141   2.610  10.373   6.938
 4418POPC   C4A56142   2.731  10.282   7.337
 4418POPC   C1B56143   2.451  10.889   6.051
 4418POPC   C2B56144   2.464  10.969   6.499
 4418POPC   C3B56145   2.462  10.873   6.927
 4418POPC   C4B56146   2.586  10.762   7.330
 4419POPC   NC356147  21.443  16.915   5.578
 4419POPC   PO456148  21.254  16.272   5.515
 4419POPC   GL156149  21.356  16.474   5.861
 4419POPC   GL256150  21.083  16.698   5.875
 4419POPC   C1A56151  21.584  16.482   6.235
 4419POPC   D2A56152  21.393  16.604   6.600
 4419POPC   C3A56153  21.549  16.433   6.971
 4419POPC   C4A56154  21.479  16.252   7.381
 4419POPC   C1B56155  21.029  17.046   6.175
 4419POPC   C2B56156  21.143  17.137   6.614
 4419POPC   C3B56157  21.114  16.844   6.939
 4419POPC   C4B56158  21.296  16.764   7.277
 4420POPC   NC356159  18.185  26.441   5.620
 4420POPC   PO456160  18.326  26.964   5.166
 4420POPC   GL156161  18.474  26.962   5.610
 4420POPC   GL256162  18.156  26.925   5.798
 4420POPC   C1A56163  18.587  27.015   6.070
 4420POPC   D2A56164  18.568  26.640   6.336
 4420POPC   C3A56165  18.510  26.735   6.756
 4420POPC   C4A56166  18.349  26.859   7.129
 4420POPC   C1B56167  18.058  26.693   6.181
 4420POPC   C2B56168  18.082  26.566   6.572
 4420POPC   C3B56169  18.102  26.463   6.973
 4420POPC   C4B56170  17.870  26.704   7.308
 4421POPC   NC356171   8.826   9.264   5.594
 4421POPC   PO456172   8.742   8.730   5.719
 4421POPC   GL156173   9.104   8.919   5.885
 4421POPC   GL256174   9.289   9.247   5.829
 4421POPC   C1A56175   9.075   8.833   6.302
 4421POPC   D2A56176   8.859   8.701   6.638
 4421POPC   C3A56177   9.083   8.870   6.968
 4421POPC   C4A56178   9.241   8.673   7.280
 4421POPC   C1B56179   9.023   9.343   6.226
 4421POPC   C2B56180   8.861   9.214   6.638
 4421POPC   C3B56181   8.795   9.264   7.087
 4421POPC   C4B56182   9.063   9.173   7.446
 4422POPC   NC356183   5.595   0.126   5.369
 4422POPC   PO456184   5.794   0.721   5.193
 4422POPC   GL156185   5.621   0.531   5.665
 4422POPC   GL256186   5.893   0.356   5.745
 4422POPC   C1A56187   5.566   0.567   6.169
 4422POPC   D2A56188   5.309   0.537   6.597
 4422POPC   C3A56189   5.465   0.298   6.968
 4422POPC   C4A56190   5.637   0.611   7.291
 4422POPC   C1B56191   5.811   0.108   6.116
 4422POPC   C2B56192   5.745   0.210   6.536
 4422POPC   C3B56193   5.932   0.407   6.880
 4422POPC   C4B56194   6.016   0.294   7.276
 4423POPC   NC356195  29.529  33.895   5.479
 4423POPC   PO456196  29.949  33.373   5.559
 4423POPC   GL156197  29.948  33.748   5.802
 4423POPC   GL256198  29.628  33.670   5.943
 4423POPC   C1A56199  30.138  33.800   6.224
 4423POPC   D2A56200  30.159  33.552   6.609
 4423POPC   C3A56201  30.212  33.739   7.002
 4423POPC   C4A56202  30.306  33.570   7.434
 4423POPC   C1B56203  29.654  34.002   6.258
 4423POPC   C2B56204  29.790  33.929   6.694
 4423POPC   C3B56205  29.722  33.820   7.128
 4423POPC   C4B56206  29.375  33.746   7.372
 4424POPC   NC356207  33.124  30.123   5.386
 4424POPC   PO456208  33.043  29.413   5.312
 4424POPC   GL156209  32.881  29.598   5.725
 4424POPC   GL256210  32.792  29.975   5.796
 4424POPC   C1A56211  33.010  29.637   6.167
 4424POPC   D2A56212  33.063  29.887   6.557
 4424POPC   C3A56213  32.878  29.759   6.969
 4424POPC   C4A56214  32.930  29.783   7.445
 4424POPC   C1B56215  32.706  30.162   6.244
 4424POPC   C2B56216  32.649  30.158   6.725
 4424POPC   C3B56217  32.828  30.262   7.150
 4424POPC   C4B56218  32.640  30.240   7.562
 4425POPC   NC356219  21.368  36.285   5.328
 4425POPC   PO456220  21.580  35.702   5.463
 4425POPC   GL156221  21.539  35.983   5.765
 4425POPC   GL256222  21.200  35.961   5.778
 4425POPC   C1A56223  21.544  35.934   6.197
 4425POPC   D2A56224  21.275  35.994   6.559
 4425POPC   C3A56225  21.438  35.997   6.959
 4425POPC   C4A56226  21.350  35.718   7.236
 4425POPC   C1B56227  21.096  36.230   6.131
 4425POPC   C2B56228  20.910  36.347   6.566
 4425POPC   C3B56229  20.981  36.237   7.019
 4425POPC   C4B56230  20.924  36.399   7.433
 4426POPC   NC356231   1.506   8.957   5.105
 4426POPC   PO456232   0.885   8.732   5.216
 4426POPC   GL156233   1.137   9.017   5.604
 4426POPC   GL256234   1.426   8.968   5.856
 4426POPC   C1A56235   1.116   9.329   6.016
 4426POPC   D2A56236   1.149   9.246   6.466
 4426POPC   C3A56237   1.410   9.373   6.811
 4426POPC   C4A56238   1.441   9.459   7.238
 4426POPC   C1B56239   1.053   8.814   6.145
 4426POPC   C2B56240   0.934   8.820   6.609
 4426POPC   C3B56241   1.045   9.023   6.988
 4426POPC   C4B56242   1.445   8.924   7.195
 4427POPC   NC356243  11.791  22.114   5.415
 4427POPC   PO456244  12.480  22.109   5.495
 4427POPC   GL156245  12.098  22.208   5.816
 4427POPC   GL256246  11.723  22.370   5.842
 4427POPC   C1A56247  12.029  22.045   6.238
 4427POPC   D2A56248  12.205  22.300   6.556
 4427POPC   C3A56249  12.085  22.070   6.893
 4427POPC   C4A56250  12.190  22.132   7.280
 4427POPC   C1B56251  11.823  22.493   6.247
 4427POPC   C2B56252  11.685  22.311   6.655
 4427POPC   C3B56253  11.698  22.316   7.123
 4427POPC   C4B56254  11.834  22.326   7.572
 4428POPC   NC356255  43.948  10.143   5.479
 4428POPC   PO456256  44.169  10.609   4.991
 4428POPC   GL156257  43.889  10.702   5.477
 4428POPC   GL256258  43.532  10.734   5.688
 4428POPC   C1A56259  43.944  10.765   5.974
 4428POPC   D2A56260  43.845  10.675   6.408
 4428POPC   C3A56261  43.986  10.581   6.826
 4428POPC   C4A56262  43.867  10.648   7.236
 4428POPC   C1B56263  43.446  10.478   6.114
 4428POPC   C2B56264  43.571  10.268   6.532
 4428POPC   C3B56265  43.540  10.329   6.961
 4428POPC   C4B56266  43.409  10.327   7.381
 4429POPC   NC356267  24.931   1.350   5.598
 4429POPC   PO456268  24.271   1.280   5.488
 4429POPC   GL156269  24.471   1.100   5.817
 4429POPC   GL256270  24.773   0.907   5.835
 4429POPC   C1A56271  24.380   1.037   6.238
 4429POPC   D2A56272  24.348   1.283   6.582
 4429POPC   C3A56273  24.301   1.013   6.897
 4429POPC   C4A56274  24.253   1.102   7.336
 4429POPC   C1B56275  24.864   1.188   6.210
 4429POPC   C2B56276  24.873   1.405   6.608
 4429POPC   C3B56277  24.780   1.314   7.009
 4429POPC   C4B56278  24.718   0.942   7.170
 4430POPC   NC356279   8.272  29.132   5.383
 4430POPC   PO456280   7.802  29.374   5.738
 4430POPC   GL156281   7.988  29.018   5.911
 4430POPC   GL256282   8.359  29.011   5.860
 4430POPC   C1A56283   7.967  29.035   6.367
 4430POPC   D2A56284   8.143  29.299   6.712
 4430POPC   C3A56285   8.232  28.983   7.017
 4430POPC   C4A56286   8.121  28.916   7.430
 4430POPC   C1B56287   8.433  29.212   6.231
 4430POPC   C2B56288   8.584  29.022   6.587
 4430POPC   C3B56289   8.724  29.105   6.976
 4430POPC   C4B56290   8.607  29.150   7.407
 4431POPC   NC356291  38.568  14.585   5.493
 4431POPC   PO456292  37.990  14.197   5.404
 4431POPC   GL156293  38.236  14.258   5.756
 4431POPC   GL256294  38.184  14.598   5.833
 4431POPC   C1A56295  38.360  14.196   6.195
 4431POPC   D2A56296  38.394  14.393   6.628
 4431POPC   C3A56297  38.282  14.147   6.964
 4431POPC   C4A56298  38.528  13.972   7.291
 4431POPC   C1B56299  38.310  14.715   6.248
 4431POPC   C2B56300  38.233  14.953   6.612
 4431POPC   C3B56301  38.223  14.760   6.997
 4431POPC   C4B56302  38.437  14.536   7.281
 4432POPC   NC356303  15.174   2.501   5.511
 4432POPC   PO456304  15.614   3.006   5.539
 4432POPC   GL156305  15.304   2.992   5.916
 4432POPC   GL256306  15.089   2.657   5.976
 4432POPC   C1A56307  15.047   3.037   6.276
 4432POPC   D2A56308  15.079   2.708   6.538
 4432POPC   C3A56309  15.229   2.970   6.830
 4432POPC   C4A56310  15.241   3.000   7.243
 4432POPC   C1B56311  15.274   2.333   6.187
 4432POPC   C2B56312  15.444   2.327   6.574
 4432POPC   C3B56313  15.273   2.496   6.982
 4432POPC   C4B56314  15.275   2.545   7.446
 4433POPC   NC356315  33.128  44.224   5.080
 4433POPC   PO456316  32.902  44.797   5.324
 4433POPC   GL156317  32.986  44.643   5.746
 4433POPC   GL256318  33.292  44.795   5.764
 4433POPC   C1A56319  33.021  44.704   6.218
 4433POPC   D2A56320  33.064  44.494   6.653
 4433POPC   C3A56321  32.968  44.601   7.103
 4433POPC   C4A56322  33.163  44.470   7.527
 4433POPC   C1B56323  33.449   0.027   6.114
 4433POPC   C2B56324  33.434  44.857   6.531
 4433POPC   C3B56325  33.272  44.994   6.915
 4433POPC   C4B56326  33.630   0.128   7.149
 4434POPC   NC356327  39.361  14.737   5.080
 4434POPC   PO456328  38.957  14.220   5.376
 4434POPC   GL156329  39.015  14.430   5.749
 4434POPC   GL256330  38.742  14.318   5.892
 4434POPC   C1A56331  39.268  14.519   6.116
 4434POPC   D2A56332  39.472  14.700   6.474
 4434POPC   C3A56333  39.333  14.567   6.863
 4434POPC   C4A56334  39.468  14.699   7.259
 4434POPC   C1B56335  38.782  14.455   6.269
 4434POPC   C2B56336  38.920  14.371   6.621
 4434POPC   C3B56337  38.801  14.289   6.993
 4434POPC   C4B56338  38.947  14.642   7.199
 4435POPC   NC356339  23.808  27.424   5.348
 4435POPC   PO456340  23.665  28.015   5.530
 4435POPC   GL156341  23.739  27.639   5.809
 4435POPC   GL256342  24.064  27.380   5.793
 4435POPC   C1A56343  23.603  27.571   6.246
 4435POPC   D2A56344  23.637  27.826   6.609
 4435POPC   C3A56345  23.639  27.637   7.009
 4435POPC   C4A56346  23.476  27.770   7.443
 4435POPC   C1B56347  24.097  27.647   6.157
 4435POPC   C2B56348  24.069  27.513   6.585
 4435POPC   C3B56349  24.183  27.404   7.006
 4435POPC   C4B56350  24.232  27.689   7.343
 4436POPC   NC356351  44.869   5.373   5.598
 4436POPC   PO456352  44.725   4.709   5.399
 4436POPC   GL156353  44.687   4.738   5.859
 4436POPC   GL256354  44.555   5.063   5.841
 4436POPC   C1A56355  44.649   4.845   6.329
 4436POPC   D2A56356  44.804   5.188   6.559
 4436POPC   C3A56357  44.930   5.131   6.976
 4436POPC   C4A56358  44.861   5.188   7.401
 4436POPC   C1B56359  44.378   5.274   6.161
 4436POPC   C2B56360  44.244   5.161   6.561
 4436POPC   C3B56361  44.422   5.242   6.955
 4436POPC   C4B56362  44.335   5.321   7.381
 4437POPC   NC356363  10.960  23.570   5.421
 4437POPC   PO456364  11.459  23.865   5.108
 4437POPC   GL156365  11.456  23.728   5.585
 4437POPC   GL256366  11.609  23.408   5.720
 4437POPC   C1A56367  11.245  23.806   6.016
 4437POPC   D2A56368  11.035  23.799   6.451
 4437POPC   C3A56369  11.235  23.666   6.850
 4437POPC   C4A56370  11.155  23.890   7.246
 4437POPC   C1B56371  11.406  23.346   6.148
 4437POPC   C2B56372  11.582  23.337   6.559
 4437POPC   C3B56373  11.469  23.208   6.979
 4437POPC   C4B56374  11.269  23.403   7.321
 4438POPC   NC356375  13.582   7.738   5.443
 4438POPC   PO456376  13.545   7.034   5.410
 4438POPC   GL156377  13.575   7.288   5.752
 4438POPC   GL256378  13.866   7.472   5.792
 4438POPC   C1A56379  13.506   7.485   6.151
 4438POPC   D2A56380  13.256   7.509   6.517
 4438POPC   C3A56381  13.502   7.474   6.862
 4438POPC   C4A56382  13.639   7.680   7.170
 4438POPC   C1B56383  13.978   7.159   6.095
 4438POPC   C2B56384  13.848   7.248   6.518
 4438POPC   C3B56385  13.871   7.116   6.943
 4438POPC   C4B56386  13.821   7.270   7.383
 4439POPC   NC356387  41.718   6.359   5.492
 4439POPC   PO456388  41.267   6.672   5.301
 4439POPC   GL156389  41.432   6.728   5.759
 4439POPC   GL256390  41.648   6.490   5.969
 4439POPC   C1A56391  41.592   6.931   6.192
 4439POPC   D2A56392  41.758   7.052   6.621
 4439POPC   C3A56393  41.688   6.703   6.921
 4439POPC   C4A56394  41.454   6.713   7.310
 4439POPC   C1B56395  41.924   6.460   6.339
 4439POPC   C2B56396  42.097   6.307   6.720
 4439POPC   C3B56397  42.021   6.366   7.148
 4439POPC   C4B56398  41.627   6.222   7.312
 4440POPC   NC356399  21.567  40.852   5.521
 4440POPC   PO456400  20.973  40.519   5.493
 4440POPC   GL156401  21.133  40.664   5.890
 4440POPC   GL256402  21.178  40.987   5.845
 4440POPC   C1A56403  21.493  40.714   6.193
 4440POPC   D2A56404  21.608  40.504   6.592
 4440POPC   C3A56405  21.534  40.665   6.978
 4440POPC   C4A56406  21.646  40.515   7.365
 4440POPC   C1B56407  21.239  41.161   6.234
 4440POPC   C2B56408  21.201  40.890   6.586
 4440POPC   C3B56409  21.265  41.108   6.952
 4440POPC   C4B56410  21.348  40.967   7.360
 4441POPC   NC356411   9.425  42.599   5.173
 4441POPC   PO456412   8.973  42.174   5.438
 4441POPC   GL156413   8.743  42.246   5.811
 4441POPC   GL256414   8.716  42.583   5.834
 4441POPC   C1A56415   8.896  42.334   6.251
 4441POPC   D2A56416   9.180  42.463   6.579
 4441POPC   C3A56417   9.073  42.260   6.961
 4441POPC   C4A56418   9.271  42.453   7.252
 4441POPC   C1B56419   8.500  42.681   6.240
 4441POPC   C2B56420   8.709  42.657   6.652
 4441POPC   C3B56421   8.700  42.603   7.103
 4441POPC   C4B56422   8.377  42.403   7.378
 4442POPC   NC356423  25.980  42.890   5.423
 4442POPC   PO456424  25.782  43.572   5.453
 4442POPC   GL156425  25.964  43.296   5.776
 4442POPC   GL256426  25.734  43.030   5.847
 4442POPC   C1A56427  26.104  43.195   6.217
 4442POPC   D2A56428  26.045  43.411   6.630
 4442POPC   C3A56429  26.303  43.309   7.007
 4442POPC   C4A56430  26.255  42.868   7.151
 4442POPC   C1B56431  25.631  42.979   6.279
 4442POPC   C2B56432  25.909  42.869   6.636
 4442POPC   C3B56433  25.775  42.806   7.049
 4442POPC   C4B56434  25.834  43.226   7.203
 4443POPC   NC356435  33.161  22.579   5.548
 4443POPC   PO456436  33.155  23.161   5.110
 4443POPC   GL156437  33.146  23.109   5.611
 4443POPC   GL256438  32.833  23.157   5.766
 4443POPC   C1A56439  33.239  23.015   6.108
 4443POPC   D2A56440  33.364  22.846   6.559
 4443POPC   C3A56441  33.089  22.754   6.905
 4443POPC   C4A56442  33.073  22.924   7.318
 4443POPC   C1B56443  32.833  23.319   6.176
 4443POPC   C2B56444  32.944  23.156   6.560
 4443POPC   C3B56445  33.152  23.271   6.917
 4443POPC   C4B56446  32.938  23.408   7.269
 4444POPC   NC356447  16.385  39.762   5.612
 4444POPC   PO456448  15.816  39.990   5.267
 4444POPC   GL156449  15.861  40.040   5.723
 4444POPC   GL256450  15.898  39.705   5.807
 4444POPC   C1A56451  15.904  40.272   6.143
 4444POPC   D2A56452  16.200  40.410   6.502
 4444POPC   C3A56453  16.068  40.221   6.901
 4444POPC   C4A56454  15.715  40.371   7.164
 4444POPC   C1B56455  15.603  39.827   6.143
 4444POPC   C2B56456  15.648  40.022   6.563
 4444POPC   C3B56457  15.669  39.888   6.999
 4444POPC   C4B56458  15.659  39.503   7.206
 4445POPC   NC356459  26.382  21.749   5.517
 4445POPC   PO456460  26.065  21.177   5.538
 4445POPC   GL156461  26.242  21.376   5.876
 4445POPC   GL256462  25.970  21.625   5.812
 4445POPC   C1A56463  26.264  21.227   6.324
 4445POPC   D2A56464  25.994  21.145   6.688
 4445POPC   C3A56465  26.253  21.211   7.046
 4445POPC   C4A56466  26.559  21.288   7.369
 4445POPC   C1B56467  25.819  21.401   6.187
 4445POPC   C2B56468  25.712  21.570   6.555
 4445POPC   C3B56469  25.742  21.570   6.962
 4445POPC   C4B56470  25.754  21.247   7.235
 4446POPC   NC356471  29.095  19.645   5.328
 4446POPC   PO456472  28.863  20.213   5.400
 4446POPC   GL156473  29.084  19.969   5.743
 4446POPC   GL256474  29.451  19.893   5.704
 4446POPC   C1A56475  29.059  20.066   6.185
 4446POPC   D2A56476  28.741  19.920   6.475
 4446POPC   C3A56477  28.859  19.875   6.885
 4446POPC   C4A56478  29.100  20.189   7.025
 4446POPC   C1B56479  29.447  19.729   6.157
 4446POPC   C2B56480  29.243  19.737   6.558
 4446POPC   C3B56481  29.393  19.718   6.964
 4446POPC   C4B56482  29.384  19.914   7.349
 4447POPC   NC356483  13.219  22.871   5.471
 4447POPC   PO456484  12.572  23.102   5.425
 4447POPC   GL156485  12.602  22.926   5.846
 4447POPC   GL256486  12.933  22.769   5.889
 4447POPC   C1A56487  12.704  23.028   6.290
 4447POPC   D2A56488  12.870  23.175   6.695
 4447POPC   C3A56489  12.685  22.980   7.080
 4447POPC   C4A56490  12.604  22.534   7.224
 4447POPC   C1B56491  13.250  22.773   6.221
 4447POPC   C2B56492  13.265  22.858   6.656
 4447POPC   C3B56493  13.212  22.978   7.072
 4447POPC   C4B56494  13.125  22.669   7.419
 4448POPC   NC356495  17.018  20.914   5.435
 4448POPC   PO456496  16.547  20.405   5.477
 4448POPC   GL156497  16.749  20.563   5.816
 4448POPC   GL256498  17.103  20.644   5.862
 4448POPC   C1A56499  16.713  20.588   6.236
 4448POPC   D2A56500  17.003  20.566   6.557
 4448POPC   C3A56501  16.825  20.650   6.949
 4448POPC   C4A56502  16.930  20.390   7.297
 4448POPC   C1B56503  17.066  20.959   6.199
 4448POPC   C2B56504  16.932  21.080   6.637
 4448POPC   C3B56505  17.134  21.077   7.038
 4448POPC   C4B56506  16.946  20.879   7.399
 4449POPC   NC356507  34.762  36.573   5.665
 4449POPC   PO456508  34.462  36.024   5.333
 4449POPC   GL156509  34.520  35.987   5.796
 4449POPC   GL256510  34.368  36.314   5.843
 4449POPC   C1A56511  34.781  36.018   6.221
 4449POPC   D2A56512  34.956  35.900   6.661
 4449POPC   C3A56513  34.700  36.046   6.981
 4449POPC   C4A56514  34.753  36.259   7.361
 4449POPC   C1B56515  34.248  36.130   6.237
 4449POPC   C2B56516  34.317  36.258   6.657
 4449POPC   C3B56517  34.293  36.339   7.093
 4449POPC   C4B56518  34.319  35.960   7.325
 4450POPC   NC356519   2.189   9.051   5.324
 4450POPC   PO456520   1.553   8.672   5.459
 4450POPC   GL156521   1.908   8.813   5.701
 4450POPC   GL256522   1.959   9.177   5.748
 4450POPC   C1A56523   1.931   8.890   6.146
 4450POPC   D2A56524   1.691   9.115   6.456
 4450POPC   C3A56525   1.817   9.021   6.865
 4450POPC   C4A56526   1.957   9.031   7.291
 4450POPC   C1B56527   2.245   9.311   6.098
 4450POPC   C2B56528   2.221   9.136   6.497
 4450POPC   C3B56529   2.257   9.262   6.912
 4450POPC   C4B56530   2.454   9.210   7.282
 4451POPC   NC356531   5.855  13.796   5.552
 4451POPC   PO456532   5.956  14.380   5.306
 4451POPC   GL156533   5.830  14.406   5.745
 4451POPC   GL256534   5.661  14.110   5.912
 4451POPC   C1A56535   5.930  14.456   6.190
 4451POPC   D2A56536   6.219  14.336   6.505
 4451POPC   C3A56537   6.155  14.480   6.932
 4451POPC   C4A56538   5.861  14.465   7.276
 4451POPC   C1B56539   5.539  14.145   6.379
 4451POPC   C2B56540   5.618  14.239   6.840
 4451POPC   C3B56541   5.486  14.088   7.249
 4451POPC   C4B56542   5.378  13.913   7.677
 4452POPC   NC356543  25.803  18.559   5.426
 4452POPC   PO456544  26.022  18.034   5.257
 4452POPC   GL156545  25.865  18.149   5.725
 4452POPC   GL256546  26.043  18.460   5.871
 4452POPC   C1A56547  25.822  18.169   6.203
 4452POPC   D2A56548  26.022  18.497   6.437
 4452POPC   C3A56549  25.865  18.419   6.833
 4452POPC   C4A56550  25.961  18.323   7.241
 4452POPC   C1B56551  26.370  18.741   6.110
 4452POPC   C2B56552  26.400  18.845   6.548
 4452POPC   C3B56553  26.333  18.629   6.915
 4452POPC   C4B56554  26.433  18.502   7.305
 4453POPC   NC356555  44.340   6.375   5.478
 4453POPC   PO456556  43.888   6.861   5.572
 4453POPC   GL156557  43.867   6.712   5.912
 4453POPC   GL256558  43.928   6.392   5.806
 4453POPC   C1A56559  43.827   6.808   6.326
 4453POPC   D2A56560  43.787   6.531   6.637
 4453POPC   C3A56561  44.165   6.494   6.879
 4453POPC   C4A56562  44.208   6.870   7.143
 4453POPC   C1B56563  43.926   6.233   6.208
 4453POPC   C2B56564  43.644   6.049   6.477
 4453POPC   C3B56565  43.532   6.184   6.885
 4453POPC   C4B56566  43.768   6.455   7.208
 4454POPC   NC356567  42.949  10.086   5.468
 4454POPC   PO456568  43.299   9.509   5.650
 4454POPC   GL156569  43.169   9.707   6.013
 4454POPC   GL256570  43.078  10.042   5.956
 4454POPC   C1A56571  43.273   9.878   6.409
 4454POPC   D2A56572  43.486   9.773   6.779
 4454POPC   C3A56573  43.130   9.504   6.959
 4454POPC   C4A56574  42.820   9.646   7.250
 4454POPC   C1B56575  42.765   9.967   6.291
 4454POPC   C2B56576  42.818   9.825   6.708
 4454POPC   C3B56577  43.097  10.022   7.012
 4454POPC   C4B56578  42.980  10.421   7.084
 4455POPC   NC356579  44.547  13.949   5.477
 4455POPC   PO456580   0.110  13.503   5.358
 4455POPC   GL156581  44.941  13.528   5.773
 4455POPC   GL256582  44.564  13.498   5.759
 4455POPC   C1A56583  44.812  13.635   6.217
 4455POPC   D2A56584  44.503  13.545   6.563
 4455POPC   C3A56585  44.699  13.335   6.945
 4455POPC   C4A56586  44.978  13.601   7.192
 4455POPC   C1B56587  44.327  13.766   6.089
 4455POPC   C2B56588  44.378  14.050   6.471
 4455POPC   C3B56589  44.588  14.027   6.876
 4455POPC   C4B56590  44.414  13.723   7.140
 4456POPC   NC356591   1.539  31.501   5.633
 4456POPC   PO456592   2.119  31.163   5.398
 4456POPC   GL156593   2.022  31.337   5.792
 4456POPC   GL256594   1.762  31.165   5.932
 4456POPC   C1A56595   2.168  31.208   6.231
 4456POPC   D2A56596   1.899  31.230   6.595
 4456POPC   C3A56597   2.143  31.227   6.956
 4456POPC   C4A56598   2.043  31.443   7.293
 4456POPC   C1B56599   1.783  31.557   6.212
 4456POPC   C2B56600   1.811  31.842   6.542
 4456POPC   C3B56601   1.909  31.803   6.946
 4456POPC   C4B56602   1.637  31.781   7.300
 4457POPC   NC356603   9.905   6.164   5.441
 4457POPC   PO456604   9.552   5.615   5.430
 4457POPC   GL156605   9.665   5.763   5.847
 4457POPC   GL256606   9.672   6.149   5.882
 4457POPC   C1A56607   9.918   5.572   6.178
 4457POPC   D2A56608  10.007   5.377   6.582
 4457POPC   C3A56609  10.017   5.503   6.999
 4457POPC   C4A56610   9.886   5.742   7.380
 4457POPC   C1B56611   9.754   6.035   6.282
 4457POPC   C2B56612   9.824   5.848   6.635
 4457POPC   C3B56613   9.589   5.780   6.964
 4457POPC   C4B56614   9.516   6.076   7.320
 4458POPC   NC356615  31.374  42.890   5.421
 4458POPC   PO456616  31.381  43.534   5.395
 4458POPC   GL156617  31.611  43.266   5.734
 4458POPC   GL256618  31.810  42.930   5.709
 4458POPC   C1A56619  31.435  43.041   6.106
 4458POPC   D2A56620  31.254  43.197   6.531
 4458POPC   C3A56621  31.532  43.206   6.905
 4458POPC   C4A56622  31.381  43.198   7.331
 4458POPC   C1B56623  31.914  42.822   6.147
 4458POPC   C2B56624  31.636  42.845   6.537
 4458POPC   C3B56625  31.343  42.747   6.884
 4458POPC   C4B56626  31.527  42.711   7.284
 4459POPC   NC356627  41.217  25.376   5.733
 4459POPC   PO456628  41.705  25.335   5.262
 4459POPC   GL156629  41.737  25.391   5.732
 4459POPC   GL256630  41.643  25.057   5.847
 4459POPC   C1A56631  41.674  25.438   6.224
 4459POPC   D2A56632  41.642  25.635   6.671
 4459POPC   C3A56633  41.699  25.399   7.079
 4459POPC   C4A56634  41.755  25.512   7.571
 4459POPC   C1B56635  41.367  24.988   6.223
 4459POPC   C2B56636  41.346  25.177   6.618
 4459POPC   C3B56637  41.079  25.090   6.943
 4459POPC   C4B56638  41.287  25.231   7.319
 4460POPC   NC356639  15.253  20.317   5.462
 4460POPC   PO456640  15.672  20.820   5.479
 4460POPC   GL156641  15.384  20.735   5.823
 4460POPC   GL256642  15.024  20.668   5.791
 4460POPC   C1A56643  15.227  20.839   6.230
 4460POPC   D2A56644  15.292  20.988   6.624
 4460POPC   C3A56645  15.064  20.749   6.866
 4460POPC   C4A56646  15.299  20.591   7.140
 4460POPC   C1B56647  15.127  20.326   6.117
 4460POPC   C2B56648  14.926  20.279   6.520
 4460POPC   C3B56649  14.809  20.278   6.945
 4460POPC   C4B56650  15.075  20.176   7.254
 4461POPC   NC356651  22.849  14.941   5.592
 4461POPC   PO456652  23.403  15.293   5.512
 4461POPC   GL156653  23.224  15.217   5.870
 4461POPC   GL256654  22.970  15.409   5.795
 4461POPC   C1A56655  23.253  15.259   6.317
 4461POPC   D2A56656  22.961  15.332   6.657
 4461POPC   C3A56657  23.066  15.143   7.027
 4461POPC   C4A56658  23.390  15.365   7.189
 4461POPC   C1B56659  22.761  15.399   6.182
 4461POPC   C2B56660  22.572  15.067   6.448
 4461POPC   C3B56661  22.565  15.085   6.913
 4461POPC   C4B56662  22.432  15.136   7.327
 4462POPC   NC356663   4.721   7.005   5.410
 4462POPC   PO456664   4.359   7.508   5.073
 4462POPC   GL156665   4.213   7.538   5.590
 4462POPC   GL256666   4.131   7.874   5.748
 4462POPC   C1A56667   4.201   7.396   6.036
 4462POPC   D2A56668   4.509   7.395   6.368
 4462POPC   C3A56669   4.444   7.392   6.806
 4462POPC   C4A56670   4.184   7.241   7.148
 4462POPC   C1B56671   3.977   7.829   6.204
 4462POPC   C2B56672   4.022   7.717   6.662
 4462POPC   C3B56673   3.936   7.858   7.093
 4462POPC   C4B56674   3.988   7.792   7.570
 4463POPC   NC356675  37.669  29.651   5.194
 4463POPC   PO456676  37.240  29.243   5.393
 4463POPC   GL156677  37.366  29.007   5.781
 4463POPC   GL256678  37.747  28.976   5.811
 4463POPC   C1A56679  37.381  29.174   6.211
 4463POPC   D2A56680  37.393  29.483   6.569
 4463POPC   C3A56681  37.513  29.259   6.953
 4463POPC   C4A56682  37.285  29.030   7.256
 4463POPC   C1B56683  37.826  28.876   6.261
 4463POPC   C2B56684  37.691  28.812   6.697
 4463POPC   C3B56685  37.744  28.813   7.132
 4463POPC   C4B56686  37.958  28.578   7.446
 4464POPC   NC356687  13.582  38.011   5.231
 4464POPC   PO456688  13.880  37.496   5.444
 4464POPC   GL156689  13.598  37.674   5.755
 4464POPC   GL256690  13.585  37.359   5.867
 4464POPC   C1A56691  13.358  37.617   6.214
 4464POPC   D2A56692  13.056  37.478   6.569
 4464POPC   C3A56693  13.326  37.408   6.958
 4464POPC   C4A56694  13.375  37.552   7.409
 4464POPC   C1B56695  13.877  37.603   6.169
 4464POPC   C2B56696  13.840  37.469   6.577
 4464POPC   C3B56697  13.937  37.604   6.963
 4464POPC   C4B56698  13.727  37.870   7.199
 4465POPC   NC356699  35.591  36.922   5.229
 4465POPC   PO456700  34.971  36.904   5.210
 4465POPC   GL156701  35.251  36.755   5.629
 4465POPC   GL256702  35.404  37.087   5.698
 4465POPC   C1A56703  35.260  36.610   6.134
 4465POPC   D2A56704  35.152  36.735   6.610
 4465POPC   C3A56705  35.378  36.805   7.035
 4465POPC   C4A56706  35.235  37.156   7.333
 4465POPC   C1B56707  35.566  37.029   6.119
 4465POPC   C2B56708  35.560  37.046   6.580
 4465POPC   C3B56709  35.650  37.250   6.964
 4465POPC   C4B56710  35.813  37.051   7.307
 4466POPC   NC356711  21.542  34.312   5.376
 4466POPC   PO456712  20.945  34.413   5.548
 4466POPC   GL156713  21.320  34.591   5.781
 4466POPC   GL256714  21.499  34.931   5.844
 4466POPC   C1A56715  21.428  34.500   6.210
 4466POPC   D2A56716  21.203  34.317   6.581
 4466POPC   C3A56717  21.369  34.382   7.003
 4466POPC   C4A56718  21.545  34.159   7.326
 4466POPC   C1B56719  21.137  34.957   6.137
 4466POPC   C2B56720  20.992  34.784   6.519
 4466POPC   C3B56721  21.219  34.863   6.882
 4466POPC   C4B56722  21.383  34.824   7.278
 4467POPC   NC356723   8.695  21.526   5.363
 4467POPC   PO456724   9.116  20.976   5.256
 4467POPC   GL156725   8.964  21.189   5.629
 4467POPC   GL256726   9.144  21.524   5.645
 4467POPC   C1A56727   8.817  21.399   6.019
 4467POPC   D2A56728   8.823  21.611   6.429
 4467POPC   C3A56729   8.986  21.344   6.783
 4467POPC   C4A56730   8.754  21.152   7.137
 4467POPC   C1B56731   9.282  21.649   6.063
 4467POPC   C2B56732   9.313  21.740   6.527
 4467POPC   C3B56733   9.021  21.829   6.870
 4467POPC   C4B56734   9.021  21.599   7.224
 4468POPC   NC356735  12.577  39.471   5.211
 4468POPC   PO456736  13.215  39.230   5.389
 4468POPC   GL156737  12.849  39.112   5.642
 4468POPC   GL256738  12.768  39.456   5.700
 4468POPC   C1A56739  12.874  39.048   6.105
 4468POPC   D2A56740  13.086  39.313   6.439
 4468POPC   C3A56741  12.970  39.229   6.868
 4468POPC   C4A56742  12.767  38.954   7.194
 4468POPC   C1B56743  12.671  39.518   6.144
 4468POPC   C2B56744  12.562  39.293   6.523
 4468POPC   C3B56745  12.492  39.356   6.968
 4468POPC   C4B56746  12.785  39.639   7.136
 4469POPC   NC356747  44.291   1.302   5.140
 4469POPC   PO456748  44.846   0.979   5.291
 4469POPC   GL156749  44.902   1.062   5.757
 4469POPC   GL256750  44.555   1.207   5.782
 4469POPC   C1A56751  44.873   1.260   6.188
 4469POPC   D2A56752  44.650   1.540   6.506
 4469POPC   C3A56753  44.711   1.494   6.954
 4469POPC   C4A56754  44.729   1.215   7.302
 4469POPC   C1B56755  44.342   1.239   6.200
 4469POPC   C2B56756  44.312   1.116   6.640
 4469POPC   C3B56757  44.250   1.178   7.083
 4469POPC   C4B56758  44.339   0.875   7.433
 4470POPC   NC356759   1.183  24.969   5.333
 4470POPC   PO456760   1.517  25.519   5.501
 4470POPC   GL156761   1.443  25.188   5.763
 4470POPC   GL256762   1.116  25.146   5.816
 4470POPC   C1A56763   1.416  25.156   6.225
 4470POPC   D2A56764   1.301  25.192   6.641
 4470POPC   C3A56765   1.467  25.504   6.900
 4470POPC   C4A56766   1.462  25.470   7.324
 4470POPC   C1B56767   0.925  24.951   6.212
 4470POPC   C2B56768   0.976  24.773   6.625
 4470POPC   C3B56769   1.111  24.885   7.010
 4470POPC   C4B56770   1.020  25.233   7.213
 4471POPC   NC356771  38.675  32.663   5.347
 4471POPC   PO456772  38.300  32.129   5.422
 4471POPC   GL156773  38.599  32.266   5.727
 4471POPC   GL256774  38.716  31.976   5.884
 4471POPC   C1A56775  38.373  32.309   6.128
 4471POPC   D2A56776  38.269  32.135   6.546
 4471POPC   C3A56777  38.354  32.334   6.940
 4471POPC   C4A56778  38.482  32.057   7.220
 4471POPC   C1B56779  38.826  32.153   6.283
 4471POPC   C2B56780  38.773  32.114   6.721
 4471POPC   C3B56781  38.932  32.273   7.096
 4471POPC   C4B56782  38.693  32.417   7.495
 4472POPC   NC356783  22.598  39.321   5.281
 4472POPC   PO456784  22.988  39.703   5.649
 4472POPC   GL156785  22.869  39.262   5.813
 4472POPC   GL256786  23.049  39.390   6.112
 4472POPC   C1A56787  22.700  39.008   6.167
 4472POPC   D2A56788  22.977  38.931   6.506
 4472POPC   C3A56789  22.907  39.093   6.904
 4472POPC   C4A56790  23.067  39.268   7.279
 4472POPC   C1B56791  22.670  39.485   6.322
 4472POPC   C2B56792  22.571  39.419   6.722
 4472POPC   C3B56793  22.756  39.615   7.069
 4472POPC   C4B56794  23.153  39.792   7.251
 4473POPC   NC356795  34.508  17.831   5.586
 4473POPC   PO456796  34.748  18.376   5.287
 4473POPC   GL156797  34.639  18.304   5.765
 4473POPC   GL256798  34.834  18.495   5.949
 4473POPC   C1A56799  34.673  18.059   6.213
 4473POPC   D2A56800  34.608  18.139   6.671
 4473POPC   C3A56801  34.818  18.071   7.082
 4473POPC   C4A56802  34.453  18.085   7.312
 4473POPC   C1B56803  34.612  18.554   6.336
 4473POPC   C2B56804  34.466  18.661   6.734
 4473POPC   C3B56805  34.674  18.558   7.093
 4473POPC   C4B56806  34.763  18.424   7.483
 4474POPC   NC356807  32.472  18.469   5.110
 4474POPC   PO456808  32.059  18.032   5.319
 4474POPC   GL156809  32.152  18.070   5.786
 4474POPC   GL256810  32.440  17.867   5.833
 4474POPC   C1A56811  32.112  18.346   6.187
 4474POPC   D2A56812  32.102  18.589   6.596
 4474POPC   C3A56813  32.149  18.389   7.011
 4474POPC   C4A56814  32.128  18.323   7.460
 4474POPC   C1B56815  32.601  18.162   6.166
 4474POPC   C2B56816  32.607  18.451   6.516
 4474POPC   C3B56817  32.637  18.246   6.899
 4474POPC   C4B56818  32.531  18.077   7.293
 4475POPC   NC356819  16.563   6.393   5.337
 4475POPC   PO456820  16.543   5.675   5.407
 4475POPC   GL156821  16.538   5.789   5.829
 4475POPC   GL256822  16.896   5.798   5.833
 4475POPC   C1A56823  16.552   5.802   6.284
 4475POPC   D2A56824  16.365   6.041   6.617
 4475POPC   C3A56825  16.499   5.882   6.995
 4475POPC   C4A56826  16.740   5.553   7.108
 4475POPC   C1B56827  17.023   6.015   6.231
 4475POPC   C2B56828  16.945   5.862   6.651
 4475POPC   C3B56829  17.010   6.011   7.069
 4475POPC   C4B56830  17.020   6.247   7.448
 4476POPC   NC356831  41.813  44.808   5.200
 4476POPC   PO456832  41.240  44.730   5.352
 4476POPC   GL156833  41.581  44.680   5.654
 4476POPC   GL256834  41.698  44.338   5.647
 4476POPC   C1A56835  41.611  44.903   6.066
 4476POPC   D2A56836  41.413  44.845   6.479
 4476POPC   C3A56837  41.568  44.941   6.901
 4476POPC   C4A56838  41.934  44.899   7.111
 4476POPC   C1B56839  41.767  44.416   6.092
 4476POPC   C2B56840  41.839  44.520   6.548
 4476POPC   C3B56841  41.841  44.423   6.992
 4476POPC   C4B56842  41.565  44.502   7.322
 4477POPC   NC356843  41.141  23.716   5.356
 4477POPC   PO456844  40.521  24.075   5.363
 4477POPC   GL156845  40.768  23.961   5.710
 4477POPC   GL256846  40.966  24.213   5.894
 4477POPC   C1A56847  40.737  23.739   6.119
 4477POPC   D2A56848  41.051  23.531   6.368
 4477POPC   C3A56849  40.961  23.450   6.778
 4477POPC   C4A56850  40.891  23.478   7.199
 4477POPC   C1B56851  40.890  24.201   6.315
 4477POPC   C2B56852  40.873  23.941   6.635
 4477POPC   C3B56853  40.665  23.893   6.996
 4477POPC   C4B56854  40.888  24.079   7.300
 4478POPC   NC356855  13.972  41.163   5.390
 4478POPC   PO456856  14.464  40.568   5.471
 4478POPC   GL156857  14.552  40.779   5.839
 4478POPC   GL256858  14.247  40.940   5.787
 4478POPC   C1A56859  14.573  40.847   6.281
 4478POPC   D2A56860  14.744  40.835   6.706
 4478POPC   C3A56861  14.473  40.746   7.087
 4478POPC   C4A56862  14.485  40.637   7.533
 4478POPC   C1B56863  13.969  41.079   6.137
 4478POPC   C2B56864  14.002  41.138   6.576
 4478POPC   C3B56865  13.931  41.064   7.016
 4478POPC   C4B56866  14.035  40.820   7.370
 4479POPC   NC356867   0.811   2.966   5.434
 4479POPC   PO456868   1.397   2.651   5.477
 4479POPC   GL156869   1.160   2.779   5.814
 4479POPC   GL256870   0.885   2.534   5.816
 4479POPC   C1A56871   1.386   2.849   6.208
 4479POPC   D2A56872   1.590   2.560   6.482
 4479POPC   C3A56873   1.451   2.669   6.878
 4479POPC   C4A56874   1.258   3.020   7.126
 4479POPC   C1B56875   0.887   2.719   6.235
 4479POPC   C2B56876   1.052   2.884   6.609
 4479POPC   C3B56877   0.901   2.688   6.965
 4479POPC   C4B56878   0.754   2.641   7.378
 4480POPC   NC356879  20.367  12.241   5.477
 4480POPC   PO456880  19.792  11.850   5.457
 4480POPC   GL156881  19.717  12.020   5.864
 4480POPC   GL256882  20.005  12.231   5.847
 4480POPC   C1A56883  19.619  11.871   6.298
 4480POPC   D2A56884  19.701  12.054   6.706
 4480POPC   C3A56885  19.517  12.031   7.141
 4480POPC   C4A56886  19.678  12.191   7.561
 4480POPC   C1B56887  20.109  12.092   6.278
 4480POPC   C2B56888  20.194  12.189   6.710
 4480POPC   C3B56889  20.018  12.166   7.148
 4480POPC   C4B56890  20.185  12.401   7.535
 4481POPC   NC356891  38.425  22.045   5.521
 4481POPC   PO456892  38.669  22.613   5.315
 4481POPC   GL156893  38.751  22.327   5.805
 4481POPC   GL256894  38.685  21.932   5.924
 4481POPC   C1A56895  38.615  22.239   6.303
 4481POPC   D2A56896  38.627  22.247   6.755
 4481POPC   C3A56897  38.470  22.157   7.121
 4481POPC   C4A56898  38.192  22.431   7.367
 4481POPC   C1B56899  38.239  21.910   6.132
 4481POPC   C2B56900  37.920  21.980   6.478
 4481POPC   C3B56901  38.017  22.101   6.888
 4481POPC   C4B56902  38.035  21.938   7.301
 4482POPC   NC356903  30.260  38.671   5.504
 4482POPC   PO456904  29.676  38.286   5.316
 4482POPC   GL156905  29.894  38.301   5.755
 4482POPC   GL256906  29.998  38.620   5.925
 4482POPC   C1A56907  29.780  38.228   6.182
 4482POPC   D2A56908  29.958  38.113   6.582
 4482POPC   C3A56909  30.068  38.427   6.892
 4482POPC   C4A56910  29.974  38.276   7.277
 4482POPC   C1B56911  30.076  38.600   6.381
 4482POPC   C2B56912  29.739  38.735   6.654
 4482POPC   C3B56913  29.515  38.606   7.025
 4482POPC   C4B56914  29.694  38.654   7.444
 4483POPC   NC356915   2.051  12.437   5.376
 4483POPC   PO456916   2.065  11.854   5.636
 4483POPC   GL156917   1.997  11.767   5.992
 4483POPC   GL256918   1.958  12.146   6.027
 4483POPC   C1A56919   1.942  11.744   6.394
 4483POPC   D2A56920   1.944  12.120   6.544
 4483POPC   C3A56921   2.011  12.167   6.930
 4483POPC   C4A56922   1.957  12.133   7.323
 4483POPC   C1B56923   2.133  12.462   6.223
 4483POPC   C2B56924   2.338  12.466   6.578
 4483POPC   C3B56925   2.231  12.620   6.920
 4483POPC   C4B56926   2.308  12.475   7.272
 4484POPC   NC356927  12.137  27.169   5.239
 4484POPC   PO456928  11.609  26.823   5.486
 4484POPC   GL156929  11.745  26.725   5.922
 4484POPC   GL256930  11.709  26.419   5.942
 4484POPC   C1A56931  12.073  26.650   6.257
 4484POPC   D2A56932  12.299  26.476   6.652
 4484POPC   C3A56933  12.180  26.684   7.057
 4484POPC   C4A56934  12.380  27.034   7.248
 4484POPC   C1B56935  11.671  26.217   6.278
 4484POPC   C2B56936  11.850  26.235   6.646
 4484POPC   C3B56937  11.979  26.208   7.049
 4484POPC   C4B56938  11.995  26.377   7.455
 4485POPC   NC356939  39.169  20.249   5.360
 4485POPC   PO456940  39.301  20.870   5.549
 4485POPC   GL156941  39.348  20.476   5.796
 4485POPC   GL256942  39.675  20.376   5.882
 4485POPC   C1A56943  39.258  20.365   6.238
 4485POPC   D2A56944  38.920  20.456   6.541
 4485POPC   C3A56945  39.063  20.727   6.872
 4485POPC   C4A56946  39.216  20.506   7.225
 4485POPC   C1B56947  39.589  20.781   6.168
 4485POPC   C2B56948  39.461  20.969   6.598
 4485POPC   C3B56949  39.550  20.826   7.024
 4485POPC   C4B56950  39.438  20.854   7.505
 4486POPC   NC356951   5.398  14.294   5.302
 4486POPC   PO456952   4.952  14.735   5.272
 4486POPC   GL156953   4.980  14.620   5.729
 4486POPC   GL256954   5.311  14.495   5.832
 4486POPC   C1A56955   4.849  14.605   6.166
 4486POPC   D2A56956   5.047  14.339   6.464
 4486POPC   C3A56957   5.095  14.238   6.903
 4486POPC   C4A56958   5.035  14.353   7.321
 4486POPC   C1B56959   5.353  14.754   6.215
 4486POPC   C2B56960   5.072  14.963   6.510
 4486POPC   C3B56961   5.024  14.789   6.920
 4486POPC   C4B56962   5.395  14.669   7.157
 4487POPC   NC356963  39.404  42.767   5.531
 4487POPC   PO456964  38.970  42.224   5.457
 4487POPC   GL156965  39.026  42.369   5.827
 4487POPC   GL256966  39.356  42.411   5.862
 4487POPC   C1A56967  39.173  42.176   6.243
 4487POPC   D2A56968  39.303  42.239   6.640
 4487POPC   C3A56969  39.066  42.068   7.030
 4487POPC   C4A56970  39.050  42.112   7.539
 4487POPC   C1B56971  39.601  42.589   6.204
 4487POPC   C2B56972  39.774  42.462   6.608
 4487POPC   C3B56973  39.665  42.315   6.969
 4487POPC   C4B56974  39.789  42.394   7.315
 4488POPC   NC356975  19.453  13.902   5.367
 4488POPC   PO456976  18.752  13.817   5.430
 4488POPC   GL156977  18.957  13.714   5.796
 4488POPC   GL256978  19.155  14.014   5.780
 4488POPC   C1A56979  18.868  13.517   6.227
 4488POPC   D2A56980  18.695  13.522   6.658
 4488POPC   C3A56981  18.954  13.537   7.043
 4488POPC   C4A56982  19.141  13.466   7.470
 4488POPC   C1B56983  18.972  14.036   6.198
 4488POPC   C2B56984  19.114  13.850   6.566
 4488POPC   C3B56985  19.284  13.911   6.956
 4488POPC   C4B56986  19.130  13.960   7.330
 4489POPC   NC356987   7.767  15.588   5.469
 4489POPC   PO456988   7.220  16.027   5.558
 4489POPC   GL156989   7.318  15.773   5.871
 4489POPC   GL256990   7.658  15.919   5.839
 4489POPC   C1A56991   7.340  15.717   6.308
 4489POPC   D2A56992   7.666  15.813   6.611
 4489POPC   C3A56993   7.623  15.675   7.037
 4489POPC   C4A56994   7.641  15.742   7.507
 4489POPC   C1B56995   7.565  16.172   6.192
 4489POPC   C2B56996   7.353  16.200   6.569
 4489POPC   C3B56997   7.184  15.873   6.831
 4489POPC   C4B56998   7.186  15.830   7.270
 4490POPC   NC356999  30.564  43.374   5.335
 4490POPC   PO457000  30.937  42.868   5.614
 4490POPC   GL157001  30.691  43.004   5.954
 4490POPC   GL257002  30.420  43.093   5.761
 4490POPC   C1A57003  30.677  43.255   6.340
 4490POPC   D2A57004  30.814  43.447   6.725
 4490POPC   C3A57005  30.986  43.161   7.022
 4490POPC   C4A57006  31.026  42.784   7.289
 4490POPC   C1B57007  30.195  43.179   6.135
 4490POPC   C2B57008  30.209  43.359   6.553
 4490POPC   C3B57009  30.360  43.201   6.956
 4490POPC   C4B57010  30.440  43.066   7.374
 4491POPC   NC357011   9.453  30.435   5.471
 4491POPC   PO457012   9.518  29.794   5.281
 4491POPC   GL157013   9.550  29.932   5.694
 4491POPC   GL257014   9.879  29.864   5.839
 4491POPC   C1A57015   9.476  30.130   6.089
 4491POPC   D2A57016   9.588  29.987   6.478
 4491POPC   C3A57017   9.631  30.269   6.823
 4491POPC   C4A57018   9.670  30.147   7.243
 4491POPC   C1B57019  10.079  29.989   6.215
 4491POPC   C2B57020  10.053  30.075   6.645
 4491POPC   C3B57021   9.867  29.798   6.918
 4491POPC   C4B57022  10.142  29.832   7.238
 4492POPC   NC357023  22.167  38.727   5.488
 4492POPC   PO457024  22.399  38.051   5.461
 4492POPC   GL157025  22.349  38.373   5.812
 4492POPC   GL257026  22.010  38.408   5.887
 4492POPC   C1A57027  22.298  38.680   6.210
 4492POPC   D2A57028  22.361  38.839   6.669
 4492POPC   C3A57029  22.317  38.528   7.047
 4492POPC   C4A57030  22.060  38.388   7.447
 4492POPC   C1B57031  22.242  38.161   6.271
 4492POPC   C2B57032  22.192  38.107   6.723
 4492POPC   C3B57033  22.320  38.016   7.132
 4492POPC   C4B57034  22.533  38.229   7.435
 4493POPC   NC357035  33.209  28.487   5.461
 4493POPC   PO457036  33.482  27.941   5.816
 4493POPC   GL157037  33.045  28.131   5.920
 4493POPC   GL257038  32.877  28.461   5.845
 4493POPC   C1A57039  32.932  28.252   6.362
 4493POPC   D2A57040  33.051  28.004   6.762
 4493POPC   C3A57041  33.271  28.192   7.092
 4493POPC   C4A57042  33.180  28.578   7.291
 4493POPC   C1B57043  32.697  28.721   6.174
 4493POPC   C2B57044  32.709  28.769   6.627
 4493POPC   C3B57045  32.759  28.446   6.977
 4493POPC   C4B57046  32.677  28.523   7.437
 4494POPC   NC357047  37.254  26.513   5.464
 4494POPC   PO457048  36.766  27.023   5.512
 4494POPC   GL157049  36.894  26.773   5.809
 4494POPC   GL257050  37.155  26.951   5.887
 4494POPC   C1A57051  36.807  26.794   6.263
 4494POPC   D2A57052  36.685  27.064   6.623
 4494POPC   C3A57053  36.758  26.929   7.056
 4494POPC   C4A57054  37.134  27.089   7.263
 4494POPC   C1B57055  37.257  26.565   6.093
 4494POPC   C2B57056  37.186  26.530   6.489
 4494POPC   C3B57057  37.184  26.754   6.843
 4494POPC   C4B57058  37.329  26.611   7.224
 4495POPC   NC357059   2.934  21.478   5.584
 4495POPC   PO457060   2.367  21.246   5.483
 4495POPC   GL157061   2.539  21.224   5.880
 4495POPC   GL257062   2.192  21.193   5.965
 4495POPC   C1A57063   2.812  21.393   6.229
 4495POPC   D2A57064   2.975  21.180   6.595
 4495POPC   C3A57065   2.924  21.393   6.965
 4495POPC   C4A57066   3.019  21.468   7.372
 4495POPC   C1B57067   2.314  21.540   6.230
 4495POPC   C2B57068   2.538  21.565   6.625
 4495POPC   C3B57069   2.415  21.399   7.003
 4495POPC   C4B57070   2.507  21.526   7.412
 4496POPC   NC357071  14.697   9.997   5.465
 4496POPC   PO457072  14.140   9.619   5.439
 4496POPC   GL157073  14.271   9.479   5.837
 4496POPC   GL257074  14.590   9.660   5.846
 4496POPC   C1A57075  14.179   9.629   6.257
 4496POPC   D2A57076  14.042   9.836   6.653
 4496POPC   C3A57077  14.216   9.681   7.051
 4496POPC   C4A57078  14.325   9.835   7.442
 4496POPC   C1B57079  14.619   9.911   6.246
 4496POPC   C2B57080  14.774  10.008   6.687
 4496POPC   C3B57081  14.733   9.847   7.118
 4496POPC   C4B57082  14.749  10.111   7.526
 4497POPC   NC357083  21.491  31.579   5.408
 4497POPC   PO457084  21.149  31.138   5.594
 4497POPC   GL157085  21.155  31.553   5.848
 4497POPC   GL257086  21.514  31.638   5.911
 4497POPC   C1A57087  21.215  31.685   6.312
 4497POPC   D2A57088  21.580  31.715   6.606
 4497POPC   C3A57089  21.432  31.785   7.029
 4497POPC   C4A57090  21.092  31.641   7.279
 4497POPC   C1B57091  21.486  31.267   6.137
 4497POPC   C2B57092  21.591  31.198   6.536
 4497POPC   C3B57093  21.545  31.181   6.944
 4497POPC   C4B57094  21.637  31.388   7.303
 4498POPC   NC357095  24.973   9.998   5.445
 4498POPC   PO457096  24.324   9.899   5.388
 4498POPC   GL157097  24.350   9.712   5.778
 4498POPC   GL257098  24.680   9.705   5.789
 4498POPC   C1A57099  24.362   9.785   6.209
 4498POPC   D2A57100  24.343   9.657   6.625
 4498POPC   C3A57101  24.390   9.819   7.028
 4498POPC   C4A57102  24.156  10.109   7.235
 4498POPC   C1B57103  24.880   9.685   6.162
 4498POPC   C2B57104  24.829   9.453   6.523
 4498POPC   C3B57105  24.742   9.423   6.935
 4498POPC   C4B57106  24.838   9.703   7.261
 4499POPC   NC357107  29.019   3.252   5.203
 4499POPC   PO457108  29.482   3.703   5.228
 4499POPC   GL157109  29.325   3.681   5.676
 4499POPC   GL257110  29.173   3.322   5.776
 4499POPC   C1A57111  29.391   3.770   6.123
 4499POPC   D2A57112  29.411   3.479   6.460
 4499POPC   C3A57113  29.318   3.544   6.889
 4499POPC   C4A57114  29.386   3.415   7.306
 4499POPC   C1B57115  28.977   3.301   6.215
 4499POPC   C2B57116  28.939   3.280   6.683
 4499POPC   C3B57117  28.844   3.470   7.096
 4499POPC   C4B57118  28.658   3.359   7.504
 4500POPC   NC357119  36.887  38.858   5.437
 4500POPC   PO457120  37.059  39.523   5.341
 4500POPC   GL157121  36.797  39.319   5.684
 4500POPC   GL257122  37.031  39.131   5.842
 4500POPC   C1A57123  36.604  39.138   6.101
 4500POPC   D2A57124  36.843  39.081   6.470
 4500POPC   C3A57125  36.679  39.150   6.866
 4500POPC   C4A57126  36.714  39.248   7.254
 4500POPC   C1B57127  37.174  39.461   6.116
 4500POPC   C2B57128  37.141  39.495   6.566
 4500POPC   C3B57129  37.151  39.286   6.964
 4500POPC   C4B57130  37.120  38.898   7.184
 4501POPC   NC357131  14.863  21.619   5.451
 4501POPC   PO457132  14.282  21.324   5.248
 4501POPC   GL157133  14.401  21.412   5.656
 4501POPC   GL257134  14.122  21.410   5.912
 4501POPC   C1A57135  14.600  21.395   6.045
 4501POPC   D2A57136  14.569  21.551   6.443
 4501POPC   C3A57137  14.461  21.356   6.772
 4501POPC   C4A57138  14.599  21.429   7.176
 4501POPC   C1B57139  14.231  21.152   6.321
 4501POPC   C2B57140  14.133  20.962   6.740
 4501POPC   C3B57141  14.122  21.198   7.132
 4501POPC   C4B57142  13.884  21.529   7.347
 4502POPC   NC357143  19.370   2.932   4.922
 4502POPC   PO457144  18.895   2.735   5.387
 4502POPC   GL157145  19.071   2.961   5.731
 4502POPC   GL257146  19.425   2.887   5.790
 4502POPC   C1A57147  19.034   2.989   6.182
 4502POPC   D2A57148  18.810   2.745   6.496
 4502POPC   C3A57149  18.958   2.857   6.916
 4502POPC   C4A57150  18.953   2.960   7.397
 4502POPC   C1B57151  19.295   2.565   6.077
 4502POPC   C2B57152  19.254   2.554   6.490
 4502POPC   C3B57153  19.256   2.447   6.876
 4502POPC   C4B57154  19.366   2.730   7.195
 4503POPC   NC357155  29.326  28.956   5.517
 4503POPC   PO457156  29.939  29.155   5.290
 4503POPC   GL157157  30.087  29.197   5.740
 4503POPC   GL257158  29.920  28.933   5.923
 4503POPC   C1A57159  30.217  29.269   6.190
 4503POPC   D2A57160  29.966  29.068   6.472
 4503POPC   C3A57161  29.979  29.019   6.926
 4503POPC   C4A57162  30.059  29.224   7.351
 4503POPC   C1B57163  29.714  29.326   6.093
 4503POPC   C2B57164  29.616  29.439   6.536
 4503POPC   C3B57165  29.632  29.376   7.008
 4503POPC   C4B57166  29.509  29.193   7.451
 4504POPC   NC357167  42.404  29.937   5.383
 4504POPC   PO457168  41.805  29.963   5.594
 4504POPC   GL157169  42.157  30.048   5.862
 4504POPC   GL257170  42.534  30.090   5.844
 4504POPC   C1A57171  42.279  29.816   6.230
 4504POPC   D2A57172  42.467  29.677   6.613
 4504POPC   C3A57173  42.169  29.794   6.932
 4504POPC   C4A57174  42.326  29.900   7.334
 4504POPC   C1B57175  42.509  30.276   6.242
 4504POPC   C2B57176  42.406  30.191   6.665
 4504POPC   C3B57177  42.470  30.332   7.094
 4504POPC   C4B57178  42.245  30.386   7.491
 4505POPC   NC357179  27.022  33.912   5.416
 4505POPC   PO457180  26.374  33.879   5.619
 4505POPC   GL157181  26.654  33.749   5.909
 4505POPC   GL257182  27.002  33.711   5.875
 4505POPC   C1A57183  26.714  33.738   6.343
 4505POPC   D2A57184  26.512  33.824   6.729
 4505POPC   C3A57185  26.734  33.712   7.127
 4505POPC   C4A57186  26.921  33.462   7.475
 4505POPC   C1B57187  27.042  34.105   6.123
 4505POPC   C2B57188  26.907  34.268   6.517
 4505POPC   C3B57189  26.985  34.160   6.918
 4505POPC   C4B57190  27.097  34.061   7.310
 4506POPC   NC357191  29.319  26.349   5.355
 4506POPC   PO457192  29.236  26.993   5.336
 4506POPC   GL157193  29.092  26.955   5.750
 4506POPC   GL257194  29.008  26.611   5.807
 4506POPC   C1A57195  29.192  26.912   6.205
 4506POPC   D2A57196  29.497  26.754   6.538
 4506POPC   C3A57197  29.272  26.801   6.937
 4506POPC   C4A57198  29.015  27.173   7.061
 4506POPC   C1B57199  28.790  26.573   6.220
 4506POPC   C2B57200  28.804  26.786   6.636
 4506POPC   C3B57201  28.749  26.694   7.064
 4506POPC   C4B57202  28.772  26.364   7.365
 4507POPC   NC357203   3.313  21.918   5.319
 4507POPC   PO457204   3.842  22.275   5.395
 4507POPC   GL157205   3.639  22.036   5.735
 4507POPC   GL257206   3.297  22.180   5.789
 4507POPC   C1A57207   3.701  21.905   6.173
 4507POPC   D2A57208   3.580  21.785   6.591
 4507POPC   C3A57209   3.641  22.104   6.867
 4507POPC   C4A57210   3.790  22.379   7.183
 4507POPC   C1B57211   3.203  21.973   6.206
 4507POPC   C2B57212   3.070  21.742   6.615
 4507POPC   C3B57213   3.208  21.865   7.044
 4507POPC   C4B57214   3.394  21.847   7.470
 4508POPC   NC357215  10.849   2.932   5.507
 4508POPC   PO457216  10.208   2.688   5.454
 4508POPC   GL157217  10.537   2.570   5.768
 4508POPC   GL257218  10.295   2.676   5.982
 4508POPC   C1A57219  10.665   2.516   6.250
 4508POPC   D2A57220  10.380   2.736   6.546
 4508POPC   C3A57221  10.596   2.838   6.929
 4508POPC   C4A57222  10.742   2.545   7.242
 4508POPC   C1B57223  10.117   3.025   6.200
 4508POPC   C2B57224  10.090   3.188   6.631
 4508POPC   C3B57225  10.137   2.996   7.055
 4508POPC   C4B57226  10.396   2.859   7.438
 4509POPC   NC357227   1.726  35.446   5.347
 4509POPC   PO457228   2.323  35.741   5.640
 4509POPC   GL157229   2.055  35.519   5.900
 4509POPC   GL257230   1.789  35.283   5.810
 4509POPC   C1A57231   2.169  35.422   6.309
 4509POPC   D2A57232   2.344  35.459   6.709
 4509POPC   C3A57233   2.039  35.618   6.981
 4509POPC   C4A57234   1.927  35.541   7.403
 4509POPC   C1B57235   1.632  35.398   6.220
 4509POPC   C2B57236   1.495  35.402   6.660
 4509POPC   C3B57237   1.600  35.334   7.094
 4509POPC   C4B57238   1.598  35.211   7.558
 4510POPC   NC357239   9.198  31.941   5.633
 4510POPC   PO457240   9.809  32.234   5.405
 4510POPC   GL157241   9.698  32.429   5.824
 4510POPC   GL257242   9.344  32.367   5.927
 4510POPC   C1A57243   9.735  32.456   6.302
 4510POPC   D2A57244   9.716  32.486   6.765
 4510POPC   C3A57245  10.003  32.169   6.974
 4510POPC   C4A57246   9.977  32.291   7.383
 4510POPC   C1B57247   9.439  32.022   6.259
 4510POPC   C2B57248   9.600  31.987   6.699
 4510POPC   C3B57249   9.569  31.987   7.174
 4510POPC   C4B57250   9.373  31.841   7.577
 4511POPC   NC357251  32.590  29.272   5.446
 4511POPC   PO457252  32.016  28.735   5.350
 4511POPC   GL157253  32.142  28.785   5.803
 4511POPC   GL257254  32.415  28.994   5.831
 4511POPC   C1A57255  32.208  28.888   6.277
 4511POPC   D2A57256  32.224  29.250   6.539
 4511POPC   C3A57257  32.141  29.166   6.961
 4511POPC   C4A57258  31.953  29.203   7.344
 4511POPC   C1B57259  32.541  29.339   6.112
 4511POPC   C2B57260  32.625  29.572   6.500
 4511POPC   C3B57261  32.631  29.305   6.843
 4511POPC   C4B57262  32.537  29.381   7.272
 4512POPC   NC357263   0.494  36.172   5.372
 4512POPC   PO457264  44.838  35.785   5.357
 4512POPC   GL157265   0.103  35.920   5.735
 4512POPC   GL257266   0.454  36.050   5.849
 4512POPC   C1A57267   0.030  36.160   6.138
 4512POPC   D2A57268   0.112  36.446   6.501
 4512POPC   C3A57269   0.493  36.480   6.709
 4512POPC   C4A57270   0.557  36.207   7.067
 4512POPC   C1B57271   0.750  36.099   6.190
 4512POPC   C2B57272   0.618  35.979   6.588
 4512POPC   C3B57273   0.479  35.690   6.889
 4512POPC   C4B57274   0.725  35.754   7.232
 4513POPC   NC357275  35.009  40.768   5.479
 4513POPC   PO457276  34.443  40.382   5.389
 4513POPC   GL157277  34.453  40.632   5.775
 4513POPC   GL257278  34.663  40.941   5.830
 4513POPC   C1A57279  34.610  40.518   6.169
 4513POPC   D2A57280  34.483  40.482   6.586
 4513POPC   C3A57281  34.554  40.819   6.840
 4513POPC   C4A57282  34.499  40.801   7.273
 4513POPC   C1B57283  34.880  41.047   6.222
 4513POPC   C2B57284  34.963  41.116   6.671
 4513POPC   C3B57285  34.869  41.139   7.113
 4513POPC   C4B57286  34.996  40.878   7.438
 4514POPC   NC357287  17.036  14.991   5.281
 4514POPC   PO457288  16.839  15.532   5.457
 4514POPC   GL157289  16.727  15.252   5.788
 4514POPC   GL257290  16.951  14.995   5.837
 4514POPC   C1A57291  16.651  15.161   6.219
 4514POPC   D2A57292  16.753  15.408   6.588
 4514POPC   C3A57293  16.899  15.248   6.965
 4514POPC   C4A57294  16.781  15.388   7.333
 4514POPC   C1B57295  17.083  14.836   6.221
 4514POPC   C2B57296  16.850  14.888   6.597
 4514POPC   C3B57297  16.476  15.022   6.824
 4514POPC   C4B57298  16.593  14.889   7.222
 4515POPC   NC357299  41.025  21.586   5.599
 4515POPC   PO457300  40.962  22.121   5.161
 4515POPC   GL157301  40.989  22.090   5.666
 4515POPC   GL257302  41.306  21.979   5.815
 4515POPC   C1A57303  40.821  22.028   6.143
 4515POPC   D2A57304  40.698  22.226   6.563
 4515POPC   C3A57305  40.528  22.008   6.928
 4515POPC   C4A57306  40.561  21.803   7.311
 4515POPC   C1B57307  41.168  22.394   6.030
 4515POPC   C2B57308  41.122  22.521   6.460
 4515POPC   C3B57309  41.007  22.505   6.921
 4515POPC   C4B57310  40.924  22.166   7.197
 4516POPC   NC357311  35.742  40.361   5.362
 4516POPC   PO457312  35.116  40.314   5.600
 4516POPC   GL157313  35.310  39.998   5.803
 4516POPC   GL257314  35.581  40.223   5.894
 4516POPC   C1A57315  35.288  39.764   6.183
 4516POPC   D2A57316  35.033  39.788   6.558
 4516POPC   C3A57317  35.176  40.161   6.816
 4516POPC   C4A57318  35.102  40.057   7.244
 4516POPC   C1B57319  35.594  40.209   6.356
 4516POPC   C2B57320  35.554  39.823   6.609
 4516POPC   C3B57321  35.377  39.717   6.970
 4516POPC   C4B57322  35.600  40.012   7.146
 4517POPC   NC357323  21.874  25.453   5.445
 4517POPC   PO457324  21.439  24.998   5.278
 4517POPC   GL157325  21.387  25.289   5.653
 4517POPC   GL257326  21.317  25.639   5.571
 4517POPC   C1A57327  21.481  25.196   6.117
 4517POPC   D2A57328  21.488  25.212   6.588
 4517POPC   C3A57329  21.429  25.008   6.989
 4517POPC   C4A57330  21.676  25.151   7.342
 4517POPC   C1B57331  21.443  25.700   6.020
 4517POPC   C2B57332  21.275  25.636   6.415
 4517POPC   C3B57333  21.340  25.671   6.848
 4517POPC   C4B57334  21.327  25.504   7.263
 4518POPC   NC357335  21.333  10.589   5.392
 4518POPC   PO457336  21.901  10.095   5.423
 4518POPC   GL157337  21.562  10.292   5.775
 4518POPC   GL257338  21.493  10.693   5.854
 4518POPC   C1A57339  21.427  10.385   6.240
 4518POPC   D2A57340  21.437  10.741   6.555
 4518POPC   C3A57341  21.467  10.548   6.985
 4518POPC   C4A57342  21.139  10.243   7.156
 4518POPC   C1B57343  21.104  10.786   6.123
 4518POPC   C2B57344  20.972  10.953   6.555
 4518POPC   C3B57345  21.032  10.805   6.986
 4518POPC   C4B57346  21.291  10.923   7.360
 4519POPC   NC357347  30.735  22.419   5.447
 4519POPC   PO457348  30.461  21.826   5.497
 4519POPC   GL157349  30.567  22.134   5.846
 4519POPC   GL257350  30.927  22.156   5.884
 4519POPC   C1A57351  30.421  22.144   6.288
 4519POPC   D2A57352  30.731  22.225   6.602
 4519POPC   C3A57353  30.626  22.196   7.025
 4519POPC   C4A57354  30.809  22.004   7.367
 4519POPC   C1B57355  31.095  22.488   6.173
 4519POPC   C2B57356  31.175  22.481   6.589
 4519POPC   C3B57357  30.945  22.582   6.938
 4519POPC   C4B57358  30.978  22.486   7.351
 4520POPC   NC357359  43.863  27.288   5.108
 4520POPC   PO457360  43.976  27.797   5.453
 4520POPC   GL157361  43.865  27.789   5.871
 4520POPC   GL257362  43.898  27.433   5.849
 4520POPC   C1A57363  43.726  27.788   6.308
 4520POPC   D2A57364  43.935  27.743   6.703
 4520POPC   C3A57365  43.753  27.793   7.106
 4520POPC   C4A57366  43.841  27.539   7.439
 4520POPC   C1B57367  44.122  27.159   6.131
 4520POPC   C2B57368  44.126  26.994   6.559
 4520POPC   C3B57369  43.982  27.209   6.934
 4520POPC   C4B57370  44.151  27.136   7.322
 4521POPC   NC357371  12.936  32.110   5.475
 4521POPC   PO457372  12.311  32.193   5.772
 4521POPC   GL157373  12.751  32.219   5.946
 4521POPC   GL257374  13.091  32.410   5.863
 4521POPC   C1A57375  12.973  32.155   6.329
 4521POPC   D2A57376  12.941  32.326   6.744
 4521POPC   C3A57377  12.580  32.229   7.013
 4521POPC   C4A57378  12.480  31.778   7.124
 4521POPC   C1B57379  13.354  32.471   6.247
 4521POPC   C2B57380  13.386  32.568   6.674
 4521POPC   C3B57381  13.288  32.505   7.098
 4521POPC   C4B57382  13.029  32.186   7.232
 4522POPC   NC357383   6.111  33.487   5.385
 4522POPC   PO457384   5.941  34.038   5.102
 4522POPC   GL157385   5.952  33.940   5.619
 4522POPC   GL257386   5.662  34.080   5.816
 4522POPC   C1A57387   5.832  33.679   6.053
 4522POPC   D2A57388   5.970  33.587   6.506
 4522POPC   C3A57389   5.835  33.585   6.964
 4522POPC   C4A57390   6.123  33.832   7.279
 4522POPC   C1B57391   5.552  34.078   6.277
 4522POPC   C2B57392   5.485  33.975   6.731
 4522POPC   C3B57393   5.708  34.066   7.106
 4522POPC   C4B57394   5.704  34.157   7.528
 4523POPC   NC357395   3.022  23.110   5.425
 4523POPC   PO457396   2.355  22.835   5.370
 4523POPC   GL157397   2.662  22.917   5.749
 4523POPC   GL257398   2.763  23.262   5.878
 4523POPC   C1A57399   2.712  22.863   6.180
 4523POPC   D2A57400   2.904  22.675   6.505
 4523POPC   C3A57401   2.720  22.679   6.893
 4523POPC   C4A57402   2.899  22.376   7.142
 4523POPC   C1B57403   2.918  23.299   6.347
 4523POPC   C2B57404   2.914  23.219   6.833
 4523POPC   C3B57405   2.914  23.252   7.330
 4523POPC   C4B57406   2.978  23.344   7.805
 4524POPC   NC357407  44.383  20.758   5.104
 4524POPC   PO457408   0.036  20.678   5.222
 4524POPC   GL157409  44.842  20.573   5.737
 4524POPC   GL257410  44.507  20.603   5.761
 4524POPC   C1A57411  44.803  20.659   6.183
 4524POPC   D2A57412  44.564  20.806   6.548
 4524POPC   C3A57413  44.785  20.716   6.921
 4524POPC   C4A57414  44.675  20.575   7.319
 4524POPC   C1B57415  44.302  20.457   6.133
 4524POPC   C2B57416  44.115  20.533   6.515
 4524POPC   C3B57417  44.354  20.408   6.878
 4524POPC   C4B57418  44.210  20.292   7.281
 4525POPC   NC357419   7.865  15.174   5.015
 4525POPC   PO457420   7.367  15.194   5.419
 4525POPC   GL157421   7.217  15.199   5.840
 4525POPC   GL257422   7.033  14.899   5.887
 4525POPC   C1A57423   7.267  15.130   6.302
 4525POPC   D2A57424   7.309  15.366   6.672
 4525POPC   C3A57425   7.493  15.119   6.950
 4525POPC   C4A57426   7.313  15.328   7.253
 4525POPC   C1B57427   6.830  14.861   6.315
 4525POPC   C2B57428   7.089  14.795   6.711
 4525POPC   C3B57429   6.950  14.947   7.133
 4525POPC   C4B57430   7.130  14.975   7.560
 4526POPC   NC357431  12.206   0.747   5.332
 4526POPC   PO457432  12.124   1.346   5.113
 4526POPC   GL157433  12.083   1.204   5.581
 4526POPC   GL257434  11.879   0.909   5.675
 4526POPC   C1A57435  12.129   1.224   6.054
 4526POPC   D2A57436  12.051   1.350   6.519
 4526POPC   C3A57437  12.125   1.283   6.968
 4526POPC   C4A57438  11.841   1.311   7.337
 4526POPC   C1B57439  11.843   0.807   6.128
 4526POPC   C2B57440  12.016   0.852   6.564
 4526POPC   C3B57441  11.805   0.892   6.954
 4526POPC   C4B57442  11.889   0.826   7.388
 4527POPC   NC357443   3.375   4.684   5.509
 4527POPC   PO457444   3.865   5.127   5.348
 4527POPC   GL157445   3.770   4.915   5.728
 4527POPC   GL257446   3.699   5.208   5.875
 4527POPC   C1A57447   3.557   4.837   6.156
 4527POPC   D2A57448   3.627   4.699   6.534
 4527POPC   C3A57449   3.474   4.901   6.886
 4527POPC   C4A57450   3.591   4.864   7.267
 4527POPC   C1B57451   3.864   5.329   6.225
 4527POPC   C2B57452   3.652   5.248   6.564
 4527POPC   C3B57453   3.835   5.260   6.964
 4527POPC   C4B57454   3.835   5.517   7.284
 4528POPC   NC357455  12.275  24.787   5.357
 4528POPC   PO457456  11.680  24.501   5.331
 4528POPC   GL157457  11.942  24.438   5.688
 4528POPC   GL257458  12.318  24.378   5.704
 4528POPC   C1A57459  11.942  24.526   6.123
 4528POPC   D2A57460  11.675  24.520   6.487
 4528POPC   C3A57461  11.826  24.718   6.851
 4528POPC   C4A57462  11.924  24.454   7.197
 4528POPC   C1B57463  12.460  24.493   6.137
 4528POPC   C2B57464  12.240  24.591   6.546
 4528POPC   C3B57465  12.327  24.669   6.977
 4528POPC   C4B57466  12.424  24.376   7.307
 4529POPC   NC357467   6.730  25.580   5.179
 4529POPC   PO457468   6.566  26.260   5.423
 4529POPC   GL157469   6.374  26.188   5.837
 4529POPC   GL257470   6.712  26.091   5.920
 4529POPC   C1A57471   6.331  26.110   6.311
 4529POPC   D2A57472   6.704  26.055   6.593
 4529POPC   C3A57473   6.682  26.183   7.039
 4529POPC   C4A57474   6.442  26.123   7.455
 4529POPC   C1B57475   7.062  26.066   6.192
 4529POPC   C2B57476   7.137  25.763   6.503
 4529POPC   C3B57477   6.941  25.699   6.896
 4529POPC   C4B57478   6.979  25.867   7.286
 4530POPC   NC357479  22.291   3.127   5.143
 4530POPC   PO457480  21.832   3.554   5.372
 4530POPC   GL157481  22.068   3.551   5.857
 4530POPC   GL257482  22.123   3.227   5.995
 4530POPC   C1A57483  22.265   3.624   6.248
 4530POPC   D2A57484  22.471   3.592   6.575
 4530POPC   C3A57485  22.241   3.687   6.914
 4530POPC   C4A57486  22.299   3.508   7.316
 4530POPC   C1B57487  21.856   3.300   6.319
 4530POPC   C2B57488  21.955   3.305   6.741
 4530POPC   C3B57489  21.838   3.222   7.138
 4530POPC   C4B57490  21.942   3.214   7.548
 4531POPC   NC357491  24.097  31.644   5.689
 4531POPC   PO457492  24.569  31.472   5.207
 4531POPC   GL157493  24.543  31.402   5.731
 4531POPC   GL257494  24.387  31.140   5.887
 4531POPC   C1A57495  24.580  31.584   6.167
 4531POPC   D2A57496  24.777  31.526   6.595
 4531POPC   C3A57497  24.665  31.836   6.947
 4531POPC   C4A57498  24.373  31.799   7.318
 4531POPC   C1B57499  24.312  31.150   6.299
 4531POPC   C2B57500  24.135  31.384   6.618
 4531POPC   C3B57501  24.427  31.349   6.933
 4531POPC   C4B57502  24.411  31.102   7.303
 4532POPC   NC357503  24.379  34.826   5.525
 4532POPC   PO457504  24.351  34.137   5.571
 4532POPC   GL157505  24.507  34.459   5.864
 4532POPC   GL257506  24.757  34.262   5.964
 4532POPC   C1A57507  24.386  34.768   6.211
 4532POPC   D2A57508  24.447  34.822   6.682
 4532POPC   C3A57509  24.247  34.648   7.055
 4532POPC   C4A57510  24.344  34.267   7.269
 4532POPC   C1B57511  24.493  34.266   6.335
 4532POPC   C2B57512  24.432  34.279   6.754
 4532POPC   C3B57513  24.729  34.475   7.031
 4532POPC   C4B57514  24.687  34.893   7.182
 4533POPC   NC357515  35.868  35.284   5.460
 4533POPC   PO457516  35.295  35.628   5.262
 4533POPC   GL157517  35.331  35.497   5.698
 4533POPC   GL257518  35.008  35.344   5.797
 4533POPC   C1A57519  35.518  35.357   6.107
 4533POPC   D2A57520  35.490  35.537   6.539
 4533POPC   C3A57521  35.642  35.329   6.937
 4533POPC   C4A57522  35.553  35.532   7.343
 4533POPC   C1B57523  35.062  35.580   6.187
 4533POPC   C2B57524  34.996  35.415   6.600
 4533POPC   C3B57525  35.143  35.480   6.994
 4533POPC   C4B57526  35.125  35.259   7.398
 4534POPC   NC357527   3.859   9.493   5.485
 4534POPC   PO457528   3.220   9.741   5.448
 4534POPC   GL157529   3.445   9.796   5.868
 4534POPC   GL257530   3.792   9.784   5.895
 4534POPC   C1A57531   3.515  10.088   6.244
 4534POPC   D2A57532   3.400  10.033   6.709
 4534POPC   C3A57533   3.482  10.030   7.160
 4534POPC   C4A57534   3.374   9.570   7.245
 4534POPC   C1B57535   3.722   9.628   6.273
 4534POPC   C2B57536   3.876   9.865   6.580
 4534POPC   C3B57537   3.769   9.706   6.922
 4534POPC   C4B57538   3.877   9.622   7.294
 4535POPC   NC357539  11.611   8.817   5.298
 4535POPC   PO457540  10.955   9.073   5.389
 4535POPC   GL157541  11.292   9.099   5.702
 4535POPC   GL257542  11.469   8.792   5.781
 4535POPC   C1A57543  11.322   9.224   6.140
 4535POPC   D2A57544  11.437   9.084   6.555
 4535POPC   C3A57545  11.209   9.216   6.926
 4535POPC   C4A57546  11.543   9.137   7.197
 4535POPC   C1B57547  11.475   8.717   6.197
 4535POPC   C2B57548  11.308   8.572   6.586
 4535POPC   C3B57549  11.344   8.730   6.944
 4535POPC   C4B57550  11.435   8.652   7.319
 4536POPC   NC357551  15.585   5.085   5.455
 4536POPC   PO457552  16.245   4.823   5.292
 4536POPC   GL157553  16.035   4.937   5.698
 4536POPC   GL257554  15.714   4.790   5.838
 4536POPC   C1A57555  16.109   4.879   6.147
 4536POPC   D2A57556  16.284   4.957   6.548
 4536POPC   C3A57557  16.153   4.707   6.877
 4536POPC   C4A57558  16.043   4.831   7.250
 4536POPC   C1B57559  15.622   5.006   6.213
 4536POPC   C2B57560  15.797   5.086   6.620
 4536POPC   C3B57561  15.618   4.865   6.961
 4536POPC   C4B57562  15.561   4.968   7.388
 4537POPC   NC357563  16.342  17.868   5.469
 4537POPC   PO457564  16.668  17.309   5.353
 4537POPC   GL157565  16.614  17.533   5.746
 4537POPC   GL257566  16.772  17.838   5.742
 4537POPC   C1A57567  16.568  17.631   6.190
 4537POPC   D2A57568  16.574  17.421   6.585
 4537POPC   C3A57569  16.682  17.585   6.977
 4537POPC   C4A57570  16.573  17.497   7.420
 4537POPC   C1B57571  17.030  17.567   6.017
 4537POPC   C2B57572  17.061  17.558   6.467
 4537POPC   C3B57573  17.171  17.759   6.873
 4537POPC   C4B57574  17.077  17.605   7.297
 4538POPC   NC357575   3.359  10.216   5.597
 4538POPC   PO457576   3.621  10.746   5.231
 4538POPC   GL157577   3.597  10.733   5.703
 4538POPC   GL257578   3.282  10.731   5.844
 4538POPC   C1A57579   3.629  10.599   6.187
 4538POPC   D2A57580   3.768  10.376   6.579
 4538POPC   C3A57581   3.669  10.495   6.976
 4538POPC   C4A57582   3.936  10.616   7.312
 4538POPC   C1B57583   3.106  10.650   6.233
 4538POPC   C2B57584   3.222  10.489   6.643
 4538POPC   C3B57585   3.152  10.426   7.081
 4538POPC   C4B57586   3.425  10.572   7.429
 4539POPC   NC357587  14.298   2.250   5.430
 4539POPC   PO457588  14.396   1.715   5.237
 4539POPC   GL157589  14.467   1.936   5.786
 4539POPC   GL257590  14.497   2.317   5.890
 4539POPC   C1A57591  14.396   1.750   6.249
 4539POPC   D2A57592  14.234   1.892   6.658
 4539POPC   C3A57593  14.252   1.705   7.053
 4539POPC   C4A57594  14.367   1.953   7.421
 4539POPC   C1B57595  14.369   2.253   6.313
 4539POPC   C2B57596  14.592   2.267   6.722
 4539POPC   C3B57597  14.455   2.380   7.154
 4539POPC   C4B57598  14.457   2.379   7.666
 4540POPC   NC357599  13.146  28.074   5.605
 4540POPC   PO457600  12.671  28.446   5.328
 4540POPC   GL157601  12.695  28.531   5.765
 4540POPC   GL257602  13.047  28.464   5.936
 4540POPC   C1A57603  12.636  28.677   6.176
 4540POPC   D2A57604  12.950  28.559   6.466
 4540POPC   C3A57605  12.780  28.521   6.846
 4540POPC   C4A57606  13.009  28.492   7.180
 4540POPC   C1B57607  13.142  28.114   6.265
 4540POPC   C2B57608  12.985  28.037   6.694
 4540POPC   C3B57609  13.090  28.003   7.137
 4540POPC   C4B57610  13.332  28.094   7.560
 4541POPC   NC357611  23.153  12.651   5.557
 4541POPC   PO457612  22.864  13.176   5.319
 4541POPC   GL157613  22.749  12.958   5.713
 4541POPC   GL257614  23.057  13.005   5.929
 4541POPC   C1A57615  22.609  12.964   6.164
 4541POPC   D2A57616  22.836  12.997   6.528
 4541POPC   C3A57617  22.714  12.785   6.920
 4541POPC   C4A57618  22.736  12.925   7.354
 4541POPC   C1B57619  23.329  12.905   6.310
 4541POPC   C2B57620  23.247  12.806   6.751
 4541POPC   C3B57621  23.194  12.740   7.157
 4541POPC   C4B57622  23.410  12.473   7.389
 4542POPC   NC357623  37.226   0.981   5.455
 4542POPC   PO457624  36.517   1.058   5.532
 4542POPC   GL157625  36.712   1.344   5.859
 4542POPC   GL257626  37.052   1.196   5.916
 4542POPC   C1A57627  36.811   1.391   6.339
 4542POPC   D2A57628  36.580   1.337   6.740
 4542POPC   C3A57629  36.834   1.128   7.080
 4542POPC   C4A57630  37.254   1.277   7.195
 4542POPC   C1B57631  37.153   0.964   6.318
 4542POPC   C2B57632  37.230   0.928   6.801
 4542POPC   C3B57633  37.242   0.779   7.248
 4542POPC   C4B57634  37.344   0.783   7.695
 4543POPC   NC357635  16.926  14.007   5.418
 4543POPC   PO457636  16.829  13.337   5.551
 4543POPC   GL157637  16.909  13.620   5.863
 4543POPC   GL257638  16.584  13.761   5.916
 4543POPC   C1A57639  16.818  13.516   6.289
 4543POPC   D2A57640  16.669  13.586   6.661
 4543POPC   C3A57641  17.028  13.534   6.943
 4543POPC   C4A57642  17.289  13.568   7.283
 4543POPC   C1B57643  16.281  13.816   6.253
 4543POPC   C2B57644  16.290  14.079   6.622
 4543POPC   C3B57645  16.598  14.011   6.911
 4543POPC   C4B57646  16.605  13.668   7.173
 4544POPC   NC357647  27.643  37.878   5.423
 4544POPC   PO457648  27.524  37.233   5.591
 4544POPC   GL157649  27.761  37.534   5.800
 4544POPC   GL257650  27.466  37.742   5.872
 4544POPC   C1A57651  27.771  37.590   6.255
 4544POPC   D2A57652  27.494  37.673   6.604
 4544POPC   C3A57653  27.679  37.472   6.958
 4544POPC   C4A57654  28.092  37.373   7.126
 4544POPC   C1B57655  27.537  38.076   6.192
 4544POPC   C2B57656  27.491  38.185   6.641
 4544POPC   C3B57657  27.520  37.961   7.052
 4544POPC   C4B57658  27.905  37.829   7.247
 4545POPC   NC357659  41.742  30.423   5.558
 4545POPC   PO457660  41.479  31.062   5.666
 4545POPC   GL157661  41.405  30.696   5.891
 4545POPC   GL257662  41.347  30.902   6.156
 4545POPC   C1A57663  41.623  30.499   6.221
 4545POPC   D2A57664  41.689  30.734   6.600
 4545POPC   C3A57665  41.523  30.632   6.980
 4545POPC   C4A57666  41.774  30.651   7.319
 4545POPC   C1B57667  41.809  31.025   6.201
 4545POPC   C2B57668  41.932  31.321   6.483
 4545POPC   C3B57669  41.781  31.194   6.881
 4545POPC   C4B57670  41.961  31.218   7.275
 4546POPC   NC357671  43.613   7.880   5.202
 4546POPC   PO457672  44.148   8.254   5.136
 4546POPC   GL157673  44.026   8.114   5.609
 4546POPC   GL257674  43.722   7.957   5.761
 4546POPC   C1A57675  44.059   8.144   6.103
 4546POPC   D2A57676  43.946   8.420   6.463
 4546POPC   C3A57677  44.159   8.347   6.866
 4546POPC   C4A57678  44.001   8.486   7.266
 4546POPC   C1B57679  43.557   7.968   6.198
 4546POPC   C2B57680  43.536   8.141   6.608
 4546POPC   C3B57681  43.671   8.208   6.997
 4546POPC   C4B57682  43.900   7.980   7.311
 4547POPC   NC357683  15.187  44.146   5.403
 4547POPC   PO457684  15.028  43.458   5.549
 4547POPC   GL157685  15.064  43.850   5.834
 4547POPC   GL257686  15.024  44.247   5.853
 4547POPC   C1A57687  15.138  43.959   6.273
 4547POPC   D2A57688  15.535  43.937   6.498
 4547POPC   C3A57689  15.482  43.730   6.877
 4547POPC   C4A57690  15.100  43.684   7.134
 4547POPC   C1B57691  15.370  44.378   6.102
 4547POPC   C2B57692  15.253  44.401   6.521
 4547POPC   C3B57693  15.116  44.082   6.802
 4547POPC   C4B57694  15.153  44.201   7.217
 4548POPC   NC357695   0.361  41.604   5.360
 4548POPC   PO457696   1.074  41.680   5.316
 4548POPC   GL157697   0.854  41.569   5.732
 4548POPC   GL257698   0.600  41.835   5.813
 4548POPC   C1A57699   0.661  41.435   6.162
 4548POPC   D2A57700   0.297  41.286   6.476
 4548POPC   C3A57701   0.348  41.371   6.934
 4548POPC   C4A57702   0.766  41.230   7.027
 4548POPC   C1B57703   0.254  41.788   6.138
 4548POPC   C2B57704   0.139  41.792   6.592
 4548POPC   C3B57705   0.326  41.954   6.987
 4548POPC   C4B57706   0.177  41.895   7.408
 4549POPC   NC357707  28.333  32.617   5.152
 4549POPC   PO457708  27.978  32.102   5.458
 4549POPC   GL157709  28.265  32.271   5.774
 4549POPC   GL257710  28.509  32.503   5.727
 4549POPC   C1A57711  28.156  32.336   6.221
 4549POPC   D2A57712  28.086  32.188   6.658
 4549POPC   C3A57713  28.252  32.407   7.050
 4549POPC   C4A57714  28.334  32.173   7.449
 4549POPC   C1B57715  28.668  32.337   6.136
 4549POPC   C2B57716  28.552  32.378   6.573
 4549POPC   C3B57717  28.718  32.218   6.965
 4549POPC   C4B57718  28.715  32.476   7.348
 4550POPC   NC357719  16.614  21.644   5.721
 4550POPC   PO457720  16.012  21.379   5.510
 4550POPC   GL157721  15.930  21.121   5.875
 4550POPC   GL257722  15.613  21.163   5.980
 4550POPC   C1A57723  15.978  21.190   6.344
 4550POPC   D2A57724  16.077  21.413   6.738
 4550POPC   C3A57725  16.032  21.212   7.129
 4550POPC   C4A57726  16.120  21.364   7.582
 4550POPC   C1B57727  15.492  21.401   6.312
 4550POPC   C2B57728  15.549  21.405   6.737
 4550POPC   C3B57729  15.663  21.547   7.109
 4550POPC   C4B57730  15.502  21.774   7.430
 4551POPC   NC357731   4.477  13.973   5.083
 4551POPC   PO457732   4.461  13.903   5.684
 4551POPC   GL157733   4.249  13.639   5.908
 4551POPC   GL257734   4.554  13.555   6.086
 4551POPC   C1A57735   4.096  13.547   6.308
 4551POPC   D2A57736   4.306  13.625   6.717
 4551POPC   C3A57737   4.207  13.369   7.117
 4551POPC   C4A57738   4.130  13.525   7.567
 4551POPC   C1B57739   4.663  13.952   6.307
 4551POPC   C2B57740   4.635  14.077   6.708
 4551POPC   C3B57741   4.536  13.907   7.092
 4551POPC   C4B57742   4.604  13.580   7.407
 4552POPC   NC357743  10.184  43.039   5.498
 4552POPC   PO457744  10.763  43.455   5.520
 4552POPC   GL157745  10.583  43.222   5.824
 4552POPC   GL257746  10.242  43.371   5.921
 4552POPC   C1A57747  10.742  43.239   6.242
 4552POPC   D2A57748  10.597  43.487   6.576
 4552POPC   C3A57749  10.411  43.333   6.950
 4552POPC   C4A57750  10.630  43.005   7.124
 4552POPC   C1B57751  10.293  43.016   6.219
 4552POPC   C2B57752  10.413  42.924   6.645
 4552POPC   C3B57753  10.193  42.782   7.040
 4552POPC   C4B57754  10.121  42.867   7.489
 4553POPC   NC357755   8.702  31.075   5.568
 4553POPC   PO457756   9.111  31.556   5.318
 4553POPC   GL157757   8.865  31.508   5.786
 4553POPC   GL257758   9.026  31.166   5.929
 4553POPC   C1A57759   8.911  31.681   6.262
 4553POPC   D2A57760   9.092  31.903   6.660
 4553POPC   C3A57761   9.168  31.692   7.070
 4553POPC   C4A57762   8.918  31.571   7.406
 4553POPC   C1B57763   9.006  31.170   6.327
 4553POPC   C2B57764   9.048  31.381   6.674
 4553POPC   C3B57765   8.920  31.225   7.030
 4553POPC   C4B57766   8.756  31.063   7.394
 4554POPC   NC357767  42.043   0.695   5.599
 4554POPC   PO457768  42.676   0.479   5.442
 4554POPC   GL157769  42.397   0.372   5.830
 4554POPC   GL257770  42.308   0.023   5.863
 4554POPC   C1A57771  42.348   0.323   6.309
 4554POPC   D2A57772  42.622   0.380   6.698
 4554POPC   C3A57773  42.481   0.592   7.090
 4554POPC   C4A57774  42.481   0.477   7.503
 4554POPC   C1B57775  42.089  44.825   6.195
 4554POPC   C2B57776  41.933   0.032   6.552
 4554POPC   C3B57777  42.114   0.306   6.857
 4554POPC   C4B57778  42.427   0.086   7.086
 4555POPC   NC357779  19.007  13.294   5.457
 4555POPC   PO457780  19.183  12.591   5.392
 4555POPC   GL157781  19.109  12.838   5.754
 4555POPC   GL257782  19.391  13.045   5.762
 4555POPC   C1A57783  18.811  12.845   6.106
 4555POPC   D2A57784  18.758  13.030   6.489
 4555POPC   C3A57785  19.084  12.880   6.756
 4555POPC   C4A57786  19.022  12.844   7.173
 4555POPC   C1B57787  19.229  13.126   6.214
 4555POPC   C2B57788  19.220  13.351   6.635
 4555POPC   C3B57789  19.367  13.222   7.073
 4555POPC   C4B57790  19.390  12.966   7.490
 4556POPC   NC357791  34.260   4.046   5.549
 4556POPC   PO457792  34.709   4.518   5.543
 4556POPC   GL157793  34.580   4.515   5.905
 4556POPC   GL257794  34.271   4.374   5.959
 4556POPC   C1A57795  34.773   4.590   6.239
 4556POPC   D2A57796  34.635   4.408   6.596
 4556POPC   C3A57797  34.773   4.558   6.964
 4556POPC   C4A57798  34.434   4.567   7.274
 4556POPC   C1B57799  34.517   4.078   6.201
 4556POPC   C2B57800  34.553   3.900   6.645
 4556POPC   C3B57801  34.666   4.058   7.045
 4556POPC   C4B57802  34.368   4.052   7.337
 4557POPC   NC357803  26.325  16.335   5.436
 4557POPC   PO457804  25.798  15.878   5.370
 4557POPC   GL157805  26.093  15.883   5.731
 4557POPC   GL257806  25.994  16.221   5.868
 4557POPC   C1A57807  26.252  15.854   6.189
 4557POPC   D2A57808  26.102  16.010   6.610
 4557POPC   C3A57809  26.275  15.933   7.027
 4557POPC   C4A57810  26.191  16.084   7.469
 4557POPC   C1B57811  25.870  16.353   6.306
 4557POPC   C2B57812  25.661  16.239   6.723
 4557POPC   C3B57813  25.777  16.084   7.153
 4557POPC   C4B57814  25.651  15.898   7.592
 4558POPC   NC357815  19.542  21.312   5.344
 4558POPC   PO457816  19.975  20.797   5.413
 4558POPC   GL157817  19.765  21.078   5.750
 4558POPC   GL257818  19.697  21.460   5.797
 4558POPC   C1A57819  19.867  21.127   6.210
 4558POPC   D2A57820  19.790  21.085   6.674
 4558POPC   C3A57821  20.037  21.329   6.933
 4558POPC   C4A57822  19.942  21.367   7.369
 4558POPC   C1B57823  19.896  21.651   6.135
 4558POPC   C2B57824  19.717  21.569   6.528
 4558POPC   C3B57825  19.655  21.653   6.947
 4558POPC   C4B57826  19.920  21.868   7.194
 4559POPC   NC357827  33.658  11.055   5.554
 4559POPC   PO457828  34.062  11.573   5.490
 4559POPC   GL157829  33.847  11.572   5.896
 4559POPC   GL257830  33.534  11.344   5.957
 4559POPC   C1A57831  34.079  11.562   6.299
 4559POPC   D2A57832  34.248  11.280   6.624
 4559POPC   C3A57833  34.112  11.343   7.070
 4559POPC   C4A57834  33.724  11.578   7.156
 4559POPC   C1B57835  33.809  11.066   6.246
 4559POPC   C2B57836  33.788  10.964   6.710
 4559POPC   C3B57837  33.621  11.050   7.156
 4559POPC   C4B57838  33.387  11.078   7.590
 4560POPC   NC357839  30.876  42.439   5.506
 4560POPC   PO457840  30.345  42.062   5.448
 4560POPC   GL157841  30.546  42.222   5.818
 4560POPC   GL257842  30.474  42.573   5.775
 4560POPC   C1A57843  30.728  42.385   6.240
 4560POPC   D2A57844  30.858  42.319   6.708
 4560POPC   C3A57845  30.617  42.114   7.061
 4560POPC   C4A57846  30.818  41.919   7.439
 4560POPC   C1B57847  30.299  42.673   6.151
 4560POPC   C2B57848  30.384  42.870   6.536
 4560POPC   C3B57849  30.659  42.783   6.878
 4560POPC   C4B57850  30.574  42.583   7.248
 4561POPC   NC357851  27.549  36.434   5.344
 4561POPC   PO457852  27.369  35.786   5.402
 4561POPC   GL157853  27.365  36.020   5.759
 4561POPC   GL257854  27.706  36.141   5.809
 4561POPC   C1A57855  27.356  36.015   6.215
 4561POPC   D2A57856  27.605  36.134   6.582
 4561POPC   C3A57857  27.476  36.027   6.997
 4561POPC   C4A57858  27.800  36.151   7.268
 4561POPC   C1B57859  27.824  35.820   6.141
 4561POPC   C2B57860  27.696  35.642   6.555
 4561POPC   C3B57861  27.885  35.738   6.944
 4561POPC   C4B57862  27.888  35.637   7.356
 4562POPC   NC357863  24.440   6.866   5.394
 4562POPC   PO457864  24.084   6.293   5.374
 4562POPC   GL157865  24.229   6.604   5.786
 4562POPC   GL257866  24.420   6.950   5.874
 4562POPC   C1A57867  24.279   6.720   6.279
 4562POPC   D2A57868  24.474   6.735   6.642
 4562POPC   C3A57869  24.363   6.443   6.942
 4562POPC   C4A57870  24.249   6.635   7.319
 4562POPC   C1B57871  24.111   7.172   6.128
 4562POPC   C2B57872  24.143   7.243   6.577
 4562POPC   C3B57873  24.238   7.035   6.961
 4562POPC   C4B57874  24.639   6.927   7.115
 4563POPC   NC357875  27.703  24.354   5.361
 4563POPC   PO457876  27.106  24.339   5.647
 4563POPC   GL157877  27.446  24.582   5.843
 4563POPC   GL257878  27.823  24.544   5.844
 4563POPC   C1A57879  27.492  24.757   6.261
 4563POPC   D2A57880  27.502  24.503   6.604
 4563POPC   C3A57881  27.595  24.475   7.016
 4563POPC   C4A57882  27.451  24.807   7.239
 4563POPC   C1B57883  27.997  24.690   6.235
 4563POPC   C2B57884  27.907  24.804   6.688
 4563POPC   C3B57885  28.003  24.767   7.138
 4563POPC   C4B57886  27.825  24.645   7.540
 4564POPC   NC357887  11.667  40.199   5.400
 4564POPC   PO457888  12.268  39.817   5.349
 4564POPC   GL157889  12.075  40.021   5.720
 4564POPC   GL257890  11.790  39.852   5.801
 4564POPC   C1A57891  11.999  40.131   6.180
 4564POPC   D2A57892  12.089  40.066   6.633
 4564POPC   C3A57893  11.798  40.275   6.907
 4564POPC   C4A57894  11.830  40.383   7.321
 4564POPC   C1B57895  11.650  39.740   6.197
 4564POPC   C2B57896  11.545  39.918   6.595
 4564POPC   C3B57897  11.714  39.784   6.981
 4564POPC   C4B57898  11.687  39.917   7.400
 4565POPC   NC357899  10.036  33.291   5.520
 4565POPC   PO457900  10.570  32.827   5.605
 4565POPC   GL157901  10.443  33.142   5.867
 4565POPC   GL257902  10.151  32.968   5.911
 4565POPC   C1A57903  10.422  33.086   6.304
 4565POPC   D2A57904  10.480  32.866   6.626
 4565POPC   C3A57905  10.497  33.042   6.988
 4565POPC   C4A57906  10.746  32.721   7.152
 4565POPC   C1B57907  10.220  32.620   6.182
 4565POPC   C2B57908  10.183  32.474   6.602
 4565POPC   C3B57909  10.253  32.604   7.065
 4565POPC   C4B57910  10.347  32.591   7.525
 4566POPC   NC357911   9.771  11.828   5.308
 4566POPC   PO457912   9.765  11.193   5.431
 4566POPC   GL157913   9.653  11.218   5.840
 4566POPC   GL257914   9.998  11.081   5.897
 4566POPC   C1A57915   9.524  11.034   6.228
 4566POPC   D2A57916   9.263  11.018   6.607
 4566POPC   C3A57917   9.442  11.237   6.919
 4566POPC   C4A57918   9.600  11.097   7.261
 4566POPC   C1B57919   9.986  11.429   6.181
 4566POPC   C2B57920   9.813  11.329   6.569
 4566POPC   C3B57921   9.977  11.078   6.908
 4566POPC   C4B57922  10.034  11.325   7.263
 4567POPC   NC357923  26.246  41.028   5.440
 4567POPC   PO457924  26.247  40.399   5.594
 4567POPC   GL157925  26.194  40.777   5.898
 4567POPC   GL257926  25.937  41.032   5.863
 4567POPC   C1A57927  26.156  40.788   6.373
 4567POPC   D2A57928  25.871  40.700   6.728
 4567POPC   C3A57929  26.044  40.488   7.091
 4567POPC   C4A57930  26.035  40.446   7.563
 4567POPC   C1B57931  26.035  41.255   6.217
 4567POPC   C2B57932  26.052  41.230   6.638
 4567POPC   C3B57933  25.902  41.118   7.019
 4567POPC   C4B57934  25.952  40.906   7.364
 4568POPC   NC357935  22.091   8.882   5.482
 4568POPC   PO457936  22.634   8.610   5.623
 4568POPC   GL157937  22.297   8.790   5.940
 4568POPC   GL257938  21.882   8.721   5.898
 4568POPC   C1A57939  22.334   9.152   6.229
 4568POPC   D2A57940  22.542   9.306   6.607
 4568POPC   C3A57941  22.313   9.094   6.927
 4568POPC   C4A57942  21.841   9.222   7.055
 4568POPC   C1B57943  21.913   8.850   6.310
 4568POPC   C2B57944  22.122   8.719   6.637
 4568POPC   C3B57945  21.967   8.740   7.039
 4568POPC   C4B57946  22.191   8.787   7.388
 4569POPC   NC357947  23.422  21.144   5.261
 4569POPC   PO457948  23.726  21.682   5.443
 4569POPC   GL157949  23.705  21.513   5.847
 4569POPC   GL257950  23.968  21.268   5.832
 4569POPC   C1A57951  23.789  21.490   6.291
 4569POPC   D2A57952  23.667  21.615   6.701
 4569POPC   C3A57953  23.336  21.377   6.925
 4569POPC   C4A57954  23.370  21.201   7.353
 4569POPC   C1B57955  23.943  21.003   6.200
 4569POPC   C2B57956  23.672  21.055   6.598
 4569POPC   C3B57957  23.798  21.154   7.017
 4569POPC   C4B57958  24.156  20.972   7.149
 4570POPC   NC357959  27.591  42.471   5.375
 4570POPC   PO457960  27.648  41.775   5.319
 4570POPC   GL157961  27.534  41.977   5.754
 4570POPC   GL257962  27.557  42.345   5.861
 4570POPC   C1A57963  27.754  42.007   6.177
 4570POPC   D2A57964  27.952  42.160   6.551
 4570POPC   C3A57965  27.703  42.313   6.850
 4570POPC   C4A57966  27.641  42.128   7.242
 4570POPC   C1B57967  27.673  42.504   6.279
 4570POPC   C2B57968  27.962  42.698   6.575
 4570POPC   C3B57969  27.879  42.784   7.003
 4570POPC   C4B57970  27.467  42.624   7.197
 4571POPC   NC357971  17.036   6.701   5.680
 4571POPC   PO457972  16.360   6.816   5.418
 4571POPC   GL157973  16.565   6.641   5.817
 4571POPC   GL257974  16.751   6.298   5.810
 4571POPC   C1A57975  16.639   6.833   6.227
 4571POPC   D2A57976  16.861   6.849   6.612
 4571POPC   C3A57977  16.610   6.886   6.974
 4571POPC   C4A57978  16.824   6.731   7.369
 4571POPC   C1B57979  16.603   6.315   6.226
 4571POPC   C2B57980  16.773   6.345   6.628
 4571POPC   C3B57981  16.611   6.385   7.025
 4571POPC   C4B57982  16.331   6.626   7.329
 4572POPC   NC357983  20.917  32.906   5.220
 4572POPC   PO457984  21.565  32.904   5.463
 4572POPC   GL157985  21.500  32.973   5.879
 4572POPC   GL257986  21.170  32.860   5.833
 4572POPC   C1A57987  21.665  32.992   6.301
 4572POPC   D2A57988  21.762  33.062   6.728
 4572POPC   C3A57989  21.491  33.275   7.030
 4572POPC   C4A57990  21.626  32.982   7.401
 4572POPC   C1B57991  21.268  32.658   6.244
 4572POPC   C2B57992  21.230  32.908   6.624
 4572POPC   C3B57993  21.250  32.811   7.041
 4572POPC   C4B57994  21.145  33.108   7.361
 4573POPC   NC357995   5.637   6.831   5.378
 4573POPC   PO457996   6.230   6.730   5.615
 4573POPC   GL157997   5.840   6.652   5.813
 4573POPC   GL257998   5.830   7.015   5.819
 4573POPC   C1A57999   5.629   6.548   6.231
 4573POPC   D2A58000   5.666   6.317   6.664
 4573POPC   C3A58001   5.602   6.580   7.060
 4573POPC   C4A58002   5.691   6.504   7.516
 4573POPC   C1B58003   6.016   6.898   6.224
 4573POPC   C2B58004   6.034   6.721   6.623
 4573POPC   C3B58005   6.144   6.653   7.034
 4573POPC   C4B58006   5.952   6.876   7.316
 4574POPC   NC358007  38.444  25.372   5.273
 4574POPC   PO458008  38.150  25.653   5.749
 4574POPC   GL158009  38.507  25.348   5.818
 4574POPC   GL258010  38.423  24.993   5.847
 4574POPC   C1A58011  38.660  25.175   6.234
 4574POPC   D2A58012  38.340  25.142   6.537
 4574POPC   C3A58013  38.555  25.150   6.894
 4574POPC   C4A58014  38.487  25.374   7.179
 4574POPC   C1B58015  38.286  24.714   6.188
 4574POPC   C2B58016  38.098  24.687   6.605
 4574POPC   C3B58017  38.178  24.845   7.000
 4574POPC   C4B58018  38.502  24.891   7.355
 4575POPC   NC358019  13.014  15.796   5.436
 4575POPC   PO458020  12.319  15.596   5.526
 4575POPC   GL158021  12.637  15.780   5.824
 4575POPC   GL258022  12.980  15.971   5.899
 4575POPC   C1A58023  12.751  15.713   6.264
 4575POPC   D2A58024  13.057  15.848   6.559
 4575POPC   C3A58025  12.903  15.744   6.942
 4575POPC   C4A58026  12.521  15.861   7.123
 4575POPC   C1B58027  13.164  16.250   6.218
 4575POPC   C2B58028  13.016  16.469   6.602
 4575POPC   C3B58029  12.905  16.270   6.977
 4575POPC   C4B58030  13.208  16.074   7.192
 4576POPC   NC358031  12.026   1.730   5.349
 4576POPC   PO458032  11.931   2.342   5.364
 4576POPC   GL158033  12.056   2.080   5.739
 4576POPC   GL258034  12.118   1.704   5.851
 4576POPC   C1A58035  11.986   2.092   6.170
 4576POPC   D2A58036  11.977   1.846   6.533
 4576POPC   C3A58037  11.940   1.959   6.945
 4576POPC   C4A58038  11.750   1.807   7.300
 4576POPC   C1B58039  12.378   1.666   6.266
 4576POPC   C2B58040  12.420   1.654   6.768
 4576POPC   C3B58041  12.273   1.683   7.246
 4576POPC   C4B58042  12.535   1.624   7.650
 4577POPC   NC358043  24.830  16.673   5.460
 4577POPC   PO458044  25.554  16.517   5.527
 4577POPC   GL158045  25.416  16.719   5.887
 4577POPC   GL258046  25.075  16.806   5.889
 4577POPC   C1A58047  25.354  16.483   6.253
 4577POPC   D2A58048  25.135  16.286   6.560
 4577POPC   C3A58049  25.234  16.427   6.944
 4577POPC   C4A58050  25.216  16.572   7.357
 4577POPC   C1B58051  25.214  16.985   6.284
 4577POPC   C2B58052  25.051  16.797   6.650
 4577POPC   C3B58053  24.818  16.686   7.039
 4577POPC   C4B58054  24.865  16.921   7.411
 4578POPC   NC358055  27.867  17.021   5.494
 4578POPC   PO458056  27.503  16.469   5.640
 4578POPC   GL158057  27.584  16.671   5.996
 4578POPC   GL258058  27.451  16.948   5.868
 4578POPC   C1A58059  27.377  16.622   6.403
 4578POPC   D2A58060  27.336  16.628   6.843
 4578POPC   C3A58061  27.719  16.818   6.968
 4578POPC   C4A58062  27.998  16.643   7.247
 4578POPC   C1B58063  27.167  17.038   6.197
 4578POPC   C2B58064  27.345  17.091   6.608
 4578POPC   C3B58065  27.350  17.184   7.035
 4578POPC   C4B58066  27.661  17.186   7.358
 4579POPC   NC358067   8.557  37.098   5.562
 4579POPC   PO458068   7.904  36.903   5.344
 4579POPC   GL158069   7.873  36.689   5.738
 4579POPC   GL258070   8.223  36.601   5.853
 4579POPC   C1A58071   7.859  36.810   6.147
 4579POPC   D2A58072   7.926  37.096   6.443
 4579POPC   C3A58073   8.117  36.853   6.761
 4579POPC   C4A58074   7.987  36.803   7.185
 4579POPC   C1B58075   8.404  36.752   6.258
 4579POPC   C2B58076   8.626  36.935   6.635
 4579POPC   C3B58077   8.494  37.025   7.056
 4579POPC   C4B58078   8.647  37.200   7.388
 4580POPC   NC358079  26.433  18.212   5.364
 4580POPC   PO458080  27.060  18.430   5.383
 4580POPC   GL158081  26.836  18.203   5.734
 4580POPC   GL258082  26.543  18.354   5.838
 4580POPC   C1A58083  26.819  18.059   6.168
 4580POPC   D2A58084  26.568  18.284   6.525
 4580POPC   C3A58085  26.697  18.219   6.939
 4580POPC   C4A58086  26.857  18.163   7.350
 4580POPC   C1B58087  26.306  18.105   6.130
 4580POPC   C2B58088  26.138  18.001   6.568
 4580POPC   C3B58089  26.315  17.870   6.956
 4580POPC   C4B58090  26.344  18.010   7.387
 4581POPC   NC358091   0.273   2.124   5.390
 4581POPC   PO458092  44.962   1.531   5.565
 4581POPC   GL158093   0.171   1.904   5.840
 4581POPC   GL258094   0.567   2.048   5.809
 4581POPC   C1A58095   0.334   1.952   6.270
 4581POPC   D2A58096   0.471   1.684   6.614
 4581POPC   C3A58097   0.245   1.821   6.980
 4581POPC   C4A58098   0.093   1.578   7.306
 4581POPC   C1B58099   0.759   2.216   6.198
 4581POPC   C2B58100   0.596   2.311   6.660
 4581POPC   C3B58101   0.617   2.206   7.122
 4581POPC   C4B58102   0.722   2.164   7.587
 4582POPC   NC358103   1.155  15.613   5.096
 4582POPC   PO458104   1.509  15.185   5.390
 4582POPC   GL158105   1.345  15.073   5.781
 4582POPC   GL258106   1.531  14.804   5.826
 4582POPC   C1A58107   1.309  15.207   6.226
 4582POPC   D2A58108   0.928  15.342   6.490
 4582POPC   C3A58109   0.975  15.362   6.949
 4582POPC   C4A58110   0.883  15.027   7.233
 4582POPC   C1B58111   1.270  14.687   6.179
 4582POPC   C2B58112   1.191  14.862   6.614
 4582POPC   C3B58113   1.393  14.934   7.017
 4582POPC   C4B58114   1.627  15.185   7.292
 4583POPC   NC358115   4.457   3.059   5.412
 4583POPC   PO458116   4.168   3.591   5.333
 4583POPC   GL158117   4.257   3.459   5.769
 4583POPC   GL258118   4.162   3.106   5.802
 4583POPC   C1A58119   4.426   3.637   6.182
 4583POPC   D2A58120   4.461   3.980   6.518
 4583POPC   C3A58121   4.502   3.819   6.960
 4583POPC   C4A58122   4.263   3.697   7.347
 4583POPC   C1B58123   4.522   3.130   6.106
 4583POPC   C2B58124   4.442   3.172   6.547
 4583POPC   C3B58125   4.252   3.334   6.927
 4583POPC   C4B58126   4.397   3.202   7.320
 4584POPC   NC358127   1.619  22.509   5.636
 4584POPC   PO458128   1.708  22.970   5.140
 4584POPC   GL158129   1.940  22.906   5.650
 4584POPC   GL258130   2.220  23.154   5.773
 4584POPC   C1A58131   2.055  22.791   6.113
 4584POPC   D2A58132   1.798  22.790   6.501
 4584POPC   C3A58133   2.006  22.945   6.874
 4584POPC   C4A58134   2.253  22.698   7.142
 4584POPC   C1B58135   2.351  23.217   6.221
 4584POPC   C2B58136   2.457  23.048   6.635
 4584POPC   C3B58137   2.471  23.144   7.100
 4584POPC   C4B58138   2.489  23.235   7.594
 4585POPC   NC358139  14.594  18.964   5.360
 4585POPC   PO458140  13.938  19.053   5.205
 4585POPC   GL158141  14.072  19.034   5.729
 4585POPC   GL258142  14.444  19.028   5.842
 4585POPC   C1A58143  14.119  19.279   6.144
 4585POPC   D2A58144  14.308  19.160   6.540
 4585POPC   C3A58145  14.114  19.295   6.941
 4585POPC   C4A58146  14.247  19.173   7.360
 4585POPC   C1B58147  14.661  19.300   6.127
 4585POPC   C2B58148  14.771  19.416   6.527
 4585POPC   C3B58149  14.640  19.384   6.930
 4585POPC   C4B58150  14.682  19.029   7.177
 4586POPC   NC358151  20.898   5.061   5.478
 4586POPC   PO458152  20.279   5.223   5.384
 4586POPC   GL158153  20.477   5.098   5.767
 4586POPC   GL258154  20.619   5.413   5.811
 4586POPC   C1A58155  20.675   5.066   6.187
 4586POPC   D2A58156  20.498   5.249   6.565
 4586POPC   C3A58157  20.719   5.112   6.898
 4586POPC   C4A58158  20.571   5.168   7.276
 4586POPC   C1B58159  20.842   5.582   6.198
 4586POPC   C2B58160  20.958   5.509   6.642
 4586POPC   C3B58161  20.850   5.553   7.104
 4586POPC   C4B58162  20.849   5.487   7.576
 4587POPC   NC358163  18.654  14.209   5.652
 4587POPC   PO458164  19.212  14.410   5.339
 4587POPC   GL158165  19.104  14.518   5.772
 4587POPC   GL258166  18.814  14.706   5.727
 4587POPC   C1A58167  19.260  14.463   6.206
 4587POPC   D2A58168  19.033  14.360   6.599
 4587POPC   C3A58169  19.120  14.472   7.013
 4587POPC   C4A58170  19.218  14.429   7.454
 4587POPC   C1B58171  18.746  14.547   6.167
 4587POPC   C2B58172  18.643  14.666   6.536
 4587POPC   C3B58173  18.632  14.534   6.917
 4587POPC   C4B58174  18.754  14.660   7.338
 4588POPC   NC358175  11.712  33.199   5.502
 4588POPC   PO458176  12.287  32.797   5.395
 4588POPC   GL158177  12.184  32.994   5.773
 4588POPC   GL258178  12.492  33.220   5.811
 4588POPC   C1A58179  11.918  32.979   6.181
 4588POPC   D2A58180  11.760  32.662   6.517
 4588POPC   C3A58181  11.854  32.878   6.887
 4588POPC   C4A58182  11.948  33.058   7.280
 4588POPC   C1B58183  12.430  32.987   6.209
 4588POPC   C2B58184  12.230  33.045   6.600
 4588POPC   C3B58185  12.394  33.053   7.027
 4588POPC   C4B58186  12.400  33.128   7.513
 4589POPC   NC358187  31.933  16.582   5.451
 4589POPC   PO458188  31.230  16.481   5.373
 4589POPC   GL158189  31.491  16.694   5.675
 4589POPC   GL258190  31.272  16.839   5.856
 4589POPC   C1A58191  31.711  16.692   6.100
 4589POPC   D2A58192  31.731  16.424   6.484
 4589POPC   C3A58193  31.565  16.656   6.845
 4589POPC   C4A58194  31.435  16.741   7.246
 4589POPC   C1B58195  31.342  17.037   6.219
 4589POPC   C2B58196  31.090  17.095   6.555
 4589POPC   C3B58197  31.110  17.319   6.903
 4589POPC   C4B58198  31.098  17.112   7.292
 4590POPC   NC358199  36.550   3.165   5.474
 4590POPC   PO458200  36.096   2.670   5.190
 4590POPC   GL158201  36.008   2.619   5.674
 4590POPC   GL258202  36.105   2.913   5.830
 4590POPC   C1A58203  36.023   2.556   6.184
 4590POPC   D2A58204  35.934   2.654   6.635
 4590POPC   C3A58205  36.090   2.445   7.013
 4590POPC   C4A58206  35.957   2.612   7.436
 4590POPC   C1B58207  36.318   2.970   6.268
 4590POPC   C2B58208  36.416   2.787   6.710
 4590POPC   C3B58209  36.152   2.937   7.081
 4590POPC   C4B58210  36.202   3.045   7.530
 4591POPC   NC358211   3.110  34.611   5.316
 4591POPC   PO458212   2.566  34.229   5.170
 4591POPC   GL158213   2.710  34.341   5.596
 4591POPC   GL258214   2.690  34.706   5.704
 4591POPC   C1A58215   2.737  34.351   6.068
 4591POPC   D2A58216   2.466  34.550   6.421
 4591POPC   C3A58217   2.626  34.567   6.850
 4591POPC   C4A58218   2.848  34.407   7.213
 4591POPC   C1B58219   2.859  34.833   6.141
 4591POPC   C2B58220   3.053  34.626   6.499
 4591POPC   C3B58221   3.122  34.764   6.920
 4591POPC   C4B58222   2.925  34.993   7.244
 4592POPC   NC358223   6.125  18.278   5.373
 4592POPC   PO458224   5.493  18.422   5.442
 4592POPC   GL158225   5.779  18.264   5.771
 4592POPC   GL258226   6.097  18.409   5.874
 4592POPC   C1A58227   5.699  18.380   6.218
 4592POPC   D2A58228   5.906  18.131   6.467
 4592POPC   C3A58229   6.054  18.159   6.901
 4592POPC   C4A58230   5.863  18.277   7.271
 4592POPC   C1B58231   6.131  18.621   6.266
 4592POPC   C2B58232   5.944  18.614   6.665
 4592POPC   C3B58233   6.136  18.653   7.058
 4592POPC   C4B58234   5.971  18.744   7.461
 4593POPC   NC358235  23.469  29.605   5.302
 4593POPC   PO458236  23.652  30.310   5.358
 4593POPC   GL158237  23.558  29.966   5.687
 4593POPC   GL258238  23.857  29.792   5.893
 4593POPC   C1A58239  23.407  29.894   6.110
 4593POPC   D2A58240  23.254  29.813   6.524
 4593POPC   C3A58241  23.504  30.072   6.802
 4593POPC   C4A58242  23.651  30.035   7.207
 4593POPC   C1B58243  23.974  29.887   6.317
 4593POPC   C2B58244  24.006  29.919   6.805
 4593POPC   C3B58245  24.150  30.143   7.201
 4593POPC   C4B58246  23.936  30.329   7.582
 4594POPC   NC358247  39.000   2.862   5.622
 4594POPC   PO458248  38.461   2.747   5.181
 4594POPC   GL158249  38.446   2.775   5.672
 4594POPC   GL258250  38.672   2.618   5.904
 4594POPC   C1A58251  38.429   2.988   6.124
 4594POPC   D2A58252  38.635   3.240   6.470
 4594POPC   C3A58253  38.537   3.119   6.917
 4594POPC   C4A58254  38.478   2.887   7.295
 4594POPC   C1B58255  38.677   2.531   6.285
 4594POPC   C2B58256  38.725   2.748   6.614
 4594POPC   C3B58257  38.932   2.754   6.969
 4594POPC   C4B58258  38.872   2.566   7.321
 4595POPC   NC358259  39.303  13.914   5.400
 4595POPC   PO458260  39.285  13.358   5.350
 4595POPC   GL158261  39.030  13.546   5.715
 4595POPC   GL258262  39.084  13.915   5.853
 4595POPC   C1A58263  39.186  13.508   6.150
 4595POPC   D2A58264  39.078  13.606   6.547
 4595POPC   C3A58265  39.217  13.368   6.852
 4595POPC   C4A58266  39.065  13.265   7.238
 4595POPC   C1B58267  39.132  14.049   6.300
 4595POPC   C2B58268  39.241  14.021   6.787
 4595POPC   C3B58269  39.156  13.770   7.167
 4595POPC   C4B58270  38.934  13.809   7.536
 4596POPC   NC358271   3.473  33.472   5.548
 4596POPC   PO458272   3.204  32.879   5.401
 4596POPC   GL158273   3.456  33.017   5.770
 4596POPC   GL258274   3.194  33.102   5.983
 4596POPC   C1A58275   3.663  33.000   6.187
 4596POPC   D2A58276   3.785  33.121   6.630
 4596POPC   C3A58277   3.795  32.873   7.029
 4596POPC   C4A58278   3.747  32.947   7.490
 4596POPC   C1B58279   3.400  33.445   6.224
 4596POPC   C2B58280   3.406  33.504   6.684
 4596POPC   C3B58281   3.261  33.256   7.046
 4596POPC   C4B58282   3.344  33.239   7.491
 4597POPC   NC358283  13.761   9.353   5.531
 4597POPC   PO458284  13.454   9.991   5.439
 4597POPC   GL158285  13.615  10.017   5.825
 4597POPC   GL258286  13.802   9.725   5.884
 4597POPC   C1A58287  13.461   9.939   6.231
 4597POPC   D2A58288  13.458   9.675   6.577
 4597POPC   C3A58289  13.433   9.891   6.946
 4597POPC   C4A58290  13.839  10.027   7.120
 4597POPC   C1B58291  13.738   9.374   6.203
 4597POPC   C2B58292  13.906   9.308   6.618
 4597POPC   C3B58293  13.743   9.480   6.995
 4597POPC   C4B58294  13.494   9.553   7.360
 4598POPC   NC358295   4.747  13.540   5.594
 4598POPC   PO458296   5.375  13.833   5.350
 4598POPC   GL158297   5.237  13.605   5.715
 4598POPC   GL258298   5.444  13.346   5.745
 4598POPC   C1A58299   5.061  13.671   6.147
 4598POPC   D2A58300   5.133  13.841   6.543
 4598POPC   C3A58301   4.947  13.651   6.891
 4598POPC   C4A58302   5.024  13.845   7.259
 4598POPC   C1B58303   5.560  13.644   6.104
 4598POPC   C2B58304   5.623  13.646   6.528
 4598POPC   C3B58305   5.465  13.696   6.921
 4598POPC   C4B58306   5.389  13.513   7.321
 4599POPC   NC358307  36.460  25.978   5.175
 4599POPC   PO458308  36.060  26.439   5.431
 4599POPC   GL158309  36.119  26.102   5.752
 4599POPC   GL258310  35.884  25.782   5.725
 4599POPC   C1A58311  36.280  25.971   6.164
 4599POPC   D2A58312  36.127  26.086   6.588
 4599POPC   C3A58313  36.426  26.136   6.924
 4599POPC   C4A58314  36.465  26.500   7.180
 4599POPC   C1B58315  35.772  25.860   6.160
 4599POPC   C2B58316  35.823  25.684   6.595
 4599POPC   C3B58317  35.827  25.882   7.016
 4599POPC   C4B58318  35.714  25.954   7.470
 4600POPC   NC358319  35.301  21.215   5.360
 4600POPC   PO458320  34.989  21.091   5.888
 4600POPC   GL158321  35.450  21.277   5.924
 4600POPC   GL258322  35.544  21.633   5.840
 4600POPC   C1A58323  35.567  21.353   6.354
 4600POPC   D2A58324  35.235  21.254   6.640
 4600POPC   C3A58325  35.275  21.124   7.050
 4600POPC   C4A58326  35.068  21.472   7.260
 4600POPC   C1B58327  35.605  21.874   6.206
 4600POPC   C2B58328  35.444  21.840   6.625
 4600POPC   C3B58329  35.490  21.583   6.996
 4600POPC   C4B58330  35.580  21.365   7.391
 4601POPC   NC358331  42.893  29.417   5.427
 4601POPC   PO458332  43.318  28.913   5.355
 4601POPC   GL158333  43.227  29.143   5.714
 4601POPC   GL258334  42.969  28.884   5.788
 4601POPC   C1A58335  43.092  29.291   6.112
 4601POPC   D2A58336  43.165  29.536   6.474
 4601POPC   C3A58337  43.205  29.259   6.836
 4601POPC   C4A58338  42.925  29.160   7.183
 4601POPC   C1B58339  43.304  28.802   6.100
 4601POPC   C2B58340  43.240  28.737   6.540
 4601POPC   C3B58341  43.235  28.758   7.001
 4601POPC   C4B58342  43.087  28.767   7.432
 4602POPC   NC358343  16.139  36.180   5.518
 4602POPC   PO458344  15.688  35.648   5.402
 4602POPC   GL158345  15.734  35.917   5.788
 4602POPC   GL258346  15.670  36.305   5.759
 4602POPC   C1A58347  15.879  35.878   6.258
 4602POPC   D2A58348  15.812  35.935   6.736
 4602POPC   C3A58349  16.074  35.957   7.126
 4602POPC   C4A58350  16.020  35.878   7.597
 4602POPC   C1B58351  15.495  36.199   6.157
 4602POPC   C2B58352  15.411  36.216   6.580
 4602POPC   C3B58353  15.420  36.334   7.011
 4602POPC   C4B58354  15.670  36.186   7.373
 4603POPC   NC358355  11.322   5.317   5.461
 4603POPC   PO458356  10.943   4.736   5.392
 4603POPC   GL158357  10.952   4.993   5.776
 4603POPC   GL258358  11.301   4.955   5.837
 4603POPC   C1A58359  10.906   5.162   6.219
 4603POPC   D2A58360  11.218   5.198   6.536
 4603POPC   C3A58361  11.121   5.126   6.952
 4603POPC   C4A58362  10.927   5.275   7.301
 4603POPC   C1B58363  11.274   4.753   6.224
 4603POPC   C2B58364  11.545   4.780   6.561
 4603POPC   C3B58365  11.612   4.924   6.951
 4603POPC   C4B58366  11.416   4.948   7.344
 4604POPC   NC358367  18.842  39.393   5.536
 4604POPC   PO458368  19.334  39.152   5.115
 4604POPC   GL158369  19.133  39.009   5.633
 4604POPC   GL258370  19.383  39.014   5.849
 4604POPC   C1A58371  18.957  39.220   6.130
 4604POPC   D2A58372  19.074  39.282   6.630
 4604POPC   C3A58373  18.801  39.408   7.037
 4604POPC   C4A58374  18.818  39.374   7.546
 4604POPC   C1B58375  19.409  39.027   6.274
 4604POPC   C2B58376  19.327  38.810   6.633
 4604POPC   C3B58377  19.453  38.876   7.024
 4604POPC   C4B58378  19.252  39.237   7.189
 4605POPC   NC358379   8.637  10.180   5.397
 4605POPC   PO458380   8.306  10.788   5.461
 4605POPC   GL158381   8.354  10.713   5.873
 4605POPC   GL258382   8.249  10.390   5.833
 4605POPC   C1A58383   8.144  10.683   6.266
 4605POPC   D2A58384   8.186  10.370   6.552
 4605POPC   C3A58385   8.353  10.540   6.895
 4605POPC   C4A58386   8.236  10.757   7.212
 4605POPC   C1B58387   8.268  10.080   6.128
 4605POPC   C2B58388   8.266   9.871   6.518
 4605POPC   C3B58389   8.102  10.006   6.906
 4605POPC   C4B58390   8.122  10.253   7.267
 4606POPC   NC358391   8.984  14.016   5.369
 4606POPC   PO458392   8.837  13.391   5.439
 4606POPC   GL158393   8.985  13.660   5.781
 4606POPC   GL258394   8.724  13.544   5.972
 4606POPC   C1A58395   8.938  13.913   6.220
 4606POPC   D2A58396   9.158  14.113   6.593
 4606POPC   C3A58397   8.945  14.006   6.981
 4606POPC   C4A58398   9.018  13.756   7.342
 4606POPC   C1B58399   9.170  13.450   6.200
 4606POPC   C2B58400   9.180  13.579   6.634
 4606POPC   C3B58401   8.950  13.407   6.986
 4606POPC   C4B58402   8.577  13.543   7.222
 4607POPC   NC358403   1.080  12.461   5.140
 4607POPC   PO458404   1.013  11.884   5.567
 4607POPC   GL158405   1.233  12.179   5.806
 4607POPC   GL258406   1.577  12.080   5.698
 4607POPC   C1A58407   1.090  12.172   6.238
 4607POPC   D2A58408   0.948  11.898   6.556
 4607POPC   C3A58409   1.007  12.128   6.925
 4607POPC   C4A58410   1.109  11.973   7.294
 4607POPC   C1B58411   1.534  11.955   6.157
 4607POPC   C2B58412   1.445  12.115   6.601
 4607POPC   C3B58413   1.509  12.196   7.021
 4607POPC   C4B58414   1.504  12.260   7.455
 4608POPC   NC358415  13.696   4.433   5.464
 4608POPC   PO458416  13.313   3.866   5.303
 4608POPC   GL158417  13.479   3.971   5.769
 4608POPC   GL258418  13.455   4.351   5.902
 4608POPC   C1A58419  13.514   4.010   6.262
 4608POPC   D2A58420  13.450   4.308   6.581
 4608POPC   C3A58421  13.338   4.261   7.011
 4608POPC   C4A58422  13.577   4.002   7.313
 4608POPC   C1B58423  13.846   4.418   6.168
 4608POPC   C2B58424  13.973   4.330   6.597
 4608POPC   C3B58425  13.873   4.316   7.033
 4608POPC   C4B58426  13.808   4.414   7.485
 4609POPC   NC358427  20.110  13.768   5.633
 4609POPC   PO458428  19.519  13.439   5.420
 4609POPC   GL158429  19.816  13.355   5.786
 4609POPC   GL258430  20.129  13.194   5.664
 4609POPC   C1A58431  19.890  13.530   6.239
 4609POPC   D2A58432  19.630  13.701   6.589
 4609POPC   C3A58433  19.793  13.882   6.967
 4609POPC   C4A58434  19.593  13.644   7.292
 4609POPC   C1B58435  20.139  13.101   6.102
 4609POPC   C2B58436  20.189  13.178   6.551
 4609POPC   C3B58437  19.976  13.421   6.866
 4609POPC   C4B58438  20.124  13.610   7.250
 4610POPC   NC358439  35.602  31.052   5.275
 4610POPC   PO458440  35.061  30.769   5.490
 4610POPC   GL158441  35.208  30.610   5.915
 4610POPC   GL258442  35.507  30.429   5.882
 4610POPC   C1A58443  35.010  30.606   6.322
 4610POPC   D2A58444  35.151  30.769   6.702
 4610POPC   C3A58445  34.962  30.544   7.024
 4610POPC   C4A58446  35.044  30.555   7.465
 4610POPC   C1B58447  35.533  30.651   6.316
 4610POPC   C2B58448  35.661  30.712   6.750
 4610POPC   C3B58449  35.866  30.617   7.156
 4610POPC   C4B58450  35.847  30.878   7.520
 4611POPC   NC358451  12.734   7.989   5.429
 4611POPC   PO458452  12.938   8.614   5.722
 4611POPC   GL158453  12.791   8.213   5.923
 4611POPC   GL258454  12.960   7.881   5.872
 4611POPC   C1A58455  12.781   8.133   6.377
 4611POPC   D2A58456  12.641   8.167   6.817
 4611POPC   C3A58457  12.856   8.409   7.152
 4611POPC   C4A58458  12.691   8.523   7.569
 4611POPC   C1B58459  12.700   7.666   6.193
 4611POPC   C2B58460  12.797   7.687   6.649
 4611POPC   C3B58461  12.608   7.722   7.060
 4611POPC   C4B58462  12.824   7.958   7.384
 4612POPC   NC358463  43.119  11.828   5.475
 4612POPC   PO458464  43.226  11.269   5.298
 4612POPC   GL158465  43.209  11.353   5.718
 4612POPC   GL258466  42.872  11.461   5.766
 4612POPC   C1A58467  43.187  11.375   6.169
 4612POPC   D2A58468  43.322  11.567   6.533
 4612POPC   C3A58469  43.226  11.307   6.892
 4612POPC   C4A58470  43.284  11.470   7.278
 4612POPC   C1B58471  42.668  11.452   6.159
 4612POPC   C2B58472  42.790  11.325   6.551
 4612POPC   C3B58473  42.658  11.448   6.937
 4612POPC   C4B58474  42.789  11.298   7.317
 4613POPC   NC358475  30.578  13.622   4.856
 4613POPC   PO458476  30.889  13.620   5.422
 4613POPC   GL158477  30.775  13.533   5.838
 4613POPC   GL258478  30.444  13.464   5.890
 4613POPC   C1A58479  30.690  13.827   6.201
 4613POPC   D2A58480  30.583  13.886   6.636
 4613POPC   C3A58481  30.909  13.834   6.942
 4613POPC   C4A58482  30.714  13.823   7.316
 4613POPC   C1B58483  30.654  13.335   6.303
 4613POPC   C2B58484  30.623  13.385   6.756
 4613POPC   C3B58485  30.510  13.377   7.186
 4613POPC   C4B58486  30.617  13.446   7.644
 4614POPC   NC358487  22.841  33.458   5.555
 4614POPC   PO458488  23.020  32.833   5.351
 4614POPC   GL158489  22.948  32.876   5.778
 4614POPC   GL258490  23.252  32.710   5.817
 4614POPC   C1A58491  23.066  33.132   6.145
 4614POPC   D2A58492  23.067  33.396   6.521
 4614POPC   C3A58493  23.214  33.221   6.905
 4614POPC   C4A58494  22.920  33.271   7.282
 4614POPC   C1B58495  23.085  32.620   6.218
 4614POPC   C2B58496  23.025  32.854   6.586
 4614POPC   C3B58497  22.818  32.904   6.941
 4614POPC   C4B58498  22.626  32.685   7.199
 4615POPC   NC358499  32.017  41.300   5.552
 4615POPC   PO458500  32.467  41.739   5.337
 4615POPC   GL158501  32.362  41.656   5.730
 4615POPC   GL258502  32.091  41.856   5.818
 4615POPC   C1A58503  32.608  41.444   6.007
 4615POPC   D2A58504  32.667  41.363   6.442
 4615POPC   C3A58505  32.506  41.609   6.817
 4615POPC   C4A58506  32.633  41.471   7.257
 4615POPC   C1B58507  32.303  41.798   6.223
 4615POPC   C2B58508  32.143  41.992   6.565
 4615POPC   C3B58509  32.034  41.949   6.963
 4615POPC   C4B58510  32.082  41.608   7.223
 4616POPC   NC358511  37.934   9.279   5.176
 4616POPC   PO458512  37.681   8.695   5.456
 4616POPC   GL158513  37.665   9.036   5.727
 4616POPC   GL258514  37.935   9.268   5.709
 4616POPC   C1A58515  37.534   8.997   6.149
 4616POPC   D2A58516  37.541   9.166   6.556
 4616POPC   C3A58517  37.475   8.907   6.917
 4616POPC   C4A58518  37.583   8.955   7.346
 4616POPC   C1B58519  38.034   9.088   6.134
 4616POPC   C2B58520  38.157   9.024   6.578
 4616POPC   C3B58521  37.957   9.104   6.967
 4616POPC   C4B58522  37.920   9.317   7.388
 4617POPC   NC358523  22.814   7.774   5.393
 4617POPC   PO458524  23.019   7.196   5.476
 4617POPC   GL158525  23.097   7.355   5.873
 4617POPC   GL258526  23.124   7.718   5.821
 4617POPC   C1A58527  23.183   7.373   6.314
 4617POPC   D2A58528  23.261   7.079   6.645
 4617POPC   C3A58529  23.004   7.223   6.966
 4617POPC   C4A58530  22.912   7.386   7.388
 4617POPC   C1B58531  22.762   7.673   6.123
 4617POPC   C2B58532  22.563   7.592   6.527
 4617POPC   C3B58533  22.732   7.649   6.966
 4617POPC   C4B58534  22.773   7.876   7.377
 4618POPC   NC358535   0.092  37.451   5.674
 4618POPC   PO458536   0.652  37.299   5.355
 4618POPC   GL158537   0.645  37.566   5.722
 4618POPC   GL258538   0.578  37.916   5.710
 4618POPC   C1A58539   0.757  37.678   6.160
 4618POPC   D2A58540   0.373  37.551   6.391
 4618POPC   C3A58541   0.440  37.543   6.816
 4618POPC   C4A58542   0.776  37.590   7.102
 4618POPC   C1B58543   0.360  37.985   6.084
 4618POPC   C2B58544   0.534  38.041   6.481
 4618POPC   C3B58545   0.753  38.039   6.855
 4618POPC   C4B58546   0.590  38.098   7.276
 4619POPC   NC358547  32.256  13.228   5.346
 4619POPC   PO458548  32.658  13.786   5.402
 4619POPC   GL158549  32.437  13.650   5.801
 4619POPC   GL258550  32.063  13.754   5.877
 4619POPC   C1A58551  32.415  13.675   6.258
 4619POPC   D2A58552  32.270  13.821   6.662
 4619POPC   C3A58553  32.143  13.481   6.906
 4619POPC   C4A58554  32.307  13.292   7.262
 4619POPC   C1B58555  32.063  14.086   6.202
 4619POPC   C2B58556  31.930  14.224   6.610
 4619POPC   C3B58557  31.829  13.950   6.939
 4619POPC   C4B58558  31.980  13.715   7.325
 4620POPC   NC358559  25.431  20.178   5.512
 4620POPC   PO458560  25.694  19.635   5.469
 4620POPC   GL158561  25.556  19.771   5.891
 4620POPC   GL258562  25.284  20.000   5.952
 4620POPC   C1A58563  25.569  19.803   6.346
 4620POPC   D2A58564  25.374  20.113   6.573
 4620POPC   C3A58565  25.469  20.064   6.988
 4620POPC   C4A58566  25.150  20.074   7.247
 4620POPC   C1B58567  25.041  19.806   6.273
 4620POPC   C2B58568  24.869  19.906   6.682
 4620POPC   C3B58569  24.869  19.699   7.059
 4620POPC   C4B58570  24.826  19.360   7.332
 4621POPC   NC358571  27.363  21.371   5.375
 4621POPC   PO458572  27.844  20.906   5.496
 4621POPC   GL158573  27.502  21.157   5.798
 4621POPC   GL258574  27.412  21.536   5.842
 4621POPC   C1A58575  27.596  21.115   6.230
 4621POPC   D2A58576  27.793  21.233   6.579
 4621POPC   C3A58577  27.544  21.194   6.949
 4621POPC   C4A58578  27.618  21.171   7.366
 4621POPC   C1B58579  27.581  21.622   6.240
 4621POPC   C2B58580  27.447  21.622   6.660
 4621POPC   C3B58581  27.394  21.720   7.095
 4621POPC   C4B58582  27.406  21.642   7.507
 4622POPC   NC358583  25.351  13.339   5.467
 4622POPC   PO458584  25.323  14.035   5.419
 4622POPC   GL158585  25.124  13.768   5.716
 4622POPC   GL258586  25.406  13.722   5.864
 4622POPC   C1A58587  25.016  13.836   6.173
 4622POPC   D2A58588  25.092  13.611   6.556
 4622POPC   C3A58589  25.017  13.753   6.977
 4622POPC   C4A58590  25.254  13.819   7.339
 4622POPC   C1B58591  25.498  13.439   6.162
 4622POPC   C2B58592  25.488  13.308   6.571
 4622POPC   C3B58593  25.463  13.516   6.946
 4622POPC   C4B58594  25.678  13.555   7.327
 4623POPC   NC358595  34.189  26.911   5.252
 4623POPC   PO458596  33.564  26.553   5.310
 4623POPC   GL158597  33.524  26.596   5.777
 4623POPC   GL258598  33.868  26.643   5.897
 4623POPC   C1A58599  33.425  26.493   6.237
 4623POPC   D2A58600  33.555  26.420   6.709
 4623POPC   C3A58601  33.516  26.760   7.058
 4623POPC   C4A58602  33.680  27.160   7.062
 4623POPC   C1B58603  33.725  26.907   6.253
 4623POPC   C2B58604  33.853  26.864   6.691
 4623POPC   C3B58605  34.054  26.727   7.076
 4623POPC   C4B58606  34.190  26.405   7.352
 4624POPC   NC358607  29.876   5.930   5.327
 4624POPC   PO458608  30.365   5.652   5.602
 4624POPC   GL158609  30.013   5.850   5.804
 4624POPC   GL258610  29.671   5.728   5.754
 4624POPC   C1A58611  29.817   6.106   6.093
 4624POPC   D2A58612  29.948   6.268   6.473
 4624POPC   C3A58613  29.881   6.021   6.853
 4624POPC   C4A58614  30.163   6.127   7.203
 4624POPC   C1B58615  29.544   5.690   6.186
 4624POPC   C2B58616  29.420   5.813   6.609
 4624POPC   C3B58617  29.475   5.731   7.057
 4624POPC   C4B58618  29.705   5.981   7.348
 4625POPC   NC358619  40.887  19.630   5.448
 4625POPC   PO458620  40.425  20.020   5.328
 4625POPC   GL158621  40.605  19.913   5.760
 4625POPC   GL258622  40.971  20.033   5.759
 4625POPC   C1A58623  40.768  19.745   6.171
 4625POPC   D2A58624  40.699  19.904   6.587
 4625POPC   C3A58625  40.666  19.672   6.985
 4625POPC   C4A58626  40.657  19.966   7.295
 4625POPC   C1B58627  41.224  20.021   6.142
 4625POPC   C2B58628  41.156  20.180   6.563
 4625POPC   C3B58629  41.057  20.024   6.952
 4625POPC   C4B58630  41.204  19.827   7.293
 4626POPC   NC358631  43.477  25.051   5.477
 4626POPC   PO458632  44.167  25.280   5.447
 4626POPC   GL158633  43.950  25.355   5.843
 4626POPC   GL258634  43.583  25.348   5.872
 4626POPC   C1A58635  43.981  25.290   6.292
 4626POPC   D2A58636  43.866  25.256   6.722
 4626POPC   C3A58637  44.115  25.454   7.066
 4626POPC   C4A58638  44.298  25.252   7.446
 4626POPC   C1B58639  43.612  24.985   6.131
 4626POPC   C2B58640  43.420  24.970   6.517
 4626POPC   C3B58641  43.550  24.937   6.916
 4626POPC   C4B58642  43.672  25.224   7.214
 4627POPC   NC358643  40.468  35.183   5.600
 4627POPC   PO458644  39.899  35.418   5.288
 4627POPC   GL158645  40.125  35.523   5.697
 4627POPC   GL258646  39.858  35.456   5.853
 4627POPC   C1A58647  40.288  35.393   6.177
 4627POPC   D2A58648  40.218  34.994   6.418
 4627POPC   C3A58649  40.203  35.010   6.874
 4627POPC   C4A58650  40.034  35.295   7.174
 4627POPC   C1B58651  39.796  35.237   6.238
 4627POPC   C2B58652  39.750  35.083   6.668
 4627POPC   C3B58653  39.591  35.079   7.082
 4627POPC   C4B58654  39.577  35.251   7.519
 4628POPC   NC358655  43.434  12.466   5.495
 4628POPC   PO458656  43.460  13.149   5.405
 4628POPC   GL158657  43.211  13.007   5.821
 4628POPC   GL258658  43.085  12.649   5.842
 4628POPC   C1A58659  43.281  12.854   6.275
 4628POPC   D2A58660  43.078  13.055   6.637
 4628POPC   C3A58661  43.229  13.006   7.062
 4628POPC   C4A58662  43.382  12.691   7.313
 4628POPC   C1B58663  42.959  12.404   6.222
 4628POPC   C2B58664  43.015  12.525   6.655
 4628POPC   C3B58665  42.932  12.584   7.090
 4628POPC   C4B58666  42.752  12.458   7.459
 4629POPC   NC358667  42.446   3.023   5.574
 4629POPC   PO458668  42.306   2.387   5.322
 4629POPC   GL158669  42.176   2.602   5.751
 4629POPC   GL258670  42.017   2.965   5.835
 4629POPC   C1A58671  42.307   2.657   6.195
 4629POPC   D2A58672  42.104   2.637   6.617
 4629POPC   C3A58673  42.415   2.590   6.979
 4629POPC   C4A58674  42.305   2.491   7.440
 4629POPC   C1B58675  42.082   3.086   6.324
 4629POPC   C2B58676  42.338   3.079   6.755
 4629POPC   C3B58677  42.367   3.014   7.244
 4629POPC   C4B58678  42.545   2.979   7.674
 4630POPC   NC358679   8.617  22.404   5.372
 4630POPC   PO458680   9.298  22.427   5.457
 4630POPC   GL158681   9.134  22.109   5.742
 4630POPC   GL258682   8.787  22.007   5.764
 4630POPC   C1A58683   9.188  22.140   6.163
 4630POPC   D2A58684   9.033  22.204   6.532
 4630POPC   C3A58685   9.262  22.270   6.890
 4630POPC   C4A58686   9.188  22.111   7.288
 4630POPC   C1B58687   8.645  22.063   6.199
 4630POPC   C2B58688   8.561  22.331   6.569
 4630POPC   C3B58689   8.751  22.303   6.981
 4630POPC   C4B58690   8.677  21.972   7.225
 4631POPC   NC358691  41.967  12.334   5.048
 4631POPC   PO458692  41.421  12.233   5.415
 4631POPC   GL158693  41.582  12.097   5.836
 4631POPC   GL258694  41.859  11.827   5.855
 4631POPC   C1A58695  41.516  12.215   6.283
 4631POPC   D2A58696  41.301  11.962   6.610
 4631POPC   C3A58697  41.353  12.101   7.032
 4631POPC   C4A58698  41.219  12.038   7.449
 4631POPC   C1B58699  41.996  12.030   6.260
 4631POPC   C2B58700  41.830  12.074   6.675
 4631POPC   C3B58701  41.840  11.946   7.091
 4631POPC   C4B58702  41.892  12.191   7.439
 4632POPC   NC358703  27.910  21.065   5.078
 4632POPC   PO458704  28.290  20.576   5.383
 4632POPC   GL158705  28.286  20.570   5.835
 4632POPC   GL258706  28.601  20.762   5.864
 4632POPC   C1A58707  28.442  20.540   6.284
 4632POPC   D2A58708  28.648  20.380   6.676
 4632POPC   C3A58709  28.333  20.512   6.945
 4632POPC   C4A58710  28.220  20.577   7.333
 4632POPC   C1B58711  28.644  21.017   6.246
 4632POPC   C2B58712  28.632  20.881   6.674
 4632POPC   C3B58713  28.526  21.015   7.082
 4632POPC   C4B58714  28.568  20.905   7.535
 4633POPC   NC358715   9.423  35.451   5.492
 4633POPC   PO458716   8.773  35.170   5.271
 4633POPC   GL158717   8.928  35.350   5.656
 4633POPC   GL258718   8.677  35.206   5.877
 4633POPC   C1A58719   9.113  35.431   6.072
 4633POPC   D2A58720   8.900  35.410   6.466
 4633POPC   C3A58721   9.039  35.400   6.882
 4633POPC   C4A58722   8.968  35.539   7.261
 4633POPC   C1B58723   8.544  35.055   6.285
 4633POPC   C2B58724   8.734  34.982   6.691
 4633POPC   C3B58725   8.734  35.076   7.134
 4633POPC   C4B58726   8.625  34.951   7.557
 4634POPC   NC358727  26.683   2.150   5.484
 4634POPC   PO458728  26.906   1.568   5.264
 4634POPC   GL158729  26.876   1.748   5.729
 4634POPC   GL258730  26.582   1.860   5.883
 4634POPC   C1A58731  26.914   1.768   6.237
 4634POPC   D2A58732  26.944   2.063   6.570
 4634POPC   C3A58733  27.082   1.957   6.974
 4634POPC   C4A58734  26.859   2.076   7.331
 4634POPC   C1B58735  26.554   2.152   6.200
 4634POPC   C2B58736  26.394   2.059   6.575
 4634POPC   C3B58737  26.575   2.180   6.938
 4634POPC   C4B58738  26.566   2.525   7.213
 4635POPC   NC358739  17.010  28.585   5.478
 4635POPC   PO458740  16.384  28.323   5.334
 4635POPC   GL158741  16.643  28.299   5.708
 4635POPC   GL258742  16.594  28.051   5.912
 4635POPC   C1A58743  16.754  28.529   6.112
 4635POPC   D2A58744  16.979  28.524   6.506
 4635POPC   C3A58745  16.852  28.196   6.808
 4635POPC   C4A58746  16.803  28.373   7.219
 4635POPC   C1B58747  16.477  28.127   6.329
 4635POPC   C2B58748  16.184  28.046   6.649
 4635POPC   C3B58749  16.289  27.985   7.059
 4635POPC   C4B58750  16.447  28.100   7.468
 4636POPC   NC358751  39.981  16.432   5.303
 4636POPC   PO458752  39.638  16.974   5.531
 4636POPC   GL158753  39.824  16.644   5.812
 4636POPC   GL258754  40.203  16.593   5.797
 4636POPC   C1A58755  39.737  16.710   6.249
 4636POPC   D2A58756  39.645  17.035   6.559
 4636POPC   C3A58757  39.668  16.830   6.968
 4636POPC   C4A58758  39.931  16.455   7.111
 4636POPC   C1B58759  40.241  16.770   6.233
 4636POPC   C2B58760  40.060  16.746   6.656
 4636POPC   C3B58761  40.169  16.928   7.058
 4636POPC   C4B58762  40.292  16.781   7.441
 4637POPC   NC358763  22.843  29.293   5.420
 4637POPC   PO458764  23.093  28.723   5.662
 4637POPC   GL158765  22.787  28.897   5.923
 4637POPC   GL258766  22.819  29.241   5.919
 4637POPC   C1A58767  22.746  28.980   6.381
 4637POPC   D2A58768  22.462  29.084   6.742
 4637POPC   C3A58769  22.682  29.121   7.137
 4637POPC   C4A58770  23.133  29.122   7.204
 4637POPC   C1B58771  23.146  29.359   6.184
 4637POPC   C2B58772  23.222  29.264   6.590
 4637POPC   C3B58773  22.953  29.470   6.852
 4637POPC   C4B58774  22.909  29.578   7.279
 4638POPC   NC358775  33.346  40.690   5.656
 4638POPC   PO458776  32.850  41.040   5.341
 4638POPC   GL158777  32.874  40.834   5.737
 4638POPC   GL258778  32.681  40.551   5.705
 4638POPC   C1A58779  32.988  40.937   6.168
 4638POPC   D2A58780  32.849  40.896   6.568
 4638POPC   C3A58781  33.110  40.882   6.906
 4638POPC   C4A58782  32.796  40.998   7.232
 4638POPC   C1B58783  32.850  40.437   6.111
 4638POPC   C2B58784  32.933  40.380   6.562
 4638POPC   C3B58785  32.758  40.536   6.968
 4638POPC   C4B58786  32.922  40.538   7.370
 4639POPC   NC358787  37.420   3.646   5.365
 4639POPC   PO458788  37.779   2.973   5.378
 4639POPC   GL158789  37.538   3.248   5.694
 4639POPC   GL258790  37.639   3.630   5.831
 4639POPC   C1A58791  37.518   3.251   6.150
 4639POPC   D2A58792  37.727   3.419   6.531
 4639POPC   C3A58793  37.696   3.256   6.969
 4639POPC   C4A58794  37.575   3.396   7.415
 4639POPC   C1B58795  37.906   3.903   6.152
 4639POPC   C2B58796  38.090   3.999   6.554
 4639POPC   C3B58797  37.867   3.780   6.876
 4639POPC   C4B58798  37.663   3.894   7.227
 4640POPC   NC358799  15.865  44.356   5.435
 4640POPC   PO458800  16.016   0.007   5.330
 4640POPC   GL158801  16.086  44.760   5.733
 4640POPC   GL258802  15.755  44.639   5.842
 4640POPC   C1A58803  16.147  44.598   6.180
 4640POPC   D2A58804  16.301  44.453   6.581
 4640POPC   C3A58805  16.045  44.475   6.940
 4640POPC   C4A58806  16.085  44.641   7.326
 4640POPC   C1B58807  15.745  44.926   6.153
 4640POPC   C2B58808  15.635  44.876   6.568
 4640POPC   C3B58809  15.816  44.936   6.967
 4640POPC   C4B58810  15.707  44.967   7.376
 4641POPC   NC358811  10.316  43.774   5.519
 4641POPC   PO458812  10.087  44.463   5.499
 4641POPC   GL158813  10.293  44.184   5.915
 4641POPC   GL258814  10.535  43.809   5.958
 4641POPC   C1A58815  10.673  44.189   6.232
 4641POPC   D2A58816  10.544  43.994   6.573
 4641POPC   C3A58817  10.340  44.139   6.937
 4641POPC   C4A58818  10.533  44.122   7.327
 4641POPC   C1B58819  10.911  43.731   6.245
 4641POPC   C2B58820  11.014  43.851   6.661
 4641POPC   C3B58821  10.725  43.751   7.006
 4641POPC   C4B58822  10.734  43.463   7.332
 4642POPC   NC358823   8.241  13.271   5.326
 4642POPC   PO458824   8.007  13.872   5.217
 4642POPC   GL158825   8.188  13.694   5.649
 4642POPC   GL258826   8.158  14.033   5.716
 4642POPC   C1A58827   8.249  13.380   6.072
 4642POPC   D2A58828   8.081  13.158   6.449
 4642POPC   C3A58829   8.048  13.318   6.886
 4642POPC   C4A58830   8.054  13.664   7.157
 4642POPC   C1B58831   8.341  13.874   6.134
 4642POPC   C2B58832   8.236  13.683   6.528
 4642POPC   C3B58833   8.446  13.861   6.847
 4642POPC   C4B58834   8.411  14.024   7.240
 4643POPC   NC358835   9.854   1.271   5.358
 4643POPC   PO458836   9.556   0.663   5.191
 4643POPC   GL158837   9.650   0.922   5.668
 4643POPC   GL258838   9.685   1.327   5.812
 4643POPC   C1A58839   9.837   0.984   6.126
 4643POPC   D2A58840   9.829   1.278   6.533
 4643POPC   C3A58841   9.675   1.154   6.955
 4643POPC   C4A58842  10.013   1.083   7.260
 4643POPC   C1B58843   9.894   1.586   6.131
 4643POPC   C2B58844  10.057   1.726   6.585
 4643POPC   C3B58845   9.979   1.553   7.052
 4643POPC   C4B58846  10.149   1.515   7.515
 4644POPC   NC358847  21.329  22.465   5.429
 4644POPC   PO458848  21.047  21.876   5.289
 4644POPC   GL158849  21.269  21.974   5.757
 4644POPC   GL258850  21.402  22.297   5.897
 4644POPC   C1A58851  21.522  21.886   6.168
 4644POPC   D2A58852  21.513  21.725   6.604
 4644POPC   C3A58853  21.587  22.003   6.931
 4644POPC   C4A58854  21.312  21.950   7.229
 4644POPC   C1B58855  21.604  22.571   6.217
 4644POPC   C2B58856  21.745  22.654   6.639
 4644POPC   C3B58857  21.587  22.538   7.036
 4644POPC   C4B58858  21.487  22.386   7.416
 4645POPC   NC358859  31.563  22.502   5.261
 4645POPC   PO458860  31.325  21.880   5.388
 4645POPC   GL158861  31.451  22.070   5.778
 4645POPC   GL258862  31.341  22.422   5.723
 4645POPC   C1A58863  31.359  22.057   6.226
 4645POPC   D2A58864  31.166  21.907   6.629
 4645POPC   C3A58865  31.222  22.145   7.030
 4645POPC   C4A58866  31.564  22.216   7.335
 4645POPC   C1B58867  31.627  22.491   6.062
 4645POPC   C2B58868  31.665  22.363   6.494
 4645POPC   C3B58869  31.592  22.537   6.898
 4645POPC   C4B58870  31.811  22.672   7.258
 4646POPC   NC358871  33.898  15.954   5.148
 4646POPC   PO458872  33.278  16.099   5.433
 4646POPC   GL158873  33.545  15.873   5.725
 4646POPC   GL258874  33.915  15.890   5.743
 4646POPC   C1A58875  33.578  15.900   6.166
 4646POPC   D2A58876  33.681  16.146   6.522
 4646POPC   C3A58877  33.489  15.962   6.850
 4646POPC   C4A58878  33.563  15.924   7.284
 4646POPC   C1B58879  34.045  16.143   6.132
 4646POPC   C2B58880  34.186  16.110   6.580
 4646POPC   C3B58881  33.967  16.083   6.996
 4646POPC   C4B58882  34.077  15.857   7.390
 4647POPC   NC358883  11.926  25.724   5.363
 4647POPC   PO458884  12.371  25.197   5.525
 4647POPC   GL158885  12.319  25.556   5.776
 4647POPC   GL258886  11.984  25.439   5.803
 4647POPC   C1A58887  12.282  25.463   6.233
 4647POPC   D2A58888  12.213  25.129   6.533
 4647POPC   C3A58889  12.118  25.250   6.965
 4647POPC   C4A58890  12.011  24.978   7.283
 4647POPC   C1B58891  11.789  25.260   6.197
 4647POPC   C2B58892  11.706  25.247   6.644
 4647POPC   C3B58893  11.581  25.118   7.052
 4647POPC   C4B58894  11.736  25.409   7.334
 4648POPC   NC358895  30.216   7.519   5.474
 4648POPC   PO458896  29.712   7.130   5.633
 4648POPC   GL158897  29.916   7.429   5.893
 4648POPC   GL258898  30.265   7.253   5.909
 4648POPC   C1A58899  29.743   7.593   6.306
 4648POPC   D2A58900  29.654   7.793   6.726
 4648POPC   C3A58901  29.652   7.469   7.050
 4648POPC   C4A58902  29.877   7.378   7.452
 4648POPC   C1B58903  30.111   7.223   6.327
 4648POPC   C2B58904  30.057   7.446   6.717
 4648POPC   C3B58905  30.246   7.346   7.098
 4648POPC   C4B58906  30.257   7.027   7.431
 4649POPC   NC358907  27.561  31.913   5.585
 4649POPC   PO458908  27.753  31.217   5.442
 4649POPC   GL158909  27.477  31.394   5.792
 4649POPC   GL258910  27.756  31.471   5.982
 4649POPC   C1A58911  27.310  31.543   6.237
 4649POPC   D2A58912  27.303  31.542   6.721
 4649POPC   C3A58913  27.307  31.300   7.121
 4649POPC   C4A58914  27.278  31.478   7.578
 4649POPC   C1B58915  28.058  31.555   6.307
 4649POPC   C2B58916  28.123  31.503   6.709
 4649POPC   C3B58917  27.769  31.392   6.935
 4649POPC   C4B58918  27.623  31.666   7.264
 4650POPC   NC358919  30.447   5.516   5.142
 4650POPC   PO458920  30.959   5.885   5.419
 4650POPC   GL158921  30.862   5.939   5.840
 4650POPC   GL258922  30.544   6.115   5.806
 4650POPC   C1A58923  30.821   5.981   6.277
 4650POPC   D2A58924  30.568   5.947   6.640
 4650POPC   C3A58925  30.743   6.036   7.028
 4650POPC   C4A58926  30.920   5.902   7.382
 4650POPC   C1B58927  30.316   6.003   6.183
 4650POPC   C2B58928  30.112   5.718   6.467
 4650POPC   C3B58929  30.244   5.656   6.895
 4650POPC   C4B58930  30.435   5.706   7.285
 4651POPC   NC358931  16.885  35.514   5.535
 4651POPC   PO458932  16.931  34.832   5.586
 4651POPC   GL158933  16.820  35.124   5.888
 4651POPC   GL258934  17.095  35.350   5.967
 4651POPC   C1A58935  16.628  35.243   6.270
 4651POPC   D2A58936  16.510  35.221   6.685
 4651POPC   C3A58937  16.788  35.175   6.994
 4651POPC   C4A58938  16.515  35.052   7.345
 4651POPC   C1B58939  16.881  35.690   6.186
 4651POPC   C2B58940  16.776  35.650   6.605
 4651POPC   C3B58941  16.600  35.693   7.008
 4651POPC   C4B58942  16.748  35.496   7.383
 4652POPC   NC358943  13.242  41.752   5.674
 4652POPC   PO458944  12.714  41.608   5.220
 4652POPC   GL158945  12.854  41.406   5.683
 4652POPC   GL258946  12.785  41.672   5.857
 4652POPC   C1A58947  13.085  41.409   6.170
 4652POPC   D2A58948  13.089  41.639   6.579
 4652POPC   C3A58949  13.032  41.466   6.975
 4652POPC   C4A58950  13.049  41.777   7.270
 4652POPC   C1B58951  12.797  41.849   6.220
 4652POPC   C2B58952  12.564  41.682   6.549
 4652POPC   C3B58953  12.531  41.515   6.938
 4652POPC   C4B58954  12.680  41.369   7.332
 4653POPC   NC358955  22.749  11.229   5.522
 4653POPC   PO458956  23.343  11.604   5.598
 4653POPC   GL158957  23.014  11.513   5.883
 4653POPC   GL258958  23.035  11.176   5.951
 4653POPC   C1A58959  22.929  11.528   6.325
 4653POPC   D2A58960  23.088  11.786   6.651
 4653POPC   C3A58961  23.014  11.597   7.071
 4653POPC   C4A58962  22.651  11.501   7.270
 4653POPC   C1B58963  22.844  10.958   6.265
 4653POPC   C2B58964  22.858  11.021   6.690
 4653POPC   C3B58965  22.932  11.087   7.108
 4653POPC   C4B58966  22.590  10.985   7.351
 4654POPC   NC358967  26.835  20.893   5.266
 4654POPC   PO458968  26.949  21.603   5.346
 4654POPC   GL158969  26.840  21.484   5.749
 4654POPC   GL258970  26.982  21.145   5.725
 4654POPC   C1A58971  26.662  21.503   6.155
 4654POPC   D2A58972  26.718  21.457   6.584
 4654POPC   C3A58973  26.622  21.631   7.001
 4654POPC   C4A58974  26.886  21.679   7.386
 4654POPC   C1B58975  27.118  21.262   6.145
 4654POPC   C2B58976  27.173  21.175   6.572
 4654POPC   C3B58977  27.062  21.368   6.961
 4654POPC   C4B58978  27.119  21.242   7.390
 4655POPC   NC358979  41.876  19.780   5.440
 4655POPC   PO458980  42.575  19.776   5.421
 4655POPC   GL158981  42.328  19.757   5.791
 4655POPC   GL258982  42.602  19.558   5.870
 4655POPC   C1A58983  42.104  19.710   6.202
 4655POPC   D2A58984  42.139  19.938   6.615
 4655POPC   C3A58985  42.160  19.768   7.031
 4655POPC   C4A58986  42.261  19.906   7.434
 4655POPC   C1B58987  42.767  19.884   6.073
 4655POPC   C2B58988  42.579  19.750   6.418
 4655POPC   C3B58989  42.638  19.759   6.836
 4655POPC   C4B58990  42.721  19.754   7.252
 4656POPC   NC358991  16.088  10.607   5.385
 4656POPC   PO458992  15.513  10.065   5.418
 4656POPC   GL158993  15.803  10.153   5.781
 4656POPC   GL258994  15.814  10.508   5.818
 4656POPC   C1A58995  16.018  10.226   6.236
 4656POPC   D2A58996  16.394  10.155   6.514
 4656POPC   C3A58997  16.302  10.169   6.961
 4656POPC   C4A58998  15.987  10.359   7.184
 4656POPC   C1B58999  15.979  10.729   6.169
 4656POPC   C2B59000  16.263  10.692   6.521
 4656POPC   C3B59001  16.165  10.757   6.941
 4656POPC   C4B59002  15.989  10.837   7.374
 4657POPC   NC359003   8.762  25.082   5.421
 4657POPC   PO459004   9.185  25.626   5.338
 4657POPC   GL159005   9.109  25.377   5.694
 4657POPC   GL259006   8.773  25.432   5.796
 4657POPC   C1A59007   9.168  25.308   6.146
 4657POPC   D2A59008   9.300  25.569   6.478
 4657POPC   C3A59009   9.295  25.468   6.874
 4657POPC   C4A59010   9.170  25.448   7.286
 4657POPC   C1B59011   8.663  25.226   6.187
 4657POPC   C2B59012   8.850  25.313   6.591
 4657POPC   C3B59013   8.935  25.120   6.990
 4657POPC   C4B59014   8.906  25.042   7.428
 4658POPC   NC359015  44.953  16.463   5.444
 4658POPC   PO459016  44.831  17.132   5.528
 4658POPC   GL159017  44.703  16.731   5.822
 4658POPC   GL259018  44.907  16.536   5.967
 4658POPC   C1A59019  44.492  16.626   6.239
 4658POPC   D2A59020  44.588  16.371   6.628
 4658POPC   C3A59021  44.453  16.624   6.979
 4658POPC   C4A59022  44.677  16.938   7.180
 4658POPC   C1B59023  44.950  16.838   6.291
 4658POPC   C2B59024  44.813  16.849   6.680
 4658POPC   C3B59025  44.955  16.534   6.973
 4658POPC   C4B59026   0.090  16.636   7.383
 4659POPC   NC359027  17.008  19.481   5.409
 4659POPC   PO459028  16.681  18.924   5.422
 4659POPC   GL159029  16.831  18.857   5.828
 4659POPC   GL259030  17.153  18.996   5.830
 4659POPC   C1A59031  16.625  18.832   6.218
 4659POPC   D2A59032  16.682  19.035   6.632
 4659POPC   C3A59033  16.765  18.904   7.077
 4659POPC   C4A59034  16.886  18.744   7.523
 4659POPC   C1B59035  16.947  19.243   6.194
 4659POPC   C2B59036  17.029  19.415   6.636
 4659POPC   C3B59037  17.081  19.321   7.110
 4659POPC   C4B59038  17.230  19.197   7.535
 4660POPC   NC359039  38.958  18.708   5.435
 4660POPC   PO459040  39.392  18.138   5.392
 4660POPC   GL159041  39.191  18.282   5.752
 4660POPC   GL259042  39.240  18.584   5.824
 4660POPC   C1A59043  39.156  18.064   6.168
 4660POPC   D2A59044  39.394  18.087   6.560
 4660POPC   C3A59045  39.192  18.186   6.940
 4660POPC   C4A59046  39.095  17.915   7.269
 4660POPC   C1B59047  38.972  18.527   6.176
 4660POPC   C2B59048  39.033  18.574   6.585
 4660POPC   C3B59049  39.085  18.687   6.997
 4660POPC   C4B59050  39.291  18.580   7.334
 4661POPC   NC359051  37.870  34.921   5.451
 4661POPC   PO459052  37.531  34.292   5.399
 4661POPC   GL159053  37.900  34.472   5.687
 4661POPC   GL259054  37.632  34.666   5.822
 4661POPC   C1A59055  38.079  34.748   6.075
 4661POPC   D2A59056  37.824  34.847   6.467
 4661POPC   C3A59057  37.822  34.700   6.909
 4661POPC   C4A59058  37.673  35.039   7.194
 4661POPC   C1B59059  37.713  34.420   6.187
 4661POPC   C2B59060  37.532  34.412   6.572
 4661POPC   C3B59061  37.501  34.250   6.956
 4661POPC   C4B59062  37.644  34.297   7.339
 4662POPC   NC359063  27.723   2.534   5.352
 4662POPC   PO459064  27.596   3.137   5.544
 4662POPC   GL159065  27.563   3.065   5.935
 4662POPC   GL259066  27.185   3.130   5.941
 4662POPC   C1A59067  27.778   2.786   6.242
 4662POPC   D2A59068  27.785   2.484   6.585
 4662POPC   C3A59069  27.923   2.642   6.964
 4662POPC   C4A59070  27.815   2.458   7.337
 4662POPC   C1B59071  27.285   2.942   6.343
 4662POPC   C2B59072  27.542   2.911   6.734
 4662POPC   C3B59073  27.433   2.804   7.183
 4662POPC   C4B59074  27.190   2.936   7.632
 4663POPC   NC359075  26.077  29.211   5.183
 4663POPC   PO459076  25.679  28.766   5.404
 4663POPC   GL159077  25.956  28.945   5.757
 4663POPC   GL259078  26.107  29.284   5.709
 4663POPC   C1A59079  26.087  28.878   6.205
 4663POPC   D2A59080  26.085  28.844   6.679
 4663POPC   C3A59081  26.124  29.139   6.986
 4663POPC   C4A59082  25.757  29.151   7.234
 4663POPC   C1B59083  26.220  29.384   6.144
 4663POPC   C2B59084  26.199  29.571   6.554
 4663POPC   C3B59085  26.287  29.633   6.971
 4663POPC   C4B59086  26.039  29.588   7.301
 4664POPC   NC359087   3.988  30.921   5.467
 4664POPC   PO459088   4.632  30.663   5.475
 4664POPC   GL159089   4.428  30.437   5.789
 4664POPC   GL259090   4.059  30.299   5.826
 4664POPC   C1A59091   4.342  30.543   6.182
 4664POPC   D2A59092   4.263  30.714   6.556
 4664POPC   C3A59093   4.366  30.481   6.883
 4664POPC   C4A59094   4.397  30.518   7.272
 4664POPC   C1B59095   3.851  30.397   6.271
 4664POPC   C2B59096   3.882  30.401   6.758
 4664POPC   C3B59097   3.848  30.611   7.158
 4664POPC   C4B59098   3.950  30.622   7.590
 4665POPC   NC359099  42.454  39.956   5.262
 4665POPC   PO459100  41.844  40.111   5.384
 4665POPC   GL159101  42.107  40.025   5.748
 4665POPC   GL259102  42.486  39.972   5.768
 4665POPC   C1A59103  42.162  39.848   6.151
 4665POPC   D2A59104  42.315  39.930   6.574
 4665POPC   C3A59105  42.018  39.799   6.887
 4665POPC   C4A59106  41.934  40.080   7.243
 4665POPC   C1B59107  42.588  40.141   6.147
 4665POPC   C2B59108  42.589  40.403   6.496
 4665POPC   C3B59109  42.512  40.320   6.905
 4665POPC   C4B59110  42.441  39.941   7.115
 4666POPC   NC359111  44.320  32.565   5.477
 4666POPC   PO459112  44.927  32.365   5.191
 4666POPC   GL159113  44.796  32.250   5.658
 4666POPC   GL259114  44.439  32.165   5.766
 4666POPC   C1A59115  44.817  32.360   6.141
 4666POPC   D2A59116  44.610  32.287   6.552
 4666POPC   C3A59117  44.681  32.497   6.952
 4666POPC   C4A59118  44.922  32.272   7.242
 4666POPC   C1B59119  44.597  31.899   6.099
 4666POPC   C2B59120  44.850  31.825   6.457
 4666POPC   C3B59121  44.785  31.867   6.928
 4666POPC   C4B59122  44.456  32.077   7.204
 4667POPC   NC359123  15.243  35.836   5.348
 4667POPC   PO459124  15.206  36.477   5.488
 4667POPC   GL159125  15.173  36.103   5.776
 4667POPC   GL259126  14.861  35.949   5.793
 4667POPC   C1A59127  15.182  35.733   6.102
 4667POPC   D2A59128  15.395  35.715   6.492
 4667POPC   C3A59129  15.294  35.851   6.950
 4667POPC   C4A59130  15.180  35.886   7.411
 4667POPC   C1B59131  14.997  36.180   6.247
 4667POPC   C2B59132  14.995  36.489   6.623
 4667POPC   C3B59133  14.793  36.543   7.005
 4667POPC   C4B59134  14.999  36.358   7.329
 4668POPC   NC359135  30.578  44.365   5.467
 4668POPC   PO459136  30.415  43.757   5.533
 4668POPC   GL159137  30.803  43.959   5.779
 4668POPC   GL259138  30.671  44.245   5.946
 4668POPC   C1A59139  30.993  43.932   6.249
 4668POPC   D2A59140  31.072  43.908   6.729
 4668POPC   C3A59141  30.758  44.066   7.044
 4668POPC   C4A59142  30.753  43.942   7.518
 4668POPC   C1B59143  30.493  43.895   6.182
 4668POPC   C2B59144  30.564  43.898   6.580
 4668POPC   C3B59145  30.408  43.705   6.897
 4668POPC   C4B59146  30.669  43.531   7.227
 4669POPC   NC359147  21.943  42.543   5.272
 4669POPC   PO459148  22.606  42.264   5.438
 4669POPC   GL159149  22.220  42.353   5.723
 4669POPC   GL259150  21.999  42.070   5.801
 4669POPC   C1A59151  22.109  42.422   6.187
 4669POPC   D2A59152  22.331  42.419   6.600
 4669POPC   C3A59153  22.229  42.654   7.010
 4669POPC   C4A59154  22.011  42.573   7.403
 4669POPC   C1B59155  22.219  41.936   6.193
 4669POPC   C2B59156  21.967  42.010   6.554
 4669POPC   C3B59157  21.976  42.223   6.927
 4669POPC   C4B59158  22.154  42.088   7.315
 4670POPC   NC359159  42.502   6.811   5.427
 4670POPC   PO459160  42.094   6.303   5.731
 4670POPC   GL159161  42.295   6.592   5.896
 4670POPC   GL259162  42.027   6.799   5.821
 4670POPC   C1A59163  42.466   6.495   6.287
 4670POPC   D2A59164  42.703   6.611   6.611
 4670POPC   C3A59165  42.527   6.490   6.968
 4670POPC   C4A59166  42.649   6.828   7.150
 4670POPC   C1B59167  42.101   6.922   6.231
 4670POPC   C2B59168  42.216   6.796   6.640
 4670POPC   C3B59169  42.152   6.857   7.051
 4670POPC   C4B59170  42.048   6.770   7.490
 4671POPC   NC359171  24.114  31.579   5.188
 4671POPC   PO459172  23.503  31.232   5.341
 4671POPC   GL159173  23.632  31.432   5.740
 4671POPC   GL259174  23.556  31.774   5.730
 4671POPC   C1A59175  23.773  31.293   6.181
 4671POPC   D2A59176  23.500  31.195   6.525
 4671POPC   C3A59177  23.683  31.318   6.898
 4671POPC   C4A59178  24.001  31.443   7.177
 4671POPC   C1B59179  23.420  31.676   6.168
 4671POPC   C2B59180  23.673  31.688   6.544
 4671POPC   C3B59181  23.707  31.814   6.967
 4671POPC   C4B59182  23.465  31.688   7.296
 4672POPC   NC359183  29.109  38.281   5.331
 4672POPC   PO459184  29.054  37.631   5.476
 4672POPC   GL159185  29.225  37.584   5.856
 4672POPC   GL259186  29.499  37.388   5.743
 4672POPC   C1A59187  29.027  37.571   6.275
 4672POPC   D2A59188  28.708  37.750   6.576
 4672POPC   C3A59189  28.881  37.787   6.979
 4672POPC   C4A59190  29.257  37.784   7.195
 4672POPC   C1B59191  29.470  37.276   6.188
 4672POPC   C2B59192  29.385  37.367   6.599
 4672POPC   C3B59193  29.206  37.318   6.996
 4672POPC   C4B59194  29.393  37.328   7.409
 4673POPC   NC359195  23.009   1.756   5.410
 4673POPC   PO459196  23.177   2.408   5.540
 4673POPC   GL159197  22.887   2.122   5.792
 4673POPC   GL259198  22.925   1.770   5.929
 4673POPC   C1A59199  22.677   2.094   6.200
 4673POPC   D2A59200  22.744   2.246   6.593
 4673POPC   C3A59201  22.641   2.028   6.981
 4673POPC   C4A59202  22.537   1.625   7.185
 4673POPC   C1B59203  23.173   2.016   6.254
 4673POPC   C2B59204  23.342   2.014   6.684
 4673POPC   C3B59205  23.157   2.035   7.111
 4673POPC   C4B59206  23.323   2.130   7.520
 4674POPC   NC359207  42.475  16.646   5.256
 4674POPC   PO459208  42.050  16.491   5.750
 4674POPC   GL159209  42.289  16.822   5.871
 4674POPC   GL259210  42.606  16.745   5.743
 4674POPC   C1A59211  42.277  16.818   6.341
 4674POPC   D2A59212  42.374  16.589   6.728
 4674POPC   C3A59213  42.209  16.735   7.149
 4674POPC   C4A59214  42.050  16.522   7.537
 4674POPC   C1B59215  42.697  16.989   6.124
 4674POPC   C2B59216  42.743  16.927   6.535
 4674POPC   C3B59217  42.520  17.070   6.862
 4674POPC   C4B59218  42.625  17.013   7.275
 4675POPC   NC359219  20.377  20.293   5.059
 4675POPC   PO459220  20.648  20.782   5.367
 4675POPC   GL159221  20.776  20.532   5.739
 4675POPC   GL259222  20.517  20.374   5.946
 4675POPC   C1A59223  20.873  20.603   6.188
 4675POPC   D2A59224  20.590  20.490   6.534
 4675POPC   C3A59225  20.736  20.364   6.919
 4675POPC   C4A59226  20.562  20.684   7.130
 4675POPC   C1B59227  20.224  20.299   6.214
 4675POPC   C2B59228  20.134  20.203   6.625
 4675POPC   C3B59229  20.190  20.326   7.031
 4675POPC   C4B59230  20.266  20.407   7.468
 4676POPC   NC359231  12.481  12.402   5.400
 4676POPC   PO459232  12.797  11.782   5.504
 4676POPC   GL159233  12.675  12.073   5.766
 4676POPC   GL259234  12.945  12.301   5.649
 4676POPC   C1A59235  12.698  11.906   6.181
 4676POPC   D2A59236  12.928  11.877   6.512
 4676POPC   C3A59237  12.659  12.045   6.777
 4676POPC   C4A59238  12.624  11.987   7.166
 4676POPC   C1B59239  13.068  12.256   6.087
 4676POPC   C2B59240  12.993  12.378   6.522
 4676POPC   C3B59241  13.124  12.192   6.912
 4676POPC   C4B59242  13.003  12.284   7.333
 4677POPC   NC359243   3.925  21.601   5.651
 4677POPC   PO459244   3.356  21.402   5.421
 4677POPC   GL159245   3.336  21.267   5.853
 4677POPC   GL259246   3.693  21.236   6.001
 4677POPC   C1A59247   3.326  21.455   6.268
 4677POPC   D2A59248   3.474  21.279   6.642
 4677POPC   C3A59249   3.531  21.470   7.039
 4677POPC   C4A59250   3.884  21.277   7.281
 4677POPC   C1B59251   3.930  21.462   6.372
 4677POPC   C2B59252   3.997  21.575   6.834
 4677POPC   C3B59253   3.853  21.816   7.214
 4677POPC   C4B59254   3.878  21.715   7.637
 4678POPC   NC359255  15.975   1.903   5.549
 4678POPC   PO459256  15.276   1.647   5.412
 4678POPC   GL159257  15.561   1.653   5.760
 4678POPC   GL259258  15.536   2.023   5.824
 4678POPC   C1A59259  15.783   1.672   6.171
 4678POPC   D2A59260  15.727   1.858   6.586
 4678POPC   C3A59261  16.080   1.922   6.878
 4678POPC   C4A59262  15.804   1.821   7.208
 4678POPC   C1B59263  15.777   2.203   6.158
 4678POPC   C2B59264  15.948   2.328   6.542
 4678POPC   C3B59265  15.766   2.297   6.956
 4678POPC   C4B59266  16.088   2.415   7.180
 4679POPC   NC359267  35.651   2.765   5.295
 4679POPC   PO459268  35.048   3.165   5.182
 4679POPC   GL159269  35.104   2.910   5.660
 4679POPC   GL259270  35.479   2.777   5.768
 4679POPC   C1A59271  35.137   2.692   6.103
 4679POPC   D2A59272  35.443   2.593   6.453
 4679POPC   C3A59273  35.242   2.532   6.863
 4679POPC   C4A59274  35.214   2.801   7.205
 4679POPC   C1B59275  35.694   2.952   6.136
 4679POPC   C2B59276  35.782   3.118   6.541
 4679POPC   C3B59277  35.619   2.973   6.914
 4679POPC   C4B59278  35.713   3.042   7.329
 4680POPC   NC359279  33.770  30.666   5.446
 4680POPC   PO459280  34.184  31.190   5.434
 4680POPC   GL159281  33.922  30.973   5.823
 4680POPC   GL259282  33.571  30.757   5.899
 4680POPC   C1A59283  33.945  30.752   6.227
 4680POPC   D2A59284  33.626  30.478   6.393
 4680POPC   C3A59285  33.673  30.391   6.833
 4680POPC   C4A59286  33.819  30.737   7.066
 4680POPC   C1B59287  33.519  31.047   6.218
 4680POPC   C2B59288  33.668  31.027   6.644
 4680POPC   C3B59289  33.441  31.096   7.038
 4680POPC   C4B59290  33.440  30.957   7.462
 4681POPC   NC359291  39.023  22.846   5.496
 4681POPC   PO459292  39.644  23.256   5.508
 4681POPC   GL159293  39.354  23.099   5.824
 4681POPC   GL259294  39.046  23.331   5.756
 4681POPC   C1A59295  39.367  22.820   6.221
 4681POPC   D2A59296  39.498  22.468   6.524
 4681POPC   C3A59297  39.391  22.597   6.958
 4681POPC   C4A59298  39.203  22.707   7.353
 4681POPC   C1B59299  38.965  23.174   6.162
 4681POPC   C2B59300  39.042  23.022   6.590
 4681POPC   C3B59301  38.984  23.182   7.007
 4681POPC   C4B59302  39.313  23.218   7.259
 4682POPC   NC359303  21.760  19.453   5.497
 4682POPC   PO459304  22.051  20.049   5.483
 4682POPC   GL159305  22.179  20.014   5.911
 4682POPC   GL259306  21.974  19.735   5.922
 4682POPC   C1A59307  22.209  19.966   6.359
 4682POPC   D2A59308  21.961  19.954   6.713
 4682POPC   C3A59309  22.202  19.691   6.965
 4682POPC   C4A59310  22.408  19.515   7.331
 4682POPC   C1B59311  21.790  19.644   6.308
 4682POPC   C2B59312  21.779  19.442   6.686
 4682POPC   C3B59313  21.664  19.655   7.020
 4682POPC   C4B59314  21.907  19.709   7.378
 4683POPC   NC359315  41.774  31.420   5.638
 4683POPC   PO459316  41.533  31.975   5.302
 4683POPC   GL159317  41.635  31.905   5.765
 4683POPC   GL259318  41.397  31.689   5.900
 4683POPC   C1A59319  41.794  31.789   6.231
 4683POPC   D2A59320  41.617  31.676   6.669
 4683POPC   C3A59321  41.573  31.583   7.125
 4683POPC   C4A59322  41.318  31.547   7.464
 4683POPC   C1B59323  41.424  31.396   6.270
 4683POPC   C2B59324  41.144  31.133   6.553
 4683POPC   C3B59325  41.216  31.226   6.984
 4683POPC   C4B59326  41.460  31.059   7.290
 4684POPC   NC359327  10.275  20.368   5.200
 4684POPC   PO459328  10.289  20.936   5.461
 4684POPC   GL159329  10.441  20.687   5.801
 4684POPC   GL259330  10.363  20.321   5.750
 4684POPC   C1A59331  10.427  20.771   6.247
 4684POPC   D2A59332  10.211  20.852   6.651
 4684POPC   C3A59333  10.562  20.806   6.918
 4684POPC   C4A59334  10.779  20.755   7.293
 4684POPC   C1B59335  10.474  20.249   6.208
 4684POPC   C2B59336  10.365  20.363   6.658
 4684POPC   C3B59337  10.524  20.318   7.105
 4684POPC   C4B59338  10.945  20.223   7.300
 4685POPC   NC359339  19.232   7.631   5.463
 4685POPC   PO459340  18.819   7.186   5.290
 4685POPC   GL159341  18.891   7.161   5.788
 4685POPC   GL259342  19.243   7.056   5.903
 4685POPC   C1A59343  18.961   7.368   6.208
 4685POPC   D2A59344  19.250   7.458   6.559
 4685POPC   C3A59345  19.062   7.742   6.834
 4685POPC   C4A59346  19.146   7.862   7.240
 4685POPC   C1B59347  19.226   6.950   6.341
 4685POPC   C2B59348  18.928   7.046   6.680
 4685POPC   C3B59349  19.048   7.225   7.062
 4685POPC   C4B59350  19.278   6.978   7.336
 4686POPC   NC359351  36.364   6.956   5.523
 4686POPC   PO459352  36.007   7.459   5.387
 4686POPC   GL159353  36.141   7.375   5.769
 4686POPC   GL259354  35.965   7.118   5.836
 4686POPC   C1A59355  35.967   7.541   6.153
 4686POPC   D2A59356  35.749   7.494   6.513
 4686POPC   C3A59357  35.968   7.603   6.876
 4686POPC   C4A59358  35.776   7.537   7.258
 4686POPC   C1B59359  36.153   7.056   6.200
 4686POPC   C2B59360  35.915   7.016   6.550
 4686POPC   C3B59361  35.727   7.148   6.904
 4686POPC   C4B59362  35.802   7.029   7.300
 4687POPC   NC359363  38.533  38.984   5.298
 4687POPC   PO459364  38.028  39.336   5.498
 4687POPC   GL159365  38.301  39.147   5.779
 4687POPC   GL259366  38.188  39.354   6.026
 4687POPC   C1A59367  38.409  38.870   6.128
 4687POPC   D2A59368  38.637  38.973   6.465
 4687POPC   C3A59369  38.540  39.040   6.918
 4687POPC   C4A59370  38.849  39.157   7.229
 4687POPC   C1B59371  38.563  39.438   6.215
 4687POPC   C2B59372  38.467  39.438   6.613
 4687POPC   C3B59373  38.629  39.555   6.982
 4687POPC   C4B59374  38.452  39.433   7.294
 4688POPC   NC359375  27.252   1.859   5.401
 4688POPC   PO459376  27.870   2.177   5.600
 4688POPC   GL159377  27.468   2.163   5.781
 4688POPC   GL259378  27.337   1.867   5.954
 4688POPC   C1A59379  27.541   2.248   6.217
 4688POPC   D2A59380  27.491   2.044   6.610
 4688POPC   C3A59381  27.496   2.290   6.973
 4688POPC   C4A59382  27.392   2.166   7.365
 4688POPC   C1B59383  27.715   1.749   6.215
 4688POPC   C2B59384  27.797   1.630   6.661
 4688POPC   C3B59385  27.578   1.758   7.047
 4688POPC   C4B59386  27.696   1.779   7.446
 4689POPC   NC359387  31.910  34.451   5.568
 4689POPC   PO459388  32.429  34.301   5.088
 4689POPC   GL159389  32.401  34.471   5.648
 4689POPC   GL259390  32.201  34.268   5.955
 4689POPC   C1A59391  32.540  34.598   6.097
 4689POPC   D2A59392  32.321  34.521   6.505
 4689POPC   C3A59393  32.429  34.688   6.896
 4689POPC   C4A59394  32.590  34.771   7.280
 4689POPC   C1B59395  31.849  34.384   6.243
 4689POPC   C2B59396  31.792  34.441   6.684
 4689POPC   C3B59397  32.113  34.284   6.967
 4689POPC   C4B59398  32.271  34.345   7.368
 4690POPC   NC359399  42.766  36.162   4.973
 4690POPC   PO459400  42.293  35.918   5.376
 4690POPC   GL159401  42.289  36.090   5.780
 4690POPC   GL259402  42.557  36.284   5.888
 4690POPC   C1A59403  42.103  36.123   6.175
 4690POPC   D2A59404  42.176  35.995   6.559
 4690POPC   C3A59405  42.171  36.133   6.962
 4690POPC   C4A59406  42.296  35.849   7.274
 4690POPC   C1B59407  42.634  36.084   6.279
 4690POPC   C2B59408  42.709  35.979   6.710
 4690POPC   C3B59409  42.723  36.208   7.072
 4690POPC   C4B59410  42.444  36.342   7.367
 4691POPC   NC359411  26.743  29.632   5.394
 4691POPC   PO459412  26.448  30.259   5.542
 4691POPC   GL159413  26.611  29.973   5.832
 4691POPC   GL259414  26.939  29.837   5.818
 4691POPC   C1A59415  26.585  29.797   6.235
 4691POPC   D2A59416  26.702  29.617   6.588
 4691POPC   C3A59417  26.733  29.873   6.922
 4691POPC   C4A59418  26.845  29.844   7.309
 4691POPC   C1B59419  26.975  30.137   6.157
 4691POPC   C2B59420  27.036  30.037   6.552
 4691POPC   C3B59421  27.098  30.238   6.929
 4691POPC   C4B59422  27.249  30.191   7.326
 4692POPC   NC359423  33.233   9.323   5.425
 4692POPC   PO459424  32.899   9.972   5.545
 4692POPC   GL159425  32.935   9.565   5.790
 4692POPC   GL259426  33.306   9.500   5.893
 4692POPC   C1A59427  32.936   9.402   6.220
 4692POPC   D2A59428  33.235   9.484   6.542
 4692POPC   C3A59429  33.115   9.420   6.985
 4692POPC   C4A59430  33.379   9.491   7.351
 4692POPC   C1B59431  33.278   9.859   6.187
 4692POPC   C2B59432  33.101   9.983   6.607
 4692POPC   C3B59433  32.839   9.948   6.977
 4692POPC   C4B59434  32.978   9.843   7.383
 4693POPC   NC359435  36.432  40.531   5.624
 4693POPC   PO459436  36.063  39.941   5.405
 4693POPC   GL159437  36.085  40.204   5.788
 4693POPC   GL259438  36.364  40.013   5.909
 4693POPC   C1A59439  36.189  40.361   6.247
 4693POPC   D2A59440  36.063  40.280   6.678
 4693POPC   C3A59441  36.367  40.349   7.016
 4693POPC   C4A59442  36.391  40.341   7.455
 4693POPC   C1B59443  35.985  39.907   6.207
 4693POPC   C2B59444  36.061  39.764   6.638
 4693POPC   C3B59445  36.109  39.898   7.057
 4693POPC   C4B59446  36.416  39.764   7.352
 4694POPC   NC359447   7.637  33.151   5.273
 4694POPC   PO459448   7.139  32.604   5.443
 4694POPC   GL159449   7.203  32.983   5.695
 4694POPC   GL259450   7.551  33.116   5.779
 4694POPC   C1A59451   7.197  33.019   6.148
 4694POPC   D2A59452   7.250  32.731   6.521
 4694POPC   C3A59453   7.148  32.921   6.917
 4694POPC   C4A59454   7.344  33.213   7.224
 4694POPC   C1B59455   7.663  33.214   6.245
 4694POPC   C2B59456   7.700  33.098   6.710
 4694POPC   C3B59457   7.645  32.831   7.084
 4694POPC   C4B59458   7.583  32.859   7.558
 4695POPC   NC359459   9.119   0.602   5.345
 4695POPC   PO459460   8.732   0.046   5.232
 4695POPC   GL159461   8.944   0.215   5.652
 4695POPC   GL259462   8.880   0.557   5.790
 4695POPC   C1A59463   9.138   0.226   6.084
 4695POPC   D2A59464   8.889   0.260   6.432
 4695POPC   C3A59465   9.093   0.253   6.813
 4695POPC   C4A59466   8.898   0.467   7.159
 4695POPC   C1B59467   9.146   0.786   6.084
 4695POPC   C2B59468   9.142   0.705   6.534
 4695POPC   C3B59469   9.339   0.697   6.945
 4695POPC   C4B59470   9.280   0.941   7.293
 4696POPC   NC359471   4.428  25.719   5.393
 4696POPC   PO459472   4.028  26.284   5.304
 4696POPC   GL159473   4.201  26.084   5.670
 4696POPC   GL259474   4.118  26.348   5.852
 4696POPC   C1A59475   4.515  26.017   6.027
 4696POPC   D2A59476   4.500  26.163   6.489
 4696POPC   C3A59477   4.364  25.907   6.852
 4696POPC   C4A59478   4.605  25.663   7.207
 4696POPC   C1B59479   4.049  26.073   6.217
 4696POPC   C2B59480   3.965  26.186   6.629
 4696POPC   C3B59481   4.057  26.290   7.049
 4696POPC   C4B59482   4.248  26.008   7.342
 4697POPC   NC359483   6.039  34.560   5.429
 4697POPC   PO459484   5.349  34.306   5.489
 4697POPC   GL159485   5.685  34.589   5.805
 4697POPC   GL259486   6.047  34.706   5.905
 4697POPC   C1A59487   5.703  34.599   6.263
 4697POPC   D2A59488   5.440  34.491   6.586
 4697POPC   C3A59489   5.655  34.528   6.932
 4697POPC   C4A59490   5.755  34.647   7.329
 4697POPC   C1B59491   6.052  34.268   6.141
 4697POPC   C2B59492   5.967  34.227   6.635
 4697POPC   C3B59493   6.131  34.356   7.101
 4697POPC   C4B59494   6.164  34.483   7.577
 4698POPC   NC359495   4.555  18.355   5.477
 4698POPC   PO459496   3.954  17.914   5.502
 4698POPC   GL159497   4.223  18.060   5.822
 4698POPC   GL259498   4.176  18.443   5.840
 4698POPC   C1A59499   4.459  18.204   6.197
 4698POPC   D2A59500   4.669  18.442   6.532
 4698POPC   C3A59501   4.471  18.443   6.923
 4698POPC   C4A59502   4.437  18.275   7.338
 4698POPC   C1B59503   3.962  18.232   6.220
 4698POPC   C2B59504   4.044  18.287   6.651
 4698POPC   C3B59505   3.999  18.212   7.091
 4698POPC   C4B59506   3.907  18.386   7.520
 4699POPC   NC359507  37.435  30.675   5.448
 4699POPC   PO459508  37.476  31.088   5.883
 4699POPC   GL159509  37.790  30.791   5.890
 4699POPC   GL259510  37.716  30.484   5.813
 4699POPC   C1A59511  37.977  30.787   6.265
 4699POPC   D2A59512  37.736  30.865   6.653
 4699POPC   C3A59513  37.936  30.935   7.045
 4699POPC   C4A59514  37.675  30.890   7.397
 4699POPC   C1B59515  37.657  30.377   6.225
 4699POPC   C2B59516  37.906  30.381   6.595
 4699POPC   C3B59517  37.827  30.434   7.034
 4699POPC   C4B59518  37.673  30.371   7.465
 4700POPC   NC359519   1.471  16.530   5.337
 4700POPC   PO459520   1.016  17.027   5.456
 4700POPC   GL159521   1.171  16.810   5.785
 4700POPC   GL259522   1.308  17.088   5.917
 4700POPC   C1A59523   1.135  16.708   6.227
 4700POPC   D2A59524   0.970  16.675   6.619
 4700POPC   C3A59525   1.153  16.724   7.004
 4700POPC   C4A59526   1.246  16.600   7.412
 4700POPC   C1B59527   1.490  17.071   6.292
 4700POPC   C2B59528   1.295  17.141   6.676
 4700POPC   C3B59529   1.365  17.158   7.106
 4700POPC   C4B59530   1.542  17.006   7.522
 4701POPC   NC359531  23.121  10.300   5.518
 4701POPC   PO459532  23.176  10.956   5.516
 4701POPC   GL159533  22.913  10.692   5.795
 4701POPC   GL259534  22.601  10.475   5.814
 4701POPC   C1A59535  23.017  10.473   6.162
 4701POPC   D2A59536  22.850  10.504   6.555
 4701POPC   C3A59537  23.111  10.412   6.882
 4701POPC   C4A59538  22.931  10.588   7.233
 4701POPC   C1B59539  22.568  10.216   6.213
 4701POPC   C2B59540  22.619  10.050   6.658
 4701POPC   C3B59541  22.758  10.111   7.104
 4701POPC   C4B59542  22.738  10.166   7.570
 4702POPC   NC359543  13.506  20.374   5.430
 4702POPC   PO459544  13.912  20.871   5.562
 4702POPC   GL159545  13.521  20.704   5.832
 4702POPC   GL259546  13.430  20.334   5.931
 4702POPC   C1A59547  13.312  20.707   6.264
 4702POPC   D2A59548  13.396  20.874   6.691
 4702POPC   C3A59549  13.515  20.625   7.042
 4702POPC   C4A59550  13.935  20.725   7.216
 4702POPC   C1B59551  13.780  20.464   6.219
 4702POPC   C2B59552  13.897  20.494   6.661
 4702POPC   C3B59553  13.891  20.264   7.049
 4702POPC   C4B59554  13.680  20.366   7.476
 4703POPC   NC359555  16.061  29.560   5.489
 4703POPC   PO459556  15.721  28.952   5.359
 4703POPC   GL159557  15.783  29.141   5.763
 4703POPC   GL259558  15.613  29.475   5.759
 4703POPC   C1A59559  15.964  29.022   6.204
 4703POPC   D2A59560  15.839  28.924   6.647
 4703POPC   C3A59561  16.027  28.942   7.065
 4703POPC   C4A59562  15.819  29.117   7.441
 4703POPC   C1B59563  15.780  29.519   6.146
 4703POPC   C2B59564  15.751  29.524   6.572
 4703POPC   C3B59565  15.722  29.333   6.964
 4703POPC   C4B59566  15.712  29.574   7.326
 4704POPC   NC359567  41.967  37.402   5.520
 4704POPC   PO459568  42.466  37.699   5.172
 4704POPC   GL159569  42.381  37.755   5.725
 4704POPC   GL259570  42.190  37.502   5.976
 4704POPC   C1A59571  42.437  37.869   6.223
 4704POPC   D2A59572  42.512  38.095   6.645
 4704POPC   C3A59573  42.371  37.983   7.086
 4704POPC   C4A59574  42.019  37.950   7.412
 4704POPC   C1B59575  42.572  37.359   6.247
 4704POPC   C2B59576  42.794  37.393   6.679
 4704POPC   C3B59577  42.625  37.444   7.107
 4704POPC   C4B59578  42.206  37.513   7.262
 4705POPC   NC359579  16.486  11.637   5.450
 4705POPC   PO459580  16.184  11.101   5.402
 4705POPC   GL159581  16.522  11.095   5.748
 4705POPC   GL259582  16.484  11.409   5.901
 4705POPC   C1A59583  16.740  11.067   6.206
 4705POPC   D2A59584  16.626  11.082   6.685
 4705POPC   C3A59585  16.862  10.900   7.072
 4705POPC   C4A59586  16.842  11.068   7.551
 4705POPC   C1B59587  16.645  11.565   6.273
 4705POPC   C2B59588  17.008  11.720   6.485
 4705POPC   C3B59589  17.020  11.756   6.910
 4705POPC   C4B59590  16.800  11.416   7.151
 4706POPC   NC359591   7.489   1.690   5.514
 4706POPC   PO459592   7.158   2.361   5.416
 4706POPC   GL159593   7.226   2.073   5.756
 4706POPC   GL259594   7.537   2.059   5.928
 4706POPC   C1A59595   7.149   1.830   6.144
 4706POPC   D2A59596   6.924   1.831   6.505
 4706POPC   C3A59597   7.180   1.836   6.866
 4706POPC   C4A59598   7.420   1.837   7.248
 4706POPC   C1B59599   7.735   2.098   6.336
 4706POPC   C2B59600   7.684   1.834   6.719
 4706POPC   C3B59601   7.889   1.944   7.098
 4706POPC   C4B59602   7.758   2.195   7.452
 4707POPC   NC359603   0.333   6.260   5.459
 4707POPC   PO459604   0.115   5.625   5.307
 4707POPC   GL159605   0.119   5.864   5.735
 4707POPC   GL259606   0.473   5.987   5.872
 4707POPC   C1A59607   0.073   6.005   6.185
 4707POPC   D2A59608   0.358   5.933   6.539
 4707POPC   C3A59609   0.192   5.871   6.947
 4707POPC   C4A59610   0.215   5.529   7.227
 4707POPC   C1B59611   0.766   6.162   6.191
 4707POPC   C2B59612   0.690   6.321   6.605
 4707POPC   C3B59613   0.662   6.123   6.960
 4707POPC   C4B59614   0.413   6.175   7.286
 4708POPC   NC359615   6.925  16.785   5.381
 4708POPC   PO459616   6.259  17.065   5.475
 4708POPC   GL159617   6.488  16.772   5.812
 4708POPC   GL259618   6.865  16.801   5.878
 4708POPC   C1A59619   6.577  16.506   6.222
 4708POPC   D2A59620   6.401  16.196   6.531
 4708POPC   C3A59621   6.398  16.398   6.950
 4708POPC   C4A59622   6.667  16.558   7.303
 4708POPC   C1B59623   6.695  17.045   6.191
 4708POPC   C2B59624   6.575  17.104   6.589
 4708POPC   C3B59625   6.745  16.772   6.835
 4708POPC   C4B59626   7.068  16.840   7.161
 4709POPC   NC359627  44.129  42.659   5.565
 4709POPC   PO459628  43.515  42.311   5.435
 4709POPC   GL159629  43.534  42.016   5.779
 4709POPC   GL259630  43.845  42.205   5.922
 4709POPC   C1A59631  43.497  41.959   6.225
 4709POPC   D2A59632  43.611  42.287   6.498
 4709POPC   C3A59633  43.818  42.207   6.895
 4709POPC   C4A59634  43.663  42.408   7.237
 4709POPC   C1B59635  44.033  42.476   6.272
 4709POPC   C2B59636  44.270  42.595   6.676
 4709POPC   C3B59637  44.140  42.549   7.131
 4709POPC   C4B59638  44.117  42.199   7.436
 4710POPC   NC359639   8.326   6.818   5.438
 4710POPC   PO459640   7.734   6.630   5.556
 4710POPC   GL159641   8.093   6.623   5.860
 4710POPC   GL259642   8.380   6.414   5.747
 4710POPC   C1A59643   8.200   6.875   6.230
 4710POPC   D2A59644   7.909   6.964   6.581
 4710POPC   C3A59645   8.067   6.841   6.962
 4710POPC   C4A59646   7.975   6.472   7.232
 4710POPC   C1B59647   8.546   6.505   6.141
 4710POPC   C2B59648   8.335   6.449   6.533
 4710POPC   C3B59649   8.434   6.489   6.947
 4710POPC   C4B59650   8.482   6.728   7.341
 4711POPC   NC359651  39.702   3.430   5.368
 4711POPC   PO459652  40.307   3.652   5.346
 4711POPC   GL159653  40.072   3.619   5.768
 4711POPC   GL259654  39.891   3.285   5.822
 4711POPC   C1A59655  40.151   3.504   6.229
 4711POPC   D2A59656  40.240   3.379   6.667
 4711POPC   C3A59657  40.119   3.666   6.960
 4711POPC   C4A59658  39.902   3.669   7.319
 4711POPC   C1B59659  39.642   3.148   6.191
 4711POPC   C2B59660  39.757   3.249   6.617
 4711POPC   C3B59661  39.900   3.209   7.022
 4711POPC   C4B59662  39.650   3.103   7.333
 4712POPC   NC359663  21.818  30.013   5.082
 4712POPC   PO459664  21.661  29.712   5.681
 4712POPC   GL159665  21.337  29.837   5.973
 4712POPC   GL259666  21.068  30.101   5.936
 4712POPC   C1A59667  21.207  29.912   6.380
 4712POPC   D2A59668  21.140  29.867   6.815
 4712POPC   C3A59669  21.517  29.885   7.030
 4712POPC   C4A59670  21.330  29.877   7.402
 4712POPC   C1B59671  21.081  30.401   6.241
 4712POPC   C2B59672  21.218  30.395   6.661
 4712POPC   C3B59673  21.226  30.312   7.106
 4712POPC   C4B59674  21.069  30.309   7.521
 4713POPC   NC359675  11.126  28.608   5.211
 4713POPC   PO459676  11.720  28.474   5.509
 4713POPC   GL159677  11.408  28.338   5.826
 4713POPC   GL259678  11.179  28.538   5.709
 4713POPC   C1A59679  11.441  28.291   6.293
 4713POPC   D2A59680  11.341  28.114   6.722
 4713POPC   C3A59681  11.571  28.238   7.124
 4713POPC   C4A59682  11.714  28.342   7.560
 4713POPC   C1B59683  11.022  28.577   6.116
 4713POPC   C2B59684  11.064  28.577   6.535
 4713POPC   C3B59685  10.854  28.615   6.914
 4713POPC   C4B59686  11.080  28.416   7.231
 4714POPC   NC359687  23.960   0.938   5.452
 4714POPC   PO459688  23.528   1.460   5.547
 4714POPC   GL159689  23.734   1.210   5.869
 4714POPC   GL259690  23.980   0.917   5.952
 4714POPC   C1A59691  23.919   1.308   6.266
 4714POPC   D2A59692  23.855   1.106   6.646
 4714POPC   C3A59693  23.941   1.371   6.960
 4714POPC   C4A59694  23.763   1.317   7.318
 4714POPC   C1B59695  23.621   0.865   6.238
 4714POPC   C2B59696  23.343   1.052   6.556
 4714POPC   C3B59697  23.395   1.158   6.994
 4714POPC   C4B59698  23.421   0.930   7.399
 4715POPC   NC359699  10.818  14.119   5.629
 4715POPC   PO459700  10.368  13.736   5.274
 4715POPC   GL159701  10.297  13.732   5.723
 4715POPC   GL259702  10.398  14.018   5.892
 4715POPC   C1A59703  10.216  13.545   6.123
 4715POPC   D2A59704  10.265  13.654   6.549
 4715POPC   C3A59705  10.428  13.309   6.826
 4715POPC   C4A59706  10.355  13.389   7.223
 4715POPC   C1B59707  10.669  13.813   6.197
 4715POPC   C2B59708  10.772  13.575   6.556
 4715POPC   C3B59709  10.701  13.716   6.982
 4715POPC   C4B59710  10.850  13.597   7.345
 4716POPC   NC359711  30.562  40.540   5.447
 4716POPC   PO459712  31.046  41.011   5.255
 4716POPC   GL159713  30.943  40.769   5.681
 4716POPC   GL259714  30.550  40.889   5.805
 4716POPC   C1A59715  30.834  40.631   6.118
 4716POPC   D2A59716  30.818  40.556   6.568
 4716POPC   C3A59717  30.915  40.838   6.918
 4716POPC   C4A59718  30.895  40.603   7.311
 4716POPC   C1B59719  30.424  41.007   6.258
 4716POPC   C2B59720  30.437  40.915   6.709
 4716POPC   C3B59721  30.473  40.861   7.175
 4716POPC   C4B59722  30.228  40.940   7.547
 4717POPC   NC359723  28.324  42.228   5.062
 4717POPC   PO459724  27.990  42.519   5.619
 4717POPC   GL159725  28.283  42.307   5.857
 4717POPC   GL259726  28.430  41.975   5.780
 4717POPC   C1A59727  28.271  42.420   6.261
 4717POPC   D2A59728  28.464  42.489   6.635
 4717POPC   C3A59729  28.222  42.409   6.971
 4717POPC   C4A59730  28.437  42.455   7.337
 4717POPC   C1B59731  28.275  41.904   6.199
 4717POPC   C2B59732  28.422  41.984   6.587
 4717POPC   C3B59733  28.402  41.932   7.012
 4717POPC   C4B59734  28.134  42.015   7.342
 4718POPC   NC359735  14.631  33.766   5.441
 4718POPC   PO459736  14.098  34.147   5.514
 4718POPC   GL159737  14.310  33.934   5.874
 4718POPC   GL259738  14.445  33.615   5.881
 4718POPC   C1A59739  14.456  33.908   6.316
 4718POPC   D2A59740  14.748  34.067   6.640
 4718POPC   C3A59741  14.526  34.084   7.043
 4718POPC   C4A59742  14.242  33.898   7.379
 4718POPC   C1B59743  14.145  33.494   6.160
 4718POPC   C2B59744  14.122  33.309   6.564
 4718POPC   C3B59745  14.221  33.478   6.972
 4718POPC   C4B59746  14.177  33.348   7.402
 4719POPC   NC359747   7.121  34.603   5.508
 4719POPC   PO459748   6.465  34.754   5.528
 4719POPC   GL159749   6.550  34.492   5.854
 4719POPC   GL259750   6.774  34.241   5.670
 4719POPC   C1A59751   6.401  34.627   6.284
 4719POPC   D2A59752   6.229  34.705   6.705
 4719POPC   C3A59753   6.584  34.656   7.002
 4719POPC   C4A59754   6.614  34.677   7.456
 4719POPC   C1B59755   7.001  34.258   6.065
 4719POPC   C2B59756   7.060  34.268   6.507
 4719POPC   C3B59757   7.188  34.191   6.922
 4719POPC   C4B59758   6.966  34.392   7.230
 4720POPC   NC359759  13.572  15.364   5.169
 4720POPC   PO459760  13.513  16.015   5.441
 4720POPC   GL159761  13.575  15.852   5.845
 4720POPC   GL259762  13.362  15.603   5.749
 4720POPC   C1A59763  13.566  15.921   6.313
 4720POPC   D2A59764  13.432  16.169   6.694
 4720POPC   C3A59765  13.710  16.197   7.043
 4720POPC   C4A59766  13.676  15.882   7.316
 4720POPC   C1B59767  13.231  15.577   6.145
 4720POPC   C2B59768  13.429  15.469   6.532
 4720POPC   C3B59769  13.412  15.653   6.929
 4720POPC   C4B59770  13.231  15.500   7.324
 4721POPC   NC359771  42.703   1.622   5.446
 4721POPC   PO459772  43.193   2.132   5.300
 4721POPC   GL159773  43.102   2.087   5.776
 4721POPC   GL259774  42.940   1.782   5.874
 4721POPC   C1A59775  43.249   1.976   6.234
 4721POPC   D2A59776  43.158   1.727   6.624
 4721POPC   C3A59777  43.280   1.966   6.924
 4721POPC   C4A59778  43.039   2.234   7.138
 4721POPC   C1B59779  42.772   1.797   6.297
 4721POPC   C2B59780  42.712   1.928   6.745
 4721POPC   C3B59781  42.868   1.731   7.131
 4721POPC   C4B59782  42.903   1.607   7.560
 4722POPC   NC359783  32.977  24.508   5.295
 4722POPC   PO459784  33.526  24.600   5.649
 4722POPC   GL159785  33.059  24.527   5.797
 4722POPC   GL259786  32.819  24.226   5.773
 4722POPC   C1A59787  32.843  24.507   6.216
 4722POPC   D2A59788  33.131  24.736   6.460
 4722POPC   C3A59789  33.121  24.782   6.871
 4722POPC   C4A59790  33.028  24.632   7.223
 4722POPC   C1B59791  33.168  24.132   6.103
 4722POPC   C2B59792  33.099  24.173   6.552
 4722POPC   C3B59793  32.796  24.366   6.808
 4722POPC   C4B59794  32.625  24.312   7.215
 4723POPC   NC359795  30.944  29.612   5.438
 4723POPC   PO459796  30.454  30.012   5.284
 4723POPC   GL159797  30.660  29.975   5.727
 4723POPC   GL259798  30.665  30.283   5.981
 4723POPC   C1A59799  30.775  29.823   6.176
 4723POPC   D2A59800  30.674  29.942   6.630
 4723POPC   C3A59801  30.883  29.773   7.014
 4723POPC   C4A59802  30.690  29.705   7.414
 4723POPC   C1B59803  31.054  30.314   6.288
 4723POPC   C2B59804  31.266  30.324   6.695
 4723POPC   C3B59805  30.938  30.315   7.012
 4723POPC   C4B59806  30.502  30.091   7.102
 4724POPC   NC359807   5.890  32.726   5.296
 4724POPC   PO459808   5.660  33.359   5.415
 4724POPC   GL159809   5.874  33.080   5.742
 4724POPC   GL259810   5.631  32.761   5.760
 4724POPC   C1A59811   6.089  33.202   6.189
 4724POPC   D2A59812   6.210  33.123   6.662
 4724POPC   C3A59813   6.144  33.192   7.130
 4724POPC   C4A59814   6.331  33.169   7.587
 4724POPC   C1B59815   5.845  32.764   6.161
 4724POPC   C2B59816   5.979  32.657   6.554
 4724POPC   C3B59817   5.992  32.729   6.981
 4724POPC   C4B59818   5.704  32.694   7.340
 4725POPC   NC359819  24.583  10.915   5.359
 4725POPC   PO459820  24.725  11.545   5.109
 4725POPC   GL159821  24.403  11.406   5.544
 4725POPC   GL259822  24.414  11.072   5.792
 4725POPC   C1A59823  24.341  11.492   6.049
 4725POPC   D2A59824  24.360  11.647   6.520
 4725POPC   C3A59825  24.496  11.460   6.960
 4725POPC   C4A59826  24.669  11.535   7.428
 4725POPC   C1B59827  24.228  10.996   6.196
 4725POPC   C2B59828  24.262  11.136   6.609
 4725POPC   C3B59829  24.378  10.962   6.993
 4725POPC   C4B59830  24.724  11.050   7.303
 4726POPC   NC359831   3.776  25.901   5.201
 4726POPC   PO459832   3.212  26.218   5.557
 4726POPC   GL159833   3.397  26.057   5.898
 4726POPC   GL259834   3.714  26.011   5.834
 4726POPC   C1A59835   3.534  26.104   6.315
 4726POPC   D2A59836   3.421  25.829   6.637
 4726POPC   C3A59837   3.595  26.043   6.956
 4726POPC   C4A59838   3.638  26.004   7.367
 4726POPC   C1B59839   3.742  25.664   6.182
 4726POPC   C2B59840   3.920  25.664   6.592
 4726POPC   C3B59841   3.746  25.560   6.976
 4726POPC   C4B59842   3.948  25.605   7.362
 4727POPC   NC359843  35.107  19.201   5.536
 4727POPC   PO459844  35.618  18.864   5.212
 4727POPC   GL159845  35.544  19.013   5.685
 4727POPC   GL259846  35.241  18.800   5.829
 4727POPC   C1A59847  35.471  19.108   6.162
 4727POPC   D2A59848  35.437  19.181   6.647
 4727POPC   C3A59849  35.558  18.907   7.027
 4727POPC   C4A59850  35.587  18.872   7.499
 4727POPC   C1B59851  35.096  18.771   6.279
 4727POPC   C2B59852  34.988  18.729   6.718
 4727POPC   C3B59853  35.024  18.950   7.091
 4727POPC   C4B59854  35.223  19.334   7.087
 4728POPC   NC359855  21.173  14.572   5.476
 4728POPC   PO459856  21.722  14.261   5.535
 4728POPC   GL159857  21.510  14.456   5.867
 4728POPC   GL259858  21.316  14.214   5.870
 4728POPC   C1A59859  21.609  14.581   6.285
 4728POPC   D2A59860  21.370  14.591   6.672
 4728POPC   C3A59861  21.526  14.599   7.099
 4728POPC   C4A59862  21.837  14.339   7.300
 4728POPC   C1B59863  21.177  14.278   6.278
 4728POPC   C2B59864  21.249  14.028   6.633
 4728POPC   C3B59865  21.495  14.101   6.980
 4728POPC   C4B59866  21.357  14.223   7.406
 4729POPC   NC359867  39.978  27.005   5.489
 4729POPC   PO459868  39.867  26.454   5.191
 4729POPC   GL159869  39.872  26.564   5.714
 4729POPC   GL259870  39.852  26.927   5.948
 4729POPC   C1A59871  40.024  26.547   6.186
 4729POPC   D2A59872  39.951  26.817   6.583
 4729POPC   C3A59873  39.952  26.669   7.002
 4729POPC   C4A59874  40.228  26.579   7.331
 4729POPC   C1B59875  39.910  27.217   6.292
 4729POPC   C2B59876  40.251  27.292   6.573
 4729POPC   C3B59877  40.334  27.046   6.928
 4729POPC   C4B59878  40.227  27.321   7.274
 4730POPC   NC359879  17.615  31.959   5.434
 4730POPC   PO459880  17.080  32.357   5.411
 4730POPC   GL159881  17.312  32.158   5.831
 4730POPC   GL259882  17.708  32.075   5.909
 4730POPC   C1A59883  17.383  32.210   6.314
 4730POPC   D2A59884  17.277  32.574   6.592
 4730POPC   C3A59885  17.276  32.604   7.009
 4730POPC   C4A59886  17.170  32.257   7.276
 4730POPC   C1B59887  17.752  32.487   6.097
 4730POPC   C2B59888  17.801  32.493   6.543
 4730POPC   C3B59889  17.694  32.302   6.916
 4730POPC   C4B59890  17.670  32.434   7.309
 4731POPC   NC359891  30.704  38.087   5.486
 4731POPC   PO459892  30.792  37.353   5.446
 4731POPC   GL159893  30.769  37.422   5.869
 4731POPC   GL259894  30.631  37.717   5.828
 4731POPC   C1A59895  30.689  37.374   6.307
 4731POPC   D2A59896  30.839  37.625   6.638
 4731POPC   C3A59897  30.932  37.451   6.985
 4731POPC   C4A59898  30.852  37.366   7.377
 4731POPC   C1B59899  30.751  37.877   6.205
 4731POPC   C2B59900  31.071  38.052   6.495
 4731POPC   C3B59901  31.104  37.945   6.949
 4731POPC   C4B59902  30.746  37.865   7.262
 4732POPC   NC359903  22.105  26.138   5.212
 4732POPC   PO459904  22.284  25.508   5.245
 4732POPC   GL159905  22.160  25.849   5.610
 4732POPC   GL259906  22.394  26.172   5.690
 4732POPC   C1A59907  22.012  25.887   6.038
 4732POPC   D2A59908  22.299  25.779   6.375
 4732POPC   C3A59909  22.217  25.820   6.846
 4732POPC   C4A59910  22.296  25.925   7.304
 4732POPC   C1B59911  22.313  26.279   6.145
 4732POPC   C2B59912  22.006  26.184   6.487
 4732POPC   C3B59913  21.929  26.262   6.928
 4732POPC   C4B59914  22.203  26.425   7.263
 4733POPC   NC359915   1.141  13.267   5.342
 4733POPC   PO459916   1.578  12.679   5.349
 4733POPC   GL159917   1.290  12.801   5.737
 4733POPC   GL259918   1.034  13.086   5.797
 4733POPC   C1A59919   1.118  12.676   6.174
 4733POPC   D2A59920   1.154  12.536   6.637
 4733POPC   C3A59921   1.270  12.736   7.058
 4733POPC   C4A59922   1.521  13.086   7.263
 4733POPC   C1B59923   1.264  13.158   6.164
 4733POPC   C2B59924   1.080  13.080   6.531
 4733POPC   C3B59925   1.193  13.241   6.893
 4733POPC   C4B59926   0.998  13.161   7.267
 4734POPC   NC359927  15.224  10.261   5.727
 4734POPC   PO459928  14.955   9.619   5.481
 4734POPC   GL159929  15.164   9.757   5.847
 4734POPC   GL259930  15.507   9.687   5.797
 4734POPC   C1A59931  15.119   9.840   6.299
 4734POPC   D2A59932  15.066   9.610   6.682
 4734POPC   C3A59933  15.243   9.703   7.053
 4734POPC   C4A59934  15.076   9.708   7.469
 4734POPC   C1B59935  15.602   9.936   6.193
 4734POPC   C2B59936  15.469  10.066   6.617
 4734POPC   C3B59937  15.631  10.038   7.037
 4734POPC   C4B59938  15.555   9.822   7.447
 4735POPC   NC359939   0.081   4.511   5.138
 4735POPC   PO459940  44.774   4.035   5.510
 4735POPC   GL159941  44.640   4.221   5.840
 4735POPC   GL259942  44.905   4.168   6.073
 4735POPC   C1A59943  44.470   4.389   6.187
 4735POPC   D2A59944  44.649   4.303   6.546
 4735POPC   C3A59945  44.599   4.545   6.866
 4735POPC   C4A59946  44.623   4.333   7.248
 4735POPC   C1B59947   0.062   4.529   6.297
 4735POPC   C2B59948   0.067   4.684   6.706
 4735POPC   C3B59949   0.033   4.671   7.136
 4735POPC   C4B59950  44.894   4.676   7.550
 4736POPC   NC359951  19.707  26.505   5.534
 4736POPC   PO459952  19.899  25.808   5.552
 4736POPC   GL159953  19.825  26.093   5.853
 4736POPC   GL259954  20.176  26.179   5.866
 4736POPC   C1A59955  19.621  26.082   6.268
 4736POPC   D2A59956  19.558  26.211   6.709
 4736POPC   C3A59957  19.704  26.016   7.080
 4736POPC   C4A59958  19.994  26.076   7.378
 4736POPC   C1B59959  19.956  26.469   6.173
 4736POPC   C2B59960  19.922  26.637   6.585
 4736POPC   C3B59961  20.031  26.411   6.936
 4736POPC   C4B59962  20.138  26.553   7.306
 4737POPC   NC359963  19.316   2.494   5.442
 4737POPC   PO459964  19.281   1.818   5.298
 4737POPC   GL159965  19.065   1.975   5.734
 4737POPC   GL259966  18.919   2.332   5.755
 4737POPC   C1A59967  18.845   1.732   6.124
 4737POPC   D2A59968  18.739   1.799   6.602
 4737POPC   C3A59969  18.786   1.577   7.026
 4737POPC   C4A59970  18.927   1.618   7.484
 4737POPC   C1B59971  18.941   2.225   6.216
 4737POPC   C2B59972  19.197   2.033   6.545
 4737POPC   C3B59973  19.185   1.933   6.990
 4737POPC   C4B59974  18.934   2.230   7.241
 4738POPC   NC359975   9.077  29.623   5.048
 4738POPC   PO459976   8.608  30.107   5.189
 4738POPC   GL159977   8.903  29.955   5.548
 4738POPC   GL259978   9.119  29.625   5.587
 4738POPC   C1A59979   8.950  30.089   6.000
 4738POPC   D2A59980   8.718  30.237   6.380
 4738POPC   C3A59981   8.794  30.006   6.787
 4738POPC   C4A59982   8.762  30.045   7.229
 4738POPC   C1B59983   9.244  29.658   6.036
 4738POPC   C2B59984   9.138  29.748   6.476
 4738POPC   C3B59985   9.319  29.883   6.894
 4738POPC   C4B59986   9.243  29.882   7.322
 4739POPC   NC359987   4.213  10.348   5.458
 4739POPC   PO459988   4.201  10.959   5.608
 4739POPC   GL159989   4.062  10.638   5.922
 4739POPC   GL259990   3.840  10.305   5.812
 4739POPC   C1A59991   4.119  10.690   6.394
 4739POPC   D2A59992   4.029  10.857   6.839
 4739POPC   C3A59993   4.407  10.758   7.132
 4739POPC   C4A59994   4.708  10.384   7.149
 4739POPC   C1B59995   4.035  10.159   6.176
 4739POPC   C2B59996   4.286  10.191   6.541
 4739POPC   C3B59997   4.198  10.325   6.943
 4739POPC   C4B59998   3.970  10.110   7.231
 4740POPC   NC359999  34.162   5.620   5.406
 4740POPC   PO460000  34.533   6.196   5.216
 4740POPC   GL160001  34.524   5.971   5.626
 4740POPC   GL260002  34.262   6.200   5.728
 4740POPC   C1A60003  34.648   5.833   6.096
 4740POPC   D2A60004  34.706   5.539   6.486
 4740POPC   C3A60005  34.640   5.700   6.907
 4740POPC   C4A60006  34.771   5.812   7.322
 4740POPC   C1B60007  34.420   6.304   6.158
 4740POPC   C2B60008  34.395   6.099   6.555
 4740POPC   C3B60009  34.383   6.245   6.961
 4740POPC   C4B60010  34.281   5.961   7.223
 4741POPC   NC360011  21.134   7.202   5.366
 4741POPC   PO460012  21.787   7.408   5.324
 4741POPC   GL160013  21.666   7.600   5.746
 4741POPC   GL260014  21.401   7.359   5.769
 4741POPC   C1A60015  21.562   7.556   6.228
 4741POPC   D2A60016  21.303   7.428   6.614
 4741POPC   C3A60017  21.368   7.610   7.020
 4741POPC   C4A60018  21.013   7.817   7.207
 4741POPC   C1B60019  21.554   7.077   6.087
 4741POPC   C2B60020  21.647   7.085   6.493
 4741POPC   C3B60021  21.585   7.050   6.964
 4741POPC   C4B60022  21.346   7.170   7.310
 4742POPC   NC360023  29.497   9.220   5.387
 4742POPC   PO460024  28.809   9.059   5.344
 4742POPC   GL160025  29.026   8.900   5.751
 4742POPC   GL260026  29.388   8.959   5.791
 4742POPC   C1A60027  29.083   8.982   6.225
 4742POPC   D2A60028  29.097   8.782   6.666
 4742POPC   C3A60029  28.931   9.081   6.984
 4742POPC   C4A60030  29.000   9.271   7.363
 4742POPC   C1B60031  29.627   9.027   6.138
 4742POPC   C2B60032  29.544   8.977   6.536
 4742POPC   C3B60033  29.538   8.765   6.926
 4742POPC   C4B60034  29.413   9.039   7.211
 4743POPC   NC360035  25.614  16.994   5.502
 4743POPC   PO460036  26.300  17.139   5.356
 4743POPC   GL160037  26.284  16.856   5.708
 4743POPC   GL260038  25.945  16.784   5.850
 4743POPC   C1A60039  26.376  16.572   6.072
 4743POPC   D2A60040  26.396  16.458   6.516
 4743POPC   C3A60041  26.046  16.627   6.744
 4743POPC   C4A60042  26.026  16.969   7.073
 4743POPC   C1B60043  25.752  16.845   6.269
 4743POPC   C2B60044  25.560  16.725   6.663
 4743POPC   C3B60045  25.666  16.617   7.116
 4743POPC   C4B60046  25.602  16.893   7.510
 4744POPC   NC360047  35.594   9.495   5.264
 4744POPC   PO460048  34.999   9.623   5.544
 4744POPC   GL160049  35.251   9.711   5.901
 4744POPC   GL260050  35.514   9.958   5.807
 4744POPC   C1A60051  35.221   9.705   6.350
 4744POPC   D2A60052  35.413   9.812   6.739
 4744POPC   C3A60053  35.115   9.854   7.070
 4744POPC   C4A60054  35.141   9.457   7.209
 4744POPC   C1B60055  35.489  10.125   6.237
 4744POPC   C2B60056  35.668  10.239   6.640
 4744POPC   C3B60057  35.516  10.204   7.055
 4744POPC   C4B60058  35.592  10.152   7.487
 4745POPC   NC360059  15.626  41.435   5.381
 4745POPC   PO460060  16.248  41.736   5.190
 4745POPC   GL160061  16.146  41.587   5.643
 4745POPC   GL260062  15.998  41.804   5.931
 4745POPC   C1A60063  16.151  41.329   6.066
 4745POPC   D2A60064  16.090  41.429   6.540
 4745POPC   C3A60065  16.192  41.526   6.993
 4745POPC   C4A60066  16.042  41.627   7.442
 4745POPC   C1B60067  15.693  41.540   6.241
 4745POPC   C2B60068  15.588  41.322   6.643
 4745POPC   C3B60069  15.699  41.438   7.058
 4745POPC   C4B60070  15.511  41.725   7.353
 4746POPC   NC360071  30.304  17.412   5.331
 4746POPC   PO460072  30.755  17.885   5.444
 4746POPC   GL160073  30.701  17.575   5.779
 4746POPC   GL260074  30.488  17.259   5.783
 4746POPC   C1A60075  30.698  17.744   6.200
 4746POPC   D2A60076  30.565  17.979   6.557
 4746POPC   C3A60077  30.810  17.731   6.815
 4746POPC   C4A60078  30.799  17.528   7.251
 4746POPC   C1B60079  30.686  17.189   6.178
 4746POPC   C2B60080  30.626  17.320   6.595
 4746POPC   C3B60081  30.640  17.126   6.981
 4746POPC   C4B60082  30.410  17.231   7.357
 4747POPC   NC360083  24.814   7.696   5.518
 4747POPC   PO460084  25.396   7.471   5.325
 4747POPC   GL160085  25.338   7.647   5.719
 4747POPC   GL260086  25.123   7.382   5.801
 4747POPC   C1A60087  25.403   7.636   6.186
 4747POPC   D2A60088  25.289   7.703   6.637
 4747POPC   C3A60089  25.538   7.481   6.927
 4747POPC   C4A60090  25.424   7.455   7.328
 4747POPC   C1B60091  25.290   7.123   6.130
 4747POPC   C2B60092  25.287   7.190   6.557
 4747POPC   C3B60093  25.088   7.181   6.952
 4747POPC   C4B60094  25.020   7.150   7.381
 4748POPC   NC360095  31.156  16.088   5.642
 4748POPC   PO460096  30.680  16.050   5.175
 4748POPC   GL160097  30.677  15.933   5.680
 4748POPC   GL260098  30.644  16.206   5.885
 4748POPC   C1A60099  30.803  15.811   6.143
 4748POPC   D2A60100  30.906  15.733   6.586
 4748POPC   C3A60101  30.574  15.799   6.913
 4748POPC   C4A60102  30.638  15.700   7.371
 4748POPC   C1B60103  30.426  16.192   6.261
 4748POPC   C2B60104  30.722  16.249   6.583
 4748POPC   C3B60105  30.877  16.237   6.986
 4748POPC   C4B60106  30.543  16.214   7.251
 4749POPC   NC360107  30.915  39.049   5.407
 4749POPC   PO460108  30.192  39.126   5.486
 4749POPC   GL160109  30.510  39.171   5.811
 4749POPC   GL260110  30.784  39.407   5.827
 4749POPC   C1A60111  30.430  39.397   6.211
 4749POPC   D2A60112  30.306  39.519   6.646
 4749POPC   C3A60113  30.464  39.313   7.003
 4749POPC   C4A60114  30.543  39.145   7.377
 4749POPC   C1B60115  30.939  39.273   6.247
 4749POPC   C2B60116  31.092  39.152   6.646
 4749POPC   C3B60117  30.969  39.219   7.064
 4749POPC   C4B60118  31.033  39.087   7.509
 4750POPC   NC360119  10.485  23.052   5.502
 4750POPC   PO460120  10.564  22.441   5.221
 4750POPC   GL160121  10.688  22.621   5.734
 4750POPC   GL260122  10.722  22.975   5.938
 4750POPC   C1A60123  10.507  22.628   6.218
 4750POPC   D2A60124  10.612  22.888   6.547
 4750POPC   C3A60125  10.596  22.693   6.919
 4750POPC   C4A60126  10.615  22.856   7.291
 4750POPC   C1B60127  10.360  23.188   6.181
 4750POPC   C2B60128  10.231  23.404   6.598
 4750POPC   C3B60129  10.330  23.160   6.971
 4750POPC   C4B60130  10.169  23.058   7.385
 4751POPC   NC360131  17.330  23.198   5.338
 4751POPC   PO460132  17.750  22.661   5.232
 4751POPC   GL160133  17.651  22.737   5.692
 4751POPC   GL260134  17.559  23.072   5.772
 4751POPC   C1A60135  17.570  22.750   6.170
 4751POPC   D2A60136  17.572  22.957   6.582
 4751POPC   C3A60137  17.286  23.035   6.929
 4751POPC   C4A60138  17.163  22.764   7.269
 4751POPC   C1B60139  17.804  23.279   6.070
 4751POPC   C2B60140  17.937  23.341   6.490
 4751POPC   C3B60141  17.740  23.351   6.909
 4751POPC   C4B60142  17.465  23.390   7.276
 4752POPC   NC360143  11.758  13.413   5.583
 4752POPC   PO460144  11.322  13.972   5.460
 4752POPC   GL160145  11.448  13.797   5.829
 4752POPC   GL260146  11.769  13.833   5.910
 4752POPC   C1A60147  11.334  13.781   6.271
 4752POPC   D2A60148  11.283  13.470   6.628
 4752POPC   C3A60149  11.301  13.612   7.074
 4752POPC   C4A60150  11.603  13.690   7.454
 4752POPC   C1B60151  11.761  13.493   6.261
 4752POPC   C2B60152  11.779  13.362   6.708
 4752POPC   C3B60153  11.692  13.297   7.165
 4752POPC   C4B60154  11.671  13.222   7.648
 4753POPC   NC360155   8.634  37.899   5.353
 4753POPC   PO460156   9.029  37.358   5.447
 4753POPC   GL160157   8.890  37.653   5.784
 4753POPC   GL260158   9.114  37.929   5.917
 4753POPC   C1A60159   8.879  37.633   6.251
 4753POPC   D2A60160   8.775  37.446   6.626
 4753POPC   C3A60161   8.707  37.606   7.051
 4753POPC   C4A60162   9.022  37.567   7.374
 4753POPC   C1B60163   9.194  38.039   6.335
 4753POPC   C2B60164   8.892  37.960   6.677
 4753POPC   C3B60165   8.871  38.099   7.107
 4753POPC   C4B60166   8.808  37.994   7.560
 4754POPC   NC360167  15.540  13.117   5.542
 4754POPC   PO460168  16.077  12.723   5.475
 4754POPC   GL160169  16.026  12.667   5.873
 4754POPC   GL260170  15.702  12.752   5.916
 4754POPC   C1A60171  16.116  12.874   6.258
 4754POPC   D2A60172  16.181  12.710   6.646
 4754POPC   C3A60173  16.220  12.914   6.985
 4754POPC   C4A60174  16.083  12.759   7.330
 4754POPC   C1B60175  15.621  13.024   6.265
 4754POPC   C2B60176  15.764  12.995   6.704
 4754POPC   C3B60177  15.787  13.148   7.130
 4754POPC   C4B60178  15.497  13.280   7.443
 4755POPC   NC360179  20.369  36.318   5.327
 4755POPC   PO460180  20.974  36.042   5.284
 4755POPC   GL160181  20.694  35.967   5.672
 4755POPC   GL260182  20.375  36.125   5.798
 4755POPC   C1A60183  20.711  35.880   6.134
 4755POPC   D2A60184  20.799  35.734   6.552
 4755POPC   C3A60185  20.582  35.967   6.831
 4755POPC   C4A60186  20.516  36.050   7.242
 4755POPC   C1B60187  20.537  36.383   6.147
 4755POPC   C2B60188  20.396  36.382   6.577
 4755POPC   C3B60189  20.521  36.503   6.987
 4755POPC   C4B60190  20.295  36.478   7.386
 4756POPC   NC360191  26.971   1.193   5.521
 4756POPC   PO460192  26.345   1.682   5.482
 4756POPC   GL160193  26.571   1.343   5.824
 4756POPC   GL260194  26.964   1.334   5.995
 4756POPC   C1A60195  26.632   1.078   6.229
 4756POPC   D2A60196  26.898   1.229   6.556
 4756POPC   C3A60197  26.709   1.230   6.944
 4756POPC   C4A60198  26.564   0.872   7.189
 4756POPC   C1B60199  27.310   1.435   6.278
 4756POPC   C2B60200  27.274   1.582   6.671
 4756POPC   C3B60201  27.230   1.353   7.041
 4756POPC   C4B60202  26.964   1.278   7.386
 4757POPC   NC360203  33.248   2.930   5.380
 4757POPC   PO460204  33.025   2.269   5.382
 4757POPC   GL160205  33.023   2.581   5.711
 4757POPC   GL260206  33.358   2.585   5.812
 4757POPC   C1A60207  32.914   2.709   6.143
 4757POPC   D2A60208  32.863   2.554   6.589
 4757POPC   C3A60209  33.054   2.832   6.894
 4757POPC   C4A60210  33.161   2.852   7.311
 4757POPC   C1B60211  33.423   2.827   6.219
 4757POPC   C2B60212  33.478   3.052   6.621
 4757POPC   C3B60213  33.575   2.867   7.044
 4757POPC   C4B60214  33.550   2.498   7.335
 4758POPC   NC360215  26.448  41.701   5.445
 4758POPC   PO460216  25.875  41.313   5.444
 4758POPC   GL160217  26.081  41.532   5.775
 4758POPC   GL260218  26.372  41.350   5.818
 4758POPC   C1A60219  26.229  41.721   6.181
 4758POPC   D2A60220  26.013  41.811   6.573
 4758POPC   C3A60221  26.193  41.611   6.947
 4758POPC   C4A60222  26.074  41.704   7.356
 4758POPC   C1B60223  26.547  41.280   6.196
 4758POPC   C2B60224  26.529  41.408   6.607
 4758POPC   C3B60225  26.450  41.152   6.965
 4758POPC   C4B60226  26.304  41.253   7.336
 4759POPC   NC360227  42.580  12.436   4.976
 4759POPC   PO460228  43.001  12.267   5.503
 4759POPC   GL160229  43.264  12.155   5.855
 4759POPC   GL260230  43.325  11.809   5.935
 4759POPC   C1A60231  43.454  12.269   6.208
 4759POPC   D2A60232  43.290  12.101   6.559
 4759POPC   C3A60233  43.370  12.279   6.958
 4759POPC   C4A60234  43.169  12.154   7.320
 4759POPC   C1B60235  42.966  11.874   6.176
 4759POPC   C2B60236  42.865  11.830   6.583
 4759POPC   C3B60237  43.075  11.807   6.945
 4759POPC   C4B60238  42.836  11.783   7.291
 4760POPC   NC360239   6.327   9.563   5.022
 4760POPC   PO460240   6.943   9.677   5.328
 4760POPC   GL160241   6.605   9.638   5.675
 4760POPC   GL260242   6.377   9.335   5.591
 4760POPC   C1A60243   6.656   9.697   6.137
 4760POPC   D2A60244   6.739   9.504   6.535
 4760POPC   C3A60245   6.872   9.820   6.817
 4760POPC   C4A60246   6.674   9.929   7.180
 4760POPC   C1B60247   6.255   9.400   6.038
 4760POPC   C2B60248   6.217   9.516   6.466
 4760POPC   C3B60249   6.369   9.675   6.835
 4760POPC   C4B60250   6.253   9.642   7.255
 4761POPC   NC360251   8.236  19.073   5.336
 4761POPC   PO460252   8.236  19.710   5.582
 4761POPC   GL160253   8.277  19.261   5.822
 4761POPC   GL260254   8.302  18.858   5.776
 4761POPC   C1A60255   8.373  19.106   6.250
 4761POPC   D2A60256   8.337  19.258   6.678
 4761POPC   C3A60257   8.032  19.072   6.906
 4761POPC   C4A60258   7.819  19.096   7.283
 4761POPC   C1B60259   8.149  18.669   6.123
 4761POPC   C2B60260   8.162  18.693   6.531
 4761POPC   C3B60261   8.261  18.625   6.941
 4761POPC   C4B60262   8.263  18.762   7.327
 4762POPC   NC360263  29.598   2.864   5.562
 4762POPC   PO460264  29.092   2.759   5.151
 4762POPC   GL160265  29.080   2.795   5.625
 4762POPC   GL260266  29.284   2.562   5.852
 4762POPC   C1A60267  28.828   2.717   6.024
 4762POPC   D2A60268  28.823   2.836   6.462
 4762POPC   C3A60269  29.052   2.606   6.785
 4762POPC   C4A60270  28.893   2.441   7.171
 4762POPC   C1B60271  29.320   2.924   6.155
 4762POPC   C2B60272  29.386   3.000   6.600
 4762POPC   C3B60273  29.244   3.015   7.025
 4762POPC   C4B60274  28.859   2.964   7.194
 4763POPC   NC360275   5.382   7.469   5.406
 4763POPC   PO460276   4.715   7.462   5.531
 4763POPC   GL160277   5.038   7.346   5.826
 4763POPC   GL260278   5.374   7.216   5.859
 4763POPC   C1A60279   5.027   7.311   6.267
 4763POPC   D2A60280   4.924   7.564   6.613
 4763POPC   C3A60281   4.955   7.401   7.030
 4763POPC   C4A60282   5.306   7.453   7.338
 4763POPC   C1B60283   5.518   7.109   6.293
 4763POPC   C2B60284   5.360   7.275   6.689
 4763POPC   C3B60285   5.307   7.020   7.070
 4763POPC   C4B60286   5.486   6.987   7.493
 4764POPC   NC360287   9.938  27.731   5.090
 4764POPC   PO460288   9.417  27.405   5.437
 4764POPC   GL160289   9.675  27.475   5.828
 4764POPC   GL260290   9.941  27.738   5.795
 4764POPC   C1A60291   9.723  27.423   6.292
 4764POPC   D2A60292   9.507  27.654   6.638
 4764POPC   C3A60293   9.563  27.498   7.057
 4764POPC   C4A60294   9.966  27.519   7.219
 4764POPC   C1B60295   9.707  27.928   6.175
 4764POPC   C2B60296   9.784  28.106   6.608
 4764POPC   C3B60297   9.765  27.986   7.032
 4764POPC   C4B60298  10.001  28.047   7.390
 4765POPC   NC360299  26.396   0.493   5.353
 4765POPC   PO460300  25.798   0.203   5.408
 4765POPC   GL160301  26.055   0.206   5.793
 4765POPC   GL260302  26.093   0.558   5.782
 4765POPC   C1A60303  26.225   0.355   6.224
 4765POPC   D2A60304  26.032   0.560   6.574
 4765POPC   C3A60305  26.275   0.537   6.919
 4765POPC   C4A60306  26.259   0.351   7.303
 4765POPC   C1B60307  25.796   0.672   6.133
 4765POPC   C2B60308  25.778   0.995   6.487
 4765POPC   C3B60309  25.798   0.987   6.933
 4765POPC   C4B60310  26.058   0.832   7.289
 4766POPC   NC360311  22.840  27.746   5.324
 4766POPC   PO460312  23.381  27.233   5.304
 4766POPC   GL160313  23.264  27.547   5.610
 4766POPC   GL260314  23.079  27.322   5.836
 4766POPC   C1A60315  23.214  27.786   6.003
 4766POPC   D2A60316  23.100  27.604   6.435
 4766POPC   C3A60317  23.162  27.763   6.870
 4766POPC   C4A60318  23.151  27.452   7.221
 4766POPC   C1B60319  22.738  27.577   6.057
 4766POPC   C2B60320  22.577  27.541   6.482
 4766POPC   C3B60321  22.720  27.473   6.910
 4766POPC   C4B60322  22.752  27.795   7.213
 4767POPC   NC360323  11.024  43.070   5.467
 4767POPC   PO460324  11.681  43.039   5.539
 4767POPC   GL160325  11.376  42.935   5.889
 4767POPC   GL260326  10.993  42.900   5.944
 4767POPC   C1A60327  11.380  43.025   6.333
 4767POPC   D2A60328  11.446  42.920   6.766
 4767POPC   C3A60329  11.620  43.240   7.054
 4767POPC   C4A60330  11.541  43.187   7.476
 4767POPC   C1B60331  10.944  42.774   6.383
 4767POPC   C2B60332  10.926  43.088   6.708
 4767POPC   C3B60333  11.116  43.147   7.114
 4767POPC   C4B60334  11.049  42.977   7.507
 4768POPC   NC360335  22.406  26.820   5.492
 4768POPC   PO460336  23.032  26.684   5.747
 4768POPC   GL160337  22.743  26.500   5.986
 4768POPC   GL260338  22.510  26.751   5.996
 4768POPC   C1A60339  22.803  26.594   6.419
 4768POPC   D2A60340  23.222  26.799   6.576
 4768POPC   C3A60341  23.140  26.996   6.971
 4768POPC   C4A60342  22.997  26.676   7.225
 4768POPC   C1B60343  22.788  27.066   6.199
 4768POPC   C2B60344  22.813  27.098   6.586
 4768POPC   C3B60345  22.622  26.878   6.900
 4768POPC   C4B60346  22.684  27.073   7.263
 4769POPC   NC360347  36.092   0.837   5.593
 4769POPC   PO460348  36.043   1.286   5.151
 4769POPC   GL160349  36.026   1.312   5.708
 4769POPC   GL260350  35.795   1.492   5.933
 4769POPC   C1A60351  36.259   1.348   6.153
 4769POPC   D2A60352  36.014   1.404   6.568
 4769POPC   C3A60353  36.141   1.449   7.008
 4769POPC   C4A60354  35.986   1.352   7.425
 4769POPC   C1B60355  35.812   1.101   6.203
 4769POPC   C2B60356  35.754   0.931   6.625
 4769POPC   C3B60357  35.852   1.006   7.080
 4769POPC   C4B60358  35.841   0.854   7.558
 4770POPC   NC360359  34.316  18.519   5.408
 4770POPC   PO460360  34.772  18.909   5.652
 4770POPC   GL160361  34.694  19.020   6.018
 4770POPC   GL260362  34.381  18.856   6.010
 4770POPC   C1A60363  34.685  19.064   6.440
 4770POPC   D2A60364  34.745  19.264   6.797
 4770POPC   C3A60365  34.481  19.052   7.079
 4770POPC   C4A60366  34.504  18.867   7.468
 4770POPC   C1B60367  34.270  19.262   6.213
 4770POPC   C2B60368  34.235  19.525   6.580
 4770POPC   C3B60369  34.365  19.544   7.026
 4770POPC   C4B60370  34.326  19.346   7.498
 4771POPC   NC360371  19.038  34.209   5.464
 4771POPC   PO460372  18.789  34.802   5.569
 4771POPC   GL160373  19.033  34.752   5.936
 4771POPC   GL260374  19.155  34.410   5.916
 4771POPC   C1A60375  19.176  34.778   6.375
 4771POPC   D2A60376  18.954  34.592   6.750
 4771POPC   C3A60377  19.021  34.866   7.095
 4771POPC   C4A60378  19.434  34.993   7.236
 4771POPC   C1B60379  18.878  34.359   6.268
 4771POPC   C2B60380  18.785  34.022   6.537
 4771POPC   C3B60381  18.667  34.144   6.927
 4771POPC   C4B60382  18.893  34.393   7.236
 4772POPC   NC360383  11.661  20.555   5.468
 4772POPC   PO460384  12.187  20.898   5.553
 4772POPC   GL160385  12.079  20.566   5.822
 4772POPC   GL260386  12.438  20.428   5.845
 4772POPC   C1A60387  11.853  20.507   6.217
 4772POPC   D2A60388  11.947  20.576   6.636
 4772POPC   C3A60389  11.696  20.661   6.999
 4772POPC   C4A60390  11.757  20.550   7.462
 4772POPC   C1B60391  12.402  20.664   6.222
 4772POPC   C2B60392  12.457  20.537   6.663
 4772POPC   C3B60393  12.237  20.555   7.073
 4772POPC   C4B60394  12.416  20.729   7.437
 4773POPC   NC360395  13.824   1.721   5.363
 4773POPC   PO460396  13.500   2.200   5.237
 4773POPC   GL160397  13.548   2.026   5.661
 4773POPC   GL260398  13.618   2.348   5.759
 4773POPC   C1A60399  13.549   1.706   6.015
 4773POPC   D2A60400  13.841   1.728   6.371
 4773POPC   C3A60401  13.755   1.766   6.821
 4773POPC   C4A60402  13.409   1.769   7.113
 4773POPC   C1B60403  13.904   2.172   6.063
 4773POPC   C2B60404  13.863   2.237   6.507
 4773POPC   C3B60405  13.924   2.248   6.934
 4773POPC   C4B60406  13.562   2.250   7.211
 4774POPC   NC360407  14.472  35.568   5.433
 4774POPC   PO460408  14.071  35.050   5.522
 4774POPC   GL160409  14.345  35.239   5.854
 4774POPC   GL260410  14.508  35.593   5.919
 4774POPC   C1A60411  14.271  35.367   6.285
 4774POPC   D2A60412  14.510  35.467   6.642
 4774POPC   C3A60413  14.277  35.358   6.953
 4774POPC   C4A60414  13.926  35.357   7.223
 4774POPC   C1B60415  14.653  35.804   6.273
 4774POPC   C2B60416  14.890  35.784   6.672
 4774POPC   C3B60417  14.797  35.650   7.151
 4774POPC   C4B60418  14.776  35.604   7.662
 4775POPC   NC360419  19.624  22.808   5.384
 4775POPC   PO460420  20.206  23.117   5.432
 4775POPC   GL160421  19.946  22.991   5.737
 4775POPC   GL260422  19.646  23.211   5.736
 4775POPC   C1A60423  19.990  23.050   6.155
 4775POPC   D2A60424  20.255  23.169   6.481
 4775POPC   C3A60425  19.969  23.212   6.822
 4775POPC   C4A60426  19.881  22.925   7.118
 4775POPC   C1B60427  19.468  23.129   6.156
 4775POPC   C2B60428  19.419  22.930   6.570
 4775POPC   C3B60429  19.419  23.090   6.976
 4775POPC   C4B60430  19.310  23.470   7.113
 4776POPC   NC360431  16.554  44.913   5.488
 4776POPC   PO460432  16.362  44.218   5.516
 4776POPC   GL160433  16.573  44.401   5.900
 4776POPC   GL260434  16.576  44.753   5.956
 4776POPC   C1A60435  16.903  44.434   6.232
 4776POPC   D2A60436  16.804  44.441   6.651
 4776POPC   C3A60437  16.953  44.683   6.950
 4776POPC   C4A60438  16.916  44.464   7.331
 4776POPC   C1B60439  16.594  44.824   6.346
 4776POPC   C2B60440  16.626  44.999   6.681
 4776POPC   C3B60441  16.448  44.798   6.986
 4776POPC   C4B60442  16.656  44.912   7.306
 4777POPC   NC360443  19.527  20.657   5.440
 4777POPC   PO460444  18.816  20.344   5.498
 4777POPC   GL160445  19.067  20.586   5.780
 4777POPC   GL260446  19.368  20.412   5.880
 4777POPC   C1A60447  19.017  20.570   6.238
 4777POPC   D2A60448  18.837  20.406   6.655
 4777POPC   C3A60449  18.931  20.575   7.063
 4777POPC   C4A60450  19.280  20.542   7.332
 4777POPC   C1B60451  19.488  20.786   6.076
 4777POPC   C2B60452  19.366  20.890   6.468
 4777POPC   C3B60453  19.376  20.758   6.867
 4777POPC   C4B60454  19.607  20.960   7.188
 4778POPC   NC360455  10.004  12.709   5.304
 4778POPC   PO460456   9.291  12.584   5.517
 4778POPC   GL160457   9.539  12.848   5.812
 4778POPC   GL260458   9.902  12.807   5.802
 4778POPC   C1A60459   9.635  12.961   6.264
 4778POPC   D2A60460   9.681  12.739   6.678
 4778POPC   C3A60461   9.498  12.949   7.035
 4778POPC   C4A60462   9.608  13.325   7.227
 4778POPC   C1B60463  10.152  12.973   6.125
 4778POPC   C2B60464  10.060  13.172   6.502
 4778POPC   C3B60465   9.993  13.066   6.937
 4778POPC   C4B60466  10.273  12.894   7.200
 4779POPC   NC360467  29.734  36.697   5.198
 4779POPC   PO460468  29.996  37.298   5.522
 4779POPC   GL160469  29.919  37.156   5.950
 4779POPC   GL260470  29.648  36.903   5.883
 4779POPC   C1A60471  29.865  36.963   6.379
 4779POPC   D2A60472  30.096  36.649   6.624
 4779POPC   C3A60473  30.124  36.821   7.010
 4779POPC   C4A60474  30.100  37.256   7.116
 4779POPC   C1B60475  29.385  36.764   6.253
 4779POPC   C2B60476  29.352  36.877   6.660
 4779POPC   C3B60477  29.676  37.056   6.908
 4779POPC   C4B60478  29.769  36.966   7.364
 4780POPC   NC360479  34.122  22.303   5.531
 4780POPC   PO460480  33.875  21.714   5.296
 4780POPC   GL160481  34.012  21.850   5.720
 4780POPC   GL260482  33.728  22.033   5.819
 4780POPC   C1A60483  34.021  21.819   6.179
 4780POPC   D2A60484  34.026  21.665   6.611
 4780POPC   C3A60485  34.036  21.995   6.913
 4780POPC   C4A60486  33.957  22.011   7.332
 4780POPC   C1B60487  33.523  22.091   6.228
 4780POPC   C2B60488  33.576  21.966   6.661
 4780POPC   C3B60489  33.507  22.092   7.089
 4780POPC   C4B60490  33.281  22.426   7.296
 4781POPC   NC360491  35.586  42.218   5.469
 4781POPC   PO460492  36.198  42.448   5.339
 4781POPC   GL160493  36.086  42.371   5.783
 4781POPC   GL260494  35.787  42.576   5.781
 4781POPC   C1A60495  35.967  42.306   6.247
 4781POPC   D2A60496  35.963  42.197   6.724
 4781POPC   C3A60497  36.320  42.239   7.016
 4781POPC   C4A60498  36.347  42.167   7.457
 4781POPC   C1B60499  35.743  42.831   6.129
 4781POPC   C2B60500  35.814  42.716   6.535
 4781POPC   C3B60501  35.980  42.731   6.928
 4781POPC   C4B60502  36.008  42.513   7.295
 4782POPC   NC360503   8.131   0.312   5.067
 4782POPC   PO460504   8.588   0.770   5.415
 4782POPC   GL160505   8.342   0.542   5.792
 4782POPC   GL260506   8.079   0.228   5.849
 4782POPC   C1A60507   8.054   0.628   6.171
 4782POPC   D2A60508   8.046   0.460   6.605
 4782POPC   C3A60509   8.018   0.707   6.977
 4782POPC   C4A60510   8.192   0.731   7.400
 4782POPC   C1B60511   8.059   0.085   6.256
 4782POPC   C2B60512   8.141  44.963   6.691
 4782POPC   C3B60513   8.120   0.209   7.081
 4782POPC   C4B60514   7.997   0.272   7.540
 4783POPC   NC360515  17.087  32.798   5.570
 4783POPC   PO460516  17.784  33.049   5.570
 4783POPC   GL160517  17.463  33.047   5.824
 4783POPC   GL260518  17.484  33.353   5.934
 4783POPC   C1A60519  17.430  32.884   6.235
 4783POPC   D2A60520  17.685  32.976   6.637
 4783POPC   C3A60521  17.664  32.917   7.101
 4783POPC   C4A60522  17.803  32.843   7.554
 4783POPC   C1B60523  17.370  33.362   6.369
 4783POPC   C2B60524  17.181  33.078   6.696
 4783POPC   C3B60525  17.175  33.128   7.120
 4783POPC   C4B60526  17.439  33.191   7.471
 4784POPC   NC360527   9.184  42.514   5.636
 4784POPC   PO460528   9.712  42.252   5.238
 4784POPC   GL160529   9.718  42.311   5.730
 4784POPC   GL260530   9.927  42.031   5.848
 4784POPC   C1A60531   9.904  42.508   6.151
 4784POPC   D2A60532   9.917  42.726   6.597
 4784POPC   C3A60533   9.686  42.640   7.029
 4784POPC   C4A60534   9.707  42.311   7.429
 4784POPC   C1B60535   9.692  42.044   6.259
 4784POPC   C2B60536   9.665  42.241   6.682
 4784POPC   C3B60537   9.551  41.995   7.073
 4784POPC   C4B60538   9.598  41.718   7.486
 4785POPC   NC360539   7.596  32.611   5.548
 4785POPC   PO460540   7.541  31.914   5.496
 4785POPC   GL160541   7.466  32.186   5.811
 4785POPC   GL260542   7.120  32.276   5.883
 4785POPC   C1A60543   7.505  32.365   6.213
 4785POPC   D2A60544   7.451  32.181   6.602
 4785POPC   C3A60545   7.370  32.418   6.937
 4785POPC   C4A60546   7.517  32.398   7.327
 4785POPC   C1B60547   7.196  31.952   6.203
 4785POPC   C2B60548   7.275  31.701   6.574
 4785POPC   C3B60549   7.127  31.910   6.906
 4785POPC   C4B60550   7.132  32.045   7.287
 4786POPC   NC360551  18.656  30.166   5.276
 4786POPC   PO460552  19.256  29.816   5.476
 4786POPC   GL160553  18.902  29.977   5.736
 4786POPC   GL260554  18.916  29.716   5.977
 4786POPC   C1A60555  18.831  30.237   6.126
 4786POPC   D2A60556  18.778  30.129   6.564
 4786POPC   C3A60557  19.139  30.178   6.837
 4786POPC   C4A60558  18.930  30.109   7.233
 4786POPC   C1B60559  19.164  29.861   6.323
 4786POPC   C2B60560  19.439  29.754   6.653
 4786POPC   C3B60561  19.424  29.798   7.079
 4786POPC   C4B60562  19.411  30.034   7.466
 4787POPC   NC360563  43.512  40.197   5.290
 4787POPC   PO460564  42.904  39.979   5.199
 4787POPC   GL160565  43.095  39.960   5.675
 4787POPC   GL260566  43.267  39.654   5.842
 4787POPC   C1A60567  43.087  40.041   6.153
 4787POPC   D2A60568  42.836  39.961   6.556
 4787POPC   C3A60569  42.936  39.969   7.000
 4787POPC   C4A60570  43.235  40.112   7.305
 4787POPC   C1B60571  43.444  39.705   6.275
 4787POPC   C2B60572  43.312  39.735   6.734
 4787POPC   C3B60573  43.275  39.628   7.194
 4787POPC   C4B60574  43.478  39.779   7.587
 4788POPC   NC360575  13.950  29.763   5.530
 4788POPC   PO460576  13.373  30.149   5.341
 4788POPC   GL160577  13.579  30.069   5.712
 4788POPC   GL260578  13.442  29.751   5.756
 4788POPC   C1A60579  13.612  30.058   6.167
 4788POPC   D2A60580  13.478  30.318   6.531
 4788POPC   C3A60581  13.547  30.227   6.958
 4788POPC   C4A60582  13.599  30.092   7.390
 4788POPC   C1B60583  13.350  29.614   6.180
 4788POPC   C2B60584  13.386  29.779   6.611
 4788POPC   C3B60585  13.634  29.708   7.014
 4788POPC   C4B60586  13.458  29.572   7.400
 4789POPC   NC360587  42.291  11.480   5.034
 4789POPC   PO460588  42.014  11.266   5.575
 4789POPC   GL160589  42.270  11.363   5.850
 4789POPC   GL260590  42.506  11.074   5.796
 4789POPC   C1A60591  42.148  11.514   6.240
 4789POPC   D2A60592  42.389  11.701   6.519
 4789POPC   C3A60593  42.287  11.831   6.886
 4789POPC   C4A60594  42.255  11.619   7.248
 4789POPC   C1B60595  42.339  11.021   6.228
 4789POPC   C2B60596  42.296  11.169   6.656
 4789POPC   C3B60597  42.231  11.133   7.103
 4789POPC   C4B60598  42.373  11.102   7.520
 4790POPC   NC360599  25.399  26.846   5.380
 4790POPC   PO460600  24.922  27.306   5.580
 4790POPC   GL160601  25.236  27.099   5.846
 4790POPC   GL260602  25.246  26.729   5.888
 4790POPC   C1A60603  25.354  27.035   6.282
 4790POPC   D2A60604  25.413  26.848   6.674
 4790POPC   C3A60605  25.267  27.110   6.979
 4790POPC   C4A60606  25.565  27.156   7.305
 4790POPC   C1B60607  25.114  26.535   6.329
 4790POPC   C2B60608  25.067  26.493   6.805
 4790POPC   C3B60609  24.834  26.423   7.222
 4790POPC   C4B60610  24.937  26.667   7.614
 4791POPC   NC360611  16.882  31.944   5.271
 4791POPC   PO460612  16.517  32.473   5.545
 4791POPC   GL160613  16.796  32.346   5.824
 4791POPC   GL260614  16.582  32.196   6.023
 4791POPC   C1A60615  16.965  32.511   6.178
 4791POPC   D2A60616  16.687  32.589   6.505
 4791POPC   C3A60617  16.830  32.402   6.862
 4791POPC   C4A60618  16.619  32.241   7.185
 4791POPC   C1B60619  16.486  31.944   6.324
 4791POPC   C2B60620  16.442  32.112   6.688
 4791POPC   C3B60621  16.283  31.871   6.957
 4791POPC   C4B60622  16.440  31.787   7.288
 4792POPC   NC360623  23.339  28.351   5.498
 4792POPC   PO460624  24.042  28.623   5.499
 4792POPC   GL160625  23.797  28.407   5.814
 4792POPC   GL260626  23.510  28.560   5.956
 4792POPC   C1A60627  23.701  28.148   6.204
 4792POPC   D2A60628  23.700  28.347   6.636
 4792POPC   C3A60629  23.589  28.151   7.032
 4792POPC   C4A60630  23.585  28.254   7.469
 4792POPC   C1B60631  23.913  28.631   6.241
 4792POPC   C2B60632  24.135  28.686   6.648
 4792POPC   C3B60633  24.049  28.658   7.095
 4792POPC   C4B60634  23.727  28.710   7.366
 4793POPC   NC360635  30.794   5.487   5.571
 4793POPC   PO460636  30.739   4.815   5.292
 4793POPC   GL160637  30.775   4.982   5.739
 4793POPC   GL260638  30.509   5.203   5.860
 4793POPC   C1A60639  30.937   5.155   6.149
 4793POPC   D2A60640  30.842   4.977   6.526
 4793POPC   C3A60641  31.003   5.077   6.909
 4793POPC   C4A60642  30.914   4.897   7.289
 4793POPC   C1B60643  30.548   5.507   6.213
 4793POPC   C2B60644  30.836   5.514   6.519
 4793POPC   C3B60645  30.771   5.539   6.923
 4793POPC   C4B60646  30.852   5.395   7.307
 4794POPC   NC360647  10.534  44.736   5.414
 4794POPC   PO460648  10.603  44.125   5.537
 4794POPC   GL160649  10.671  44.514   5.843
 4794POPC   GL260650  10.671  44.907   5.867
 4794POPC   C1A60651  10.435  44.620   6.223
 4794POPC   D2A60652  10.562  44.516   6.634
 4794POPC   C3A60653  10.644  44.574   7.063
 4794POPC   C4A60654  10.406  44.605   7.424
 4794POPC   C1B60655  10.834  44.957   6.290
 4794POPC   C2B60656  10.806  44.979   6.748
 4794POPC   C3B60657  10.867   0.030   7.186
 4794POPC   C4B60658  10.752  44.878   7.632
 4795POPC   NC360659  10.364  39.679   5.797
 4795POPC   PO460660  10.431  40.218   5.460
 4795POPC   GL160661  10.676  40.263   5.822
 4795POPC   GL260662  10.797  39.950   5.882
 4795POPC   C1A60663  10.615  40.217   6.278
 4795POPC   D2A60664  10.455  40.319   6.688
 4795POPC   C3A60665  10.316  40.153   7.109
 4795POPC   C4A60666   9.956  40.203   7.410
 4795POPC   C1B60667  10.825  39.766   6.265
 4795POPC   C2B60668  10.624  39.818   6.648
 4795POPC   C3B60669  10.788  40.019   6.997
 4795POPC   C4B60670  10.751  39.830   7.394
 4796POPC   NC360671  12.641   8.867   5.445
 4796POPC   PO460672  13.342   9.037   5.282
 4796POPC   GL160673  13.107   9.260   5.645
 4796POPC   GL260674  13.290   9.585   5.716
 4796POPC   C1A60675  12.822   9.225   6.028
 4796POPC   D2A60676  12.874   8.982   6.400
 4796POPC   C3A60677  12.793   9.123   6.800
 4796POPC   C4A60678  12.718   8.905   7.153
 4796POPC   C1B60679  13.235   9.488   6.139
 4796POPC   C2B60680  12.958   9.511   6.500
 4796POPC   C3B60681  13.137   9.468   6.938
 4796POPC   C4B60682  13.041   9.274   7.322
 4797POPC   NC360683  19.941  41.121   5.528
 4797POPC   PO460684  19.850  40.437   5.529
 4797POPC   GL160685  19.844  40.691   5.869
 4797POPC   GL260686  19.549  40.837   5.801
 4797POPC   C1A60687  19.614  40.618   6.275
 4797POPC   D2A60688  19.797  40.621   6.686
 4797POPC   C3A60689  19.616  40.560   7.101
 4797POPC   C4A60690  19.827  40.740   7.437
 4797POPC   C1B60691  19.685  41.112   6.178
 4797POPC   C2B60692  19.531  41.067   6.587
 4797POPC   C3B60693  19.716  41.065   6.997
 4797POPC   C4B60694  19.505  41.139   7.366
 4798POPC   NC360695   1.915  19.883   5.400
 4798POPC   PO460696   1.991  20.482   5.056
 4798POPC   GL160697   2.056  20.338   5.572
 4798POPC   GL260698   2.373  20.381   5.809
 4798POPC   C1A60699   2.045  20.049   6.009
 4798POPC   D2A60700   1.941  19.723   6.373
 4798POPC   C3A60701   2.034  19.628   6.837
 4798POPC   C4A60702   1.932  19.580   7.267
 4798POPC   C1B60703   2.397  20.274   6.293
 4798POPC   C2B60704   2.206  20.096   6.723
 4798POPC   C3B60705   2.171  20.044   7.210
 4798POPC   C4B60706   2.305  20.122   7.674
 4799POPC   NC360707  24.896  32.167   5.395
 4799POPC   PO460708  25.498  32.533   5.319
 4799POPC   GL160709  25.423  32.355   5.728
 4799POPC   GL260710  25.282  32.033   5.706
 4799POPC   C1A60711  25.276  32.332   6.147
 4799POPC   D2A60712  25.505  32.416   6.521
 4799POPC   C3A60713  25.453  32.164   6.847
 4799POPC   C4A60714  25.357  32.261   7.213
 4799POPC   C1B60715  25.485  31.859   6.059
 4799POPC   C2B60716  25.458  31.785   6.496
 4799POPC   C3B60717  25.183  31.721   6.840
 4799POPC   C4B60718  25.096  31.843   7.253
 4800POPC   NC360719   6.277   1.331   5.405
 4800POPC   PO460720   5.790   0.994   5.682
 4800POPC   GL160721   6.108   1.086   5.896
 4800POPC   GL260722   6.134   1.449   5.924
 4800POPC   C1A60723   6.052   0.854   6.289
 4800POPC   D2A60724   5.775   0.811   6.635
 4800POPC   C3A60725   6.007   0.882   7.013
 4800POPC   C4A60726   5.931   1.065   7.382
 4800POPC   C1B60727   5.918   1.392   6.281
 4800POPC   C2B60728   5.995   1.297   6.656
 4800POPC   C3B60729   5.848   1.431   7.041
 4800POPC   C4B60730   6.038   1.566   7.372
 4801POPC   NC360731   3.462  44.624   5.268
 4801POPC   PO460732   3.166   0.091   5.609
 4801POPC   GL160733   3.353  44.782   5.874
 4801POPC   GL260734   3.634  44.658   5.746
 4801POPC   C1A60735   3.243  44.659   6.282
 4801POPC   D2A60736   3.431  44.764   6.643
 4801POPC   C3A60737   3.293  44.640   7.039
 4801POPC   C4A60738   3.536  44.723   7.410
 4801POPC   C1B60739   3.651  44.424   6.108
 4801POPC   C2B60740   3.830  44.430   6.495
 4801POPC   C3B60741   3.845  44.595   6.897
 4801POPC   C4B60742   3.930  44.397   7.274
 4802POPC   NC360743  20.727   3.271   5.434
 4802POPC   PO460744  20.911   3.938   5.413
 4802POPC   GL160745  20.861   3.726   5.798
 4802POPC   GL260746  20.536   3.579   5.792
 4802POPC   C1A60747  20.817   3.539   6.217
 4802POPC   D2A60748  21.035   3.341   6.533
 4802POPC   C3A60749  20.853   3.543   6.880
 4802POPC   C4A60750  20.756   3.808   7.205
 4802POPC   C1B60751  20.322   3.568   6.215
 4802POPC   C2B60752  20.439   3.450   6.599
 4802POPC   C3B60753  20.350   3.679   6.926
 4802POPC   C4B60754  20.133   3.647   7.237
 4803POPC   NC360755  29.760  19.482   5.422
 4803POPC   PO460756  30.140  18.883   5.381
 4803POPC   GL160757  29.975  19.005   5.787
 4803POPC   GL260758  29.631  19.061   5.716
 4803POPC   C1A60759  30.141  18.920   6.226
 4803POPC   D2A60760  29.982  19.042   6.639
 4803POPC   C3A60761  30.077  19.001   7.079
 4803POPC   C4A60762  29.693  18.892   7.321
 4803POPC   C1B60763  29.586  19.193   6.147
 4803POPC   C2B60764  29.629  19.395   6.538
 4803POPC   C3B60765  29.562  19.229   6.942
 4803POPC   C4B60766  29.780  19.382   7.294
 4804POPC   NC360767  32.505   6.911   5.436
 4804POPC   PO460768  31.976   6.404   5.420
 4804POPC   GL160769  32.174   6.567   5.778
 4804POPC   GL260770  32.040   6.902   5.796
 4804POPC   C1A60771  32.264   6.467   6.232
 4804POPC   D2A60772  32.133   6.285   6.643
 4804POPC   C3A60773  32.334   6.500   6.962
 4804POPC   C4A60774  32.437   6.717   7.311
 4804POPC   C1B60775  32.036   6.957   6.249
 4804POPC   C2B60776  32.026   6.800   6.687
 4804POPC   C3B60777  31.942   6.881   7.125
 4804POPC   C4B60778  31.735   7.016   7.536
 4805POPC   NC360779  42.748  20.996   5.306
 4805POPC   PO460780  42.310  21.515   5.250
 4805POPC   GL160781  42.496  21.473   5.683
 4805POPC   GL260782  42.347  21.170   5.790
 4805POPC   C1A60783  42.392  21.624   6.121
 4805POPC   D2A60784  42.423  21.723   6.591
 4805POPC   C3A60785  42.216  21.478   6.928
 4805POPC   C4A60786  42.081  21.554   7.346
 4805POPC   C1B60787  42.555  21.134   6.189
 4805POPC   C2B60788  42.420  21.133   6.598
 4805POPC   C3B60789  42.647  21.188   6.955
 4805POPC   C4B60790  42.577  21.409   7.302
 4806POPC   NC360791   3.283  20.919   5.344
 4806POPC   PO460792   3.721  20.450   5.343
 4806POPC   GL160793   3.389  20.417   5.667
 4806POPC   GL260794   3.378  20.743   5.819
 4806POPC   C1A60795   3.457  20.332   6.115
 4806POPC   D2A60796   3.705  20.421   6.494
 4806POPC   C3A60797   3.568  20.311   6.895
 4806POPC   C4A60798   3.320  20.551   7.161
 4806POPC   C1B60799   3.349  20.884   6.250
 4806POPC   C2B60800   3.317  20.774   6.686
 4806POPC   C3B60801   3.274  21.038   7.072
 4806POPC   C4B60802   3.091  20.933   7.459
 4807POPC   NC360803  22.498   8.245   5.384
 4807POPC   PO460804  21.884   8.441   5.398
 4807POPC   GL160805  22.160   8.341   5.736
 4807POPC   GL260806  22.158   8.031   5.754
 4807POPC   C1A60807  22.133   8.371   6.193
 4807POPC   D2A60808  21.978   8.230   6.579
 4807POPC   C3A60809  22.156   8.292   6.977
 4807POPC   C4A60810  21.979   8.313   7.433
 4807POPC   C1B60811  22.261   7.827   6.105
 4807POPC   C2B60812  22.079   7.749   6.479
 4807POPC   C3B60813  22.240   7.748   6.905
 4807POPC   C4B60814  22.275   7.929   7.293
 4808POPC   NC360815   7.646  30.935   5.029
 4808POPC   PO460816   7.429  30.476   5.441
 4808POPC   GL160817   7.319  30.778   5.747
 4808POPC   GL260818   7.136  30.594   5.924
 4808POPC   C1A60819   7.476  30.880   6.172
 4808POPC   D2A60820   7.767  30.716   6.478
 4808POPC   C3A60821   7.667  30.741   6.917
 4808POPC   C4A60822   7.415  31.038   7.167
 4808POPC   C1B60823   7.312  30.409   6.264
 4808POPC   C2B60824   7.436  30.357   6.649
 4808POPC   C3B60825   7.267  30.425   7.013
 4808POPC   C4B60826   7.458  30.528   7.369
 4809POPC   NC360827   9.617  26.908   5.329
 4809POPC   PO460828  10.072  27.305   5.135
 4809POPC   GL160829   9.989  27.078   5.639
 4809POPC   GL260830   9.622  26.960   5.823
 4809POPC   C1A60831  10.001  26.866   6.118
 4809POPC   D2A60832   9.688  26.912   6.461
 4809POPC   C3A60833   9.830  27.086   6.877
 4809POPC   C4A60834   9.808  27.039   7.339
 4809POPC   C1B60835   9.619  26.538   6.080
 4809POPC   C2B60836   9.816  26.395   6.457
 4809POPC   C3B60837   9.630  26.529   6.836
 4809POPC   C4B60838   9.554  26.592   7.283
 4810POPC   NC360839  15.849  40.478   5.453
 4810POPC   PO460840  16.014  41.138   5.377
 4810POPC   GL160841  15.928  40.909   5.751
 4810POPC   GL260842  15.564  40.899   5.811
 4810POPC   C1A60843  16.098  40.783   6.145
 4810POPC   D2A60844  15.962  40.940   6.536
 4810POPC   C3A60845  16.218  41.027   6.904
 4810POPC   C4A60846  16.092  41.126   7.339
 4810POPC   C1B60847  15.580  40.677   6.225
 4810POPC   C2B60848  15.694  40.533   6.658
 4810POPC   C3B60849  15.740  40.861   7.000
 4810POPC   C4B60850  15.651  40.799   7.430
 4811POPC   NC360851  27.923  26.071   5.332
 4811POPC   PO460852  27.291  26.244   5.239
 4811POPC   GL160853  27.338  26.188   5.713
 4811POPC   GL260854  27.551  25.864   5.792
 4811POPC   C1A60855  27.459  26.219   6.171
 4811POPC   D2A60856  27.716  26.379   6.528
 4811POPC   C3A60857  27.450  26.422   6.876
 4811POPC   C4A60858  27.515  26.199   7.230
 4811POPC   C1B60859  27.477  25.721   6.236
 4811POPC   C2B60860  27.400  25.918   6.633
 4811POPC   C3B60861  27.398  25.743   7.052
 4811POPC   C4B60862  27.239  25.873   7.482
 4812POPC   NC360863  20.767  16.257   5.509
 4812POPC   PO460864  20.464  16.786   5.184
 4812POPC   GL160865  20.625  16.758   5.634
 4812POPC   GL260866  20.366  16.889   5.808
 4812POPC   C1A60867  20.652  16.600   6.121
 4812POPC   D2A60868  20.843  16.714   6.529
 4812POPC   C3A60869  20.656  16.624   6.936
 4812POPC   C4A60870  20.753  16.761   7.337
 4812POPC   C1B60871  20.254  16.923   6.265
 4812POPC   C2B60872  20.270  16.897   6.734
 4812POPC   C3B60873  20.305  16.973   7.205
 4812POPC   C4B60874  20.395  16.981   7.670
 4813POPC   NC360875  36.607  41.072   5.263
 4813POPC   PO460876  36.042  40.717   5.427
 4813POPC   GL160877  36.040  40.871   5.820
 4813POPC   GL260878  35.868  40.641   5.993
 4813POPC   C1A60879  36.261  40.867   6.241
 4813POPC   D2A60880  36.406  40.690   6.602
 4813POPC   C3A60881  36.097  40.771   6.889
 4813POPC   C4A60882  36.216  40.797   7.297
 4813POPC   C1B60883  35.799  40.701   6.436
 4813POPC   C2B60884  35.638  40.516   6.812
 4813POPC   C3B60885  35.890  40.402   7.201
 4813POPC   C4B60886  35.909  40.556   7.615
 4814POPC   NC360887  35.918  16.704   5.505
 4814POPC   PO460888  36.553  16.940   5.464
 4814POPC   GL160889  36.378  16.672   5.759
 4814POPC   GL260890  36.189  16.958   5.847
 4814POPC   C1A60891  36.276  16.570   6.167
 4814POPC   D2A60892  36.152  16.749   6.546
 4814POPC   C3A60893  36.343  16.878   6.923
 4814POPC   C4A60894  36.185  16.610   7.210
 4814POPC   C1B60895  35.968  17.082   6.167
 4814POPC   C2B60896  35.790  17.092   6.553
 4814POPC   C3B60897  35.809  16.888   6.934
 4814POPC   C4B60898  35.844  17.066   7.303
 4815POPC   NC360899   1.365  15.572   5.602
 4815POPC   PO460900   1.107  16.074   5.168
 4815POPC   GL160901   1.095  16.016   5.636
 4815POPC   GL260902   0.872  15.751   5.789
 4815POPC   C1A60903   1.171  16.195   6.079
 4815POPC   D2A60904   1.224  16.252   6.537
 4815POPC   C3A60905   0.978  16.259   6.934
 4815POPC   C4A60906   1.204  16.099   7.280
 4815POPC   C1B60907   0.791  15.850   6.246
 4815POPC   C2B60908   0.930  15.832   6.672
 4815POPC   C3B60909   1.332  15.816   6.859
 4815POPC   C4B60910   1.383  15.624   7.249
 4816POPC   NC360911  22.667  37.297   5.624
 4816POPC   PO460912  23.003  37.835   5.389
 4816POPC   GL160913  23.019  37.808   5.810
 4816POPC   GL260914  23.156  37.481   5.834
 4816POPC   C1A60915  22.807  37.700   6.193
 4816POPC   D2A60916  22.503  37.744   6.504
 4816POPC   C3A60917  22.691  37.740   6.889
 4816POPC   C4A60918  22.851  37.711   7.300
 4816POPC   C1B60919  23.025  37.227   6.183
 4816POPC   C2B60920  22.903  37.312   6.602
 4816POPC   C3B60921  23.156  37.493   6.907
 4816POPC   C4B60922  23.424  37.292   7.164
 4817POPC   NC360923   6.758  36.045   5.172
 4817POPC   PO460924   7.399  36.040   5.380
 4817POPC   GL160925   7.393  36.042   5.804
 4817POPC   GL260926   7.135  36.250   5.842
 4817POPC   C1A60927   7.440  35.995   6.234
 4817POPC   D2A60928   7.617  36.193   6.551
 4817POPC   C3A60929   7.589  35.960   6.873
 4817POPC   C4A60930   7.388  36.067   7.238
 4817POPC   C1B60931   6.953  35.913   6.105
 4817POPC   C2B60932   6.996  35.832   6.547
 4817POPC   C3B60933   7.104  35.740   6.963
 4817POPC   C4B60934   6.934  35.810   7.368
 4818POPC   NC360935   0.382  23.578   5.451
 4818POPC   PO460936   0.974  23.853   5.661
 4818POPC   GL160937   0.636  23.645   5.890
 4818POPC   GL260938   0.308  23.827   5.893
 4818POPC   C1A60939   0.385  23.409   6.187
 4818POPC   D2A60940   0.533  23.310   6.591
 4818POPC   C3A60941   0.347  23.488   6.953
 4818POPC   C4A60942   0.500  23.646   7.358
 4818POPC   C1B60943   0.417  23.926   6.345
 4818POPC   C2B60944   0.160  23.905   6.723
 4818POPC   C3B60945   0.151  23.943   7.163
 4818POPC   C4B60946   0.410  24.125   7.546
 4819POPC   NC360947  17.368  41.201   5.230
 4819POPC   PO460948  17.258  40.636   5.554
 4819POPC   GL160949  17.605  40.809   5.802
 4819POPC   GL260950  17.753  40.531   5.959
 4819POPC   C1A60951  17.627  40.980   6.244
 4819POPC   D2A60952  17.421  40.852   6.641
 4819POPC   C3A60953  17.507  41.038   7.039
 4819POPC   C4A60954  17.892  41.250   7.143
 4819POPC   C1B60955  17.341  40.533   6.213
 4819POPC   C2B60956  17.170  40.411   6.632
 4819POPC   C3B60957  17.407  40.512   7.028
 4819POPC   C4B60958  17.368  40.546   7.460
 4820POPC   NC360959  33.683  11.858   5.437
 4820POPC   PO460960  33.923  12.510   5.360
 4820POPC   GL160961  33.905  12.282   5.694
 4820POPC   GL260962  33.547  12.311   5.737
 4820POPC   C1A60963  33.893  12.102   6.093
 4820POPC   D2A60964  33.996  12.223   6.502
 4820POPC   C3A60965  33.786  12.002   6.859
 4820POPC   C4A60966  33.704  12.085   7.286
 4820POPC   C1B60967  33.399  12.331   6.161
 4820POPC   C2B60968  33.451  12.292   6.612
 4820POPC   C3B60969  33.362  12.403   7.048
 4820POPC   C4B60970  33.456  12.470   7.522
 4821POPC   NC360971  27.156  35.534   5.095
 4821POPC   PO460972  26.723  35.320   5.416
 4821POPC   GL160973  27.016  35.341   5.787
 4821POPC   GL260974  27.098  35.055   5.999
 4821POPC   C1A60975  26.982  35.553   6.193
 4821POPC   D2A60976  26.664  35.569   6.516
 4821POPC   C3A60977  26.843  35.416   6.870
 4821POPC   C4A60978  26.765  35.516   7.323
 4821POPC   C1B60979  26.683  35.119   6.219
 4821POPC   C2B60980  26.480  35.025   6.645
 4821POPC   C3B60981  26.581  35.066   7.103
 4821POPC   C4B60982  27.041  35.088   7.220
 4822POPC   NC360983   8.700  43.468   5.361
 4822POPC   PO460984   9.142  42.926   5.414
 4822POPC   GL160985   8.958  43.021   5.801
 4822POPC   GL260986   8.936  43.323   5.802
 4822POPC   C1A60987   8.965  42.917   6.254
 4822POPC   D2A60988   8.973  43.092   6.691
 4822POPC   C3A60989   9.227  42.922   7.036
 4822POPC   C4A60990   9.097  42.846   7.483
 4822POPC   C1B60991   8.935  43.519   6.187
 4822POPC   C2B60992   8.697  43.485   6.532
 4822POPC   C3B60993   8.810  43.544   6.923
 4822POPC   C4B60994   8.639  43.583   7.301
 4823POPC   NC360995  28.905  41.801   5.642
 4823POPC   PO460996  28.299  41.440   5.485
 4823POPC   GL160997  28.315  41.461   5.925
 4823POPC   GL260998  28.617  41.502   5.927
 4823POPC   C1A60999  28.384  41.422   6.381
 4823POPC   D2A61000  28.346  41.278   6.777
 4823POPC   C3A61001  28.432  41.428   7.130
 4823POPC   C4A61002  28.496  41.647   7.447
 4823POPC   C1B61003  28.762  41.727   6.275
 4823POPC   C2B61004  28.735  41.621   6.727
 4823POPC   C3B61005  28.877  41.761   7.108
 4823POPC   C4B61006  28.740  42.061   7.445
 4824POPC   NC361007   8.220  12.457   5.084
 4824POPC   PO461008   8.082  11.941   5.454
 4824POPC   GL161009   8.266  11.938   5.856
 4824POPC   GL261010   8.555  12.173   5.845
 4824POPC   C1A61011   8.420  11.861   6.290
 4824POPC   D2A61012   8.628  11.800   6.686
 4824POPC   C3A61013   8.347  11.761   7.011
 4824POPC   C4A61014   8.263  11.970   7.352
 4824POPC   C1B61015   8.306  12.344   6.184
 4824POPC   C2B61016   8.342  12.274   6.625
 4824POPC   C3B61017   8.133  12.338   7.018
 4824POPC   C4B61018   8.008  12.391   7.451
 4825POPC   NC361019   2.516  27.306   5.395
 4825POPC   PO461020   2.909  26.766   5.355
 4825POPC   GL161021   2.879  26.764   5.788
 4825POPC   GL261022   2.707  27.094   5.837
 4825POPC   C1A61023   2.742  26.699   6.211
 4825POPC   D2A61024   2.999  26.774   6.567
 4825POPC   C3A61025   2.830  26.646   6.930
 4825POPC   C4A61026   3.009  26.788   7.309
 4825POPC   C1B61027   2.629  27.242   6.267
 4825POPC   C2B61028   2.567  27.044   6.679
 4825POPC   C3B61029   2.620  27.062   7.137
 4825POPC   C4B61030   2.384  27.077   7.575
 4826POPC   NC361031  21.701  32.507   5.686
 4826POPC   PO461032  21.329  31.978   5.554
 4826POPC   GL161033  21.383  32.134   5.952
 4826POPC   GL261034  21.112  32.346   5.880
 4826POPC   C1A61035  21.592  32.194   6.356
 4826POPC   D2A61036  21.615  32.565   6.636
 4826POPC   C3A61037  21.718  32.544   7.067
 4826POPC   C4A61038  21.579  32.205   7.312
 4826POPC   C1B61039  20.956  32.135   6.259
 4826POPC   C2B61040  21.174  32.104   6.665
 4826POPC   C3B61041  21.138  32.288   7.080
 4826POPC   C4B61042  21.064  32.112   7.508
 4827POPC   NC361043  31.031   4.542   5.544
 4827POPC   PO461044  31.630   4.361   5.314
 4827POPC   GL161045  31.701   4.356   5.782
 4827POPC   GL261046  31.342   4.290   5.869
 4827POPC   C1A61047  31.629   4.401   6.265
 4827POPC   D2A61048  31.345   4.166   6.557
 4827POPC   C3A61049  31.417   4.186   7.004
 4827POPC   C4A61050  31.771   4.427   7.140
 4827POPC   C1B61051  30.995   4.292   6.203
 4827POPC   C2B61052  30.943   4.479   6.642
 4827POPC   C3B61053  30.940   4.396   7.095
 4827POPC   C4B61054  30.948   4.465   7.555
 4828POPC   NC361055  14.503  30.316   5.430
 4828POPC   PO461056  14.891  30.802   5.608
 4828POPC   GL161057  14.493  30.721   5.793
 4828POPC   GL261058  14.158  30.800   5.681
 4828POPC   C1A61059  14.378  30.571   6.171
 4828POPC   D2A61060  14.419  30.280   6.504
 4828POPC   C3A61061  14.418  30.390   6.957
 4828POPC   C4A61062  14.397  30.604   7.342
 4828POPC   C1B61063  14.018  30.948   6.116
 4828POPC   C2B61064  14.159  30.876   6.546
 4828POPC   C3B61065  14.222  30.948   6.992
 4828POPC   C4B61066  14.025  30.957   7.411
 4829POPC   NC361067  39.844  28.731   5.528
 4829POPC   PO461068  40.099  29.353   5.525
 4829POPC   GL161069  40.043  29.216   5.877
 4829POPC   GL261070  40.221  28.908   5.831
 4829POPC   C1A61071  39.781  29.130   6.214
 4829POPC   D2A61072  39.895  28.891   6.561
 4829POPC   C3A61073  39.784  29.051   6.942
 4829POPC   C4A61074  39.930  28.834   7.316
 4829POPC   C1B61075  40.309  28.998   6.246
 4829POPC   C2B61076  40.496  29.164   6.574
 4829POPC   C3B61077  40.298  29.067   6.951
 4829POPC   C4B61078  40.358  29.073   7.376
 4830POPC   NC361079  34.275  43.026   5.196
 4830POPC   PO461080  34.951  43.291   5.333
 4830POPC   GL161081  34.605  43.103   5.677
 4830POPC   GL261082  34.330  43.341   5.799
 4830POPC   C1A61083  34.485  42.922   6.139
 4830POPC   D2A61084  34.621  42.740   6.555
 4830POPC   C3A61085  34.571  42.943   6.980
 4830POPC   C4A61086  34.861  43.269   7.133
 4830POPC   C1B61087  34.579  43.425   6.177
 4830POPC   C2B61088  34.675  43.288   6.595
 4830POPC   C3B61089  34.432  43.436   6.925
 4830POPC   C4B61090  34.370  43.305   7.332
 4831POPC   NC361091  23.727  33.328   5.244
 4831POPC   PO461092  23.836  32.691   5.142
 4831POPC   GL161093  23.727  32.797   5.617
 4831POPC   GL261094  23.954  32.711   5.841
 4831POPC   C1A61095  23.565  33.033   6.014
 4831POPC   D2A61096  23.500  33.011   6.466
 4831POPC   C3A61097  23.784  33.166   6.774
 4831POPC   C4A61098  23.650  33.118   7.188
 4831POPC   C1B61099  24.010  32.935   6.234
 4831POPC   C2B61100  24.022  32.746   6.603
 4831POPC   C3B61101  23.786  32.676   6.946
 4831POPC   C4B61102  23.927  32.668   7.327
 4832POPC   NC361103  30.058   3.069   5.175
 4832POPC   PO461104  29.678   3.306   5.645
 4832POPC   GL161105  29.717   3.368   6.042
 4832POPC   GL261106  30.062   3.495   5.976
 4832POPC   C1A61107  29.909   3.337   6.449
 4832POPC   D2A61108  30.272   3.500   6.682
 4832POPC   C3A61109  30.112   3.394   7.066
 4832POPC   C4A61110  29.726   3.209   6.974
 4832POPC   C1B61111  29.901   3.818   6.263
 4832POPC   C2B61112  29.668   3.889   6.634
 4832POPC   C3B61113  29.753   3.750   7.029
 4832POPC   C4B61114  30.062   3.837   7.320
 4833POPC   NC361115   8.093  11.477   5.413
 4833POPC   PO461116   8.771  11.271   5.505
 4833POPC   GL161117   8.396  11.417   5.815
 4833POPC   GL261118   8.115  11.159   5.828
 4833POPC   C1A61119   8.078  11.507   6.193
 4833POPC   D2A61120   8.232  11.433   6.637
 4833POPC   C3A61121   7.962  11.415   7.048
 4833POPC   C4A61122   7.899  11.627   7.444
 4833POPC   C1B61123   8.400  11.115   6.220
 4833POPC   C2B61124   8.487  11.002   6.667
 4833POPC   C3B61125   8.430  11.204   7.095
 4833POPC   C4B61126   8.519  11.003   7.552
 4834POPC   NC361127  44.767  39.935   5.380
 4834POPC   PO461128  44.174  39.875   5.563
 4834POPC   GL161129  44.481  40.099   5.824
 4834POPC   GL261130  44.843  40.100   5.839
 4834POPC   C1A61131  44.494  40.227   6.241
 4834POPC   D2A61132  44.257  40.107   6.605
 4834POPC   C3A61133  44.539  40.172   6.887
 4834POPC   C4A61134  44.687  40.124   7.265
 4834POPC   C1B61135  44.808  39.778   6.131
 4834POPC   C2B61136  44.723  39.822   6.557
 4834POPC   C3B61137  44.629  39.679   6.976
 4834POPC   C4B61138  44.900  39.628   7.306
 4835POPC   NC361139  23.961   3.399   5.277
 4835POPC   PO461140  23.508   3.832   5.348
 4835POPC   GL161141  23.676   3.587   5.676
 4835POPC   GL261142  23.865   3.835   5.805
 4835POPC   C1A61143  23.664   3.393   6.088
 4835POPC   D2A61144  23.382   3.374   6.461
 4835POPC   C3A61145  23.627   3.275   6.833
 4835POPC   C4A61146  23.605   3.431   7.235
 4835POPC   C1B61147  23.651   3.907   6.221
 4835POPC   C2B61148  23.698   3.781   6.674
 4835POPC   C3B61149  23.953   3.766   7.081
 4835POPC   C4B61150  23.936   3.717   7.568
 4836POPC   NC361151  28.670  28.284   5.276
 4836POPC   PO461152  28.215  28.777   5.385
 4836POPC   GL161153  28.286  28.590   5.820
 4836POPC   GL261154  28.614  28.397   5.901
 4836POPC   C1A61155  28.218  28.539   6.279
 4836POPC   D2A61156  27.963  28.372   6.634
 4836POPC   C3A61157  28.035  28.536   7.047
 4836POPC   C4A61158  28.272  28.332   7.368
 4836POPC   C1B61159  28.457  28.080   6.221
 4836POPC   C2B61160  28.444  27.966   6.664
 4836POPC   C3B61161  28.681  28.101   7.042
 4836POPC   C4B61162  28.697  28.071   7.478
 4837POPC   NC361163  20.705  26.784   5.366
 4837POPC   PO461164  20.087  26.478   5.247
 4837POPC   GL161165  20.231  26.678   5.683
 4837POPC   GL261166  20.493  26.957   5.812
 4837POPC   C1A61167  20.452  26.549   6.077
 4837POPC   D2A61168  20.660  26.614   6.456
 4837POPC   C3A61169  20.411  26.765   6.772
 4837POPC   C4A61170  20.582  26.730   7.165
 4837POPC   C1B61171  20.782  27.036   6.186
 4837POPC   C2B61172  20.831  27.165   6.650
 4837POPC   C3B61173  20.885  27.122   7.137
 4837POPC   C4B61174  20.766  27.173   7.611
 4838POPC   NC361175   6.331  30.527   5.347
 4838POPC   PO461176   6.631  29.953   5.142
 4838POPC   GL161177   6.655  29.964   5.645
 4838POPC   GL261178   6.549  30.291   5.770
 4838POPC   C1A61179   6.532  29.885   6.104
 4838POPC   D2A61180   6.698  29.819   6.538
 4838POPC   C3A61181   6.410  29.829   6.850
 4838POPC   C4A61182   6.367  29.948   7.240
 4838POPC   C1B61183   6.753  30.403   6.179
 4838POPC   C2B61184   6.906  30.336   6.583
 4838POPC   C3B61185   6.756  30.225   6.972
 4838POPC   C4B61186   6.903  30.333   7.365
 4839POPC   NC361187  35.536  35.995   5.408
 4839POPC   PO461188  34.965  36.150   5.614
 4839POPC   GL161189  35.242  35.982   5.896
 4839POPC   GL261190  35.521  36.212   5.873
 4839POPC   C1A61191  35.296  36.100   6.338
 4839POPC   D2A61192  35.465  36.338   6.681
 4839POPC   C3A61193  35.170  36.267   7.011
 4839POPC   C4A61194  35.085  35.881   7.270
 4839POPC   C1B61195  35.704  35.872   6.160
 4839POPC   C2B61196  35.800  35.936   6.587
 4839POPC   C3B61197  35.524  35.887   6.971
 4839POPC   C4B61198  35.522  36.044   7.435
 4840POPC   NC361199   7.349  23.272   5.476
 4840POPC   PO461200   7.284  22.644   5.382
 4840POPC   GL161201   7.429  22.864   5.779
 4840POPC   GL261202   7.199  23.111   5.924
 4840POPC   C1A61203   7.405  22.768   6.231
 4840POPC   D2A61204   7.174  23.004   6.545
 4840POPC   C3A61205   7.339  22.897   6.964
 4840POPC   C4A61206   7.372  22.998   7.415
 4840POPC   C1B61207   7.482  23.284   6.188
 4840POPC   C2B61208   7.642  23.238   6.597
 4840POPC   C3B61209   7.558  23.355   7.041
 4840POPC   C4B61210   7.719  23.366   7.466
 4841POPC   NC361211  31.008  28.051   5.595
 4841POPC   PO461212  30.428  28.400   5.472
 4841POPC   GL161213  30.649  28.329   5.850
 4841POPC   GL261214  30.533  28.001   5.847
 4841POPC   C1A61215  30.824  28.486   6.250
 4841POPC   D2A61216  30.741  28.656   6.657
 4841POPC   C3A61217  30.663  28.377   6.999
 4841POPC   C4A61218  30.783  28.570   7.360
 4841POPC   C1B61219  30.791  27.934   6.217
 4841POPC   C2B61220  30.991  28.088   6.599
 4841POPC   C3B61221  30.963  27.943   7.026
 4841POPC   C4B61222  30.860  28.058   7.425
 4842POPC   NC361223  36.980  21.973   5.074
 4842POPC   PO461224  37.192  22.305   5.620
 4842POPC   GL161225  37.021  22.114   5.921
 4842POPC   GL261226  37.153  21.770   5.812
 4842POPC   C1A61227  36.685  22.195   6.237
 4842POPC   D2A61228  36.640  22.526   6.587
 4842POPC   C3A61229  36.778  22.332   6.955
 4842POPC   C4A61230  37.166  22.275   7.171
 4842POPC   C1B61231  36.959  21.740   6.226
 4842POPC   C2B61232  36.981  21.972   6.625
 4842POPC   C3B61233  36.833  21.839   7.030
 4842POPC   C4B61234  37.012  21.871   7.442
 4843POPC   NC361235  35.005  39.076   5.530
 4843POPC   PO461236  35.718  39.075   5.511
 4843POPC   GL161237  35.459  39.089   5.858
 4843POPC   GL261238  35.275  39.416   5.804
 4843POPC   C1A61239  35.543  38.928   6.285
 4843POPC   D2A61240  35.782  38.917   6.677
 4843POPC   C3A61241  35.496  38.935   7.013
 4843POPC   C4A61242  35.375  39.295   7.244
 4843POPC   C1B61243  35.137  39.269   6.213
 4843POPC   C2B61244  35.294  39.293   6.628
 4843POPC   C3B61245  34.993  39.378   6.918
 4843POPC   C4B61246  34.933  39.589   7.254
 4844POPC   NC361247   1.340  33.860   5.572
 4844POPC   PO461248   0.761  34.144   5.368
 4844POPC   GL161249   0.874  33.972   5.782
 4844POPC   GL261250   0.989  33.621   5.883
 4844POPC   C1A61251   1.056  34.050   6.200
 4844POPC   D2A61252   1.041  33.941   6.636
 4844POPC   C3A61253   1.128  34.100   6.997
 4844POPC   C4A61254   1.465  33.880   7.042
 4844POPC   C1B61255   1.219  33.543   6.292
 4844POPC   C2B61256   1.168  33.456   6.742
 4844POPC   C3B61257   0.950  33.631   7.105
 4844POPC   C4B61258   1.008  33.490   7.538
 4845POPC   NC361259  29.267  27.423   5.172
 4845POPC   PO461260  28.825  27.877   5.112
 4845POPC   GL161261  28.924  27.535   5.523
 4845POPC   GL261262  29.250  27.644   5.676
 4845POPC   C1A61263  28.976  27.385   6.013
 4845POPC   D2A61264  29.001  27.316   6.492
 4845POPC   C3A61265  28.876  27.663   6.779
 4845POPC   C4A61266  28.924  27.668   7.211
 4845POPC   C1B61267  29.407  27.713   6.123
 4845POPC   C2B61268  29.328  27.739   6.568
 4845POPC   C3B61269  29.371  27.573   6.986
 4845POPC   C4B61270  29.669  27.677   7.317
 4846POPC   NC361271  13.577  42.617   5.411
 4846POPC   PO461272  13.586  41.889   5.390
 4846POPC   GL161273  13.519  42.197   5.735
 4846POPC   GL261274  13.769  42.446   5.849
 4846POPC   C1A61275  13.554  42.134   6.181
 4846POPC   D2A61276  13.815  42.240   6.509
 4846POPC   C3A61277  13.628  42.183   6.886
 4846POPC   C4A61278  13.747  42.058   7.268
 4846POPC   C1B61279  13.531  42.654   6.215
 4846POPC   C2B61280  13.467  42.629   6.684
 4846POPC   C3B61281  13.682  42.626   7.099
 4846POPC   C4B61282  13.650  42.574   7.557
 4847POPC   NC361283  27.878  41.351   5.240
 4847POPC   PO461284  27.908  40.636   5.399
 4847POPC   GL161285  27.789  40.790   5.808
 4847POPC   GL261286  27.466  40.930   5.870
 4847POPC   C1A61287  27.759  40.641   6.212
 4847POPC   D2A61288  27.542  40.727   6.584
 4847POPC   C3A61289  27.742  40.622   6.950
 4847POPC   C4A61290  27.626  40.688   7.336
 4847POPC   C1B61291  27.565  41.133   6.239
 4847POPC   C2B61292  27.541  41.354   6.624
 4847POPC   C3B61293  27.517  41.118   7.010
 4847POPC   C4B61294  27.698  41.174   7.412
 4848POPC   NC361295  16.198  23.727   5.442
 4848POPC   PO461296  15.800  23.253   5.187
 4848POPC   GL161297  15.758  23.529   5.591
 4848POPC   GL261298  15.512  23.440   5.821
 4848POPC   C1A61299  15.937  23.697   6.028
 4848POPC   D2A61300  16.126  23.694   6.455
 4848POPC   C3A61301  15.888  23.602   6.846
 4848POPC   C4A61302  15.993  23.729   7.263
 4848POPC   C1B61303  15.537  23.526   6.288
 4848POPC   C2B61304  15.673  23.201   6.560
 4848POPC   C3B61305  15.635  23.157   6.993
 4848POPC   C4B61306  15.442  23.528   7.155
 4849POPC   NC361307  14.638  13.526   5.437
 4849POPC   PO461308  13.941  13.795   5.438
 4849POPC   GL161309  14.231  13.641   5.755
 4849POPC   GL261310  14.556  13.752   5.892
 4849POPC   C1A61311  14.214  13.508   6.191
 4849POPC   D2A61312  14.431  13.614   6.600
 4849POPC   C3A61313  14.169  13.602   6.963
 4849POPC   C4A61314  14.103  13.250   7.238
 4849POPC   C1B61315  14.751  13.413   6.121
 4849POPC   C2B61316  14.756  13.220   6.515
 4849POPC   C3B61317  14.870  13.363   6.899
 4849POPC   C4B61318  14.646  13.664   7.141
 4850POPC   NC361319  34.468  37.281   5.564
 4850POPC   PO461320  34.813  37.872   5.407
 4850POPC   GL161321  34.674  37.711   5.771
 4850POPC   GL261322  34.908  37.485   5.928
 4850POPC   C1A61323  34.617  37.837   6.189
 4850POPC   D2A61324  34.729  37.652   6.611
 4850POPC   C3A61325  34.538  37.814   6.998
 4850POPC   C4A61326  34.550  37.711   7.470
 4850POPC   C1B61327  34.547  37.339   6.208
 4850POPC   C2B61328  34.274  37.272   6.540
 4850POPC   C3B61329  34.414  37.310   6.956
 4850POPC   C4B61330  34.160  37.295   7.344
 4851POPC   NC361331  23.079   3.629   5.497
 4851POPC   PO461332  22.379   3.338   5.535
 4851POPC   GL161333  22.589   3.508   5.874
 4851POPC   GL261334  22.584   3.849   5.823
 4851POPC   C1A61335  22.848   3.469   6.244
 4851POPC   D2A61336  22.869   3.279   6.665
 4851POPC   C3A61337  23.147   3.375   7.005
 4851POPC   C4A61338  23.249   3.789   7.209
 4851POPC   C1B61339  22.731   3.964   6.263
 4851POPC   C2B61340  22.723   4.017   6.734
 4851POPC   C3B61341  22.733   3.664   7.007
 4851POPC   C4B61342  22.821   3.530   7.397
 4852POPC   NC361343  36.029  42.900   5.308
 4852POPC   PO461344  35.905  43.584   5.401
 4852POPC   GL161345  36.170  43.268   5.712
 4852POPC   GL261346  36.180  42.911   5.789
 4852POPC   C1A61347  36.248  43.244   6.175
 4852POPC   D2A61348  36.073  43.138   6.576
 4852POPC   C3A61349  36.012  43.345   6.960
 4852POPC   C4A61350  36.108  43.075   7.306
 4852POPC   C1B61351  36.259  42.732   6.202
 4852POPC   C2B61352  36.351  42.549   6.598
 4852POPC   C3B61353  36.497  42.727   7.004
 4852POPC   C4B61354  36.448  42.680   7.462
 4853POPC   NC361355  38.698  27.111   5.140
 4853POPC   PO461356  38.615  26.525   5.599
 4853POPC   GL161357  38.488  26.797   5.908
 4853POPC   GL261358  38.188  26.928   5.779
 4853POPC   C1A61359  38.602  26.910   6.321
 4853POPC   D2A61360  38.420  27.037   6.706
 4853POPC   C3A61361  38.460  26.644   6.962
 4853POPC   C4A61362  38.673  26.600   7.330
 4853POPC   C1B61363  38.084  26.916   6.229
 4853POPC   C2B61364  37.900  26.920   6.646
 4853POPC   C3B61365  38.063  26.920   7.076
 4853POPC   C4B61366  38.159  26.725   7.454
 4854POPC   NC361367  32.693  14.989   5.428
 4854POPC   PO461368  31.918  15.209   5.494
 4854POPC   GL161369  32.127  15.030   5.807
 4854POPC   GL261370  32.405  15.281   5.768
 4854POPC   C1A61371  32.312  14.950   6.190
 4854POPC   D2A61372  32.202  14.753   6.604
 4854POPC   C3A61373  32.294  14.985   7.002
 4854POPC   C4A61374  32.144  15.177   7.393
 4854POPC   C1B61375  32.287  15.490   6.145
 4854POPC   C2B61376  32.313  15.323   6.570
 4854POPC   C3B61377  32.379  15.497   6.966
 4854POPC   C4B61378  32.284  15.663   7.347
 4855POPC   NC361379   5.293  31.691   5.401
 4855POPC   PO461380   4.650  31.372   5.487
 4855POPC   GL161381   4.974  31.487   5.784
 4855POPC   GL261382   5.310  31.299   5.766
 4855POPC   C1A61383   5.009  31.702   6.184
 4855POPC   D2A61384   4.901  31.598   6.618
 4855POPC   C3A61385   5.181  31.705   6.986
 4855POPC   C4A61386   5.003  31.650   7.405
 4855POPC   C1B61387   5.124  31.180   6.180
 4855POPC   C2B61388   5.033  31.065   6.622
 4855POPC   C3B61389   4.959  31.240   7.034
 4855POPC   C4B61390   5.153  31.158   7.436
 4856POPC   NC361391  13.755  34.127   5.204
 4856POPC   PO461392  13.325  33.639   5.136
 4856POPC   GL161393  13.350  33.721   5.613
 4856POPC   GL261394  13.572  34.040   5.709
 4856POPC   C1A61395  13.418  33.489   6.038
 4856POPC   D2A61396  13.367  33.410   6.507
 4856POPC   C3A61397  13.589  33.670   6.827
 4856POPC   C4A61398  13.807  33.635   7.232
 4856POPC   C1B61399  13.846  34.020   6.106
 4856POPC   C2B61400  13.976  33.842   6.507
 4856POPC   C3B61401  14.021  33.978   6.915
 4856POPC   C4B61402  13.808  34.160   7.269
 4857POPC   NC361403   3.787  41.615   5.285
 4857POPC   PO461404   3.145  41.682   5.323
 4857POPC   GL161405   3.345  41.675   5.732
 4857POPC   GL261406   3.693  41.764   5.809
 4857POPC   C1A61407   3.375  41.439   6.127
 4857POPC   D2A61408   3.659  41.502   6.471
 4857POPC   C3A61409   3.560  41.503   6.927
 4857POPC   C4A61410   3.501  41.590   7.383
 4857POPC   C1B61411   3.873  41.920   6.225
 4857POPC   C2B61412   3.972  41.835   6.673
 4857POPC   C3B61413   3.804  41.936   7.078
 4857POPC   C4B61414   3.794  41.981   7.521
 4858POPC   NC361415  32.590   7.734   5.347
 4858POPC   PO461416  32.105   7.257   5.429
 4858POPC   GL161417  32.117   7.512   5.811
 4858POPC   GL261418  31.995   7.860   5.839
 4858POPC   C1A61419  31.997   7.548   6.254
 4858POPC   D2A61420  31.933   7.322   6.626
 4858POPC   C3A61421  32.299   7.198   6.869
 4858POPC   C4A61422  32.253   7.238   7.290
 4858POPC   C1B61423  32.359   7.883   6.125
 4858POPC   C2B61424  32.412   7.730   6.555
 4858POPC   C3B61425  32.211   7.689   6.957
 4858POPC   C4B61426  32.339   7.734   7.373
 4859POPC   NC361427  28.795   0.884   5.319
 4859POPC   PO461428  28.260   1.315   5.370
 4859POPC   GL161429  28.310   1.111   5.792
 4859POPC   GL261430  28.626   0.961   5.836
 4859POPC   C1A61431  28.473   1.239   6.238
 4859POPC   D2A61432  28.302   1.475   6.606
 4859POPC   C3A61433  28.285   1.217   6.977
 4859POPC   C4A61434  28.435   1.218   7.383
 4859POPC   C1B61435  28.663   0.756   6.254
 4859POPC   C2B61436  28.587   0.914   6.684
 4859POPC   C3B61437  28.725   0.877   7.127
 4859POPC   C4B61438  28.711   0.833   7.611
 4860POPC   NC361439   5.588   1.409   5.696
 4860POPC   PO461440   4.993   1.099   5.464
 4860POPC   GL161441   5.112   1.235   5.853
 4860POPC   GL261442   5.340   0.998   5.907
 4860POPC   C1A61443   5.104   1.390   6.281
 4860POPC   D2A61444   5.047   1.062   6.588
 4860POPC   C3A61445   5.044   1.203   7.010
 4860POPC   C4A61446   4.880   0.982   7.366
 4860POPC   C1B61447   5.503   1.070   6.292
 4860POPC   C2B61448   5.493   1.261   6.675
 4860POPC   C3B61449   5.526   1.053   7.044
 4860POPC   C4B61450   5.417   1.213   7.432
 4861POPC   NC361451  44.040  15.323   5.231
 4861POPC   PO461452  44.717  15.425   5.238
 4861POPC   GL161453  44.697  15.227   5.668
 4861POPC   GL261454  44.451  14.950   5.747
 4861POPC   C1A61455  44.936  15.266   6.062
 4861POPC   D2A61456  44.999  15.432   6.471
 4861POPC   C3A61457  44.671  15.371   6.738
 4861POPC   C4A61458  44.688  15.379   7.151
 4861POPC   C1B61459  44.624  14.858   6.144
 4861POPC   C2B61460  44.427  14.946   6.542
 4861POPC   C3B61461  44.537  14.888   6.932
 4861POPC   C4B61462  44.447  14.953   7.332
 4862POPC   NC361463  11.410  34.291   4.939
 4862POPC   PO461464  11.203  34.657   5.445
 4862POPC   GL161465  11.224  34.327   5.761
 4862POPC   GL261466  11.498  34.488   5.911
 4862POPC   C1A61467  11.194  34.251   6.240
 4862POPC   D2A61468  11.357  34.459   6.634
 4862POPC   C3A61469  11.285  34.407   7.120
 4862POPC   C4A61470  11.268  34.803   7.395
 4862POPC   C1B61471  11.526  34.811   6.165
 4862POPC   C2B61472  11.720  34.877   6.543
 4862POPC   C3B61473  11.560  34.826   6.943
 4862POPC   C4B61474  11.758  34.947   7.341
 4863POPC   NC361475  39.951  40.134   5.391
 4863POPC   PO461476  40.026  40.847   5.399
 4863POPC   GL161477  39.868  40.865   5.835
 4863POPC   GL261478  40.207  40.997   5.886
 4863POPC   C1A61479  39.943  40.902   6.315
 4863POPC   D2A61480  40.192  40.685   6.650
 4863POPC   C3A61481  39.949  40.363   6.846
 4863POPC   C4A61482  39.664  40.469   7.145
 4863POPC   C1B61483  40.521  41.020   6.237
 4863POPC   C2B61484  40.498  41.241   6.643
 4863POPC   C3B61485  40.398  41.006   7.008
 4863POPC   C4B61486  40.455  40.961   7.441
 4864POPC   NC361487  14.136  24.150   5.523
 4864POPC   PO461488  14.374  24.846   5.562
 4864POPC   GL161489  14.492  24.501   5.835
 4864POPC   GL261490  14.292  24.239   5.985
 4864POPC   C1A61491  14.440  24.696   6.221
 4864POPC   D2A61492  14.501  24.551   6.593
 4864POPC   C3A61493  14.465  24.844   6.894
 4864POPC   C4A61494  14.546  24.725   7.269
 4864POPC   C1B61495  14.166  24.009   6.317
 4864POPC   C2B61496  14.098  24.204   6.698
 4864POPC   C3B61497  14.313  24.344   7.020
 4864POPC   C4B61498  14.247  24.122   7.341
 4865POPC   NC361499  22.464  34.607   5.677
 4865POPC   PO461500  21.977  34.301   5.484
 4865POPC   GL161501  21.888  34.530   5.860
 4865POPC   GL261502  22.016  34.873   5.744
 4865POPC   C1A61503  22.077  34.531   6.286
 4865POPC   D2A61504  22.170  34.854   6.594
 4865POPC   C3A61505  22.366  34.788   6.979
 4865POPC   C4A61506  22.396  34.396   7.177
 4865POPC   C1B61507  21.908  35.010   6.156
 4865POPC   C2B61508  21.634  34.875   6.510
 4865POPC   C3B61509  21.753  34.795   6.919
 4865POPC   C4B61510  21.894  34.690   7.308
 4866POPC   NC361511  31.025  34.543   5.380
 4866POPC   PO461512  31.671  34.300   5.204
 4866POPC   GL161513  31.433  34.507   5.650
 4866POPC   GL261514  31.515  34.275   5.856
 4866POPC   C1A61515  31.397  34.656   6.161
 4866POPC   D2A61516  31.501  34.925   6.541
 4866POPC   C3A61517  31.528  34.787   6.965
 4866POPC   C4A61518  31.775  34.536   7.237
 4866POPC   C1B61519  31.336  34.145   6.235
 4866POPC   C2B61520  31.241  34.408   6.590
 4866POPC   C3B61521  31.335  34.310   6.981
 4866POPC   C4B61522  31.340  34.335   7.395
 4867POPC   NC361523   1.075  26.429   5.099
 4867POPC   PO461524   1.448  26.915   5.431
 4867POPC   GL161525   1.288  26.912   5.828
 4867POPC   GL261526   1.449  27.214   5.876
 4867POPC   C1A61527   1.190  26.972   6.275
 4867POPC   D2A61528   1.047  26.662   6.585
 4867POPC   C3A61529   0.988  26.775   7.017
 4867POPC   C4A61530   1.061  26.623   7.451
 4867POPC   C1B61531   1.688  26.871   6.126
 4867POPC   C2B61532   1.601  26.696   6.561
 4867POPC   C3B61533   1.526  26.683   7.018
 4867POPC   C4B61534   1.354  27.039   7.267
 4868POPC   NC361535  36.866  39.922   5.242
 4868POPC   PO461536  36.853  40.517   5.395
 4868POPC   GL161537  36.840  40.219   5.744
 4868POPC   GL261538  36.896  39.839   5.757
 4868POPC   C1A61539  37.031  40.177   6.155
 4868POPC   D2A61540  36.957  39.974   6.543
 4868POPC   C3A61541  36.849  40.254   6.874
 4868POPC   C4A61542  36.905  40.350   7.314
 4868POPC   C1B61543  36.692  39.656   6.124
 4868POPC   C2B61544  36.613  39.569   6.563
 4868POPC   C3B61545  36.805  39.685   6.976
 4868POPC   C4B61546  37.158  39.927   7.153
 4869POPC   NC361547   9.508  26.299   5.476
 4869POPC   PO461548  10.018  25.849   5.467
 4869POPC   GL161549   9.782  25.740   5.805
 4869POPC   GL261550   9.769  26.082   5.924
 4869POPC   C1A61551   9.380  25.779   6.018
 4869POPC   D2A61552   9.434  26.057   6.368
 4869POPC   C3A61553   9.547  25.919   6.774
 4869POPC   C4A61554   9.479  25.827   7.207
 4869POPC   C1B61555   9.932  25.866   6.319
 4869POPC   C2B61556  10.048  26.019   6.741
 4869POPC   C3B61557   9.858  26.174   7.130
 4869POPC   C4B61558   9.977  26.378   7.521
 4870POPC   NC361559  30.395   8.962   5.519
 4870POPC   PO461560  29.740   8.710   5.445
 4870POPC   GL161561  29.971   8.904   5.790
 4870POPC   GL261562  29.907   9.282   5.774
 4870POPC   C1A61563  30.150   8.787   6.209
 4870POPC   D2A61564  29.979   8.749   6.633
 4870POPC   C3A61565  29.890   9.111   6.918
 4870POPC   C4A61566  29.897   8.924   7.319
 4870POPC   C1B61567  30.070   9.313   6.219
 4870POPC   C2B61568  30.264   9.314   6.646
 4870POPC   C3B61569  30.346   9.209   7.121
 4870POPC   C4B61570  30.436   9.310   7.581
 4871POPC   NC361571  38.101  26.405   5.520
 4871POPC   PO461572  37.541  26.944   5.526
 4871POPC   GL161573  37.662  26.913   5.938
 4871POPC   GL261574  37.800  26.602   5.891
 4871POPC   C1A61575  37.429  26.983   6.343
 4871POPC   D2A61576  37.352  27.224   6.713
 4871POPC   C3A61577  37.581  27.017   7.037
 4871POPC   C4A61578  37.712  27.039   7.470
 4871POPC   C1B61579  37.725  26.552   6.331
 4871POPC   C2B61580  37.617  26.480   6.775
 4871POPC   C3B61581  37.814  26.470   7.170
 4871POPC   C4B61582  37.700  26.536   7.623
 4872POPC   NC361583   4.350  31.396   5.145
 4872POPC   PO461584   3.927  31.527   5.622
 4872POPC   GL161585   4.296  31.353   5.846
 4872POPC   GL261586   4.406  30.991   5.797
 4872POPC   C1A61587   4.523  31.456   6.243
 4872POPC   D2A61588   4.329  31.720   6.603
 4872POPC   C3A61589   4.224  31.574   7.031
 4872POPC   C4A61590   4.528  31.402   7.306
 4872POPC   C1B61591   4.096  30.998   6.146
 4872POPC   C2B61592   4.150  31.232   6.537
 4872POPC   C3B61593   4.385  31.093   6.902
 4872POPC   C4B61594   4.209  30.984   7.294
 4873POPC   NC361595  41.551  32.387   5.514
 4873POPC   PO461596  42.101  32.105   5.657
 4873POPC   GL161597  41.861  32.401   5.922
 4873POPC   GL261598  41.498  32.322   6.023
 4873POPC   C1A61599  41.874  32.432   6.351
 4873POPC   D2A61600  41.819  32.136   6.629
 4873POPC   C3A61601  41.664  32.255   6.977
 4873POPC   C4A61602  41.615  32.065   7.317
 4873POPC   C1B61603  41.369  32.042   6.350
 4873POPC   C2B61604  41.154  32.111   6.731
 4873POPC   C3B61605  41.129  32.130   7.174
 4873POPC   C4B61606  41.346  32.493   7.304
 4874POPC   NC361607  17.887  24.801   5.262
 4874POPC   PO461608  17.203  24.580   5.406
 4874POPC   GL161609  17.499  24.761   5.755
 4874POPC   GL261610  17.625  24.463   5.984
 4874POPC   C1A61611  17.444  24.886   6.207
 4874POPC   D2A61612  17.225  24.652   6.545
 4874POPC   C3A61613  17.437  24.686   6.925
 4874POPC   C4A61614  17.315  24.633   7.340
 4874POPC   C1B61615  17.774  24.205   6.337
 4874POPC   C2B61616  17.836  24.293   6.795
 4874POPC   C3B61617  17.734  24.285   7.227
 4874POPC   C4B61618  17.624  24.342   7.660
 4875POPC   NC361619  29.905  40.296   5.561
 4875POPC   PO461620  29.582  39.728   5.351
 4875POPC   GL161621  29.718  39.874   5.813
 4875POPC   GL261622  30.066  39.945   5.891
 4875POPC   C1A61623  29.700  40.061   6.277
 4875POPC   D2A61624  29.454  39.974   6.683
 4875POPC   C3A61625  29.640  39.922   7.103
 4875POPC   C4A61626  29.748  40.208   7.432
 4875POPC   C1B61627  30.171  39.861   6.300
 4875POPC   C2B61628  30.011  39.949   6.722
 4875POPC   C3B61629  30.217  39.951   7.117
 4875POPC   C4B61630  30.394  39.656   7.411
 4876POPC   NC361631  10.283  21.378   5.369
 4876POPC   PO461632   9.615  21.593   5.420
 4876POPC   GL161633   9.653  21.349   5.815
 4876POPC   GL261634   9.376  21.136   5.926
 4876POPC   C1A61635   9.716  21.429   6.269
 4876POPC   D2A61636   9.839  21.705   6.621
 4876POPC   C3A61637   9.891  21.448   6.985
 4876POPC   C4A61638   9.852  20.989   7.037
 4876POPC   C1B61639   9.256  21.218   6.346
 4876POPC   C2B61640   9.447  21.114   6.723
 4876POPC   C3B61641   9.408  21.255   7.135
 4876POPC   C4B61642   9.399  21.080   7.532
 4877POPC   NC361643  23.095   5.306   5.388
 4877POPC   PO461644  22.453   5.028   5.460
 4877POPC   GL161645  22.737   5.222   5.744
 4877POPC   GL261646  22.999   4.982   5.796
 4877POPC   C1A61647  22.966   5.321   6.160
 4877POPC   D2A61648  22.851   5.139   6.554
 4877POPC   C3A61649  22.969   5.332   6.953
 4877POPC   C4A61650  22.688   5.328   7.308
 4877POPC   C1B61651  23.056   4.803   6.230
 4877POPC   C2B61652  23.010   4.635   6.642
 4877POPC   C3B61653  22.849   4.855   6.985
 4877POPC   C4B61654  22.881   4.864   7.417
 4878POPC   NC361655   8.366  44.968   5.521
 4878POPC   PO461656   7.971  44.450   5.533
 4878POPC   GL161657   8.237  44.505   5.876
 4878POPC   GL261658   8.518  44.255   5.932
 4878POPC   C1A61659   8.143  44.591   6.289
 4878POPC   D2A61660   7.864  44.510   6.617
 4878POPC   C3A61661   7.962  44.633   7.043
 4878POPC   C4A61662   7.742  44.937   7.250
 4878POPC   C1B61663   8.628  44.406   6.311
 4878POPC   C2B61664   8.455  44.544   6.714
 4878POPC   C3B61665   8.440  44.477   7.142
 4878POPC   C4B61666   8.260  44.281   7.452
 4879POPC   NC361667   7.079  10.937   5.599
 4879POPC   PO461668   7.623  11.368   5.408
 4879POPC   GL161669   7.592  11.162   5.814
 4879POPC   GL261670   7.312  11.078   6.026
 4879POPC   C1A61671   7.783  11.086   6.235
 4879POPC   D2A61672   7.721  11.375   6.603
 4879POPC   C3A61673   7.459  11.210   6.958
 4879POPC   C4A61674   7.537  11.247   7.410
 4879POPC   C1B61675   7.411  11.469   6.212
 4879POPC   C2B61676   7.078  11.602   6.478
 4879POPC   C3B61677   7.042  11.686   6.899
 4879POPC   C4B61678   7.068  11.446   7.253
 4880POPC   NC361679  21.901  11.202   5.459
 4880POPC   PO461680  22.408  11.586   5.513
 4880POPC   GL161681  22.264  11.359   5.842
 4880POPC   GL261682  21.909  11.357   5.950
 4880POPC   C1A61683  22.462  11.317   6.219
 4880POPC   D2A61684  22.509  11.517   6.616
 4880POPC   C3A61685  22.406  11.219   6.924
 4880POPC   C4A61686  22.143  11.258   7.289
 4880POPC   C1B61687  21.999  11.106   6.326
 4880POPC   C2B61688  21.973  10.925   6.763
 4880POPC   C3B61689  21.806  10.860   7.219
 4880POPC   C4B61690  21.708  10.916   7.667
 4881POPC   NC361691  21.006  29.750   5.602
 4881POPC   PO461692  20.896  29.168   5.338
 4881POPC   GL161693  20.727  29.318   5.751
 4881POPC   GL261694  20.947  29.383   5.991
 4881POPC   C1A61695  20.360  29.393   6.088
 4881POPC   D2A61696  20.146  29.269   6.498
 4881POPC   C3A61697  20.333  29.333   6.913
 4881POPC   C4A61698  20.422  29.056   7.256
 4881POPC   C1B61699  20.706  29.017   6.161
 4881POPC   C2B61700  20.663  29.133   6.567
 4881POPC   C3B61701  20.918  29.049   6.922
 4881POPC   C4B61702  20.866  29.340   7.244
 4882POPC   NC361703  37.328   5.319   5.564
 4882POPC   PO461704  37.782   4.837   5.443
 4882POPC   GL161705  37.545   4.903   5.768
 4882POPC   GL261706  37.203   4.788   5.713
 4882POPC   C1A61707  37.576   5.116   6.171
 4882POPC   D2A61708  37.301   5.264   6.515
 4882POPC   C3A61709  37.424   5.348   6.935
 4882POPC   C4A61710  37.561   5.452   7.386
 4882POPC   C1B61711  37.381   4.632   6.143
 4882POPC   C2B61712  37.546   4.777   6.548
 4882POPC   C3B61713  37.439   4.714   6.959
 4882POPC   C4B61714  37.479   4.966   7.296
 4883POPC   NC361715  36.666  22.845   5.327
 4883POPC   PO461716  36.061  23.184   5.224
 4883POPC   GL161717  36.217  22.993   5.596
 4883POPC   GL261718  36.020  22.811   5.771
 4883POPC   C1A61719  36.261  23.138   6.090
 4883POPC   D2A61720  36.253  23.234   6.571
 4883POPC   C3A61721  36.335  22.852   6.850
 4883POPC   C4A61722  36.494  22.649   7.224
 4883POPC   C1B61723  35.785  22.913   6.118
 4883POPC   C2B61724  35.963  22.792   6.504
 4883POPC   C3B61725  35.834  22.924   6.901
 4883POPC   C4B61726  35.987  22.753   7.254
 4884POPC   NC361727  13.130   7.043   5.175
 4884POPC   PO461728  13.105   7.698   5.365
 4884POPC   GL161729  13.032   7.377   5.721
 4884POPC   GL261730  12.690   7.200   5.695
 4884POPC   C1A61731  12.984   7.225   6.178
 4884POPC   D2A61732  12.942   7.048   6.624
 4884POPC   C3A61733  13.006   7.339   6.955
 4884POPC   C4A61734  13.201   7.425   7.321
 4884POPC   C1B61735  12.461   7.147   6.093
 4884POPC   C2B61736  12.517   7.286   6.510
 4884POPC   C3B61737  12.517   7.187   6.952
 4884POPC   C4B61738  12.681   7.338   7.382
 4885POPC   NC361739  37.579  33.839   5.389
 4885POPC   PO461740  38.161  33.753   5.415
 4885POPC   GL161741  37.985  33.977   5.796
 4885POPC   GL261742  37.603  34.070   5.848
 4885POPC   C1A61743  37.874  33.858   6.240
 4885POPC   D2A61744  38.046  33.637   6.614
 4885POPC   C3A61745  37.741  33.471   6.909
 4885POPC   C4A61746  37.662  33.802   7.182
 4885POPC   C1B61747  37.395  34.029   6.258
 4885POPC   C2B61748  37.481  33.844   6.661
 4885POPC   C3B61749  37.199  33.813   7.019
 4885POPC   C4B61750  37.154  34.101   7.338
 4886POPC   NC361751   2.192  17.788   5.532
 4886POPC   PO461752   2.032  18.488   5.462
 4886POPC   GL161753   1.896  18.395   5.898
 4886POPC   GL261754   1.654  18.078   5.976
 4886POPC   C1A61755   2.109  18.129   6.192
 4886POPC   D2A61756   2.298  17.925   6.524
 4886POPC   C3A61757   2.159  18.207   6.808
 4886POPC   C4A61758   2.243  18.115   7.173
 4886POPC   C1B61759   1.653  18.376   6.348
 4886POPC   C2B61760   1.725  18.483   6.789
 4886POPC   C3B61761   1.723  18.252   7.156
 4886POPC   C4B61762   1.504  18.341   7.544
 4887POPC   NC361763  44.419  23.834   5.543
 4887POPC   PO461764  44.940  23.402   5.523
 4887POPC   GL161765  44.823  23.643   5.880
 4887POPC   GL261766  44.593  23.935   5.994
 4887POPC   C1A61767  44.946  23.737   6.281
 4887POPC   D2A61768  44.692  24.027   6.506
 4887POPC   C3A61769  44.656  23.900   6.905
 4887POPC   C4A61770  44.637  23.880   7.323
 4887POPC   C1B61771  44.440  23.592   6.250
 4887POPC   C2B61772  44.262  23.667   6.659
 4887POPC   C3B61773  44.239  23.589   7.086
 4887POPC   C4B61774  44.460  23.422   7.419
 4888POPC   NC361775  30.462  41.534   5.413
 4888POPC   PO461776  30.891  41.261   5.762
 4888POPC   GL161777  30.634  41.572   5.891
 4888POPC   GL261778  30.348  41.369   5.887
 4888POPC   C1A61779  30.704  41.879   6.191
 4888POPC   D2A61780  30.545  41.902   6.591
 4888POPC   C3A61781  30.677  41.608   6.886
 4888POPC   C4A61782  30.638  41.458   7.303
 4888POPC   C1B61783  30.262  41.618   6.242
 4888POPC   C2B61784  30.247  41.444   6.623
 4888POPC   C3B61785  30.254  41.294   7.026
 4888POPC   C4B61786  30.110  41.406   7.416
 4889POPC   NC361787  29.877  41.067   4.927
 4889POPC   PO461788  30.127  40.693   5.456
 4889POPC   GL161789  29.811  40.729   5.796
 4889POPC   GL261790  30.044  40.949   5.912
 4889POPC   C1A61791  29.759  40.730   6.275
 4889POPC   D2A61792  29.930  41.037   6.570
 4889POPC   C3A61793  29.994  40.851   6.974
 4889POPC   C4A61794  29.718  40.687   7.283
 4889POPC   C1B61795  30.221  40.557   6.089
 4889POPC   C2B61796  30.126  40.388   6.480
 4889POPC   C3B61797  30.305  40.431   6.874
 4889POPC   C4B61798  30.175  40.460   7.275
 4890POPC   NC361799  26.616  22.443   5.160
 4890POPC   PO461800  26.061  22.073   5.419
 4890POPC   GL161801  26.185  22.085   5.879
 4890POPC   GL261802  26.512  21.943   5.976
 4890POPC   C1A61803  26.175  22.227   6.301
 4890POPC   D2A61804  25.909  22.037   6.624
 4890POPC   C3A61805  25.810  22.217   6.991
 4890POPC   C4A61806  26.156  22.350   7.184
 4890POPC   C1B61807  26.209  21.727   6.256
 4890POPC   C2B61808  26.219  21.627   6.674
 4890POPC   C3B61809  26.156  21.838   7.055
 4890POPC   C4B61810  26.111  21.582   7.355
 4891POPC   NC361811  22.615  14.393   5.308
 4891POPC   PO461812  23.204  14.632   5.509
 4891POPC   GL161813  22.906  14.494   5.832
 4891POPC   GL261814  22.718  14.179   5.805
 4891POPC   C1A61815  22.857  14.615   6.270
 4891POPC   D2A61816  22.957  14.356   6.606
 4891POPC   C3A61817  23.040  14.575   6.965
 4891POPC   C4A61818  23.194  14.458   7.357
 4891POPC   C1B61819  22.536  14.130   6.232
 4891POPC   C2B61820  22.578  14.024   6.679
 4891POPC   C3B61821  22.712  14.185   7.093
 4891POPC   C4B61822  22.583  13.913   7.416
 4892POPC   NC361823  36.145  15.015   5.453
 4892POPC   PO461824  36.317  15.678   5.303
 4892POPC   GL161825  36.281  15.414   5.739
 4892POPC   GL261826  35.989  15.517   5.958
 4892POPC   C1A61827  36.270  15.127   6.127
 4892POPC   D2A61828  36.040  15.171   6.528
 4892POPC   C3A61829  36.200  15.003   6.921
 4892POPC   C4A61830  36.536  15.030   7.205
 4892POPC   C1B61831  36.221  15.609   6.268
 4892POPC   C2B61832  36.128  15.697   6.679
 4892POPC   C3B61833  36.247  15.529   7.068
 4892POPC   C4B61834  36.112  15.389   7.443
 4893POPC   NC361835  42.794  37.504   5.422
 4893POPC   PO461836  43.396  37.311   5.374
 4893POPC   GL161837  43.205  37.447   5.776
 4893POPC   GL261838  42.981  37.155   5.849
 4893POPC   C1A61839  42.934  37.712   6.076
 4893POPC   D2A61840  42.984  38.026   6.385
 4893POPC   C3A61841  42.962  37.871   6.792
 4893POPC   C4A61842  43.104  37.979   7.164
 4893POPC   C1B61843  43.094  37.280   6.274
 4893POPC   C2B61844  43.323  37.514   6.590
 4893POPC   C3B61845  43.277  37.513   7.004
 4893POPC   C4B61846  43.090  37.536   7.430
 4894POPC   NC361847  22.216  28.608   5.438
 4894POPC   PO461848  22.437  27.997   5.457
 4894POPC   GL161849  22.162  28.213   5.776
 4894POPC   GL261850  22.214  28.581   5.938
 4894POPC   C1A61851  21.980  28.194   6.185
 4894POPC   D2A61852  22.182  28.133   6.550
 4894POPC   C3A61853  21.895  28.134   6.889
 4894POPC   C4A61854  21.878  28.472   7.174
 4894POPC   C1B61855  22.223  28.826   6.330
 4894POPC   C2B61856  22.141  28.654   6.745
 4894POPC   C3B61857  22.309  28.751   7.150
 4894POPC   C4B61858  22.281  28.557   7.568
 4895POPC   NC361859  33.227   1.859   5.295
 4895POPC   PO461860  32.669   1.751   5.595
 4895POPC   GL161861  32.918   1.756   5.908
 4895POPC   GL261862  33.031   2.091   5.871
 4895POPC   C1A61863  32.856   1.924   6.331
 4895POPC   D2A61864  32.831   2.059   6.781
 4895POPC   C3A61865  33.025   1.778   7.125
 4895POPC   C4A61866  33.089   1.617   7.584
 4895POPC   C1B61867  33.232   2.307   6.236
 4895POPC   C2B61868  33.384   2.415   6.667
 4895POPC   C3B61869  33.165   2.341   7.053
 4895POPC   C4B61870  32.752   2.428   7.183
 4896POPC   NC361871   2.976  15.054   5.290
 4896POPC   PO461872   2.660  15.498   5.660
 4896POPC   GL161873   2.768  15.051   5.829
 4896POPC   GL261874   2.451  14.833   5.781
 4896POPC   C1A61875   2.983  14.986   6.267
 4896POPC   D2A61876   2.802  15.188   6.651
 4896POPC   C3A61877   2.941  15.162   7.091
 4896POPC   C4A61878   3.091  15.398   7.457
 4896POPC   C1B61879   2.318  15.134   6.126
 4896POPC   C2B61880   2.283  15.349   6.545
 4896POPC   C3B61881   2.409  15.329   6.973
 4896POPC   C4B61882   2.457  14.965   7.209
 4897POPC   NC361883  17.303  13.091   5.438
 4897POPC   PO461884  17.406  12.416   5.545
 4897POPC   GL161885  17.554  12.685   5.898
 4897POPC   GL261886  17.487  13.061   5.918
 4897POPC   C1A61887  17.471  12.660   6.347
 4897POPC   D2A61888  17.086  12.664   6.574
 4897POPC   C3A61889  17.115  12.650   7.054
 4897POPC   C4A61890  17.487  12.616   7.342
 4897POPC   C1B61891  17.220  13.129   6.312
 4897POPC   C2B61892  17.218  13.102   6.772
 4897POPC   C3B61893  17.333  13.086   7.187
 4897POPC   C4B61894  17.718  13.097   7.382
 4898POPC   NC361895   9.817  33.727   5.124
 4898POPC   PO461896   9.579  33.201   5.291
 4898POPC   GL161897   9.611  33.545   5.688
 4898POPC   GL261898   9.825  33.828   5.730
 4898POPC   C1A61899   9.554  33.817   6.141
 4898POPC   D2A61900   9.530  34.006   6.592
 4898POPC   C3A61901   9.549  33.638   6.917
 4898POPC   C4A61902   9.444  33.566   7.363
 4898POPC   C1B61903  10.032  33.954   6.156
 4898POPC   C2B61904   9.972  33.766   6.586
 4898POPC   C3B61905  10.053  33.729   7.014
 4898POPC   C4B61906  10.331  33.988   7.238
 4899POPC   NC361907  13.034  31.262   5.337
 4899POPC   PO461908  12.647  31.885   5.202
 4899POPC   GL161909  12.662  31.691   5.677
 4899POPC   GL261910  12.660  31.306   5.717
 4899POPC   C1A61911  12.648  31.689   6.158
 4899POPC   D2A61912  12.605  31.917   6.591
 4899POPC   C3A61913  12.939  31.805   6.884
 4899POPC   C4A61914  12.801  31.391   6.955
 4899POPC   C1B61915  12.938  31.142   6.067
 4899POPC   C2B61916  13.159  31.215   6.483
 4899POPC   C3B61917  13.265  31.164   6.917
 4899POPC   C4B61918  13.218  31.463   7.250
 4900POPC   NC361919  14.154   8.437   5.453
 4900POPC   PO461920  14.707   7.994   5.249
 4900POPC   GL161921  14.609   8.138   5.694
 4900POPC   GL261922  14.259   8.150   5.852
 4900POPC   C1A61923  14.629   8.459   6.037
 4900POPC   D2A61924  14.300   8.475   6.370
 4900POPC   C3A61925  14.415   8.483   6.836
 4900POPC   C4A61926  14.491   8.440   7.304
 4900POPC   C1B61927  14.494   7.999   6.218
 4900POPC   C2B61928  14.314   7.989   6.635
 4900POPC   C3B61929  14.257   8.059   7.062
 4900POPC   C4B61930  14.553   7.946   7.411
 4901POPC   NC361931  20.231  38.626   5.363
 4901POPC   PO461932  20.823  38.401   5.393
 4901POPC   GL161933  20.743  38.235   5.805
 4901POPC   GL261934  20.392  38.259   5.752
 4901POPC   C1A61935  20.661  38.322   6.254
 4901POPC   D2A61936  20.843  38.309   6.653
 4901POPC   C3A61937  20.681  38.559   6.956
 4901POPC   C4A61938  20.675  38.215   7.199
 4901POPC   C1B61939  20.279  38.602   6.068
 4901POPC   C2B61940  20.398  38.742   6.506
 4901POPC   C3B61941  20.169  38.694   6.896
 4901POPC   C4B61942  20.285  38.519   7.294
 4902POPC   NC361943  19.209  20.114   5.516
 4902POPC   PO461944  19.142  19.402   5.408
 4902POPC   GL161945  19.070  19.695   5.779
 4902POPC   GL261946  18.756  19.841   5.687
 4902POPC   C1A61947  19.149  20.022   6.158
 4902POPC   D2A61948  19.319  20.289   6.534
 4902POPC   C3A61949  19.213  20.150   6.958
 4902POPC   C4A61950  19.103  19.927   7.340
 4902POPC   C1B61951  18.626  19.914   6.103
 4902POPC   C2B61952  18.790  19.918   6.504
 4902POPC   C3B61953  18.767  19.871   6.918
 4902POPC   C4B61954  18.652  20.159   7.198
 4903POPC   NC361955  36.590   0.278   5.550
 4903POPC   PO461956  37.195   0.499   5.377
 4903POPC   GL161957  36.892   0.676   5.761
 4903POPC   GL261958  36.507   0.667   5.859
 4903POPC   C1A61959  36.881   0.512   6.213
 4903POPC   D2A61960  37.192   0.479   6.564
 4903POPC   C3A61961  37.085   0.373   6.986
 4903POPC   C4A61962  36.769   0.089   7.054
 4903POPC   C1B61963  36.618   0.949   6.184
 4903POPC   C2B61964  36.752   0.862   6.598
 4903POPC   C3B61965  36.611   0.541   6.821
 4903POPC   C4B61966  36.681   0.612   7.214
 4904POPC   NC361967  10.727  10.461   5.388
 4904POPC   PO461968  10.043  10.527   5.366
 4904POPC   GL161969  10.340  10.538   5.768
 4904POPC   GL261970  10.700  10.572   5.864
 4904POPC   C1A61971  10.377  10.480   6.237
 4904POPC   D2A61972  10.236  10.742   6.599
 4904POPC   C3A61973  10.358  10.560   6.990
 4904POPC   C4A61974  10.260  10.358   7.403
 4904POPC   C1B61975  10.819  10.771   6.221
 4904POPC   C2B61976  10.737  10.628   6.613
 4904POPC   C3B61977  10.892  10.659   6.993
 4904POPC   C4B61978  10.706  10.677   7.405
 4905POPC   NC361979  38.764  38.052   5.562
 4905POPC   PO461980  38.339  37.659   5.201
 4905POPC   GL161981  38.309  37.810   5.696
 4905POPC   GL261982  38.602  37.685   5.915
 4905POPC   C1A61983  38.283  37.912   6.205
 4905POPC   D2A61984  38.649  37.974   6.527
 4905POPC   C3A61985  38.653  37.822   6.953
 4905POPC   C4A61986  38.311  37.650   7.137
 4905POPC   C1B61987  38.698  37.491   6.311
 4905POPC   C2B61988  38.480  37.389   6.694
 4905POPC   C3B61989  38.591  37.230   7.060
 4905POPC   C4B61990  38.927  37.443   7.226
 4906POPC   NC361991   0.952   6.977   5.138
 4906POPC   PO461992   1.035   7.710   5.215
 4906POPC   GL161993   1.112   7.687   5.714
 4906POPC   GL261994   1.143   7.325   5.771
 4906POPC   C1A61995   1.285   7.680   6.158
 4906POPC   D2A61996   1.424   7.459   6.544
 4906POPC   C3A61997   1.263   7.550   6.948
 4906POPC   C4A61998   1.432   7.708   7.302
 4906POPC   C1B61999   1.046   7.206   6.212
 4906POPC   C2B62000   0.924   7.256   6.660
 4906POPC   C3B62001   1.112   7.077   7.056
 4906POPC   C4B62002   1.542   7.046   7.187
 4907POPC   NC362003  20.839  40.794   5.151
 4907POPC   PO462004  20.201  40.843   5.261
 4907POPC   GL162005  20.337  40.776   5.676
 4907POPC   GL262006  20.678  40.913   5.741
 4907POPC   C1A62007  20.327  40.691   6.127
 4907POPC   D2A62008  20.246  40.939   6.500
 4907POPC   C3A62009  20.254  40.732   6.885
 4907POPC   C4A62010  20.331  40.610   7.306
 4907POPC   C1B62011  20.773  40.951   6.218
 4907POPC   C2B62012  20.738  41.065   6.704
 4907POPC   C3B62013  20.879  40.825   7.114
 4907POPC   C4B62014  20.747  40.857   7.568
 4908POPC   NC362015  28.455   4.442   5.463
 4908POPC   PO462016  28.086   3.931   5.497
 4908POPC   GL162017  28.355   4.038   5.835
 4908POPC   GL262018  28.719   4.166   5.807
 4908POPC   C1A62019  28.470   4.006   6.260
 4908POPC   D2A62020  28.698   4.235   6.579
 4908POPC   C3A62021  28.392   4.286   6.893
 4908POPC   C4A62022  28.157   4.058   7.220
 4908POPC   C1B62023  28.573   4.466   6.127
 4908POPC   C2B62024  28.570   4.755   6.473
 4908POPC   C3B62025  28.465   4.832   6.903
 4908POPC   C4B62026  28.462   4.600   7.285
 4909POPC   NC362027   1.350  29.936   5.364
 4909POPC   PO462028   0.840  30.397   5.340
 4909POPC   GL162029   1.041  30.107   5.763
 4909POPC   GL262030   1.257  29.769   5.833
 4909POPC   C1A62031   1.172  30.057   6.245
 4909POPC   D2A62032   1.352  30.164   6.670
 4909POPC   C3A62033   1.115  30.072   7.066
 4909POPC   C4A62034   0.816  29.730   7.005
 4909POPC   C1B62035   1.560  29.745   6.170
 4909POPC   C2B62036   1.762  29.867   6.562
 4909POPC   C3B62037   1.693  29.851   7.028
 4909POPC   C4B62038   1.459  29.872   7.422
 4910POPC   NC362039   4.208   4.819   5.388
 4910POPC   PO462040   4.841   5.103   5.500
 4910POPC   GL162041   4.539   5.042   5.842
 4910POPC   GL262042   4.200   5.197   5.798
 4910POPC   C1A62043   4.623   4.899   6.289
 4910POPC   D2A62044   4.765   4.954   6.730
 4910POPC   C3A62045   4.461   5.199   6.899
 4910POPC   C4A62046   4.310   5.261   7.263
 4910POPC   C1B62047   4.110   4.892   6.127
 4910POPC   C2B62048   4.091   4.971   6.584
 4910POPC   C3B62049   4.041   4.792   7.009
 4910POPC   C4B62050   4.051   4.886   7.472
 4911POPC   NC362051  33.096  36.079   5.410
 4911POPC   PO462052  33.224  36.726   5.563
 4911POPC   GL162053  33.046  36.441   5.873
 4911POPC   GL262054  32.675  36.388   5.824
 4911POPC   C1A62055  33.222  36.097   6.174
 4911POPC   D2A62056  33.020  35.859   6.538
 4911POPC   C3A62057  33.066  35.928   7.000
 4911POPC   C4A62058  32.968  35.850   7.443
 4911POPC   C1B62059  32.742  36.248   6.252
 4911POPC   C2B62060  33.030  36.412   6.560
 4911POPC   C3B62061  32.892  36.431   6.974
 4911POPC   C4B62062  32.612  36.159   7.185
 4912POPC   NC362063   4.745  21.756   5.390
 4912POPC   PO462064   4.502  21.073   5.399
 4912POPC   GL162065   4.489  21.423   5.753
 4912POPC   GL262066   4.215  21.328   5.954
 4912POPC   C1A62067   4.423  21.780   6.115
 4912POPC   D2A62068   4.605  21.907   6.540
 4912POPC   C3A62069   4.509  21.655   6.899
 4912POPC   C4A62070   4.289  21.574   7.283
 4912POPC   C1B62071   4.471  21.301   6.302
 4912POPC   C2B62072   4.395  21.183   6.709
 4912POPC   C3B62073   4.353  21.079   7.120
 4912POPC   C4B62074   4.557  21.118   7.514
 4913POPC   NC362075  28.834   4.973   5.396
 4913POPC   PO462076  29.448   5.253   5.598
 4913POPC   GL162077  29.239   5.132   5.941
 4913POPC   GL262078  28.960   5.276   5.841
 4913POPC   C1A62079  29.262   5.282   6.365
 4913POPC   D2A62080  29.204   5.346   6.805
 4913POPC   C3A62081  29.341   5.082   7.128
 4913POPC   C4A62082  29.502   5.336   7.447
 4913POPC   C1B62083  28.762   5.215   6.243
 4913POPC   C2B62084  28.702   5.241   6.681
 4913POPC   C3B62085  28.803   5.207   7.113
 4913POPC   C4B62086  28.876   4.874   7.388
 4914POPC   NC362087   3.858  34.212   5.357
 4914POPC   PO462088   3.537  34.741   5.232
 4914POPC   GL162089   3.507  34.484   5.659
 4914POPC   GL262090   3.169  34.498   5.820
 4914POPC   C1A62091   3.557  34.323   6.125
 4914POPC   D2A62092   3.601  34.539   6.559
 4914POPC   C3A62093   3.504  34.455   7.012
 4914POPC   C4A62094   3.610  34.249   7.374
 4914POPC   C1B62095   3.383  34.804   6.111
 4914POPC   C2B62096   3.424  35.014   6.516
 4914POPC   C3B62097   3.655  34.955   6.901
 4914POPC   C4B62098   3.443  34.961   7.281
 4915POPC   NC362099  38.097   9.750   5.580
 4915POPC   PO462100  38.546  10.168   5.516
 4915POPC   GL162101  38.426   9.933   5.927
 4915POPC   GL262102  38.222   9.594   6.026
 4915POPC   C1A62103  38.483   9.861   6.374
 4915POPC   D2A62104  38.274   9.878   6.753
 4915POPC   C3A62105  38.538   9.964   7.112
 4915POPC   C4A62106  38.948  10.032   7.255
 4915POPC   C1B62107  38.472   9.341   6.287
 4915POPC   C2B62108  38.502   9.404   6.716
 4915POPC   C3B62109  38.294   9.507   7.105
 4915POPC   C4B62110  38.273   9.736   7.489
 4916POPC   NC362111  29.822  44.847   5.154
 4916POPC   PO462112  30.090  44.410   5.535
 4916POPC   GL162113  29.998  44.608   5.853
 4916POPC   GL262114  30.071  44.951   5.711
 4916POPC   C1A62115  29.770  44.610   6.244
 4916POPC   D2A62116  29.725  44.772   6.655
 4916POPC   C3A62117  29.886  44.566   6.955
 4916POPC   C4A62118  29.610  44.428   7.190
 4916POPC   C1B62119  30.222  44.929   6.145
 4916POPC   C2B62120  30.214  44.747   6.521
 4916POPC   C3B62121  30.213  44.934   6.857
 4916POPC   C4B62122  30.072   0.008   7.232
 4917POPC   NC362123  43.141  42.715   5.421
 4917POPC   PO462124  42.828  42.142   5.199
 4917POPC   GL162125  43.035  42.256   5.644
 4917POPC   GL262126  42.826  42.475   5.754
 4917POPC   C1A62127  43.245  42.388   6.068
 4917POPC   D2A62128  43.106  42.450   6.519
 4917POPC   C3A62129  43.291  42.271   6.904
 4917POPC   C4A62130  43.214  42.142   7.327
 4917POPC   C1B62131  42.729  42.456   6.147
 4917POPC   C2B62132  42.664  42.177   6.471
 4917POPC   C3B62133  42.783  42.229   6.879
 4917POPC   C4B62134  42.647  42.151   7.272
 4918POPC   NC362135   7.930  26.608   5.384
 4918POPC   PO462136   8.544  26.963   5.258
 4918POPC   GL162137   8.356  27.050   5.688
 4918POPC   GL262138   7.975  27.019   5.695
 4918POPC   C1A62139   8.230  26.848   6.105
 4918POPC   D2A62140   8.094  26.480   6.415
 4918POPC   C3A62141   8.211  26.469   6.883
 4918POPC   C4A62142   8.460  26.767   7.157
 4918POPC   C1B62143   7.829  27.260   6.074
 4918POPC   C2B62144   7.656  27.174   6.495
 4918POPC   C3B62145   7.808  26.941   6.837
 4918POPC   C4B62146   8.006  27.037   7.212
 4919POPC   NC362147  23.938  34.087   5.359
 4919POPC   PO462148  23.843  34.786   5.414
 4919POPC   GL162149  23.775  34.734   5.831
 4919POPC   GL262150  24.002  34.484   5.807
 4919POPC   C1A62151  23.536  34.471   6.117
 4919POPC   D2A62152  23.494  34.500   6.560
 4919POPC   C3A62153  23.533  34.250   6.938
 4919POPC   C4A62154  23.347  34.431   7.313
 4919POPC   C1B62155  24.010  34.449   6.258
 4919POPC   C2B62156  23.940  34.773   6.589
 4919POPC   C3B62157  23.751  34.718   6.994
 4919POPC   C4B62158  23.855  34.392   7.316
 4920POPC   NC362159   0.687  39.575   5.535
 4920POPC   PO462160   0.602  40.234   5.472
 4920POPC   GL162161   0.624  39.975   5.842
 4920POPC   GL262162   0.319  39.783   5.951
 4920POPC   C1A62163   0.740  39.895   6.246
 4920POPC   D2A62164   0.427  39.892   6.565
 4920POPC   C3A62165   0.603  39.788   6.938
 4920POPC   C4A62166   0.765  39.816   7.348
 4920POPC   C1B62167   0.185  40.172   6.200
 4920POPC   C2B62168   0.015  40.266   6.606
 4920POPC   C3B62169   0.056  39.987   6.933
 4920POPC   C4B62170   0.284  40.002   7.286
 4921POPC   NC362171  43.743  32.753   5.502
 4921POPC   PO462172  43.984  32.143   5.441
 4921POPC   GL162173  43.658  32.276   5.726
 4921POPC   GL262174  43.930  32.432   5.883
 4921POPC   C1A62175  43.515  32.250   6.169
 4921POPC   D2A62176  43.742  32.122   6.560
 4921POPC   C3A62177  43.619  32.193   6.997
 4921POPC   C4A62178  43.942  32.102   7.312
 4921POPC   C1B62179  44.260  32.450   6.190
 4921POPC   C2B62180  44.228  32.632   6.601
 4921POPC   C3B62181  44.155  32.426   6.971
 4921POPC   C4B62182  44.275  32.517   7.398
 4922POPC   NC362183  24.879  21.330   5.399
 4922POPC   PO462184  24.208  21.325   5.370
 4922POPC   GL162185  24.473  21.366   5.743
 4922POPC   GL262186  24.697  21.644   5.780
 4922POPC   C1A62187  24.307  21.431   6.193
 4922POPC   D2A62188  24.150  21.260   6.590
 4922POPC   C3A62189  24.360  21.391   6.902
 4922POPC   C4A62190  24.215  21.659   7.186
 4922POPC   C1B62191  24.811  21.349   6.133
 4922POPC   C2B62192  24.927  21.161   6.538
 4922POPC   C3B62193  24.897  21.298   6.962
 4922POPC   C4B62194  24.748  21.648   7.111
 4923POPC   NC362195  23.149  43.607   5.491
 4923POPC   PO462196  22.542  43.754   5.570
 4923POPC   GL162197  22.843  44.079   5.733
 4923POPC   GL262198  23.192  44.027   5.816
 4923POPC   C1A62199  22.900  44.107   6.202
 4923POPC   D2A62200  22.786  43.806   6.510
 4923POPC   C3A62201  22.939  43.873   6.914
 4923POPC   C4A62202  22.898  43.897   7.338
 4923POPC   C1B62203  23.329  43.799   6.210
 4923POPC   C2B62204  23.247  43.596   6.632
 4923POPC   C3B62205  23.380  43.685   7.063
 4923POPC   C4B62206  23.364  43.865   7.497
 4924POPC   NC362207  21.588  26.420   5.413
 4924POPC   PO462208  21.141  26.863   5.236
 4924POPC   GL162209  21.213  26.701   5.680
 4924POPC   GL262210  20.908  26.579   5.863
 4924POPC   C1A62211  21.552  26.753   6.032
 4924POPC   D2A62212  21.655  26.577   6.470
 4924POPC   C3A62213  21.581  26.668   6.878
 4924POPC   C4A62214  21.764  26.648   7.267
 4924POPC   C1B62215  21.130  26.599   6.250
 4924POPC   C2B62216  21.305  26.983   6.434
 4924POPC   C3B62217  21.316  27.102   6.844
 4924POPC   C4B62218  21.333  26.908   7.258
 4925POPC   NC362219   2.301  20.778   5.465
 4925POPC   PO462220   2.954  20.615   5.400
 4925POPC   GL162221   2.884  20.854   5.742
 4925POPC   GL262222   2.890  20.500   5.889
 4925POPC   C1A62223   2.838  20.887   6.193
 4925POPC   D2A62224   2.842  20.566   6.521
 4925POPC   C3A62225   2.851  20.772   6.930
 4925POPC   C4A62226   2.649  21.022   7.244
 4925POPC   C1B62227   2.978  20.157   6.145
 4925POPC   C2B62228   3.210  20.152   6.536
 4925POPC   C3B62229   3.055  20.194   6.933
 4925POPC   C4B62230   2.771  20.364   7.236
 4926POPC   NC362231  20.298  20.476   5.522
 4926POPC   PO462232  19.652  20.194   5.438
 4926POPC   GL162233  19.866  20.392   5.796
 4926POPC   GL262234  20.026  20.677   5.925
 4926POPC   C1A62235  19.732  20.352   6.234
 4926POPC   D2A62236  19.797  20.581   6.614
 4926POPC   C3A62237  19.683  20.371   7.002
 4926POPC   C4A62238  19.774  20.442   7.436
 4926POPC   C1B62239  20.300  20.823   6.266
 4926POPC   C2B62240  20.300  20.906   6.712
 4926POPC   C3B62241  20.062  20.809   7.066
 4926POPC   C4B62242  20.036  20.882   7.506
 4927POPC   NC362243  33.473  35.092   5.581
 4927POPC   PO462244  33.956  34.606   5.369
 4927POPC   GL162245  33.865  34.510   5.781
 4927POPC   GL262246  33.577  34.715   5.927
 4927POPC   C1A62247  34.006  34.514   6.196
 4927POPC   D2A62248  33.808  34.651   6.589
 4927POPC   C3A62249  33.839  34.339   6.933
 4927POPC   C4A62250  33.933  34.368   7.377
 4927POPC   C1B62251  33.414  35.024   6.264
 4927POPC   C2B62252  33.297  34.942   6.696
 4927POPC   C3B62253  33.506  34.717   7.015
 4927POPC   C4B62254  33.652  34.783   7.402
 4928POPC   NC362255  36.002  44.201   5.597
 4928POPC   PO462256  36.624  43.970   5.494
 4928POPC   GL162257  36.404  43.956   5.845
 4928POPC   GL262258  36.111  43.745   5.865
 4928POPC   C1A62259  36.327  43.968   6.284
 4928POPC   D2A62260  36.179  43.647   6.542
 4928POPC   C3A62261  36.329  43.752   6.944
 4928POPC   C4A62262  36.104  43.930   7.281
 4928POPC   C1B62263  35.826  43.904   6.211
 4928POPC   C2B62264  35.760  44.222   6.543
 4928POPC   C3B62265  35.743  44.202   6.990
 4928POPC   C4B62266  35.694  43.759   7.056
 4929POPC   NC362267  32.041   5.376   5.461
 4929POPC   PO462268  32.414   4.841   5.253
 4929POPC   GL162269  32.394   5.018   5.671
 4929POPC   GL262270  32.061   4.969   5.756
 4929POPC   C1A62271  32.472   5.086   6.133
 4929POPC   D2A62272  32.359   5.299   6.524
 4929POPC   C3A62273  32.317   5.023   6.873
 4929POPC   C4A62274  32.615   4.950   7.162
 4929POPC   C1B62275  31.991   5.261   6.123
 4929POPC   C2B62276  31.855   5.321   6.554
 4929POPC   C3B62277  31.998   5.413   6.988
 4929POPC   C4B62278  31.907   5.102   7.308
 4930POPC   NC362279  32.487  26.935   5.436
 4930POPC   PO462280  31.908  26.514   5.516
 4930POPC   GL162281  32.120  26.798   5.789
 4930POPC   GL262282  32.486  26.743   5.907
 4930POPC   C1A62283  32.074  27.056   6.150
 4930POPC   D2A62284  31.914  27.050   6.561
 4930POPC   C3A62285  32.210  27.033   6.925
 4930POPC   C4A62286  32.403  26.952   7.319
 4930POPC   C1B62287  32.282  26.542   6.265
 4930POPC   C2B62288  32.230  26.572   6.702
 4930POPC   C3B62289  32.538  26.511   7.039
 4930POPC   C4B62290  32.463  26.441   7.475
 4931POPC   NC362291  18.488  33.575   5.256
 4931POPC   PO462292  19.191  33.597   5.382
 4931POPC   GL162293  19.060  33.766   5.775
 4931POPC   GL262294  19.117  33.436   5.882
 4931POPC   C1A62295  19.189  33.937   6.196
 4931POPC   D2A62296  19.275  34.178   6.602
 4931POPC   C3A62297  19.164  33.973   6.999
 4931POPC   C4A62298  19.277  33.664   7.323
 4931POPC   C1B62299  19.196  33.432   6.274
 4931POPC   C2B62300  19.093  33.604   6.643
 4931POPC   C3B62301  18.985  33.378   6.996
 4931POPC   C4B62302  18.853  33.423   7.428
 4932POPC   NC362303  24.616  23.157   5.390
 4932POPC   PO462304  24.520  23.873   5.298
 4932POPC   GL162305  24.458  23.655   5.740
 4932POPC   GL262306  24.659  23.398   5.847
 4932POPC   C1A62307  24.317  23.511   6.194
 4932POPC   D2A62308  24.390  23.659   6.627
 4932POPC   C3A62309  24.218  23.775   7.052
 4932POPC   C4A62310  24.425  23.820   7.462
 4932POPC   C1B62311  24.811  23.267   6.243
 4932POPC   C2B62312  24.726  23.277   6.687
 4932POPC   C3B62313  24.671  23.530   7.048
 4932POPC   C4B62314  24.533  23.347   7.393
 4933POPC   NC362315  42.251   7.582   5.357
 4933POPC   PO462316  42.003   6.966   5.341
 4933POPC   GL162317  42.191   7.261   5.735
 4933POPC   GL262318  42.157   7.652   5.843
 4933POPC   C1A62319  42.402   7.319   6.144
 4933POPC   D2A62320  42.209   7.309   6.559
 4933POPC   C3A62321  42.467   7.267   6.926
 4933POPC   C4A62322  42.372   7.187   7.361
 4933POPC   C1B62323  42.139   7.786   6.301
 4933POPC   C2B62324  42.053   7.751   6.764
 4933POPC   C3B62325  42.076   7.555   7.168
 4933POPC   C4B62326  42.154   7.723   7.563
 4934POPC   NC362327   6.528  37.038   5.337
 4934POPC   PO462328   6.612  36.512   5.579
 4934POPC   GL162329   6.692  36.803   5.875
 4934POPC   GL262330   6.829  37.139   5.823
 4934POPC   C1A62331   6.560  36.877   6.291
 4934POPC   D2A62332   6.883  37.010   6.588
 4934POPC   C3A62333   6.829  36.731   6.939
 4934POPC   C4A62334   6.475  36.842   7.155
 4934POPC   C1B62335   6.664  37.373   6.205
 4934POPC   C2B62336   6.504  37.394   6.627
 4934POPC   C3B62337   6.673  37.314   7.024
 4934POPC   C4B62338   6.927  37.089   7.289
 4935POPC   NC362339  29.400  15.139   5.583
 4935POPC   PO462340  30.066  15.372   5.356
 4935POPC   GL162341  29.853  15.331   5.736
 4935POPC   GL262342  29.711  15.616   5.908
 4935POPC   C1A62343  30.027  15.174   6.108
 4935POPC   D2A62344  30.149  14.994   6.496
 4935POPC   C3A62345  30.134  15.205   6.860
 4935POPC   C4A62346  30.059  15.049   7.220
 4935POPC   C1B62347  29.562  15.339   6.237
 4935POPC   C2B62348  29.650  15.164   6.642
 4935POPC   C3B62349  29.574  15.091   7.063
 4935POPC   C4B62350  29.704  15.418   7.326
 4936POPC   NC362351   8.371  29.845   5.494
 4936POPC   PO462352   7.760  29.576   5.214
 4936POPC   GL162353   7.932  29.831   5.711
 4936POPC   GL262354   8.257  29.534   5.856
 4936POPC   C1A62355   8.056  29.824   6.192
 4936POPC   D2A62356   8.309  29.908   6.565
 4936POPC   C3A62357   8.144  29.898   6.994
 4936POPC   C4A62358   8.272  30.197   7.295
 4936POPC   C1B62359   8.597  29.697   6.159
 4936POPC   C2B62360   8.672  29.539   6.586
 4936POPC   C3B62361   8.543  29.577   7.006
 4936POPC   C4B62362   8.181  29.440   7.251
 4937POPC   NC362363  30.677  27.135   5.509
 4937POPC   PO462364  30.646  26.463   5.430
 4937POPC   GL162365  30.576  26.723   5.815
 4937POPC   GL262366  30.879  26.860   5.906
 4937POPC   C1A62367  30.452  26.885   6.231
 4937POPC   D2A62368  30.544  26.746   6.651
 4937POPC   C3A62369  30.326  26.960   6.960
 4937POPC   C4A62370  30.496  27.032   7.317
 4937POPC   C1B62371  31.144  26.660   6.195
 4937POPC   C2B62372  31.205  26.662   6.615
 4937POPC   C3B62373  30.986  26.671   7.009
 4937POPC   C4B62374  31.085  26.348   7.317
 4938POPC   NC362375  43.006  19.823   5.275
 4938POPC   PO462376  43.408  20.329   5.436
 4938POPC   GL162377  43.189  20.038   5.729
 4938POPC   GL262378  43.118  19.662   5.761
 4938POPC   C1A62379  43.282  19.974   6.168
 4938POPC   D2A62380  43.064  19.836   6.534
 4938POPC   C3A62381  43.270  19.958   6.910
 4938POPC   C4A62382  43.255  19.764   7.293
 4938POPC   C1B62383  42.978  19.426   6.172
 4938POPC   C2B62384  42.807  19.314   6.585
 4938POPC   C3B62385  42.994  19.408   6.978
 4938POPC   C4B62386  42.897  19.243   7.361
 4939POPC   NC362387   3.867   0.737   5.379
 4939POPC   PO462388   3.677   0.046   5.265
 4939POPC   GL162389   3.718   0.162   5.722
 4939POPC   GL262390   3.641   0.509   5.786
 4939POPC   C1A62391   3.545   0.129   6.167
 4939POPC   D2A62392   3.504   0.265   6.598
 4939POPC   C3A62393   3.324   0.619   6.830
 4939POPC   C4A62394   3.272   0.620   7.297
 4939POPC   C1B62395   3.832   0.553   6.193
 4939POPC   C2B62396   3.770   0.696   6.608
 4939POPC   C3B62397   3.785   0.456   6.990
 4939POPC   C4B62398   4.077   0.413   7.272
 4940POPC   NC362399  34.132   3.149   5.595
 4940POPC   PO462400  33.799   3.638   5.243
 4940POPC   GL162401  33.776   3.511   5.662
 4940POPC   GL262402  33.537   3.248   5.701
 4940POPC   C1A62403  33.929   3.553   6.071
 4940POPC   D2A62404  34.205   3.667   6.373
 4940POPC   C3A62405  34.047   3.746   6.782
 4940POPC   C4A62406  34.127   3.656   7.185
 4940POPC   C1B62407  33.462   3.357   6.133
 4940POPC   C2B62408  33.643   3.549   6.494
 4940POPC   C3B62409  33.526   3.693   6.878
 4940POPC   C4B62410  33.638   3.642   7.300
 4941POPC   NC362411  44.929  42.335   5.387
 4941POPC   PO462412  44.299  42.228   5.506
 4941POPC   GL162413  44.364  42.352   5.897
 4941POPC   GL262414  44.666  42.489   5.821
 4941POPC   C1A62415  44.513  42.327   6.290
 4941POPC   D2A62416  44.679  42.222   6.624
 4941POPC   C3A62417  44.444  42.191   6.975
 4941POPC   C4A62418  44.647  42.251   7.361
 4941POPC   C1B62419  44.821  42.713   6.189
 4941POPC   C2B62420  44.797  42.723   6.651
 4941POPC   C3B62421  44.629  42.695   7.093
 4941POPC   C4B62422  44.852  42.714   7.524
 4942POPC   NC362423  42.860  23.469   5.114
 4942POPC   PO462424  43.141  22.857   5.345
 4942POPC   GL162425  43.081  23.100   5.744
 4942POPC   GL262426  43.347  23.042   5.924
 4942POPC   C1A62427  42.898  22.988   6.185
 4942POPC   D2A62428  43.028  23.051   6.626
 4942POPC   C3A62429  42.990  22.833   7.007
 4942POPC   C4A62430  42.981  23.028   7.439
 4942POPC   C1B62431  43.298  23.312   6.278
 4942POPC   C2B62432  43.461  23.290   6.706
 4942POPC   C3B62433  43.265  23.281   7.116
 4942POPC   C4B62434  43.396  23.327   7.588
 4943POPC   NC362435  16.659  26.338   5.624
 4943POPC   PO462436  16.363  25.858   5.244
 4943POPC   GL162437  16.437  25.860   5.775
 4943POPC   GL262438  16.761  26.025   5.969
 4943POPC   C1A62439  16.504  25.761   6.276
 4943POPC   D2A62440  16.808  26.056   6.521
 4943POPC   C3A62441  16.702  26.053   6.955
 4943POPC   C4A62442  16.419  25.764   7.103
 4943POPC   C1B62443  17.132  26.222   6.151
 4943POPC   C2B62444  17.199  26.440   6.551
 4943POPC   C3B62445  17.163  26.236   6.958
 4943POPC   C4B62446  16.955  26.339   7.341
 4944POPC   NC362447  13.366   2.610   5.387
 4944POPC   PO462448  14.016   2.597   5.514
 4944POPC   GL162449  13.798   2.843   5.780
 4944POPC   GL262450  13.484   2.928   5.748
 4944POPC   C1A62451  13.747   3.047   6.163
 4944POPC   D2A62452  13.568   3.001   6.519
 4944POPC   C3A62453  13.777   2.723   6.755
 4944POPC   C4A62454  13.801   2.722   7.182
 4944POPC   C1B62455  13.444   2.649   6.120
 4944POPC   C2B62456  13.353   2.525   6.545
 4944POPC   C3B62457  13.307   2.723   6.925
 4944POPC   C4B62458  13.237   2.631   7.303
 4945POPC   NC362459  32.493  38.675   5.411
 4945POPC   PO462460  31.973  38.199   5.565
 4945POPC   GL162461  32.331  38.353   5.807
 4945POPC   GL262462  32.206  38.713   5.823
 4945POPC   C1A62463  32.403  38.383   6.251
 4945POPC   D2A62464  32.042  38.458   6.549
 4945POPC   C3A62465  32.106  38.288   6.947
 4945POPC   C4A62466  32.440  38.200   7.192
 4945POPC   C1B62467  32.184  38.856   6.235
 4945POPC   C2B62468  32.449  38.801   6.615
 4945POPC   C3B62469  32.431  38.691   7.060
 4945POPC   C4B62470  32.043  38.628   7.325
 4946POPC   NC362471   4.911  20.936   5.576
 4946POPC   PO462472   5.205  21.597   5.390
 4946POPC   GL162473   5.242  21.309   5.746
 4946POPC   GL262474   4.943  21.266   5.944
 4946POPC   C1A62475   5.373  21.466   6.166
 4946POPC   D2A62476   5.337  21.698   6.533
 4946POPC   C3A62477   5.355  21.407   6.832
 4946POPC   C4A62478   5.260  21.413   7.231
 4946POPC   C1B62479   4.887  21.574   6.239
 4946POPC   C2B62480   4.879  21.415   6.632
 4946POPC   C3B62481   4.823  21.264   7.033
 4946POPC   C4B62482   4.783  21.538   7.364
 4947POPC   NC362483   8.422  14.833   5.497
 4947POPC   PO462484   8.166  15.430   5.256
 4947POPC   GL162485   8.059  15.196   5.686
 4947POPC   GL262486   7.729  15.053   5.759
 4947POPC   C1A62487   8.175  15.243   6.159
 4947POPC   D2A62488   8.523  15.367   6.459
 4947POPC   C3A62489   8.493  15.268   6.900
 4947POPC   C4A62490   8.341  15.323   7.334
 4947POPC   C1B62491   7.663  15.347   6.080
 4947POPC   C2B62492   7.790  15.337   6.509
 4947POPC   C3B62493   7.985  15.334   6.922
 4947POPC   C4B62494   7.810  15.269   7.344
 4948POPC   NC362495  13.683  30.512   5.384
 4948POPC   PO462496  13.532  31.136   5.332
 4948POPC   GL162497  13.610  30.864   5.771
 4948POPC   GL262498  13.788  30.513   5.882
 4948POPC   C1A62499  13.513  30.752   6.238
 4948POPC   D2A62500  13.648  30.815   6.678
 4948POPC   C3A62501  13.452  30.719   7.088
 4948POPC   C4A62502  13.609  30.627   7.513
 4948POPC   C1B62503  13.922  30.440   6.304
 4948POPC   C2B62504  13.969  30.434   6.725
 4948POPC   C3B62505  13.934  30.527   7.142
 4948POPC   C4B62506  14.016  30.330   7.563
 4949POPC   NC362507  16.967  31.211   5.290
 4949POPC   PO462508  16.510  30.654   5.414
 4949POPC   GL162509  16.789  30.823   5.731
 4949POPC   GL262510  16.735  30.524   5.890
 4949POPC   C1A62511  16.932  30.872   6.201
 4949POPC   D2A62512  16.805  30.746   6.644
 4949POPC   C3A62513  16.877  31.012   7.013
 4949POPC   C4A62514  16.710  30.976   7.496
 4949POPC   C1B62515  16.446  30.334   6.180
 4949POPC   C2B62516  16.316  30.343   6.611
 4949POPC   C3B62517  16.588  30.362   6.977
 4949POPC   C4B62518  16.862  30.571   7.253
 4950POPC   NC362519   9.313  20.282   5.457
 4950POPC   PO462520   9.552  19.633   5.446
 4950POPC   GL162521   9.638  19.992   5.745
 4950POPC   GL262522   9.619  19.743   5.967
 4950POPC   C1A62523   9.556  20.205   6.176
 4950POPC   D2A62524   9.326  20.065   6.567
 4950POPC   C3A62525   9.548  19.872   6.953
 4950POPC   C4A62526   9.767  20.010   7.338
 4950POPC   C1B62527   9.650  19.481   6.307
 4950POPC   C2B62528   9.751  19.287   6.689
 4950POPC   C3B62529   9.603  19.343   7.104
 4950POPC   C4B62530   9.840  19.526   7.438
 4951POPC   NC362531  35.348  41.596   5.338
 4951POPC   PO462532  35.832  41.858   5.624
 4951POPC   GL162533  35.684  41.521   5.835
 4951POPC   GL262534  35.324  41.521   5.837
 4951POPC   C1A62535  35.636  41.556   6.301
 4951POPC   D2A62536  35.410  41.824   6.615
 4951POPC   C3A62537  35.605  41.803   6.991
 4951POPC   C4A62538  35.771  41.411   7.182
 4951POPC   C1B62539  35.221  41.821   6.136
 4951POPC   C2B62540  34.947  41.626   6.453
 4951POPC   C3B62541  35.041  41.575   6.892
 4951POPC   C4B62542  35.173  41.795   7.247
 4952POPC   NC362543  36.674  22.109   5.529
 4952POPC   PO462544  35.997  22.394   5.468
 4952POPC   GL162545  36.272  22.342   5.775
 4952POPC   GL262546  36.220  21.954   5.712
 4952POPC   C1A62547  36.303  22.536   6.175
 4952POPC   D2A62548  36.237  22.248   6.527
 4952POPC   C3A62549  36.173  22.381   6.895
 4952POPC   C4A62550  36.085  22.261   7.276
 4952POPC   C1B62551  36.102  21.980   6.136
 4952POPC   C2B62552  35.976  21.795   6.555
 4952POPC   C3B62553  35.830  21.953   6.955
 4952POPC   C4B62554  35.810  21.831   7.378
 4953POPC   NC362555  17.834  10.460   5.432
 4953POPC   PO462556  17.215  10.750   5.462
 4953POPC   GL162557  17.293  10.471   5.839
 4953POPC   GL262558  17.627  10.361   5.884
 4953POPC   C1A62559  17.328  10.367   6.300
 4953POPC   D2A62560  17.517  10.480   6.677
 4953POPC   C3A62561  17.303  10.620   7.030
 4953POPC   C4A62562  17.614  10.836   7.255
 4953POPC   C1B62563  17.874  10.395   6.234
 4953POPC   C2B62564  18.048  10.441   6.639
 4953POPC   C3B62565  17.888  10.430   7.041
 4953POPC   C4B62566  17.825  10.377   7.459
 4954POPC   NC362567  26.174  26.798   5.079
 4954POPC   PO462568  25.780  26.798   5.656
 4954POPC   GL162569  25.778  26.981   6.004
 4954POPC   GL262570  26.037  27.196   5.930
 4954POPC   C1A62571  25.771  26.719   6.344
 4954POPC   D2A62572  25.995  26.607   6.686
 4954POPC   C3A62573  25.819  26.808   7.038
 4954POPC   C4A62574  25.765  26.699   7.476
 4954POPC   C1B62575  26.239  26.936   6.278
 4954POPC   C2B62576  26.341  27.018   6.659
 4954POPC   C3B62577  26.342  26.821   7.017
 4954POPC   C4B62578  26.169  26.979   7.368
 4955POPC   NC362579   5.621  30.931   5.182
 4955POPC   PO462580   5.897  30.397   5.355
 4955POPC   GL162581   5.849  30.439   5.797
 4955POPC   GL262582   6.154  30.638   5.821
 4955POPC   C1A62583   5.814  30.648   6.226
 4955POPC   D2A62584   6.082  30.801   6.586
 4955POPC   C3A62585   5.880  30.757   7.000
 4955POPC   C4A62586   5.593  30.404   7.101
 4955POPC   C1B62587   6.248  30.370   6.160
 4955POPC   C2B62588   6.389  30.258   6.549
 4955POPC   C3B62589   6.278  30.417   6.937
 4955POPC   C4B62590   6.092  30.359   7.323
 4956POPC   NC362591  14.091  28.184   5.509
 4956POPC   PO462592  13.462  28.438   5.558
 4956POPC   GL162593  13.727  28.424   5.843
 4956POPC   GL262594  13.692  28.068   5.866
 4956POPC   C1A62595  13.578  28.410   6.242
 4956POPC   D2A62596  13.772  28.363   6.609
 4956POPC   C3A62597  13.434  28.328   6.880
 4956POPC   C4A62598  13.541  28.416   7.267
 4956POPC   C1B62599  13.987  28.061   6.206
 4956POPC   C2B62600  14.032  27.918   6.647
 4956POPC   C3B62601  13.896  28.088   7.052
 4956POPC   C4B62602  13.890  28.042   7.495
 4957POPC   NC362603   4.392  23.375   5.361
 4957POPC   PO462604   4.169  22.803   5.369
 4957POPC   GL162605   4.145  22.717   5.809
 4957POPC   GL262606   3.889  22.997   5.874
 4957POPC   C1A62607   4.357  22.833   6.230
 4957POPC   D2A62608   4.389  23.246   6.480
 4957POPC   C3A62609   4.524  23.193   6.935
 4957POPC   C4A62610   4.680  22.817   7.134
 4957POPC   C1B62611   3.858  22.859   6.329
 4957POPC   C2B62612   4.084  22.862   6.753
 4957POPC   C3B62613   4.153  22.992   7.217
 4957POPC   C4B62614   3.982  23.089   7.650
 4958POPC   NC362615  10.738  21.045   5.493
 4958POPC   PO462616  10.324  21.825   5.368
 4958POPC   GL162617  10.491  21.637   5.781
 4958POPC   GL262618  10.491  21.270   5.869
 4958POPC   C1A62619  10.619  21.684   6.224
 4958POPC   D2A62620  10.386  21.682   6.646
 4958POPC   C3A62621  10.381  21.308   6.940
 4958POPC   C4A62622  10.335  21.373   7.373
 4958POPC   C1B62623  10.788  21.180   6.237
 4958POPC   C2B62624  10.840  21.208   6.714
 4958POPC   C3B62625  10.849  21.260   7.197
 4958POPC   C4B62626  11.103  21.098   7.580
 4959POPC   NC362627  12.036   9.560   5.055
 4959POPC   PO462628  12.462   9.961   5.413
 4959POPC   GL162629  12.326  10.071   5.835
 4959POPC   GL262630  11.993   9.918   5.981
 4959POPC   C1A62631  12.401  10.000   6.290
 4959POPC   D2A62632  12.110   9.879   6.610
 4959POPC   C3A62633  12.304   9.877   6.998
 4959POPC   C4A62634  12.056   9.921   7.278
 4959POPC   C1B62635  11.744   9.620   6.265
 4959POPC   C2B62636  11.834   9.395   6.669
 4959POPC   C3B62637  11.743   9.576   7.079
 4959POPC   C4B62638  11.780   9.538   7.551
 4960POPC   NC362639  31.133  35.849   5.417
 4960POPC   PO462640  31.581  36.376   5.280
 4960POPC   GL162641  31.331  36.297   5.649
 4960POPC   GL262642  31.543  36.013   5.719
 4960POPC   C1A62643  31.426  36.349   6.106
 4960POPC   D2A62644  31.379  36.536   6.533
 4960POPC   C3A62645  31.437  36.300   6.906
 4960POPC   C4A62646  31.421  36.146   7.323
 4960POPC   C1B62647  31.561  35.825   6.144
 4960POPC   C2B62648  31.546  35.952   6.555
 4960POPC   C3B62649  31.567  35.798   6.950
 4960POPC   C4B62650  31.358  35.599   7.253
 4961POPC   NC362651  31.200  19.690   5.424
 4961POPC   PO462652  31.737  20.008   5.399
 4961POPC   GL162653  31.620  19.718   5.733
 4961POPC   GL262654  31.783  19.800   6.008
 4961POPC   C1A62655  31.366  19.584   6.151
 4961POPC   D2A62656  31.149  19.704   6.514
 4961POPC   C3A62657  31.403  19.510   6.819
 4961POPC   C4A62658  31.558  19.570   7.221
 4961POPC   C1B62659  31.548  20.041   6.321
 4961POPC   C2B62660  31.499  20.005   6.750
 4961POPC   C3B62661  31.779  20.023   7.078
 4961POPC   C4B62662  31.749  19.952   7.532
 4962POPC   NC362663  33.243  42.451   5.438
 4962POPC   PO462664  32.631  42.524   5.646
 4962POPC   GL162665  33.039  42.433   5.902
 4962POPC   GL262666  33.292  42.179   5.928
 4962POPC   C1A62667  33.429  42.512   6.270
 4962POPC   D2A62668  33.393  42.320   6.695
 4962POPC   C3A62669  32.970  42.332   6.869
 4962POPC   C4A62670  32.727  42.389   7.256
 4962POPC   C1B62671  33.013  42.259   6.357
 4962POPC   C2B62672  32.620  42.141   6.495
 4962POPC   C3B62673  32.515  42.117   6.885
 4962POPC   C4B62674  32.477  41.929   7.255
 4963POPC   NC362675   8.412   5.697   5.492
 4963POPC   PO462676   7.790   5.804   5.431
 4963POPC   GL162677   8.031   5.657   5.833
 4963POPC   GL262678   8.273   5.940   5.915
 4963POPC   C1A62679   8.117   5.673   6.298
 4963POPC   D2A62680   8.325   5.896   6.639
 4963POPC   C3A62681   8.123   6.040   6.983
 4963POPC   C4A62682   8.239   5.693   7.222
 4963POPC   C1B62683   8.598   6.012   6.240
 4963POPC   C2B62684   8.782   6.200   6.617
 4963POPC   C3B62685   8.644   6.024   7.026
 4963POPC   C4B62686   8.442   6.181   7.345
 4964POPC   NC362687  26.863  24.129   5.303
 4964POPC   PO462688  26.609  23.559   5.077
 4964POPC   GL162689  26.797  23.638   5.571
 4964POPC   GL262690  26.928  23.865   5.740
 4964POPC   C1A62691  26.658  23.548   6.034
 4964POPC   D2A62692  26.625  23.548   6.495
 4964POPC   C3A62693  26.859  23.378   6.859
 4964POPC   C4A62694  26.719  23.352   7.268
 4964POPC   C1B62695  27.003  23.917   6.179
 4964POPC   C2B62696  27.101  23.726   6.561
 4964POPC   C3B62697  27.000  23.847   6.982
 4964POPC   C4B62698  27.313  24.012   7.196
 4965POPC   NC362699  38.078  43.210   5.316
 4965POPC   PO462700  37.437  43.211   5.103
 4965POPC   GL162701  37.529  43.236   5.622
 4965POPC   GL262702  37.871  43.232   5.786
 4965POPC   C1A62703  37.488  43.075   6.097
 4965POPC   D2A62704  37.660  43.176   6.532
 4965POPC   C3A62705  37.454  43.084   6.955
 4965POPC   C4A62706  37.208  43.426   7.240
 4965POPC   C1B62707  38.034  43.424   6.191
 4965POPC   C2B62708  38.081  43.446   6.641
 4965POPC   C3B62709  38.032  43.127   6.960
 4965POPC   C4B62710  37.969  42.784   7.264
 4966POPC   NC362711   1.465  39.502   5.607
 4966POPC   PO462712   1.460  38.956   5.203
 4966POPC   GL162713   1.433  39.005   5.760
 4966POPC   GL262714   1.085  39.022   5.943
 4966POPC   C1A62715   1.445  39.206   6.262
 4966POPC   D2A62716   1.471  39.455   6.701
 4966POPC   C3A62717   1.473  39.230   7.123
 4966POPC   C4A62718   1.154  38.987   7.338
 4966POPC   C1B62719   1.012  39.436   6.178
 4966POPC   C2B62720   0.964  39.589   6.609
 4966POPC   C3B62721   1.036  39.481   7.045
 4966POPC   C4B62722   1.204  39.558   7.456
 4967POPC   NC362723   4.498  20.172   5.344
 4967POPC   PO462724   4.048  19.678   5.454
 4967POPC   GL162725   4.218  19.855   5.812
 4967POPC   GL262726   4.196  20.228   5.783
 4967POPC   C1A62727   4.303  19.740   6.252
 4967POPC   D2A62728   4.487  19.542   6.623
 4967POPC   C3A62729   4.442  19.890   6.910
 4967POPC   C4A62730   4.376  19.909   7.325
 4967POPC   C1B62731   3.939  20.098   6.165
 4967POPC   C2B62732   4.064  20.062   6.614
 4967POPC   C3B62733   4.011  20.129   7.076
 4967POPC   C4B62734   3.940  20.007   7.575
 4968POPC   NC362735  26.525  27.896   5.494
 4968POPC   PO462736  26.531  28.568   5.543
 4968POPC   GL162737  26.865  28.418   5.830
 4968POPC   GL262738  26.922  28.055   5.804
 4968POPC   C1A62739  26.996  28.467   6.264
 4968POPC   D2A62740  26.997  28.216   6.663
 4968POPC   C3A62741  26.969  28.511   7.020
 4968POPC   C4A62742  26.862  28.633   7.449
 4968POPC   C1B62743  26.713  28.024   6.188
 4968POPC   C2B62744  26.428  28.039   6.510
 4968POPC   C3B62745  26.593  28.023   6.918
 4968POPC   C4B62746  26.646  28.201   7.301
 4969POPC   NC362747   2.721  12.453   5.380
 4969POPC   PO462748   2.985  13.108   5.502
 4969POPC   GL162749   2.753  12.809   5.761
 4969POPC   GL262750   2.530  13.031   5.866
 4969POPC   C1A62751   2.623  12.650   6.181
 4969POPC   D2A62752   2.761  12.774   6.585
 4969POPC   C3A62753   2.755  12.564   6.982
 4969POPC   C4A62754   3.127  12.611   7.208
 4969POPC   C1B62755   2.583  13.236   6.246
 4969POPC   C2B62756   2.842  13.281   6.597
 4969POPC   C3B62757   2.891  13.093   6.976
 4969POPC   C4B62758   2.489  12.989   7.138
 4970POPC   NC362759   2.995  15.804   5.570
 4970POPC   PO462760   2.431  15.840   5.271
 4970POPC   GL162761   2.608  16.094   5.703
 4970POPC   GL262762   2.975  16.193   5.888
 4970POPC   C1A62763   2.522  16.123   6.136
 4970POPC   D2A62764   2.259  15.951   6.472
 4970POPC   C3A62765   2.521  15.811   6.837
 4970POPC   C4A62766   2.851  15.798   7.186
 4970POPC   C1B62767   2.935  16.418   6.274
 4970POPC   C2B62768   2.628  16.350   6.606
 4970POPC   C3B62769   2.879  16.269   6.964
 4970POPC   C4B62770   2.920  16.278   7.401
 4971POPC   NC362771  20.110  31.665   5.462
 4971POPC   PO462772  19.587  31.261   5.339
 4971POPC   GL162773  19.644  31.511   5.748
 4971POPC   GL262774  19.983  31.427   5.901
 4971POPC   C1A62775  19.531  31.641   6.192
 4971POPC   D2A62776  19.659  31.618   6.648
 4971POPC   C3A62777  19.624  31.245   6.955
 4971POPC   C4A62778  20.036  31.095   7.144
 4971POPC   C1B62779  20.108  31.632   6.291
 4971POPC   C2B62780  20.317  31.655   6.710
 4971POPC   C3B62781  20.206  31.818   7.147
 4971POPC   C4B62782  20.166  31.935   7.607
 4972POPC   NC362783  41.919  23.235   5.355
 4972POPC   PO462784  41.367  22.795   5.391
 4972POPC   GL162785  41.516  22.848   5.757
 4972POPC   GL262786  41.574  23.154   5.733
 4972POPC   C1A62787  41.511  22.751   6.162
 4972POPC   D2A62788  41.680  22.859   6.511
 4972POPC   C3A62789  41.471  22.662   6.803
 4972POPC   C4A62790  41.449  22.658   7.220
 4972POPC   C1B62791  41.413  23.259   6.137
 4972POPC   C2B62792  41.539  23.343   6.578
 4972POPC   C3B62793  41.667  23.114   6.944
 4972POPC   C4B62794  41.635  23.123   7.373
 4973POPC   NC362795  31.118   5.153   5.079
 4973POPC   PO462796  31.668   5.473   5.221
 4973POPC   GL162797  31.625   5.220   5.689
 4973POPC   GL262798  31.476   4.852   5.745
 4973POPC   C1A62799  31.477   5.251   6.142
 4973POPC   D2A62800  31.314   5.330   6.568
 4973POPC   C3A62801  31.522   5.206   6.939
 4973POPC   C4A62802  31.321   5.204   7.315
 4973POPC   C1B62803  31.263   4.759   6.180
 4973POPC   C2B62804  31.361   4.783   6.648
 4973POPC   C3B62805  31.357   4.718   7.123
 4973POPC   C4B62806  31.324   4.802   7.591
 4974POPC   NC362807   0.607  16.187   5.705
 4974POPC   PO462808   0.114  15.973   5.328
 4974POPC   GL162809   0.241  15.803   5.705
 4974POPC   GL262810   0.114  16.104   5.838
 4974POPC   C1A62811   0.277  15.754   6.178
 4974POPC   D2A62812   0.469  15.622   6.583
 4974POPC   C3A62813   0.456  15.817   6.977
 4974POPC   C4A62814   0.706  16.011   7.304
 4974POPC   C1B62815   0.266  16.279   6.250
 4974POPC   C2B62816   0.562  16.208   6.591
 4974POPC   C3B62817   0.440  16.328   7.002
 4974POPC   C4B62818   0.147  16.137   7.252
 4975POPC   NC362819  21.101  30.015   5.194
 4975POPC   PO462820  20.545  29.729   5.470
 4975POPC   GL162821  20.601  29.798   5.888
 4975POPC   GL262822  20.573  30.097   5.828
 4975POPC   C1A62823  20.721  29.698   6.290
 4975POPC   D2A62824  20.433  29.732   6.590
 4975POPC   C3A62825  20.625  29.754   6.973
 4975POPC   C4A62826  20.359  29.699   7.317
 4975POPC   C1B62827  20.633  30.199   6.213
 4975POPC   C2B62828  20.787  30.119   6.560
 4975POPC   C3B62829  20.752  30.261   6.898
 4975POPC   C4B62830  20.650  30.168   7.267
 4976POPC   NC362831   9.669  25.496   5.364
 4976POPC   PO462832  10.127  25.024   5.658
 4976POPC   GL162833   9.761  25.213   5.787
 4976POPC   GL262834   9.470  25.030   5.840
 4976POPC   C1A62835   9.694  25.402   6.183
 4976POPC   D2A62836   9.722  25.287   6.614
 4976POPC   C3A62837   9.784  25.443   7.014
 4976POPC   C4A62838   9.824  25.211   7.386
 4976POPC   C1B62839   9.305  24.823   6.237
 4976POPC   C2B62840   9.294  25.009   6.638
 4976POPC   C3B62841   9.449  25.025   7.084
 4976POPC   C4B62842   9.393  25.013   7.564
 4977POPC   NC362843  20.166  11.529   5.413
 4977POPC   PO462844  19.728  10.983   5.396
 4977POPC   GL162845  19.649  11.350   5.716
 4977POPC   GL262846  19.922  11.551   5.861
 4977POPC   C1A62847  19.607  11.331   6.205
 4977POPC   D2A62848  19.907  11.159   6.529
 4977POPC   C3A62849  19.783  11.185   6.953
 4977POPC   C4A62850  19.518  11.519   7.127
 4977POPC   C1B62851  20.107  11.580   6.258
 4977POPC   C2B62852  20.069  11.665   6.688
 4977POPC   C3B62853  20.073  11.596   7.136
 4977POPC   C4B62854  19.831  11.731   7.475
 4978POPC   NC362855  40.053  21.654   5.459
 4978POPC   PO462856  40.278  21.008   5.389
 4978POPC   GL162857  40.166  21.262   5.751
 4978POPC   GL262858  39.854  21.328   5.854
 4978POPC   C1A62859  40.289  21.356   6.187
 4978POPC   D2A62860  40.415  21.204   6.582
 4978POPC   C3A62861  40.356  21.454   6.956
 4978POPC   C4A62862  40.061  21.370   7.277
 4978POPC   C1B62863  39.757  21.322   6.263
 4978POPC   C2B62864  39.944  21.476   6.624
 4978POPC   C3B62865  39.749  21.650   6.970
 4978POPC   C4B62866  39.674  21.717   7.455
 4979POPC   NC362867  31.214  44.898   5.485
 4979POPC   PO462868  30.606  44.813   5.289
 4979POPC   GL162869  30.570  44.769   5.776
 4979POPC   GL262870  30.915  44.704   5.840
 4979POPC   C1A62871  30.637  44.659   6.243
 4979POPC   D2A62872  30.713  44.845   6.643
 4979POPC   C3A62873  30.565  44.593   7.003
 4979POPC   C4A62874  30.562  44.848   7.383
 4979POPC   C1B62875  31.096  44.429   6.184
 4979POPC   C2B62876  30.898  44.355   6.571
 4979POPC   C3B62877  31.096  44.495   6.932
 4979POPC   C4B62878  30.957  44.512   7.336
 4980POPC   NC362879   1.762  29.419   5.359
 4980POPC   PO462880   1.798  30.114   5.331
 4980POPC   GL162881   1.798  29.873   5.719
 4980POPC   GL262882   1.583  30.151   5.821
 4980POPC   C1A62883   2.059  29.730   6.115
 4980POPC   D2A62884   2.155  29.519   6.521
 4980POPC   C3A62885   2.201  29.805   6.866
 4980POPC   C4A62886   2.147  29.743   7.284
 4980POPC   C1B62887   1.917  30.224   6.126
 4980POPC   C2B62888   2.099  30.246   6.547
 4980POPC   C3B62889   1.796  30.339   6.889
 4980POPC   C4B62890   1.803  30.245   7.361
 4981POPC   NC362891  21.662  12.084   5.055
 4981POPC   PO462892  21.083  11.983   5.394
 4981POPC   GL162893  21.320  12.089   5.777
 4981POPC   GL262894  21.243  12.433   5.906
 4981POPC   C1A62895  21.504  11.971   6.186
 4981POPC   D2A62896  21.686  11.750   6.537
 4981POPC   C3A62897  21.605  11.956   6.942
 4981POPC   C4A62898  21.376  11.849   7.313
 4981POPC   C1B62899  21.601  12.481   6.160
 4981POPC   C2B62900  21.750  12.298   6.546
 4981POPC   C3B62901  21.645  12.483   6.925
 4981POPC   C4B62902  21.477  12.379   7.275
 4982POPC   NC362903  13.862  21.309   5.432
 4982POPC   PO462904  13.389  21.748   5.395
 4982POPC   GL162905  13.366  21.406   5.715
 4982POPC   GL262906  13.648  21.567   5.840
 4982POPC   C1A62907  13.528  21.156   6.107
 4982POPC   D2A62908  13.765  21.379   6.453
 4982POPC   C3A62909  13.595  21.339   6.859
 4982POPC   C4A62910  13.612  21.107   7.162
 4982POPC   C1B62911  13.386  21.630   6.198
 4982POPC   C2B62912  13.434  21.810   6.572
 4982POPC   C3B62913  13.724  21.809   6.893
 4982POPC   C4B62914  13.453  21.777   7.235
 4983POPC   NC362915  39.272  12.329   5.480
 4983POPC   PO462916  39.107  11.703   5.180
 4983POPC   GL162917  39.199  11.823   5.689
 4983POPC   GL262918  39.309  12.150   5.936
 4983POPC   C1A62919  39.354  11.696   6.120
 4983POPC   D2A62920  39.517  11.992   6.456
 4983POPC   C3A62921  39.309  12.005   6.872
 4983POPC   C4A62922  39.413  11.885   7.281
 4983POPC   C1B62923  39.127  12.386   6.287
 4983POPC   C2B62924  38.941  12.271   6.611
 4983POPC   C3B62925  38.943  12.450   6.961
 4983POPC   C4B62926  38.661  12.478   7.292
 4984POPC   NC362927  17.323  27.733   5.250
 4984POPC   PO462928  17.088  27.303   5.658
 4984POPC   GL162929  17.425  27.432   5.830
 4984POPC   GL262930  17.494  27.765   5.771
 4984POPC   C1A62931  17.431  27.460   6.248
 4984POPC   D2A62932  17.714  27.324   6.520
 4984POPC   C3A62933  17.489  27.346   6.882
 4984POPC   C4A62934  17.523  27.599   7.224
 4984POPC   C1B62935  17.833  27.715   6.102
 4984POPC   C2B62936  18.010  27.755   6.490
 4984POPC   C3B62937  17.942  27.604   6.887
 4984POPC   C4B62938  18.002  27.828   7.233
 4985POPC   NC362939  13.306  29.694   5.255
 4985POPC   PO462940  12.657  29.875   5.155
 4985POPC   GL162941  12.903  29.816   5.581
 4985POPC   GL262942  13.056  30.104   5.776
 4985POPC   C1A62943  12.836  29.676   6.043
 4985POPC   D2A62944  12.555  29.679   6.444
 4985POPC   C3A62945  12.733  29.721   6.887
 4985POPC   C4A62946  12.750  30.100   7.176
 4985POPC   C1B62947  13.105  30.074   6.252
 4985POPC   C2B62948  13.021  30.144   6.711
 4985POPC   C3B62949  13.181  29.896   7.083
 4985POPC   C4B62950  13.128  29.934   7.517
 4986POPC   NC362951  28.710  17.137   5.593
 4986POPC   PO462952  28.224  16.903   5.217
 4986POPC   GL162953  28.122  16.602   5.641
 4986POPC   GL262954  28.081  16.850   5.921
 4986POPC   C1A62955  28.287  16.399   6.083
 4986POPC   D2A62956  28.569  16.443   6.470
 4986POPC   C3A62957  28.368  16.484   6.880
 4986POPC   C4A62958  28.443  16.389   7.312
 4986POPC   C1B62959  28.385  16.952   6.263
 4986POPC   C2B62960  28.530  16.982   6.701
 4986POPC   C3B62961  28.557  16.876   7.148
 4986POPC   C4B62962  28.332  16.842   7.566
 4987POPC   NC362963  41.601   2.994   5.307
 4987POPC   PO462964  41.452   2.357   5.302
 4987POPC   GL162965  41.667   2.599   5.648
 4987POPC   GL262966  41.450   2.859   5.787
 4987POPC   C1A62967  41.778   2.658   6.132
 4987POPC   D2A62968  41.591   2.950   6.434
 4987POPC   C3A62969  41.782   2.988   6.848
 4987POPC   C4A62970  41.914   2.678   7.152
 4987POPC   C1B62971  41.273   2.580   6.100
 4987POPC   C2B62972  41.204   2.471   6.531
 4987POPC   C3B62973  41.314   2.609   6.927
 4987POPC   C4B62974  41.377   2.944   7.180
 4988POPC   NC362975  37.097  43.356   5.368
 4988POPC   PO462976  36.459  43.115   5.291
 4988POPC   GL162977  36.673  43.111   5.720
 4988POPC   GL262978  37.043  43.152   5.818
 4988POPC   C1A62979  36.723  43.051   6.182
 4988POPC   D2A62980  36.560  43.014   6.567
 4988POPC   C3A62981  36.515  43.269   6.900
 4988POPC   C4A62982  36.646  43.132   7.304
 4988POPC   C1B62983  37.096  43.423   6.179
 4988POPC   C2B62984  37.094  43.199   6.561
 4988POPC   C3B62985  36.960  43.008   6.942
 4988POPC   C4B62986  37.154  42.963   7.377
 4989POPC   NC362987  22.675  32.559   5.466
 4989POPC   PO462988  23.168  32.170   5.359
 4989POPC   GL162989  23.015  32.277   5.742
 4989POPC   GL262990  23.154  32.034   5.888
 4989POPC   C1A62991  22.708  32.278   6.082
 4989POPC   D2A62992  22.634  32.488   6.483
 4989POPC   C3A62993  22.890  32.382   6.846
 4989POPC   C4A62994  22.619  32.193   7.154
 4989POPC   C1B62995  23.189  32.126   6.319
 4989POPC   C2B62996  23.307  32.023   6.732
 4989POPC   C3B62997  23.378  32.177   7.159
 4989POPC   C4B62998  23.332  32.046   7.655
 4990POPC   NC362999  16.528  38.921   5.468
 4990POPC   PO463000  16.668  39.566   5.283
 4990POPC   GL163001  16.750  39.260   5.758
 4990POPC   GL263002  17.093  39.172   5.851
 4990POPC   C1A63003  16.534  39.172   6.191
 4990POPC   D2A63004  16.274  39.185   6.590
 4990POPC   C3A63005  16.519  39.198   7.006
 4990POPC   C4A63006  16.575  39.377   7.477
 4990POPC   C1B63007  17.011  39.071   6.265
 4990POPC   C2B63008  16.892  39.167   6.664
 4990POPC   C3B63009  16.997  39.116   7.107
 4990POPC   C4B63010  17.219  38.940   7.399
 4991POPC   NC363011  26.097  14.796   5.566
 4991POPC   PO463012  26.313  14.173   5.421
 4991POPC   GL163013  26.001  14.320   5.728
 4991POPC   GL263014  25.720  14.103   5.768
 4991POPC   C1A63015  25.883  14.400   6.158
 4991POPC   D2A63016  26.037  14.182   6.515
 4991POPC   C3A63017  26.031  14.474   6.836
 4991POPC   C4A63018  26.063  14.494   7.249
 4991POPC   C1B63019  25.817  13.876   6.165
 4991POPC   C2B63020  25.605  13.841   6.561
 4991POPC   C3B63021  25.627  14.021   6.978
 4991POPC   C4B63022  25.956  13.986   7.282
 4992POPC   NC363023   0.146   8.460   5.514
 4992POPC   PO463024  44.925   9.040   5.356
 4992POPC   GL163025  44.812   8.988   5.787
 4992POPC   GL263026   0.005   9.296   5.864
 4992POPC   C1A63027  44.642   9.100   6.211
 4992POPC   D2A63028  44.643   9.352   6.577
 4992POPC   C3A63029  44.434   9.343   6.977
 4992POPC   C4A63030  44.602   9.145   7.355
 4992POPC   C1B63031   0.143   8.997   6.201
 4992POPC   C2B63032  44.966   8.882   6.586
 4992POPC   C3B63033  44.897   9.026   6.959
 4992POPC   C4B63034   0.124   9.227   7.256
 4993POPC   NC363035  18.157   0.838   5.190
 4993POPC   PO463036  18.505   1.367   5.515
 4993POPC   GL163037  18.241   1.153   5.810
 4993POPC   GL263038  18.544   1.115   6.002
 4993POPC   C1A63039  18.126   1.265   6.248
 4993POPC   D2A63040  18.482   1.332   6.542
 4993POPC   C3A63041  18.275   1.383   6.929
 4993POPC   C4A63042  17.983   1.196   7.239
 4993POPC   C1B63043  18.356   0.821   6.289
 4993POPC   C2B63044  18.274   0.890   6.714
 4993POPC   C3B63045  18.313   0.774   7.117
 4993POPC   C4B63046  18.664   0.672   7.371
 4994POPC   NC363047  13.176  12.900   5.181
 4994POPC   PO463048  13.642  13.031   5.606
 4994POPC   GL163049  13.601  12.849   5.952
 4994POPC   GL263050  13.504  12.482   5.877
 4994POPC   C1A63051  13.811  12.899   6.284
 4994POPC   D2A63052  13.619  12.998   6.619
 4994POPC   C3A63053  13.882  12.871   6.891
 4994POPC   C4A63054  13.715  12.927   7.267
 4994POPC   C1B63055  13.423  12.556   6.308
 4994POPC   C2B63056  13.492  12.511   6.715
 4994POPC   C3B63057  13.343  12.638   7.070
 4994POPC   C4B63058  13.460  12.498   7.467
 4995POPC   NC363059  24.934   3.621   5.227
 4995POPC   PO463060  25.565   3.381   5.432
 4995POPC   GL163061  25.402   3.585   5.804
 4995POPC   GL263062  25.293   3.932   5.699
 4995POPC   C1A63063  25.209   3.397   6.172
 4995POPC   D2A63064  25.023   3.413   6.547
 4995POPC   C3A63065  25.217   3.233   6.903
 4995POPC   C4A63066  25.265   3.386   7.338
 4995POPC   C1B63067  25.040   3.892   6.089
 4995POPC   C2B63068  25.132   3.973   6.530
 4995POPC   C3B63069  25.078   3.744   6.923
 4995POPC   C4B63070  24.855   3.666   7.274
 4996POPC   NC363071  39.945  19.934   5.397
 4996POPC   PO463072  39.750  19.319   5.559
 4996POPC   GL163073  40.023  19.581   5.789
 4996POPC   GL263074  39.833  19.863   5.901
 4996POPC   C1A63075  40.269  19.597   6.167
 4996POPC   D2A63076  40.203  19.673   6.608
 4996POPC   C3A63077  40.262  20.001   6.915
 4996POPC   C4A63078  40.173  19.696   7.247
 4996POPC   C1B63079  39.690  20.052   6.285
 4996POPC   C2B63080  39.777  19.969   6.730
 4996POPC   C3B63081  39.779  20.047   7.177
 4996POPC   C4B63082  39.774  19.826   7.573
 4997POPC   NC363083  12.298  16.057   5.454
 4997POPC   PO463084  11.595  15.850   5.485
 4997POPC   GL163085  11.952  15.934   5.792
 4997POPC   GL263086  11.887  15.703   6.026
 4997POPC   C1A63087  12.299  16.000   6.142
 4997POPC   D2A63088  12.438  15.956   6.596
 4997POPC   C3A63089  12.140  16.129   6.915
 4997POPC   C4A63090  11.788  16.290   7.156
 4997POPC   C1B63091  11.925  15.863   6.460
 4997POPC   C2B63092  11.969  15.646   6.831
 4997POPC   C3B63093  11.759  15.765   7.205
 4997POPC   C4B63094  11.401  16.067   7.403
 4998POPC   NC363095  23.795  29.020   5.561
 4998POPC   PO463096  23.232  29.138   5.219
 4998POPC   GL163097  23.298  29.189   5.703
 4998POPC   GL263098  23.488  29.455   5.808
 4998POPC   C1A63099  23.522  29.025   6.142
 4998POPC   D2A63100  23.877  29.094   6.470
 4998POPC   C3A63101  23.728  29.007   6.891
 4998POPC   C4A63102  23.630  29.194   7.290
 4998POPC   C1B63103  23.656  29.494   6.262
 4998POPC   C2B63104  23.654  29.527   6.730
 4998POPC   C3B63105  23.397  29.603   7.106
 4998POPC   C4B63106  23.336  29.502   7.573
 4999POPC   NC363107  32.219  20.938   5.515
 4999POPC   PO463108  32.286  21.638   5.525
 4999POPC   GL163109  32.249  21.338   5.833
 4999POPC   GL263110  31.919  21.180   5.830
 4999POPC   C1A63111  32.312  21.051   6.157
 4999POPC   D2A63112  32.567  21.022   6.514
 4999POPC   C3A63113  32.446  21.220   6.838
 4999POPC   C4A63114  32.492  21.168   7.246
 4999POPC   C1B63115  31.819  21.165   6.278
 4999POPC   C2B63116  31.921  21.368   6.697
 4999POPC   C3B63117  32.180  21.609   7.023
 4999POPC   C4B63118  32.213  21.490   7.495
 5000POPC   NC363119  24.953  31.428   5.460
 5000POPC   PO463120  25.521  31.724   5.384
 5000POPC   GL163121  25.448  31.436   5.741
 5000POPC   GL263122  25.109  31.459   5.943
 5000POPC   C1A63123  25.515  31.221   6.143
 5000POPC   D2A63124  25.241  31.289   6.482
 5000POPC   C3A63125  25.345  31.210   6.871
 5000POPC   C4A63126  25.444  31.464   7.201
 5000POPC   C1B63127  24.849  31.163   6.199
 5000POPC   C2B63128  24.799  30.996   6.623
 5000POPC   C3B63129  24.874  31.089   7.054
 5000POPC   C4B63130  24.784  31.450   7.275
 5001POPC   NC363131  24.853  14.091   5.413
 5001POPC   PO463132  24.868  13.385   5.452
 5001POPC   GL163133  24.662  13.557   5.842
 5001POPC   GL263134  24.394  13.803   5.847
 5001POPC   C1A63135  24.416  13.422   6.191
 5001POPC   D2A63136  24.642  13.370   6.566
 5001POPC   C3A63137  24.549  13.540   6.949
 5001POPC   C4A63138  24.336  13.373   7.262
 5001POPC   C1B63139  24.520  13.926   6.241
 5001POPC   C2B63140  24.675  13.944   6.624
 5001POPC   C3B63141  24.605  14.043   7.039
 5001POPC   C4B63142  24.410  13.865   7.345
 5002POPC   NC363143  23.855  14.091   5.468
 5002POPC   PO463144  23.922  14.743   5.327
 5002POPC   GL163145  23.677  14.527   5.713
 5002POPC   GL263146  23.434  14.216   5.755
 5002POPC   C1A63147  23.722  14.439   6.178
 5002POPC   D2A63148  23.781  14.646   6.602
 5002POPC   C3A63149  23.741  14.394   6.988
 5002POPC   C4A63150  23.697  14.544   7.422
 5002POPC   C1B63151  23.243  14.276   6.169
 5002POPC   C2B63152  23.447  14.244   6.572
 5002POPC   C3B63153  23.294  14.126   6.968
 5002POPC   C4B63154  23.535  14.028   7.299
 5003POPC   NC363155   6.097  44.414   5.445
 5003POPC   PO463156   6.077   0.101   5.334
 5003POPC   GL163157   5.906  44.838   5.672
 5003POPC   GL263158   6.232  44.846   5.785
 5003POPC   C1A63159   5.872  44.594   6.067
 5003POPC   D2A63160   5.677  44.698   6.462
 5003POPC   C3A63161   5.860  44.390   6.727
 5003POPC   C4A63162   6.004  44.359   7.148
 5003POPC   C1B63163   6.288  44.876   6.206
 5003POPC   C2B63164   6.149  44.814   6.593
 5003POPC   C3B63165   5.905  44.884   6.930
 5003POPC   C4B63166   6.181  44.820   7.256
 5004POPC   NC363167  38.480  30.843   5.387
 5004POPC   PO463168  38.115  30.296   5.577
 5004POPC   GL163169  38.308  30.610   5.846
 5004POPC   GL263170  38.693  30.647   5.834
 5004POPC   C1A63171  38.456  30.622   6.292
 5004POPC   D2A63172  38.275  30.779   6.676
 5004POPC   C3A63173  38.348  30.625   7.069
 5004POPC   C4A63174  38.107  30.608   7.445
 5004POPC   C1B63175  38.884  30.898   6.202
 5004POPC   C2B63176  38.842  31.016   6.658
 5004POPC   C3B63177  38.810  30.887   7.108
 5004POPC   C4B63178  38.738  30.905   7.585
 5005POPC   NC363179   0.087   4.416   5.643
 5005POPC   PO463180   0.712   4.139   5.383
 5005POPC   GL163181   0.535   4.089   5.777
 5005POPC   GL263182   0.225   3.923   5.731
 5005POPC   C1A63183   0.512   4.285   6.163
 5005POPC   D2A63184   0.658   4.501   6.509
 5005POPC   C3A63185   0.470   4.383   6.878
 5005POPC   C4A63186   0.558   4.551   7.253
 5005POPC   C1B63187   0.263   3.825   6.175
 5005POPC   C2B63188   0.202   4.085   6.542
 5005POPC   C3B63189  44.999   4.187   6.925
 5005POPC   C4B63190   0.178   4.253   7.349
 5006POPC   NC363191   7.557  29.954   5.391
 5006POPC   PO463192   7.031  29.573   5.599
 5006POPC   GL163193   7.388  29.732   5.834
 5006POPC   GL263194   7.341  30.110   5.841
 5006POPC   C1A63195   7.536  29.815   6.256
 5006POPC   D2A63196   7.774  29.688   6.617
 5006POPC   C3A63197   7.532  29.612   6.983
 5006POPC   C4A63198   7.669  29.858   7.319
 5006POPC   C1B63199   7.057  29.974   6.201
 5006POPC   C2B63200   7.191  29.925   6.667
 5006POPC   C3B63201   7.170  29.942   7.131
 5006POPC   C4B63202   7.272  30.080   7.554
 5007POPC   NC363203  20.877   9.302   5.377
 5007POPC   PO463204  20.683   8.594   5.474
 5007POPC   GL163205  20.623   8.913   5.754
 5007POPC   GL263206  20.985   8.956   5.761
 5007POPC   C1A63207  20.582   8.869   6.207
 5007POPC   D2A63208  20.817   8.998   6.586
 5007POPC   C3A63209  20.609   8.942   6.933
 5007POPC   C4A63210  20.689   8.828   7.331
 5007POPC   C1B63211  21.010   9.153   6.152
 5007POPC   C2B63212  20.958   9.470   6.490
 5007POPC   C3B63213  21.021   9.359   6.924
 5007POPC   C4B63214  20.748   9.318   7.246
 5008POPC   NC363215  41.052  18.996   5.337
 5008POPC   PO463216  40.532  19.355   5.588
 5008POPC   GL163217  40.904  19.275   5.817
 5008POPC   GL263218  41.141  19.560   5.880
 5008POPC   C1A63219  40.833  19.181   6.234
 5008POPC   D2A63220  40.649  19.395   6.557
 5008POPC   C3A63221  40.539  19.152   6.908
 5008POPC   C4A63222  40.755  18.883   7.204
 5008POPC   C1B63223  41.307  19.315   6.175
 5008POPC   C2B63224  41.242  19.160   6.588
 5008POPC   C3B63225  41.039  19.296   6.955
 5008POPC   C4B63226  40.958  19.405   7.373
 5009POPC   NC363227   6.687  13.255   5.428
 5009POPC   PO463228   6.370  13.844   5.428
 5009POPC   GL163229   6.533  13.606   5.763
 5009POPC   GL263230   6.838  13.697   5.821
 5009POPC   C1A63231   6.504  13.445   6.188
 5009POPC   D2A63232   6.593  13.381   6.645
 5009POPC   C3A63233   6.343  13.580   6.950
 5009POPC   C4A63234   6.531  13.498   7.315
 5009POPC   C1B63235   6.916  13.884   6.198
 5009POPC   C2B63236   6.986  13.759   6.587
 5009POPC   C3B63237   6.858  13.713   6.977
 5009POPC   C4B63238   7.042  13.900   7.324
 5010POPC   NC363239   2.254  16.263   5.389
 5010POPC   PO463240   1.779  15.769   5.549
 5010POPC   GL163241   2.055  16.026   5.813
 5010POPC   GL263242   1.783  16.262   5.760
 5010POPC   C1A63243   2.072  16.350   6.181
 5010POPC   D2A63244   2.061  16.477   6.633
 5010POPC   C3A63245   2.091  16.090   6.932
 5010POPC   C4A63246   2.446  16.148   7.214
 5010POPC   C1B63247   1.667  16.021   6.153
 5010POPC   C2B63248   1.708  16.126   6.574
 5010POPC   C3B63249   1.594  16.257   6.981
 5010POPC   C4B63250   1.739  16.044   7.342
 5011POPC   NC363251  14.965   5.077   5.426
 5011POPC   PO463252  14.203   5.173   5.421
 5011POPC   GL163253  14.430   4.995   5.765
 5011POPC   GL263254  14.634   5.276   5.801
 5011POPC   C1A63255  14.343   5.000   6.225
 5011POPC   D2A63256  14.161   4.858   6.633
 5011POPC   C3A63257  14.307   5.099   7.002
 5011POPC   C4A63258  14.438   5.021   7.453
 5011POPC   C1B63259  14.718   5.363   6.202
 5011POPC   C2B63260  14.712   5.160   6.634
 5011POPC   C3B63261  14.723   5.384   7.041
 5011POPC   C4B63262  14.782   5.416   7.491
 5012POPC   NC363263  36.809  35.275   5.384
 5012POPC   PO463264  36.910  35.927   5.515
 5012POPC   GL163265  37.007  35.601   5.827
 5012POPC   GL263266  37.047  35.212   5.839
 5012POPC   C1A63267  37.016  35.496   6.264
 5012POPC   D2A63268  36.999  35.276   6.654
 5012POPC   C3A63269  36.752  35.453   7.009
 5012POPC   C4A63270  36.961  35.731   7.269
 5012POPC   C1B63271  36.842  35.029   6.211
 5012POPC   C2B63272  36.643  34.904   6.604
 5012POPC   C3B63273  36.780  34.941   7.004
 5012POPC   C4B63274  37.164  35.165   7.136
 5013POPC   NC363275  37.445  18.943   5.336
 5013POPC   PO463276  37.890  18.435   5.333
 5013POPC   GL163277  37.840  18.827   5.657
 5013POPC   GL263278  37.536  19.115   5.784
 5013POPC   C1A63279  37.930  19.023   6.069
 5013POPC   D2A63280  37.676  19.136   6.437
 5013POPC   C3A63281  37.821  18.954   6.821
 5013POPC   C4A63282  37.646  18.936   7.204
 5013POPC   C1B63283  37.384  19.405   6.103
 5013POPC   C2B63284  37.206  19.382   6.509
 5013POPC   C3B63285  37.461  19.353   6.886
 5013POPC   C4B63286  37.248  19.292   7.272
 5014POPC   NC363287   9.340  37.719   5.522
 5014POPC   PO463288  10.017  37.495   5.518
 5014POPC   GL163289   9.867  37.632   5.898
 5014POPC   GL263290   9.626  37.890   5.930
 5014POPC   C1A63291   9.905  37.676   6.340
 5014POPC   D2A63292  10.001  37.730   6.768
 5014POPC   C3A63293   9.997  37.422   7.051
 5014POPC   C4A63294   9.863  37.674   7.368
 5014POPC   C1B63295   9.413  37.586   6.221
 5014POPC   C2B63296   9.293  37.620   6.664
 5014POPC   C3B63297   9.432  37.735   7.069
 5014POPC   C4B63298   9.289  38.043   7.367
 5015POPC   NC363299  14.551   9.256   5.461
 5015POPC   PO463300  14.129   8.808   5.184
 5015POPC   GL163301  14.303   8.874   5.698
 5015POPC   GL263302  14.587   8.980   5.905
 5015POPC   C1A63303  14.183   9.076   6.155
 5015POPC   D2A63304  14.408   8.961   6.504
 5015POPC   C3A63305  14.099   8.856   6.776
 5015POPC   C4A63306  14.003   9.048   7.133
 5015POPC   C1B63307  14.622   9.346   6.221
 5015POPC   C2B63308  14.528   9.543   6.626
 5015POPC   C3B63309  14.427   9.248   6.920
 5015POPC   C4B63310  14.613   8.889   7.102
 5016POPC   NC363311   7.910  18.131   5.418
 5016POPC   PO463312   7.341  18.454   5.606
 5016POPC   GL163313   7.530  18.212   5.932
 5016POPC   GL263314   7.781  17.954   5.867
 5016POPC   C1A63315   7.351  18.229   6.363
 5016POPC   D2A63316   7.307  18.512   6.733
 5016POPC   C3A63317   7.322  18.349   7.141
 5016POPC   C4A63318   6.913  18.396   7.329
 5016POPC   C1B63319   7.601  17.787   6.256
 5016POPC   C2B63320   7.469  17.830   6.699
 5016POPC   C3B63321   7.109  17.908   6.979
 5016POPC   C4B63322   7.094  17.918   7.419
 5017POPC   NC363323  24.015  20.905   5.456
 5017POPC   PO463324  24.367  20.351   5.209
 5017POPC   GL163325  24.483  20.514   5.629
 5017POPC   GL263326  24.601  20.870   5.585
 5017POPC   C1A63327  24.574  20.494   6.096
 5017POPC   D2A63328  24.694  20.428   6.577
 5017POPC   C3A63329  24.339  20.496   6.887
 5017POPC   C4A63330  24.309  20.399   7.324
 5017POPC   C1B63331  24.448  20.966   6.026
 5017POPC   C2B63332  24.413  20.845   6.466
 5017POPC   C3B63333  24.575  20.930   6.872
 5017POPC   C4B63334  24.803  20.896   7.267
 5018POPC   NC363335  27.226  38.315   5.325
 5018POPC   PO463336  26.748  38.706   5.198
 5018POPC   GL163337  26.847  38.640   5.689
 5018POPC   GL263338  26.744  38.300   5.730
 5018POPC   C1A63339  26.893  38.501   6.185
 5018POPC   D2A63340  26.717  38.420   6.626
 5018POPC   C3A63341  26.956  38.462   7.037
 5018POPC   C4A63342  27.056  38.710   7.425
 5018POPC   C1B63343  26.403  38.501   6.002
 5018POPC   C2B63344  26.241  38.597   6.433
 5018POPC   C3B63345  26.406  38.810   6.811
 5018POPC   C4B63346  26.527  38.647   7.192
 5019POPC   NC363347  10.554  12.252   5.385
 5019POPC   PO463348  10.552  11.577   5.397
 5019POPC   GL163349  10.709  11.873   5.728
 5019POPC   GL263350  10.410  11.965   5.800
 5019POPC   C1A63351  10.736  12.118   6.155
 5019POPC   D2A63352  10.507  12.119   6.567
 5019POPC   C3A63353  10.730  12.196   6.934
 5019POPC   C4A63354  10.640  11.989   7.297
 5019POPC   C1B63355  10.186  11.981   6.196
 5019POPC   C2B63356  10.043  11.807   6.563
 5019POPC   C3B63357  10.173  11.947   6.958
 5019POPC   C4B63358  10.143  12.184   7.321
 5020POPC   NC363359  10.314  26.244   5.517
 5020POPC   PO463360  10.699  25.815   5.440
 5020POPC   GL163361  10.555  25.778   5.855
 5020POPC   GL263362  10.258  25.942   5.918
 5020POPC   C1A63363  10.494  25.772   6.318
 5020POPC   D2A63364  10.580  26.007   6.666
 5020POPC   C3A63365  10.645  25.788   7.016
 5020POPC   C4A63366  10.573  25.622   7.409
 5020POPC   C1B63367  10.299  26.267   6.255
 5020POPC   C2B63368  10.321  26.445   6.683
 5020POPC   C3B63369  10.379  26.239   7.125
 5020POPC   C4B63370  10.578  26.452   7.515
 5021POPC   NC363371  22.031  20.523   5.372
 5021POPC   PO463372  22.365  20.961   5.746
 5021POPC   GL163373  22.277  20.553   5.825
 5021POPC   GL263374  21.933  20.458   5.850
 5021POPC   C1A63375  22.293  20.441   6.215
 5021POPC   D2A63376  22.086  20.478   6.555
 5021POPC   C3A63377  22.231  20.352   6.925
 5021POPC   C4A63378  22.226  20.117   7.297
 5021POPC   C1B63379  21.817  20.775   6.141
 5021POPC   C2B63380  21.827  20.921   6.553
 5021POPC   C3B63381  21.808  20.734   6.941
 5021POPC   C4B63382  22.080  20.709   7.243
 5022POPC   NC363383  37.067  27.998   5.594
 5022POPC   PO463384  36.747  28.459   5.274
 5022POPC   GL163385  36.748  28.526   5.833
 5022POPC   GL263386  37.005  28.268   6.052
 5022POPC   C1A63387  36.653  28.492   6.305
 5022POPC   D2A63388  36.833  28.197   6.621
 5022POPC   C3A63389  36.759  28.389   7.021
 5022POPC   C4A63390  36.808  28.530   7.431
 5022POPC   C1B63391  37.134  28.691   6.286
 5022POPC   C2B63392  37.167  28.841   6.751
 5022POPC   C3B63393  37.230  28.558   7.112
 5022POPC   C4B63394  37.176  28.116   7.198
 5023POPC   NC363395  43.435   2.813   5.276
 5023POPC   PO463396  42.892   3.111   5.547
 5023POPC   GL163397  43.087   2.806   5.793
 5023POPC   GL263398  43.376   2.964   5.802
 5023POPC   C1A63399  43.078   2.609   6.221
 5023POPC   D2A63400  43.023   2.369   6.613
 5023POPC   C3A63401  42.949   2.690   6.931
 5023POPC   C4A63402  43.267   2.714   7.238
 5023POPC   C1B63403  43.259   3.101   6.202
 5023POPC   C2B63404  43.243   2.947   6.604
 5023POPC   C3B63405  43.312   3.152   6.997
 5023POPC   C4B63406  43.376   3.171   7.458
 5024POPC   NC363407   7.362  33.727   5.092
 5024POPC   PO463408   7.884  33.486   5.511
 5024POPC   GL163409   7.494  33.681   5.701
 5024POPC   GL263410   7.204  33.483   5.864
 5024POPC   C1A63411   7.384  33.905   6.105
 5024POPC   D2A63412   7.370  33.868   6.567
 5024POPC   C3A63413   7.667  33.674   6.870
 5024POPC   C4A63414   7.798  33.989   7.151
 5024POPC   C1B63415   7.071  33.526   6.295
 5024POPC   C2B63416   7.246  33.386   6.676
 5024POPC   C3B63417   7.188  33.654   7.033
 5024POPC   C4B63418   6.987  33.557   7.389
 5025POPC   NC363419  36.847  29.694   5.371
 5025POPC   PO463420  37.310  30.218   5.603
 5025POPC   GL163421  36.970  29.955   5.824
 5025POPC   GL263422  36.651  29.738   5.839
 5025POPC   C1A63423  36.871  29.964   6.257
 5025POPC   D2A63424  36.886  30.154   6.652
 5025POPC   C3A63425  37.120  29.916   6.900
 5025POPC   C4A63426  37.076  29.853   7.299
 5025POPC   C1B63427  36.376  29.906   6.160
 5025POPC   C2B63428  36.434  29.836   6.609
 5025POPC   C3B63429  36.571  29.922   7.031
 5025POPC   C4B63430  36.451  30.182   7.390
 5026POPC   NC363431   7.814  30.805   5.581
 5026POPC   PO463432   8.225  30.276   5.656
 5026POPC   GL163433   8.086  30.556   5.964
 5026POPC   GL263434   7.710  30.481   5.943
 5026POPC   C1A63435   8.260  30.515   6.389
 5026POPC   D2A63436   8.415  30.378   6.791
 5026POPC   C3A63437   8.185  30.642   7.049
 5026POPC   C4A63438   7.957  31.043   7.210
 5026POPC   C1B63439   7.811  30.248   6.290
 5026POPC   C2B63440   7.927  30.256   6.707
 5026POPC   C3B63441   7.814  30.298   7.123
 5026POPC   C4B63442   7.960  30.589   7.485
 5027POPC   NC363443  43.083  35.871   5.412
 5027POPC   PO463444  43.315  36.406   5.488
 5027POPC   GL163445  43.076  36.185   5.826
 5027POPC   GL263446  42.866  35.868   5.867
 5027POPC   C1A63447  43.142  36.167   6.243
 5027POPC   D2A63448  42.996  36.373   6.599
 5027POPC   C3A63449  43.230  36.314   6.964
 5027POPC   C4A63450  43.573  36.038   7.073
 5027POPC   C1B63451  42.973  35.669   6.277
 5027POPC   C2B63452  43.214  35.842   6.634
 5027POPC   C3B63453  43.103  35.830   7.029
 5027POPC   C4B63454  42.802  35.764   7.311
 5028POPC   NC363455  27.493  27.997   5.435
 5028POPC   PO463456  27.389  28.640   5.414
 5028POPC   GL163457  27.624  28.546   5.765
 5028POPC   GL263458  27.386  28.288   5.895
 5028POPC   C1A63459  27.699  28.569   6.210
 5028POPC   D2A63460  27.469  28.345   6.518
 5028POPC   C3A63461  27.511  28.478   6.943
 5028POPC   C4A63462  27.370  28.536   7.372
 5028POPC   C1B63463  27.219  28.014   6.218
 5028POPC   C2B63464  27.381  27.792   6.537
 5028POPC   C3B63465  27.491  27.961   6.896
 5028POPC   C4B63466  27.207  28.083   7.207
 5029POPC   NC363467   1.515  20.759   5.596
 5029POPC   PO463468   0.939  20.559   5.389
 5029POPC   GL163469   1.138  20.446   5.815
 5029POPC   GL263470   1.165  20.794   5.943
 5029POPC   C1A63471   1.269  20.424   6.268
 5029POPC   D2A63472   1.300  20.691   6.632
 5029POPC   C3A63473   1.323  20.424   6.976
 5029POPC   C4A63474   0.931  20.362   7.197
 5029POPC   C1B63475   1.557  20.861   6.226
 5029POPC   C2B63476   1.762  20.906   6.647
 5029POPC   C3B63477   1.550  20.885   7.064
 5029POPC   C4B63478   1.365  20.652   7.447
 5030POPC   NC363479   3.519  33.321   5.056
 5030POPC   PO463480   3.482  33.922   5.429
 5030POPC   GL163481   3.600  33.858   5.868
 5030POPC   GL263482   3.854  33.589   5.876
 5030POPC   C1A63483   3.659  33.864   6.328
 5030POPC   D2A63484   3.641  34.057   6.721
 5030POPC   C3A63485   3.393  33.915   7.040
 5030POPC   C4A63486   3.445  33.745   7.424
 5030POPC   C1B63487   3.978  33.452   6.282
 5030POPC   C2B63488   3.900  33.610   6.714
 5030POPC   C3B63489   3.748  33.403   7.096
 5030POPC   C4B63490   3.864  33.460   7.521
 5031POPC   NC363491  39.744   8.796   5.521
 5031POPC   PO463492  40.339   8.925   5.388
 5031POPC   GL163493  40.145   9.000   5.785
 5031POPC   GL263494  40.055   8.701   5.922
 5031POPC   C1A63495  40.171   9.094   6.239
 5031POPC   D2A63496  40.337   9.356   6.611
 5031POPC   C3A63497  40.170   9.184   6.991
 5031POPC   C4A63498  39.749   9.010   7.121
 5031POPC   C1B63499  40.025   8.595   6.366
 5031POPC   C2B63500  40.055   8.691   6.827
 5031POPC   C3B63501  40.191   8.726   7.263
 5031POPC   C4B63502  40.105   8.577   7.712
 5032POPC   NC363503  42.073  34.442   5.631
 5032POPC   PO463504  41.426  34.579   5.426
 5032POPC   GL163505  41.292  34.616   5.830
 5032POPC   GL263506  41.565  34.829   5.868
 5032POPC   C1A63507  41.370  34.622   6.284
 5032POPC   D2A63508  41.570  34.884   6.579
 5032POPC   C3A63509  41.461  34.616   6.902
 5032POPC   C4A63510  41.426  34.542   7.332
 5032POPC   C1B63511  41.875  34.705   6.186
 5032POPC   C2B63512  41.980  34.576   6.597
 5032POPC   C3B63513  41.915  34.830   6.957
 5032POPC   C4B63514  41.911  34.757   7.372
 5033POPC   NC363515  25.520   0.599   5.413
 5033POPC   PO463516  24.906   0.213   5.455
 5033POPC   GL163517  25.162   0.470   5.785
 5033POPC   GL263518  25.531   0.315   5.842
 5033POPC   C1A63519  25.245   0.402   6.254
 5033POPC   D2A63520  25.055   0.304   6.674
 5033POPC   C3A63521  25.278   0.353   7.074
 5033POPC   C4A63522  25.497   0.193   7.437
 5033POPC   C1B63523  25.732   0.165   6.235
 5033POPC   C2B63524  25.620   0.207   6.668
 5033POPC   C3B63525  25.769   0.477   7.017
 5033POPC   C4B63526  25.573   0.716   7.317
 5034POPC   NC363527  31.714  43.778   5.598
 5034POPC   PO463528  31.191  44.374   5.562
 5034POPC   GL163529  31.355  44.073   5.836
 5034POPC   GL263530  31.277  43.703   5.871
 5034POPC   C1A63531  31.491  44.024   6.248
 5034POPC   D2A63532  31.418  44.280   6.567
 5034POPC   C3A63533  31.497  44.124   6.962
 5034POPC   C4A63534  31.195  44.075   7.272
 5034POPC   C1B63535  31.546  43.526   6.212
 5034POPC   C2B63536  31.515  43.665   6.642
 5034POPC   C3B63537  31.395  43.650   7.068
 5034POPC   C4B63538  31.696  43.582   7.398
 5035POPC   NC363539  13.946  13.322   5.422
 5035POPC   PO463540  13.270  13.351   5.272
 5035POPC   GL163541  13.395  13.441   5.786
 5035POPC   GL263542  13.730  13.559   5.838
 5035POPC   C1A63543  13.545  13.353   6.249
 5035POPC   D2A63544  13.844  13.458   6.589
 5035POPC   C3A63545  13.670  13.367   6.989
 5035POPC   C4A63546  13.569  13.399   7.435
 5035POPC   C1B63547  13.758  13.823   6.244
 5035POPC   C2B63548  13.524  13.843   6.664
 5035POPC   C3B63549  13.705  13.874   7.094
 5035POPC   C4B63550  13.962  13.703   7.423
 5036POPC   NC363551  30.760  12.436   5.295
 5036POPC   PO463552  30.710  11.773   5.454
 5036POPC   GL163553  30.653  12.065   5.800
 5036POPC   GL263554  30.653  12.434   5.801
 5036POPC   C1A63555  30.817  12.052   6.218
 5036POPC   D2A63556  31.002  11.926   6.614
 5036POPC   C3A63557  30.790  11.961   7.029
 5036POPC   C4A63558  30.990  11.986   7.426
 5036POPC   C1B63559  30.917  12.545   6.158
 5036POPC   C2B63560  30.811  12.408   6.597
 5036POPC   C3B63561  31.079  12.357   6.952
 5036POPC   C4B63562  30.841  12.450   7.289
 5037POPC   NC363563  11.484   0.175   5.443
 5037POPC   PO463564  11.099   0.734   5.483
 5037POPC   GL163565  11.098   0.620   5.874
 5037POPC   GL263566  11.086   0.255   5.796
 5037POPC   C1A63567  11.344   0.764   6.205
 5037POPC   D2A63568  11.591   0.571   6.530
 5037POPC   C3A63569  11.300   0.587   6.812
 5037POPC   C4A63570  11.111   0.520   7.190
 5037POPC   C1B63571  11.362   0.263   6.148
 5037POPC   C2B63572  11.259   0.133   6.556
 5037POPC   C3B63573  11.324   0.088   6.981
 5037POPC   C4B63574  11.323   0.099   7.434
 5038POPC   NC363575   1.483  42.868   5.467
 5038POPC   PO463576   0.925  43.300   5.583
 5038POPC   GL163577   1.214  43.112   5.849
 5038POPC   GL263578   1.535  43.276   5.802
 5038POPC   C1A63579   1.323  43.066   6.283
 5038POPC   D2A63580   1.143  43.249   6.657
 5038POPC   C3A63581   1.198  42.995   7.013
 5038POPC   C4A63582   0.831  42.908   7.247
 5038POPC   C1B63583   1.559  43.516   6.193
 5038POPC   C2B63584   1.632  43.374   6.615
 5038POPC   C3B63585   1.455  43.461   7.020
 5038POPC   C4B63586   1.418  43.660   7.447
 5039POPC   NC363587  21.656  41.661   5.459
 5039POPC   PO463588  21.131  41.191   5.379
 5039POPC   GL163589  21.244  41.478   5.724
 5039POPC   GL263590  21.569  41.326   5.848
 5039POPC   C1A63591  21.295  41.689   6.121
 5039POPC   D2A63592  21.400  41.870   6.519
 5039POPC   C3A63593  21.299  41.651   6.902
 5039POPC   C4A63594  21.454  41.467   7.255
 5039POPC   C1B63595  21.758  41.169   6.225
 5039POPC   C2B63596  21.699  41.012   6.647
 5039POPC   C3B63597  21.802  41.131   7.079
 5039POPC   C4B63598  21.856  41.258   7.516
 5040POPC   NC363599  11.140  24.181   5.182
 5040POPC   PO463600  10.872  24.738   5.213
 5040POPC   GL163601  11.104  24.496   5.624
 5040POPC   GL263602  11.406  24.232   5.675
 5040POPC   C1A63603  11.311  24.550   6.073
 5040POPC   D2A63604  11.155  24.448   6.505
 5040POPC   C3A63605  11.321  24.610   6.907
 5040POPC   C4A63606  11.163  24.405   7.272
 5040POPC   C1B63607  11.624  24.124   6.111
 5040POPC   C2B63608  11.491  24.033   6.560
 5040POPC   C3B63609  11.555  24.147   7.008
 5040POPC   C4B63610  11.560  24.204   7.489
 5041POPC   NC363611  38.956  21.199   5.467
 5041POPC   PO463612  39.605  21.500   5.445
 5041POPC   GL163613  39.335  21.406   5.805
 5041POPC   GL263614  38.972  21.497   5.874
 5041POPC   C1A63615  39.250  21.275   6.239
 5041POPC   D2A63616  39.308  21.507   6.641
 5041POPC   C3A63617  39.167  21.275   7.002
 5041POPC   C4A63618  39.535  21.278   7.218
 5041POPC   C1B63619  38.907  21.666   6.290
 5041POPC   C2B63620  38.791  21.507   6.691
 5041POPC   C3B63621  38.785  21.742   7.048
 5041POPC   C4B63622  38.743  21.631   7.460
 5042POPC   NC363623  43.029  10.838   5.293
 5042POPC   PO463624  43.372  10.295   5.472
 5042POPC   GL163625  43.053  10.516   5.741
 5042POPC   GL263626  43.023  10.874   5.792
 5042POPC   C1A63627  42.916  10.465   6.156
 5042POPC   D2A63628  43.038  10.331   6.559
 5042POPC   C3A63629  43.254  10.681   6.714
 5042POPC   C4A63630  43.312  10.780   7.136
 5042POPC   C1B63631  42.850  10.971   6.165
 5042POPC   C2B63632  42.724  10.801   6.541
 5042POPC   C3B63633  42.846  10.945   6.935
 5042POPC   C4B63634  42.747  10.803   7.326
 5043POPC   NC363635  36.618  20.410   5.536
 5043POPC   PO463636  37.226  20.824   5.430
 5043POPC   GL163637  37.000  20.661   5.773
 5043POPC   GL263638  36.727  20.880   5.820
 5043POPC   C1A63639  36.961  20.410   6.176
 5043POPC   D2A63640  37.135  20.506   6.596
 5043POPC   C3A63641  36.942  20.306   6.953
 5043POPC   C4A63642  36.701  20.277   7.338
 5043POPC   C1B63643  36.554  20.770   6.212
 5043POPC   C2B63644  36.592  20.515   6.583
 5043POPC   C3B63645  36.593  20.659   7.006
 5043POPC   C4B63646  36.485  20.760   7.433
 5044POPC   NC363647  28.201  40.979   5.581
 5044POPC   PO463648  28.597  40.453   5.600
 5044POPC   GL163649  28.315  40.599   5.898
 5044POPC   GL263650  28.474  40.956   6.015
 5044POPC   C1A63651  28.305  40.571   6.308
 5044POPC   D2A63652  28.407  40.819   6.598
 5044POPC   C3A63653  28.248  40.581   6.867
 5044POPC   C4A63654  28.169  40.523   7.281
 5044POPC   C1B63655  28.081  41.038   6.238
 5044POPC   C2B63656  27.925  41.033   6.668
 5044POPC   C3B63657  28.066  41.003   7.105
 5044POPC   C4B63658  28.501  40.906   7.162
 5045POPC   NC363659  28.352   5.548   5.474
 5045POPC   PO463660  28.335   4.896   5.438
 5045POPC   GL163661  28.454   5.151   5.770
 5045POPC   GL263662  28.631   4.882   5.876
 5045POPC   C1A63663  28.282   5.365   6.144
 5045POPC   D2A63664  28.216   5.138   6.525
 5045POPC   C3A63665  28.241   5.312   6.913
 5045POPC   C4A63666  28.413   5.524   7.230
 5045POPC   C1B63667  28.203   4.826   6.110
 5045POPC   C2B63668  28.065   4.645   6.543
 5045POPC   C3B63669  27.949   4.844   6.942
 5045POPC   C4B63670  28.152   5.014   7.296
 5046POPC   NC363671  20.975  13.230   5.675
 5046POPC   PO463672  20.391  13.540   5.347
 5046POPC   GL163673  20.537  13.481   5.748
 5046POPC   GL263674  20.590  13.808   5.817
 5046POPC   C1A63675  20.459  13.490   6.182
 5046POPC   D2A63676  20.701  13.499   6.525
 5046POPC   C3A63677  20.459  13.554   6.845
 5046POPC   C4A63678  20.647  13.552   7.210
 5046POPC   C1B63679  20.838  13.889   6.155
 5046POPC   C2B63680  20.737  14.115   6.497
 5046POPC   C3B63681  20.781  13.938   6.878
 5046POPC   C4B63682  21.077  13.863   7.181
 5047POPC   NC363683  30.278   2.740   5.522
 5047POPC   PO463684  29.695   2.383   5.619
 5047POPC   GL163685  29.846   2.665   5.937
 5047POPC   GL263686  30.030   2.977   5.891
 5047POPC   C1A63687  29.811   2.835   6.321
 5047POPC   D2A63688  29.877   2.571   6.624
 5047POPC   C3A63689  29.640   2.697   6.915
 5047POPC   C4A63690  29.400   2.488   7.184
 5047POPC   C1B63691  30.286   2.690   6.182
 5047POPC   C2B63692  30.366   2.462   6.588
 5047POPC   C3B63693  30.219   2.413   6.980
 5047POPC   C4B63694  29.941   2.555   7.273
 5048POPC   NC363695  26.328  32.888   5.205
 5048POPC   PO463696  25.791  33.302   5.397
 5048POPC   GL163697  25.956  33.014   5.692
 5048POPC   GL263698  25.674  32.812   5.710
 5048POPC   C1A63699  26.079  33.100   6.133
 5048POPC   D2A63700  25.958  33.327   6.533
 5048POPC   C3A63701  26.206  33.307   6.935
 5048POPC   C4A63702  26.102  33.133   7.380
 5048POPC   C1B63703  25.569  32.745   6.111
 5048POPC   C2B63704  25.796  32.837   6.471
 5048POPC   C3B63705  25.832  32.919   6.899
 5048POPC   C4B63706  25.726  32.631   7.219
 5049POPC   NC363707   5.123  27.047   5.345
 5049POPC   PO463708   5.616  26.542   5.292
 5049POPC   GL163709   5.326  26.716   5.717
 5049POPC   GL263710   5.006  26.926   5.822
 5049POPC   C1A63711   5.305  26.703   6.219
 5049POPC   D2A63712   4.999  26.685   6.594
 5049POPC   C3A63713   5.101  26.549   7.021
 5049POPC   C4A63714   5.337  26.676   7.433
 5049POPC   C1B63715   5.313  27.190   6.048
 5049POPC   C2B63716   5.274  27.314   6.501
 5049POPC   C3B63717   5.184  27.105   6.922
 5049POPC   C4B63718   5.434  27.137   7.287
 5050POPC   NC363719  20.732  13.230   5.228
 5050POPC   PO463720  20.902  12.776   5.739
 5050POPC   GL163721  20.559  12.940   5.852
 5050POPC   GL263722  20.411  12.608   5.841
 5050POPC   C1A63723  20.605  13.002   6.281
 5050POPC   D2A63724  20.543  12.776   6.619
 5050POPC   C3A63725  20.558  13.059   6.938
 5050POPC   C4A63726  20.778  13.015   7.316
 5050POPC   C1B63727  20.147  12.604   6.169
 5050POPC   C2B63728  20.023  12.675   6.547
 5050POPC   C3B63729  20.165  12.641   6.950
 5050POPC   C4B63730  20.267  12.837   7.293
 5051POPC   NC363731  14.522  18.050   5.390
 5051POPC   PO463732  14.315  17.400   5.399
 5051POPC   GL163733  14.497  17.416   5.812
 5051POPC   GL263734  14.654  17.748   5.775
 5051POPC   C1A63735  14.343  17.295   6.232
 5051POPC   D2A63736  14.254  17.436   6.650
 5051POPC   C3A63737  14.381  17.192   7.003
 5051POPC   C4A63738  14.026  17.263   7.224
 5051POPC   C1B63739  14.394  17.848   6.081
 5051POPC   C2B63740  14.435  17.912   6.507
 5051POPC   C3B63741  14.610  17.744   6.872
 5051POPC   C4B63742  14.314  17.688   7.176
 5052POPC   NC363743   4.716   9.619   5.499
 5052POPC   PO463744   4.090   9.908   5.508
 5052POPC   GL163745   4.280   9.583   5.812
 5052POPC   GL263746   4.650   9.544   5.984
 5052POPC   C1A63747   4.228   9.667   6.237
 5052POPC   D2A63748   4.476   9.659   6.573
 5052POPC   C3A63749   4.263   9.786   6.913
 5052POPC   C4A63750   4.416   9.833   7.285
 5052POPC   C1B63751   4.522   9.215   6.260
 5052POPC   C2B63752   4.463   9.167   6.710
 5052POPC   C3B63753   4.606   9.426   7.039
 5052POPC   C4B63754   4.823   9.403   7.457
 5053POPC   NC363755  38.376  34.148   5.369
 5053POPC   PO463756  38.356  34.770   5.421
 5053POPC   GL163757  38.538  34.711   5.833
 5053POPC   GL263758  38.442  34.379   5.832
 5053POPC   C1A63759  38.559  34.629   6.272
 5053POPC   D2A63760  38.283  34.632   6.598
 5053POPC   C3A63761  38.554  34.715   6.913
 5053POPC   C4A63762  38.524  34.752   7.332
 5053POPC   C1B63763  38.210  34.257   6.209
 5053POPC   C2B63764  37.987  34.185   6.616
 5053POPC   C3B63765  38.055  34.170   7.048
 5053POPC   C4B63766  38.474  34.264   7.166
 5054POPC   NC363767   4.412  41.320   5.375
 5054POPC   PO463768   4.188  41.832   5.280
 5054POPC   GL163769   4.201  41.639   5.725
 5054POPC   GL263770   4.547  41.540   5.802
 5054POPC   C1A63771   4.184  41.500   6.195
 5054POPC   D2A63772   4.120  41.286   6.611
 5054POPC   C3A63773   4.202  41.507   6.974
 5054POPC   C4A63774   3.991  41.534   7.311
 5054POPC   C1B63775   4.646  41.732   6.187
 5054POPC   C2B63776   4.573  41.565   6.593
 5054POPC   C3B63777   4.643  41.747   6.994
 5054POPC   C4B63778   4.316  41.939   7.274
 5055POPC   NC363779  43.889  14.150   5.252
 5055POPC   PO463780  44.266  13.581   5.302
 5055POPC   GL163781  44.010  13.735   5.650
 5055POPC   GL263782  44.046  13.409   5.819
 5055POPC   C1A63783  43.730  13.722   6.050
 5055POPC   D2A63784  43.950  13.664   6.443
 5055POPC   C3A63785  43.745  13.681   6.826
 5055POPC   C4A63786  43.891  13.701   7.211
 5055POPC   C1B63787  44.291  13.231   6.128
 5055POPC   C2B63788  44.115  13.175   6.504
 5055POPC   C3B63789  44.161  13.353   6.895
 5055POPC   C4B63790  44.133  13.289   7.337
 5056POPC   NC363791  19.344  10.152   5.342
 5056POPC   PO463792  18.955   9.730   5.051
 5056POPC   GL163793  18.969   9.862   5.548
 5056POPC   GL263794  18.862   9.585   5.745
 5056POPC   C1A63795  19.169   9.886   6.020
 5056POPC   D2A63796  19.204   9.970   6.497
 5056POPC   C3A63797  19.249   9.753   6.902
 5056POPC   C4A63798  19.275   9.917   7.341
 5056POPC   C1B63799  18.760   9.522   6.160
 5056POPC   C2B63800  18.935   9.488   6.556
 5056POPC   C3B63801  18.757   9.522   6.941
 5056POPC   C4B63802  19.009   9.497   7.287
 5057POPC   NC363803  41.449  29.686   5.540
 5057POPC   PO463804  41.229  30.415   5.507
 5057POPC   GL163805  41.394  30.108   5.833
 5057POPC   GL263806  41.216  29.770   5.969
 5057POPC   C1A63807  41.608  29.992   6.233
 5057POPC   D2A63808  41.570  30.220   6.643
 5057POPC   C3A63809  41.931  30.306   6.903
 5057POPC   C4A63810  41.874  30.135   7.291
 5057POPC   C1B63811  41.378  29.513   6.295
 5057POPC   C2B63812  41.696  29.649   6.597
 5057POPC   C3B63813  41.640  29.823   6.973
 5057POPC   C4B63814  41.384  29.700   7.307
 5058POPC   NC363815  18.930   6.293   5.494
 5058POPC   PO463816  19.356   5.759   5.606
 5058POPC   GL163817  19.090   5.977   5.877
 5058POPC   GL263818  18.779   5.748   5.905
 5058POPC   C1A63819  18.916   6.113   6.265
 5058POPC   D2A63820  18.868   6.045   6.704
 5058POPC   C3A63821  19.015   6.141   7.123
 5058POPC   C4A63822  19.179   5.853   7.446
 5058POPC   C1B63823  18.524   5.755   6.295
 5058POPC   C2B63824  18.625   5.588   6.678
 5058POPC   C3B63825  18.942   5.621   6.981
 5058POPC   C4B63826  18.718   5.718   7.303
 5059POPC   NC363827  35.678  22.046   5.458
 5059POPC   PO463828  35.295  22.560   5.373
 5059POPC   GL163829  35.297  22.399   5.782
 5059POPC   GL263830  35.616  22.503   5.802
 5059POPC   C1A63831  35.282  22.268   6.257
 5059POPC   D2A63832  35.208  22.335   6.721
 5059POPC   C3A63833  35.204  22.021   7.059
 5059POPC   C4A63834  35.317  21.843   7.478
 5059POPC   C1B63835  35.802  22.395   6.164
 5059POPC   C2B63836  35.733  22.266   6.558
 5059POPC   C3B63837  35.666  22.441   6.941
 5059POPC   C4B63838  35.562  22.281   7.323
 5060POPC   NC363839   6.137  37.829   5.097
 5060POPC   PO463840   5.518  37.493   5.336
 5060POPC   GL163841   5.808  37.703   5.644
 5060POPC   GL263842   5.926  37.438   5.850
 5060POPC   C1A63843   5.726  37.828   6.105
 5060POPC   D2A63844   5.772  38.029   6.537
 5060POPC   C3A63845   5.660  37.920   6.932
 5060POPC   C4A63846   5.938  37.943   7.286
 5060POPC   C1B63847   5.692  37.329   6.243
 5060POPC   C2B63848   5.682  37.459   6.684
 5060POPC   C3B63849   5.771  37.481   7.154
 5060POPC   C4B63850   5.704  37.465   7.601
 5061POPC   NC363851  40.501  32.667   5.610
 5061POPC   PO463852  40.702  32.049   5.581
 5061POPC   GL163853  41.051  32.111   5.836
 5061POPC   GL263854  41.084  32.455   5.719
 5061POPC   C1A63855  40.882  32.154   6.251
 5061POPC   D2A63856  40.692  31.909   6.579
 5061POPC   C3A63857  40.669  32.176   6.904
 5061POPC   C4A63858  40.440  32.141   7.235
 5061POPC   C1B63859  41.034  32.637   6.128
 5061POPC   C2B63860  40.854  32.560   6.549
 5061POPC   C3B63861  41.027  32.579   6.929
 5061POPC   C4B63862  40.792  32.519   7.300
 5062POPC   NC363863   2.044  28.265   5.414
 5062POPC   PO463864   1.859  28.982   5.490
 5062POPC   GL163865   1.994  28.695   5.859
 5062POPC   GL263866   2.225  28.412   5.841
 5062POPC   C1A63867   1.886  28.394   6.208
 5062POPC   D2A63868   1.804  28.280   6.644
 5062POPC   C3A63869   2.043  28.263   6.977
 5062POPC   C4A63870   2.055  28.470   7.369
 5062POPC   C1B63871   2.356  28.148   6.168
 5062POPC   C2B63872   2.219  27.965   6.557
 5062POPC   C3B63873   2.383  27.912   6.952
 5062POPC   C4B63874   2.449  28.165   7.291
 5063POPC   NC363875  30.200  27.949   5.433
 5063POPC   PO463876  29.661  27.551   5.364
 5063POPC   GL163877  29.737  27.483   5.819
 5063POPC   GL263878  29.489  27.242   5.941
 5063POPC   C1A63879  29.945  27.491   6.246
 5063POPC   D2A63880  30.104  27.774   6.582
 5063POPC   C3A63881  30.114  27.713   7.046
 5063POPC   C4A63882  30.371  27.998   7.259
 5063POPC   C1B63883  29.517  27.269   6.406
 5063POPC   C2B63884  29.793  27.396   6.753
 5063POPC   C3B63885  29.907  27.257   7.167
 5063POPC   C4B63886  29.784  27.314   7.642
 5064POPC   NC363887  31.504  39.706   5.378
 5064POPC   PO463888  31.108  40.312   5.460
 5064POPC   GL163889  31.353  40.015   5.762
 5064POPC   GL263890  31.144  39.782   5.944
 5064POPC   C1A63891  31.543  40.091   6.180
 5064POPC   D2A63892  31.685  39.933   6.582
 5064POPC   C3A63893  31.617  40.149   6.960
 5064POPC   C4A63894  31.606  39.870   7.252
 5064POPC   C1B63895  31.042  40.164   6.137
 5064POPC   C2B63896  31.067  40.101   6.547
 5064POPC   C3B63897  31.196  39.881   6.882
 5064POPC   C4B63898  31.125  40.016   7.251
 5065POPC   NC363899   6.226   0.616   5.336
 5065POPC   PO463900   6.961   0.538   5.429
 5065POPC   GL163901   6.711   0.514   5.813
 5065POPC   GL263902   6.428   0.314   5.686
 5065POPC   C1A63903   6.648   0.644   6.280
 5065POPC   D2A63904   6.737   0.446   6.697
 5065POPC   C3A63905   6.480   0.640   7.021
 5065POPC   C4A63906   6.511   0.925   7.326
 5065POPC   C1B63907   6.256   0.385   6.087
 5065POPC   C2B63908   6.271   0.320   6.515
 5065POPC   C3B63909   6.355   0.166   6.934
 5065POPC   C4B63910   6.510   0.297   7.395
 5066POPC   NC363911  33.675  20.843   5.522
 5066POPC   PO463912  34.148  20.339   5.452
 5066POPC   GL163913  33.891  20.446   5.778
 5066POPC   GL263914  34.067  20.745   5.833
 5066POPC   C1A63915  33.725  20.505   6.187
 5066POPC   D2A63916  33.877  20.364   6.582
 5066POPC   C3A63917  33.730  20.621   6.870
 5066POPC   C4A63918  33.584  20.669   7.260
 5066POPC   C1B63919  34.196  20.641   6.249
 5066POPC   C2B63920  34.363  20.523   6.654
 5066POPC   C3B63921  34.216  20.467   7.057
 5066POPC   C4B63922  34.062  20.782   7.243
 5067POPC   NC363923  29.858  15.785   5.421
 5067POPC   PO463924  30.251  16.209   5.590
 5067POPC   GL163925  30.120  15.955   5.855
 5067POPC   GL263926  30.240  15.666   5.766
 5067POPC   C1A63927  29.907  15.979   6.220
 5067POPC   D2A63928  30.030  16.060   6.620
 5067POPC   C3A63929  29.686  16.104   6.883
 5067POPC   C4A63930  29.908  16.023   7.238
 5067POPC   C1B63931  30.311  15.612   6.189
 5067POPC   C2B63932  29.984  15.536   6.485
 5067POPC   C3B63933  29.865  15.624   6.895
 5067POPC   C4B63934  30.177  15.594   7.203
 5068POPC   NC363935  37.501  14.121   5.390
 5068POPC   PO463936  37.518  14.778   5.333
 5068POPC   GL163937  37.659  14.502   5.716
 5068POPC   GL263938  37.381  14.260   5.852
 5068POPC   C1A63939  37.850  14.295   6.093
 5068POPC   D2A63940  37.959  14.139   6.507
 5068POPC   C3A63941  37.870  14.436   6.814
 5068POPC   C4A63942  37.921  14.432   7.256
 5068POPC   C1B63943  37.400  14.549   6.203
 5068POPC   C2B63944  37.367  14.494   6.631
 5068POPC   C3B63945  37.411  14.382   7.061
 5068POPC   C4B63946  37.372  14.746   7.259
 5069POPC   NC363947  35.696   3.618   5.593
 5069POPC   PO463948  36.334   3.603   5.460
 5069POPC   GL163949  36.348   3.726   5.870
 5069POPC   GL263950  36.281   3.376   5.910
 5069POPC   C1A63951  36.437   4.054   6.177
 5069POPC   D2A63952  36.350   4.078   6.623
 5069POPC   C3A63953  36.080   3.739   6.753
 5069POPC   C4A63954  35.858   3.439   7.036
 5069POPC   C1B63955  36.108   3.449   6.313
 5069POPC   C2B63956  36.239   3.260   6.702
 5069POPC   C3B63957  36.353   3.407   7.113
 5069POPC   C4B63958  36.547   3.400   7.506
 5070POPC   NC363959   0.432  30.260   5.135
 5070POPC   PO463960   0.460  30.835   5.483
 5070POPC   GL163961   0.614  30.807   5.876
 5070POPC   GL263962   0.224  30.733   5.945
 5070POPC   C1A63963   0.557  30.652   6.298
 5070POPC   D2A63964   0.221  30.773   6.534
 5070POPC   C3A63965   0.409  30.845   6.931
 5070POPC   C4A63966   0.206  30.885   7.303
 5070POPC   C1B63967   0.141  30.380   6.196
 5070POPC   C2B63968   0.319  30.261   6.559
 5070POPC   C3B63969   0.128  30.410   6.917
 5070POPC   C4B63970   0.166  30.348   7.304
 5071POPC   NC363971  10.730  14.111   5.072
 5071POPC   PO463972  10.454  14.432   5.544
 5071POPC   GL163973  10.308  14.537   5.868
 5071POPC   GL263974  10.664  14.521   5.996
 5071POPC   C1A63975  10.025  14.553   6.193
 5071POPC   D2A63976  10.185  14.665   6.586
 5071POPC   C3A63977  10.095  14.529   6.982
 5071POPC   C4A63978  10.398  14.480   7.308
 5071POPC   C1B63979  10.445  14.289   6.307
 5071POPC   C2B63980  10.567  14.073   6.639
 5071POPC   C3B63981  10.734  14.234   6.990
 5071POPC   C4B63982  10.750  14.114   7.394
 5072POPC   NC363983  23.689   8.016   4.975
 5072POPC   PO463984  23.564   8.414   5.434
 5072POPC   GL163985  23.867   8.342   5.770
 5072POPC   GL263986  24.211   8.498   5.781
 5072POPC   C1A63987  23.801   8.107   6.177
 5072POPC   D2A63988  23.491   8.054   6.505
 5072POPC   C3A63989  23.679   8.065   6.868
 5072POPC   C4A63990  23.605   7.926   7.238
 5072POPC   C1B63991  23.983   8.594   6.184
 5072POPC   C2B63992  23.769   8.490   6.552
 5072POPC   C3B63993  24.005   8.525   6.917
 5072POPC   C4B63994  24.049   8.451   7.327
 5073POPC   NC363995  16.120  21.789   5.334
 5073POPC   PO463996  15.833  22.366   5.432
 5073POPC   GL163997  15.917  22.059   5.780
 5073POPC   GL263998  15.720  21.728   5.758
 5073POPC   C1A63999  15.909  22.220   6.235
 5073POPC   D2A64000  16.232  22.178   6.574
 5073POPC   C3A64001  16.285  22.436   6.945
 5073POPC   C4A64002  16.031  22.429   7.300
 5073POPC   C1B64003  15.918  21.676   6.170
 5073POPC   C2B64004  15.801  21.838   6.597
 5073POPC   C3B64005  15.881  22.027   7.004
 5073POPC   C4B64006  16.019  21.815   7.376
 5074POPC   NC364007  34.043  13.057   5.357
 5074POPC   PO464008  33.372  13.097   5.275
 5074POPC   GL164009  33.667  12.848   5.631
 5074POPC   GL264010  33.741  13.109   5.810
 5074POPC   C1A64011  33.807  12.647   6.063
 5074POPC   D2A64012  33.794  12.780   6.509
 5074POPC   C3A64013  33.845  12.529   6.881
 5074POPC   C4A64014  33.897  12.637   7.289
 5074POPC   C1B64015  33.944  13.185   6.200
 5074POPC   C2B64016  34.217  13.086   6.541
 5074POPC   C3B64017  34.114  12.980   6.958
 5074POPC   C4B64018  33.736  13.141   7.153
 5075POPC   NC364019  25.726  27.739   5.116
 5075POPC   PO464020  26.287  27.485   5.548
 5075POPC   GL164021  26.194  27.671   5.989
 5075POPC   GL264022  25.844  27.742   6.053
 5075POPC   C1A64023  26.082  27.424   6.381
 5075POPC   D2A64024  25.845  27.146   6.636
 5075POPC   C3A64025  26.031  27.324   7.000
 5075POPC   C4A64026  26.182  27.796   7.124
 5075POPC   C1B64027  25.577  27.509   6.314
 5075POPC   C2B64028  25.540  27.549   6.762
 5075POPC   C3B64029  25.676  27.669   7.148
 5075POPC   C4B64030  25.784  27.927   7.493
 5076POPC   NC364031  21.269  33.289   5.506
 5076POPC   PO464032  21.576  33.858   5.340
 5076POPC   GL164033  21.263  33.991   5.672
 5076POPC   GL264034  21.541  34.127   5.840
 5076POPC   C1A64035  21.149  34.029   6.129
 5076POPC   D2A64036  21.314  33.823   6.486
 5076POPC   C3A64037  21.293  33.859   6.935
 5076POPC   C4A64038  21.339  33.700   7.378
 5076POPC   C1B64039  21.564  33.686   6.011
 5076POPC   C2B64040  21.709  33.524   6.406
 5076POPC   C3B64041  21.776  33.825   6.737
 5076POPC   C4B64042  21.796  33.747   7.146
 5077POPC   NC364043  19.852  37.850   5.084
 5077POPC   PO464044  19.617  37.411   5.572
 5077POPC   GL164045  19.624  37.563   5.944
 5077POPC   GL264046  20.011  37.539   5.939
 5077POPC   C1A64047  19.758  37.762   6.329
 5077POPC   D2A64048  20.113  37.622   6.570
 5077POPC   C3A64049  19.924  37.676   6.943
 5077POPC   C4A64050  19.602  37.996   6.900
 5077POPC   C1B64051  19.874  37.261   6.282
 5077POPC   C2B64052  19.666  37.317   6.662
 5077POPC   C3B64053  19.738  37.182   7.077
 5077POPC   C4B64054  19.678  37.277   7.516
 5078POPC   NC364055  38.380  16.527   5.530
 5078POPC   PO464056  38.714  15.957   5.335
 5078POPC   GL164057  38.598  15.807   5.764
 5078POPC   GL264058  38.331  16.068   5.836
 5078POPC   C1A64059  38.687  15.871   6.202
 5078POPC   D2A64060  38.530  15.804   6.615
 5078POPC   C3A64061  38.470  16.161   6.891
 5078POPC   C4A64062  38.522  16.046   7.315
 5078POPC   C1B64063  38.172  15.875   6.219
 5078POPC   C2B64064  38.025  15.986   6.633
 5078POPC   C3B64065  38.090  15.877   7.047
 5078POPC   C4B64066  38.161  15.682   7.416
 5079POPC   NC364067  18.073  39.343   5.290
 5079POPC   PO464068  18.610  38.908   5.456
 5079POPC   GL164069  18.440  39.116   5.772
 5079POPC   GL264070  18.110  38.995   5.682
 5079POPC   C1A64071  18.487  38.983   6.200
 5079POPC   D2A64072  18.423  39.199   6.595
 5079POPC   C3A64073  18.449  39.029   7.008
 5079POPC   C4A64074  18.357  39.347   7.350
 5079POPC   C1B64075  17.993  39.120   6.101
 5079POPC   C2B64076  17.862  39.054   6.535
 5079POPC   C3B64077  17.998  39.210   6.909
 5079POPC   C4B64078  17.865  39.395   7.248
 5080POPC   NC364079  37.500   4.445   5.421
 5080POPC   PO464080  37.870   3.841   5.413
 5080POPC   GL164081  37.813   4.147   5.715
 5080POPC   GL264082  37.450   4.144   5.822
 5080POPC   C1A64083  37.830   4.415   6.074
 5080POPC   D2A64084  37.678   4.299   6.491
 5080POPC   C3A64085  37.820   4.344   6.942
 5080POPC   C4A64086  38.059   4.687   7.139
 5080POPC   C1B64087  37.388   3.912   6.176
 5080POPC   C2B64088  37.445   3.869   6.589
 5080POPC   C3B64089  37.347   4.198   6.893
 5080POPC   C4B64090  37.424   4.341   7.316
 5081POPC   NC364091   9.429   1.851   5.412
 5081POPC   PO464092  10.065   1.699   5.439
 5081POPC   GL164093   9.862   1.994   5.783
 5081POPC   GL264094   9.495   2.103   5.852
 5081POPC   C1A64095   9.810   2.061   6.257
 5081POPC   D2A64096   9.731   2.184   6.690
 5081POPC   C3A64097  10.013   2.039   7.017
 5081POPC   C4A64098   9.927   1.965   7.496
 5081POPC   C1B64099   9.336   1.872   6.238
 5081POPC   C2B64100   9.524   1.701   6.632
 5081POPC   C3B64101   9.519   1.859   7.069
 5081POPC   C4B64102   9.413   1.976   7.522
 5082POPC   NC364103   3.748  40.731   5.347
 5082POPC   PO464104   3.108  40.684   5.364
 5082POPC   GL164105   3.349  40.584   5.771
 5082POPC   GL264106   3.718  40.556   5.817
 5082POPC   C1A64107   3.437  40.731   6.219
 5082POPC   D2A64108   3.585  40.999   6.544
 5082POPC   C3A64109   3.372  41.017   6.935
 5082POPC   C4A64110   3.659  41.132   7.290
 5082POPC   C1B64111   3.930  40.593   6.211
 5082POPC   C2B64112   3.785  40.523   6.594
 5082POPC   C3B64113   3.761  40.701   6.953
 5082POPC   C4B64114   3.745  40.645   7.360
 5083POPC   NC364115  11.577  44.416   5.226
 5083POPC   PO464116  11.865  44.893   5.621
 5083POPC   GL164117  12.066  44.822   5.991
 5083POPC   GL264118  12.266  44.546   5.876
 5083POPC   C1A64119  12.011  44.544   6.369
 5083POPC   D2A64120  11.666  44.460   6.668
 5083POPC   C3A64121  11.876  44.282   7.019
 5083POPC   C4A64122  12.073  44.587   7.283
 5083POPC   C1B64123  12.488  44.653   6.250
 5083POPC   C2B64124  12.531  44.602   6.680
 5083POPC   C3B64125  12.581  44.813   7.079
 5083POPC   C4B64126  12.270   0.068   7.314
 5084POPC   NC364127  20.391  25.038   5.427
 5084POPC   PO464128  20.660  25.661   5.318
 5084POPC   GL164129  20.823  25.349   5.626
 5084POPC   GL264130  20.562  25.192   5.885
 5084POPC   C1A64131  20.978  25.415   6.064
 5084POPC   D2A64132  20.796  25.466   6.505
 5084POPC   C3A64133  20.816  25.121   6.798
 5084POPC   C4A64134  20.810  25.096   7.248
 5084POPC   C1B64135  20.262  25.139   6.256
 5084POPC   C2B64136  20.275  25.245   6.679
 5084POPC   C3B64137  20.465  25.438   7.021
 5084POPC   C4B64138  20.424  25.390   7.463
 5085POPC   NC364139  38.400  38.098   5.088
 5085POPC   PO464140  38.664  38.564   5.479
 5085POPC   GL164141  38.585  38.404   5.894
 5085POPC   GL264142  38.229  38.321   5.876
 5085POPC   C1A64143  38.667  38.456   6.336
 5085POPC   D2A64144  38.449  38.577   6.704
 5085POPC   C3A64145  38.611  38.338   7.001
 5085POPC   C4A64146  38.971  38.185   7.197
 5085POPC   C1B64147  38.131  38.395   6.335
 5085POPC   C2B64148  38.198  38.127   6.737
 5085POPC   C3B64149  38.161  38.165   7.190
 5085POPC   C4B64150  38.156  38.558   7.475
 5086POPC   NC364151  18.491  38.457   5.493
 5086POPC   PO464152  17.830  38.289   5.370
 5086POPC   GL164153  18.023  38.311   5.787
 5086POPC   GL264154  18.364  38.226   5.922
 5086POPC   C1A64155  18.100  38.614   6.134
 5086POPC   D2A64156  18.250  38.694   6.557
 5086POPC   C3A64157  18.164  38.407   6.880
 5086POPC   C4A64158  18.230  38.575   7.263
 5086POPC   C1B64159  18.593  38.391   6.269
 5086POPC   C2B64160  18.602  38.184   6.652
 5086POPC   C3B64161  18.580  38.014   7.046
 5086POPC   C4B64162  18.485  38.182   7.440
 5087POPC   NC364163  44.708  15.809   5.486
 5087POPC   PO464164  44.460  16.454   5.475
 5087POPC   GL164165  44.569  16.180   5.818
 5087POPC   GL264166  44.279  15.962   5.746
 5087POPC   C1A64167  44.785  16.102   6.232
 5087POPC   D2A64168   0.049  15.967   6.604
 5087POPC   C3A64169  44.797  15.934   6.959
 5087POPC   C4A64170  44.631  16.227   7.279
 5087POPC   C1B64171  44.405  15.783   6.135
 5087POPC   C2B64172  44.464  15.849   6.585
 5087POPC   C3B64173  44.325  15.755   7.034
 5087POPC   C4B64174  44.336  15.851   7.495
 5088POPC   NC364175  37.529  13.126   5.406
 5088POPC   PO464176  37.918  12.602   5.655
 5088POPC   GL164177  37.660  12.898   5.860
 5088POPC   GL264178  37.943  12.962   6.046
 5088POPC   C1A64179  37.333  12.948   6.200
 5088POPC   D2A64180  37.198  12.745   6.620
 5088POPC   C3A64181  37.477  12.885   6.973
 5088POPC   C4A64182  37.781  12.615   7.146
 5088POPC   C1B64183  38.199  13.221   6.277
 5088POPC   C2B64184  38.263  13.052   6.667
 5088POPC   C3B64185  38.190  13.154   7.091
 5088POPC   C4B64186  37.850  13.086   7.339
 5089POPC   NC364187   5.044  17.051   5.432
 5089POPC   PO464188   4.752  16.450   5.514
 5089POPC   GL164189   4.920  16.496   5.917
 5089POPC   GL264190   5.143  16.796   5.907
 5089POPC   C1A64191   5.228  16.371   6.234
 5089POPC   D2A64192   5.173  16.523   6.619
 5089POPC   C3A64193   5.344  16.378   6.968
 5089POPC   C4A64194   5.014  16.558   7.232
 5089POPC   C1B64195   5.287  16.939   6.322
 5089POPC   C2B64196   5.236  17.009   6.783
 5089POPC   C3B64197   5.438  16.872   7.187
 5089POPC   C4B64198   5.303  16.911   7.617
 5090POPC   NC364199   8.996   6.119   5.189
 5090POPC   PO464200   8.857   5.556   5.502
 5090POPC   GL164201   8.758   5.684   5.883
 5090POPC   GL264202   8.769   6.047   5.764
 5090POPC   C1A64203   8.898   5.596   6.300
 5090POPC   D2A64204   8.841   5.699   6.693
 5090POPC   C3A64205   9.126   5.521   6.951
 5090POPC   C4A64206   9.282   5.649   7.331
 5090POPC   C1B64207   9.106   6.033   6.108
 5090POPC   C2B64208   9.278   5.984   6.551
 5090POPC   C3B64209   9.143   6.041   6.985
 5090POPC   C4B64210   8.976   6.030   7.435
 5091POPC   NC364211   6.327  31.383   5.460
 5091POPC   PO464212   5.640  31.364   5.351
 5091POPC   GL164213   5.892  31.434   5.765
 5091POPC   GL264214   6.079  31.135   5.908
 5091POPC   C1A64215   6.047  31.528   6.221
 5091POPC   D2A64216   5.904  31.344   6.622
 5091POPC   C3A64217   5.736  31.692   6.890
 5091POPC   C4A64218   6.074  31.915   7.043
 5091POPC   C1B64219   5.654  31.190   6.169
 5091POPC   C2B64220   5.406  31.408   6.540
 5091POPC   C3B64221   5.487  31.246   6.962
 5091POPC   C4B64222   5.932  31.276   7.128
 5092POPC   NC364223  37.015  23.699   5.495
 5092POPC   PO464224  36.987  23.099   5.560
 5092POPC   GL164225  36.719  23.477   5.832
 5092POPC   GL264226  36.776  23.921   5.867
 5092POPC   C1A64227  36.734  23.611   6.266
 5092POPC   D2A64228  36.805  23.554   6.699
 5092POPC   C3A64229  36.826  23.909   6.942
 5092POPC   C4A64230  36.723  23.834   7.334
 5092POPC   C1B64231  37.177  23.850   6.092
 5092POPC   C2B64232  37.228  23.638   6.447
 5092POPC   C3B64233  37.275  23.646   6.886
 5092POPC   C4B64234  37.238  23.782   7.270
 5093POPC   NC364235  41.313  18.150   5.404
 5093POPC   PO464236  41.806  18.603   5.418
 5093POPC   GL164237  41.535  18.498   5.712
 5093POPC   GL264238  41.717  18.174   5.734
 5093POPC   C1A64239  41.395  18.321   6.091
 5093POPC   D2A64240  41.406  18.101   6.449
 5093POPC   C3A64241  41.385  18.355   6.804
 5093POPC   C4A64242  41.570  18.310   7.177
 5093POPC   C1B64243  41.829  18.012   6.149
 5093POPC   C2B64244  41.851  17.861   6.580
 5093POPC   C3B64245  41.912  17.994   6.976
 5093POPC   C4B64246  41.984  17.769   7.344
 5094POPC   NC364247   5.141  33.406   5.386
 5094POPC   PO464248   4.839  32.800   5.300
 5094POPC   GL164249   4.953  33.010   5.707
 5094POPC   GL264250   5.302  33.132   5.766
 5094POPC   C1A64251   5.076  32.866   6.136
 5094POPC   D2A64252   4.884  32.775   6.535
 5094POPC   C3A64253   5.093  32.939   6.901
 5094POPC   C4A64254   5.035  32.815   7.308
 5094POPC   C1B64255   5.575  33.215   6.131
 5094POPC   C2B64256   5.709  33.134   6.562
 5094POPC   C3B64257   5.604  33.071   6.995
 5094POPC   C4B64258   5.373  33.279   7.313
 5095POPC   NC364259  15.382  13.917   5.490
 5095POPC   PO464260  15.069  13.278   5.447
 5095POPC   GL164261  15.217  13.370   5.850
 5095POPC   GL264262  15.067  13.679   5.808
 5095POPC   C1A64263  15.348  13.548   6.253
 5095POPC   D2A64264  15.167  13.728   6.643
 5095POPC   C3A64265  15.298  13.591   7.065
 5095POPC   C4A64266  15.036  13.494   7.416
 5095POPC   C1B64267  15.005  13.949   6.141
 5095POPC   C2B64268  14.755  14.024   6.487
 5095POPC   C3B64269  14.860  14.071   6.933
 5095POPC   C4B64270  15.114  14.008   7.301
 5096POPC   NC364271  38.185  13.003   5.580
 5096POPC   PO464272  38.786  12.649   5.237
 5096POPC   GL164273  38.598  12.783   5.652
 5096POPC   GL264274  38.727  13.088   5.666
 5096POPC   C1A64275  38.484  12.783   6.149
 5096POPC   D2A64276  38.591  12.649   6.609
 5096POPC   C3A64277  38.297  12.649   6.980
 5096POPC   C4A64278  38.211  12.701   7.429
 5096POPC   C1B64279  38.779  13.206   6.088
 5096POPC   C2B64280  38.674  13.317   6.490
 5096POPC   C3B64281  38.710  13.139   6.889
 5096POPC   C4B64282  38.638  12.966   7.261
 5097POPC   NC364283  44.367  33.374   5.325
 5097POPC   PO464284  44.117  32.883   5.726
 5097POPC   GL164285  43.779  33.030   5.911
 5097POPC   GL264286  43.490  32.731   5.933
 5097POPC   C1A64287  43.820  33.355   6.161
 5097POPC   D2A64288  43.684  33.163   6.541
 5097POPC   C3A64289  43.718  33.365   6.907
 5097POPC   C4A64290  43.863  33.244   7.271
 5097POPC   C1B64291  43.760  32.698   6.287
 5097POPC   C2B64292  43.708  32.634   6.677
 5097POPC   C3B64293  43.878  32.847   6.970
 5097POPC   C4B64294  43.770  32.594   7.286
 5098POPC   NC364295   4.433  34.893   5.622
 5098POPC   PO464296   4.367  34.202   5.331
 5098POPC   GL164297   4.402  34.378   5.751
 5098POPC   GL264298   4.058  34.534   5.765
 5098POPC   C1A64299   4.418  34.479   6.211
 5098POPC   D2A64300   4.522  34.355   6.676
 5098POPC   C3A64301   4.529  34.653   7.050
 5098POPC   C4A64302   4.336  34.714   7.468
 5098POPC   C1B64303   3.943  34.670   6.196
 5098POPC   C2B64304   4.100  34.703   6.652
 5098POPC   C3B64305   4.023  34.501   7.054
 5098POPC   C4B64306   4.117  34.269   7.448
 5099POPC   NC364307  18.726   3.300   5.492
 5099POPC   PO464308  19.336   3.629   5.306
 5099POPC   GL164309  19.223   3.653   5.719
 5099POPC   GL264310  18.870   3.752   5.788
 5099POPC   C1A64311  19.347   3.427   6.082
 5099POPC   D2A64312  19.458   3.555   6.490
 5099POPC   C3A64313  19.191   3.489   6.810
 5099POPC   C4A64314  19.280   3.267   7.179
 5099POPC   C1B64315  18.824   3.468   6.165
 5099POPC   C2B64316  18.771   3.236   6.576
 5099POPC   C3B64317  18.767   3.310   7.026
 5099POPC   C4B64318  18.942   3.708   7.215
 5100POPC   NC364319  34.911  20.739   5.611
 5100POPC   PO464320  35.529  20.477   5.313
 5100POPC   GL164321  35.325  20.451   5.724
 5100POPC   GL264322  35.399  20.796   5.760
 5100POPC   C1A64323  35.159  20.501   6.163
 5100POPC   D2A64324  35.306  20.420   6.583
 5100POPC   C3A64325  35.288  20.611   6.981
 5100POPC   C4A64326  35.596  20.379   7.204
 5100POPC   C1B64327  35.573  20.788   6.186
 5100POPC   C2B64328  35.594  20.888   6.612
 5100POPC   C3B64329  35.753  20.867   7.007
 5100POPC   C4B64330  35.575  20.846   7.392
 5101POPC   NC364331  33.294  35.208   5.075
 5101POPC   PO464332  32.856  35.666   5.355
 5101POPC   GL164333  33.088  35.460   5.681
 5101POPC   GL264334  32.876  35.208   5.859
 5101POPC   C1A64335  33.196  35.501   6.128
 5101POPC   D2A64336  33.009  35.333   6.503
 5101POPC   C3A64337  33.192  35.442   6.871
 5101POPC   C4A64338  33.374  35.194   7.178
 5101POPC   C1B64339  32.666  35.065   6.236
 5101POPC   C2B64340  32.524  35.124   6.638
 5101POPC   C3B64341  32.823  35.089   6.955
 5101POPC   C4B64342  32.902  35.366   7.276
 5102POPC   NC364343  32.507  16.759   5.122
 5102POPC   PO464344  32.034  17.039   5.434
 5102POPC   GL164345  32.132  16.861   5.846
 5102POPC   GL264346  32.377  16.648   5.721
 5102POPC   C1A64347  32.186  16.488   6.164
 5102POPC   D2A64348  32.274  16.332   6.583
 5102POPC   C3A64349  32.096  16.615   6.884
 5102POPC   C4A64350  31.910  16.885   7.209
 5102POPC   C1B64351  32.558  16.842   6.116
 5102POPC   C2B64352  32.444  16.858   6.548
 5102POPC   C3B64353  32.550  16.840   6.998
 5102POPC   C4B64354  32.320  16.653   7.362
 5103POPC   NC364355  16.036   0.442   5.166
 5103POPC   PO464356  16.543   0.569   5.533
 5103POPC   GL164357  16.690   0.272   5.840
 5103POPC   GL264358  17.047   0.277   5.863
 5103POPC   C1A64359  16.687   0.347   6.274
 5103POPC   D2A64360  16.385   0.559   6.526
 5103POPC   C3A64361  16.590   0.678   6.915
 5103POPC   C4A64362  16.610   0.440   7.304
 5103POPC   C1B64363  17.054  44.997   6.203
 5103POPC   C2B64364  17.127   0.137   6.627
 5103POPC   C3B64365  16.972   0.213   7.029
 5103POPC   C4B64366  17.044   0.246   7.477
 5104POPC   NC364367  21.222  38.420   5.602
 5104POPC   PO464368  21.721  38.775   5.625
 5104POPC   GL164369  21.499  38.592   6.000
 5104POPC   GL264370  21.513  38.215   5.979
 5104POPC   C1A64371  21.292  38.393   6.404
 5104POPC   D2A64372  21.298  38.107   6.797
 5104POPC   C3A64373  21.161  38.332   7.138
 5104POPC   C4A64374  21.331  38.728   7.163
 5104POPC   C1B64375  21.805  38.398   6.335
 5104POPC   C2B64376  21.883  38.532   6.741
 5104POPC   C3B64377  21.686  38.347   7.106
 5104POPC   C4B64378  21.509  38.270   7.532
 5105POPC   NC364379  22.215   6.098   5.246
 5105POPC   PO464380  22.252   6.812   5.336
 5105POPC   GL164381  22.220   6.677   5.752
 5105POPC   GL264382  21.874   6.548   5.811
 5105POPC   C1A64383  22.473   6.630   6.114
 5105POPC   D2A64384  22.429   6.700   6.542
 5105POPC   C3A64385  22.553   6.339   6.788
 5105POPC   C4A64386  22.441   6.332   7.203
 5105POPC   C1B64387  21.975   6.751   6.245
 5105POPC   C2B64388  21.837   6.682   6.699
 5105POPC   C3B64389  21.928   6.642   7.135
 5105POPC   C4B64390  21.808   6.930   7.424
 5106POPC   NC364391  22.579  37.675   5.254
 5106POPC   PO464392  21.955  37.307   5.440
 5106POPC   GL164393  22.231  37.561   5.697
 5106POPC   GL264394  22.118  37.895   5.843
 5106POPC   C1A64395  22.212  37.520   6.152
 5106POPC   D2A64396  21.949  37.519   6.520
 5106POPC   C3A64397  22.165  37.604   6.865
 5106POPC   C4A64398  22.371  37.490   7.200
 5106POPC   C1B64399  21.830  37.888   6.183
 5106POPC   C2B64400  21.725  37.973   6.579
 5106POPC   C3B64401  21.726  37.828   6.973
 5106POPC   C4B64402  21.842  37.910   7.369
 5107POPC   NC364403  20.196  40.409   5.066
 5107POPC   PO464404  20.612  39.943   5.403
 5107POPC   GL164405  20.719  40.058   5.789
 5107POPC   GL264406  20.637  40.388   5.832
 5107POPC   C1A64407  20.468  40.038   6.179
 5107POPC   D2A64408  20.653  40.058   6.568
 5107POPC   C3A64409  20.431  39.930   6.920
 5107POPC   C4A64410  20.821  39.913   7.138
 5107POPC   C1B64411  20.791  40.442   6.214
 5107POPC   C2B64412  20.648  40.584   6.582
 5107POPC   C3B64413  20.647  40.389   6.969
 5107POPC   C4B64414  20.773  40.373   7.384
 5108POPC   NC364415  24.524  41.150   5.437
 5108POPC   PO464416  24.320  41.825   5.353
 5108POPC   GL164417  24.382  41.758   5.821
 5108POPC   GL264418  24.415  41.398   5.894
 5108POPC   C1A64419  24.428  41.735   6.315
 5108POPC   D2A64420  24.252  41.417   6.642
 5108POPC   C3A64421  24.347  41.495   7.093
 5108POPC   C4A64422  24.331  41.707   7.516
 5108POPC   C1B64423  24.621  41.266   6.305
 5108POPC   C2B64424  24.785  41.576   6.631
 5108POPC   C3B64425  24.805  41.717   7.035
 5108POPC   C4B64426  24.827  41.362   7.254
 5109POPC   NC364427  35.929  20.515   5.019
 5109POPC   PO464428  36.419  20.886   5.401
 5109POPC   GL164429  36.246  20.687   5.784
 5109POPC   GL264430  35.916  20.806   5.793
 5109POPC   C1A64431  36.129  20.456   6.186
 5109POPC   D2A64432  35.853  20.444   6.570
 5109POPC   C3A64433  36.094  20.469   6.960
 5109POPC   C4A64434  36.027  20.549   7.384
 5109POPC   C1B64435  36.045  20.966   6.198
 5109POPC   C2B64436  36.184  20.849   6.611
 5109POPC   C3B64437  36.242  21.012   7.033
 5109POPC   C4B64438  36.032  21.063   7.417
 5110POPC   NC364439  17.794  28.135   5.617
 5110POPC   PO464440  18.346  28.441   5.328
 5110POPC   GL164441  18.229  28.380   5.741
 5110POPC   GL264442  17.938  28.596   5.737
 5110POPC   C1A64443  18.426  28.288   6.127
 5110POPC   D2A64444  18.297  28.240   6.531
 5110POPC   C3A64445  18.566  28.296   6.858
 5110POPC   C4A64446  18.318  28.239   7.186
 5110POPC   C1B64447  18.009  28.641   6.173
 5110POPC   C2B64448  17.903  28.613   6.610
 5110POPC   C3B64449  18.202  28.661   6.915
 5110POPC   C4B64450  18.254  28.878   7.297
 5111POPC   NC364451  44.723   5.868   5.181
 5111POPC   PO464452  44.819   6.463   5.476
 5111POPC   GL164453  44.692   6.157   5.834
 5111POPC   GL264454  44.340   6.103   5.904
 5111POPC   C1A64455  44.639   5.738   6.105
 5111POPC   D2A64456  44.503   5.611   6.538
 5111POPC   C3A64457  44.772   5.609   6.871
 5111POPC   C4A64458  44.698   5.664   7.285
 5111POPC   C1B64459  44.423   6.136   6.324
 5111POPC   C2B64460  44.753   6.061   6.606
 5111POPC   C3B64461  44.599   6.097   7.000
 5111POPC   C4B64462  44.473   6.419   7.301
 5112POPC   NC364463  12.380  43.923   5.190
 5112POPC   PO464464  12.985  44.068   5.445
 5112POPC   GL164465  12.975  43.929   5.836
 5112POPC   GL264466  13.254  44.087   5.987
 5112POPC   C1A64467  12.770  43.783   6.200
 5112POPC   D2A64468  12.558  43.658   6.574
 5112POPC   C3A64469  12.704  43.855   6.944
 5112POPC   C4A64470  12.688  43.943   7.353
 5112POPC   C1B64471  13.283  43.693   6.194
 5112POPC   C2B64472  13.102  43.603   6.581
 5112POPC   C3B64473  13.234  43.840   6.926
 5112POPC   C4B64474  13.185  44.024   7.336
 5113POPC   NC364475  34.889   8.068   5.484
 5113POPC   PO464476  34.231   8.329   5.643
 5113POPC   GL164477  34.421   8.094   5.922
 5113POPC   GL264478  34.765   8.148   5.963
 5113POPC   C1A64479  34.441   8.041   6.342
 5113POPC   D2A64480  34.613   7.961   6.724
 5113POPC   C3A64481  34.438   8.031   7.097
 5113POPC   C4A64482  34.427   8.286   7.435
 5113POPC   C1B64483  34.902   7.753   6.148
 5113POPC   C2B64484  34.916   7.593   6.560
 5113POPC   C3B64485  34.866   7.655   7.024
 5113POPC   C4B64486  34.902   8.021   7.282
 5114POPC   NC364487   2.333  28.937   5.546
 5114POPC   PO464488   2.172  29.623   5.452
 5114POPC   GL164489   2.073  29.342   5.792
 5114POPC   GL264490   1.701  29.361   5.862
 5114POPC   C1A64491   2.173  29.122   6.180
 5114POPC   D2A64492   2.338  29.018   6.587
 5114POPC   C3A64493   2.268  29.183   6.999
 5114POPC   C4A64494   2.386  28.864   7.311
 5114POPC   C1B64495   1.679  28.994   6.133
 5114POPC   C2B64496   1.861  28.806   6.511
 5114POPC   C3B64497   1.995  28.759   6.931
 5114POPC   C4B64498   1.848  28.928   7.326
 5115POPC   NC364499  32.509  43.744   5.500
 5115POPC   PO464500  31.982  44.148   5.491
 5115POPC   GL164501  32.211  44.051   5.875
 5115POPC   GL264502  32.260  43.730   5.949
 5115POPC   C1A64503  32.246  44.021   6.347
 5115POPC   D2A64504  31.878  44.039   6.623
 5115POPC   C3A64505  31.984  43.862   7.018
 5115POPC   C4A64506  32.365  44.117   7.108
 5115POPC   C1B64507  32.584  43.582   6.190
 5115POPC   C2B64508  32.751  43.638   6.577
 5115POPC   C3B64509  32.610  43.697   6.958
 5115POPC   C4B64510  32.372  43.652   7.320
 5116POPC   NC364511   9.841  34.272   5.489
 5116POPC   PO464512   9.541  34.934   5.398
 5116POPC   GL164513   9.531  34.710   5.780
 5116POPC   GL264514   9.874  34.664   5.833
 5116POPC   C1A64515   9.570  34.875   6.214
 5116POPC   D2A64516   9.833  34.788   6.576
 5116POPC   C3A64517   9.598  34.570   6.883
 5116POPC   C4A64518   9.564  34.586   7.321
 5116POPC   C1B64519   9.771  34.399   6.186
 5116POPC   C2B64520   9.989  34.287   6.561
 5116POPC   C3B64521   9.955  34.221   6.966
 5116POPC   C4B64522   9.570  34.080   7.177
 5117POPC   NC364523  16.247  42.181   5.622
 5117POPC   PO464524  16.801  42.548   5.374
 5117POPC   GL164525  16.967  42.491   5.809
 5117POPC   GL264526  16.730  42.247   5.887
 5117POPC   C1A64527  17.003  42.367   6.281
 5117POPC   D2A64528  16.778  42.179   6.648
 5117POPC   C3A64529  16.662  42.408   6.993
 5117POPC   C4A64530  16.951  42.722   7.138
 5117POPC   C1B64531  16.506  42.043   6.229
 5117POPC   C2B64532  16.364  41.866   6.623
 5117POPC   C3B64533  16.401  41.974   7.062
 5117POPC   C4B64534  16.322  42.187   7.425
 5118POPC   NC364535   0.679  29.438   4.953
 5118POPC   PO464536   0.274  29.164   5.424
 5118POPC   GL164537   0.500  29.255   5.760
 5118POPC   GL264538   0.295  29.491   5.864
 5118POPC   C1A64539   0.520  29.194   6.208
 5118POPC   D2A64540   0.395  28.989   6.575
 5118POPC   C3A64541   0.480  29.277   6.900
 5118POPC   C4A64542   0.401  28.974   7.187
 5118POPC   C1B64543  44.990  29.449   6.174
 5118POPC   C2B64544   0.023  29.333   6.579
 5118POPC   C3B64545   0.012  29.445   7.012
 5118POPC   C4B64546   0.232  29.397   7.391
 5119POPC   NC364547  40.271  32.488   5.022
 5119POPC   PO464548  39.780  32.266   5.379
 5119POPC   GL164549  39.795  32.360   5.784
 5119POPC   GL264550  39.648  32.018   5.834
 5119POPC   C1A64551  40.103  32.404   6.138
 5119POPC   D2A64552  40.379  32.325   6.482
 5119POPC   C3A64553  40.210  32.439   6.873
 5119POPC   C4A64554  39.972  32.324   7.235
 5119POPC   C1B64555  39.634  32.206   6.224
 5119POPC   C2B64556  39.802  32.243   6.599
 5119POPC   C3B64557  39.552  32.243   6.945
 5119POPC   C4B64558  39.485  31.993   7.259
 5120POPC   NC364559   1.284  14.028   5.368
 5120POPC   PO464560   1.553  13.457   5.412
 5120POPC   GL164561   1.432  13.436   5.792
 5120POPC   GL264562   1.136  13.612   5.794
 5120POPC   C1A64563   1.420  13.667   6.189
 5120POPC   D2A64564   1.134  13.636   6.506
 5120POPC   C3A64565   1.289  13.817   6.824
 5120POPC   C4A64566   1.419  13.599   7.197
 5120POPC   C1B64567   0.835  13.435   6.140
 5120POPC   C2B64568   0.669  13.401   6.578
 5120POPC   C3B64569   0.846  13.598   6.967
 5120POPC   C4B64570   0.942  13.694   7.418
 5121POPC   NC364571   1.103   8.507   5.563
 5121POPC   PO464572   1.530   7.966   5.555
 5121POPC   GL164573   1.356   8.142   5.904
 5121POPC   GL264574   1.465   8.459   5.923
 5121POPC   C1A64575   1.343   8.188   6.363
 5121POPC   D2A64576   1.100   7.945   6.638
 5121POPC   C3A64577   1.076   8.020   7.078
 5121POPC   C4A64578   0.954   7.832   7.468
 5121POPC   C1B64579   1.511   8.662   6.281
 5121POPC   C2B64580   1.649   8.579   6.653
 5121POPC   C3B64581   1.414   8.382   6.931
 5121POPC   C4B64582   1.095   8.542   7.169
 5122POPC   NC364583  34.617  36.616   5.153
 5122POPC   PO464584  34.845  37.039   5.693
 5122POPC   GL164585  34.832  36.921   6.085
 5122POPC   GL264586  34.472  36.862   6.024
 5122POPC   C1A64587  34.679  36.933   6.523
 5122POPC   D2A64588  34.301  36.770   6.685
 5122POPC   C3A64589  34.285  36.845   7.120
 5122POPC   C4A64590  34.518  36.694   7.416
 5122POPC   C1B64591  34.580  36.504   6.274
 5122POPC   C2B64592  34.810  36.374   6.593
 5122POPC   C3B64593  34.736  36.567   6.946
 5122POPC   C4B64594  34.868  36.949   7.028
 5123POPC   NC364595   6.101  10.868   5.403
 5123POPC   PO464596   5.660  10.413   5.386
 5123POPC   GL164597   5.887  10.386   5.785
 5123POPC   GL264598   6.047  10.685   5.874
 5123POPC   C1A64599   5.789  10.340   6.225
 5123POPC   D2A64600   5.908  10.470   6.630
 5123POPC   C3A64601   5.638  10.600   6.956
 5123POPC   C4A64602   5.885  10.410   7.261
 5123POPC   C1B64603   5.941  10.865   6.266
 5123POPC   C2B64604   5.786  10.993   6.647
 5123POPC   C3B64605   6.064  10.947   6.990
 5123POPC   C4B64606   6.055  10.853   7.439
 5124POPC   NC364607  42.702  17.498   5.369
 5124POPC   PO464608  43.361  17.449   5.518
 5124POPC   GL164609  43.000  17.431   5.777
 5124POPC   GL264610  42.934  17.124   5.719
 5124POPC   C1A64611  42.848  17.502   6.200
 5124POPC   D2A64612  43.082  17.765   6.513
 5124POPC   C3A64613  43.106  17.630   6.938
 5124POPC   C4A64614  43.206  17.809   7.326
 5124POPC   C1B64615  43.188  17.100   6.135
 5124POPC   C2B64616  43.140  17.257   6.558
 5124POPC   C3B64617  43.036  17.089   6.949
 5124POPC   C4B64618  43.072  17.284   7.343
 5125POPC   NC364619  21.072  40.006   5.362
 5125POPC   PO464620  21.676  40.157   5.155
 5125POPC   GL164621  21.510  39.965   5.625
 5125POPC   GL264622  21.243  40.163   5.814
 5125POPC   C1A64623  21.515  39.838   6.124
 5125POPC   D2A64624  21.513  39.996   6.613
 5125POPC   C3A64625  21.286  39.782   6.983
 5125POPC   C4A64626  21.339  39.598   7.416
 5125POPC   C1B64627  21.265  40.271   6.255
 5125POPC   C2B64628  21.111  40.369   6.675
 5125POPC   C3B64629  21.202  40.305   7.103
 5125POPC   C4B64630  21.188  40.067   7.459
 5126POPC   NC364631  27.955   6.460   5.580
 5126POPC   PO464632  28.496   6.511   5.223
 5126POPC   GL164633  28.482   6.593   5.696
 5126POPC   GL264634  28.466   6.313   5.930
 5126POPC   C1A64635  28.507   6.759   6.160
 5126POPC   D2A64636  28.393   6.974   6.565
 5126POPC   C3A64637  28.616   6.932   6.931
 5126POPC   C4A64638  28.522   6.651   7.239
 5126POPC   C1B64639  28.187   6.355   6.263
 5126POPC   C2B64640  28.094   6.548   6.653
 5126POPC   C3B64641  28.164   6.368   7.048
 5126POPC   C4B64642  27.917   6.282   7.375
 5127POPC   NC364643  29.791  37.686   5.409
 5127POPC   PO464644  30.245  38.213   5.397
 5127POPC   GL164645  30.143  37.854   5.737
 5127POPC   GL264646  29.791  37.801   5.895
 5127POPC   C1A64647  30.227  37.572   6.109
 5127POPC   D2A64648  30.346  37.754   6.500
 5127POPC   C3A64649  30.410  37.578   6.889
 5127POPC   C4A64650  30.201  37.773   7.187
 5127POPC   C1B64651  29.760  37.691   6.316
 5127POPC   C2B64652  29.908  37.462   6.663
 5127POPC   C3B64653  29.700  37.559   7.049
 5127POPC   C4B64654  29.740  37.833   7.402
 5128POPC   NC364655   5.263  15.311   5.357
 5128POPC   PO464656   4.702  15.165   5.674
 5128POPC   GL164657   4.988  15.086   5.976
 5128POPC   GL264658   5.293  15.030   5.788
 5128POPC   C1A64659   4.991  15.417   6.259
 5128POPC   D2A64660   4.983  15.661   6.574
 5128POPC   C3A64661   4.898  15.346   6.849
 5128POPC   C4A64662   4.744  15.391   7.244
 5128POPC   C1B64663   5.472  15.269   6.132
 5128POPC   C2B64664   5.453  15.413   6.541
 5128POPC   C3B64665   5.416  15.171   6.886
 5128POPC   C4B64666   5.187  15.153   7.230
 5129POPC   NC364667  34.180   9.765   5.386
 5129POPC   PO464668  33.575   9.986   5.132
 5129POPC   GL164669  33.739  10.019   5.649
 5129POPC   GL264670  33.996   9.774   5.847
 5129POPC   C1A64671  33.761  10.063   6.166
 5129POPC   D2A64672  33.859   9.821   6.548
 5129POPC   C3A64673  33.536   9.744   6.867
 5129POPC   C4A64674  33.678   9.907   7.239
 5129POPC   C1B64675  33.758   9.488   6.155
 5129POPC   C2B64676  33.763   9.314   6.596
 5129POPC   C3B64677  33.982   9.516   6.989
 5129POPC   C4B64678  33.902   9.499   7.438
 5130POPC   NC364679   3.621  37.122   5.329
 5130POPC   PO464680   3.450  36.505   5.582
 5130POPC   GL164681   3.545  36.806   5.907
 5130POPC   GL264682   3.753  37.078   5.833
 5130POPC   C1A64683   3.585  36.855   6.372
 5130POPC   D2A64684   3.810  36.637   6.726
 5130POPC   C3A64685   3.619  36.715   7.149
 5130POPC   C4A64686   3.328  36.869   7.483
 5130POPC   C1B64687   3.809  37.305   6.217
 5130POPC   C2B64688   3.906  37.191   6.655
 5130POPC   C3B64689   3.737  37.267   7.071
 5130POPC   C4B64690   3.808  37.065   7.477
 5131POPC   NC364691  33.652  21.394   5.059
 5131POPC   PO464692  34.098  21.081   5.435
 5131POPC   GL164693  34.010  21.334   5.787
 5131POPC   GL264694  33.665  21.482   5.723
 5131POPC   C1A64695  33.961  21.289   6.244
 5131POPC   D2A64696  33.759  20.976   6.510
 5131POPC   C3A64697  33.585  21.100   6.940
 5131POPC   C4A64698  33.785  21.199   7.318
 5131POPC   C1B64699  33.531  21.583   6.147
 5131POPC   C2B64700  33.517  21.467   6.594
 5131POPC   C3B64701  33.681  21.613   7.039
 5131POPC   C4B64702  33.557  21.760   7.493
 5132POPC   NC364703  40.688  36.399   5.296
 5132POPC   PO464704  40.559  37.088   5.406
 5132POPC   GL164705  40.636  37.083   5.841
 5132POPC   GL264706  40.982  37.047   5.846
 5132POPC   C1A64707  40.629  36.796   6.208
 5132POPC   D2A64708  40.516  36.492   6.544
 5132POPC   C3A64709  40.456  36.690   6.963
 5132POPC   C4A64710  40.676  36.646   7.348
 5132POPC   C1B64711  41.142  36.903   6.247
 5132POPC   C2B64712  40.962  36.783   6.633
 5132POPC   C3B64713  40.940  36.957   7.024
 5132POPC   C4B64714  41.138  36.880   7.422
 5133POPC   NC364715  14.628  11.694   5.034
 5133POPC   PO464716  14.293  11.241   5.365
 5133POPC   GL164717  14.128  11.231   5.790
 5133POPC   GL264718  14.391  11.077   6.001
 5133POPC   C1A64719  14.135  11.453   6.210
 5133POPC   D2A64720  14.285  11.384   6.643
 5133POPC   C3A64721  14.012  11.589   6.939
 5133POPC   C4A64722  14.075  11.770   7.347
 5133POPC   C1B64723  14.677  11.263   6.300
 5133POPC   C2B64724  14.894  11.213   6.683
 5133POPC   C3B64725  14.690  11.124   7.020
 5133POPC   C4B64726  14.424  11.391   7.162
 5134POPC   NC364727  11.532  31.680   5.311
 5134POPC   PO464728  10.986  31.286   5.242
 5134POPC   GL164729  11.262  31.332   5.580
 5134POPC   GL264730  11.219  31.687   5.727
 5134POPC   C1A64731  11.303  31.258   6.011
 5134POPC   D2A64732  11.226  31.186   6.460
 5134POPC   C3A64733  11.494  31.293   6.822
 5134POPC   C4A64734  11.464  31.283   7.245
 5134POPC   C1B64735  11.388  31.733   6.174
 5134POPC   C2B64736  11.266  31.690   6.613
 5134POPC   C3B64737  11.321  31.726   7.082
 5134POPC   C4B64738  11.300  31.693   7.534
 5135POPC   NC364739  30.034  38.513   5.089
 5135POPC   PO464740  30.700  38.586   5.378
 5135POPC   GL164741  30.705  38.680   5.787
 5135POPC   GL264742  30.476  38.374   5.856
 5135POPC   C1A64743  30.525  38.827   6.185
 5135POPC   D2A64744  30.578  39.044   6.568
 5135POPC   C3A64745  30.510  38.765   6.899
 5135POPC   C4A64746  30.799  38.740   7.204
 5135POPC   C1B64747  30.781  38.370   6.171
 5135POPC   C2B64748  30.591  38.341   6.549
 5135POPC   C3B64749  30.483  38.108   6.886
 5135POPC   C4B64750  30.470  38.343   7.257
 5136POPC   NC364751   0.914   4.625   5.418
 5136POPC   PO464752   1.071   5.333   5.278
 5136POPC   GL164753   1.153   5.064   5.655
 5136POPC   GL264754   0.936   5.257   5.890
 5136POPC   C1A64755   1.148   4.796   6.070
 5136POPC   D2A64756   0.953   4.976   6.468
 5136POPC   C3A64757   1.113   4.937   6.890
 5136POPC   C4A64758   0.918   4.891   7.298
 5136POPC   C1B64759   1.299   5.272   6.134
 5136POPC   C2B64760   1.353   5.404   6.522
 5136POPC   C3B64761   1.479   5.311   6.919
 5136POPC   C4B64762   1.158   5.329   7.224
 5137POPC   NC364763  34.794  26.442   5.239
 5137POPC   PO464764  34.610  27.046   5.101
 5137POPC   GL164765  34.649  26.890   5.541
 5137POPC   GL264766  34.635  27.179   5.788
 5137POPC   C1A64767  34.668  26.712   5.986
 5137POPC   D2A64768  34.732  26.990   6.399
 5137POPC   C3A64769  34.532  26.847   6.813
 5137POPC   C4A64770  34.592  26.645   7.196
 5137POPC   C1B64771  34.260  27.013   5.979
 5137POPC   C2B64772  34.232  26.932   6.378
 5137POPC   C3B64773  34.255  27.245   6.693
 5137POPC   C4B64774  34.198  27.227   7.135
 5138POPC   NC364775  13.914  43.397   5.496
 5138POPC   PO464776  13.323  43.094   5.431
 5138POPC   GL164777  13.617  43.049   5.756
 5138POPC   GL264778  13.521  43.376   5.849
 5138POPC   C1A64779  13.895  43.168   6.134
 5138POPC   D2A64780  13.786  42.995   6.530
 5138POPC   C3A64781  13.805  43.120   6.946
 5138POPC   C4A64782  13.963  42.980   7.335
 5138POPC   C1B64783  13.394  43.178   6.219
 5138POPC   C2B64784  13.239  43.108   6.607
 5138POPC   C3B64785  13.317  43.264   7.000
 5138POPC   C4B64786  13.450  43.025   7.337
 5139POPC   NC364787  17.032  17.599   5.349
 5139POPC   PO464788  17.587  17.174   5.210
 5139POPC   GL164789  17.459  17.399   5.695
 5139POPC   GL264790  17.734  17.329   6.041
 5139POPC   C1A64791  17.491  17.744   6.045
 5139POPC   D2A64792  17.591  17.579   6.470
 5139POPC   C3A64793  17.688  17.844   6.811
 5139POPC   C4A64794  17.575  17.632   7.205
 5139POPC   C1B64795  17.345  17.202   6.176
 5139POPC   C2B64796  17.186  17.047   6.540
 5139POPC   C3B64797  17.163  17.256   6.897
 5139POPC   C4B64798  17.383  17.173   7.269
 5140POPC   NC364799  24.076  36.342   5.695
 5140POPC   PO464800  24.500  35.978   5.243
 5140POPC   GL164801  24.443  35.990   5.716
 5140POPC   GL264802  24.157  35.841   5.884
 5140POPC   C1A64803  24.446  36.157   6.205
 5140POPC   D2A64804  24.632  36.150   6.653
 5140POPC   C3A64805  24.511  36.211   7.099
 5140POPC   C4A64806  24.249  36.270   7.502
 5140POPC   C1B64807  24.171  35.762   6.348
 5140POPC   C2B64808  24.149  35.961   6.728
 5140POPC   C3B64809  24.104  35.923   7.141
 5140POPC   C4B64810  24.143  35.538   7.314
 5141POPC   NC364811  25.243   1.533   5.143
 5141POPC   PO464812  25.156   0.953   5.439
 5141POPC   GL164813  25.274   1.049   5.848
 5141POPC   GL264814  25.371   1.400   5.854
 5141POPC   C1A64815  25.324   0.937   6.269
 5141POPC   D2A64816  25.418   0.679   6.646
 5141POPC   C3A64817  25.181   0.848   6.946
 5141POPC   C4A64818  25.364   1.162   7.192
 5141POPC   C1B64819  25.225   1.579   6.265
 5141POPC   C2B64820  25.347   1.581   6.713
 5141POPC   C3B64821  25.254   1.644   7.163
 5141POPC   C4B64822  25.418   1.536   7.592
 5142POPC   NC364823  41.726  33.367   5.422
 5142POPC   PO464824  41.347  32.776   5.375
 5142POPC   GL164825  41.479  32.795   5.803
 5142POPC   GL264826  41.517  33.102   5.780
 5142POPC   C1A64827  41.522  32.788   6.239
 5142POPC   D2A64828  41.429  32.542   6.600
 5142POPC   C3A64829  41.579  32.780   6.958
 5142POPC   C4A64830  41.948  32.962   7.159
 5142POPC   C1B64831  41.689  33.278   6.117
 5142POPC   C2B64832  41.589  33.226   6.536
 5142POPC   C3B64833  41.640  33.310   6.949
 5142POPC   C4B64834  41.396  33.366   7.295
 5143POPC   NC364835  44.625  28.116   5.319
 5143POPC   PO464836  44.945  28.627   5.635
 5143POPC   GL164837  44.671  28.396   5.843
 5143POPC   GL264838  44.759  28.065   5.812
 5143POPC   C1A64839  44.510  28.509   6.236
 5143POPC   D2A64840  44.651  28.376   6.616
 5143POPC   C3A64841  44.482  28.560   6.971
 5143POPC   C4A64842  44.627  28.633   7.367
 5143POPC   C1B64843  44.612  28.002   6.224
 5143POPC   C2B64844  44.416  27.935   6.629
 5143POPC   C3B64845  44.547  28.042   7.029
 5143POPC   C4B64846  44.370  28.210   7.424
 5144POPC   NC364847   9.689  24.826   5.395
 5144POPC   PO464848   9.955  24.186   5.338
 5144POPC   GL164849   9.685  24.348   5.734
 5144POPC   GL264850   9.824  24.660   5.866
 5144POPC   C1A64851   9.623  24.376   6.237
 5144POPC   D2A64852   9.894  24.291   6.629
 5144POPC   C3A64853   9.740  24.341   7.067
 5144POPC   C4A64854   9.929  24.178   7.453
 5144POPC   C1B64855   9.818  24.883   6.272
 5144POPC   C2B64856   9.756  24.781   6.720
 5144POPC   C3B64857   9.968  24.805   7.125
 5144POPC   C4B64858   9.819  24.676   7.542
 5145POPC   NC364859  29.957  10.746   5.422
 5145POPC   PO464860  30.428  10.216   5.333
 5145POPC   GL164861  30.284  10.475   5.697
 5145POPC   GL264862  29.948  10.341   5.795
 5145POPC   C1A64863  30.236  10.641   6.125
 5145POPC   D2A64864  30.073  10.393   6.466
 5145POPC   C3A64865  30.201  10.523   6.876
 5145POPC   C4A64866  30.352  10.489   7.276
 5145POPC   C1B64867  29.714  10.541   6.144
 5145POPC   C2B64868  29.473  10.627   6.541
 5145POPC   C3B64869  29.526  10.684   6.962
 5145POPC   C4B64870  29.555  10.800   7.394
 5146POPC   NC364871  35.463  17.588   5.402
 5146POPC   PO464872  34.973  17.924   5.642
 5146POPC   GL164873  35.180  17.513   5.825
 5146POPC   GL264874  35.177  17.184   5.726
 5146POPC   C1A64875  35.437  17.303   6.176
 5146POPC   D2A64876  35.506  17.498   6.603
 5146POPC   C3A64877  35.487  17.309   7.026
 5146POPC   C4A64878  35.502  17.384   7.500
 5146POPC   C1B64879  34.978  17.089   6.138
 5146POPC   C2B64880  35.010  17.270   6.548
 5146POPC   C3B64881  34.988  17.210   6.976
 5146POPC   C4B64882  35.050  17.498   7.317
 5147POPC   NC364883   4.781  43.309   5.434
 5147POPC   PO464884   4.354  42.784   5.533
 5147POPC   GL164885   4.501  43.095   5.802
 5147POPC   GL264886   4.785  42.915   5.862
 5147POPC   C1A64887   4.593  43.264   6.202
 5147POPC   D2A64888   4.687  43.048   6.597
 5147POPC   C3A64889   4.315  43.107   6.831
 5147POPC   C4A64890   4.284  43.388   7.158
 5147POPC   C1B64891   4.495  42.738   6.210
 5147POPC   C2B64892   4.390  42.605   6.649
 5147POPC   C3B64893   4.417  42.705   7.119
 5147POPC   C4B64894   4.296  42.697   7.550
 5148POPC   NC364895  23.869   9.822   5.370
 5148POPC   PO464896  23.394  10.007   5.741
 5148POPC   GL164897  23.815   9.872   5.898
 5148POPC   GL264898  23.884   9.529   5.864
 5148POPC   C1A64899  23.889   9.867   6.348
 5148POPC   D2A64900  23.821  10.061   6.757
 5148POPC   C3A64901  23.440   9.874   6.979
 5148POPC   C4A64902  23.526   9.779   7.421
 5148POPC   C1B64903  24.029   9.385   6.264
 5148POPC   C2B64904  23.859   9.477   6.681
 5148POPC   C3B64905  23.900   9.656   7.084
 5148POPC   C4B64906  23.960   9.514   7.481
 5149POPC   NC364907   8.210  24.228   5.276
 5149POPC   PO464908   8.500  24.710   5.563
 5149POPC   GL164909   8.241  24.455   5.781
 5149POPC   GL264910   8.387  24.124   5.785
 5149POPC   C1A64911   8.206  24.605   6.188
 5149POPC   D2A64912   8.335  24.877   6.485
 5149POPC   C3A64913   8.179  24.708   6.857
 5149POPC   C4A64914   8.269  24.812   7.240
 5149POPC   C1B64915   8.569  24.222   6.190
 5149POPC   C2B64916   8.454  24.371   6.594
 5149POPC   C3B64917   8.420  24.287   7.041
 5149POPC   C4B64918   8.057  24.331   7.248
 5150POPC   NC364919  27.292  16.101   5.396
 5150POPC   PO464920  26.626  15.997   5.548
 5150POPC   GL164921  26.964  15.881   5.799
 5150POPC   GL264922  27.106  16.205   5.853
 5150POPC   C1A64923  26.831  15.848   6.229
 5150POPC   D2A64924  26.614  15.995   6.593
 5150POPC   C3A64925  26.789  15.865   6.978
 5150POPC   C4A64926  26.702  16.149   7.315
 5150POPC   C1B64927  27.238  16.160   6.249
 5150POPC   C2B64928  27.073  16.222   6.645
 5150POPC   C3B64929  27.167  16.193   7.087
 5150POPC   C4B64930  27.139  15.882   7.434
 5151POPC   NC364931  34.794  40.047   5.416
 5151POPC   PO464932  34.802  39.414   5.297
 5151POPC   GL164933  34.813  39.643   5.741
 5151POPC   GL264934  34.480  39.739   5.861
 5151POPC   C1A64935  34.830  39.989   6.102
 5151POPC   D2A64936  34.510  39.991   6.423
 5151POPC   C3A64937  34.674  40.063   6.839
 5151POPC   C4A64938  34.760  40.401   7.121
 5151POPC   C1B64939  34.676  39.520   6.244
 5151POPC   C2B64940  34.559  39.533   6.687
 5151POPC   C3B64941  34.335  39.742   7.025
 5151POPC   C4B64942  34.581  39.947   7.350
 5152POPC   NC364943   8.912  12.312   5.472
 5152POPC   PO464944   9.390  11.863   5.569
 5152POPC   GL164945   9.027  11.901   5.815
 5152POPC   GL264946   9.064  12.246   5.948
 5152POPC   C1A64947   8.925  11.847   6.249
 5152POPC   D2A64948   9.055  12.093   6.590
 5152POPC   C3A64949   8.865  12.146   6.999
 5152POPC   C4A64950   8.790  11.801   7.263
 5152POPC   C1B64951   8.804  12.417   6.259
 5152POPC   C2B64952   8.988  12.587   6.629
 5152POPC   C3B64953   9.298  12.438   6.914
 5152POPC   C4B64954   9.364  12.063   7.198
 5153POPC   NC364955  12.937  21.912   5.511
 5153POPC   PO464956  12.685  21.287   5.707
 5153POPC   GL164957  12.642  21.555   6.029
 5153POPC   GL264958  12.958  21.677   5.953
 5153POPC   C1A64959  12.819  21.516   6.439
 5153POPC   D2A64960  13.176  21.317   6.586
 5153POPC   C3A64961  13.098  21.167   7.037
 5153POPC   C4A64962  12.665  21.323   7.180
 5153POPC   C1B64963  13.006  21.955   6.284
 5153POPC   C2B64964  12.959  22.007   6.688
 5153POPC   C3B64965  13.035  21.669   6.966
 5153POPC   C4B64966  12.970  21.675   7.434
 5154POPC   NC364967  32.482   9.258   5.696
 5154POPC   PO464968  32.122   8.769   5.454
 5154POPC   GL164969  32.150   8.871   5.860
 5154POPC   GL264970  32.512   8.766   5.890
 5154POPC   C1A64971  32.091   9.121   6.238
 5154POPC   D2A64972  32.266   9.106   6.653
 5154POPC   C3A64973  32.054   9.051   7.026
 5154POPC   C4A64974  32.191   9.155   7.433
 5154POPC   C1B64975  32.419   8.741   6.320
 5154POPC   C2B64976  32.528   8.614   6.715
 5154POPC   C3B64977  32.417   8.699   7.119
 5154POPC   C4B64978  32.449   8.725   7.535
 5155POPC   NC364979  16.128  37.363   5.549
 5155POPC   PO464980  16.192  36.638   5.540
 5155POPC   GL164981  16.036  36.957   5.829
 5155POPC   GL264982  15.722  36.957   5.879
 5155POPC   C1A64983  16.003  37.151   6.243
 5155POPC   D2A64984  16.018  36.906   6.596
 5155POPC   C3A64985  16.164  37.055   6.964
 5155POPC   C4A64986  16.199  37.173   7.357
 5155POPC   C1B64987  15.693  36.688   6.225
 5155POPC   C2B64988  15.570  36.693   6.660
 5155POPC   C3B64989  15.882  36.563   6.981
 5155POPC   C4B64990  15.908  36.772   7.350
 5156POPC   NC364991  11.478  10.352   5.304
 5156POPC   PO464992  11.716   9.722   5.354
 5156POPC   GL164993  11.498   9.908   5.725
 5156POPC   GL264994  11.631  10.237   5.773
 5156POPC   C1A64995  11.231   9.803   6.109
 5156POPC   D2A64996  11.225   9.568   6.518
 5156POPC   C3A64997  11.221   9.726   6.955
 5156POPC   C4A64998  11.297   9.535   7.377
 5156POPC   C1B64999  11.474  10.241   6.171
 5156POPC   C2B65000  11.431  10.046   6.551
 5156POPC   C3B65001  11.676  10.067   6.915
 5156POPC   C4B65002  11.522  10.005   7.326
 5157POPC   NC365003  12.142  23.246   5.356
 5157POPC   PO465004  11.896  22.624   5.430
 5157POPC   GL165005  12.098  22.740   5.830
 5157POPC   GL265006  12.102  23.091   5.837
 5157POPC   C1A65007  12.287  22.712   6.217
 5157POPC   D2A65008  12.072  22.827   6.569
 5157POPC   C3A65009  12.268  22.721   6.893
 5157POPC   C4A65010  12.077  22.625   7.240
 5157POPC   C1B65011  12.205  23.223   6.240
 5157POPC   C2B65012  12.088  23.332   6.658
 5157POPC   C3B65013  11.976  23.126   7.036
 5157POPC   C4B65014  12.231  23.063   7.414
 5158POPC   NC365015  43.674  14.577   5.522
 5158POPC   PO465016  44.300  14.336   5.381
 5158POPC   GL165017  44.035  14.275   5.732
 5158POPC   GL265018  44.033  14.619   5.874
 5158POPC   C1A65019  43.973  14.148   6.152
 5158POPC   D2A65020  43.857  14.174   6.583
 5158POPC   C3A65021  44.072  14.073   6.930
 5158POPC   C4A65022  44.001  14.185   7.358
 5158POPC   C1B65023  43.757  14.638   6.246
 5158POPC   C2B65024  43.518  14.584   6.636
 5158POPC   C3B65025  43.720  14.505   7.002
 5158POPC   C4B65026  43.985  14.752   7.250
 5159POPC   NC365027   1.566  39.395   5.096
 5159POPC   PO465028   2.039  39.102   5.538
 5159POPC   GL165029   2.067  39.411   5.863
 5159POPC   GL265030   1.786  39.399   5.972
 5159POPC   C1A65031   2.198  39.497   6.274
 5159POPC   D2A65032   2.186  39.265   6.652
 5159POPC   C3A65033   1.949  39.383   6.993
 5159POPC   C4A65034   2.144  39.218   7.326
 5159POPC   C1B65035   1.926  39.043   6.244
 5159POPC   C2B65036   1.731  39.011   6.668
 5159POPC   C3B65037   1.841  38.872   7.071
 5159POPC   C4B65038   1.770  38.942   7.516
 5160POPC   NC365039  44.539   1.705   5.583
 5160POPC   PO465040  44.799   2.338   5.391
 5160POPC   GL165041  44.664   2.176   5.769
 5160POPC   GL265042  44.294   2.119   5.825
 5160POPC   C1A65043  44.680   1.982   6.166
 5160POPC   D2A65044  44.466   2.082   6.525
 5160POPC   C3A65045  44.775   1.990   6.813
 5160POPC   C4A65046  44.775   1.971   7.233
 5160POPC   C1B65047  44.198   1.755   6.136
 5160POPC   C2B65048  44.142   1.622   6.561
 5160POPC   C3B65049  44.298   1.806   6.935
 5160POPC   C4B65050  44.383   1.617   7.330
 5161POPC   NC365051  11.038   7.947   5.482
 5161POPC   PO465052  11.582   8.349   5.374
 5161POPC   GL165053  11.346   8.276   5.750
 5161POPC   GL265054  11.423   7.939   5.811
 5161POPC   C1A65055  11.286   8.259   6.186
 5161POPC   D2A65056  11.295   8.051   6.605
 5161POPC   C3A65057  11.203   8.233   7.038
 5161POPC   C4A65058  11.496   8.141   7.383
 5161POPC   C1B65059  11.108   7.802   6.152
 5161POPC   C2B65060  10.981   7.645   6.566
 5161POPC   C3B65061  11.151   7.717   6.969
 5161POPC   C4B65062  11.232   7.697   7.374
 5162POPC   NC365063  14.032  12.407   5.029
 5162POPC   PO465064  14.617  12.137   5.209
 5162POPC   GL165065  14.477  11.976   5.664
 5162POPC   GL265066  14.532  11.602   5.650
 5162POPC   C1A65067  14.324  11.975   6.131
 5162POPC   D2A65068  14.463  12.203   6.515
 5162POPC   C3A65069  14.334  12.031   6.931
 5162POPC   C4A65070  14.313  12.245   7.331
 5162POPC   C1B65071  14.738  11.696   6.047
 5162POPC   C2B65072  14.652  11.734   6.493
 5162POPC   C3B65073  14.779  11.762   6.912
 5162POPC   C4B65074  14.608  11.817   7.337
 5163POPC   NC365075   7.990  34.022   5.614
 5163POPC   PO465076   8.601  33.686   5.462
 5163POPC   GL165077   8.411  33.800   5.814
 5163POPC   GL265078   8.470  34.162   5.802
 5163POPC   C1A65079   8.182  33.803   6.211
 5163POPC   D2A65080   7.998  33.952   6.598
 5163POPC   C3A65081   8.201  33.763   6.936
 5163POPC   C4A65082   8.090  33.566   7.292
 5163POPC   C1B65083   8.624  34.053   6.197
 5163POPC   C2B65084   8.537  33.965   6.604
 5163POPC   C3B65085   8.616  34.065   7.024
 5163POPC   C4B65086   8.255  34.082   7.333
 5164POPC   NC365087   5.062  18.673   5.561
 5164POPC   PO465088   5.441  19.233   5.352
 5164POPC   GL165089   5.021  19.218   5.643
 5164POPC   GL265090   4.930  18.970   5.950
 5164POPC   C1A65091   4.937  19.453   6.056
 5164POPC   D2A65092   4.968  19.197   6.447
 5164POPC   C3A65093   4.981  19.322   6.869
 5164POPC   C4A65094   4.845  19.180   7.256
 5164POPC   C1B65095   5.222  18.779   6.226
 5164POPC   C2B65096   5.260  18.789   6.664
 5164POPC   C3B65097   4.985  18.725   7.003
 5164POPC   C4B65098   5.066  18.351   7.302
 5165POPC   NC365099   9.968   0.560   5.370
 5165POPC   PO465100   9.447   0.232   5.483
 5165POPC   GL165101   9.509   0.443   5.814
 5165POPC   GL265102   9.819   0.301   5.866
 5165POPC   C1A65103   9.569   0.550   6.247
 5165POPC   D2A65104   9.633   0.824   6.559
 5165POPC   C3A65105   9.877   0.694   6.891
 5165POPC   C4A65106  10.019   0.394   7.133
 5165POPC   C1B65107   9.718   0.075   6.252
 5165POPC   C2B65108   9.851   0.121   6.687
 5165POPC   C3B65109   9.610   0.106   7.051
 5165POPC   C4B65110   9.251  44.971   7.194
 5166POPC   NC365111   0.145  21.367   5.309
 5166POPC   PO465112   0.746  21.540   5.434
 5166POPC   GL165113   0.467  21.454   5.753
 5166POPC   GL265114   0.154  21.687   5.737
 5166POPC   C1A65115   0.634  21.307   6.151
 5166POPC   D2A65116   0.762  21.103   6.538
 5166POPC   C3A65117   0.672  21.368   6.907
 5166POPC   C4A65118   0.516  21.244   7.301
 5166POPC   C1B65119   0.129  21.511   6.163
 5166POPC   C2B65120   0.232  21.204   6.501
 5166POPC   C3B65121   0.164  21.115   6.943
 5166POPC   C4B65122   0.021  21.442   7.232
 5167POPC   NC365123  24.438  15.702   5.413
 5167POPC   PO465124  24.855  16.189   5.489
 5167POPC   GL165125  24.607  16.001   5.852
 5167POPC   GL265126  24.226  15.949   5.817
 5167POPC   C1A65127  24.584  15.790   6.276
 5167POPC   D2A65128  24.671  15.444   6.616
 5167POPC   C3A65129  24.829  15.644   7.003
 5167POPC   C4A65130  24.824  16.114   7.076
 5167POPC   C1B65131  24.073  15.751   6.212
 5167POPC   C2B65132  24.220  15.717   6.660
 5167POPC   C3B65133  24.259  15.892   7.101
 5167POPC   C4B65134  24.259  16.194   7.464
 5168POPC   NC365135  11.723   2.751   5.474
 5168POPC   PO465136  11.048   2.494   5.607
 5168POPC   GL165137  11.035   2.721   5.955
 5168POPC   GL265138  11.414   2.770   5.928
 5168POPC   C1A65139  11.123   2.953   6.343
 5168POPC   D2A65140  11.442   2.742   6.616
 5168POPC   C3A65141  11.248   2.667   7.018
 5168POPC   C4A65142  10.993   2.995   7.217
 5168POPC   C1B65143  11.608   3.079   6.214
 5168POPC   C2B65144  11.565   3.230   6.677
 5168POPC   C3B65145  11.509   3.091   7.155
 5168POPC   C4B65146  11.649   3.101   7.615
 5169POPC   NC365147  38.260  20.440   5.475
 5169POPC   PO465148  38.626  20.913   5.305
 5169POPC   GL165149  38.431  20.843   5.806
 5169POPC   GL265150  38.252  20.514   5.967
 5169POPC   C1A65151  38.500  20.743   6.318
 5169POPC   D2A65152  38.416  20.346   6.574
 5169POPC   C3A65153  38.126  20.360   6.885
 5169POPC   C4A65154  38.147  20.687   7.162
 5169POPC   C1B65155  38.631  20.207   6.138
 5169POPC   C2B65156  38.765  19.954   6.556
 5169POPC   C3B65157  38.705  20.092   6.973
 5169POPC   C4B65158  38.640  20.534   7.078
 5170POPC   NC365159  10.527   4.785   5.558
 5170POPC   PO465160  10.812   5.484   5.522
 5170POPC   GL165161  10.552   5.345   5.869
 5170POPC   GL265162  10.474   4.986   6.000
 5170POPC   C1A65163  10.394   5.403   6.260
 5170POPC   D2A65164  10.399   5.055   6.541
 5170POPC   C3A65165  10.493   5.182   6.951
 5170POPC   C4A65166  10.384   5.389   7.322
 5170POPC   C1B65167  10.749   4.686   6.203
 5170POPC   C2B65168  10.840   4.827   6.625
 5170POPC   C3B65169  10.752   4.751   7.050
 5170POPC   C4B65170  10.514   4.908   7.401
 5171POPC   NC365171   2.115   0.671   5.592
 5171POPC   PO465172   1.811   0.299   5.116
 5171POPC   GL165173   1.813   0.230   5.660
 5171POPC   GL265174   1.550   0.214   5.929
 5171POPC   C1A65175   2.005   0.310   6.124
 5171POPC   D2A65176   1.949   0.213   6.585
 5171POPC   C3A65177   2.020   0.533   6.914
 5171POPC   C4A65178   2.376   0.585   7.207
 5171POPC   C1B65179   1.590   0.530   6.317
 5171POPC   C2B65180   1.480   0.492   6.771
 5171POPC   C3B65181   1.605   0.514   7.212
 5171POPC   C4B65182   1.655   0.363   7.650
 5172POPC   NC365183  21.393   6.151   5.376
 5172POPC   PO465184  20.969   5.597   5.466
 5172POPC   GL165185  21.206   5.852   5.825
 5172POPC   GL265186  21.491   6.141   5.873
 5172POPC   C1A65187  21.223   5.934   6.266
 5172POPC   D2A65188  21.393   5.849   6.661
 5172POPC   C3A65189  21.174   5.927   7.029
 5172POPC   C4A65190  21.298   5.674   7.444
 5172POPC   C1B65191  21.723   5.859   6.143
 5172POPC   C2B65192  21.928   5.785   6.533
 5172POPC   C3B65193  21.803   5.681   6.950
 5172POPC   C4B65194  21.620   5.984   7.227
 5173POPC   NC365195  22.046  33.834   5.406
 5173POPC   PO465196  22.668  33.883   5.651
 5173POPC   GL165197  22.292  33.712   5.870
 5173POPC   GL265198  22.026  33.982   5.903
 5173POPC   C1A65199  22.169  33.748   6.325
 5173POPC   D2A65200  22.193  34.101   6.597
 5173POPC   C3A65201  22.329  33.939   6.968
 5173POPC   C4A65202  22.281  33.621   7.254
 5173POPC   C1B65203  21.763  34.085   6.281
 5173POPC   C2B65204  21.725  34.351   6.627
 5173POPC   C3B65205  21.921  34.282   7.006
 5173POPC   C4B65206  22.057  34.096   7.405
 5174POPC   NC365207  44.969   7.067   4.993
 5174POPC   PO465208   0.541   6.855   5.374
 5174POPC   GL165209   0.382   6.675   5.781
 5174POPC   GL265210   0.138   6.448   5.892
 5174POPC   C1A65211   0.528   6.607   6.218
 5174POPC   D2A65212   0.459   6.790   6.638
 5174POPC   C3A65213   0.502   6.612   7.019
 5174POPC   C4A65214   0.906   6.582   7.161
 5174POPC   C1B65215   0.094   6.850   6.165
 5174POPC   C2B65216  44.976   6.936   6.590
 5174POPC   C3B65217   0.091   7.032   7.036
 5174POPC   C4B65218   0.287   7.042   7.464
 5175POPC   NC365219  13.442  28.901   5.513
 5175POPC   PO465220  13.950  29.298   5.410
 5175POPC   GL165221  13.859  29.060   5.775
 5175POPC   GL265222  13.552  29.265   5.835
 5175POPC   C1A65223  13.670  28.932   6.184
 5175POPC   D2A65224  13.506  28.802   6.584
 5175POPC   C3A65225  13.758  28.753   6.967
 5175POPC   C4A65226  13.343  28.889   7.145
 5175POPC   C1B65227  13.840  29.461   6.112
 5175POPC   C2B65228  13.777  29.435   6.535
 5175POPC   C3B65229  13.646  29.227   6.883
 5175POPC   C4B65230  13.839  29.271   7.279
 5176POPC   NC365231  32.792  34.393   5.363
 5176POPC   PO465232  33.045  35.016   5.417
 5176POPC   GL165233  32.988  34.698   5.776
 5176POPC   GL265234  32.893  34.322   5.854
 5176POPC   C1A65235  33.067  34.647   6.222
 5176POPC   D2A65236  32.834  34.697   6.592
 5176POPC   C3A65237  33.015  34.607   7.013
 5176POPC   C4A65238  33.112  34.824   7.419
 5176POPC   C1B65239  32.783  34.220   6.296
 5176POPC   C2B65240  32.878  34.199   6.696
 5176POPC   C3B65241  32.653  34.247   7.037
 5176POPC   C4B65242  32.823  34.351   7.442
 5177POPC   NC365243  44.962  17.535   5.354
 5177POPC   PO465244  44.305  17.441   5.499
 5177POPC   GL165245  44.608  17.478   5.820
 5177POPC   GL265246  44.595  17.177   6.004
 5177POPC   C1A65247  44.521  17.613   6.245
 5177POPC   D2A65248  44.357  17.477   6.637
 5177POPC   C3A65249  44.466  17.794   6.924
 5177POPC   C4A65250  44.701  17.931   7.249
 5177POPC   C1B65251  44.972  17.377   6.184
 5177POPC   C2B65252  44.912  17.589   6.580
 5177POPC   C3B65253  44.792  17.369   6.918
 5177POPC   C4B65254   0.008  17.347   7.272
 5178POPC   NC365255  29.426  28.885   5.016
 5178POPC   PO465256  29.041  29.340   5.380
 5178POPC   GL165257  28.975  29.369   5.789
 5178POPC   GL265258  29.007  29.000   5.919
 5178POPC   C1A65259  29.191  29.391   6.187
 5178POPC   D2A65260  29.035  29.110   6.488
 5178POPC   C3A65261  29.164  29.232   6.868
 5178POPC   C4A65262  29.020  29.102   7.252
 5178POPC   C1B65263  29.410  28.922   6.195
 5178POPC   C2B65264  29.522  28.935   6.647
 5178POPC   C3B65265  29.483  28.859   7.086
 5178POPC   C4B65266  29.537  28.524   7.389
 5179POPC   NC365267  14.427  42.769   4.933
 5179POPC   PO465268  14.032  42.515   5.405
 5179POPC   GL165269  14.283  42.402   5.782
 5179POPC   GL265270  14.539  42.651   5.882
 5179POPC   C1A65271  14.215  42.212   6.183
 5179POPC   D2A65272  14.334  42.097   6.609
 5179POPC   C3A65273  14.124  42.270   6.991
 5179POPC   C4A65274  14.119  42.330   7.479
 5179POPC   C1B65275  14.581  42.537   6.329
 5179POPC   C2B65276  14.590  42.510   6.784
 5179POPC   C3B65277  14.558  42.430   7.192
 5179POPC   C4B65278  14.578  42.547   7.616
 5180POPC   NC365279  43.025  26.781   5.402
 5180POPC   PO465280  43.627  27.069   5.447
 5180POPC   GL165281  43.378  26.867   5.818
 5180POPC   GL265282  43.219  26.558   5.834
 5180POPC   C1A65283  43.328  26.757   6.291
 5180POPC   D2A65284  43.228  27.096   6.540
 5180POPC   C3A65285  43.163  27.053   6.971
 5180POPC   C4A65286  42.863  27.127   7.245
 5180POPC   C1B65287  42.914  26.439   6.192
 5180POPC   C2B65288  42.949  26.401   6.598
 5180POPC   C3B65289  43.255  26.535   6.861
 5180POPC   C4B65290  43.174  26.635   7.290
 5181POPC   NC365291   8.226   3.867   5.622
 5181POPC   PO465292   8.483   4.425   5.197
 5181POPC   GL165293   8.280   4.372   5.622
 5181POPC   GL265294   8.512   4.274   5.868
 5181POPC   C1A65295   8.053   4.343   6.075
 5181POPC   D2A65296   8.122   4.454   6.502
 5181POPC   C3A65297   8.260   4.276   6.849
 5181POPC   C4A65298   8.167   4.347   7.264
 5181POPC   C1B65299   8.496   4.185   6.305
 5181POPC   C2B65300   8.666   4.011   6.715
 5181POPC   C3B65301   8.522   3.951   7.162
 5181POPC   C4B65302   8.476   4.136   7.595
 5182POPC   NC365303  17.614  36.351   5.532
 5182POPC   PO465304  17.274  35.771   5.554
 5182POPC   GL165305  17.428  36.039   5.901
 5182POPC   GL265306  17.776  36.002   5.901
 5182POPC   C1A65307  17.543  36.139   6.357
 5182POPC   D2A65308  17.361  36.349   6.726
 5182POPC   C3A65309  17.561  36.148   7.093
 5182POPC   C4A65310  17.536  36.134   7.541
 5182POPC   C1B65311  17.870  36.433   6.119
 5182POPC   C2B65312  17.791  36.589   6.551
 5182POPC   C3B65313  17.935  36.512   6.974
 5182POPC   C4B65314  18.093  36.116   7.072
 5183POPC   NC365315   9.546  22.043   5.450
 5183POPC   PO465316   9.791  22.599   5.182
 5183POPC   GL165317   9.780  22.459   5.616
 5183POPC   GL265318   9.625  22.720   5.762
 5183POPC   C1A65319   9.731  22.314   6.072
 5183POPC   D2A65320   9.893  22.325   6.512
 5183POPC   C3A65321   9.749  22.122   6.896
 5183POPC   C4A65322   9.505  21.778   7.060
 5183POPC   C1B65323   9.317  22.630   6.067
 5183POPC   C2B65324   9.415  22.544   6.466
 5183POPC   C3B65325   9.626  22.628   6.840
 5183POPC   C4B65326   9.598  22.447   7.250
 5184POPC   NC365327  40.343  44.125   5.473
 5184POPC   PO465328  40.347  43.504   5.258
 5184POPC   GL165329  40.121  43.714   5.709
 5184POPC   GL265330  40.119  44.089   5.908
 5184POPC   C1A65331  39.885  43.725   6.139
 5184POPC   D2A65332  39.867  43.634   6.592
 5184POPC   C3A65333  40.148  43.361   6.840
 5184POPC   C4A65334  40.214  43.559   7.298
 5184POPC   C1B65335  40.411  43.860   6.138
 5184POPC   C2B65336  40.346  43.645   6.485
 5184POPC   C3B65337  40.572  43.609   6.913
 5184POPC   C4B65338  40.661  43.889   7.278
 5185POPC   NC365339  38.855  28.612   5.444
 5185POPC   PO465340  38.156  28.584   5.527
 5185POPC   GL165341  38.435  28.431   5.816
 5185POPC   GL265342  38.292  28.102   5.807
 5185POPC   C1A65343  38.588  28.595   6.210
 5185POPC   D2A65344  38.772  28.865   6.508
 5185POPC   C3A65345  38.655  28.671   6.894
 5185POPC   C4A65346  38.704  28.322   7.144
 5185POPC   C1B65347  38.229  28.220   6.253
 5185POPC   C2B65348  38.097  28.500   6.565
 5185POPC   C3B65349  38.185  28.424   6.993
 5185POPC   C4B65350  38.286  27.983   7.023
 5186POPC   NC365351   7.790  19.782   5.499
 5186POPC   PO465352   7.186  20.157   5.504
 5186POPC   GL165353   7.422  19.918   5.818
 5186POPC   GL265354   7.386  19.546   5.806
 5186POPC   C1A65355   7.503  19.824   6.256
 5186POPC   D2A65356   7.255  19.731   6.629
 5186POPC   C3A65357   7.491  19.715   6.971
 5186POPC   C4A65358   7.752  19.865   7.258
 5186POPC   C1B65359   7.117  19.455   6.191
 5186POPC   C2B65360   7.038  19.275   6.627
 5186POPC   C3B65361   7.085  19.428   7.057
 5186POPC   C4B65362   7.105  19.819   7.299
 5187POPC   NC365363  11.294  26.482   5.525
 5187POPC   PO465364  10.817  26.820   5.450
 5187POPC   GL165365  10.945  26.744   5.860
 5187POPC   GL265366  11.269  26.891   5.883
 5187POPC   C1A65367  10.967  26.900   6.293
 5187POPC   D2A65368  11.291  26.937   6.612
 5187POPC   C3A65369  11.155  26.801   7.036
 5187POPC   C4A65370  11.152  27.003   7.452
 5187POPC   C1B65371  11.275  26.524   6.195
 5187POPC   C2B65372  11.343  26.424   6.634
 5187POPC   C3B65373  11.629  26.592   6.953
 5187POPC   C4B65374  11.601  26.790   7.354
 5188POPC   NC365375  40.662   4.101   5.200
 5188POPC   PO465376  40.820   4.732   5.437
 5188POPC   GL165377  40.699   4.529   5.781
 5188POPC   GL265378  40.808   4.235   5.674
 5188POPC   C1A65379  40.439   4.535   6.170
 5188POPC   D2A65380  40.382   4.288   6.527
 5188POPC   C3A65381  40.527   4.360   6.920
 5188POPC   C4A65382  40.415   4.449   7.324
 5188POPC   C1B65383  40.694   4.104   6.067
 5188POPC   C2B65384  40.864   4.139   6.443
 5188POPC   C3B65385  40.998   4.114   6.811
 5188POPC   C4B65386  40.876   4.184   7.245
 5189POPC   NC365387   1.030  40.238   5.657
 5189POPC   PO465388   1.281  40.703   5.268
 5189POPC   GL165389   1.239  40.796   5.721
 5189POPC   GL265390   1.391  41.108   5.803
 5189POPC   C1A65391   1.086  40.692   6.162
 5189POPC   D2A65392   1.269  40.554   6.558
 5189POPC   C3A65393   1.049  40.484   6.928
 5189POPC   C4A65394   1.002  40.787   7.246
 5189POPC   C1B65395   1.179  41.200   6.183
 5189POPC   C2B65396   1.082  41.036   6.609
 5189POPC   C3B65397   1.279  41.153   7.002
 5189POPC   C4B65398   1.553  41.166   7.373
 5190POPC   NC365399  37.194   0.045   5.189
 5190POPC   PO465400  37.390  44.459   5.487
 5190POPC   GL165401  37.496  44.503   5.957
 5190POPC   GL265402  37.854  44.392   5.929
 5190POPC   C1A65403  37.405  44.828   6.336
 5190POPC   D2A65404  37.387   0.023   6.767
 5190POPC   C3A65405  37.477  44.750   7.116
 5190POPC   C4A65406  37.515  44.340   7.215
 5190POPC   C1B65407  37.896  44.708   6.242
 5190POPC   C2B65408  37.799  44.717   6.664
 5190POPC   C3B65409  37.952  44.499   6.974
 5190POPC   C4B65410  37.937  44.585   7.385
 5191POPC   NC365411  13.484  16.484   5.429
 5191POPC   PO465412  13.797  17.037   5.615
 5191POPC   GL165413  13.833  16.725   5.898
 5191POPC   GL265414  13.718  16.351   5.857
 5191POPC   C1A65415  13.759  16.931   6.292
 5191POPC   D2A65416  13.439  17.052   6.584
 5191POPC   C3A65417  13.651  17.076   6.940
 5191POPC   C4A65418  13.764  16.817   7.278
 5191POPC   C1B65419  13.667  16.430   6.295
 5191POPC   C2B65420  13.704  16.610   6.715
 5191POPC   C3B65421  13.381  16.571   7.053
 5191POPC   C4B65422  13.513  16.384   7.491
 5192POPC   NC365423  20.719  34.026   5.465
 5192POPC   PO465424  20.807  33.334   5.394
 5192POPC   GL165425  20.518  33.639   5.702
 5192POPC   GL265426  20.850  33.694   5.863
 5192POPC   C1A65427  20.484  33.959   6.089
 5192POPC   D2A65428  20.781  33.834   6.434
 5192POPC   C3A65429  20.736  33.899   6.879
 5192POPC   C4A65430  20.498  34.005   7.252
 5192POPC   C1B65431  21.047  33.451   6.215
 5192POPC   C2B65432  21.043  33.427   6.705
 5192POPC   C3B65433  20.923  33.531   7.170
 5192POPC   C4B65434  20.969  33.501   7.669
 5193POPC   NC365435  39.393  39.488   5.217
 5193POPC   PO465436  38.958  39.102   5.214
 5193POPC   GL165437  39.119  39.148   5.706
 5193POPC   GL265438  39.352  39.419   5.805
 5193POPC   C1A65439  39.040  39.212   6.197
 5193POPC   D2A65440  38.968  39.281   6.677
 5193POPC   C3A65441  39.290  39.156   6.988
 5193POPC   C4A65442  39.291  39.256   7.453
 5193POPC   C1B65443  39.269  39.659   6.224
 5193POPC   C2B65444  39.292  39.666   6.684
 5193POPC   C3B65445  39.146  39.641   7.138
 5193POPC   C4B65446  39.180  39.726   7.612
 5194POPC   NC365447  16.865   4.388   5.430
 5194POPC   PO465448  16.364   4.033   5.672
 5194POPC   GL165449  16.592   4.356   5.861
 5194POPC   GL265450  16.514   4.692   5.722
 5194POPC   C1A65451  16.905   4.334   6.196
 5194POPC   D2A65452  16.846   4.132   6.591
 5194POPC   C3A65453  17.005   4.270   6.971
 5194POPC   C4A65454  16.922   3.947   7.261
 5194POPC   C1B65455  16.601   4.760   6.172
 5194POPC   C2B65456  16.568   4.545   6.598
 5194POPC   C3B65457  16.641   4.655   7.037
 5194POPC   C4B65458  16.791   4.440   7.412
 5195POPC   NC365459   0.211  32.870   5.139
 5195POPC   PO465460  44.574  32.950   5.393
 5195POPC   GL165461  44.573  33.073   5.808
 5195POPC   GL265462  44.619  32.721   5.864
 5195POPC   C1A65463  44.406  33.304   6.139
 5195POPC   D2A65464  44.171  33.120   6.457
 5195POPC   C3A65465  44.231  33.222   6.877
 5195POPC   C4A65466  44.301  32.993   7.274
 5195POPC   C1B65467  44.593  32.836   6.286
 5195POPC   C2B65468  44.675  33.159   6.581
 5195POPC   C3B65469  44.720  33.033   6.996
 5195POPC   C4B65470  44.793  32.832   7.388
 5196POPC   NC365471   6.803  15.818   5.602
 5196POPC   PO465472   6.288  16.177   5.463
 5196POPC   GL165473   6.452  16.098   5.877
 5196POPC   GL265474   6.797  16.264   5.843
 5196POPC   C1A65475   6.464  15.784   6.233
 5196POPC   D2A65476   6.724  15.753   6.639
 5196POPC   C3A65477   6.652  15.964   7.046
 5196POPC   C4A65478   6.354  16.137   7.378
 5196POPC   C1B65479   6.914  16.085   6.259
 5196POPC   C2B65480   6.869  16.280   6.676
 5196POPC   C3B65481   7.063  16.321   7.064
 5196POPC   C4B65482   7.133  16.292   7.496
 5197POPC   NC365483  10.229  13.311   5.396
 5197POPC   PO465484  10.513  12.733   5.310
 5197POPC   GL165485  10.440  12.769   5.740
 5197POPC   GL265486  10.549  12.460   5.835
 5197POPC   C1A65487  10.709  12.832   6.144
 5197POPC   D2A65488  10.791  12.562   6.517
 5197POPC   C3A65489  10.696  12.794   6.894
 5197POPC   C4A65490  10.765  13.073   7.246
 5197POPC   C1B65491  10.360  12.480   6.224
 5197POPC   C2B65492  10.261  12.704   6.586
 5197POPC   C3B65493  10.289  12.469   6.935
 5197POPC   C4B65494  10.535  12.487   7.309
 5198POPC   NC365495  11.663  13.823   5.184
 5198POPC   PO465496  12.091  13.365   5.261
 5198POPC   GL165497  12.219  13.632   5.673
 5198POPC   GL265498  12.136  13.437   5.918
 5198POPC   C1A65499  12.194  13.843   6.171
 5198POPC   D2A65500  11.829  13.930   6.512
 5198POPC   C3A65501  11.871  13.816   6.988
 5198POPC   C4A65502  12.299  13.845   7.164
 5198POPC   C1B65503  12.278  13.368   6.322
 5198POPC   C2B65504  12.233  13.608   6.678
 5198POPC   C3B65505  12.199  13.346   7.030
 5198POPC   C4B65506  12.402  13.122   7.363
 5199POPC   NC365507  18.578  14.135   5.125
 5199POPC   PO465508  18.257  14.692   5.426
 5199POPC   GL165509  18.282  14.546   5.859
 5199POPC   GL265510  18.172  14.212   5.849
 5199POPC   C1A65511  18.265  14.419   6.309
 5199POPC   D2A65512  18.063  14.146   6.577
 5199POPC   C3A65513  18.237  14.223   6.964
 5199POPC   C4A65514  18.240  14.500   7.294
 5199POPC   C1B65515  18.418  13.939   6.180
 5199POPC   C2B65516  18.594  14.082   6.554
 5199POPC   C3B65517  18.766  14.010   6.923
 5199POPC   C4B65518  18.663  14.175   7.275
 5200POPC   NC365519  22.319   5.473   5.473
 5200POPC   PO465520  21.790   5.927   5.283
 5200POPC   GL165521  22.003   5.960   5.716
 5200POPC   GL265522  22.319   6.168   5.761
 5200POPC   C1A65523  22.246   5.765   6.091
 5200POPC   D2A65524  22.437   5.959   6.463
 5200POPC   C3A65525  22.332   5.796   6.879
 5200POPC   C4A65526  22.412   5.816   7.325
 5200POPC   C1B65527  22.086   6.246   6.152
 5200POPC   C2B65528  22.100   6.293   6.571
 5200POPC   C3B65529  22.006   6.169   6.969
 5200POPC   C4B65530  22.021   6.185   7.444
 5201POPC   NC365531  22.179  31.746   5.374
 5201POPC   PO465532  22.209  32.441   5.448
 5201POPC   GL165533  22.170  32.145   5.785
 5201POPC   GL265534  21.853  31.972   5.729
 5201POPC   C1A65535  22.129  32.321   6.210
 5201POPC   D2A65536  22.112  32.667   6.511
 5201POPC   C3A65537  22.248  32.457   6.889
 5201POPC   C4A65538  22.130  32.284   7.281
 5201POPC   C1B65539  21.945  31.825   6.163
 5201POPC   C2B65540  22.130  31.908   6.559
 5201POPC   C3B65541  21.893  32.025   6.909
 5201POPC   C4B65542  21.898  31.829   7.303
 5202POPC   NC365543  39.958  35.946   5.364
 5202POPC   PO465544  39.515  36.462   5.559
 5202POPC   GL165545  39.892  36.305   5.813
 5202POPC   GL265546  39.979  35.967   5.864
 5202POPC   C1A65547  40.065  36.242   6.249
 5202POPC   D2A65548  39.896  36.096   6.643
 5202POPC   C3A65549  40.224  36.237   6.900
 5202POPC   C4A65550  40.262  36.217   7.335
 5202POPC   C1B65551  39.925  35.742   6.265
 5202POPC   C2B65552  40.062  35.494   6.642
 5202POPC   C3B65553  40.122  35.762   7.006
 5202POPC   C4B65554  39.804  36.096   7.178
 5203POPC   NC365555  23.063   8.654   5.425
 5203POPC   PO465556  22.855   9.253   5.163
 5203POPC   GL165557  22.988   9.208   5.663
 5203POPC   GL265558  23.078   8.891   5.867
 5203POPC   C1A65559  22.856   9.236   6.141
 5203POPC   D2A65560  22.856   8.937   6.479
 5203POPC   C3A65561  23.033   9.092   6.821
 5203POPC   C4A65562  22.800   9.145   7.143
 5203POPC   C1B65563  22.958   8.567   6.160
 5203POPC   C2B65564  22.883   8.413   6.583
 5203POPC   C3B65565  22.855   8.635   6.992
 5203POPC   C4B65566  23.218   8.819   7.224
 5204POPC   NC365567  13.340  40.783   5.447
 5204POPC   PO465568  12.691  40.720   5.277
 5204POPC   GL165569  12.891  40.853   5.684
 5204POPC   GL265570  13.049  40.530   5.805
 5204POPC   C1A65571  12.898  40.936   6.149
 5204POPC   D2A65572  12.802  41.205   6.540
 5204POPC   C3A65573  12.759  41.013   6.939
 5204POPC   C4A65574  12.871  40.888   7.350
 5204POPC   C1B65575  13.228  40.527   6.231
 5204POPC   C2B65576  13.090  40.714   6.614
 5204POPC   C3B65577  13.018  40.494   6.996
 5204POPC   C4B65578  13.225  40.515   7.380
 5205POPC   NC365579  24.842  20.370   5.277
 5205POPC   PO465580  25.130  20.949   5.454
 5205POPC   GL165581  25.026  20.556   5.735
 5205POPC   GL265582  25.368  20.561   5.841
 5205POPC   C1A65583  25.058  20.384   6.191
 5205POPC   D2A65584  25.260  20.629   6.510
 5205POPC   C3A65585  25.041  20.742   6.845
 5205POPC   C4A65586  24.799  20.420   7.102
 5205POPC   C1B65587  25.597  20.399   6.195
 5205POPC   C2B65588  25.781  20.578   6.573
 5205POPC   C3B65589  25.568  20.741   6.928
 5205POPC   C4B65590  25.289  20.572   7.246
 5206POPC   NC365591  29.028  29.809   5.442
 5206POPC   PO465592  29.229  30.458   5.367
 5206POPC   GL165593  29.220  30.211   5.804
 5206POPC   GL265594  29.278  29.806   5.868
 5206POPC   C1A65595  29.321  30.101   6.256
 5206POPC   D2A65596  29.306  29.830   6.610
 5206POPC   C3A65597  29.349  30.037   6.980
 5206POPC   C4A65598  28.970  30.122   7.187
 5206POPC   C1B65599  28.879  29.789   6.111
 5206POPC   C2B65600  28.842  29.588   6.514
 5206POPC   C3B65601  28.892  29.667   6.939
 5206POPC   C4B65602  29.212  29.607   7.241
 5207POPC   NC365603   1.033  38.639   5.468
 5207POPC   PO465604   1.364  38.021   5.301
 5207POPC   GL165605   1.236  38.269   5.721
 5207POPC   GL265606   0.917  38.290   5.866
 5207POPC   C1A65607   1.281  38.570   6.099
 5207POPC   D2A65608   1.227  38.816   6.479
 5207POPC   C3A65609   1.343  38.767   6.910
 5207POPC   C4A65610   1.486  38.564   7.314
 5207POPC   C1B65611   0.973  38.183   6.262
 5207POPC   C2B65612   1.298  38.278   6.557
 5207POPC   C3B65613   1.182  38.302   6.981
 5207POPC   C4B65614   1.086  37.999   7.265
 5208POPC   NC365615   9.307  15.298   5.485
 5208POPC   PO465616   8.859  14.787   5.622
 5208POPC   GL165617   8.881  15.194   5.776
 5208POPC   GL265618   8.556  15.278   5.823
 5208POPC   C1A65619   8.967  15.352   6.184
 5208POPC   D2A65620   8.968  15.137   6.591
 5208POPC   C3A65621   8.985  15.322   7.001
 5208POPC   C4A65622   9.111  15.201   7.420
 5208POPC   C1B65623   8.611  14.953   6.179
 5208POPC   C2B65624   8.569  14.799   6.582
 5208POPC   C3B65625   8.790  14.836   6.968
 5208POPC   C4B65626   8.661  14.947   7.353
 5209POPC   NC365627   7.809  22.367   5.396
 5209POPC   PO465628   8.440  21.944   5.384
 5209POPC   GL165629   8.212  22.164   5.705
 5209POPC   GL265630   8.435  22.385   5.847
 5209POPC   C1A65631   8.134  22.086   6.162
 5209POPC   D2A65632   8.267  21.833   6.537
 5209POPC   C3A65633   8.274  22.100   6.910
 5209POPC   C4A65634   8.012  22.352   7.200
 5209POPC   C1B65635   8.284  22.567   6.207
 5209POPC   C2B65636   8.072  22.473   6.602
 5209POPC   C3B65637   8.333  22.646   6.931
 5209POPC   C4B65638   8.476  22.565   7.346
 5210POPC   NC365639  40.425  31.671   5.577
 5210POPC   PO465640  39.826  31.267   5.364
 5210POPC   GL165641  40.084  31.250   5.708
 5210POPC   GL265642  39.953  31.600   5.757
 5210POPC   C1A65643  40.157  31.322   6.149
 5210POPC   D2A65644  39.872  31.277   6.486
 5210POPC   C3A65645  40.091  31.392   6.812
 5210POPC   C4A65646  39.991  31.345   7.203
 5210POPC   C1B65647  40.053  31.874   6.131
 5210POPC   C2B65648  40.167  31.846   6.557
 5210POPC   C3B65649  39.987  31.908   6.935
 5210POPC   C4B65650  39.942  31.819   7.331
 5211POPC   NC365651  28.473  39.659   5.221
 5211POPC   PO465652  28.190  39.055   5.377
 5211POPC   GL165653  28.239  39.290   5.760
 5211POPC   GL265654  28.548  39.427   5.681
 5211POPC   C1A65655  28.224  39.180   6.212
 5211POPC   D2A65656  28.124  38.983   6.594
 5211POPC   C3A65657  28.381  39.108   6.894
 5211POPC   C4A65658  28.458  39.262   7.261
 5211POPC   C1B65659  28.675  39.312   6.061
 5211POPC   C2B65660  28.705  39.207   6.498
 5211POPC   C3B65661  28.761  39.454   6.869
 5211POPC   C4B65662  28.990  39.411   7.241
 5212POPC   NC365663  39.109  29.330   5.208
 5212POPC   PO465664  39.391  28.682   5.397
 5212POPC   GL165665  39.158  28.977   5.665
 5212POPC   GL265666  39.205  29.344   5.707
 5212POPC   C1A65667  39.138  28.934   6.118
 5212POPC   D2A65668  39.339  29.046   6.503
 5212POPC   C3A65669  39.162  28.857   6.856
 5212POPC   C4A65670  39.396  28.876   7.203
 5212POPC   C1B65671  39.283  29.443   6.135
 5212POPC   C2B65672  39.170  29.543   6.554
 5212POPC   C3B65673  39.230  29.360   6.938
 5212POPC   C4B65674  39.514  29.398   7.237
 5213POPC   NC365675   8.269   4.019   5.137
 5213POPC   PO465676   8.344   3.423   5.468
 5213POPC   GL165677   8.130   3.403   5.862
 5213POPC   GL265678   7.815   3.545   5.775
 5213POPC   C1A65679   8.319   3.371   6.305
 5213POPC   D2A65680   8.569   3.458   6.699
 5213POPC   C3A65681   8.282   3.510   7.040
 5213POPC   C4A65682   7.955   3.430   7.371
 5213POPC   C1B65683   7.988   3.762   6.217
 5213POPC   C2B65684   8.154   3.814   6.651
 5213POPC   C3B65685   7.963   3.904   7.101
 5213POPC   C4B65686   7.996   3.960   7.588
 5214POPC   NC365687  14.697  23.335   5.459
 5214POPC   PO465688  14.338  22.902   5.279
 5214POPC   GL165689  14.393  22.959   5.733
 5214POPC   GL265690  14.649  22.737   5.861
 5214POPC   C1A65691  14.216  22.885   6.170
 5214POPC   D2A65692  14.117  23.071   6.592
 5214POPC   C3A65693  14.181  22.797   6.968
 5214POPC   C4A65694  14.279  22.904   7.398
 5214POPC   C1B65695  14.707  23.065   6.206
 5214POPC   C2B65696  14.646  23.027   6.667
 5214POPC   C3B65697  14.555  23.202   7.083
 5214POPC   C4B65698  14.770  23.119   7.487
 5215POPC   NC365699  39.173  43.490   5.246
 5215POPC   PO465700  38.946  42.960   5.556
 5215POPC   GL165701  39.113  43.186   5.955
 5215POPC   GL265702  39.409  42.995   5.982
 5215POPC   C1A65703  39.131  43.150   6.447
 5215POPC   D2A65704  39.366  42.807   6.594
 5215POPC   C3A65705  39.484  42.790   6.980
 5215POPC   C4A65706  39.690  42.951   7.293
 5215POPC   C1B65707  39.095  42.721   6.167
 5215POPC   C2B65708  38.851  42.698   6.503
 5215POPC   C3B65709  39.020  42.565   6.890
 5215POPC   C4B65710  39.278  42.453   7.271
 5216POPC   NC365711  14.021   0.336   5.417
 5216POPC   PO465712  13.375   0.443   5.366
 5216POPC   GL165713  13.600   0.342   5.742
 5216POPC   GL265714  13.877   0.568   5.866
 5216POPC   C1A65715  13.547   0.289   6.172
 5216POPC   D2A65716  13.725   0.413   6.554
 5216POPC   C3A65717  13.424   0.372   6.856
 5216POPC   C4A65718  13.228   0.340   7.231
 5216POPC   C1B65719  14.051   0.177   6.071
 5216POPC   C2B65720  14.105   0.060   6.518
 5216POPC   C3B65721  14.109   0.334   6.894
 5216POPC   C4B65722  13.791   0.408   7.221
 5217POPC   NC365723  33.434  21.895   5.393
 5217POPC   PO465724  32.829  22.319   5.334
 5217POPC   GL165725  32.896  22.135   5.783
 5217POPC   GL265726  33.204  21.971   5.837
 5217POPC   C1A65727  33.028  22.267   6.241
 5217POPC   D2A65728  33.210  22.323   6.667
 5217POPC   C3A65729  32.910  22.257   7.019
 5217POPC   C4A65730  32.704  22.165   7.438
 5217POPC   C1B65731  33.043  21.767   6.192
 5217POPC   C2B65732  33.041  21.846   6.588
 5217POPC   C3B65733  33.194  21.708   6.927
 5217POPC   C4B65734  33.102  21.873   7.286
 5218POPC   NC365735   2.152  34.402   5.355
 5218POPC   PO465736   2.114  35.101   5.355
 5218POPC   GL165737   1.932  34.767   5.657
 5218POPC   GL265738   1.612  34.789   5.816
 5218POPC   C1A65739   1.976  34.472   6.031
 5218POPC   D2A65740   1.860  34.541   6.474
 5218POPC   C3A65741   2.079  34.323   6.792
 5218POPC   C4A65742   2.197  34.539   7.153
 5218POPC   C1B65743   1.904  34.961   6.178
 5218POPC   C2B65744   2.129  34.983   6.597
 5218POPC   C3B65745   2.013  35.034   7.037
 5218POPC   C4B65746   1.750  34.799   7.305
 5219POPC   NC365747   6.567  24.594   5.225
 5219POPC   PO465748   7.247  24.711   5.538
 5219POPC   GL165749   6.884  24.607   5.762
 5219POPC   GL265750   6.886  24.254   5.907
 5219POPC   C1A65751   6.695  24.677   6.185
 5219POPC   D2A65752   6.637  24.469   6.590
 5219POPC   C3A65753   6.633  24.663   7.017
 5219POPC   C4A65754   6.914  24.804   7.339
 5219POPC   C1B65755   6.458  24.213   6.114
 5219POPC   C2B65756   6.233  24.099   6.499
 5219POPC   C3B65757   6.406  24.148   6.904
 5219POPC   C4B65758   6.522  24.224   7.292
 5220POPC   NC365759  42.331  42.275   5.278
 5220POPC   PO465760  42.691  42.834   5.421
 5220POPC   GL165761  42.337  42.612   5.684
 5220POPC   GL265762  42.154  42.266   5.760
 5220POPC   C1A65763  42.247  42.640   6.111
 5220POPC   D2A65764  42.408  42.612   6.524
 5220POPC   C3A65765  42.292  42.301   6.797
 5220POPC   C4A65766  42.364  42.573   7.101
 5220POPC   C1B65767  41.971  42.018   6.126
 5220POPC   C2B65768  42.080  41.857   6.553
 5220POPC   C3B65769  41.915  41.981   6.958
 5220POPC   C4B65770  42.146  42.147   7.281
 5221POPC   NC365771  22.769   2.679   5.495
 5221POPC   PO465772  23.175   3.182   5.375
 5221POPC   GL165773  23.146   2.880   5.767
 5221POPC   GL265774  22.868   3.082   5.827
 5221POPC   C1A65775  22.978   2.533   6.130
 5221POPC   D2A65776  23.216   2.472   6.510
 5221POPC   C3A65777  23.042   2.488   6.911
 5221POPC   C4A65778  23.041   2.520   7.328
 5221POPC   C1B65779  23.046   3.007   6.249
 5221POPC   C2B65780  22.810   2.785   6.565
 5221POPC   C3B65781  22.792   2.910   7.021
 5221POPC   C4B65782  22.965   3.022   7.424
 5222POPC   NC365783  14.069  37.904   5.588
 5222POPC   PO465784  14.729  37.812   5.505
 5222POPC   GL165785  14.489  37.702   5.844
 5222POPC   GL265786  14.222  37.449   5.818
 5222POPC   C1A65787  14.556  37.809   6.252
 5222POPC   D2A65788  14.280  37.743   6.576
 5222POPC   C3A65789  14.451  37.663   6.973
 5222POPC   C4A65790  14.243  37.681   7.380
 5222POPC   C1B65791  14.349  37.334   6.248
 5222POPC   C2B65792  14.301  37.233   6.702
 5222POPC   C3B65793  14.241  37.227   7.140
 5222POPC   C4B65794  14.270  37.210   7.612
 5223POPC   NC365795  36.399   4.936   5.529
 5223POPC   PO465796  35.801   5.083   5.258
 5223POPC   GL165797  35.880   5.120   5.722
 5223POPC   GL265798  36.002   4.795   5.851
 5223POPC   C1A65799  36.062   5.217   6.140
 5223POPC   D2A65800  36.136   4.951   6.511
 5223POPC   C3A65801  36.177   5.085   6.932
 5223POPC   C4A65802  36.066   5.377   7.273
 5223POPC   C1B65803  35.717   4.819   6.240
 5223POPC   C2B65804  35.611   4.754   6.669
 5223POPC   C3B65805  35.872   4.686   7.009
 5223POPC   C4B65806  35.914   4.916   7.364
 5224POPC   NC365807  31.694   9.863   5.581
 5224POPC   PO465808  31.372   9.388   5.218
 5224POPC   GL165809  31.366   9.487   5.680
 5224POPC   GL265810  31.631   9.365   5.903
 5224POPC   C1A65811  31.354   9.719   6.126
 5224POPC   D2A65812  31.189   9.621   6.538
 5224POPC   C3A65813  31.501   9.669   6.862
 5224POPC   C4A65814  31.487   9.819   7.274
 5224POPC   C1B65815  31.715   9.452   6.344
 5224POPC   C2B65816  31.663   9.177   6.675
 5224POPC   C3B65817  31.588   9.237   7.086
 5224POPC   C4B65818  31.856   9.490   7.267
 5225POPC   NC365819  34.966  29.137   5.561
 5225POPC   PO465820  35.639  28.992   5.510
 5225POPC   GL165821  35.631  29.109   5.915
 5225POPC   GL265822  35.298  29.293   5.936
 5225POPC   C1A65823  35.513  28.940   6.322
 5225POPC   D2A65824  35.264  29.158   6.617
 5225POPC   C3A65825  35.427  29.174   7.030
 5225POPC   C4A65826  35.156  29.103   7.355
 5225POPC   C1B65827  35.048  29.512   6.268
 5225POPC   C2B65828  34.939  29.566   6.710
 5225POPC   C3B65829  35.187  29.617   7.084
 5225POPC   C4B65830  35.222  29.583   7.514
 5226POPC   NC365831  17.530  44.667   5.379
 5226POPC   PO465832  16.912  44.653   5.596
 5226POPC   GL165833  17.292  44.524   5.816
 5226POPC   GL265834  17.630  44.335   5.763
 5226POPC   C1A65835  17.472  44.705   6.168
 5226POPC   D2A65836  17.275  44.655   6.545
 5226POPC   C3A65837  17.472  44.827   6.923
 5226POPC   C4A65838  17.267  44.825   7.327
 5226POPC   C1B65839  17.907  44.463   6.112
 5226POPC   C2B65840  17.928  44.661   6.535
 5226POPC   C3B65841  17.912  44.525   6.959
 5226POPC   C4B65842  17.632  44.494   7.319
 5227POPC   NC365843  30.450  36.541   5.184
 5227POPC   PO465844  30.671  35.880   5.389
 5227POPC   GL165845  30.807  36.063   5.779
 5227POPC   GL265846  31.077  35.898   5.920
 5227POPC   C1A65847  30.584  36.024   6.186
 5227POPC   D2A65848  30.445  35.827   6.585
 5227POPC   C3A65849  30.391  36.165   6.861
 5227POPC   C4A65850  30.596  36.142   7.205
 5227POPC   C1B65851  31.093  36.018   6.322
 5227POPC   C2B65852  30.960  36.206   6.675
 5227POPC   C3B65853  31.042  35.951   7.014
 5227POPC   C4B65854  30.989  35.931   7.443
 5228POPC   NC365855  33.358   3.622   5.377
 5228POPC   PO465856  32.856   3.255   5.390
 5228POPC   GL165857  33.049   3.440   5.753
 5228POPC   GL265858  33.094   3.804   5.803
 5228POPC   C1A65859  32.957   3.270   6.146
 5228POPC   D2A65860  32.801   3.066   6.508
 5228POPC   C3A65861  32.732   3.293   6.876
 5228POPC   C4A65862  32.820   3.206   7.293
 5228POPC   C1B65863  33.100   3.765   6.269
 5228POPC   C2B65864  33.146   3.444   6.591
 5228POPC   C3B65865  33.235   3.315   7.008
 5228POPC   C4B65866  33.140   3.720   7.230
 5229POPC   NC365867  20.806  37.950   5.364
 5229POPC   PO465868  20.467  37.457   5.365
 5229POPC   GL165869  20.489  37.733   5.763
 5229POPC   GL265870  20.836  37.716   5.836
 5229POPC   C1A65871  20.523  37.824   6.246
 5229POPC   D2A65872  20.487  37.943   6.715
 5229POPC   C3A65873  20.469  37.553   6.961
 5229POPC   C4A65874  20.188  37.364   7.271
 5229POPC   C1B65875  21.033  37.952   6.182
 5229POPC   C2B65876  20.955  37.814   6.567
 5229POPC   C3B65877  20.919  37.807   6.992
 5229POPC   C4B65878  20.722  37.740   7.379
 5230POPC   NC365879  16.342  27.857   5.399
 5230POPC   PO465880  16.908  27.486   5.171
 5230POPC   GL165881  16.734  27.643   5.621
 5230POPC   GL265882  17.004  27.870   5.654
 5230POPC   C1A65883  16.617  27.518   6.089
 5230POPC   D2A65884  16.504  27.586   6.546
 5230POPC   C3A65885  16.682  27.347   6.902
 5230POPC   C4A65886  16.645  27.659   7.236
 5230POPC   C1B65887  17.027  27.806   6.111
 5230POPC   C2B65888  17.030  27.615   6.533
 5230POPC   C3B65889  17.089  27.683   6.966
 5230POPC   C4B65890  17.080  27.394   7.328
 5231POPC   NC365891  31.005   9.162   5.392
 5231POPC   PO465892  30.715   8.652   5.661
 5231POPC   GL165893  30.779   8.919   5.954
 5231POPC   GL265894  30.488   9.120   6.004
 5231POPC   C1A65895  30.691   8.724   6.346
 5231POPC   D2A65896  30.467   8.831   6.673
 5231POPC   C3A65897  30.701   8.849   6.998
 5231POPC   C4A65898  30.799   9.072   7.322
 5231POPC   C1B65899  30.711   9.228   6.408
 5231POPC   C2B65900  30.836   9.351   6.844
 5231POPC   C3B65901  31.121   9.435   7.218
 5231POPC   C4B65902  30.950   9.376   7.684
 5232POPC   NC365903  32.884  41.517   5.338
 5232POPC   PO465904  33.441  41.941   5.431
 5232POPC   GL165905  33.149  41.738   5.722
 5232POPC   GL265906  32.825  41.952   5.686
 5232POPC   C1A65907  33.118  41.448   6.085
 5232POPC   D2A65908  33.204  41.293   6.503
 5232POPC   C3A65909  32.981  41.364   6.880
 5232POPC   C4A65910  33.247  41.501   7.219
 5232POPC   C1B65911  32.830  41.870   6.120
 5232POPC   C2B65912  32.951  41.772   6.565
 5232POPC   C3B65913  32.932  41.852   7.009
 5232POPC   C4B65914  32.958  41.854   7.439
 5233POPC   NC365915  12.873   4.027   5.392
 5233POPC   PO465916  12.491   4.526   5.510
 5233POPC   GL165917  12.682   4.295   5.799
 5233POPC   GL265918  12.523   3.958   5.763
 5233POPC   C1A65919  12.966   4.389   6.133
 5233POPC   D2A65920  12.942   4.340   6.570
 5233POPC   C3A65921  12.837   4.633   6.886
 5233POPC   C4A65922  13.114   4.727   7.233
 5233POPC   C1B65923  12.686   3.956   6.188
 5233POPC   C2B65924  12.602   3.920   6.622
 5233POPC   C3B65925  12.737   4.105   6.968
 5233POPC   C4B65926  12.521   3.882   7.224
 5234POPC   NC365927  33.685  37.586   5.113
 5234POPC   PO465928  34.198  37.779   5.509
 5234POPC   GL165929  33.873  37.530   5.767
 5234POPC   GL265930  34.099  37.264   5.936
 5234POPC   C1A65931  33.615  37.742   6.141
 5234POPC   D2A65932  33.763  37.958   6.521
 5234POPC   C3A65933  33.633  37.961   6.960
 5234POPC   C4A65934  33.572  37.636   7.234
 5234POPC   C1B65935  34.125  37.645   6.190
 5234POPC   C2B65936  34.236  37.787   6.574
 5234POPC   C3B65937  34.031  37.643   6.925
 5234POPC   C4B65938  34.070  37.796   7.313
 5235POPC   NC365939  20.016  23.600   5.372
 5235POPC   PO465940  19.308  23.487   5.376
 5235POPC   GL165941  19.605  23.726   5.693
 5235POPC   GL265942  19.583  24.091   5.790
 5235POPC   C1A65943  19.688  23.629   6.145
 5235POPC   D2A65944  19.565  23.446   6.564
 5235POPC   C3A65945  19.732  23.668   6.923
 5235POPC   C4A65946  20.020  23.525   7.240
 5235POPC   C1B65947  19.872  24.122   6.200
 5235POPC   C2B65948  20.025  23.964   6.597
 5235POPC   C3B65949  20.176  23.939   7.007
 5235POPC   C4B65950  19.824  24.005   7.309
 5236POPC   NC365951  27.598   3.982   5.390
 5236POPC   PO465952  27.559   4.623   5.385
 5236POPC   GL165953  27.898   4.530   5.704
 5236POPC   GL265954  27.675   4.279   5.801
 5236POPC   C1A65955  28.053   4.332   6.125
 5236POPC   D2A65956  28.043   4.108   6.537
 5236POPC   C3A65957  27.845   4.307   6.896
 5236POPC   C4A65958  27.514   4.577   7.034
 5236POPC   C1B65959  27.559   4.190   6.222
 5236POPC   C2B65960  27.389   4.258   6.612
 5236POPC   C3B65961  27.414   4.012   6.967
 5236POPC   C4B65962  27.428   4.185   7.358
 5237POPC   NC365963  17.968  29.941   5.531
 5237POPC   PO465964  17.273  30.008   5.378
 5237POPC   GL165965  17.488  29.841   5.723
 5237POPC   GL265966  17.604  30.175   5.777
 5237POPC   C1A65967  17.413  29.913   6.166
 5237POPC   D2A65968  17.221  29.882   6.569
 5237POPC   C3A65969  17.446  29.935   6.968
 5237POPC   C4A65970  17.247  29.821   7.333
 5237POPC   C1B65971  17.900  30.071   6.148
 5237POPC   C2B65972  17.742  30.034   6.557
 5237POPC   C3B65973  17.917  30.177   6.943
 5237POPC   C4B65974  17.764  30.147   7.385
 5238POPC   NC365975  39.965   3.973   5.374
 5238POPC   PO465976  40.346   4.446   5.343
 5238POPC   GL165977  40.212   4.254   5.761
 5238POPC   GL265978  39.819   4.143   5.837
 5238POPC   C1A65979  40.199   4.005   6.144
 5238POPC   D2A65980  40.000   3.944   6.560
 5238POPC   C3A65981  40.060   4.169   6.978
 5238POPC   C4A65982  39.963   4.203   7.441
 5238POPC   C1B65983  39.809   4.322   6.280
 5238POPC   C2B65984  39.620   4.282   6.716
 5238POPC   C3B65985  39.713   4.531   7.099
 5238POPC   C4B65986  39.969   4.694   7.464
 5239POPC   NC365987  19.664  17.309   5.504
 5239POPC   PO465988  20.245  17.799   5.393
 5239POPC   GL165989  20.048  17.764   5.817
 5239POPC   GL265990  19.693  17.711   5.838
 5239POPC   C1A65991  20.024  17.622   6.243
 5239POPC   D2A65992  20.241  17.437   6.590
 5239POPC   C3A65993  20.037  17.346   6.947
 5239POPC   C4A65994  19.985  17.688   7.219
 5239POPC   C1B65995  19.507  17.800   6.217
 5239POPC   C2B65996  19.684  17.776   6.631
 5239POPC   C3B65997  19.502  17.718   7.031
 5239POPC   C4B65998  19.627  17.318   7.248
 5240POPC   NC365999  11.118  20.124   5.410
 5240POPC   PO466000  11.284  20.839   5.427
 5240POPC   GL166001  11.110  20.592   5.735
 5240POPC   GL266002  11.423  20.614   5.911
 5240POPC   C1A66003  10.978  20.686   6.174
 5240POPC   D2A66004  11.257  20.771   6.538
 5240POPC   C3A66005  11.175  20.888   6.958
 5240POPC   C4A66006  11.290  20.684   7.331
 5240POPC   C1B66007  11.375  20.314   6.218
 5240POPC   C2B66008  11.481  20.317   6.649
 5240POPC   C3B66009  11.407  20.239   7.089
 5240POPC   C4B66010  11.457  20.143   7.532
 5241POPC   NC366011  30.315  33.307   5.290
 5241POPC   PO466012  30.935  33.040   5.475
 5241POPC   GL166013  30.718  33.152   5.786
 5241POPC   GL266014  30.381  33.078   5.757
 5241POPC   C1A66015  30.746  32.988   6.198
 5241POPC   D2A66016  30.962  32.861   6.580
 5241POPC   C3A66017  30.739  32.940   6.973
 5241POPC   C4A66018  30.807  33.265   7.294
 5241POPC   C1B66019  30.364  33.316   6.169
 5241POPC   C2B66020  30.419  33.111   6.553
 5241POPC   C3B66021  30.243  33.082   6.925
 5241POPC   C4B66022  30.354  33.074   7.335
 5242POPC   NC366023  18.575  11.737   5.478
 5242POPC   PO466024  18.731  11.095   5.210
 5242POPC   GL166025  18.453  11.235   5.638
 5242POPC   GL266026  18.238  11.531   5.793
 5242POPC   C1A66027  18.456  11.199   6.104
 5242POPC   D2A66028  18.599  11.346   6.491
 5242POPC   C3A66029  18.423  11.235   6.892
 5242POPC   C4A66030  18.529  11.266   7.322
 5242POPC   C1B66031  18.336  11.690   6.231
 5242POPC   C2B66032  18.237  11.662   6.684
 5242POPC   C3B66033  18.130  11.573   7.135
 5242POPC   C4B66034  18.016  11.258   7.434
 5243POPC   NC366035  41.123   5.859   5.041
 5243POPC   PO466036  41.742   5.837   5.344
 5243POPC   GL166037  41.707   5.678   5.774
 5243POPC   GL266038  41.730   5.984   5.907
 5243POPC   C1A66039  41.537   5.513   6.203
 5243POPC   D2A66040  41.379   5.472   6.665
 5243POPC   C3A66041  41.554   5.685   7.062
 5243POPC   C4A66042  41.608   5.610   7.526
 5243POPC   C1B66043  41.653   6.025   6.347
 5243POPC   C2B66044  41.583   6.174   6.786
 5243POPC   C3B66045  41.201   6.172   7.067
 5243POPC   C4B66046  41.207   5.891   7.407
 5244POPC   NC366047  36.294  21.338   5.350
 5244POPC   PO466048  35.673  21.550   5.352
 5244POPC   GL166049  35.934  21.325   5.715
 5244POPC   GL266050  36.315  21.217   5.839
 5244POPC   C1A66051  35.992  21.483   6.116
 5244POPC   D2A66052  36.249  21.354   6.453
 5244POPC   C3A66053  35.923  21.289   6.728
 5244POPC   C4A66054  35.976  21.455   7.088
 5244POPC   C1B66055  36.472  21.637   6.058
 5244POPC   C2B66056  36.503  21.796   6.514
 5244POPC   C3B66057  36.333  21.878   6.946
 5244POPC   C4B66058  36.327  21.671   7.362
 5245POPC   NC366059  12.500  15.080   5.513
 5245POPC   PO466060  13.169  15.277   5.370
 5245POPC   GL166061  12.921  15.328   5.762
 5245POPC   GL266062  12.951  14.964   5.803
 5245POPC   C1A66063  12.641  15.219   6.138
 5245POPC   D2A66064  12.670  14.892   6.462
 5245POPC   C3A66065  12.605  15.002   6.902
 5245POPC   C4A66066  12.730  15.338   7.181
 5245POPC   C1B66067  13.112  15.101   6.211
 5245POPC   C2B66068  12.948  15.317   6.581
 5245POPC   C3B66069  13.143  15.175   6.942
 5245POPC   C4B66070  13.016  14.933   7.316
 5246POPC   NC366071   5.549  36.571   5.462
 5246POPC   PO466072   5.784  35.954   5.508
 5246POPC   GL166073   5.873  36.004   5.910
 5246POPC   GL266074   5.819  36.346   6.022
 5246POPC   C1A66075   5.623  35.951   6.276
 5246POPC   D2A66076   5.821  36.237   6.539
 5246POPC   C3A66077   6.110  36.098   6.818
 5246POPC   C4A66078   5.987  36.154   7.226
 5246POPC   C1B66079   6.222  36.408   6.242
 5246POPC   C2B66080   6.346  36.550   6.667
 5246POPC   C3B66081   6.048  36.622   7.011
 5246POPC   C4B66082   5.634  36.557   7.185
 5247POPC   NC366083  32.584  22.879   5.432
 5247POPC   PO466084  31.932  22.759   5.353
 5247POPC   GL166085  32.183  22.776   5.754
 5247POPC   GL266086  32.309  23.096   5.816
 5247POPC   C1A66087  32.116  22.587   6.189
 5247POPC   D2A66088  31.991  22.742   6.580
 5247POPC   C3A66089  32.198  22.797   6.934
 5247POPC   C4A66090  32.165  23.131   7.186
 5247POPC   C1B66091  32.453  22.956   6.232
 5247POPC   C2B66092  32.608  22.774   6.618
 5247POPC   C3B66093  32.663  23.015   7.010
 5247POPC   C4B66094  32.571  22.841   7.397
 5248POPC   NC366095  34.204   8.788   5.595
 5248POPC   PO466096  33.621   9.057   5.329
 5248POPC   GL166097  33.766   8.988   5.765
 5248POPC   GL266098  33.757   8.616   5.762
 5248POPC   C1A66099  33.961   8.996   6.193
 5248POPC   D2A66100  34.212   8.875   6.550
 5248POPC   C3A66101  34.033   9.016   6.920
 5248POPC   C4A66102  34.213   9.111   7.293
 5248POPC   C1B66103  33.571   8.627   6.184
 5248POPC   C2B66104  33.717   8.746   6.593
 5248POPC   C3B66105  33.740   8.600   7.009
 5248POPC   C4B66106  33.529   8.636   7.394
 5249POPC   NC366107  13.917  10.025   5.379
 5249POPC   PO466108  13.834  10.672   5.438
 5249POPC   GL166109  13.893  10.457   5.790
 5249POPC   GL266110  14.044  10.722   5.905
 5249POPC   C1A66111  13.680  10.401   6.191
 5249POPC   D2A66112  13.363  10.417   6.526
 5249POPC   C3A66113  13.491  10.394   6.951
 5249POPC   C4A66114  13.267  10.501   7.308
 5249POPC   C1B66115  14.106  10.655   6.325
 5249POPC   C2B66116  13.949  10.370   6.663
 5249POPC   C3B66117  13.956  10.546   7.068
 5249POPC   C4B66118  13.653  10.836   7.236
 5250POPC   NC366119  21.826   7.925   5.363
 5250POPC   PO466120  21.267   8.251   5.186
 5250POPC   GL166121  21.351   8.115   5.642
 5250POPC   GL266122  21.661   8.196   5.783
 5250POPC   C1A66123  21.257   8.063   6.124
 5250POPC   D2A66124  21.212   8.284   6.540
 5250POPC   C3A66125  21.302   8.137   6.968
 5250POPC   C4A66126  21.432   8.222   7.456
 5250POPC   C1B66127  21.766   8.013   6.158
 5250POPC   C2B66128  21.580   7.914   6.580
 5250POPC   C3B66129  21.776   7.948   6.970
 5250POPC   C4B66130  21.719   7.830   7.358
 5251POPC   NC366131  17.901   5.597   5.330
 5251POPC   PO466132  17.692   6.209   5.463
 5251POPC   GL166133  17.905   5.928   5.771
 5251POPC   GL266134  18.278   5.895   5.768
 5251POPC   C1A66135  17.998   5.801   6.209
 5251POPC   D2A66136  17.979   5.996   6.623
 5251POPC   C3A66137  18.020   5.762   7.011
 5251POPC   C4A66138  18.339   5.475   7.086
 5251POPC   C1B66139  18.430   6.206   6.080
 5251POPC   C2B66140  18.430   6.234   6.552
 5251POPC   C3B66141  18.469   6.076   7.015
 5251POPC   C4B66142  18.609   6.190   7.473
 5252POPC   NC366143   0.710  31.416   5.595
 5252POPC   PO466144   0.195  31.796   5.555
 5252POPC   GL166145   0.339  31.573   5.906
 5252POPC   GL266146   0.289  31.222   5.813
 5252POPC   C1A66147   0.464  31.669   6.323
 5252POPC   D2A66148   0.274  31.767   6.720
 5252POPC   C3A66149   0.544  31.761   7.032
 5252POPC   C4A66150   0.682  31.573   7.409
 5252POPC   C1B66151   0.580  31.179   6.192
 5252POPC   C2B66152   0.838  31.157   6.549
 5252POPC   C3B66153   0.711  31.280   6.950
 5252POPC   C4B66154   0.668  31.081   7.364
 5253POPC   NC366155  27.077   6.934   5.650
 5253POPC   PO466156  26.737   6.454   5.288
 5253POPC   GL166157  26.752   6.551   5.751
 5253POPC   GL266158  26.578   6.860   5.914
 5253POPC   C1A66159  26.714   6.429   6.172
 5253POPC   D2A66160  26.747   6.142   6.485
 5253POPC   C3A66161  26.654   6.312   6.854
 5253POPC   C4A66162  26.762   6.536   7.186
 5253POPC   C1B66163  26.848   6.917   6.258
 5253POPC   C2B66164  26.613   6.782   6.580
 5253POPC   C3B66165  26.509   7.109   6.793
 5253POPC   C4B66166  26.775   7.071   7.135
 5254POPC   NC366167  20.855   8.162   5.384
 5254POPC   PO466168  20.194   8.161   5.435
 5254POPC   GL166169  20.552   8.220   5.808
 5254POPC   GL266170  20.930   8.359   5.838
 5254POPC   C1A66171  20.736   8.075   6.226
 5254POPC   D2A66172  20.923   7.870   6.601
 5254POPC   C3A66173  20.758   8.134   6.913
 5254POPC   C4A66174  20.582   8.055   7.326
 5254POPC   C1B66175  20.998   8.584   6.173
 5254POPC   C2B66176  20.764   8.509   6.543
 5254POPC   C3B66177  21.005   8.611   6.893
 5254POPC   C4B66178  20.993   8.428   7.268
 5255POPC   NC366179  26.105  34.283   5.561
 5255POPC   PO466180  26.438  34.822   5.669
 5255POPC   GL166181  26.263  34.565   5.976
 5255POPC   GL266182  25.891  34.521   5.946
 5255POPC   C1A66183  26.127  34.735   6.361
 5255POPC   D2A66184  25.913  34.850   6.714
 5255POPC   C3A66185  26.219  34.711   6.982
 5255POPC   C4A66186  26.294  34.775   7.398
 5255POPC   C1B66187  25.954  34.257   6.315
 5255POPC   C2B66188  25.925  34.312   6.763
 5255POPC   C3B66189  26.031  34.305   7.218
 5255POPC   C4B66190  25.749  34.355   7.537
 5256POPC   NC366191  14.854  41.619   5.413
 5256POPC   PO466192  15.253  41.110   5.427
 5256POPC   GL166193  15.238  41.436   5.768
 5256POPC   GL266194  15.494  41.694   5.817
 5256POPC   C1A66195  15.114  41.651   6.173
 5256POPC   D2A66196  15.310  41.761   6.566
 5256POPC   C3A66197  15.189  41.589   6.970
 5256POPC   C4A66198  14.811  41.540   7.241
 5256POPC   C1B66199  15.526  42.031   6.144
 5256POPC   C2B66200  15.511  42.232   6.563
 5256POPC   C3B66201  15.357  42.072   6.981
 5256POPC   C4B66202  14.895  42.009   7.052
 5257POPC   NC366203  41.120   9.639   5.355
 5257POPC   PO466204  41.710   9.485   5.250
 5257POPC   GL166205  41.598   9.718   5.682
 5257POPC   GL266206  41.283   9.886   5.766
 5257POPC   C1A66207  41.615   9.752   6.169
 5257POPC   D2A66208  41.473   9.847   6.622
 5257POPC   C3A66209  41.651   9.552   6.950
 5257POPC   C4A66210  41.734   9.567   7.412
 5257POPC   C1B66211  41.096   9.869   6.192
 5257POPC   C2B66212  40.956  10.097   6.533
 5257POPC   C3B66213  41.019   9.891   6.912
 5257POPC   C4B66214  41.297   9.799   7.227
 5258POPC   NC366215   2.798  33.826   5.263
 5258POPC   PO466216   2.211  34.000   5.576
 5258POPC   GL166217   2.604  33.841   5.762
 5258POPC   GL266218   2.990  33.927   5.735
 5258POPC   C1A66219   2.620  33.888   6.192
 5258POPC   D2A66220   2.687  33.704   6.544
 5258POPC   C3A66221   2.635  34.039   6.845
 5258POPC   C4A66222   2.358  34.057   7.179
 5258POPC   C1B66223   3.159  33.940   6.152
 5258POPC   C2B66224   3.135  33.927   6.600
 5258POPC   C3B66225   2.962  33.668   6.975
 5258POPC   C4B66226   2.793  33.855   7.352
 5259POPC   NC366227  41.290  35.045   5.474
 5259POPC   PO466228  41.632  35.624   5.399
 5259POPC   GL166229  41.691  35.303   5.707
 5259POPC   GL266230  41.504  35.528   5.906
 5259POPC   C1A66231  41.720  35.188   6.180
 5259POPC   D2A66232  41.475  35.405   6.499
 5259POPC   C3A66233  41.641  35.313   6.895
 5259POPC   C4A66234  41.494  35.028   7.197
 5259POPC   C1B66235  41.951  35.614   6.011
 5259POPC   C2B66236  41.988  35.538   6.441
 5259POPC   C3B66237  42.086  35.599   6.866
 5259POPC   C4B66238  41.797  35.725   7.195
 5260POPC   NC366239  16.332  19.250   5.414
 5260POPC   PO466240  15.684  19.005   5.401
 5260POPC   GL166241  15.959  19.071   5.769
 5260POPC   GL266242  16.297  18.892   5.790
 5260POPC   C1A66243  15.810  19.134   6.200
 5260POPC   D2A66244  15.657  18.963   6.577
 5260POPC   C3A66245  15.889  19.156   6.853
 5260POPC   C4A66246  15.986  19.072   7.232
 5260POPC   C1B66247  16.329  19.252   6.115
 5260POPC   C2B66248  16.325  19.418   6.558
 5260POPC   C3B66249  16.397  19.296   6.982
 5260POPC   C4B66250  16.290  19.490   7.341
 5261POPC   NC366251  23.092  40.168   5.479
 5261POPC   PO466252  22.550  39.834   5.303
 5261POPC   GL166253  22.657  40.084   5.753
 5261POPC   GL266254  22.646  40.411   5.736
 5261POPC   C1A66255  22.860  39.946   6.201
 5261POPC   D2A66256  22.991  39.753   6.597
 5261POPC   C3A66257  23.345  39.960   6.810
 5261POPC   C4A66258  23.457  40.269   7.102
 5261POPC   C1B66259  22.845  40.444   6.139
 5261POPC   C2B66260  22.860  40.280   6.571
 5261POPC   C3B66261  22.858  40.101   6.931
 5261POPC   C4B66262  22.950  40.307   7.246
 5262POPC   NC366263  20.396  28.025   5.423
 5262POPC   PO466264  20.610  27.301   5.467
 5262POPC   GL166265  20.806  27.421   5.827
 5262POPC   GL266266  20.893  27.772   5.811
 5262POPC   C1A66267  20.617  27.531   6.224
 5262POPC   D2A66268  20.528  27.758   6.614
 5262POPC   C3A66269  20.535  27.489   6.968
 5262POPC   C4A66270  20.802  27.578   7.311
 5262POPC   C1B66271  20.769  28.019   6.196
 5262POPC   C2B66272  20.876  28.151   6.619
 5262POPC   C3B66273  20.867  28.008   7.046
 5262POPC   C4B66274  20.803  28.048   7.527
 5263POPC   NC366275   4.914   1.745   5.039
 5263POPC   PO466276   5.175   1.737   5.664
 5263POPC   GL166277   5.206   2.018   6.004
 5263POPC   GL266278   4.910   2.264   5.891
 5263POPC   C1A66279   5.235   1.905   6.425
 5263POPC   D2A66280   5.104   1.657   6.766
 5263POPC   C3A66281   5.313   1.843   7.118
 5263POPC   C4A66282   5.554   1.724   7.461
 5263POPC   C1B66283   4.799   2.145   6.294
 5263POPC   C2B66284   4.847   2.119   6.728
 5263POPC   C3B66285   4.826   2.006   7.152
 5263POPC   C4B66286   4.681   2.241   7.467
 5264POPC   NC366287  40.223  12.698   5.416
 5264POPC   PO466288  39.730  12.377   5.423
 5264POPC   GL166289  39.931  12.583   5.833
 5264POPC   GL266290  40.280  12.635   5.919
 5264POPC   C1A66291  39.779  12.944   6.120
 5264POPC   D2A66292  39.578  12.933   6.547
 5264POPC   C3A66293  39.741  12.793   6.949
 5264POPC   C4A66294  39.978  12.460   7.147
 5264POPC   C1B66295  40.134  12.670   6.334
 5264POPC   C2B66296  40.185  12.911   6.670
 5264POPC   C3B66297  40.210  12.904   7.076
 5264POPC   C4B66298  40.036  13.016   7.462
 5265POPC   NC366299  44.467  19.810   5.412
 5265POPC   PO466300   0.055  19.930   5.691
 5265POPC   GL166301  44.690  19.763   5.870
 5265POPC   GL266302  44.512  20.101   5.812
 5265POPC   C1A66303  44.686  19.592   6.298
 5265POPC   D2A66304  44.909  19.463   6.682
 5265POPC   C3A66305  44.801  19.697   7.037
 5265POPC   C4A66306  44.378  19.866   7.033
 5265POPC   C1B66307  44.693  20.139   6.224
 5265POPC   C2B66308  44.717  20.008   6.634
 5265POPC   C3B66309  44.809  20.205   7.006
 5265POPC   C4B66310  44.669  20.078   7.379
 5266POPC   NC366311  30.122  34.848   5.405
 5266POPC   PO466312  29.739  34.308   5.478
 5266POPC   GL166313  29.949  34.496   5.806
 5266POPC   GL266314  29.825  34.866   5.818
 5266POPC   C1A66315  30.063  34.314   6.218
 5266POPC   D2A66316  30.251  34.174   6.616
 5266POPC   C3A66317  30.018  34.300   6.984
 5266POPC   C4A66318  29.881  34.502   7.367
 5266POPC   C1B66319  30.133  34.823   6.146
 5266POPC   C2B66320  30.131  34.686   6.579
 5266POPC   C3B66321  30.002  34.816   6.975
 5266POPC   C4B66322  30.229  34.887   7.349
 5267POPC   NC366323   4.120  24.206   5.397
 5267POPC   PO466324   4.463  24.752   5.359
 5267POPC   GL166325   4.484  24.630   5.803
 5267POPC   GL266326   4.420  24.274   5.853
 5267POPC   C1A66327   4.347  24.594   6.248
 5267POPC   D2A66328   4.230  24.312   6.567
 5267POPC   C3A66329   4.354  24.527   6.942
 5267POPC   C4A66330   4.146  24.742   7.311
 5267POPC   C1B66331   4.081  24.021   6.101
 5267POPC   C2B66332   3.822  23.889   6.477
 5267POPC   C3B66333   3.934  24.041   6.894
 5267POPC   C4B66334   4.218  24.165   7.250
 5268POPC   NC366335  29.524  16.857   5.618
 5268POPC   PO466336  29.913  16.640   5.083
 5268POPC   GL166337  29.998  16.659   5.577
 5268POPC   GL266338  30.068  17.000   5.635
 5268POPC   C1A66339  29.943  16.553   6.072
 5268POPC   D2A66340  30.137  16.568   6.515
 5268POPC   C3A66341  29.970  16.508   6.970
 5268POPC   C4A66342  30.128  16.444   7.425
 5268POPC   C1B66343  29.997  17.071   6.078
 5268POPC   C2B66344  30.203  17.078   6.461
 5268POPC   C3B66345  30.139  17.139   6.891
 5268POPC   C4B66346  30.032  16.919   7.254
 5269POPC   NC366347   0.925   2.169   5.412
 5269POPC   PO466348   1.293   1.657   5.489
 5269POPC   GL166349   1.108   1.885   5.790
 5269POPC   GL266350   1.321   2.185   5.750
 5269POPC   C1A66351   1.282   1.848   6.181
 5269POPC   D2A66352   1.437   2.043   6.510
 5269POPC   C3A66353   1.486   1.840   6.867
 5269POPC   C4A66354   1.347   1.743   7.254
 5269POPC   C1B66355   1.251   2.359   6.144
 5269POPC   C2B66356   1.093   2.388   6.576
 5269POPC   C3B66357   1.165   2.238   6.999
 5269POPC   C4B66358   1.241   2.538   7.333
 5270POPC   NC366359  33.391  12.567   5.315
 5270POPC   PO466360  32.738  12.876   5.500
 5270POPC   GL166361  32.909  13.043   5.841
 5270POPC   GL266362  33.194  12.956   5.729
 5270POPC   C1A66363  32.888  13.024   6.266
 5270POPC   D2A66364  32.640  12.816   6.581
 5270POPC   C3A66365  32.646  13.028   6.982
 5270POPC   C4A66366  32.814  12.987   7.393
 5270POPC   C1B66367  33.344  12.834   6.077
 5270POPC   C2B66368  33.274  12.747   6.474
 5270POPC   C3B66369  33.131  12.843   6.858
 5270POPC   C4B66370  33.315  12.872   7.248
 5271POPC   NC366371   7.737  25.836   5.411
 5271POPC   PO466372   7.373  26.460   5.366
 5271POPC   GL166373   7.414  26.161   5.698
 5271POPC   GL266374   7.242  25.834   5.742
 5271POPC   C1A66375   7.542  26.256   6.097
 5271POPC   D2A66376   7.495  26.121   6.478
 5271POPC   C3A66377   7.169  26.239   6.757
 5271POPC   C4A66378   7.275  26.308   7.170
 5271POPC   C1B66379   7.490  25.703   6.106
 5271POPC   C2B66380   7.668  25.641   6.530
 5271POPC   C3B66381   7.467  25.832   6.893
 5271POPC   C4B66382   7.490  25.807   7.288
 5272POPC   NC366383   9.439  32.649   5.417
 5272POPC   PO466384   8.748  32.914   5.423
 5272POPC   GL166385   9.017  32.784   5.781
 5272POPC   GL266386   9.094  33.117   5.920
 5272POPC   C1A66387   8.992  32.709   6.233
 5272POPC   D2A66388   8.722  32.554   6.597
 5272POPC   C3A66389   8.818  32.573   7.038
 5272POPC   C4A66390   9.127  32.785   7.241
 5272POPC   C1B66391   8.701  33.102   6.116
 5272POPC   C2B66392   8.636  33.064   6.534
 5272POPC   C3B66393   8.832  33.066   6.914
 5272POPC   C4B66394   9.019  33.341   7.200
 5273POPC   NC366395   2.847   6.153   5.393
 5273POPC   PO466396   2.511   5.629   5.227
 5273POPC   GL166397   2.715   5.691   5.655
 5273POPC   GL266398   2.450   5.772   5.855
 5273POPC   C1A66399   2.919   5.789   6.106
 5273POPC   D2A66400   2.987   6.097   6.477
 5273POPC   C3A66401   2.889   5.980   6.908
 5273POPC   C4A66402   3.070   5.740   7.241
 5273POPC   C1B66403   2.452   5.600   6.274
 5273POPC   C2B66404   2.686   5.587   6.631
 5273POPC   C3B66405   2.685   5.470   7.025
 5273POPC   C4B66406   2.567   5.787   7.276
 5274POPC   NC366407  31.809   9.145   5.479
 5274POPC   PO466408  31.386   8.714   5.379
 5274POPC   GL166409  31.564   8.798   5.768
 5274POPC   GL266410  31.277   8.998   5.792
 5274POPC   C1A66411  31.627   8.924   6.199
 5274POPC   D2A66412  31.874   8.722   6.531
 5274POPC   C3A66413  31.653   8.729   6.945
 5274POPC   C4A66414  31.772   8.575   7.339
 5274POPC   C1B66415  31.165   9.238   6.121
 5274POPC   C2B66416  31.188   9.099   6.519
 5274POPC   C3B66417  31.186   8.997   6.920
 5274POPC   C4B66418  31.277   8.888   7.327
 5275POPC   NC366419   8.967  27.187   5.372
 5275POPC   PO466420   9.294  26.608   5.182
 5275POPC   GL166421   9.193  26.719   5.640
 5275POPC   GL266422   8.838  26.815   5.722
 5275POPC   C1A66423   9.192  26.795   6.116
 5275POPC   D2A66424   9.000  26.868   6.537
 5275POPC   C3A66425   9.322  26.957   6.831
 5275POPC   C4A66426   9.277  27.083   7.242
 5275POPC   C1B66427   8.696  26.679   6.150
 5275POPC   C2B66428   8.624  26.406   6.522
 5275POPC   C3B66429   8.747  26.332   6.944
 5275POPC   C4B66430   8.978  26.685   7.093
 5276POPC   NC366431  16.123   3.717   5.457
 5276POPC   PO466432  16.165   3.160   5.050
 5276POPC   GL166433  16.058   3.260   5.624
 5276POPC   GL266434  15.729   3.457   5.743
 5276POPC   C1A66435  16.099   3.549   6.082
 5276POPC   D2A66436  15.840   3.806   6.425
 5276POPC   C3A66437  15.912   3.775   6.902
 5276POPC   C4A66438  16.150   3.845   7.311
 5276POPC   C1B66439  15.761   3.179   6.132
 5276POPC   C2B66440  15.567   3.225   6.538
 5276POPC   C3B66441  15.642   3.231   6.981
 5276POPC   C4B66442  15.905   3.397   7.259
 5277POPC   NC366443  30.071   9.861   5.246
 5277POPC   PO466444  30.375   9.465   5.610
 5277POPC   GL166445  30.203   9.819   5.818
 5277POPC   GL266446  29.854   9.828   5.724
 5277POPC   C1A66447  30.028   9.844   6.248
 5277POPC   D2A66448  29.781   9.589   6.550
 5277POPC   C3A66449  29.917   9.671   6.973
 5277POPC   C4A66450  30.170  10.007   7.188
 5277POPC   C1B66451  29.556   9.943   6.066
 5277POPC   C2B66452  29.615  10.100   6.478
 5277POPC   C3B66453  29.828  10.177   6.848
 5277POPC   C4B66454  29.845  10.398   7.239
 5278POPC   NC366455   8.935   4.346   5.282
 5278POPC   PO466456   9.440   4.107   5.543
 5278POPC   GL166457   9.041   4.176   5.767
 5278POPC   GL266458   8.936   4.532   5.765
 5278POPC   C1A66459   9.004   4.125   6.212
 5278POPC   D2A66460   9.213   4.167   6.607
 5278POPC   C3A66461   9.105   4.444   6.944
 5278POPC   C4A66462   8.896   4.274   7.309
 5278POPC   C1B66463   8.902   4.628   6.218
 5278POPC   C2B66464   8.701   4.525   6.617
 5278POPC   C3B66465   8.605   4.599   7.039
 5278POPC   C4B66466   8.825   4.787   7.342
 5279POPC   NC366467  42.398  36.591   5.520
 5279POPC   PO466468  42.419  37.274   5.584
 5279POPC   GL166469  42.240  37.001   5.840
 5279POPC   GL266470  42.518  36.909   5.966
 5279POPC   C1A66471  42.124  37.078   6.283
 5279POPC   D2A66472  42.315  37.214   6.681
 5279POPC   C3A66473  42.178  37.059   7.055
 5279POPC   C4A66474  41.967  36.700   7.207
 5279POPC   C1B66475  42.325  36.596   6.229
 5279POPC   C2B66476  42.459  36.423   6.610
 5279POPC   C3B66477  42.394  36.618   6.958
 5279POPC   C4B66478  42.552  36.846   7.340
 5280POPC   NC366479  24.519   2.871   5.467
 5280POPC   PO466480  24.162   2.234   5.564
 5280POPC   GL166481  24.400   2.534   5.848
 5280POPC   GL266482  24.345   2.910   5.941
 5280POPC   C1A66483  24.552   2.596   6.268
 5280POPC   D2A66484  24.614   2.509   6.684
 5280POPC   C3A66485  24.265   2.653   6.867
 5280POPC   C4A66486  24.258   2.844   7.241
 5280POPC   C1B66487  24.790   3.009   6.062
 5280POPC   C2B66488  24.799   2.982   6.489
 5280POPC   C3B66489  24.654   2.995   6.900
 5280POPC   C4B66490  24.898   3.031   7.244
 5281POPC   NC366491  25.828   7.362   5.444
 5281POPC   PO466492  25.882   8.018   5.368
 5281POPC   GL166493  26.086   7.719   5.749
 5281POPC   GL266494  26.263   7.343   5.747
 5281POPC   C1A66495  25.969   7.654   6.232
 5281POPC   D2A66496  26.192   7.494   6.632
 5281POPC   C3A66497  26.081   7.632   7.046
 5281POPC   C4A66498  25.899   7.431   7.426
 5281POPC   C1B66499  26.175   7.191   6.191
 5281POPC   C2B66500  25.808   7.184   6.514
 5281POPC   C3B66501  25.919   7.135   6.972
 5281POPC   C4B66502  26.294   7.199   7.233
 5282POPC   NC366503  34.412  20.758   5.351
 5282POPC   PO466504  34.804  20.278   5.525
 5282POPC   GL166505  34.539  20.476   5.841
 5282POPC   GL266506  34.333  20.229   5.939
 5282POPC   C1A66507  34.691  20.637   6.271
 5282POPC   D2A66508  34.943  20.794   6.606
 5282POPC   C3A66509  34.752  20.651   6.976
 5282POPC   C4A66510  34.740  20.579   7.411
 5282POPC   C1B66511  34.732  20.141   6.198
 5282POPC   C2B66512  34.803  20.257   6.650
 5282POPC   C3B66513  34.627  20.170   7.094
 5282POPC   C4B66514  34.445  20.180   7.566
 5283POPC   NC366515  26.713  44.168   5.383
 5283POPC   PO466516  27.323  44.161   5.232
 5283POPC   GL166517  27.006  43.978   5.728
 5283POPC   GL266518  26.632  44.001   5.829
 5283POPC   C1A66519  26.907  43.745   6.153
 5283POPC   D2A66520  27.050  43.813   6.583
 5283POPC   C3A66521  26.743  43.671   6.876
 5283POPC   C4A66522  26.739  43.773   7.293
 5283POPC   C1B66523  26.456  44.153   6.155
 5283POPC   C2B66524  26.595  44.052   6.540
 5283POPC   C3B66525  26.442  44.063   6.938
 5283POPC   C4B66526  26.257  44.103   7.320
 5284POPC   NC366527  41.345  26.871   5.226
 5284POPC   PO466528  41.784  26.506   5.484
 5284POPC   GL166529  41.607  26.789   5.749
 5284POPC   GL266530  41.924  26.981   5.852
 5284POPC   C1A66531  41.364  26.715   6.127
 5284POPC   D2A66532  41.525  26.860   6.523
 5284POPC   C3A66533  41.489  26.623   6.872
 5284POPC   C4A66534  41.554  26.834   7.232
 5284POPC   C1B66535  41.879  26.666   6.183
 5284POPC   C2B66536  41.929  26.506   6.592
 5284POPC   C3B66537  41.985  26.670   6.985
 5284POPC   C4B66538  41.983  26.565   7.391
 5285POPC   NC366539   4.146  19.224   5.396
 5285POPC   PO466540   4.621  18.806   5.580
 5285POPC   GL166541   4.466  19.149   5.783
 5285POPC   GL266542   4.123  18.996   5.864
 5285POPC   C1A66543   4.472  19.239   6.203
 5285POPC   D2A66544   4.524  18.939   6.531
 5285POPC   C3A66545   4.458  19.052   6.940
 5285POPC   C4A66546   4.380  19.433   7.137
 5285POPC   C1B66547   4.106  18.756   6.261
 5285POPC   C2B66548   4.050  18.802   6.714
 5285POPC   C3B66549   4.092  18.743   7.168
 5285POPC   C4B66550   4.262  19.056   7.457
 5286POPC   NC366551   5.515  40.025   5.564
 5286POPC   PO466552   4.935  40.053   5.229
 5286POPC   GL166553   5.004  40.095   5.704
 5286POPC   GL266554   4.844  40.408   5.799
 5286POPC   C1A66555   5.158  39.928   6.129
 5286POPC   D2A66556   4.996  39.632   6.461
 5286POPC   C3A66557   5.051  39.787   6.902
 5286POPC   C4A66558   4.844  39.766   7.279
 5286POPC   C1B66559   5.230  40.436   6.066
 5286POPC   C2B66560   5.435  40.276   6.431
 5286POPC   C3B66561   5.333  40.208   6.863
 5286POPC   C4B66562   4.985  40.269   7.164
 5287POPC   NC366563   5.907  19.462   5.443
 5287POPC   PO466564   5.642  20.024   5.198
 5287POPC   GL166565   5.714  19.977   5.663
 5287POPC   GL266566   6.067  19.975   5.755
 5287POPC   C1A66567   5.764  20.047   6.146
 5287POPC   D2A66568   5.731  19.787   6.505
 5287POPC   C3A66569   5.826  19.956   6.895
 5287POPC   C4A66570   5.743  19.755   7.306
 5287POPC   C1B66571   6.127  19.678   6.157
 5287POPC   C2B66572   6.222  19.771   6.620
 5287POPC   C3B66573   6.148  19.562   7.027
 5287POPC   C4B66574   6.187  19.518   7.483
 5288POPC   NC366575  31.700  42.011   5.112
 5288POPC   PO466576  31.218  42.497   5.228
 5288POPC   GL166577  31.537  42.440   5.633
 5288POPC   GL266578  31.606  42.083   5.799
 5288POPC   C1A66579  31.499  42.502   6.114
 5288POPC   D2A66580  31.354  42.364   6.551
 5288POPC   C3A66581  31.656  42.336   6.940
 5288POPC   C4A66582  31.743  42.151   7.338
 5288POPC   C1B66583  31.307  41.988   6.171
 5288POPC   C2B66584  31.093  41.826   6.564
 5288POPC   C3B66585  31.090  41.931   6.993
 5288POPC   C4B66586  31.224  42.289   7.216
 5289POPC   NC366587   9.541  21.000   5.447
 5289POPC   PO466588   9.832  20.280   5.310
 5289POPC   GL166589   9.861  20.460   5.774
 5289POPC   GL266590   9.804  20.818   5.908
 5289POPC   C1A66591  10.002  20.468   6.235
 5289POPC   D2A66592   9.824  20.419   6.651
 5289POPC   C3A66593  10.032  20.505   7.045
 5289POPC   C4A66594  10.132  20.346   7.451
 5289POPC   C1B66595   9.530  20.733   6.321
 5289POPC   C2B66596   9.350  20.581   6.736
 5289POPC   C3B66597   9.404  20.706   7.179
 5289POPC   C4B66598   9.360  20.571   7.642
 5290POPC   NC366599  24.957  30.446   5.648
 5290POPC   PO466600  25.466  30.093   5.439
 5290POPC   GL166601  25.277  29.959   5.776
 5290POPC   GL266602  24.943  29.800   5.756
 5290POPC   C1A66603  25.402  29.998   6.175
 5290POPC   D2A66604  25.406  30.312   6.487
 5290POPC   C3A66605  25.323  30.073   6.862
 5290POPC   C4A66606  25.361  30.155   7.272
 5290POPC   C1B66607  25.199  29.510   6.053
 5290POPC   C2B66608  25.381  29.516   6.461
 5290POPC   C3B66609  25.235  29.528   6.879
 5290POPC   C4B66610  25.050  29.730   7.274
 5291POPC   NC366611  15.870   9.734   5.426
 5291POPC   PO466612  16.327  10.146   5.662
 5291POPC   GL166613  16.193   9.801   5.881
 5291POPC   GL266614  15.998   9.531   5.866
 5291POPC   C1A66615  16.072   9.717   6.311
 5291POPC   D2A66616  15.984   9.862   6.693
 5291POPC   C3A66617  16.223   9.673   7.034
 5291POPC   C4A66618  16.027   9.888   7.351
 5291POPC   C1B66619  15.656   9.435   6.213
 5291POPC   C2B66620  15.568   9.550   6.633
 5291POPC   C3B66621  15.738   9.527   7.054
 5291POPC   C4B66622  15.835   9.386   7.482
 5292POPC   NC366623   4.227  44.139   5.492
 5292POPC   PO466624   4.356  43.494   5.451
 5292POPC   GL166625   4.378  43.769   5.819
 5292POPC   GL266626   4.648  44.004   5.784
 5292POPC   C1A66627   4.317  44.066   6.200
 5292POPC   D2A66628   4.275  44.160   6.677
 5292POPC   C3A66629   4.091  43.911   7.040
 5292POPC   C4A66630   4.265  43.811   7.459
 5292POPC   C1B66631   4.779  43.757   6.131
 5292POPC   C2B66632   4.578  43.720   6.535
 5292POPC   C3B66633   4.607  43.789   6.983
 5292POPC   C4B66634   4.699  43.583   7.372
 5293POPC   NC366635  24.283  37.142   5.291
 5293POPC   PO466636  24.469  36.536   5.525
 5293POPC   GL166637  24.542  36.676   5.917
 5293POPC   GL266638  24.552  37.019   5.759
 5293POPC   C1A66639  24.331  36.664   6.328
 5293POPC   D2A66640  24.054  36.446   6.634
 5293POPC   C3A66641  24.101  36.534   7.096
 5293POPC   C4A66642  24.513  36.665   7.342
 5293POPC   C1B66643  24.480  37.158   6.178
 5293POPC   C2B66644  24.541  37.072   6.606
 5293POPC   C3B66645  24.845  36.954   6.974
 5293POPC   C4B66646  24.798  37.126   7.438
 5294POPC   NC366647  20.868  31.906   5.558
 5294POPC   PO466648  20.208  32.047   5.695
 5294POPC   GL166649  20.516  32.009   5.952
 5294POPC   GL266650  20.615  32.324   5.825
 5294POPC   C1A66651  20.428  32.037   6.371
 5294POPC   D2A66652  20.665  32.104   6.713
 5294POPC   C3A66653  20.685  32.055   7.130
 5294POPC   C4A66654  20.547  32.268   7.492
 5294POPC   C1B66655  20.590  32.512   6.213
 5294POPC   C2B66656  20.846  32.556   6.571
 5294POPC   C3B66657  20.706  32.562   6.971
 5294POPC   C4B66658  20.833  32.683   7.347
 5295POPC   NC366659  21.508  23.829   5.282
 5295POPC   PO466660  20.932  23.574   5.521
 5295POPC   GL166661  21.297  23.673   5.777
 5295POPC   GL266662  21.545  23.932   5.776
 5295POPC   C1A66663  21.499  23.506   6.139
 5295POPC   D2A66664  21.602  23.632   6.551
 5295POPC   C3A66665  21.316  23.549   6.846
 5295POPC   C4A66666  21.191  23.292   7.174
 5295POPC   C1B66667  21.450  24.020   6.202
 5295POPC   C2B66668  21.674  24.157   6.566
 5295POPC   C3B66669  21.743  23.936   6.951
 5295POPC   C4B66670  21.499  23.746   7.277
 5296POPC   NC366671  39.084  16.237   5.340
 5296POPC   PO466672  39.143  15.671   5.670
 5296POPC   GL166673  39.064  16.028   5.896
 5296POPC   GL266674  38.801  16.267   5.765
 5296POPC   C1A66675  39.204  15.931   6.318
 5296POPC   D2A66676  39.501  15.858   6.663
 5296POPC   C3A66677  39.466  15.961   7.102
 5296POPC   C4A66678  39.211  16.047   7.475
 5296POPC   C1B66679  38.791  16.391   6.179
 5296POPC   C2B66680  38.879  16.194   6.583
 5296POPC   C3B66681  38.968  16.041   6.986
 5296POPC   C4B66682  38.886  16.392   7.231
 5297POPC   NC366683   4.157  17.511   5.464
 5297POPC   PO466684   4.654  17.919   5.582
 5297POPC   GL166685   4.565  17.552   5.825
 5297POPC   GL266686   4.299  17.288   5.878
 5297POPC   C1A66687   4.421  17.678   6.224
 5297POPC   D2A66688   4.414  17.897   6.603
 5297POPC   C3A66689   4.483  17.643   6.923
 5297POPC   C4A66690   4.352  17.787   7.278
 5297POPC   C1B66691   4.397  17.177   6.256
 5297POPC   C2B66692   4.257  17.310   6.618
 5297POPC   C3B66693   4.306  17.154   7.010
 5297POPC   C4B66694   4.525  17.308   7.318
 5298POPC   NC366695   0.670   7.610   5.457
 5298POPC   PO466696   0.060   7.394   5.421
 5298POPC   GL166697   0.323   7.490   5.807
 5298POPC   GL266698   0.507   7.184   5.796
 5298POPC   C1A66699   0.678   7.570   6.120
 5298POPC   D2A66700   0.668   7.722   6.546
 5298POPC   C3A66701   0.709   7.614   6.999
 5298POPC   C4A66702   0.309   7.486   7.195
 5298POPC   C1B66703   0.519   7.123   6.257
 5298POPC   C2B66704   0.403   7.289   6.687
 5298POPC   C3B66705   0.610   7.103   7.064
 5298POPC   C4B66706   0.805   6.967   7.464
 5299POPC   NC366707   2.910   0.471   5.491
 5299POPC   PO466708   2.298   0.245   5.533
 5299POPC   GL166709   2.481   0.445   5.871
 5299POPC   GL266710   2.786   0.316   5.952
 5299POPC   C1A66711   2.459   0.572   6.299
 5299POPC   D2A66712   2.499   0.428   6.724
 5299POPC   C3A66713   2.838   0.590   7.019
 5299POPC   C4A66714   2.812   0.485   7.473
 5299POPC   C1B66715   3.083   0.352   6.255
 5299POPC   C2B66716   3.004   0.275   6.652
 5299POPC   C3B66717   3.241   0.157   7.032
 5299POPC   C4B66718   3.102  44.982   7.397
 5300POPC   NC366719  18.225  13.332   5.437
 5300POPC   PO466720  18.161  14.059   5.335
 5300POPC   GL166721  18.076  13.741   5.729
 5300POPC   GL266722  18.056  13.427   5.910
 5300POPC   C1A66723  17.925  13.846   6.168
 5300POPC   D2A66724  17.971  13.579   6.540
 5300POPC   C3A66725  18.269  13.735   6.824
 5300POPC   C4A66726  18.316  13.815   7.251
 5300POPC   C1B66727  18.348  13.300   6.254
 5300POPC   C2B66728  18.228  13.122   6.657
 5300POPC   C3B66729  18.263  13.296   7.078
 5300POPC   C4B66730  18.592  13.385   7.361
 5301POPC   NC366731  12.286   7.026   5.386
 5301POPC   PO466732  12.063   7.586   5.387
 5301POPC   GL166733  12.142   7.392   5.781
 5301POPC   GL266734  11.963   7.097   5.812
 5301POPC   C1A66735  12.148   7.550   6.221
 5301POPC   D2A66736  12.305   7.756   6.591
 5301POPC   C3A66737  12.113   7.547   6.921
 5301POPC   C4A66738  12.193   7.389   7.313
 5301POPC   C1B66739  11.746   7.212   6.215
 5301POPC   C2B66740  11.658   7.338   6.685
 5301POPC   C3B66741  11.830   7.124   7.071
 5301POPC   C4B66742  11.884   7.069   7.551
 5302POPC   NC366743  18.188  22.573   5.391
 5302POPC   PO466744  18.530  21.983   5.369
 5302POPC   GL166745  18.363  22.120   5.791
 5302POPC   GL266746  18.319  22.470   5.884
 5302POPC   C1A66747  18.378  21.989   6.210
 5302POPC   D2A66748  18.126  21.958   6.575
 5302POPC   C3A66749  18.361  21.908   6.949
 5302POPC   C4A66750  18.222  21.995   7.334
 5302POPC   C1B66751  18.046  22.376   6.236
 5302POPC   C2B66752  17.812  22.429   6.578
 5302POPC   C3B66753  18.122  22.401   6.877
 5302POPC   C4B66754  18.006  22.425   7.250
 5303POPC   NC366755  28.931  32.634   5.459
 5303POPC   PO466756  29.078  33.305   5.355
 5303POPC   GL166757  29.131  33.074   5.763
 5303POPC   GL266758  28.800  32.922   5.865
 5303POPC   C1A66759  29.165  32.878   6.190
 5303POPC   D2A66760  28.979  32.656   6.523
 5303POPC   C3A66761  29.100  32.848   6.901
 5303POPC   C4A66762  29.384  32.868   7.226
 5303POPC   C1B66763  28.762  33.212   6.225
 5303POPC   C2B66764  28.892  33.285   6.647
 5303POPC   C3B66765  28.781  33.242   7.089
 5303POPC   C4B66766  28.886  32.952   7.386
 5304POPC   NC366767  10.364   5.450   5.404
 5304POPC   PO466768  10.373   6.177   5.394
 5304POPC   GL166769  10.498   5.870   5.753
 5304POPC   GL266770  10.174   5.777   5.787
 5304POPC   C1A66771  10.762   5.735   6.170
 5304POPC   D2A66772  10.759   5.472   6.608
 5304POPC   C3A66773  10.713   5.696   7.034
 5304POPC   C4A66774  10.654   6.111   7.268
 5304POPC   C1B66775  10.266   5.946   6.209
 5304POPC   C2B66776  10.336   5.802   6.638
 5304POPC   C3B66777  10.177   5.998   7.020
 5304POPC   C4B66778  10.135   6.177   7.424
 5305POPC   NC366779  28.303   6.013   5.180
 5305POPC   PO466780  28.798   5.497   5.395
 5305POPC   GL166781  28.623   5.649   5.867
 5305POPC   GL266782  28.254   5.832   5.865
 5305POPC   C1A66783  28.560   5.873   6.251
 5305POPC   D2A66784  28.409   5.651   6.582
 5305POPC   C3A66785  28.523   5.913   6.924
 5305POPC   C4A66786  28.648   6.113   7.300
 5305POPC   C1B66787  28.053   5.860   6.250
 5305POPC   C2B66788  28.092   6.027   6.669
 5305POPC   C3B66789  28.050   5.870   7.104
 5305POPC   C4B66790  28.225   5.898   7.526
 5306POPC   NC366791   2.518  18.593   5.383
 5306POPC   PO466792   2.531  17.892   5.230
 5306POPC   GL166793   2.710  18.078   5.635
 5306POPC   GL266794   2.898  18.412   5.687
 5306POPC   C1A66795   2.617  18.172   6.080
 5306POPC   D2A66796   2.820  18.071   6.482
 5306POPC   C3A66797   2.674  18.204   6.879
 5306POPC   C4A66798   2.618  18.485   7.214
 5306POPC   C1B66799   3.054  18.433   6.136
 5306POPC   C2B66800   2.957  18.568   6.570
 5306POPC   C3B66801   3.117  18.501   6.997
 5306POPC   C4B66802   3.004  18.184   7.292
 5307POPC   NC366803  44.158  43.698   5.037
 5307POPC   PO466804  44.173  43.108   5.459
 5307POPC   GL166805  44.006  43.069   5.875
 5307POPC   GL266806  44.161  43.370   5.926
 5307POPC   C1A66807  43.857  42.955   6.342
 5307POPC   D2A66808  43.776  42.714   6.762
 5307POPC   C3A66809  43.793  42.950   7.155
 5307POPC   C4A66810  44.185  42.987   7.369
 5307POPC   C1B66811  43.816  43.438   6.184
 5307POPC   C2B66812  43.737  43.421   6.615
 5307POPC   C3B66813  43.887  43.480   7.024
 5307POPC   C4B66814  43.781  43.404   7.434
 5308POPC   NC366815   4.021   2.163   5.500
 5308POPC   PO466816   4.651   1.948   5.374
 5308POPC   GL166817   4.428   2.083   5.801
 5308POPC   GL266818   4.126   1.818   5.852
 5308POPC   C1A66819   4.353   2.345   6.208
 5308POPC   D2A66820   4.292   2.212   6.641
 5308POPC   C3A66821   4.450   2.366   6.987
 5308POPC   C4A66822   4.088   2.386   7.231
 5308POPC   C1B66823   4.073   1.915   6.273
 5308POPC   C2B66824   4.475   1.793   6.450
 5308POPC   C3B66825   4.538   1.701   6.872
 5308POPC   C4B66826   4.294   1.907   7.166
 5309POPC   NC366827  37.269  37.259   5.412
 5309POPC   PO466828  37.960  37.160   5.429
 5309POPC   GL166829  37.779  37.169   5.856
 5309POPC   GL266830  37.428  37.066   5.878
 5309POPC   C1A66831  37.838  36.933   6.225
 5309POPC   D2A66832  37.521  36.765   6.490
 5309POPC   C3A66833  37.636  36.816   6.917
 5309POPC   C4A66834  37.558  36.654   7.302
 5309POPC   C1B66835  37.448  37.240   6.277
 5309POPC   C2B66836  37.725  37.239   6.645
 5309POPC   C3B66837  37.571  37.327   7.078
 5309POPC   C4B66838  37.546  37.349   7.543
 5310POPC   NC366839  10.932  40.889   5.364
 5310POPC   PO466840  11.219  40.340   5.350
 5310POPC   GL166841  11.404  40.494   5.766
 5310POPC   GL266842  11.269  40.848   5.815
 5310POPC   C1A66843  11.497  40.583   6.239
 5310POPC   D2A66844  11.319  40.739   6.657
 5310POPC   C3A66845  11.557  40.725   7.063
 5310POPC   C4A66846  11.449  40.895   7.495
 5310POPC   C1B66847  10.998  40.569   6.084
 5310POPC   C2B66848  10.855  40.598   6.511
 5310POPC   C3B66849  10.812  40.565   6.944
 5310POPC   C4B66850  11.081  40.715   7.209
 5311POPC   NC366851  43.317  16.300   5.365
 5311POPC   PO466852  43.312  15.660   5.455
 5311POPC   GL166853  43.239  15.909   5.776
 5311POPC   GL266854  42.887  15.848   5.788
 5311POPC   C1A66855  43.207  16.083   6.199
 5311POPC   D2A66856  43.435  15.917   6.556
 5311POPC   C3A66857  43.195  16.156   6.843
 5311POPC   C4A66858  43.189  16.239   7.264
 5311POPC   C1B66859  43.052  15.611   6.157
 5311POPC   C2B66860  42.978  15.719   6.598
 5311POPC   C3B66861  42.891  15.814   7.040
 5311POPC   C4B66862  42.618  15.985   7.393
 5312POPC   NC366863  16.181   8.839   5.474
 5312POPC   PO466864  15.751   9.298   5.479
 5312POPC   GL166865  15.859   9.060   5.837
 5312POPC   GL266866  15.537   9.062   5.916
 5312POPC   C1A66867  16.063   9.144   6.257
 5312POPC   D2A66868  16.045   9.333   6.676
 5312POPC   C3A66869  16.118   9.130   7.097
 5312POPC   C4A66870  16.186   8.692   7.253
 5312POPC   C1B66871  15.724   8.766   6.237
 5312POPC   C2B66872  15.880   8.792   6.673
 5312POPC   C3B66873  15.654   8.874   7.055
 5312POPC   C4B66874  15.400   9.220   7.280
 5313POPC   NC366875  40.299  26.662   5.162
 5313POPC   PO466876  40.956  26.618   5.226
 5313POPC   GL166877  40.760  26.738   5.662
 5313POPC   GL266878  40.448  26.963   5.740
 5313POPC   C1A66879  40.801  26.714   6.140
 5313POPC   D2A66880  41.039  26.652   6.531
 5313POPC   C3A66881  41.035  26.844   6.930
 5313POPC   C4A66882  41.084  26.642   7.310
 5313POPC   C1B66883  40.346  26.939   6.206
 5313POPC   C2B66884  40.436  26.635   6.566
 5313POPC   C3B66885  40.620  26.538   6.978
 5313POPC   C4B66886  40.634  26.867   7.289
 5314POPC   NC366887   8.896  23.501   5.308
 5314POPC   PO466888   9.241  24.039   5.534
 5314POPC   GL166889   8.982  23.833   5.836
 5314POPC   GL266890   9.198  23.560   5.990
 5314POPC   C1A66891   8.846  23.797   6.274
 5314POPC   D2A66892   9.005  23.786   6.697
 5314POPC   C3A66893   8.761  23.902   7.044
 5314POPC   C4A66894   8.546  23.553   7.168
 5314POPC   C1B66895   9.355  23.923   6.296
 5314POPC   C2B66896   9.416  24.102   6.730
 5314POPC   C3B66897   9.223  24.100   7.161
 5314POPC   C4B66898   8.975  24.152   7.575
 5315POPC   NC366899  11.410  22.678   5.436
 5315POPC   PO466900  11.080  23.171   5.615
 5315POPC   GL166901  11.245  22.856   5.889
 5315POPC   GL266902  11.610  22.896   5.832
 5315POPC   C1A66903  11.075  22.772   6.280
 5315POPC   D2A66904  11.128  23.107   6.553
 5315POPC   C3A66905  10.973  23.040   6.929
 5315POPC   C4A66906  11.117  22.915   7.327
 5315POPC   C1B66907  11.751  22.988   6.207
 5315POPC   C2B66908  11.541  22.805   6.544
 5315POPC   C3B66909  11.385  22.691   6.921
 5315POPC   C4B66910  11.606  22.808   7.299
 5316POPC   NC366911  29.207   5.656   5.545
 5316POPC   PO466912  28.582   6.040   5.535
 5316POPC   GL166913  28.915   6.053   5.877
 5316POPC   GL266914  29.250   6.025   5.882
 5316POPC   C1A66915  29.034   5.722   6.201
 5316POPC   D2A66916  28.910   5.704   6.603
 5316POPC   C3A66917  29.024   5.964   6.934
 5316POPC   C4A66918  29.014   5.752   7.309
 5316POPC   C1B66919  29.327   6.206   6.244
 5316POPC   C2B66920  29.251   6.334   6.642
 5316POPC   C3B66921  29.429   6.258   7.013
 5316POPC   C4B66922  29.275   6.212   7.429
 5317POPC   NC366923  23.820   5.238   5.355
 5317POPC   PO466924  23.267   4.802   5.397
 5317POPC   GL166925  23.589   4.971   5.725
 5317POPC   GL266926  23.434   5.305   5.783
 5317POPC   C1A66927  23.928   5.091   6.086
 5317POPC   D2A66928  23.846   5.143   6.564
 5317POPC   C3A66929  23.987   5.265   7.007
 5317POPC   C4A66930  23.818   5.197   7.425
 5317POPC   C1B66931  23.432   5.133   6.174
 5317POPC   C2B66932  23.344   5.281   6.553
 5317POPC   C3B66933  23.477   5.195   6.940
 5317POPC   C4B66934  23.320   5.114   7.314
 5318POPC   NC366935  15.651   6.745   5.713
 5318POPC   PO466936  16.097   6.358   5.343
 5318POPC   GL166937  16.088   6.498   5.767
 5318POPC   GL266938  16.118   6.878   5.866
 5318POPC   C1A66939  16.112   6.478   6.223
 5318POPC   D2A66940  16.305   6.586   6.623
 5318POPC   C3A66941  16.004   6.499   6.948
 5318POPC   C4A66942  15.816   6.597   7.347
 5318POPC   C1B66943  16.150   6.991   6.300
 5318POPC   C2B66944  15.945   7.005   6.695
 5318POPC   C3B66945  16.108   7.010   7.093
 5318POPC   C4B66946  16.043   6.998   7.558
 5319POPC   NC366947  29.562  43.220   5.276
 5319POPC   PO466948  30.265  42.996   5.272
 5319POPC   GL166949  29.974  42.876   5.658
 5319POPC   GL266950  29.714  43.164   5.759
 5319POPC   C1A66951  29.817  42.805   6.081
 5319POPC   D2A66952  29.762  43.083   6.416
 5319POPC   C3A66953  29.925  42.959   6.767
 5319POPC   C4A66954  29.965  42.931   7.178
 5319POPC   C1B66955  29.794  43.495   6.085
 5319POPC   C2B66956  29.731  43.585   6.541
 5319POPC   C3B66957  29.890  43.470   6.951
 5319POPC   C4B66958  29.657  43.619   7.300
 5320POPC   NC366959  39.145  12.929   5.321
 5320POPC   PO466960  38.900  12.425   5.717
 5320POPC   GL166961  39.113  12.754   5.812
 5320POPC   GL266962  39.438  12.645   5.838
 5320POPC   C1A66963  39.228  12.952   6.181
 5320POPC   D2A66964  39.038  12.929   6.566
 5320POPC   C3A66965  39.239  12.873   6.953
 5320POPC   C4A66966  39.101  12.751   7.327
 5320POPC   C1B66967  39.611  12.482   6.247
 5320POPC   C2B66968  39.418  12.466   6.696
 5320POPC   C3B66969  39.454  12.408   7.161
 5320POPC   C4B66970  39.583  12.680   7.516
 5321POPC   NC366971  30.755  10.571   5.415
 5321POPC   PO466972  31.205   9.993   5.433
 5321POPC   GL166973  30.969  10.245   5.739
 5321POPC   GL266974  30.632  10.129   5.802
 5321POPC   C1A66975  30.805  10.511   6.107
 5321POPC   D2A66976  30.889  10.702   6.518
 5321POPC   C3A66977  30.703  10.639   6.934
 5321POPC   C4A66978  30.581  10.923   7.236
 5321POPC   C1B66979  30.436  10.150   6.179
 5321POPC   C2B66980  30.559  10.288   6.582
 5321POPC   C3B66981  30.621  10.150   7.016
 5321POPC   C4B66982  30.628  10.137   7.501
 5322POPC   NC366983  33.317  43.145   5.509
 5322POPC   PO466984  33.955  43.311   5.416
 5322POPC   GL166985  33.812  43.386   5.879
 5322POPC   GL266986  33.461  43.363   6.001
 5322POPC   C1A66987  34.001  43.200   6.277
 5322POPC   D2A66988  34.185  43.018   6.648
 5322POPC   C3A66989  33.980  43.187   7.015
 5322POPC   C4A66990  33.577  43.456   7.120
 5322POPC   C1B66991  33.514  43.025   6.367
 5322POPC   C2B66992  33.525  43.017   6.859
 5322POPC   C3B66993  33.705  42.838   7.285
 5322POPC   C4B66994  33.774  42.800   7.768
 5323POPC   NC366995  44.042  31.683   5.462
 5323POPC   PO466996  43.704  31.187   5.518
 5323POPC   GL166997  43.815  31.427   5.842
 5323POPC   GL266998  43.656  31.752   5.777
 5323POPC   C1A66999  44.025  31.408   6.232
 5323POPC   D2A67000  44.167  31.400   6.665
 5323POPC   C3A67001  43.909  31.224   6.989
 5323POPC   C4A67002  44.001  31.286   7.418
 5323POPC   C1B67003  43.625  31.742   6.206
 5323POPC   C2B67004  43.648  31.567   6.586
 5323POPC   C3B67005  43.755  31.707   6.956
 5323POPC   C4B67006  43.518  31.682   7.296
 5324POPC   NC367007  24.413  14.712   5.274
 5324POPC   PO467008  24.324  13.985   5.392
 5324POPC   GL167009  24.449  14.321   5.624
 5324POPC   GL267010  24.195  14.531   5.725
 5324POPC   C1A67011  24.627  14.375   6.012
 5324POPC   D2A67012  24.491  14.444   6.428
 5324POPC   C3A67013  24.762  14.445   6.762
 5324POPC   C4A67014  24.700  14.512   7.188
 5324POPC   C1B67015  24.145  14.211   6.061
 5324POPC   C2B67016  24.047  14.190   6.525
 5324POPC   C3B67017  24.248  14.400   6.916
 5324POPC   C4B67018  24.204  14.678   7.302
 5325POPC   NC367019  16.264   4.356   5.369
 5325POPC   PO467020  15.699   3.987   5.365
 5325POPC   GL167021  15.823   4.191   5.768
 5325POPC   GL267022  16.075   4.437   5.831
 5325POPC   C1A67023  15.679   4.406   6.167
 5325POPC   D2A67024  15.794   4.530   6.563
 5325POPC   C3A67025  15.634   4.245   6.874
 5325POPC   C4A67026  15.813   4.208   7.258
 5325POPC   C1B67027  16.215   4.365   6.258
 5325POPC   C2B67028  16.329   4.062   6.598
 5325POPC   C3B67029  16.485   4.152   7.018
 5325POPC   C4B67030  16.281   4.392   7.332
 5326POPC   NC367031  14.660   0.426   5.333
 5326POPC   PO467032  14.204   0.764   5.481
 5326POPC   GL167033  14.386   0.476   5.801
 5326POPC   GL267034  14.662   0.221   5.814
 5326POPC   C1A67035  14.409   0.512   6.261
 5326POPC   D2A67036  14.715   0.663   6.573
 5326POPC   C3A67037  14.587   0.558   7.013
 5326POPC   C4A67038  14.203   0.707   7.235
 5326POPC   C1B67039  14.828   0.214   6.246
 5326POPC   C2B67040  14.623   0.141   6.653
 5326POPC   C3B67041  14.809   0.050   7.055
 5326POPC   C4B67042  14.888   0.317   7.405
 5327POPC   NC367043  28.563  44.761   5.389
 5327POPC   PO467044  27.890  44.949   5.406
 5327POPC   GL167045  28.161  44.787   5.733
 5327POPC   GL267046  28.098  44.455   5.885
 5327POPC   C1A67047  28.166  44.851   6.183
 5327POPC   D2A67048  28.311  44.639   6.519
 5327POPC   C3A67049  28.192  44.706   6.907
 5327POPC   C4A67050  28.460  44.966   7.101
 5327POPC   C1B67051  28.541  44.493   6.085
 5327POPC   C2B67052  28.755  44.378   6.500
 5327POPC   C3B67053  28.541  44.346   6.892
 5327POPC   C4B67054  28.292  44.300   7.267
 5328POPC   NC367055  23.450   7.003   5.369
 5328POPC   PO467056  23.686   7.661   5.270
 5328POPC   GL167057  23.578   7.465   5.683
 5328POPC   GL267058  23.763   7.187   5.744
 5328POPC   C1A67059  23.727   7.531   6.133
 5328POPC   D2A67060  23.841   7.662   6.557
 5328POPC   C3A67061  23.472   7.584   6.794
 5328POPC   C4A67062  23.407   7.420   7.191
 5328POPC   C1B67063  23.532   7.013   6.087
 5328POPC   C2B67064  23.739   6.959   6.481
 5328POPC   C3B67065  23.737   7.145   6.896
 5328POPC   C4B67066  23.750   7.078   7.342
 5329POPC   NC367067  12.404  22.573   5.472
 5329POPC   PO467068  13.044  22.368   5.561
 5329POPC   GL167069  12.890  22.257   5.910
 5329POPC   GL267070  12.562  22.402   5.921
 5329POPC   C1A67071  12.853  22.447   6.321
 5329POPC   D2A67072  12.745  22.664   6.671
 5329POPC   C3A67073  13.025  22.507   6.951
 5329POPC   C4A67074  13.021  22.136   7.184
 5329POPC   C1B67075  12.524  22.040   6.195
 5329POPC   C2B67076  12.462  21.848   6.608
 5329POPC   C3B67077  12.578  21.882   7.056
 5329POPC   C4B67078  12.635  22.100   7.481
 5330POPC   NC367079  33.806  38.014   5.596
 5330POPC   PO467080  33.937  38.634   5.475
 5330POPC   GL167081  33.631  38.482   5.757
 5330POPC   GL267082  33.941  38.389   5.927
 5330POPC   C1A67083  33.493  38.259   6.153
 5330POPC   D2A67084  33.334  38.219   6.578
 5330POPC   C3A67085  33.662  38.442   6.821
 5330POPC   C4A67086  33.533  38.485   7.230
 5330POPC   C1B67087  34.193  38.162   6.186
 5330POPC   C2B67088  34.125  38.305   6.572
 5330POPC   C3B67089  34.122  38.161   6.945
 5330POPC   C4B67090  34.012  38.377   7.303
 5331POPC   NC367091  11.823  24.060   5.296
 5331POPC   PO467092  12.284  23.676   5.371
 5331POPC   GL167093  12.096  23.613   5.768
 5331POPC   GL267094  12.034  23.953   5.837
 5331POPC   C1A67095  11.867  23.611   6.179
 5331POPC   D2A67096  11.950  23.817   6.571
 5331POPC   C3A67097  11.754  23.649   6.918
 5331POPC   C4A67098  11.688  23.749   7.307
 5331POPC   C1B67099  12.302  23.976   6.227
 5331POPC   C2B67100  12.365  24.099   6.687
 5331POPC   C3B67101  12.127  23.985   7.068
 5331POPC   C4B67102  12.159  23.565   7.242
 5332POPC   NC367103  38.655  31.827   5.392
 5332POPC   PO467104  38.278  31.242   5.296
 5332POPC   GL167105  38.555  31.384   5.648
 5332POPC   GL267106  38.816  31.144   5.736
 5332POPC   C1A67107  38.726  31.511   6.098
 5332POPC   D2A67108  38.901  31.553   6.540
 5332POPC   C3A67109  38.643  31.646   6.926
 5332POPC   C4A67110  38.368  31.577   7.314
 5332POPC   C1B67111  38.436  31.084   6.048
 5332POPC   C2B67112  38.410  31.243   6.497
 5332POPC   C3B67113  38.408  31.180   6.977
 5332POPC   C4B67114  38.291  31.075   7.417
 5333POPC   NC367115  16.055  24.782   5.410
 5333POPC   PO467116  15.926  24.113   5.456
 5333POPC   GL167117  15.845  24.334   5.856
 5333POPC   GL267118  15.741  24.712   5.817
 5333POPC   C1A67119  16.075  24.194   6.244
 5333POPC   D2A67120  16.341  24.171   6.635
 5333POPC   C3A67121  16.086  24.189   7.024
 5333POPC   C4A67122  15.861  24.286   7.423
 5333POPC   C1B67123  15.923  24.704   6.232
 5333POPC   C2B67124  15.960  24.532   6.636
 5333POPC   C3B67125  16.183  24.720   6.958
 5333POPC   C4B67126  16.005  24.947   7.271
 5334POPC   NC367127   1.571   5.265   5.315
 5334POPC   PO467128   2.180   4.925   5.413
 5334POPC   GL167129   2.027   5.220   5.751
 5334POPC   GL267130   1.687   5.278   5.804
 5334POPC   C1A67131   1.980   5.353   6.209
 5334POPC   D2A67132   1.945   5.120   6.595
 5334POPC   C3A67133   2.003   5.215   7.039
 5334POPC   C4A67134   2.031   4.926   7.380
 5334POPC   C1B67135   1.687   4.922   6.109
 5334POPC   C2B67136   1.478   4.919   6.517
 5334POPC   C3B67137   1.661   4.830   6.945
 5334POPC   C4B67138   1.546   5.031   7.356
 5335POPC   NC367139  28.948  13.516   5.434
 5335POPC   PO467140  29.511  13.927   5.426
 5335POPC   GL167141  29.343  13.656   5.755
 5335POPC   GL267142  29.109  13.884   5.901
 5335POPC   C1A67143  29.402  13.649   6.224
 5335POPC   D2A67144  29.697  13.747   6.498
 5335POPC   C3A67145  29.590  13.664   6.929
 5335POPC   C4A67146  29.232  13.445   7.145
 5335POPC   C1B67147  28.947  13.473   6.102
 5335POPC   C2B67148  28.812  13.345   6.538
 5335POPC   C3B67149  28.779  13.542   6.941
 5335POPC   C4B67150  28.777  13.309   7.335
 5336POPC   NC367151   7.338  21.488   5.318
 5336POPC   PO467152   7.804  21.234   5.651
 5336POPC   GL167153   7.527  21.536   5.810
 5336POPC   GL267154   7.211  21.332   5.830
 5336POPC   C1A67155   7.380  21.743   6.193
 5336POPC   D2A67156   7.190  21.583   6.620
 5336POPC   C3A67157   7.414  21.604   7.036
 5336POPC   C4A67158   7.698  21.548   7.449
 5336POPC   C1B67159   7.450  21.232   6.246
 5336POPC   C2B67160   7.515  21.164   6.700
 5336POPC   C3B67161   7.672  21.174   7.109
 5336POPC   C4B67162   7.551  21.051   7.517
 5337POPC   NC367163  15.869  34.738   5.170
 5337POPC   PO467164  16.126  34.234   5.494
 5337POPC   GL167165  16.074  34.595   5.707
 5337POPC   GL267166  15.764  34.587   5.806
 5337POPC   C1A67167  16.136  34.608   6.157
 5337POPC   D2A67168  16.361  34.423   6.511
 5337POPC   C3A67169  16.120  34.505   6.873
 5337POPC   C4A67170  16.211  34.644   7.285
 5337POPC   C1B67171  15.594  34.407   6.176
 5337POPC   C2B67172  15.730  34.564   6.529
 5337POPC   C3B67173  15.633  34.924   6.765
 5337POPC   C4B67174  15.721  34.766   7.146
 5338POPC   NC367175   3.129  39.427   5.284
 5338POPC   PO467176   3.808  39.310   5.317
 5338POPC   GL167177   3.478  39.272   5.641
 5338POPC   GL267178   3.747  39.402   5.833
 5338POPC   C1A67179   3.258  39.339   6.072
 5338POPC   D2A67180   3.271  39.071   6.464
 5338POPC   C3A67181   3.429  39.176   6.881
 5338POPC   C4A67182   3.224  39.135   7.272
 5338POPC   C1B67183   3.706  39.104   6.149
 5338POPC   C2B67184   3.831  39.017   6.569
 5338POPC   C3B67185   3.809  38.758   6.918
 5338POPC   C4B67186   3.708  38.969   7.283
 5339POPC   NC367187  35.509   8.847   5.385
 5339POPC   PO467188  35.175   9.365   5.108
 5339POPC   GL167189  35.167   9.137   5.622
 5339POPC   GL267190  35.144   8.739   5.731
 5339POPC   C1A67191  35.030   9.152   6.100
 5339POPC   D2A67192  35.119   9.265   6.575
 5339POPC   C3A67193  35.108   9.020   6.965
 5339POPC   C4A67194  35.485   9.021   7.264
 5339POPC   C1B67195  35.023   8.634   6.188
 5339POPC   C2B67196  35.032   8.608   6.667
 5339POPC   C3B67197  34.879   8.572   7.108
 5339POPC   C4B67198  35.061   8.827   7.453
 5340POPC   NC367199   0.311  32.237   5.448
 5340POPC   PO467200   0.896  31.824   5.720
 5340POPC   GL167201   0.522  32.056   5.882
 5340POPC   GL267202   0.629  32.395   5.844
 5340POPC   C1A67203   0.258  32.135   6.280
 5340POPC   D2A67204   0.119  32.267   6.721
 5340POPC   C3A67205   0.402  32.249   7.096
 5340POPC   C4A67206   0.313  31.963   7.441
 5340POPC   C1B67207   0.541  32.561   6.263
 5340POPC   C2B67208   0.537  32.611   6.718
 5340POPC   C3B67209   0.709  32.695   7.135
 5340POPC   C4B67210   0.716  32.500   7.551
 5341POPC   NC367211  17.377  34.689   5.437
 5341POPC   PO467212  17.451  33.961   5.381
 5341POPC   GL167213  17.618  34.269   5.743
 5341POPC   GL267214  17.521  34.617   5.904
 5341POPC   C1A67215  17.503  34.219   6.204
 5341POPC   D2A67216  17.408  34.356   6.627
 5341POPC   C3A67217  17.710  34.476   6.910
 5341POPC   C4A67218  17.822  34.324   7.316
 5341POPC   C1B67219  17.764  34.677   6.268
 5341POPC   C2B67220  17.546  34.846   6.611
 5341POPC   C3B67221  17.224  34.783   6.908
 5341POPC   C4B67222  17.446  34.705   7.281
 5342POPC   NC367223  10.570   8.827   5.407
 5342POPC   PO467224  10.610   8.139   5.477
 5342POPC   GL167225  10.463   8.130   5.887
 5342POPC   GL267226  10.815   8.199   5.976
 5342POPC   C1A67227  10.387   8.183   6.353
 5342POPC   D2A67228  10.397   8.479   6.723
 5342POPC   C3A67229  10.139   8.326   7.077
 5342POPC   C4A67230  10.305   8.255   7.502
 5342POPC   C1B67231  10.852   8.380   6.404
 5342POPC   C2B67232  10.790   8.112   6.736
 5342POPC   C3B67233  10.644   8.194   7.117
 5342POPC   C4B67234  10.801   8.409   7.461
 5343POPC   NC367235  28.932  37.190   5.535
 5343POPC   PO467236  29.283  36.663   5.394
 5343POPC   GL167237  29.151  36.771   5.802
 5343POPC   GL267238  29.198  36.423   5.936
 5343POPC   C1A67239  28.988  37.056   6.174
 5343POPC   D2A67240  28.863  37.187   6.599
 5343POPC   C3A67241  28.856  36.941   6.972
 5343POPC   C4A67242  28.935  37.095   7.397
 5343POPC   C1B67243  28.881  36.541   6.164
 5343POPC   C2B67244  28.905  36.639   6.560
 5343POPC   C3B67245  29.122  36.511   6.948
 5343POPC   C4B67246  29.319  36.837   7.174
 5344POPC   NC367247   4.239  39.130   5.403
 5344POPC   PO467248   4.163  39.696   5.774
 5344POPC   GL167249   4.298  39.301   5.889
 5344POPC   GL267250   4.656  39.249   5.974
 5344POPC   C1A67251   4.243  39.121   6.275
 5344POPC   D2A67252   4.387  39.117   6.673
 5344POPC   C3A67253   4.131  39.149   7.016
 5344POPC   C4A67254   4.433  39.047   7.309
 5344POPC   C1B67255   4.509  39.548   6.332
 5344POPC   C2B67256   4.254  39.643   6.721
 5344POPC   C3B67257   4.370  39.578   7.158
 5344POPC   C4B67258   4.502  39.485   7.586
 5345POPC   NC367259   7.428  24.830   5.121
 5345POPC   PO467260   7.418  25.462   5.397
 5345POPC   GL167261   7.431  25.247   5.844
 5345POPC   GL267262   7.145  25.024   5.963
 5345POPC   C1A67263   7.464  25.217   6.326
 5345POPC   D2A67264   7.327  25.349   6.760
 5345POPC   C3A67265   7.457  25.317   7.188
 5345POPC   C4A67266   7.687  25.387   7.568
 5345POPC   C1B67267   7.015  25.416   6.141
 5345POPC   C2B67268   6.858  25.331   6.548
 5345POPC   C3B67269   6.935  25.075   6.898
 5345POPC   C4B67270   6.953  25.334   7.259
 5346POPC   NC367271   6.050  16.550   5.606
 5346POPC   PO467272   5.442  16.807   5.475
 5346POPC   GL167273   5.661  16.804   5.872
 5346POPC   GL267274   5.961  17.003   5.905
 5346POPC   C1A67275   5.709  16.616   6.295
 5346POPC   D2A67276   5.653  16.730   6.727
 5346POPC   C3A67277   5.849  16.572   7.133
 5346POPC   C4A67278   5.810  16.748   7.559
 5346POPC   C1B67279   6.190  16.827   6.299
 5346POPC   C2B67280   6.178  16.828   6.797
 5346POPC   C3B67281   6.218  16.925   7.276
 5346POPC   C4B67282   6.152  17.049   7.774
 5347POPC   NC367283  32.622  27.677   5.477
 5347POPC   PO467284  32.128  27.240   5.469
 5347POPC   GL167285  32.024  27.563   5.820
 5347POPC   GL267286  32.246  27.826   5.783
 5347POPC   C1A67287  32.156  27.728   6.268
 5347POPC   D2A67288  32.318  27.429   6.574
 5347POPC   C3A67289  32.215  27.541   6.988
 5347POPC   C4A67290  32.080  27.342   7.380
 5347POPC   C1B67291  32.575  27.966   6.101
 5347POPC   C2B67292  32.609  27.864   6.553
 5347POPC   C3B67293  32.537  27.953   7.011
 5347POPC   C4B67294  32.516  27.663   7.379
 5348POPC   NC367295   4.011  13.913   5.494
 5348POPC   PO467296   3.424  13.593   5.252
 5348POPC   GL167297   3.352  13.571   5.748
 5348POPC   GL267298   3.295  13.893   5.956
 5348POPC   C1A67299   3.411  13.476   6.232
 5348POPC   D2A67300   3.267  13.832   6.533
 5348POPC   C3A67301   3.443  13.858   6.987
 5348POPC   C4A67302   3.667  13.431   7.052
 5348POPC   C1B67303   3.701  13.888   6.207
 5348POPC   C2B67304   3.796  13.749   6.648
 5348POPC   C3B67305   3.980  13.837   7.083
 5348POPC   C4B67306   3.851  13.953   7.487
 5349POPC   NC367307   6.935  37.562   5.531
 5349POPC   PO467308   7.497  37.816   5.356
 5349POPC   GL167309   7.387  37.640   5.784
 5349POPC   GL267310   7.629  37.429   5.964
 5349POPC   C1A67311   7.151  37.466   6.158
 5349POPC   D2A67312   6.985  37.547   6.591
 5349POPC   C3A67313   7.152  37.475   7.008
 5349POPC   C4A67314   7.258  37.561   7.423
 5349POPC   C1B67315   7.527  37.758   6.309
 5349POPC   C2B67316   7.404  37.826   6.749
 5349POPC   C3B67317   7.637  37.612   7.111
 5349POPC   C4B67318   8.000  37.720   7.350
 5350POPC   NC367319   7.006  23.666   5.079
 5350POPC   PO467320   7.633  23.576   5.279
 5350POPC   GL167321   7.557  23.648   5.774
 5350POPC   GL267322   7.283  23.818   5.865
 5350POPC   C1A67323   7.629  23.780   6.247
 5350POPC   D2A67324   7.689  23.745   6.709
 5350POPC   C3A67325   7.670  24.009   7.086
 5350POPC   C4A67326   7.663  23.858   7.522
 5350POPC   C1B67327   7.103  23.643   6.241
 5350POPC   C2B67328   7.214  23.519   6.654
 5350POPC   C3B67329   7.228  23.755   7.050
 5350POPC   C4B67330   6.917  23.894   7.352
 5351POPC   NC367331  40.808  43.346   5.337
 5351POPC   PO467332  40.488  42.812   5.475
 5351POPC   GL167333  40.881  42.940   5.670
 5351POPC   GL267334  40.997  43.279   5.812
 5351POPC   C1A67335  40.976  42.814   6.081
 5351POPC   D2A67336  40.962  42.863   6.536
 5351POPC   C3A67337  41.006  42.706   6.969
 5351POPC   C4A67338  40.750  42.846   7.320
 5351POPC   C1B67339  41.079  43.302   6.268
 5351POPC   C2B67340  41.079  43.306   6.744
 5351POPC   C3B67341  41.129  43.194   7.186
 5351POPC   C4B67342  41.347  43.298   7.643
 5352POPC   NC367343  42.934  40.832   5.304
 5352POPC   PO467344  43.571  40.652   5.382
 5352POPC   GL167345  43.215  40.819   5.732
 5352POPC   GL267346  42.814  40.964   5.789
 5352POPC   C1A67347  43.177  41.011   6.141
 5352POPC   D2A67348  43.369  40.946   6.523
 5352POPC   C3A67349  43.289  40.806   6.923
 5352POPC   C4A67350  43.451  40.578   7.268
 5352POPC   C1B67351  42.870  40.579   6.025
 5352POPC   C2B67352  43.154  40.504   6.351
 5352POPC   C3B67353  43.111  40.365   6.741
 5352POPC   C4B67354  42.946  40.468   7.129
 5353POPC   NC367355  11.407  21.306   5.444
 5353POPC   PO467356  10.744  21.480   5.371
 5353POPC   GL167357  10.987  21.428   5.772
 5353POPC   GL267358  11.148  21.097   5.855
 5353POPC   C1A67359  11.210  21.497   6.171
 5353POPC   D2A67360  11.330  21.356   6.586
 5353POPC   C3A67361  11.135  21.623   6.854
 5353POPC   C4A67362  11.050  21.766   7.235
 5353POPC   C1B67363  11.478  21.051   6.185
 5353POPC   C2B67364  11.721  21.032   6.588
 5353POPC   C3B67365  11.718  21.259   6.959
 5353POPC   C4B67366  11.366  21.313   7.199
 5354POPC   NC367367  13.115  27.051   5.433
 5354POPC   PO467368  12.407  26.950   5.538
 5354POPC   GL167369  12.774  26.965   5.789
 5354POPC   GL267370  12.992  26.655   5.842
 5354POPC   C1A67371  12.904  27.188   6.146
 5354POPC   D2A67372  12.695  26.976   6.481
 5354POPC   C3A67373  12.755  27.015   6.905
 5354POPC   C4A67374  12.702  26.592   7.098
 5354POPC   C1B67375  13.153  26.763   6.278
 5354POPC   C2B67376  13.109  26.672   6.749
 5354POPC   C3B67377  13.131  26.854   7.199
 5354POPC   C4B67378  13.320  26.813   7.644
 5355POPC   NC367379  24.995   8.805   5.435
 5355POPC   PO467380  24.984   9.520   5.419
 5355POPC   GL167381  24.969   9.227   5.810
 5355POPC   GL267382  25.264   8.963   5.841
 5355POPC   C1A67383  24.927   8.997   6.230
 5355POPC   D2A67384  24.993   8.782   6.635
 5355POPC   C3A67385  25.078   9.020   6.984
 5355POPC   C4A67386  24.857   9.111   7.345
 5355POPC   C1B67387  25.578   8.981   6.186
 5355POPC   C2B67388  25.491   8.998   6.643
 5355POPC   C3B67389  25.577   8.912   7.086
 5355POPC   C4B67390  25.646   8.823   7.532
 5356POPC   NC367391  21.093  24.731   5.165
 5356POPC   PO467392  21.584  24.284   5.254
 5356POPC   GL167393  21.485  24.437   5.697
 5356POPC   GL267394  21.381  24.781   5.741
 5356POPC   C1A67395  21.544  24.534   6.167
 5356POPC   D2A67396  21.647  24.710   6.579
 5356POPC   C3A67397  21.452  24.466   6.920
 5356POPC   C4A67398  21.224  24.074   6.983
 5356POPC   C1B67399  21.112  24.835   6.120
 5356POPC   C2B67400  21.132  24.769   6.591
 5356POPC   C3B67401  20.994  24.663   7.036
 5356POPC   C4B67402  20.943  24.629   7.491
 5357POPC   NC367403  32.556   8.587   5.416
 5357POPC   PO467404  32.974   8.088   5.362
 5357POPC   GL167405  32.957   8.079   5.788
 5357POPC   GL267406  32.947   8.462   5.772
 5357POPC   C1A67407  32.970   7.903   6.210
 5357POPC   D2A67408  33.175   7.922   6.632
 5357POPC   C3A67409  32.987   8.100   7.006
 5357POPC   C4A67410  32.943   8.015   7.460
 5357POPC   C1B67411  33.116   8.394   6.196
 5357POPC   C2B67412  33.090   8.525   6.598
 5357POPC   C3B67413  33.233   8.563   6.983
 5357POPC   C4B67414  32.946   8.542   7.318
 5358POPC   NC367415   8.854  24.301   5.556
 5358POPC   PO467416   9.215  24.854   5.415
 5358POPC   GL167417   9.176  24.617   5.789
 5358POPC   GL267418   8.945  24.898   5.863
 5358POPC   C1A67419   9.092  24.340   6.165
 5358POPC   D2A67420   8.952  24.284   6.593
 5358POPC   C3A67421   9.186  24.559   6.887
 5358POPC   C4A67422   9.344  24.580   7.304
 5358POPC   C1B67423   8.740  24.711   6.178
 5358POPC   C2B67424   8.836  24.791   6.561
 5358POPC   C3B67425   8.680  24.702   6.924
 5358POPC   C4B67426   8.812  24.544   7.290
 5359POPC   NC367427  18.340  34.915   5.584
 5359POPC   PO467428  18.282  35.652   5.488
 5359POPC   GL167429  18.105  35.567   5.877
 5359POPC   GL267430  18.008  35.233   5.804
 5359POPC   C1A67431  18.263  35.619   6.311
 5359POPC   D2A67432  18.375  35.367   6.690
 5359POPC   C3A67433  18.145  35.426   7.099
 5359POPC   C4A67434  18.231  35.474   7.578
 5359POPC   C1B67435  18.062  35.139   6.234
 5359POPC   C2B67436  17.887  35.218   6.632
 5359POPC   C3B67437  17.845  34.983   7.033
 5359POPC   C4B67438  18.117  34.964   7.420
 5360POPC   NC367439  23.292  36.002   5.325
 5360POPC   PO467440  22.651  36.258   5.360
 5360POPC   GL167441  22.787  36.071   5.770
 5360POPC   GL267442  23.144  35.980   5.833
 5360POPC   C1A67443  22.787  36.243   6.197
 5360POPC   D2A67444  22.978  36.413   6.588
 5360POPC   C3A67445  22.791  36.236   6.977
 5360POPC   C4A67446  22.726  36.429   7.409
 5360POPC   C1B67447  23.268  36.018   6.285
 5360POPC   C2B67448  23.250  36.015   6.755
 5360POPC   C3B67449  23.238  35.947   7.204
 5360POPC   C4B67450  23.293  35.694   7.630
 5361POPC   NC367451  14.597   1.311   5.228
 5361POPC   PO467452  14.146   1.574   5.672
 5361POPC   GL167453  14.435   1.315   5.854
 5361POPC   GL267454  14.687   1.494   5.894
 5361POPC   C1A67455  14.343   1.132   6.256
 5361POPC   D2A67456  14.478   1.260   6.644
 5361POPC   C3A67457  14.293   1.172   7.031
 5361POPC   C4A67458  14.496   1.072   7.413
 5361POPC   C1B67459  14.862   1.547   6.276
 5361POPC   C2B67460  14.734   1.678   6.693
 5361POPC   C3B67461  14.706   1.485   7.132
 5361POPC   C4B67462  14.549   1.533   7.587
 5362POPC   NC367463  20.426  29.291   5.341
 5362POPC   PO467464  19.691  29.257   5.329
 5362POPC   GL167465  19.657  29.334   5.800
 5362POPC   GL267466  19.499  29.660   5.906
 5362POPC   C1A67467  19.710  29.035   6.187
 5362POPC   D2A67468  19.879  28.782   6.559
 5362POPC   C3A67469  19.949  28.986   6.983
 5362POPC   C4A67470  19.980  29.343   7.290
 5362POPC   C1B67471  19.759  29.535   6.275
 5362POPC   C2B67472  19.650  29.281   6.656
 5362POPC   C3B67473  19.520  29.257   7.091
 5362POPC   C4B67474  19.617  29.039   7.510
 5363POPC   NC367475  30.132   8.449   5.436
 5363POPC   PO467476  29.774   7.855   5.452
 5363POPC   GL167477  29.955   8.046   5.816
 5363POPC   GL267478  29.871   8.392   5.863
 5363POPC   C1A67479  29.972   8.083   6.283
 5363POPC   D2A67480  30.199   8.269   6.642
 5363POPC   C3A67481  30.313   7.912   6.908
 5363POPC   C4A67482  30.003   7.798   7.192
 5363POPC   C1B67483  29.697   8.518   6.255
 5363POPC   C2B67484  29.681   8.319   6.663
 5363POPC   C3B67485  29.772   8.340   7.125
 5363POPC   C4B67486  29.511   8.576   7.448
 5364POPC   NC367487  23.418  36.703   5.337
 5364POPC   PO467488  23.836  37.280   5.308
 5364POPC   GL167489  23.782  36.904   5.692
 5364POPC   GL267490  24.076  36.881   5.899
 5364POPC   C1A67491  23.714  36.700   6.197
 5364POPC   D2A67492  23.738  36.831   6.702
 5364POPC   C3A67493  23.646  36.731   7.164
 5364POPC   C4A67494  23.919  36.706   7.554
 5364POPC   C1B67495  24.010  37.075   6.344
 5364POPC   C2B67496  24.073  37.211   6.766
 5364POPC   C3B67497  23.915  37.159   7.205
 5364POPC   C4B67498  23.981  37.418   7.571
 5365POPC   NC367499  36.138  17.675   5.415
 5365POPC   PO467500  35.606  17.149   5.437
 5365POPC   GL167501  35.797  17.441   5.793
 5365POPC   GL267502  36.209  17.476   5.885
 5365POPC   C1A67503  35.870  17.565   6.246
 5365POPC   D2A67504  36.223  17.382   6.500
 5365POPC   C3A67505  36.080  17.338   6.918
 5365POPC   C4A67506  35.892  17.576   7.248
 5365POPC   C1B67507  36.296  17.837   6.237
 5365POPC   C2B67508  36.184  17.848   6.704
 5365POPC   C3B67509  36.347  17.734   7.118
 5365POPC   C4B67510  36.268  17.747   7.612
 5366POPC   NC367511  40.797  39.764   5.626
 5366POPC   PO467512  40.886  40.397   5.342
 5366POPC   GL167513  40.754  40.247   5.749
 5366POPC   GL267514  41.095  40.117   5.894
 5366POPC   C1A67515  40.674  40.096   6.205
 5366POPC   D2A67516  40.992  40.190   6.530
 5366POPC   C3A67517  40.892  40.115   6.965
 5366POPC   C4A67518  40.503  40.091   7.243
 5366POPC   C1B67519  41.105  39.771   6.246
 5366POPC   C2B67520  41.044  39.552   6.655
 5366POPC   C3B67521  41.051  39.649   7.112
 5366POPC   C4B67522  41.061  39.600   7.556
 5367POPC   NC367523  25.371  30.540   5.265
 5367POPC   PO467524  24.957  30.975   5.602
 5367POPC   GL167525  25.254  30.828   5.871
 5367POPC   GL267526  25.470  30.504   5.781
 5367POPC   C1A67527  25.144  30.738   6.294
 5367POPC   D2A67528  24.928  30.492   6.615
 5367POPC   C3A67529  25.039  30.600   7.033
 5367POPC   C4A67530  25.112  30.559   7.477
 5367POPC   C1B67531  25.664  30.707   6.149
 5367POPC   C2B67532  25.560  30.846   6.558
 5367POPC   C3B67533  25.522  30.591   6.914
 5367POPC   C4B67534  25.653  30.586   7.319
 5368POPC   NC367535  13.888  36.378   5.381
 5368POPC   PO467536  13.605  35.787   5.452
 5368POPC   GL167537  13.532  36.092   5.773
 5368POPC   GL267538  13.863  36.247   5.871
 5368POPC   C1A67539  13.496  36.047   6.229
 5368POPC   D2A67540  13.597  35.793   6.591
 5368POPC   C3A67541  13.669  36.113   6.901
 5368POPC   C4A67542  13.413  36.388   7.183
 5368POPC   C1B67543  13.819  36.569   6.175
 5368POPC   C2B67544  13.579  36.578   6.541
 5368POPC   C3B67545  13.795  36.597   6.931
 5368POPC   C4B67546  14.052  36.364   7.210
 5369POPC   NC367547  24.529  35.520   5.381
 5369POPC   PO467548  24.811  34.953   5.605
 5369POPC   GL167549  24.724  35.095   5.955
 5369POPC   GL267550  24.449  35.322   5.850
 5369POPC   C1A67551  24.635  35.187   6.342
 5369POPC   D2A67552  24.272  35.294   6.561
 5369POPC   C3A67553  24.404  35.250   6.984
 5369POPC   C4A67554  24.630  35.365   7.389
 5369POPC   C1B67555  24.599  35.669   6.089
 5369POPC   C2B67556  24.639  35.662   6.537
 5369POPC   C3B67557  24.581  35.720   6.973
 5369POPC   C4B67558  24.874  35.866   7.256
 5370POPC   NC367559  10.730  22.035   5.350
 5370POPC   PO467560  11.351  22.234   5.392
 5370POPC   GL167561  11.196  22.332   5.798
 5370POPC   GL267562  11.157  21.968   5.905
 5370POPC   C1A67563  11.346  22.335   6.229
 5370POPC   D2A67564  11.239  22.005   6.514
 5370POPC   C3A67565  11.260  22.144   6.930
 5370POPC   C4A67566  11.081  22.419   7.235
 5370POPC   C1B67567  11.566  21.865   6.141
 5370POPC   C2B67568  11.693  21.775   6.608
 5370POPC   C3B67569  11.594  21.783   7.067
 5370POPC   C4B67570  11.409  22.055   7.440
 5371POPC   NC367571   6.389  11.565   5.496
 5371POPC   PO467572   7.035  11.388   5.695
 5371POPC   GL167573   6.655  11.259   5.873
 5371POPC   GL267574   6.294  11.146   5.805
 5371POPC   C1A67575   6.530  11.506   6.241
 5371POPC   D2A67576   6.601  11.702   6.647
 5371POPC   C3A67577   6.623  11.380   6.957
 5371POPC   C4A67578   6.281  11.367   7.185
 5371POPC   C1B67579   6.419  10.999   6.230
 5371POPC   C2B67580   6.715  11.066   6.544
 5371POPC   C3B67581   6.767  10.874   6.952
 5371POPC   C4B67582   6.577  10.967   7.348
 5372POPC   NC367583  35.853  41.143   5.390
 5372POPC   PO467584  35.402  40.677   5.257
 5372POPC   GL167585  35.478  40.701   5.689
 5372POPC   GL267586  35.454  41.039   5.696
 5372POPC   C1A67587  35.338  40.656   6.155
 5372POPC   D2A67588  35.003  40.606   6.501
 5372POPC   C3A67589  35.114  40.695   6.920
 5372POPC   C4A67590  35.346  40.495   7.214
 5372POPC   C1B67591  35.625  41.080   6.101
 5372POPC   C2B67592  35.448  41.106   6.518
 5372POPC   C3B67593  35.402  41.113   6.975
 5372POPC   C4B67594  35.702  40.870   7.217
 5373POPC   NC367595  15.463  23.978   5.455
 5373POPC   PO467596  15.026  23.557   5.174
 5373POPC   GL167597  15.060  23.618   5.658
 5373POPC   GL267598  15.225  23.876   5.886
 5373POPC   C1A67599  14.932  23.538   6.094
 5373POPC   D2A67600  15.106  23.816   6.416
 5373POPC   C3A67601  15.097  23.702   6.834
 5373POPC   C4A67602  14.910  23.558   7.242
 5373POPC   C1B67603  15.557  24.023   6.168
 5373POPC   C2B67604  15.738  24.034   6.601
 5373POPC   C3B67605  15.592  24.014   7.032
 5373POPC   C4B67606  15.183  23.984   7.241
 5374POPC   NC367607  30.936   7.142   5.391
 5374POPC   PO467608  30.624   7.788   5.456
 5374POPC   GL167609  30.705   7.482   5.743
 5374POPC   GL267610  31.037   7.544   5.707
 5374POPC   C1A67611  30.638   7.541   6.181
 5374POPC   D2A67612  30.557   7.351   6.581
 5374POPC   C3A67613  30.722   7.495   6.954
 5374POPC   C4A67614  30.744   7.226   7.302
 5374POPC   C1B67615  31.174   7.540   6.126
 5374POPC   C2B67616  31.034   7.580   6.541
 5374POPC   C3B67617  31.225   7.572   6.944
 5374POPC   C4B67618  31.038   7.645   7.361
 5375POPC   NC367619  37.002  11.683   5.412
 5375POPC   PO467620  36.554  12.186   5.312
 5375POPC   GL167621  36.735  12.057   5.711
 5375POPC   GL267622  36.607  11.775   5.757
 5375POPC   C1A67623  37.016  12.002   6.121
 5375POPC   D2A67624  37.102  12.180   6.579
 5375POPC   C3A67625  36.973  12.009   7.011
 5375POPC   C4A67626  37.012  12.150   7.487
 5375POPC   C1B67627  36.551  11.820   6.173
 5375POPC   C2B67628  36.600  12.030   6.574
 5375POPC   C3B67629  36.471  11.867   6.973
 5375POPC   C4B67630  36.577  11.923   7.387
 5376POPC   NC367631  26.825  14.282   5.363
 5376POPC   PO467632  27.249  13.883   5.623
 5376POPC   GL167633  26.994  14.199   5.850
 5376POPC   GL267634  26.623  14.223   5.832
 5376POPC   C1A67635  26.890  14.378   6.272
 5376POPC   D2A67636  26.999  14.582   6.693
 5376POPC   C3A67637  27.005  14.394   7.121
 5376POPC   C4A67638  27.116  14.577   7.521
 5376POPC   C1B67639  26.388  14.402   6.152
 5376POPC   C2B67640  26.460  14.514   6.561
 5376POPC   C3B67641  26.535  14.516   6.978
 5376POPC   C4B67642  26.449  14.844   7.210
 5377POPC   NC367643  31.129  27.609   5.124
 5377POPC   PO467644  30.577  27.614   5.472
 5377POPC   GL167645  30.766  27.548   5.837
 5377POPC   GL267646  31.068  27.557   5.731
 5377POPC   C1A67647  30.605  27.399   6.216
 5377POPC   D2A67648  30.384  27.313   6.583
 5377POPC   C3A67649  30.572  27.613   6.851
 5377POPC   C4A67650  30.682  27.581   7.260
 5377POPC   C1B67651  31.095  27.268   6.105
 5377POPC   C2B67652  30.913  27.055   6.449
 5377POPC   C3B67653  30.815  27.154   6.869
 5377POPC   C4B67654  30.998  27.184   7.259
 5378POPC   NC367655  38.718  43.338   5.670
 5378POPC   PO467656  38.237  42.888   5.608
 5378POPC   GL167657  38.334  43.064   5.962
 5378POPC   GL267658  38.655  42.904   5.985
 5378POPC   C1A67659  38.215  42.981   6.425
 5378POPC   D2A67660  38.433  42.765   6.790
 5378POPC   C3A67661  38.483  42.888   7.238
 5378POPC   C4A67662  38.307  42.750   7.663
 5378POPC   C1B67663  38.640  43.234   6.313
 5378POPC   C2B67664  38.543  43.257   6.725
 5378POPC   C3B67665  38.856  43.040   6.904
 5378POPC   C4B67666  39.033  42.898   7.276
 5379POPC   NC367667  11.623  14.299   5.585
 5379POPC   PO467668  11.041  14.467   5.391
 5379POPC   GL167669  11.167  14.425   5.867
 5379POPC   GL267670  11.459  14.264   6.054
 5379POPC   C1A67671  10.999  14.228   6.292
 5379POPC   D2A67672  11.076  13.956   6.677
 5379POPC   C3A67673  11.267  14.112   7.029
 5379POPC   C4A67674  11.144  14.429   7.248
 5379POPC   C1B67675  11.382  14.615   6.333
 5379POPC   C2B67676  11.407  14.586   6.795
 5379POPC   C3B67677  11.621  14.668   7.196
 5379POPC   C4B67678  11.615  14.744   7.661
 5380POPC   NC367679  40.576  38.235   5.507
 5380POPC   PO467680  41.216  38.468   5.441
 5380POPC   GL167681  40.993  38.396   5.812
 5380POPC   GL267682  40.785  38.692   5.760
 5380POPC   C1A67683  40.708  38.458   6.204
 5380POPC   D2A67684  40.585  38.654   6.613
 5380POPC   C3A67685  40.739  38.349   6.899
 5380POPC   C4A67686  41.084  38.278   7.155
 5380POPC   C1B67687  41.092  38.806   6.112
 5380POPC   C2B67688  41.123  38.634   6.530
 5380POPC   C3B67689  41.024  38.769   6.951
 5380POPC   C4B67690  40.632  38.741   7.202
 5381POPC   NC367691  19.759  13.032   5.353
 5381POPC   PO467692  20.182  12.644   5.379
 5381POPC   GL167693  19.883  12.734   5.754
 5381POPC   GL267694  19.570  12.531   5.780
 5381POPC   C1A67695  19.687  12.887   6.145
 5381POPC   D2A67696  19.673  13.140   6.509
 5381POPC   C3A67697  19.774  12.969   6.895
 5381POPC   C4A67698  19.844  13.147   7.284
 5381POPC   C1B67699  19.675  12.390   6.221
 5381POPC   C2B67700  19.524  12.621   6.581
 5381POPC   C3B67701  19.670  12.490   6.960
 5381POPC   C4B67702  19.785  12.635   7.325
 5382POPC   NC367703  15.281   1.963   5.074
 5382POPC   PO467704  14.784   2.223   5.432
 5382POPC   GL167705  14.973   2.126   5.836
 5382POPC   GL267706  15.086   1.808   5.893
 5382POPC   C1A67707  14.845   2.067   6.288
 5382POPC   D2A67708  15.059   2.059   6.706
 5382POPC   C3A67709  14.832   1.990   7.080
 5382POPC   C4A67710  14.877   2.232   7.400
 5382POPC   C1B67711  15.307   1.832   6.257
 5382POPC   C2B67712  15.255   1.603   6.603
 5382POPC   C3B67713  15.308   1.692   7.022
 5382POPC   C4B67714  15.341   2.057   7.199
 5383POPC   NC367715  43.074   5.910   5.294
 5383POPC   PO467716  43.660   6.106   5.454
 5383POPC   GL167717  43.373   5.870   5.706
 5383POPC   GL267718  43.182   6.180   5.749
 5383POPC   C1A67719  43.104   5.746   6.063
 5383POPC   D2A67720  43.192   5.823   6.516
 5383POPC   C3A67721  43.208   5.552   6.906
 5383POPC   C4A67722  43.183   5.775   7.324
 5383POPC   C1B67723  42.907   6.226   6.126
 5383POPC   C2B67724  42.760   6.110   6.547
 5383POPC   C3B67725  42.884   5.940   6.927
 5383POPC   C4B67726  42.799   6.125   7.319
 5384POPC   NC367727  22.019  27.733   5.405
 5384POPC   PO467728  22.383  27.242   5.238
 5384POPC   GL167729  22.366  27.472   5.667
 5384POPC   GL267730  22.567  27.214   5.764
 5384POPC   C1A67731  22.218  27.716   6.084
 5384POPC   D2A67732  22.076  27.591   6.528
 5384POPC   C3A67733  22.298  27.791   6.900
 5384POPC   C4A67734  22.300  28.122   7.241
 5384POPC   C1B67735  22.318  27.224   6.138
 5384POPC   C2B67736  22.304  27.103   6.531
 5384POPC   C3B67737  22.237  27.274   6.900
 5384POPC   C4B67738  22.351  27.459   7.273
 5385POPC   NC367739  27.970  26.827   5.571
 5385POPC   PO467740  27.332  26.909   5.356
 5385POPC   GL167741  27.480  26.711   5.718
 5385POPC   GL267742  27.531  27.072   5.852
 5385POPC   C1A67743  27.624  26.679   6.133
 5385POPC   D2A67744  27.779  26.952   6.393
 5385POPC   C3A67745  27.757  26.908   6.844
 5385POPC   C4A67746  27.807  26.631   7.185
 5385POPC   C1B67747  27.257  27.033   6.214
 5385POPC   C2B67748  27.283  26.843   6.625
 5385POPC   C3B67749  27.269  26.962   7.065
 5385POPC   C4B67750  27.208  26.938   7.544
 5386POPC   NC367751   8.131  36.501   5.338
 5386POPC   PO467752   8.363  35.971   5.265
 5386POPC   GL167753   8.218  36.105   5.696
 5386POPC   GL267754   7.868  36.168   5.646
 5386POPC   C1A67755   8.311  36.061   6.179
 5386POPC   D2A67756   8.091  35.923   6.597
 5386POPC   C3A67757   8.338  36.008   6.999
 5386POPC   C4A67758   8.347  35.827   7.430
 5386POPC   C1B67759   7.869  36.277   6.077
 5386POPC   C2B67760   8.063  36.430   6.462
 5386POPC   C3B67761   7.986  36.352   6.906
 5386POPC   C4B67762   7.894  36.038   7.263
 5387POPC   NC367763  37.617  17.204   5.323
 5387POPC   PO467764  37.945  17.683   5.500
 5387POPC   GL167765  37.965  17.398   5.830
 5387POPC   GL267766  37.618  17.382   5.811
 5387POPC   C1A67767  37.907  17.425   6.286
 5387POPC   D2A67768  37.612  17.544   6.611
 5387POPC   C3A67769  37.781  17.548   7.034
 5387POPC   C4A67770  37.653  17.676   7.435
 5387POPC   C1B67771  37.347  17.151   6.072
 5387POPC   C2B67772  37.375  17.076   6.524
 5387POPC   C3B67773  37.309  17.254   6.954
 5387POPC   C4B67774  37.535  17.179   7.353
 5388POPC   NC367775   9.407  27.859   5.555
 5388POPC   PO467776   8.765  27.615   5.407
 5388POPC   GL167777   8.933  27.539   5.810
 5388POPC   GL267778   9.158  27.226   5.836
 5388POPC   C1A67779   8.743  27.682   6.242
 5388POPC   D2A67780   8.589  27.559   6.684
 5388POPC   C3A67781   8.770  27.760   7.081
 5388POPC   C4A67782   9.126  27.568   7.343
 5388POPC   C1B67783   8.854  27.181   6.148
 5388POPC   C2B67784   9.097  27.379   6.462
 5388POPC   C3B67785   9.075  27.408   6.871
 5388POPC   C4B67786   8.769  27.208   7.154
 5389POPC   NC367787  30.425  20.052   5.616
 5389POPC   PO467788  30.776  19.635   5.209
 5389POPC   GL167789  30.656  19.635   5.711
 5389POPC   GL267790  30.362  19.628   5.895
 5389POPC   C1A67791  30.784  19.834   6.146
 5389POPC   D2A67792  30.640  19.930   6.590
 5389POPC   C3A67793  30.952  20.004   6.914
 5389POPC   C4A67794  31.054  19.661   7.168
 5389POPC   C1B67795  30.263  19.919   6.242
 5389POPC   C2B67796  30.195  20.201   6.593
 5389POPC   C3B67797  30.249  20.006   7.007
 5389POPC   C4B67798  30.364  20.010   7.466
 5390POPC   NC367799  43.042  15.342   5.284
 5390POPC   PO467800  43.257  14.760   5.460
 5390POPC   GL167801  43.192  15.127   5.766
 5390POPC   GL267802  42.865  15.315   5.782
 5390POPC   C1A67803  43.296  15.155   6.224
 5390POPC   D2A67804  43.422  15.117   6.648
 5390POPC   C3A67805  43.269  15.429   6.935
 5390POPC   C4A67806  42.998  15.328   7.297
 5390POPC   C1B67807  42.827  14.979   6.118
 5390POPC   C2B67808  42.905  15.009   6.581
 5390POPC   C3B67809  42.765  15.337   6.847
 5390POPC   C4B67810  42.510  15.525   7.178
 5391POPC   NC367811  25.784   5.664   5.645
 5391POPC   PO467812  26.191   6.195   5.595
 5391POPC   GL167813  26.140   5.886   5.921
 5391POPC   GL267814  26.298   5.551   5.824
 5391POPC   C1A67815  25.978   5.890   6.330
 5391POPC   D2A67816  26.326   5.860   6.636
 5391POPC   C3A67817  26.188   6.126   6.939
 5391POPC   C4A67818  25.935   6.046   7.303
 5391POPC   C1B67819  26.228   5.468   6.266
 5391POPC   C2B67820  25.983   5.473   6.661
 5391POPC   C3B67821  26.141   5.614   7.071
 5391POPC   C4B67822  26.256   5.688   7.513
 5392POPC   NC367823   7.440  29.344   5.461
 5392POPC   PO467824   6.955  28.975   5.190
 5392POPC   GL167825   7.082  28.972   5.694
 5392POPC   GL267826   7.400  29.086   5.876
 5392POPC   C1A67827   7.045  28.948   6.190
 5392POPC   D2A67828   7.032  28.938   6.665
 5392POPC   C3A67829   7.200  29.171   7.077
 5392POPC   C4A67830   7.356  29.105   7.523
 5392POPC   C1B67831   7.446  29.281   6.297
 5392POPC   C2B67832   7.578  29.153   6.718
 5392POPC   C3B67833   7.740  29.168   7.156
 5392POPC   C4B67834   7.764  29.419   7.551
 5393POPC   NC367835  17.322   7.537   5.440
 5393POPC   PO467836  17.849   6.962   5.380
 5393POPC   GL167837  17.698   7.304   5.687
 5393POPC   GL267838  17.664   7.650   5.812
 5393POPC   C1A67839  17.506   7.277   6.113
 5393POPC   D2A67840  17.641   7.269   6.528
 5393POPC   C3A67841  17.393   7.298   6.861
 5393POPC   C4A67842  17.388   7.438   7.266
 5393POPC   C1B67843  17.282   7.731   6.071
 5393POPC   C2B67844  17.263   7.673   6.527
 5393POPC   C3B67845  17.118   7.751   6.981
 5393POPC   C4B67846  17.212   7.874   7.468
 5394POPC   NC367847  29.771   0.823   5.351
 5394POPC   PO467848  29.568   0.164   5.362
 5394POPC   GL167849  29.769   0.408   5.693
 5394POPC   GL267850  29.594   0.699   5.807
 5394POPC   C1A67851  30.024   0.391   6.066
 5394POPC   D2A67852  29.897   0.189   6.450
 5394POPC   C3A67853  29.873   0.343   6.866
 5394POPC   C4A67854  29.606   0.253   7.197
 5394POPC   C1B67855  29.556   0.542   6.229
 5394POPC   C2B67856  29.498   0.654   6.656
 5394POPC   C3B67857  29.565   0.735   7.087
 5394POPC   C4B67858  29.515   0.616   7.524
 5395POPC   NC367859  23.289   9.625   5.503
 5395POPC   PO467860  22.690  10.084   5.476
 5395POPC   GL167861  22.896  10.020   5.889
 5395POPC   GL267862  23.017   9.677   5.929
 5395POPC   C1A67863  23.042   9.965   6.348
 5395POPC   D2A67864  23.075   9.606   6.666
 5395POPC   C3A67865  22.723   9.620   6.954
 5395POPC   C4A67866  22.638   9.683   7.371
 5395POPC   C1B67867  23.347   9.447   6.173
 5395POPC   C2B67868  23.439   9.226   6.555
 5395POPC   C3B67869  23.455   9.351   6.988
 5395POPC   C4B67870  23.142   9.498   7.219
 5396POPC   NC367871  22.409  36.327   4.985
 5396POPC   PO467872  21.853  36.395   5.387
 5396POPC   GL167873  21.999  36.363   5.812
 5396POPC   GL267874  22.356  36.374   5.828
 5396POPC   C1A67875  22.029  36.107   6.214
 5396POPC   D2A67876  21.777  36.148   6.596
 5396POPC   C3A67877  21.887  36.258   7.014
 5396POPC   C4A67878  21.820  35.937   7.306
 5396POPC   C1B67879  22.317  36.518   6.246
 5396POPC   C2B67880  22.382  36.228   6.615
 5396POPC   C3B67881  22.330  35.976   7.013
 5396POPC   C4B67882  22.286  36.146   7.448
 5397POPC   NC367883  33.990  23.116   5.394
 5397POPC   PO467884  33.666  22.457   5.529
 5397POPC   GL167885  33.953  22.743   5.748
 5397POPC   GL267886  33.684  23.000   5.822
 5397POPC   C1A67887  34.098  22.956   6.118
 5397POPC   D2A67888  33.857  22.964   6.487
 5397POPC   C3A67889  33.971  22.890   6.897
 5397POPC   C4A67890  34.030  23.127   7.218
 5397POPC   C1B67891  33.632  22.648   6.145
 5397POPC   C2B67892  33.714  22.454   6.536
 5397POPC   C3B67893  33.623  22.538   6.923
 5397POPC   C4B67894  33.529  22.868   7.150
 5398POPC   NC367895  39.397  37.291   5.424
 5398POPC   PO467896  38.915  36.864   5.392
 5398POPC   GL167897  39.176  36.883   5.764
 5398POPC   GL267898  38.990  36.610   5.882
 5398POPC   C1A67899  39.127  36.943   6.247
 5398POPC   D2A67900  38.913  37.112   6.651
 5398POPC   C3A67901  39.120  36.992   7.050
 5398POPC   C4A67902  39.573  36.948   7.153
 5398POPC   C1B67903  39.133  36.413   6.238
 5398POPC   C2B67904  39.435  36.453   6.570
 5398POPC   C3B67905  39.316  36.510   6.989
 5398POPC   C4B67906  39.522  36.498   7.386
 5399POPC   NC367907  39.601  28.290   5.233
 5399POPC   PO467908  39.026  28.093   5.496
 5399POPC   GL167909  39.119  28.205   5.902
 5399POPC   GL267910  39.257  28.509   5.852
 5399POPC   C1A67911  39.068  28.418   6.320
 5399POPC   D2A67912  39.148  28.180   6.682
 5399POPC   C3A67913  39.225  28.381   7.045
 5399POPC   C4A67914  39.171  28.250   7.437
 5399POPC   C1B67915  39.565  28.631   6.173
 5399POPC   C2B67916  39.508  28.557   6.605
 5399POPC   C3B67917  39.714  28.534   6.984
 5399POPC   C4B67918  39.586  28.509   7.472
 5400POPC   NC367919   4.074   6.338   5.383
 5400POPC   PO467920   4.084   5.664   5.489
 5400POPC   GL167921   4.294   5.746   5.847
 5400POPC   GL267922   4.190   6.115   5.873
 5400POPC   C1A67923   4.181   5.739   6.264
 5400POPC   D2A67924   4.220   5.965   6.621
 5400POPC   C3A67925   4.231   5.682   6.981
 5400POPC   C4A67926   4.293   5.734   7.434
 5400POPC   C1B67927   3.920   6.195   6.237
 5400POPC   C2B67928   3.731   6.279   6.656
 5400POPC   C3B67929   3.908   6.070   7.001
 5400POPC   C4B67930   4.056   6.165   7.387
 5401POPC   NC367931  10.816  30.100   5.549
 5401POPC   PO467932  10.360  29.613   5.474
 5401POPC   GL167933  10.417  29.844   5.849
 5401POPC   GL267934  10.289  30.205   5.756
 5401POPC   C1A67935  10.670  29.680   6.205
 5401POPC   D2A67936  10.935  29.695   6.586
 5401POPC   C3A67937  10.651  29.705   6.910
 5401POPC   C4A67938  10.565  29.550   7.278
 5401POPC   C1B67939  10.498  30.301   6.140
 5401POPC   C2B67940  10.531  30.052   6.521
 5401POPC   C3B67941  10.507  30.186   6.945
 5401POPC   C4B67942  10.952  30.190   7.112
 5402POPC   NC367943   1.678  17.189   5.596
 5402POPC   PO467944   1.922  16.612   5.379
 5402POPC   GL167945   2.020  16.723   5.809
 5402POPC   GL267946   1.686  16.755   5.874
 5402POPC   C1A67947   1.993  16.877   6.262
 5402POPC   D2A67948   1.861  17.081   6.648
 5402POPC   C3A67949   2.113  16.939   6.965
 5402POPC   C4A67950   2.108  16.527   7.159
 5402POPC   C1B67951   1.604  16.530   6.246
 5402POPC   C2B67952   1.535  16.665   6.657
 5402POPC   C3B67953   1.660  16.750   7.091
 5402POPC   C4B67954   1.733  16.547   7.506
 5403POPC   NC367955  23.215  23.509   5.315
 5403POPC   PO467956  22.542  23.443   5.394
 5403POPC   GL167957  22.796  23.760   5.611
 5403POPC   GL267958  22.552  23.876   5.846
 5403POPC   C1A67959  23.060  23.719   6.012
 5403POPC   D2A67960  23.027  23.659   6.466
 5403POPC   C3A67961  23.231  23.833   6.805
 5403POPC   C4A67962  23.170  23.794   7.243
 5403POPC   C1B67963  22.539  23.667   6.241
 5403POPC   C2B67964  22.593  23.801   6.681
 5403POPC   C3B67965  22.682  23.639   7.098
 5403POPC   C4B67966  22.499  23.415   7.457
 5404POPC   NC367967  29.219  34.488   5.401
 5404POPC   PO467968  29.276  35.174   5.290
 5404POPC   GL167969  29.309  34.878   5.736
 5404POPC   GL267970  29.423  34.513   5.848
 5404POPC   C1A67971  29.036  34.713   6.126
 5404POPC   D2A67972  29.206  34.660   6.572
 5404POPC   C3A67973  28.999  34.503   6.968
 5404POPC   C4A67974  28.871  34.658   7.399
 5404POPC   C1B67975  29.619  34.599   6.218
 5404POPC   C2B67976  29.676  34.428   6.608
 5404POPC   C3B67977  29.546  34.605   6.979
 5404POPC   C4B67978  29.371  34.557   7.384
 5405POPC   NC367979  17.974  15.032   5.625
 5405POPC   PO467980  17.405  14.712   5.371
 5405POPC   GL167981  17.455  14.972   5.753
 5405POPC   GL267982  17.328  15.332   5.807
 5405POPC   C1A67983  17.566  14.983   6.197
 5405POPC   D2A67984  17.399  14.962   6.625
 5405POPC   C3A67985  17.750  15.057   6.884
 5405POPC   C4A67986  17.853  15.299   7.251
 5405POPC   C1B67987  17.157  15.349   6.250
 5405POPC   C2B67988  17.271  15.476   6.688
 5405POPC   C3B67989  17.369  15.328   7.126
 5405POPC   C4B67990  17.324  15.522   7.543
 5406POPC   NC367991  15.935  33.299   5.397
 5406POPC   PO467992  16.126  32.739   5.089
 5406POPC   GL167993  16.141  32.889   5.634
 5406POPC   GL267994  16.204  33.220   5.809
 5406POPC   C1A67995  15.912  32.885   6.075
 5406POPC   D2A67996  15.597  32.998   6.426
 5406POPC   C3A67997  15.685  33.019   6.892
 5406POPC   C4A67998  15.852  32.748   7.235
 5406POPC   C1B67999  16.226  33.323   6.221
 5406POPC   C2B68000  16.136  33.441   6.632
 5406POPC   C3B68001  16.273  33.596   7.013
 5406POPC   C4B68002  16.138  33.431   7.403
 5407POPC   NC368003  20.672  23.211   5.323
 5407POPC   PO468004  20.382  23.723   5.128
 5407POPC   GL168005  20.427  23.525   5.657
 5407POPC   GL268006  20.102  23.474   5.848
 5407POPC   C1A68007  20.660  23.523   6.105
 5407POPC   D2A68008  20.971  23.678   6.456
 5407POPC   C3A68009  20.835  23.727   6.914
 5407POPC   C4A68010  20.580  23.712   7.275
 5407POPC   C1B68011  20.207  23.707   6.206
 5407POPC   C2B68012  20.438  23.623   6.594
 5407POPC   C3B68013  20.438  23.355   6.946
 5407POPC   C4B68014  20.302  23.121   7.316
 5408POPC   NC368015  41.517  11.573   5.516
 5408POPC   PO468016  41.955  11.140   5.088
 5408POPC   GL168017  41.562  11.101   5.629
 5408POPC   GL268018  41.727  11.321   5.959
 5408POPC   C1A68019  41.268  11.314   6.073
 5408POPC   D2A68020  41.405  11.265   6.543
 5408POPC   C3A68021  41.319  11.521   6.931
 5408POPC   C4A68022  41.315  11.261   7.298
 5408POPC   C1B68023  41.646  11.647   6.297
 5408POPC   C2B68024  41.872  11.560   6.693
 5408POPC   C3B68025  41.790  11.417   7.106
 5408POPC   C4B68026  41.582  11.663   7.432
 5409POPC   NC368027  30.353  25.425   5.437
 5409POPC   PO468028  29.738  25.109   5.405
 5409POPC   GL168029  29.853  25.171   5.774
 5409POPC   GL268030  30.185  25.015   5.720
 5409POPC   C1A68031  29.722  25.131   6.211
 5409POPC   D2A68032  29.682  25.425   6.556
 5409POPC   C3A68033  29.853  25.266   6.929
 5409POPC   C4A68034  30.031  25.569   7.168
 5409POPC   C1B68035  30.213  25.230   6.108
 5409POPC   C2B68036  30.155  25.060   6.516
 5409POPC   C3B68037  30.447  24.913   6.812
 5409POPC   C4B68038  30.298  25.074   7.180
 5410POPC   NC368039   7.027  28.322   5.605
 5410POPC   PO468040   7.537  28.586   5.202
 5410POPC   GL168041   7.521  28.594   5.716
 5410POPC   GL268042   7.383  28.322   5.983
 5410POPC   C1A68043   7.564  28.737   6.193
 5410POPC   D2A68044   7.512  28.512   6.585
 5410POPC   C3A68045   7.783  28.529   6.929
 5410POPC   C4A68046   7.847  28.237   7.242
 5410POPC   C1B68047   7.069  28.446   6.315
 5410POPC   C2B68048   7.036  28.443   6.767
 5410POPC   C3B68049   7.251  28.656   7.072
 5410POPC   C4B68050   6.970  28.803   7.382
 5411POPC   NC368051  15.386  23.314   5.021
 5411POPC   PO468052  15.323  22.797   5.420
 5411POPC   GL168053  15.174  22.733   5.832
 5411POPC   GL268054  15.030  23.085   5.781
 5411POPC   C1A68055  15.075  22.716   6.297
 5411POPC   D2A68056  15.329  22.833   6.658
 5411POPC   C3A68057  15.160  22.688   7.023
 5411POPC   C4A68058  14.719  22.712   7.116
 5411POPC   C1B68059  15.262  23.140   6.146
 5411POPC   C2B68060  15.104  23.284   6.528
 5411POPC   C3B68061  15.070  23.181   6.958
 5411POPC   C4B68062  15.269  23.059   7.355
 5412POPC   NC368063  33.181  44.130   5.610
 5412POPC   PO468064  32.909  43.470   5.480
 5412POPC   GL168065  32.956  43.699   5.815
 5412POPC   GL268066  32.745  43.975   5.880
 5412POPC   C1A68067  33.102  43.759   6.212
 5412POPC   D2A68068  33.164  43.965   6.601
 5412POPC   C3A68069  33.141  43.687   6.957
 5412POPC   C4A68070  32.915  43.664   7.355
 5412POPC   C1B68071  32.828  44.198   6.245
 5412POPC   C2B68072  32.666  44.152   6.646
 5412POPC   C3B68073  32.883  44.119   7.012
 5412POPC   C4B68074  32.767  44.167   7.409
 5413POPC   NC368075  36.449  24.343   5.545
 5413POPC   PO468076  36.050  24.872   5.393
 5413POPC   GL168077  36.050  24.606   5.759
 5413POPC   GL268078  36.321  24.790   5.875
 5413POPC   C1A68079  36.200  24.452   6.230
 5413POPC   D2A68080  36.273  24.649   6.680
 5413POPC   C3A68081  36.078  24.478   7.052
 5413POPC   C4A68082  36.384  24.186   7.209
 5413POPC   C1B68083  35.922  24.863   6.172
 5413POPC   C2B68084  35.794  24.765   6.620
 5413POPC   C3B68085  35.778  24.926   7.078
 5413POPC   C4B68086  35.810  24.675   7.490
 5414POPC   NC368087  43.068  21.518   5.402
 5414POPC   PO468088  43.677  21.290   5.281
 5414POPC   GL168089  43.417  21.364   5.757
 5414POPC   GL268090  42.980  21.277   5.840
 5414POPC   C1A68091  43.315  21.269   6.210
 5414POPC   D2A68092  42.977  21.284   6.512
 5414POPC   C3A68093  43.219  21.406   6.848
 5414POPC   C4A68094  43.082  21.326   7.246
 5414POPC   C1B68095  42.925  21.646   6.118
 5414POPC   C2B68096  42.937  21.810   6.549
 5414POPC   C3B68097  42.831  21.698   6.949
 5414POPC   C4B68098  42.892  21.790   7.391
 5415POPC   NC368099  27.750  44.499   5.491
 5415POPC   PO468100  27.333   0.029   5.282
 5415POPC   GL168101  27.368  44.874   5.773
 5415POPC   GL268102  27.672  44.805   5.881
 5415POPC   C1A68103  27.303  44.844   6.272
 5415POPC   D2A68104  27.430  44.654   6.710
 5415POPC   C3A68105  27.626  44.863   7.082
 5415POPC   C4A68106  27.611  44.797   7.533
 5415POPC   C1B68107  27.738  44.578   6.256
 5415POPC   C2B68108  27.881  44.392   6.618
 5415POPC   C3B68109  27.817  44.377   7.030
 5415POPC   C4B68110  27.758  44.310   7.434
 5416POPC   NC368111  34.613   0.194   5.438
 5416POPC   PO468112  34.384   0.812   5.248
 5416POPC   GL168113  34.538   0.711   5.659
 5416POPC   GL268114  34.322   0.431   5.788
 5416POPC   C1A68115  34.586   0.746   6.123
 5416POPC   D2A68116  34.374   0.676   6.546
 5416POPC   C3A68117  34.580   0.622   6.974
 5416POPC   C4A68118  34.528   0.739   7.427
 5416POPC   C1B68119  34.477   0.241   6.185
 5416POPC   C2B68120  34.633   0.200   6.603
 5416POPC   C3B68121  34.518   0.096   7.016
 5416POPC   C4B68122  34.718   0.279   7.350
 5417POPC   NC368123   0.852   8.171   5.209
 5417POPC   PO468124   0.117   8.060   5.283
 5417POPC   GL168125   0.345   8.003   5.709
 5417POPC   GL268126   0.689   7.964   5.793
 5417POPC   C1A68127   0.339   7.966   6.166
 5417POPC   D2A68128   0.418   8.161   6.561
 5417POPC   C3A68129   0.294   7.962   6.944
 5417POPC   C4A68130   0.082   8.205   7.255
 5417POPC   C1B68131   0.893   8.037   6.144
 5417POPC   C2B68132   0.865   8.366   6.400
 5417POPC   C3B68133   0.782   8.382   6.823
 5417POPC   C4B68134   0.629   8.259   7.203
 5418POPC   NC368135  34.843  10.457   5.442
 5418POPC   PO468136  35.472  10.539   5.489
 5418POPC   GL168137  35.218  10.396   5.875
 5418POPC   GL268138  34.950  10.122   5.816
 5418POPC   C1A68139  35.249  10.579   6.324
 5418POPC   D2A68140  35.548  10.750   6.660
 5418POPC   C3A68141  35.449  10.919   7.094
 5418POPC   C4A68142  35.331  10.651   7.489
 5418POPC   C1B68143  34.961  10.132   6.274
 5418POPC   C2B68144  35.126  10.245   6.693
 5418POPC   C3B68145  35.053  10.378   7.128
 5418POPC   C4B68146  35.095  10.158   7.504
 5419POPC   NC368147  13.673  23.855   5.305
 5419POPC   PO468148  13.462  23.274   5.490
 5419POPC   GL168149  13.519  23.646   5.773
 5419POPC   GL268150  13.858  23.825   5.792
 5419POPC   C1A68151  13.645  23.610   6.219
 5419POPC   D2A68152  13.972  23.587   6.544
 5419POPC   C3A68153  13.768  23.622   6.944
 5419POPC   C4A68154  13.468  23.500   7.280
 5419POPC   C1B68155  13.692  24.108   6.128
 5419POPC   C2B68156  13.633  24.003   6.590
 5419POPC   C3B68157  13.714  24.125   7.054
 5419POPC   C4B68158  13.829  23.857   7.413
 5420POPC   NC368159  42.173  17.669   5.569
 5420POPC   PO468160  42.459  17.104   5.387
 5420POPC   GL168161  42.474  17.348   5.829
 5420POPC   GL268162  42.151  17.322   5.967
 5420POPC   C1A68163  42.402  17.755   6.160
 5420POPC   D2A68164  42.379  17.895   6.617
 5420POPC   C3A68165  42.601  17.611   6.920
 5420POPC   C4A68166  42.696  17.644   7.360
 5420POPC   C1B68167  42.356  17.317   6.393
 5420POPC   C2B68168  42.151  17.458   6.768
 5420POPC   C3B68169  42.216  17.341   7.182
 5420POPC   C4B68170  42.005  17.099   7.482
 5421POPC   NC368171  30.967  11.363   5.467
 5421POPC   PO468172  30.273  11.107   5.442
 5421POPC   GL168173  30.302  11.258   5.846
 5421POPC   GL268174  30.494  11.567   5.881
 5421POPC   C1A68175  30.317  11.157   6.269
 5421POPC   D2A68176  30.405  10.941   6.640
 5421POPC   C3A68177  30.381  11.255   6.940
 5421POPC   C4A68178  30.698  11.471   7.154
 5421POPC   C1B68179  30.839  11.541   6.182
 5421POPC   C2B68180  30.725  11.427   6.597
 5421POPC   C3B68181  30.896  11.102   6.847
 5421POPC   C4B68182  31.055  11.102   7.244
 5422POPC   NC368183  34.320  29.209   5.424
 5422POPC   PO468184  34.892  29.585   5.562
 5422POPC   GL168185  34.703  29.357   5.941
 5422POPC   GL268186  34.453  29.084   5.924
 5422POPC   C1A68187  34.591  29.248   6.392
 5422POPC   D2A68188  34.330  28.991   6.685
 5422POPC   C3A68189  34.375  29.089   7.112
 5422POPC   C4A68190  34.750  29.329   7.138
 5422POPC   C1B68191  34.430  28.744   6.230
 5422POPC   C2B68192  34.591  28.567   6.610
 5422POPC   C3B68193  34.778  28.827   6.962
 5422POPC   C4B68194  34.707  28.888   7.442
 5423POPC   NC368195   2.812   3.123   5.454
 5423POPC   PO468196   2.639   2.510   5.184
 5423POPC   GL168197   2.652   2.663   5.628
 5423POPC   GL268198   2.418   2.933   5.700
 5423POPC   C1A68199   2.905   2.772   6.016
 5423POPC   D2A68200   2.814   2.762   6.469
 5423POPC   C3A68201   3.000   2.674   6.883
 5423POPC   C4A68202   2.961   2.599   7.317
 5423POPC   C1B68203   2.399   2.847   6.134
 5423POPC   C2B68204   2.397   3.038   6.533
 5423POPC   C3B68205   2.498   2.838   6.911
 5423POPC   C4B68206   2.426   2.814   7.330
 5424POPC   NC368207  13.680   5.305   5.431
 5424POPC   PO468208  13.321   4.717   5.538
 5424POPC   GL168209  13.489   5.055   5.841
 5424POPC   GL268210  13.873   4.996   5.818
 5424POPC   C1A68211  13.685   5.427   6.100
 5424POPC   D2A68212  14.018   5.392   6.445
 5424POPC   C3A68213  13.832   5.221   6.825
 5424POPC   C4A68214  13.604   5.206   7.203
 5424POPC   C1B68215  13.794   4.947   6.266
 5424POPC   C2B68216  13.601   4.790   6.626
 5424POPC   C3B68217  13.590   4.730   7.041
 5424POPC   C4B68218  13.979   4.802   7.229
 5425POPC   NC368219  30.021  14.731   5.345
 5425POPC   PO468220  29.524  14.710   5.764
 5425POPC   GL168221  29.919  14.506   5.795
 5425POPC   GL268222  29.902  14.156   5.709
 5425POPC   C1A68223  30.067  14.594   6.178
 5425POPC   D2A68224  29.733  14.690   6.473
 5425POPC   C3A68225  29.892  14.687   6.901
 5425POPC   C4A68226  29.992  14.561   7.351
 5425POPC   C1B68227  29.741  14.173   6.169
 5425POPC   C2B68228  29.803  14.218   6.641
 5425POPC   C3B68229  29.698  14.168   7.086
 5425POPC   C4B68230  29.879  14.063   7.488
 5426POPC   NC368231  25.058  24.012   5.450
 5426POPC   PO468232  25.029  23.339   5.519
 5426POPC   GL168233  25.323  23.533   5.828
 5426POPC   GL268234  25.414  23.894   5.801
 5426POPC   C1A68235  25.297  23.673   6.275
 5426POPC   D2A68236  25.190  23.530   6.701
 5426POPC   C3A68237  25.140  23.744   7.073
 5426POPC   C4A68238  25.048  23.529   7.434
 5426POPC   C1B68239  25.687  23.971   6.139
 5426POPC   C2B68240  25.721  23.886   6.563
 5426POPC   C3B68241  25.584  24.002   6.978
 5426POPC   C4B68242  25.373  24.111   7.348
 5427POPC   NC368243  12.638  37.973   5.559
 5427POPC   PO468244  13.262  37.707   5.353
 5427POPC   GL168245  13.081  37.598   5.761
 5427POPC   GL268246  12.745  37.516   5.781
 5427POPC   C1A68247  12.914  37.851   6.146
 5427POPC   D2A68248  12.686  37.863   6.551
 5427POPC   C3A68249  12.933  37.885   6.943
 5427POPC   C4A68250  12.829  38.113   7.305
 5427POPC   C1B68251  12.591  37.449   6.192
 5427POPC   C2B68252  12.435  37.406   6.610
 5427POPC   C3B68253  12.622  37.493   6.992
 5427POPC   C4B68254  12.911  37.404   7.277
 5428POPC   NC368255  22.922  26.321   5.494
 5428POPC   PO468256  22.903  25.714   5.541
 5428POPC   GL168257  22.872  25.985   5.883
 5428POPC   GL268258  23.176  26.194   5.930
 5428POPC   C1A68259  22.786  26.066   6.294
 5428POPC   D2A68260  22.548  26.151   6.625
 5428POPC   C3A68261  22.709  25.965   6.975
 5428POPC   C4A68262  22.668  26.300   7.233
 5428POPC   C1B68263  23.247  26.314   6.373
 5428POPC   C2B68264  23.056  26.357   6.789
 5428POPC   C3B68265  23.145  26.196   7.151
 5428POPC   C4B68266  23.288  25.853   7.273
 5429POPC   NC368267  20.991  11.589   5.607
 5429POPC   PO468268  20.557  11.252   5.218
 5429POPC   GL168269  20.658  11.205   5.674
 5429POPC   GL268270  20.431  11.434   5.850
 5429POPC   C1A68271  20.740  11.178   6.154
 5429POPC   D2A68272  20.446  11.276   6.524
 5429POPC   C3A68273  20.612  11.099   6.916
 5429POPC   C4A68274  20.788  11.049   7.357
 5429POPC   C1B68275  20.621  11.668   6.185
 5429POPC   C2B68276  20.557  11.877   6.514
 5429POPC   C3B68277  20.500  11.819   6.926
 5429POPC   C4B68278  20.599  11.515   7.224
 5430POPC   NC368279  33.324   6.162   5.336
 5430POPC   PO468280  32.740   5.786   5.233
 5430POPC   GL168281  32.953   5.793   5.653
 5430POPC   GL268282  32.698   5.948   5.833
 5430POPC   C1A68283  33.133   5.820   6.113
 5430POPC   D2A68284  33.139   6.031   6.554
 5430POPC   C3A68285  33.065   5.816   6.971
 5430POPC   C4A68286  33.316   5.577   7.248
 5430POPC   C1B68287  32.757   6.173   6.220
 5430POPC   C2B68288  32.659   6.228   6.663
 5430POPC   C3B68289  32.776   6.220   7.115
 5430POPC   C4B68290  32.786   6.255   7.592
 5431POPC   NC368291  23.406  26.803   5.497
 5431POPC   PO468292  24.081  26.937   5.462
 5431POPC   GL168293  23.826  26.836   5.815
 5431POPC   GL268294  23.594  27.142   5.838
 5431POPC   C1A68295  23.616  26.705   6.225
 5431POPC   D2A68296  23.682  26.486   6.641
 5431POPC   C3A68297  23.477  26.618   7.033
 5431POPC   C4A68298  23.431  26.896   7.405
 5431POPC   C1B68299  23.875  27.149   6.217
 5431POPC   C2B68300  23.908  26.980   6.642
 5431POPC   C3B68301  23.762  27.087   7.061
 5431POPC   C4B68302  23.804  27.401   7.407
 5432POPC   NC368303  21.956  29.530   5.379
 5432POPC   PO468304  22.472  28.988   5.330
 5432POPC   GL168305  22.330  29.068   5.735
 5432POPC   GL268306  22.370  29.425   5.743
 5432POPC   C1A68307  21.967  29.163   6.005
 5432POPC   D2A68308  21.921  29.349   6.414
 5432POPC   C3A68309  21.952  29.131   6.799
 5432POPC   C4A68310  22.156  29.252   7.160
 5432POPC   C1B68311  22.413  29.332   6.207
 5432POPC   C2B68312  22.373  29.565   6.589
 5432POPC   C3B68313  22.480  29.603   7.017
 5432POPC   C4B68314  22.440  29.577   7.471
 5433POPC   NC368315  44.705  11.524   5.422
 5433POPC   PO468316  44.892  10.860   5.493
 5433POPC   GL168317  44.869  11.060   5.861
 5433POPC   GL268318  44.527  11.141   5.840
 5433POPC   C1A68319  44.804  11.235   6.276
 5433POPC   D2A68320  44.564  11.346   6.649
 5433POPC   C3A68321  44.736  11.109   6.984
 5433POPC   C4A68322  44.957  11.300   7.303
 5433POPC   C1B68323  44.364  10.942   6.226
 5433POPC   C2B68324  44.177  11.013   6.645
 5433POPC   C3B68325  44.253  10.982   7.119
 5433POPC   C4B68326  44.489  11.130   7.488
 5434POPC   NC368327   7.010   2.847   5.450
 5434POPC   PO468328   6.379   2.526   5.451
 5434POPC   GL168329   6.591   2.717   5.801
 5434POPC   GL268330   6.891   2.519   5.821
 5434POPC   C1A68331   6.540   2.991   6.174
 5434POPC   D2A68332   6.769   3.137   6.555
 5434POPC   C3A68333   6.765   2.892   6.924
 5434POPC   C4A68334   6.418   2.759   7.209
 5434POPC   C1B68335   7.006   2.795   6.133
 5434POPC   C2B68336   6.929   2.631   6.517
 5434POPC   C3B68337   6.915   2.408   6.892
 5434POPC   C4B68338   6.865   2.567   7.304
 5435POPC   NC368339  13.615  27.467   4.999
 5435POPC   PO468340  14.128  27.710   5.399
 5435POPC   GL168341  13.818  27.578   5.758
 5435POPC   GL268342  13.453  27.648   5.651
 5435POPC   C1A68343  13.742  27.612   6.226
 5435POPC   D2A68344  13.782  27.350   6.609
 5435POPC   C3A68345  13.833  27.531   6.997
 5435POPC   C4A68346  13.533  27.759   7.239
 5435POPC   C1B68347  13.262  27.570   6.074
 5435POPC   C2B68348  13.308  27.645   6.551
 5435POPC   C3B68349  13.179  27.480   7.001
 5435POPC   C4B68350  13.264  27.288   7.427
 5436POPC   NC368351  24.481  27.222   5.491
 5436POPC   PO468352  24.878  26.616   5.359
 5436POPC   GL168353  24.745  26.849   5.757
 5436POPC   GL268354  24.384  26.881   5.871
 5436POPC   C1A68355  24.830  26.988   6.174
 5436POPC   D2A68356  24.917  26.934   6.591
 5436POPC   C3A68357  24.631  26.737   6.872
 5436POPC   C4A68358  24.596  26.867   7.272
 5436POPC   C1B68359  24.158  26.711   6.234
 5436POPC   C2B68360  24.203  26.547   6.655
 5436POPC   C3B68361  24.124  26.680   7.085
 5436POPC   C4B68362  24.142  27.027   7.415
 5437POPC   NC368363  24.182   1.906   5.237
 5437POPC   PO468364  24.864   1.729   5.336
 5437POPC   GL168365  24.530   1.692   5.660
 5437POPC   GL268366  24.566   2.017   5.793
 5437POPC   C1A68367  24.432   1.575   6.119
 5437POPC   D2A68368  24.527   1.761   6.526
 5437POPC   C3A68369  24.395   1.676   6.931
 5437POPC   C4A68370  24.786   1.815   7.094
 5437POPC   C1B68371  24.432   2.121   6.199
 5437POPC   C2B68372  24.236   2.172   6.622
 5437POPC   C3B68373  24.435   2.192   7.041
 5437POPC   C4B68374  24.675   2.554   7.210
 5438POPC   NC368375  34.459  13.507   5.254
 5438POPC   PO468376  34.633  12.794   5.366
 5438POPC   GL168377  34.444  13.008   5.670
 5438POPC   GL268378  34.191  12.755   5.758
 5438POPC   C1A68379  34.463  13.066   6.091
 5438POPC   D2A68380  34.693  12.890   6.434
 5438POPC   C3A68381  34.630  13.033   6.859
 5438POPC   C4A68382  34.656  12.981   7.313
 5438POPC   C1B68383  34.300  12.571   6.191
 5438POPC   C2B68384  34.319  12.601   6.649
 5438POPC   C3B68385  34.493  12.575   7.058
 5438POPC   C4B68386  34.360  12.532   7.499
 5439POPC   NC368387  11.988  12.881   5.262
 5439POPC   PO468388  12.504  13.189   5.626
 5439POPC   GL168389  12.099  12.987   5.736
 5439POPC   GL268390  11.986  12.659   5.755
 5439POPC   C1A68391  11.921  13.009   6.147
 5439POPC   D2A68392  12.080  12.947   6.571
 5439POPC   C3A68393  11.762  12.869   6.903
 5439POPC   C4A68394  11.951  12.900   7.325
 5439POPC   C1B68395  12.280  12.631   6.119
 5439POPC   C2B68396  12.346  12.417   6.539
 5439POPC   C3B68397  12.187  12.591   6.947
 5439POPC   C4B68398  11.790  12.413   7.156
 5440POPC   NC368399  19.873   6.273   5.439
 5440POPC   PO468400  19.493   6.860   5.518
 5440POPC   GL168401  19.744   6.699   5.836
 5440POPC   GL268402  20.061   6.633   5.766
 5440POPC   C1A68403  19.811   6.455   6.204
 5440POPC   D2A68404  19.610   6.581   6.564
 5440POPC   C3A68405  19.753   6.466   6.927
 5440POPC   C4A68406  19.710   6.849   7.155
 5440POPC   C1B68407  20.163   6.827   6.166
 5440POPC   C2B68408  20.165   6.659   6.551
 5440POPC   C3B68409  20.154   6.823   6.924
 5440POPC   C4B68410  20.075   6.560   7.304
 5441POPC   NC368411  12.751   5.673   5.465
 5441POPC   PO468412  13.036   6.279   5.504
 5441POPC   GL168413  12.882   6.044   5.854
 5441POPC   GL268414  12.585   6.152   5.878
 5441POPC   C1A68415  12.872   5.854   6.279
 5441POPC   D2A68416  12.861   5.531   6.596
 5441POPC   C3A68417  13.042   5.626   6.996
 5441POPC   C4A68418  12.934   5.682   7.450
 5441POPC   C1B68419  12.589   6.285   6.315
 5441POPC   C2B68420  12.790   6.243   6.724
 5441POPC   C3B68421  12.824   6.082   7.157
 5441POPC   C4B68422  12.775   6.130   7.666
 5442POPC   NC368423   6.131  14.788   5.458
 5442POPC   PO468424   5.731  15.350   5.397
 5442POPC   GL168425   5.810  15.099   5.765
 5442POPC   GL268426   6.110  15.245   5.807
 5442POPC   C1A68427   5.896  14.990   6.215
 5442POPC   D2A68428   5.913  15.186   6.641
 5442POPC   C3A68429   5.852  14.906   6.991
 5442POPC   C4A68430   5.740  14.938   7.431
 5442POPC   C1B68431   6.356  15.227   6.172
 5442POPC   C2B68432   6.376  15.383   6.549
 5442POPC   C3B68433   6.340  15.526   6.944
 5442POPC   C4B68434   6.091  15.300   7.205
 5443POPC   NC368435  12.603   3.082   5.476
 5443POPC   PO468436  12.924   2.422   5.457
 5443POPC   GL168437  13.028   2.699   5.814
 5443POPC   GL268438  12.975   3.037   5.812
 5443POPC   C1A68439  12.969   2.776   6.283
 5443POPC   D2A68440  12.921   2.993   6.705
 5443POPC   C3A68441  12.802   2.714   7.074
 5443POPC   C4A68442  12.529   2.361   7.156
 5443POPC   C1B68443  13.236   3.171   6.129
 5443POPC   C2B68444  13.231   3.378   6.518
 5443POPC   C3B68445  13.349   3.241   6.907
 5443POPC   C4B68446  13.078   3.120   7.213
 5444POPC   NC368447  16.199  20.067   5.456
 5444POPC   PO468448  15.905  19.458   5.412
 5444POPC   GL168449  16.104  19.619   5.798
 5444POPC   GL268450  15.997  19.967   5.904
 5444POPC   C1A68451  15.963  19.627   6.254
 5444POPC   D2A68452  15.863  19.858   6.615
 5444POPC   C3A68453  15.961  19.640   6.982
 5444POPC   C4A68454  15.778  19.490   7.409
 5444POPC   C1B68455  15.837  20.221   6.245
 5444POPC   C2B68456  15.906  20.376   6.656
 5444POPC   C3B68457  16.057  20.172   7.018
 5444POPC   C4B68458  15.927  19.959   7.367
 5445POPC   NC368459  23.172  31.702   5.333
 5445POPC   PO468460  22.522  31.417   5.392
 5445POPC   GL168461  22.802  31.303   5.751
 5445POPC   GL268462  23.104  31.501   5.801
 5445POPC   C1A68463  22.887  31.249   6.204
 5445POPC   D2A68464  23.036  31.512   6.529
 5445POPC   C3A68465  22.914  31.360   6.941
 5445POPC   C4A68466  23.164  31.268   7.267
 5445POPC   C1B68467  22.806  31.739   6.075
 5445POPC   C2B68468  22.688  31.930   6.467
 5445POPC   C3B68469  22.841  31.859   6.859
 5445POPC   C4B68470  22.975  31.842   7.268
 5446POPC   NC368471  25.944  31.352   5.396
 5446POPC   PO468472  26.179  31.911   5.533
 5446POPC   GL168473  25.918  31.729   5.797
 5446POPC   GL268474  26.162  31.468   5.839
 5446POPC   C1A68475  25.892  31.601   6.237
 5446POPC   D2A68476  25.757  31.371   6.579
 5446POPC   C3A68477  25.804  31.639   6.903
 5446POPC   C4A68478  25.923  31.565   7.344
 5446POPC   C1B68479  26.431  31.392   6.176
 5446POPC   C2B68480  26.281  31.491   6.576
 5446POPC   C3B68481  26.240  31.384   6.983
 5446POPC   C4B68482  26.363  31.282   7.401
 5447POPC   NC368483  32.056  36.228   5.350
 5447POPC   PO468484  32.115  35.579   5.546
 5447POPC   GL168485  32.024  35.892   5.886
 5447POPC   GL268486  32.130  36.250   5.863
 5447POPC   C1A68487  32.002  36.040   6.329
 5447POPC   D2A68488  31.908  36.314   6.693
 5447POPC   C3A68489  31.968  36.074   7.090
 5447POPC   C4A68490  32.265  35.826   7.341
 5447POPC   C1B68491  32.273  36.470   6.254
 5447POPC   C2B68492  32.460  36.444   6.668
 5447POPC   C3B68493  32.234  36.503   7.058
 5447POPC   C4B68494  32.200  36.341   7.490
 5448POPC   NC368495   2.781  17.123   5.527
 5448POPC   PO468496   2.910  16.509   5.500
 5448POPC   GL168497   2.794  16.700   5.859
 5448POPC   GL268498   3.065  16.936   5.901
 5448POPC   C1A68499   2.485  16.666   6.187
 5448POPC   D2A68500   2.430  16.854   6.580
 5448POPC   C3A68501   2.552  16.689   6.995
 5448POPC   C4A68502   2.638  17.015   7.290
 5448POPC   C1B68503   2.929  16.933   6.329
 5448POPC   C2B68504   2.970  16.728   6.722
 5448POPC   C3B68505   3.029  16.724   7.183
 5448POPC   C4B68506   3.142  17.173   7.238
 5449POPC   NC368507  37.764  30.005   5.623
 5449POPC   PO468508  37.449  29.999   5.000
 5449POPC   GL168509  37.334  29.732   5.530
 5449POPC   GL268510  37.590  29.476   5.683
 5449POPC   C1A68511  37.366  29.718   6.059
 5449POPC   D2A68512  37.353  29.988   6.432
 5449POPC   C3A68513  37.612  30.002   6.791
 5449POPC   C4A68514  37.580  29.929   7.212
 5449POPC   C1B68515  37.831  29.451   6.094
 5449POPC   C2B68516  37.877  29.679   6.498
 5449POPC   C3B68517  37.894  29.602   6.964
 5449POPC   C4B68518  37.913  29.295   7.307
 5450POPC   NC368519  29.435   4.160   5.249
 5450POPC   PO468520  28.891   4.503   5.340
 5450POPC   GL168521  29.069   4.570   5.743
 5450POPC   GL268522  29.312   4.278   5.787
 5450POPC   C1A68523  29.020   4.722   6.175
 5450POPC   D2A68524  29.048   4.870   6.601
 5450POPC   C3A68525  28.915   4.584   6.908
 5450POPC   C4A68526  29.211   4.542   7.208
 5450POPC   C1B68527  29.069   4.184   6.187
 5450POPC   C2B68528  29.143   3.928   6.570
 5450POPC   C3B68529  29.131   4.012   7.023
 5450POPC   C4B68530  28.783   4.185   7.241
 5451POPC   NC368531  10.141  22.257   5.271
 5451POPC   PO468532  10.183  22.736   5.684
 5451POPC   GL168533  10.277  22.296   5.815
 5451POPC   GL268534  10.622  22.128   5.836
 5451POPC   C1A68535  10.325  22.136   6.258
 5451POPC   D2A68536  10.369  22.301   6.687
 5451POPC   C3A68537  10.223  22.014   7.028
 5451POPC   C4A68538   9.995  21.771   7.384
 5451POPC   C1B68539  10.849  22.262   6.197
 5451POPC   C2B68540  10.907  22.392   6.622
 5451POPC   C3B68541  10.752  22.136   6.975
 5451POPC   C4B68542  10.549  22.345   7.291
 5452POPC   NC368543  27.946   8.819   5.440
 5452POPC   PO468544  27.278   8.747   5.565
 5452POPC   GL168545  27.633   8.857   5.840
 5452POPC   GL268546  27.547   9.194   5.815
 5452POPC   C1A68547  27.839   9.033   6.230
 5452POPC   D2A68548  27.736   8.897   6.661
 5452POPC   C3A68549  27.620   9.083   7.028
 5452POPC   C4A68550  27.890   8.928   7.337
 5452POPC   C1B68551  27.326   9.014   6.216
 5452POPC   C2B68552  27.273   9.087   6.646
 5452POPC   C3B68553  27.095   8.975   7.042
 5452POPC   C4B68554  26.944   8.983   7.461
 5453POPC   NC368555  27.108   6.744   5.131
 5453POPC   PO468556  27.552   6.294   5.471
 5453POPC   GL168557  27.604   6.388   5.918
 5453POPC   GL268558  27.491   6.709   5.834
 5453POPC   C1A68559  27.790   6.685   6.234
 5453POPC   D2A68560  27.588   6.732   6.605
 5453POPC   C3A68561  27.628   6.438   6.922
 5453POPC   C4A68562  27.664   6.708   7.247
 5453POPC   C1B68563  27.242   6.556   6.212
 5453POPC   C2B68564  27.077   6.575   6.604
 5453POPC   C3B68565  27.193   6.724   7.008
 5453POPC   C4B68566  27.255   6.409   7.322
 5454POPC   NC368567   2.781   9.606   5.577
 5454POPC   PO468568   2.323  10.091   5.538
 5454POPC   GL168569   2.597   9.988   5.875
 5454POPC   GL268570   2.967  10.004   5.871
 5454POPC   C1A68571   2.664   9.751   6.251
 5454POPC   D2A68572   2.596   9.459   6.575
 5454POPC   C3A68573   2.666   9.577   6.998
 5454POPC   C4A68574   2.904   9.406   7.346
 5454POPC   C1B68575   3.010  10.129   6.318
 5454POPC   C2B68576   2.882   9.990   6.738
 5454POPC   C3B68577   3.004   9.910   7.178
 5454POPC   C4B68578   3.173  10.156   7.569
 5455POPC   NC368579   6.692  20.160   5.516
 5455POPC   PO468580   6.352  19.605   5.523
 5455POPC   GL168581   6.540  19.879   5.908
 5455POPC   GL268582   6.909  19.927   5.950
 5455POPC   C1A68583   6.379  20.097   6.279
 5455POPC   D2A68584   6.418  20.317   6.655
 5455POPC   C3A68585   6.327  20.071   7.012
 5455POPC   C4A68586   6.629  20.009   7.292
 5455POPC   C1B68587   6.801  19.827   6.397
 5455POPC   C2B68588   6.855  20.062   6.781
 5455POPC   C3B68589   7.001  20.318   7.107
 5455POPC   C4B68590   6.985  20.248   7.584
 5456POPC   NC368591  20.795  34.858   5.553
 5456POPC   PO468592  20.327  34.291   5.444
 5456POPC   GL168593  20.516  34.492   5.816
 5456POPC   GL268594  20.341  34.824   5.850
 5456POPC   C1A68595  20.796  34.400   6.187
 5456POPC   D2A68596  20.681  34.308   6.590
 5456POPC   C3A68597  20.852  34.478   6.960
 5456POPC   C4A68598  20.563  34.539   7.286
 5456POPC   C1B68599  20.569  34.848   6.208
 5456POPC   C2B68600  20.491  34.775   6.631
 5456POPC   C3B68601  20.705  34.979   6.943
 5456POPC   C4B68602  20.879  34.959   7.318
 5457POPC   NC368603  15.638  42.861   5.600
 5457POPC   PO468604  16.016  43.334   5.457
 5457POPC   GL168605  15.900  43.219   5.868
 5457POPC   GL268606  16.060  42.904   5.875
 5457POPC   C1A68607  15.730  43.129   6.279
 5457POPC   D2A68608  15.716  43.315   6.688
 5457POPC   C3A68609  15.940  43.461   7.072
 5457POPC   C4A68610  15.821  43.404   7.545
 5457POPC   C1B68611  16.227  42.986   6.274
 5457POPC   C2B68612  16.049  42.884   6.672
 5457POPC   C3B68613  15.816  42.956   7.054
 5457POPC   C4B68614  16.099  43.043   7.334
 5458POPC   NC368615  13.820  31.532   5.413
 5458POPC   PO468616  13.137  31.695   5.509
 5458POPC   GL168617  13.399  31.433   5.739
 5458POPC   GL268618  13.633  31.683   5.866
 5458POPC   C1A68619  13.540  31.245   6.135
 5458POPC   D2A68620  13.691  31.313   6.573
 5458POPC   C3A68621  13.774  31.189   7.012
 5458POPC   C4A68622  13.560  31.137   7.405
 5458POPC   C1B68623  13.909  31.607   6.218
 5458POPC   C2B68624  13.866  31.802   6.626
 5458POPC   C3B68625  13.574  31.660   6.941
 5458POPC   C4B68626  13.716  31.624   7.349
 5459POPC   NC368627  44.485  37.205   5.500
 5459POPC   PO468628  44.859  37.851   5.614
 5459POPC   GL168629  44.526  37.668   5.819
 5459POPC   GL268630  44.593  37.372   5.971
 5459POPC   C1A68631  44.313  37.802   6.169
 5459POPC   D2A68632  44.460  37.959   6.557
 5459POPC   C3A68633  44.392  37.666   6.880
 5459POPC   C4A68634  44.660  37.491   7.185
 5459POPC   C1B68635  44.801  37.628   6.297
 5459POPC   C2B68636   0.009  37.862   6.643
 5459POPC   C3B68637   0.097  37.804   7.086
 5459POPC   C4B68638   0.162  37.347   7.211
 5460POPC   NC368639  17.872  41.723   5.348
 5460POPC   PO468640  17.228  41.625   5.410
 5460POPC   GL168641  17.513  41.662   5.776
 5460POPC   GL268642  17.776  41.918   5.843
 5460POPC   C1A68643  17.425  41.581   6.217
 5460POPC   D2A68644  17.520  41.384   6.616
 5460POPC   C3A68645  17.248  41.481   6.968
 5460POPC   C4A68646  17.459  41.506   7.345
 5460POPC   C1B68647  17.898  41.770   6.279
 5460POPC   C2B68648  17.778  41.833   6.752
 5460POPC   C3B68649  17.727  41.953   7.220
 5460POPC   C4B68650  17.770  41.786   7.655
 5461POPC   NC368651  31.303  36.752   5.277
 5461POPC   PO468652  31.689  37.241   5.581
 5461POPC   GL168653  31.479  36.860   5.762
 5461POPC   GL268654  31.750  36.590   5.744
 5461POPC   C1A68655  31.239  36.890   6.178
 5461POPC   D2A68656  31.114  37.163   6.568
 5461POPC   C3A68657  31.058  36.953   6.964
 5461POPC   C4A68658  31.167  36.589   7.215
 5461POPC   C1B68659  31.778  36.740   6.194
 5461POPC   C2B68660  31.619  37.002   6.563
 5461POPC   C3B68661  31.559  36.844   6.981
 5461POPC   C4B68662  31.760  36.539   7.238
 5462POPC   NC368663  19.592   1.047   5.207
 5462POPC   PO468664  20.195   1.412   5.294
 5462POPC   GL168665  19.817   1.470   5.586
 5462POPC   GL268666  19.650   1.142   5.734
 5462POPC   C1A68667  19.768   1.546   6.044
 5462POPC   D2A68668  19.951   1.446   6.473
 5462POPC   C3A68669  19.736   1.364   6.863
 5462POPC   C4A68670  19.824   1.355   7.329
 5462POPC   C1B68671  19.865   1.048   6.163
 5462POPC   C2B68672  19.957   0.948   6.620
 5462POPC   C3B68673  19.853   0.922   7.068
 5462POPC   C4B68674  20.168   0.989   7.362
 5463POPC   NC368675  12.382  29.698   5.495
 5463POPC   PO468676  12.236  29.008   5.419
 5463POPC   GL168677  12.117  29.165   5.765
 5463POPC   GL268678  11.846  28.906   5.817
 5463POPC   C1A68679  12.032  29.284   6.133
 5463POPC   D2A68680  11.880  29.245   6.513
 5463POPC   C3A68681  12.182  29.183   6.826
 5463POPC   C4A68682  12.021  29.183   7.255
 5463POPC   C1B68683  11.527  28.772   6.104
 5463POPC   C2B68684  11.540  28.828   6.549
 5463POPC   C3B68685  11.806  28.818   6.938
 5463POPC   C4B68686  11.645  28.850   7.356
 5464POPC   NC368687  15.530  31.768   5.173
 5464POPC   PO468688  15.764  31.289   5.613
 5464POPC   GL168689  16.142  31.442   5.844
 5464POPC   GL268690  16.142  31.769   6.004
 5464POPC   C1A68691  16.215  31.334   6.281
 5464POPC   D2A68692  15.957  31.284   6.656
 5464POPC   C3A68693  16.114  31.273   7.082
 5464POPC   C4A68694  15.904  31.198   7.495
 5464POPC   C1B68695  15.778  31.593   6.268
 5464POPC   C2B68696  15.565  31.645   6.651
 5464POPC   C3B68697  15.670  31.531   7.049
 5464POPC   C4B68698  15.968  31.683   7.339
 5465POPC   NC368699  38.421  10.691   5.485
 5465POPC   PO468700  37.801  10.611   5.605
 5465POPC   GL168701  38.153  10.403   5.841
 5465POPC   GL268702  38.480  10.570   5.979
 5465POPC   C1A68703  38.194  10.277   6.266
 5465POPC   D2A68704  38.060  10.341   6.686
 5465POPC   C3A68705  38.346  10.437   7.038
 5465POPC   C4A68706  38.400  10.284   7.489
 5465POPC   C1B68707  38.562  10.589   6.462
 5465POPC   C2B68708  38.731  10.839   6.797
 5465POPC   C3B68709  38.490  10.988   7.153
 5465POPC   C4B68710  38.452  10.785   7.577
 5466POPC   NC368711  19.324  30.245   5.671
 5466POPC   PO468712  18.858  30.578   5.388
 5466POPC   GL168713  18.914  30.881   5.747
 5466POPC   GL268714  19.216  31.129   5.730
 5466POPC   C1A68715  18.694  30.834   6.138
 5466POPC   D2A68716  18.879  30.850   6.542
 5466POPC   C3A68717  18.809  30.568   6.879
 5466POPC   C4A68718  18.864  30.737   7.269
 5466POPC   C1B68719  19.277  30.826   6.104
 5466POPC   C2B68720  19.358  30.643   6.518
 5466POPC   C3B68721  19.277  30.764   6.930
 5466POPC   C4B68722  19.294  30.476   7.251
 5467POPC   NC368723  21.768  12.968   5.338
 5467POPC   PO468724  21.121  12.977   5.292
 5467POPC   GL168725  21.397  12.950   5.735
 5467POPC   GL268726  21.180  12.971   6.087
 5467POPC   C1A68727  21.660  13.014   6.148
 5467POPC   D2A68728  21.499  12.824   6.548
 5467POPC   C3A68729  21.535  13.027   6.953
 5467POPC   C4A68730  21.411  12.985   7.396
 5467POPC   C1B68731  21.042  12.610   6.352
 5467POPC   C2B68732  21.208  12.418   6.701
 5467POPC   C3B68733  21.132  12.701   7.054
 5467POPC   C4B68734  21.065  12.631   7.513
 5468POPC   NC368735  32.440  23.969   5.507
 5468POPC   PO468736  32.477  23.349   5.393
 5468POPC   GL168737  32.130  23.571   5.706
 5468POPC   GL268738  32.264  23.849   5.963
 5468POPC   C1A68739  31.876  23.600   6.147
 5468POPC   D2A68740  32.133  23.696   6.568
 5468POPC   C3A68741  31.980  23.564   6.957
 5468POPC   C4A68742  31.823  23.897   7.182
 5468POPC   C1B68743  32.354  23.450   6.189
 5468POPC   C2B68744  32.382  23.254   6.637
 5468POPC   C3B68745  32.490  23.507   6.994
 5468POPC   C4B68746  32.335  23.932   7.048
 5469POPC   NC368747   7.901  31.666   5.662
 5469POPC   PO468748   8.246  30.997   5.466
 5469POPC   GL168749   8.221  31.264   5.797
 5469POPC   GL268750   7.867  31.206   5.901
 5469POPC   C1A68751   8.484  31.405   6.145
 5469POPC   D2A68752   8.548  31.326   6.576
 5469POPC   C3A68753   8.182  31.494   6.831
 5469POPC   C4A68754   8.029  31.719   7.192
 5469POPC   C1B68755   8.109  31.014   6.229
 5469POPC   C2B68756   8.184  30.964   6.661
 5469POPC   C3B68757   8.429  31.079   7.006
 5469POPC   C4B68758   8.372  31.366   7.308
 5470POPC   NC368759  10.427   3.799   5.423
 5470POPC   PO468760  10.947   3.428   5.505
 5470POPC   GL168761  10.571   3.387   5.738
 5470POPC   GL268762  10.405   3.088   5.723
 5470POPC   C1A68763  10.383   3.487   6.147
 5470POPC   D2A68764  10.604   3.702   6.495
 5470POPC   C3A68765  10.419   3.927   6.818
 5470POPC   C4A68766  10.491   3.882   7.242
 5470POPC   C1B68767  10.636   3.022   6.117
 5470POPC   C2B68768  10.629   3.181   6.525
 5470POPC   C3B68769  10.488   3.383   6.890
 5470POPC   C4B68770  10.410   3.344   7.303
 5471POPC   NC368771  22.116   3.898   5.514
 5471POPC   PO468772  22.314   4.511   5.319
 5471POPC   GL168773  22.109   4.389   5.721
 5471POPC   GL268774  22.452   4.357   5.813
 5471POPC   C1A68775  21.860   4.414   6.157
 5471POPC   D2A68776  21.810   4.243   6.588
 5471POPC   C3A68777  21.769   4.469   6.989
 5471POPC   C4A68778  22.083   4.521   7.331
 5471POPC   C1B68779  22.259   4.110   6.121
 5471POPC   C2B68780  22.269   4.062   6.529
 5471POPC   C3B68781  22.207   4.201   6.928
 5471POPC   C4B68782  22.296   4.036   7.299
 5472POPC   NC368783  10.317  35.767   5.635
 5472POPC   PO468784  10.809  35.321   5.325
 5472POPC   GL168785  10.563  35.329   5.698
 5472POPC   GL268786  10.214  35.296   5.767
 5472POPC   C1A68787  10.599  35.312   6.147
 5472POPC   D2A68788  10.754  35.416   6.554
 5472POPC   C3A68789  10.615  35.175   6.907
 5472POPC   C4A68790  10.411  35.110   7.348
 5472POPC   C1B68791  10.130  35.513   6.202
 5472POPC   C2B68792  10.259  35.563   6.629
 5472POPC   C3B68793  10.098  35.604   7.054
 5472POPC   C4B68794   9.984  35.359   7.432
 5473POPC   NC368795  18.818  26.053   5.604
 5473POPC   PO468796  19.258  26.547   5.344
 5473POPC   GL168797  19.259  26.309   5.761
 5473POPC   GL268798  19.329  25.964   5.730
 5473POPC   C1A68799  19.112  26.262   6.209
 5473POPC   D2A68800  18.974  26.450   6.615
 5473POPC   C3A68801  19.099  26.217   6.979
 5473POPC   C4A68802  18.869  25.854   7.115
 5473POPC   C1B68803  19.225  25.755   6.121
 5473POPC   C2B68804  19.214  25.865   6.535
 5473POPC   C3B68805  19.325  25.724   6.901
 5473POPC   C4B68806  19.469  25.595   7.267
 5474POPC   NC368807  21.405   1.867   5.349
 5474POPC   PO468808  21.949   1.789   5.147
 5474POPC   GL168809  21.785   1.894   5.713
 5474POPC   GL268810  21.406   1.961   5.845
 5474POPC   C1A68811  21.681   2.073   6.225
 5474POPC   D2A68812  21.749   1.922   6.698
 5474POPC   C3A68813  21.608   2.143   7.098
 5474POPC   C4A68814  21.340   2.062   7.487
 5474POPC   C1B68815  21.125   2.124   6.220
 5474POPC   C2B68816  21.043   2.338   6.623
 5474POPC   C3B68817  21.076   2.232   7.081
 5474POPC   C4B68818  20.882   2.279   7.495
 5475POPC   NC368819  16.013   2.828   5.364
 5475POPC   PO468820  15.598   2.184   5.329
 5475POPC   GL168821  15.845   2.421   5.673
 5475POPC   GL268822  15.581   2.569   5.845
 5475POPC   C1A68823  16.027   2.666   6.073
 5475POPC   D2A68824  16.233   2.756   6.503
 5475POPC   C3A68825  16.112   3.009   6.876
 5475POPC   C4A68826  16.152   2.931   7.298
 5475POPC   C1B68827  15.551   2.743   6.290
 5475POPC   C2B68828  15.691   2.755   6.724
 5475POPC   C3B68829  15.688   2.751   7.180
 5475POPC   C4B68830  15.642   2.868   7.607
 5476POPC   NC368831  35.850  12.616   5.466
 5476POPC   PO468832  36.236  13.132   5.243
 5476POPC   GL168833  36.164  12.960   5.727
 5476POPC   GL268834  36.444  12.814   5.914
 5476POPC   C1A68835  35.953  12.755   6.148
 5476POPC   D2A68836  35.868  12.464   6.509
 5476POPC   C3A68837  35.842  12.624   6.939
 5476POPC   C4A68838  35.925  12.976   7.163
 5476POPC   C1B68839  36.348  13.036   6.293
 5476POPC   C2B68840  36.198  12.868   6.676
 5476POPC   C3B68841  36.383  12.776   7.077
 5476POPC   C4B68842  36.267  12.740   7.504
 5477POPC   NC368843   4.490   5.429   5.468
 5477POPC   PO468844   5.073   5.781   5.393
 5477POPC   GL168845   5.148   5.662   5.780
 5477POPC   GL268846   4.842   5.491   5.847
 5477POPC   C1A68847   5.157   5.847   6.169
 5477POPC   D2A68848   4.933   6.044   6.511
 5477POPC   C3A68849   5.210   6.075   6.851
 5477POPC   C4A68850   5.234   5.756   7.158
 5477POPC   C1B68851   4.700   5.598   6.269
 5477POPC   C2B68852   4.690   5.646   6.740
 5477POPC   C3B68853   4.732   5.632   7.204
 5477POPC   C4B68854   4.659   5.440   7.654
 5478POPC   NC368855  26.132  37.141   5.389
 5478POPC   PO468856  26.104  36.570   5.480
 5478POPC   GL168857  26.224  36.744   5.865
 5478POPC   GL268858  26.103  37.098   5.892
 5478POPC   C1A68859  26.140  36.738   6.307
 5478POPC   D2A68860  25.828  36.904   6.618
 5478POPC   C3A68861  25.846  36.788   7.062
 5478POPC   C4A68862  26.091  36.697   7.412
 5478POPC   C1B68863  26.391  37.229   6.206
 5478POPC   C2B68864  26.392  37.053   6.624
 5478POPC   C3B68865  26.089  37.219   6.929
 5478POPC   C4B68866  25.786  37.362   7.234
 5479POPC   NC368867   7.987  12.372   5.609
 5479POPC   PO468868   8.044  12.879   5.108
 5479POPC   GL168869   8.073  12.859   5.591
 5479POPC   GL268870   8.360  12.988   5.726
 5479POPC   C1A68871   7.902  12.857   6.054
 5479POPC   D2A68872   8.013  12.654   6.451
 5479POPC   C3A68873   8.119  12.812   6.839
 5479POPC   C4A68874   7.919  12.875   7.199
 5479POPC   C1B68875   8.409  12.851   6.132
 5479POPC   C2B68876   8.523  12.761   6.541
 5479POPC   C3B68877   8.581  12.586   6.947
 5479POPC   C4B68878   8.384  12.706   7.323
 5480POPC   NC368879  43.379  16.992   5.507
 5480POPC   PO468880  42.942  16.566   5.305
 5480POPC   GL168881  43.115  16.625   5.725
 5480POPC   GL268882  43.000  16.353   5.805
 5480POPC   C1A68883  43.325  16.590   6.146
 5480POPC   D2A68884  43.238  16.762   6.563
 5480POPC   C3A68885  43.359  16.649   6.987
 5480POPC   C4A68886  43.097  16.754   7.342
 5480POPC   C1B68887  42.795  16.484   6.161
 5480POPC   C2B68888  42.856  16.419   6.579
 5480POPC   C3B68889  42.812  16.568   6.987
 5480POPC   C4B68890  42.608  16.519   7.407
 5481POPC   NC368891  37.913  37.604   5.358
 5481POPC   PO468892  37.278  37.772   5.400
 5481POPC   GL168893  37.449  37.581   5.773
 5481POPC   GL268894  37.796  37.671   5.829
 5481POPC   C1A68895  37.368  37.747   6.170
 5481POPC   D2A68896  37.443  37.645   6.590
 5481POPC   C3A68897  37.340  37.859   6.919
 5481POPC   C4A68898  37.244  37.695   7.302
 5481POPC   C1B68899  37.847  37.562   6.229
 5481POPC   C2B68900  38.055  37.639   6.583
 5481POPC   C3B68901  37.858  37.713   6.920
 5481POPC   C4B68902  37.796  37.765   7.325
 5482POPC   NC368903   3.724   2.590   5.164
 5482POPC   PO468904   3.096   2.758   5.332
 5482POPC   GL168905   3.342   3.020   5.641
 5482POPC   GL268906   3.715   2.889   5.620
 5482POPC   C1A68907   3.356   3.068   6.127
 5482POPC   D2A68908   3.376   2.863   6.580
 5482POPC   C3A68909   3.307   3.081   7.016
 5482POPC   C4A68910   3.236   2.989   7.458
 5482POPC   C1B68911   3.717   2.588   5.991
 5482POPC   C2B68912   3.860   2.420   6.412
 5482POPC   C3B68913   3.749   2.561   6.850
 5482POPC   C4B68914   3.638   2.729   7.254
 5483POPC   NC368915  26.300   4.251   5.216
 5483POPC   PO468916  26.221   3.926   5.743
 5483POPC   GL168917  26.092   4.254   5.920
 5483POPC   GL268918  26.427   4.404   5.918
 5483POPC   C1A68919  26.075   4.193   6.350
 5483POPC   D2A68920  25.944   3.862   6.619
 5483POPC   C3A68921  26.016   4.049   7.001
 5483POPC   C4A68922  25.763   4.240   7.299
 5483POPC   C1B68923  26.473   4.609   6.303
 5483POPC   C2B68924  26.288   4.519   6.699
 5483POPC   C3B68925  26.156   4.541   7.126
 5483POPC   C4B68926  26.279   4.804   7.463
 5484POPC   NC368927  31.562  44.240   5.343
 5484POPC   PO468928  31.598  44.933   5.248
 5484POPC   GL168929  31.640  44.639   5.656
 5484POPC   GL268930  31.422  44.778   5.933
 5484POPC   C1A68931  31.733  44.431   6.089
 5484POPC   D2A68932  31.645  44.736   6.452
 5484POPC   C3A68933  31.660  44.598   6.881
 5484POPC   C4A68934  31.465  44.501   7.302
 5484POPC   C1B68935  31.144  44.931   6.262
 5484POPC   C2B68936  31.189   0.074   6.684
 5484POPC   C3B68937  31.397  44.989   7.086
 5484POPC   C4B68938  31.262  44.900   7.514
 5485POPC   NC368939   5.215  42.253   5.280
 5485POPC   PO468940   5.991  42.278   5.299
 5485POPC   GL168941   5.987  42.317   5.792
 5485POPC   GL268942   5.715  42.564   5.954
 5485POPC   C1A68943   5.958  42.257   6.238
 5485POPC   D2A68944   6.167  42.147   6.551
 5485POPC   C3A68945   5.948  42.221   6.902
 5485POPC   C4A68946   6.153  42.269   7.278
 5485POPC   C1B68947   5.484  42.458   6.259
 5485POPC   C2B68948   5.384  42.327   6.627
 5485POPC   C3B68949   5.467  42.478   7.007
 5485POPC   C4B68950   5.652  42.198   7.315
 5486POPC   NC368951   3.684   8.508   5.491
 5486POPC   PO468952   3.085   8.241   5.456
 5486POPC   GL168953   3.386   8.193   5.785
 5486POPC   GL268954   3.607   7.914   5.695
 5486POPC   C1A68955   3.677   8.245   6.135
 5486POPC   D2A68956   3.724   8.501   6.494
 5486POPC   C3A68957   3.851   8.328   6.896
 5486POPC   C4A68958   3.565   8.181   7.239
 5486POPC   C1B68959   3.438   7.785   6.101
 5486POPC   C2B68960   3.538   7.848   6.528
 5486POPC   C3B68961   3.426   7.763   6.962
 5486POPC   C4B68962   3.339   7.757   7.413
 5487POPC   NC368963  25.216  28.627   5.426
 5487POPC   PO468964  25.634  28.003   5.494
 5487POPC   GL168965  25.570  28.382   5.774
 5487POPC   GL268966  25.212  28.446   5.900
 5487POPC   C1A68967  25.572  28.552   6.228
 5487POPC   D2A68968  25.189  28.520   6.497
 5487POPC   C3A68969  25.194  28.615   6.936
 5487POPC   C4A68970  25.405  28.546   7.326
 5487POPC   C1B68971  24.943  28.176   6.144
 5487POPC   C2B68972  24.806  28.093   6.554
 5487POPC   C3B68973  24.897  28.194   6.947
 5487POPC   C4B68974  24.960  28.333   7.349
 5488POPC   NC368975  13.313  39.489   5.024
 5488POPC   PO468976  13.787  39.337   5.462
 5488POPC   GL168977  13.679  39.129   5.817
 5488POPC   GL268978  13.991  39.023   5.936
 5488POPC   C1A68979  13.501  39.022   6.223
 5488POPC   D2A68980  13.583  38.895   6.646
 5488POPC   C3A68981  13.496  39.202   6.925
 5488POPC   C4A68982  13.262  39.179   7.290
 5488POPC   C1B68983  13.934  39.283   6.293
 5488POPC   C2B68984  14.048  39.162   6.712
 5488POPC   C3B68985  13.939  39.081   7.141
 5488POPC   C4B68986  13.870  38.987   7.557
 5489POPC   NC368987  44.629  17.944   5.604
 5489POPC   PO468988  44.456  18.663   5.429
 5489POPC   GL168989  44.602  18.445   5.761
 5489POPC   GL268990  44.313  18.285   5.836
 5489POPC   C1A68991  44.830  18.339   6.176
 5489POPC   D2A68992  44.764  18.110   6.594
 5489POPC   C3A68993  44.914  18.352   6.955
 5489POPC   C4A68994  44.921  18.360   7.396
 5489POPC   C1B68995  44.372  18.104   6.241
 5489POPC   C2B68996  44.214  18.163   6.653
 5489POPC   C3B68997  44.426  18.328   7.004
 5489POPC   C4B68998  44.414  18.351   7.422
 5490POPC   NC368999  38.955  19.532   5.633
 5490POPC   PO469000  39.442  19.874   5.335
 5490POPC   GL169001  39.319  19.919   5.754
 5490POPC   GL269002  39.412  19.583   5.846
 5490POPC   C1A69003  39.096  19.893   6.162
 5490POPC   D2A69004  39.299  19.876   6.559
 5490POPC   C3A69005  39.267  20.069   6.974
 5490POPC   C4A69006  39.344  20.064   7.441
 5490POPC   C1B69007  39.255  19.405   6.228
 5490POPC   C2B69008  39.001  19.467   6.562
 5490POPC   C3B69009  39.148  19.578   6.951
 5490POPC   C4B69010  38.952  19.756   7.301
 5491POPC   NC369011  28.687   6.934   5.251
 5491POPC   PO469012  28.332   7.480   5.405
 5491POPC   GL169013  28.236   7.431   5.795
 5491POPC   GL269014  28.307   7.078   5.790
 5491POPC   C1A69015  28.284   7.622   6.186
 5491POPC   D2A69016  28.366   7.482   6.590
 5491POPC   C3A69017  28.247   7.700   6.935
 5491POPC   C4A69018  28.104   7.548   7.315
 5491POPC   C1B69019  28.104   7.126   6.185
 5491POPC   C2B69020  27.833   7.207   6.514
 5491POPC   C3B69021  28.016   7.234   6.906
 5491POPC   C4B69022  28.191   7.034   7.248
 5492POPC   NC369023   4.728  28.729   5.588
 5492POPC   PO469024   5.362  28.941   5.461
 5492POPC   GL169025   5.139  29.004   5.796
 5492POPC   GL269026   5.148  29.366   5.829
 5492POPC   C1A69027   4.960  28.931   6.180
 5492POPC   D2A69028   5.221  28.960   6.557
 5492POPC   C3A69029   5.054  28.890   6.936
 5492POPC   C4A69030   5.175  28.882   7.311
 5492POPC   C1B69031   5.331  29.331   6.243
 5492POPC   C2B69032   5.197  29.454   6.679
 5492POPC   C3B69033   5.214  29.361   7.127
 5492POPC   C4B69034   5.552  29.247   7.414
 5493POPC   NC369035  34.042   1.489   5.319
 5493POPC   PO469036  33.703   0.984   5.542
 5493POPC   GL169037  33.705   1.230   5.868
 5493POPC   GL269038  33.535   1.504   5.716
 5493POPC   C1A69039  33.648   1.306   6.305
 5493POPC   D2A69040  33.551   1.420   6.741
 5493POPC   C3A69041  33.776   1.189   7.082
 5493POPC   C4A69042  33.779   1.232   7.539
 5493POPC   C1B69043  33.855   1.699   5.999
 5493POPC   C2B69044  33.935   1.698   6.451
 5493POPC   C3B69045  33.986   1.659   6.876
 5493POPC   C4B69046  34.262   1.512   7.176
 5494POPC   NC369047  10.310  23.907   5.421
 5494POPC   PO469048  10.584  23.414   5.215
 5494POPC   GL169049  10.547  23.534   5.722
 5494POPC   GL269050  10.762  23.801   5.847
 5494POPC   C1A69051  10.386  23.706   6.165
 5494POPC   D2A69052  10.361  24.055   6.502
 5494POPC   C3A69053  10.393  23.924   6.925
 5494POPC   C4A69054  10.340  23.612   7.206
 5494POPC   C1B69055  10.851  23.452   6.127
 5494POPC   C2B69056  10.720  23.387   6.503
 5494POPC   C3B69057  10.734  23.521   6.884
 5494POPC   C4B69058  10.758  23.345   7.263
 5495POPC   NC369059  13.155  35.755   5.574
 5495POPC   PO469060  12.580  35.303   5.499
 5495POPC   GL169061  12.656  35.378   5.911
 5495POPC   GL269062  12.984  35.369   5.880
 5495POPC   C1A69063  12.788  35.272   6.337
 5495POPC   D2A69064  12.728  35.381   6.756
 5495POPC   C3A69065  12.776  35.230   7.198
 5495POPC   C4A69066  12.541  35.338   7.577
 5495POPC   C1B69067  13.170  35.626   6.210
 5495POPC   C2B69068  13.088  35.748   6.616
 5495POPC   C3B69069  13.080  35.613   7.022
 5495POPC   C4B69070  13.159  35.447   7.411
 5496POPC   NC369071  21.095  18.849   5.609
 5496POPC   PO469072  21.125  18.255   5.380
 5496POPC   GL169073  21.249  18.300   5.834
 5496POPC   GL269074  21.357  18.619   5.966
 5496POPC   C1A69075  21.289  18.072   6.252
 5496POPC   D2A69076  21.431  18.130   6.699
 5496POPC   C3A69077  21.189  17.985   7.091
 5496POPC   C4A69078  21.240  17.992   7.570
 5496POPC   C1B69079  21.522  18.562   6.382
 5496POPC   C2B69080  21.649  18.561   6.814
 5496POPC   C3B69081  21.288  18.488   7.058
 5496POPC   C4B69082  21.272  18.511   7.512
 5497POPC   NC369083   6.989  30.357   5.515
 5497POPC   PO469084   6.543  30.939   5.420
 5497POPC   GL169085   6.662  30.808   5.807
 5497POPC   GL269086   6.896  31.065   5.875
 5497POPC   C1A69087   6.457  30.834   6.203
 5497POPC   D2A69088   6.603  30.746   6.626
 5497POPC   C3A69089   6.418  30.936   7.000
 5497POPC   C4A69090   6.518  30.647   7.337
 5497POPC   C1B69091   6.964  30.899   6.272
 5497POPC   C2B69092   7.156  30.798   6.649
 5497POPC   C3B69093   6.934  30.816   7.038
 5497POPC   C4B69094   7.059  30.807   7.448
 5498POPC   NC369095   1.617  37.785   5.601
 5498POPC   PO469096   2.180  37.368   5.525
 5498POPC   GL169097   2.058  37.631   5.814
 5498POPC   GL269098   2.182  37.967   5.786
 5498POPC   C1A69099   1.797  37.520   6.167
 5498POPC   D2A69100   1.703  37.713   6.523
 5498POPC   C3A69101   1.746  37.458   6.894
 5498POPC   C4A69102   1.892  37.622   7.247
 5498POPC   C1B69103   2.127  37.942   6.241
 5498POPC   C2B69104   2.344  38.058   6.595
 5498POPC   C3B69105   2.232  37.932   7.005
 5498POPC   C4B69106   2.347  37.848   7.424
 5499POPC   NC369107   9.351  31.162   5.535
 5499POPC   PO469108   9.827  30.724   5.469
 5499POPC   GL169109   9.757  30.552   5.884
 5499POPC   GL269110   9.465  30.768   5.893
 5499POPC   C1A69111   9.818  30.440   6.339
 5499POPC   D2A69112   9.850  30.723   6.704
 5499POPC   C3A69113   9.790  30.629   7.131
 5499POPC   C4A69114  10.130  30.358   7.298
 5499POPC   C1B69115   9.636  30.909   6.265
 5499POPC   C2B69116   9.426  31.018   6.602
 5499POPC   C3B69117   9.193  30.807   6.857
 5499POPC   C4B69118   9.197  30.856   7.284
 5500POPC   NC369119  19.725   8.094   5.423
 5500POPC   PO469120  19.717   8.691   5.711
 5500POPC   GL169121  19.721   8.308   5.912
 5500POPC   GL269122  20.046   8.234   5.901
 5500POPC   C1A69123  19.852   8.246   6.365
 5500POPC   D2A69124  19.850   8.517   6.728
 5500POPC   C3A69125  19.892   8.210   7.022
 5500POPC   C4A69126  20.154   7.892   7.062
 5500POPC   C1B69127  20.320   8.413   6.228
 5500POPC   C2B69128  20.319   8.278   6.661
 5500POPC   C3B69129  20.378   8.463   7.066
 5500POPC   C4B69130  20.169   8.325   7.423
 5501POPC   NC369131  31.950  17.579   5.376
 5501POPC   PO469132  32.663  17.584   5.433
 5501POPC   GL169133  32.324  17.377   5.730
 5501POPC   GL269134  32.012  17.562   5.892
 5501POPC   C1A69135  32.374  17.325   6.184
 5501POPC   D2A69136  32.187  17.426   6.575
 5501POPC   C3A69137  32.145  17.146   6.856
 5501POPC   C4A69138  32.308  17.194   7.263
 5501POPC   C1B69139  32.182  17.814   6.245
 5501POPC   C2B69140  32.268  18.066   6.588
 5501POPC   C3B69141  32.235  17.856   6.948
 5501POPC   C4B69142  31.945  17.561   7.073
 5502POPC   NC369143  16.174  31.065   5.473
 5502POPC   PO469144  15.745  30.544   5.400
 5502POPC   GL169145  15.864  30.774   5.752
 5502POPC   GL269146  16.196  30.639   5.822
 5502POPC   C1A69147  15.877  30.849   6.185
 5502POPC   D2A69148  15.727  30.656   6.547
 5502POPC   C3A69149  15.837  30.858   6.924
 5502POPC   C4A69150  15.723  30.762   7.324
 5502POPC   C1B69151  16.406  30.865   6.136
 5502POPC   C2B69152  16.263  30.862   6.553
 5502POPC   C3B69153  16.397  30.857   6.955
 5502POPC   C4B69154  16.234  30.849   7.345
 5503POPC   NC369155  21.216  23.204   5.574
 5503POPC   PO469156  20.981  22.566   5.741
 5503POPC   GL169157  21.294  22.824   5.903
 5503POPC   GL269158  21.633  22.772   5.745
 5503POPC   C1A69159  21.387  23.033   6.304
 5503POPC   D2A69160  21.396  23.039   6.733
 5503POPC   C3A69161  21.134  22.750   6.906
 5503POPC   C4A69162  21.180  22.774   7.323
 5503POPC   C1B69163  21.813  23.093   6.028
 5503POPC   C2B69164  21.857  23.171   6.475
 5503POPC   C3B69165  21.799  23.302   6.899
 5503POPC   C4B69166  21.630  23.043   7.226
 5504POPC   NC369167  14.399  26.270   5.484
 5504POPC   PO469168  13.995  25.766   5.662
 5504POPC   GL169169  14.289  25.950   5.924
 5504POPC   GL269170  14.649  25.955   5.810
 5504POPC   C1A69171  14.382  25.840   6.343
 5504POPC   D2A69172  14.443  26.216   6.568
 5504POPC   C3A69173  14.308  26.199   6.954
 5504POPC   C4A69174  14.486  26.313   7.328
 5504POPC   C1B69175  14.854  25.794   6.192
 5504POPC   C2B69176  14.858  25.912   6.640
 5504POPC   C3B69177  14.696  25.852   7.061
 5504POPC   C4B69178  14.680  25.889   7.520
 5505POPC   NC369179  17.810  12.189   5.492
 5505POPC   PO469180  17.344  11.680   5.340
 5505POPC   GL169181  17.434  11.921   5.728
 5505POPC   GL269182  17.762  11.773   5.834
 5505POPC   C1A69183  17.526  12.167   6.120
 5505POPC   D2A69184  17.378  12.094   6.512
 5505POPC   C3A69185  17.467  12.355   6.833
 5505POPC   C4A69186  17.315  12.155   7.185
 5505POPC   C1B69187  17.843  11.801   6.290
 5505POPC   C2B69188  17.860  12.022   6.684
 5505POPC   C3B69189  17.755  11.900   7.116
 5505POPC   C4B69190  17.781  11.704   7.548
 5506POPC   NC369191  25.030  42.646   5.340
 5506POPC   PO469192  25.303  41.993   5.412
 5506POPC   GL169193  25.248  42.320   5.691
 5506POPC   GL269194  24.851  42.356   5.710
 5506POPC   C1A69195  25.433  42.454   6.135
 5506POPC   D2A69196  25.476  42.599   6.607
 5506POPC   C3A69197  25.358  42.503   7.065
 5506POPC   C4A69198  25.646  42.475   7.457
 5506POPC   C1B69199  24.985  42.171   6.090
 5506POPC   C2B69200  25.096  42.261   6.495
 5506POPC   C3B69201  24.898  42.194   6.872
 5506POPC   C4B69202  25.102  42.104   7.261
 5507POPC   NC369203  13.403   8.704   5.630
 5507POPC   PO469204  13.786   8.157   5.453
 5507POPC   GL169205  13.723   7.993   5.868
 5507POPC   GL269206  13.402   8.196   5.838
 5507POPC   C1A69207  13.938   8.073   6.276
 5507POPC   D2A69208  13.921   8.330   6.676
 5507POPC   C3A69209  13.681   8.155   7.004
 5507POPC   C4A69210  13.855   8.077   7.398
 5507POPC   C1B69211  13.319   7.979   6.226
 5507POPC   C2B69212  13.215   8.029   6.656
 5507POPC   C3B69213  13.167   7.850   7.038
 5507POPC   C4B69214  13.319   7.907   7.487
 5508POPC   NC369215  32.453  22.076   5.462
 5508POPC   PO469216  32.751  22.625   5.781
 5508POPC   GL169217  32.416  22.324   5.890
 5508POPC   GL269218  32.045  22.291   5.718
 5508POPC   C1A69219  32.515  22.018   6.195
 5508POPC   D2A69220  32.653  22.175   6.595
 5508POPC   C3A69221  32.424  22.105   6.990
 5508POPC   C4A69222  32.269  22.431   7.287
 5508POPC   C1B69223  31.968  22.089   6.128
 5508POPC   C2B69224  32.128  22.155   6.553
 5508POPC   C3B69225  31.922  22.138   6.961
 5508POPC   C4B69226  32.064  21.977   7.366
 5509POPC   NC369227  42.683  19.283   5.418
 5509POPC   PO469228  42.139  19.064   5.204
 5509POPC   GL169229  42.271  19.005   5.643
 5509POPC   GL269230  42.182  19.271   5.824
 5509POPC   C1A69231  42.287  18.824   6.069
 5509POPC   D2A69232  42.078  18.885   6.457
 5509POPC   C3A69233  42.329  18.926   6.792
 5509POPC   C4A69234  42.318  18.856   7.216
 5509POPC   C1B69235  42.384  19.286   6.253
 5509POPC   C2B69236  42.276  19.413   6.676
 5509POPC   C3B69237  42.448  19.342   7.116
 5509POPC   C4B69238  42.466  19.486   7.588
 5510POPC   NC369239   8.384  20.095   5.780
 5510POPC   PO469240   8.883  19.966   5.339
 5510POPC   GL169241   8.866  19.910   5.792
 5510POPC   GL269242   9.162  20.009   5.916
 5510POPC   C1A69243   8.786  20.006   6.269
 5510POPC   D2A69244   8.864  19.801   6.655
 5510POPC   C3A69245   9.034  19.997   6.992
 5510POPC   C4A69246   9.310  20.202   7.271
 5510POPC   C1B69247   9.174  19.663   6.239
 5510POPC   C2B69248   9.294  19.533   6.676
 5510POPC   C3B69249   9.068  19.489   7.052
 5510POPC   C4B69250   8.619  19.614   7.081
 5511POPC   NC369251  16.524  34.644   5.436
 5511POPC   PO469252  16.748  34.095   5.269
 5511POPC   GL169253  16.783  34.326   5.714
 5511POPC   GL269254  17.102  34.290   5.856
 5511POPC   C1A69255  16.648  34.587   6.110
 5511POPC   D2A69256  16.793  34.804   6.510
 5511POPC   C3A69257  16.576  34.729   6.899
 5511POPC   C4A69258  16.700  34.464   7.226
 5511POPC   C1B69259  16.996  34.287   6.319
 5511POPC   C2B69260  16.920  34.349   6.766
 5511POPC   C3B69261  17.196  34.297   7.124
 5511POPC   C4B69262  17.392  34.035   7.447
 5512POPC   NC369263  14.809  17.371   5.411
 5512POPC   PO469264  15.462  17.175   5.536
 5512POPC   GL169265  15.358  17.326   5.908
 5512POPC   GL269266  15.064  17.462   5.835
 5512POPC   C1A69267  15.317  17.612   6.246
 5512POPC   D2A69268  15.238  17.444   6.634
 5512POPC   C3A69269  15.511  17.589   6.942
 5512POPC   C4A69270  15.328  17.499   7.303
 5512POPC   C1B69271  14.812  17.513   6.222
 5512POPC   C2B69272  14.734  17.274   6.605
 5512POPC   C3B69273  14.885  17.323   7.036
 5512POPC   C4B69274  14.806  17.593   7.386
 5513POPC   NC369275   2.027  33.638   5.377
 5513POPC   PO469276   1.583  34.188   5.352
 5513POPC   GL169277   1.749  34.022   5.811
 5513POPC   GL269278   1.948  33.666   5.873
 5513POPC   C1A69279   1.697  33.853   6.255
 5513POPC   D2A69280   2.067  33.774   6.535
 5513POPC   C3A69281   1.956  33.833   6.957
 5513POPC   C4A69282   1.850  34.173   7.249
 5513POPC   C1B69283   2.310  33.490   6.126
 5513POPC   C2B69284   2.341  33.337   6.552
 5513POPC   C3B69285   2.412  33.581   6.955
 5513POPC   C4B69286   2.187  33.572   7.334
 5514POPC   NC369287  39.242  30.338   4.981
 5514POPC   PO469288  39.384  29.808   5.408
 5514POPC   GL169289  39.170  29.858   5.828
 5514POPC   GL269290  38.818  29.702   5.824
 5514POPC   C1A69291  39.393  29.939   6.256
 5514POPC   D2A69292  39.677  29.774   6.621
 5514POPC   C3A69293  39.519  29.905   7.037
 5514POPC   C4A69294  39.099  30.101   7.084
 5514POPC   C1B69295  38.841  29.800   6.239
 5514POPC   C2B69296  38.819  29.917   6.651
 5514POPC   C3B69297  38.832  29.672   7.022
 5514POPC   C4B69298  38.790  29.592   7.457
 5515POPC   NC369299  19.735  10.522   5.489
 5515POPC   PO469300  20.291  10.384   5.524
 5515POPC   GL169301  19.967  10.200   5.844
 5515POPC   GL269302  19.561  10.205   5.834
 5515POPC   C1A69303  19.951  10.426   6.236
 5515POPC   D2A69304  20.155  10.690   6.573
 5515POPC   C3A69305  20.062  10.518   6.979
 5515POPC   C4A69306  20.004  10.696   7.420
 5515POPC   C1B69307  19.455  10.341   6.237
 5515POPC   C2B69308  19.634  10.582   6.611
 5515POPC   C3B69309  19.587  10.681   7.042
 5515POPC   C4B69310  19.492  10.389   7.364
 5516POPC   NC369311  36.920  17.208   5.497
 5516POPC   PO469312  37.384  17.651   5.355
 5516POPC   GL169313  37.163  17.623   5.797
 5516POPC   GL269314  36.789  17.599   5.786
 5516POPC   C1A69315  37.128  17.566   6.267
 5516POPC   D2A69316  36.901  17.223   6.518
 5516POPC   C3A69317  36.613  17.313   6.844
 5516POPC   C4A69318  36.756  17.436   7.211
 5516POPC   C1B69319  36.634  17.473   6.172
 5516POPC   C2B69320  36.703  17.730   6.554
 5516POPC   C3B69321  36.837  17.900   6.954
 5516POPC   C4B69322  36.702  17.947   7.389
 5517POPC   NC369323  20.273   2.758   5.317
 5517POPC   PO469324  19.607   2.571   5.085
 5517POPC   GL169325  19.802   2.583   5.538
 5517POPC   GL269326  19.933   2.892   5.696
 5517POPC   C1A69327  19.798   2.515   6.006
 5517POPC   D2A69328  19.670   2.834   6.334
 5517POPC   C3A69329  19.705   2.770   6.796
 5517POPC   C4A69330  19.970   2.615   7.150
 5517POPC   C1B69331  20.165   2.909   6.109
 5517POPC   C2B69332  20.169   3.008   6.571
 5517POPC   C3B69333  20.042   3.159   6.980
 5517POPC   C4B69334  19.733   3.051   7.302
 5518POPC   NC369335   4.916  31.013   5.575
 5518POPC   PO469336   5.295  30.625   5.311
 5518POPC   GL169337   5.248  30.647   5.788
 5518POPC   GL269338   4.902  30.638   5.903
 5518POPC   C1A69339   5.250  30.677   6.282
 5518POPC   D2A69340   5.218  30.492   6.717
 5518POPC   C3A69341   5.263  30.784   7.077
 5518POPC   C4A69342   5.229  30.643   7.504
 5518POPC   C1B69343   4.723  30.867   6.217
 5518POPC   C2B69344   4.753  30.643   6.569
 5518POPC   C3B69345   4.774  30.758   6.978
 5518POPC   C4B69346   4.714  30.921   7.367
 5519POPC   NC369347  31.526  26.653   5.301
 5519POPC   PO469348  31.235  27.239   5.371
 5519POPC   GL169349  31.373  26.979   5.753
 5519POPC   GL269350  31.492  26.635   5.811
 5519POPC   C1A69351  31.520  27.006   6.199
 5519POPC   D2A69352  31.407  27.232   6.562
 5519POPC   C3A69353  31.333  27.027   6.929
 5519POPC   C4A69354  31.377  26.780   7.329
 5519POPC   C1B69355  31.782  26.585   6.154
 5519POPC   C2B69356  31.715  26.561   6.574
 5519POPC   C3B69357  31.758  26.765   6.960
 5519POPC   C4B69358  31.885  26.864   7.375
 5520POPC   NC369359   2.562  37.263   5.256
 5520POPC   PO469360   3.204  36.923   5.243
 5520POPC   GL169361   3.099  36.978   5.697
 5520POPC   GL269362   2.739  36.985   5.693
 5520POPC   C1A69363   3.055  36.731   6.099
 5520POPC   D2A69364   2.894  36.776   6.518
 5520POPC   C3A69365   3.183  36.900   6.849
 5520POPC   C4A69366   3.045  36.623   7.142
 5520POPC   C1B69367   2.715  37.112   6.149
 5520POPC   C2B69368   2.472  37.095   6.549
 5520POPC   C3B69369   2.693  37.064   6.937
 5520POPC   C4B69370   2.673  36.908   7.349
 5521POPC   NC369371  21.228  20.146   5.257
 5521POPC   PO469372  21.380  19.458   5.219
 5521POPC   GL169373  21.350  19.802   5.610
 5521POPC   GL269374  21.608  20.063   5.739
 5521POPC   C1A69375  21.188  20.024   6.031
 5521POPC   D2A69376  21.370  19.945   6.466
 5521POPC   C3A69377  21.320  20.026   6.934
 5521POPC   C4A69378  21.425  19.890   7.401
 5521POPC   C1B69379  21.757  20.166   6.214
 5521POPC   C2B69380  21.623  20.343   6.663
 5521POPC   C3B69381  21.745  20.240   7.132
 5521POPC   C4B69382  21.785  20.149   7.616
 5522POPC   NC369383   4.610  11.728   5.451
 5522POPC   PO469384   4.478  12.399   5.474
 5522POPC   GL169385   4.282  12.077   5.734
 5522POPC   GL269386   4.572  12.004   5.912
 5522POPC   C1A69387   4.122  12.103   6.174
 5522POPC   D2A69388   4.358  12.104   6.598
 5522POPC   C3A69389   4.196  11.941   6.997
 5522POPC   C4A69390   4.026  12.103   7.386
 5522POPC   C1B69391   4.585  12.377   6.180
 5522POPC   C2B69392   4.670  12.505   6.604
 5522POPC   C3B69393   4.715  12.255   6.983
 5522POPC   C4B69394   4.551  12.092   7.389
 5523POPC   NC369395   6.057  23.021   5.332
 5523POPC   PO469396   5.614  22.509   5.423
 5523POPC   GL169397   5.825  22.726   5.756
 5523POPC   GL269398   5.743  23.082   5.823
 5523POPC   C1A69399   6.017  22.709   6.154
 5523POPC   D2A69400   5.891  22.803   6.586
 5523POPC   C3A69401   5.703  22.732   7.003
 5523POPC   C4A69402   5.937  22.959   7.322
 5523POPC   C1B69403   5.562  22.943   6.219
 5523POPC   C2B69404   5.418  22.999   6.632
 5523POPC   C3B69405   5.707  23.227   6.872
 5523POPC   C4B69406   5.798  23.473   7.233
 5524POPC   NC369407  16.675  36.694   5.494
 5524POPC   PO469408  16.579  37.384   5.413
 5524POPC   GL169409  16.534  37.106   5.773
 5524POPC   GL269410  16.887  37.031   5.856
 5524POPC   C1A69411  16.426  36.873   6.147
 5524POPC   D2A69412  16.520  36.940   6.557
 5524POPC   C3A69413  16.443  36.629   6.832
 5524POPC   C4A69414  16.517  36.764   7.233
 5524POPC   C1B69415  16.885  36.664   6.122
 5524POPC   C2B69416  16.903  36.611   6.545
 5524POPC   C3B69417  16.928  36.865   6.913
 5524POPC   C4B69418  17.087  36.656   7.251
 5525POPC   NC369419  38.657  13.792   5.187
 5525POPC   PO469420  38.333  13.441   5.647
 5525POPC   GL169421  38.308  13.759   5.896
 5525POPC   GL269422  38.594  13.879   5.712
 5525POPC   C1A69423  38.213  13.733   6.330
 5525POPC   D2A69424  38.293  13.551   6.728
 5525POPC   C3A69425  38.140  13.674   7.099
 5525POPC   C4A69426  38.032  13.539   7.480
 5525POPC   C1B69427  38.719  13.765   6.167
 5525POPC   C2B69428  38.659  13.920   6.583
 5525POPC   C3B69429  38.737  13.665   6.930
 5525POPC   C4B69430  38.569  13.464   7.266
 5526POPC   NC369431  44.590   0.706   5.580
 5526POPC   PO469432  44.887   0.161   5.305
 5526POPC   GL169433  44.908   0.325   5.768
 5526POPC   GL269434  44.599   0.327   5.927
 5526POPC   C1A69435  44.911   0.189   6.266
 5526POPC   D2A69436  44.901   0.363   6.686
 5526POPC   C3A69437  44.586   0.139   6.906
 5526POPC   C4A69438  44.532   0.030   7.331
 5526POPC   C1B69439  44.850   0.682   6.168
 5526POPC   C2B69440  44.774   0.895   6.540
 5526POPC   C3B69441  44.635   0.844   6.956
 5526POPC   C4B69442  44.646   0.521   7.230
 5527POPC   NC369443  28.221  18.285   5.184
 5527POPC   PO469444  28.642  17.803   5.334
 5527POPC   GL169445  28.371  18.037   5.647
 5527POPC   GL269446  28.632  17.978   5.888
 5527POPC   C1A69447  28.338  18.375   6.016
 5527POPC   D2A69448  28.405  18.398   6.505
 5527POPC   C3A69449  28.110  18.317   6.880
 5527POPC   C4A69450  28.096  18.310   7.342
 5527POPC   C1B69451  28.259  17.886   6.149
 5527POPC   C2B69452  28.221  17.891   6.594
 5527POPC   C3B69453  28.529  18.039   6.894
 5527POPC   C4B69454  28.568  17.934   7.304
 5528POPC   NC369455  29.458   7.496   5.551
 5528POPC   PO469456  29.124   6.868   5.389
 5528POPC   GL169457  29.036   7.076   5.796
 5528POPC   GL269458  28.760   7.326   5.716
 5528POPC   C1A69459  29.222   7.248   6.213
 5528POPC   D2A69460  29.450   7.164   6.625
 5528POPC   C3A69461  29.184   7.286   6.969
 5528POPC   C4A69462  29.156   7.718   7.090
 5528POPC   C1B69463  28.666   7.249   6.167
 5528POPC   C2B69464  28.837   7.280   6.595
 5528POPC   C3B69465  28.698   7.445   7.013
 5528POPC   C4B69466  28.568   7.365   7.422
 5529POPC   NC369467  23.995   8.835   5.461
 5529POPC   PO469468  23.690   9.396   5.412
 5529POPC   GL169469  23.521   9.169   5.767
 5529POPC   GL269470  23.566   8.809   5.736
 5529POPC   C1A69471  23.689   9.016   6.172
 5529POPC   D2A69472  23.925   8.966   6.559
 5529POPC   C3A69473  23.645   8.882   6.893
 5529POPC   C4A69474  23.810   9.078   7.232
 5529POPC   C1B69475  23.466   8.551   6.098
 5529POPC   C2B69476  23.320   8.711   6.497
 5529POPC   C3B69477  23.327   8.459   6.842
 5529POPC   C4B69478  23.565   8.434   7.192
 5530POPC   NC369479  32.315  10.750   4.813
 5530POPC   PO469480  32.241  11.169   5.360
 5530POPC   GL169481  32.191  11.379   5.765
 5530POPC   GL269482  32.476  11.176   5.852
 5530POPC   C1A69483  32.221  11.467   6.216
 5530POPC   D2A69484  32.073  11.401   6.623
 5530POPC   C3A69485  31.979  11.131   6.922
 5530POPC   C4A69486  32.063  11.377   7.284
 5530POPC   C1B69487  32.368  10.983   6.175
 5530POPC   C2B69488  32.499  11.127   6.559
 5530POPC   C3B69489  32.457  11.238   6.974
 5530POPC   C4B69490  32.579  11.092   7.344
 5531POPC   NC369491  44.556  41.053   5.584
 5531POPC   PO469492  44.616  40.391   5.423
 5531POPC   GL169493  44.713  40.602   5.835
 5531POPC   GL269494  44.998  40.842   5.765
 5531POPC   C1A69495  44.544  40.743   6.260
 5531POPC   D2A69496  44.379  40.632   6.684
 5531POPC   C3A69497  44.646  40.625   7.056
 5531POPC   C4A69498   0.079  40.473   7.137
 5531POPC   C1B69499   0.029  40.910   6.216
 5531POPC   C2B69500  44.931  40.773   6.650
 5531POPC   C3B69501   0.026  40.976   7.042
 5531POPC   C4B69502  44.733  41.015   7.377
 5532POPC   NC369503  21.870   3.148   5.586
 5532POPC   PO469504  22.324   2.691   5.297
 5532POPC   GL169505  22.093   2.697   5.665
 5532POPC   GL269506  22.392   2.844   5.816
 5532POPC   C1A69507  21.972   2.638   6.107
 5532POPC   D2A69508  21.936   2.829   6.528
 5532POPC   C3A69509  21.887   2.658   6.944
 5532POPC   C4A69510  22.032   2.723   7.356
 5532POPC   C1B69511  22.535   3.044   6.202
 5532POPC   C2B69512  22.390   3.089   6.595
 5532POPC   C3B69513  22.295   3.029   7.024
 5532POPC   C4B69514  22.443   3.021   7.444
 5533POPC   NC369515  22.306   9.802   5.447
 5533POPC   PO469516  21.929   9.313   5.535
 5533POPC   GL169517  21.945   9.723   5.806
 5533POPC   GL269518  22.187  10.060   5.855
 5533POPC   C1A69519  22.063   9.659   6.239
 5533POPC   D2A69520  22.034   9.397   6.604
 5533POPC   C3A69521  22.199   9.575   6.998
 5533POPC   C4A69522  21.903   9.683   7.310
 5533POPC   C1B69523  22.059  10.169   6.245
 5533POPC   C2B69524  22.078   9.983   6.657
 5533POPC   C3B69525  22.262  10.061   7.038
 5533POPC   C4B69526  22.276  10.010   7.449
 5534POPC   NC369527   4.358  12.836   5.360
 5534POPC   PO469528   4.426  13.531   5.262
 5534POPC   GL169529   4.412  13.190   5.716
 5534POPC   GL269530   4.550  12.816   5.835
 5534POPC   C1A69531   4.323  13.108   6.177
 5534POPC   D2A69532   4.154  13.113   6.606
 5534POPC   C3A69533   4.411  12.882   6.877
 5534POPC   C4A69534   4.537  12.944   7.297
 5534POPC   C1B69535   4.166  12.642   6.025
 5534POPC   C2B69536   4.136  12.553   6.463
 5534POPC   C3B69537   4.014  12.404   6.876
 5534POPC   C4B69538   4.310  12.485   7.187
 5535POPC   NC369539  29.631  33.030   5.487
 5535POPC   PO469540  30.202  32.848   5.240
 5535POPC   GL169541  29.991  32.735   5.712
 5535POPC   GL269542  29.629  32.788   5.924
 5535POPC   C1A69543  30.055  32.918   6.143
 5535POPC   D2A69544  30.026  32.763   6.553
 5535POPC   C3A69545  29.769  32.890   6.867
 5535POPC   C4A69546  29.899  32.840   7.262
 5535POPC   C1B69547  29.582  33.156   6.169
 5535POPC   C2B69548  29.415  33.157   6.584
 5535POPC   C3B69549  29.698  33.396   6.844
 5535POPC   C4B69550  29.920  33.350   7.210
 5536POPC   NC369551   4.723   0.674   5.433
 5536POPC   PO469552   4.418   0.068   5.496
 5536POPC   GL169553   4.222   0.199   5.852
 5536POPC   GL269554   4.180   0.555   5.800
 5536POPC   C1A69555   4.277   0.283   6.287
 5536POPC   D2A69556   4.224   0.507   6.643
 5536POPC   C3A69557   4.460   0.400   6.955
 5536POPC   C4A69558   4.545   0.017   7.155
 5536POPC   C1B69559   4.266   0.822   6.186
 5536POPC   C2B69560   4.186   1.019   6.594
 5536POPC   C3B69561   4.135   0.872   7.004
 5536POPC   C4B69562   4.411   0.797   7.304
 5537POPC   NC369563   2.729  25.635   5.303
 5537POPC   PO469564   2.904  24.969   5.517
 5537POPC   GL169565   2.709  25.140   5.833
 5537POPC   GL269566   2.932  25.393   5.891
 5537POPC   C1A69567   2.766  25.050   6.249
 5537POPC   D2A69568   2.969  24.936   6.580
 5537POPC   C3A69569   2.716  24.955   6.918
 5537POPC   C4A69570   3.010  25.045   7.202
 5537POPC   C1B69571   2.674  25.561   6.240
 5537POPC   C2B69572   2.686  25.387   6.646
 5537POPC   C3B69573   2.776  25.465   7.058
 5537POPC   C4B69574   2.479  25.340   7.358
 5538POPC   NC369575  37.043  11.096   5.031
 5538POPC   PO469576  36.571  11.511   5.323
 5538POPC   GL169577  36.795  11.318   5.714
 5538POPC   GL269578  36.922  10.990   5.800
 5538POPC   C1A69579  36.972  11.469   6.097
 5538POPC   D2A69580  36.932  11.652   6.523
 5538POPC   C3A69581  36.734  11.419   6.874
 5538POPC   C4A69582  36.880  11.553   7.248
 5538POPC   C1B69583  36.881  10.725   6.166
 5538POPC   C2B69584  37.082  10.691   6.581
 5538POPC   C3B69585  36.946  10.927   6.945
 5538POPC   C4B69586  36.777  11.075   7.372
 5539POPC   NC369587  39.356  26.590   5.197
 5539POPC   PO469588  39.324  25.929   5.374
 5539POPC   GL169589  39.412  26.296   5.630
 5539POPC   GL269590  39.087  26.382   5.784
 5539POPC   C1A69591  39.576  26.302   6.049
 5539POPC   D2A69592  39.473  26.157   6.476
 5539POPC   C3A69593  39.542  26.323   6.890
 5539POPC   C4A69594  39.462  26.135   7.250
 5539POPC   C1B69595  39.114  26.010   6.071
 5539POPC   C2B69596  38.990  25.956   6.506
 5539POPC   C3B69597  39.151  25.904   6.911
 5539POPC   C4B69598  38.957  26.189   7.212
 5540POPC   NC369599  44.144  40.315   5.475
 5540POPC   PO469600  43.564  39.780   5.455
 5540POPC   GL169601  43.699  40.092   5.763
 5540POPC   GL269602  44.002  40.062   6.003
 5540POPC   C1A69603  43.567  40.252   6.161
 5540POPC   D2A69604  43.736  40.077   6.530
 5540POPC   C3A69605  43.566  40.175   6.921
 5540POPC   C4A69606  43.750  40.144   7.312
 5540POPC   C1B69607  44.298  39.749   6.212
 5540POPC   C2B69608  44.350  39.478   6.562
 5540POPC   C3B69609  44.132  39.567   6.899
 5540POPC   C4B69610  44.200  39.909   7.189
 5541POPC   NC369611   8.737  25.842   5.395
 5541POPC   PO469612   8.080  26.175   5.428
 5541POPC   GL169613   8.090  25.948   5.808
 5541POPC   GL269614   8.404  25.795   5.848
 5541POPC   C1A69615   7.938  25.940   6.221
 5541POPC   D2A69616   7.961  26.046   6.654
 5541POPC   C3A69617   7.958  25.799   7.013
 5541POPC   C4A69618   7.849  26.148   7.262
 5541POPC   C1B69619   8.440  25.988   6.284
 5541POPC   C2B69620   8.443  25.969   6.744
 5541POPC   C3B69621   8.434  25.874   7.186
 5541POPC   C4B69622   8.635  25.473   7.345
 5542POPC   NC369623  31.415  13.768   5.387
 5542POPC   PO469624  31.817  13.265   5.482
 5542POPC   GL169625  31.584  13.568   5.832
 5542POPC   GL269626  31.250  13.791   5.856
 5542POPC   C1A69627  31.636  13.719   6.276
 5542POPC   D2A69628  31.649  13.530   6.709
 5542POPC   C3A69629  31.458  13.666   7.131
 5542POPC   C4A69630  31.553  13.663   7.602
 5542POPC   C1B69631  31.153  13.527   6.171
 5542POPC   C2B69632  31.111  13.489   6.584
 5542POPC   C3B69633  31.092  13.329   6.978
 5542POPC   C4B69634  31.056  13.444   7.379
 5543POPC   NC369635   8.865  34.066   5.419
 5543POPC   PO469636   9.510  33.993   5.323
 5543POPC   GL169637   9.280  33.932   5.690
 5543POPC   GL269638   9.091  33.614   5.699
 5543POPC   C1A69639   9.100  34.008   6.076
 5543POPC   D2A69640   9.032  34.128   6.499
 5543POPC   C3A69641   9.086  33.843   6.811
 5543POPC   C4A69642   9.055  33.842   7.225
 5543POPC   C1B69643   8.825  33.582   6.054
 5543POPC   C2B69644   8.815  33.558   6.469
 5543POPC   C3B69645   8.680  33.555   6.875
 5543POPC   C4B69646   8.585  33.615   7.281
 5544POPC   NC369647  30.721   0.276   5.241
 5544POPC   PO469648  30.224   0.731   5.311
 5544POPC   GL169649  30.556   0.570   5.672
 5544POPC   GL269650  30.806   0.244   5.757
 5544POPC   C1A69651  30.730   0.679   6.112
 5544POPC   D2A69652  30.881   0.525   6.536
 5544POPC   C3A69653  30.792   0.632   6.968
 5544POPC   C4A69654  30.877   0.218   7.190
 5544POPC   C1B69655  30.675   0.171   6.199
 5544POPC   C2B69656  30.397   0.314   6.558
 5544POPC   C3B69657  30.374   0.372   7.032
 5544POPC   C4B69658  30.411   0.319   7.469
 5545POPC   NC369659  22.868  42.603   5.644
 5545POPC   PO469660  22.928  43.208   5.369
 5545POPC   GL169661  22.819  43.253   5.810
 5545POPC   GL269662  22.874  43.593   5.956
 5545POPC   C1A69663  22.772  43.040   6.233
 5545POPC   D2A69664  22.785  43.291   6.637
 5545POPC   C3A69665  22.719  43.027   6.985
 5545POPC   C4A69666  22.991  42.755   7.175
 5545POPC   C1B69667  23.172  43.332   6.201
 5545POPC   C2B69668  23.221  43.023   6.548
 5545POPC   C3B69669  23.224  43.168   6.948
 5545POPC   C4B69670  22.954  43.421   7.200
 5546POPC   NC369671  43.937  13.161   5.392
 5546POPC   PO469672  44.252  12.608   5.524
 5546POPC   GL169673  44.049  12.859   5.854
 5546POPC   GL269674  43.707  12.902   5.790
 5546POPC   C1A69675  43.834  12.757   6.266
 5546POPC   D2A69676  43.630  12.547   6.594
 5546POPC   C3A69677  43.758  12.686   6.983
 5546POPC   C4A69678  43.998  12.783   7.355
 5546POPC   C1B69679  43.656  13.211   6.149
 5546POPC   C2B69680  43.611  13.101   6.614
 5546POPC   C3B69681  43.706  13.197   7.034
 5546POPC   C4B69682  43.638  13.111   7.452
 5547POPC   NC369683  32.034  34.562   5.048
 5547POPC   PO469684  32.139  34.051   5.506
 5547POPC   GL169685  32.278  33.764   5.813
 5547POPC   GL269686  32.476  33.495   5.737
 5547POPC   C1A69687  32.275  33.809   6.259
 5547POPC   D2A69688  32.390  34.038   6.607
 5547POPC   C3A69689  32.323  33.811   6.944
 5547POPC   C4A69690  32.134  33.838   7.318
 5547POPC   C1B69691  32.497  33.347   6.208
 5547POPC   C2B69692  32.466  33.386   6.694
 5547POPC   C3B69693  32.576  33.377   7.171
 5547POPC   C4B69694  32.379  33.482   7.609
 5548POPC   NC369695  12.898  11.336   5.349
 5548POPC   PO469696  12.321  11.473   5.166
 5548POPC   GL169697  12.526  11.356   5.687
 5548POPC   GL269698  12.488  11.005   5.707
 5548POPC   C1A69699  12.895  11.427   6.074
 5548POPC   D2A69700  13.187  11.445   6.522
 5548POPC   C3A69701  13.028  11.613   6.961
 5548POPC   C4A69702  12.683  11.468   7.273
 5548POPC   C1B69703  12.703  10.904   6.105
 5548POPC   C2B69704  12.779  11.132   6.469
 5548POPC   C3B69705  12.821  11.123   6.899
 5548POPC   C4B69706  12.746  10.767   7.141
 5549POPC   NC369707  43.039  18.168   5.625
 5549POPC   PO469708  42.786  18.799   5.454
 5549POPC   GL169709  42.944  18.626   5.841
 5549POPC   GL269710  42.666  18.431   5.980
 5549POPC   C1A69711  43.115  18.502   6.247
 5549POPC   D2A69712  43.232  18.307   6.612
 5549POPC   C3A69713  43.159  18.469   7.010
 5549POPC   C4A69714  43.315  18.299   7.390
 5549POPC   C1B69715  42.765  18.137   6.359
 5549POPC   C2B69716  42.827  18.078   6.844
 5549POPC   C3B69717  42.832  18.178   7.308
 5549POPC   C4B69718  42.763  18.004   7.737
 5550POPC   NC369719  41.666  38.628   5.352
 5550POPC   PO469720  41.706  37.945   5.382
 5550POPC   GL169721  41.742  38.305   5.743
 5550POPC   GL269722  41.497  38.625   5.828
 5550POPC   C1A69723  41.603  38.302   6.200
 5550POPC   D2A69724  41.389  38.208   6.571
 5550POPC   C3A69725  41.640  38.192   6.910
 5550POPC   C4A69726  41.542  38.131   7.287
 5550POPC   C1B69727  41.618  38.828   6.221
 5550POPC   C2B69728  41.682  38.640   6.645
 5550POPC   C3B69729  41.554  38.733   7.076
 5550POPC   C4B69730  41.743  38.870   7.464
 5551POPC   NC369731  29.191  36.226   5.481
 5551POPC   PO469732  29.686  35.755   5.506
 5551POPC   GL169733  29.472  35.951   5.828
 5551POPC   GL269734  29.140  35.898   5.881
 5551POPC   C1A69735  29.448  36.096   6.242
 5551POPC   D2A69736  29.206  36.133   6.600
 5551POPC   C3A69737  29.402  36.098   7.023
 5551POPC   C4A69738  29.141  36.139   7.369
 5551POPC   C1B69739  28.862  36.035   6.207
 5551POPC   C2B69740  28.699  35.844   6.565
 5551POPC   C3B69741  28.867  35.970   6.935
 5551POPC   C4B69742  28.880  35.701   7.235
 5552POPC   NC369743  40.001  10.819   5.474
 5552POPC   PO469744  40.075  11.485   5.316
 5552POPC   GL169745  40.071  11.251   5.729
 5552POPC   GL269746  40.388  11.074   5.784
 5552POPC   C1A69747  39.940  11.052   6.119
 5552POPC   D2A69748  39.944  11.299   6.475
 5552POPC   C3A69749  39.755  11.133   6.840
 5552POPC   C4A69750  39.847  11.114   7.287
 5552POPC   C1B69751  40.373  11.339   6.163
 5552POPC   C2B69752  40.444  11.496   6.587
 5552POPC   C3B69753  40.430  11.234   6.964
 5552POPC   C4B69754  40.335  11.091   7.376
 5553POPC   NC369755  29.600  44.469   5.556
 5553POPC   PO469756  29.030  44.834   5.358
 5553POPC   GL169757  29.246  44.785   5.770
 5553POPC   GL269758  29.576  44.923   5.836
 5553POPC   C1A69759  29.143  44.578   6.186
 5553POPC   D2A69760  29.250  44.589   6.628
 5553POPC   C3A69761  28.991  44.525   6.994
 5553POPC   C4A69762  28.707  44.602   7.356
 5553POPC   C1B69763  29.416   0.023   6.256
 5553POPC   C2B69764  29.384   0.141   6.692
 5553POPC   C3B69765  29.368  44.852   7.057
 5553POPC   C4B69766  29.223  44.632   7.441
 5554POPC   NC369767  19.381  42.754   5.480
 5554POPC   PO469768  19.823  42.291   5.275
 5554POPC   GL169769  19.797  42.281   5.783
 5554POPC   GL269770  19.496  42.146   5.986
 5554POPC   C1A69771  19.925  42.230   6.250
 5554POPC   D2A69772  19.635  42.189   6.606
 5554POPC   C3A69773  19.782  42.329   6.992
 5554POPC   C4A69774  19.967  42.122   7.251
 5554POPC   C1B69775  19.527  42.565   6.261
 5554POPC   C2B69776  19.604  42.712   6.718
 5554POPC   C3B69777  19.635  42.793   7.188
 5554POPC   C4B69778  19.640  42.871   7.653
 5555POPC   NC369779   6.966   5.894   5.444
 5555POPC   PO469780   6.383   6.064   5.356
 5555POPC   GL169781   6.481   6.072   5.791
 5555POPC   GL269782   6.802   5.964   5.922
 5555POPC   C1A69783   6.375   5.856   6.178
 5555POPC   D2A69784   6.510   5.623   6.527
 5555POPC   C3A69785   6.841   5.800   6.733
 5555POPC   C4A69786   6.721   5.822   7.153
 5555POPC   C1B69787   6.758   6.168   6.350
 5555POPC   C2B69788   6.439   6.102   6.700
 5555POPC   C3B69789   6.425   6.244   7.122
 5555POPC   C4B69790   6.553   6.188   7.540
 5556POPC   NC369791  40.698   3.338   5.359
 5556POPC   PO469792  41.121   3.906   5.418
 5556POPC   GL169793  40.899   3.715   5.788
 5556POPC   GL269794  40.858   3.368   5.822
 5556POPC   C1A69795  40.734   3.618   6.236
 5556POPC   D2A69796  40.481   3.795   6.529
 5556POPC   C3A69797  40.597   3.847   6.923
 5556POPC   C4A69798  40.968   3.696   7.122
 5556POPC   C1B69799  40.536   3.179   6.036
 5556POPC   C2B69800  40.629   3.122   6.457
 5556POPC   C3B69801  40.726   3.368   6.807
 5556POPC   C4B69802  40.481   3.419   7.200
 5557POPC   NC369803  14.778  31.174   5.364
 5557POPC   PO469804  14.322  31.569   5.312
 5557POPC   GL169805  14.603  31.533   5.701
 5557POPC   GL269806  14.418  31.243   5.870
 5557POPC   C1A69807  14.685  31.529   6.184
 5557POPC   D2A69808  14.315  31.369   6.450
 5557POPC   C3A69809  14.333  31.522   6.865
 5557POPC   C4A69810  14.704  31.754   7.007
 5557POPC   C1B69811  14.616  31.011   6.237
 5557POPC   C2B69812  14.661  30.904   6.708
 5557POPC   C3B69813  14.696  31.005   7.183
 5557POPC   C4B69814  14.474  31.110   7.594
 5558POPC   NC369815  32.840  17.995   5.564
 5558POPC   PO469816  32.923  18.516   5.179
 5558POPC   GL169817  33.086  18.491   5.637
 5558POPC   GL269818  33.212  18.200   5.834
 5558POPC   C1A69819  32.990  18.589   6.106
 5558POPC   D2A69820  33.111  18.592   6.567
 5558POPC   C3A69821  32.959  18.644   6.968
 5558POPC   C4A69822  32.998  18.269   7.261
 5558POPC   C1B69823  33.196  18.040   6.256
 5558POPC   C2B69824  33.412  18.062   6.669
 5558POPC   C3B69825  33.266  17.829   7.040
 5558POPC   C4B69826  33.253  17.895   7.483
 5559POPC   NC369827  37.436  10.869   5.501
 5559POPC   PO469828  37.198  10.228   5.337
 5559POPC   GL169829  37.437  10.335   5.790
 5559POPC   GL269830  37.337  10.665   5.945
 5559POPC   C1A69831  37.648  10.377   6.240
 5559POPC   D2A69832  37.612  10.646   6.642
 5559POPC   C3A69833  37.685  10.457   7.017
 5559POPC   C4A69834  37.517  10.185   7.245
 5559POPC   C1B69835  37.644  10.892   6.195
 5559POPC   C2B69836  38.051  10.777   6.412
 5559POPC   C3B69837  38.057  10.819   6.888
 5559POPC   C4B69838  37.708  10.953   7.146
 5560POPC   NC369839  34.365  16.865   5.276
 5560POPC   PO469840  34.232  17.451   5.537
 5560POPC   GL169841  34.668  17.374   5.724
 5560POPC   GL269842  34.692  17.032   5.718
 5560POPC   C1A69843  34.766  17.539   6.144
 5560POPC   D2A69844  34.513  17.596   6.496
 5560POPC   C3A69845  34.728  17.633   6.856
 5560POPC   C4A69846  34.568  17.592   7.262
 5560POPC   C1B69847  34.448  17.118   6.106
 5560POPC   C2B69848  34.544  17.071   6.524
 5560POPC   C3B69849  34.462  17.201   6.925
 5560POPC   C4B69850  34.264  16.941   7.192
 5561POPC   NC369851  38.319  17.252   5.469
 5561POPC   PO469852  38.485  17.885   5.302
 5561POPC   GL169853  38.423  17.676   5.712
 5561POPC   GL269854  38.711  17.428   5.748
 5561POPC   C1A69855  38.301  17.742   6.138
 5561POPC   D2A69856  38.521  17.632   6.530
 5561POPC   C3A69857  38.304  17.589   6.921
 5561POPC   C4A69858  38.201  17.229   7.209
 5561POPC   C1B69859  38.836  17.652   6.115
 5561POPC   C2B69860  39.047  17.682   6.529
 5561POPC   C3B69861  38.908  17.553   6.947
 5561POPC   C4B69862  38.648  17.658   7.306
 5562POPC   NC369863  32.810  36.872   5.453
 5562POPC   PO469864  33.393  37.256   5.232
 5562POPC   GL169865  33.292  37.221   5.717
 5562POPC   GL269866  32.947  37.276   5.819
 5562POPC   C1A69867  33.207  36.979   6.137
 5562POPC   D2A69868  33.229  37.101   6.534
 5562POPC   C3A69869  33.286  36.782   6.861
 5562POPC   C4A69870  33.090  36.781   7.280
 5562POPC   C1B69871  32.763  37.268   6.215
 5562POPC   C2B69872  32.807  37.401   6.629
 5562POPC   C3B69873  32.965  37.184   6.975
 5562POPC   C4B69874  32.753  37.161   7.391
 5563POPC   NC369875   1.751  13.063   5.563
 5563POPC   PO469876   2.364  12.779   5.401
 5563POPC   GL169877   2.101  12.764   5.801
 5563POPC   GL269878   1.774  12.579   5.822
 5563POPC   C1A69879   2.147  12.961   6.234
 5563POPC   D2A69880   2.326  13.039   6.635
 5563POPC   C3A69881   1.993  13.077   6.905
 5563POPC   C4A69882   2.025  13.065   7.326
 5563POPC   C1B69883   1.611  12.472   6.259
 5563POPC   C2B69884   1.734  12.568   6.714
 5563POPC   C3B69885   1.780  12.621   7.179
 5563POPC   C4B69886   1.916  12.554   7.610
 5564POPC   NC369887  29.903   1.926   5.511
 5564POPC   PO469888  29.921   2.622   5.242
 5564POPC   GL169889  30.162   2.308   5.736
 5564POPC   GL269890  30.214   1.913   5.892
 5564POPC   C1A69891  30.059   2.264   6.210
 5564POPC   D2A69892  30.061   2.047   6.603
 5564POPC   C3A69893  29.770   2.167   6.949
 5564POPC   C4A69894  29.979   2.048   7.316
 5564POPC   C1B69895  29.767   1.871   6.147
 5564POPC   C2B69896  29.610   1.813   6.606
 5564POPC   C3B69897  29.728   1.647   7.047
 5564POPC   C4B69898  29.871   1.574   7.511
 5565POPC   NC369899   4.290  16.578   5.537
 5565POPC   PO469900   4.541  17.234   5.399
 5565POPC   GL169901   4.667  16.946   5.800
 5565POPC   GL269902   4.390  16.765   5.981
 5565POPC   C1A69903   4.766  16.793   6.288
 5565POPC   D2A69904   4.425  16.785   6.587
 5565POPC   C3A69905   4.634  16.748   6.951
 5565POPC   C4A69906   4.562  16.811   7.369
 5565POPC   C1B69907   4.172  16.427   6.209
 5565POPC   C2B69908   3.868  16.365   6.542
 5565POPC   C3B69909   3.899  16.585   6.926
 5565POPC   C4B69910   4.258  16.472   7.171
 5566POPC   NC369911   7.311   9.422   5.134
 5566POPC   PO469912   7.048   8.831   5.374
 5566POPC   GL169913   7.314   8.996   5.731
 5566POPC   GL269914   7.465   8.690   5.878
 5566POPC   C1A69915   7.523   9.103   6.164
 5566POPC   D2A69916   7.498   8.891   6.569
 5566POPC   C3A69917   7.459   9.167   6.909
 5566POPC   C4A69918   7.190   9.168   7.287
 5566POPC   C1B69919   7.803   8.662   6.184
 5566POPC   C2B69920   7.803   8.487   6.605
 5566POPC   C3B69921   7.817   8.674   7.007
 5566POPC   C4B69922   7.412   8.729   7.161
 5567POPC   NC369923  26.235  33.446   5.502
 5567POPC   PO469924  25.871  33.980   5.309
 5567POPC   GL169925  25.929  33.913   5.847
 5567POPC   GL269926  25.627  34.055   5.939
 5567POPC   C1A69927  26.161  33.780   6.280
 5567POPC   D2A69928  25.985  33.797   6.739
 5567POPC   C3A69929  26.203  33.784   7.156
 5567POPC   C4A69930  26.401  33.529   7.513
 5567POPC   C1B69931  25.649  33.833   6.315
 5567POPC   C2B69932  25.493  33.971   6.683
 5567POPC   C3B69933  25.644  34.009   7.082
 5567POPC   C4B69934  25.783  33.870   7.465
 5568POPC   NC369935   3.671  38.856   5.344
 5568POPC   PO469936   3.333  38.264   5.361
 5568POPC   GL169937   3.511  38.223   5.742
 5568POPC   GL269938   3.551  38.600   5.790
 5568POPC   C1A69939   3.706  38.255   6.133
 5568POPC   D2A69940   3.650  38.539   6.468
 5568POPC   C3A69941   3.557  38.287   6.811
 5568POPC   C4A69942   3.610  38.324   7.241
 5568POPC   C1B69943   3.240  38.651   6.135
 5568POPC   C2B69944   3.157  38.589   6.592
 5568POPC   C3B69945   3.314  38.693   7.008
 5568POPC   C4B69946   3.316  38.668   7.466
 5569POPC   NC369947   9.447   5.204   5.245
 5569POPC   PO469948  10.125   4.898   5.342
 5569POPC   GL169949  10.044   5.157   5.743
 5569POPC   GL269950   9.667   5.195   5.850
 5569POPC   C1A69951  10.016   5.059   6.190
 5569POPC   D2A69952   9.846   4.856   6.537
 5569POPC   C3A69953   9.999   4.984   6.891
 5569POPC   C4A69954  10.047   4.995   7.260
 5569POPC   C1B69955   9.560   5.253   6.330
 5569POPC   C2B69956   9.549   5.250   6.791
 5569POPC   C3B69957   9.612   5.283   7.238
 5569POPC   C4B69958   9.465   5.367   7.711
 5570POPC   NC369959   7.664  34.856   5.471
 5570POPC   PO469960   7.275  34.178   5.414
 5570POPC   GL169961   7.445  34.347   5.833
 5570POPC   GL269962   7.437  34.733   5.904
 5570POPC   C1A69963   7.517  34.405   6.299
 5570POPC   D2A69964   7.419  34.767   6.598
 5570POPC   C3A69965   7.356  34.701   7.041
 5570POPC   C4A69966   7.072  34.874   7.331
 5570POPC   C1B69967   7.771  34.871   6.192
 5570POPC   C2B69968   7.919  34.676   6.559
 5570POPC   C3B69969   7.703  34.364   6.797
 5570POPC   C4B69970   7.813  34.524   7.171
 5571POPC   NC369971  12.098  30.909   5.338
 5571POPC   PO469972  12.283  30.163   5.486
 5571POPC   GL169973  12.135  30.559   5.715
 5571POPC   GL269974  12.374  30.853   5.753
 5571POPC   C1A69975  11.994  30.774   6.091
 5571POPC   D2A69976  12.177  30.901   6.480
 5571POPC   C3A69977  12.075  30.685   6.844
 5571POPC   C4A69978  11.999  30.507   7.247
 5571POPC   C1B69979  12.544  30.777   6.148
 5571POPC   C2B69980  12.697  30.984   6.515
 5571POPC   C3B69981  12.489  30.990   6.891
 5571POPC   C4B69982  12.304  30.914   7.278
 5572POPC   NC369983  19.764  39.186   5.271
 5572POPC   PO469984  19.302  39.492   5.602
 5572POPC   GL169985  19.688  39.422   5.854
 5572POPC   GL269986  19.916  39.121   5.825
 5572POPC   C1A69987  19.797  39.359   6.313
 5572POPC   D2A69988  19.613  39.241   6.703
 5572POPC   C3A69989  19.826  39.255   7.088
 5572POPC   C4A69990  19.654  39.539   7.361
 5572POPC   C1B69991  20.214  39.107   6.197
 5572POPC   C2B69992  20.174  39.192   6.686
 5572POPC   C3B69993  20.437  39.075   7.078
 5572POPC   C4B69994  20.413  38.968   7.528
 5573POPC   NC369995  44.954  18.713   5.463
 5573POPC   PO469996  44.717  19.418   5.408
 5573POPC   GL169997  44.636  19.073   5.685
 5573POPC   GL269998  44.295  18.914   5.824
 5573POPC   C1A69999  44.687  19.120   6.086
 5573POPC   D2A70000  44.589  19.076   6.492
 5573POPC   C3A70001  44.902  18.958   6.801
 5573POPC   C4A70002  44.892  19.214   7.161
 5573POPC   C1B70003  44.431  18.669   6.166
 5573POPC   C2B70004  44.533  18.577   6.571
 5573POPC   C3B70005  44.414  18.831   6.920
 5573POPC   C4B70006  44.671  18.769   7.251
 5574POPC   NC370007  11.200  39.297   5.493
 5574POPC   PO470008  11.832  39.011   5.517
 5574POPC   GL170009  11.497  39.034   5.826
 5574POPC   GL270010  11.613  39.359   5.854
 5574POPC   C1A70011  11.141  39.003   6.201
 5574POPC   D2A70012  10.978  39.168   6.662
 5574POPC   C3A70013  11.151  38.949   7.050
 5574POPC   C4A70014  11.525  38.953   7.234
 5574POPC   C1B70015  11.629  39.179   6.284
 5574POPC   C2B70016  11.640  39.416   6.613
 5574POPC   C3B70017  11.440  39.357   6.947
 5574POPC   C4B70018  11.514  39.454   7.335
 5575POPC   NC370019  40.989   2.590   5.421
 5575POPC   PO470020  40.392   2.990   5.381
 5575POPC   GL170021  40.586   2.732   5.718
 5575POPC   GL270022  40.909   2.857   5.840
 5575POPC   C1A70023  40.528   2.682   6.176
 5575POPC   D2A70024  40.714   2.623   6.573
 5575POPC   C3A70025  40.574   2.531   6.996
 5575POPC   C4A70026  40.741   2.708   7.372
 5575POPC   C1B70027  41.114   3.078   6.165
 5575POPC   C2B70028  41.108   2.982   6.590
 5575POPC   C3B70029  40.907   2.925   6.948
 5575POPC   C4B70030  40.938   3.207   7.266
 5576POPC   NC370031  21.054  35.589   5.409
 5576POPC   PO470032  20.437  35.224   5.492
 5576POPC   GL170033  20.666  35.448   5.753
 5576POPC   GL270034  20.368  35.607   5.896
 5576POPC   C1A70035  20.754  35.342   6.147
 5576POPC   D2A70036  20.594  35.249   6.518
 5576POPC   C3A70037  20.472  35.449   6.852
 5576POPC   C4A70038  20.700  35.580   7.200
 5576POPC   C1B70039  20.237  35.246   6.140
 5576POPC   C2B70040  20.102  35.188   6.553
 5576POPC   C3B70041  20.184  35.006   6.970
 5576POPC   C4B70042  20.411  35.181   7.326
 5577POPC   NC370043  21.552  15.934   5.420
 5577POPC   PO470044  20.885  15.821   5.382
 5577POPC   GL170045  21.120  15.857   5.771
 5577POPC   GL270046  20.979  16.120   5.936
 5577POPC   C1A70047  21.439  15.976   6.136
 5577POPC   D2A70048  21.630  16.080   6.575
 5577POPC   C3A70049  21.464  15.925   6.982
 5577POPC   C4A70050  21.076  15.883   7.228
 5577POPC   C1B70051  21.073  16.318   6.296
 5577POPC   C2B70052  21.099  16.202   6.720
 5577POPC   C3B70053  21.050  16.364   7.111
 5577POPC   C4B70054  21.043  16.384   7.562
 5578POPC   NC370055  26.793  25.580   5.526
 5578POPC   PO470056  26.502  25.012   5.613
 5578POPC   GL170057  26.846  25.185   5.894
 5578POPC   GL270058  27.097  25.530   5.923
 5578POPC   C1A70059  26.920  24.992   6.281
 5578POPC   D2A70060  27.073  24.794   6.629
 5578POPC   C3A70061  26.864  24.979   6.913
 5578POPC   C4A70062  26.834  25.140   7.313
 5578POPC   C1B70063  26.922  25.526   6.305
 5578POPC   C2B70064  27.040  25.518   6.714
 5578POPC   C3B70065  26.876  25.613   7.125
 5578POPC   C4B70066  26.817  25.583   7.582
 5579POPC   NC370067   5.563  24.547   5.309
 5579POPC   PO470068   6.156  24.325   5.192
 5579POPC   GL170069   5.879  24.346   5.651
 5579POPC   GL270070   5.694  24.688   5.795
 5579POPC   C1A70071   5.927  24.360   6.137
 5579POPC   D2A70072   6.183  24.627   6.422
 5579POPC   C3A70073   6.137  24.621   6.886
 5579POPC   C4A70074   5.961  24.331   7.188
 5579POPC   C1B70075   5.733  24.818   6.253
 5579POPC   C2B70076   5.685  24.587   6.634
 5579POPC   C3B70077   5.604  24.664   7.078
 5579POPC   C4B70078   5.570  24.584   7.554
 5580POPC   NC370079  28.794  35.217   5.341
 5580POPC   PO470080  28.222  35.540   5.326
 5580POPC   GL170081  28.263  35.514   5.756
 5580POPC   GL270082  28.422  35.183   5.743
 5580POPC   C1A70083  28.134  35.356   6.170
 5580POPC   D2A70084  28.192  35.463   6.612
 5580POPC   C3A70085  28.531  35.439   6.897
 5580POPC   C4A70086  28.407  35.499   7.323
 5580POPC   C1B70087  28.594  35.111   6.153
 5580POPC   C2B70088  28.462  35.008   6.549
 5580POPC   C3B70089  28.709  34.931   6.902
 5580POPC   C4B70090  28.783  35.159   7.275
 5581POPC   NC370091  38.550  11.440   5.470
 5581POPC   PO470092  38.097  11.033   5.332
 5581POPC   GL170093  38.322  11.106   5.782
 5581POPC   GL270094  38.347  11.478   5.922
 5581POPC   C1A70095  38.491  11.030   6.204
 5581POPC   D2A70096  38.355  11.135   6.615
 5581POPC   C3A70097  38.393  11.543   6.757
 5581POPC   C4A70098  38.496  11.551   7.168
 5581POPC   C1B70099  38.718  11.480   6.181
 5581POPC   C2B70100  38.834  11.323   6.582
 5581POPC   C3B70101  38.905  11.303   6.985
 5581POPC   C4B70102  38.985  11.555   7.317
 5582POPC   NC370103  42.498  33.726   5.438
 5582POPC   PO470104  41.915  34.154   5.297
 5582POPC   GL170105  42.064  33.902   5.693
 5582POPC   GL270106  42.358  34.061   5.879
 5582POPC   C1A70107  42.050  33.815   6.179
 5582POPC   D2A70108  42.176  34.104   6.537
 5582POPC   C3A70109  42.255  33.977   6.988
 5582POPC   C4A70110  42.125  33.822   7.423
 5582POPC   C1B70111  42.574  33.776   6.139
 5582POPC   C2B70112  42.480  33.657   6.558
 5582POPC   C3B70113  42.711  33.585   6.915
 5582POPC   C4B70114  42.600  33.690   7.271
 5583POPC   NC370115  33.901  26.210   5.342
 5583POPC   PO470116  33.468  25.853   5.650
 5583POPC   GL170117  33.772  26.132   5.843
 5583POPC   GL270118  34.094  25.981   5.766
 5583POPC   C1A70119  33.881  26.239   6.278
 5583POPC   D2A70120  33.734  25.896   6.552
 5583POPC   C3A70121  33.587  25.972   6.970
 5583POPC   C4A70122  33.670  26.322   7.245
 5583POPC   C1B70123  34.137  25.802   6.186
 5583POPC   C2B70124  34.263  25.987   6.561
 5583POPC   C3B70125  34.042  26.200   6.882
 5583POPC   C4B70126  34.018  25.943   7.249
 5584POPC   NC370127  28.024  16.033   5.498
 5584POPC   PO470128  27.654  16.417   5.151
 5584POPC   GL170129  27.614  16.009   5.734
 5584POPC   GL270130  27.839  16.214   5.921
 5584POPC   C1A70131  27.577  15.801   6.171
 5584POPC   D2A70132  27.238  15.714   6.524
 5584POPC   C3A70133  27.376  15.713   6.970
 5584POPC   C4A70134  27.824  15.713   7.070
 5584POPC   C1B70135  27.741  16.282   6.312
 5584POPC   C2B70136  27.569  16.112   6.673
 5584POPC   C3B70137  27.668  16.248   7.070
 5584POPC   C4B70138  27.998  16.135   7.300
 5585POPC   NC370139   5.141  32.435   5.317
 5585POPC   PO470140   4.854  31.855   5.441
 5585POPC   GL170141   4.934  32.193   5.744
 5585POPC   GL270142   5.307  32.311   5.788
 5585POPC   C1A70143   4.944  32.350   6.178
 5585POPC   D2A70144   5.116  32.312   6.600
 5585POPC   C3A70145   4.852  32.439   6.963
 5585POPC   C4A70146   5.012  32.149   7.264
 5585POPC   C1B70147   5.444  32.468   6.202
 5585POPC   C2B70148   5.455  32.688   6.614
 5585POPC   C3B70149   5.347  32.520   7.041
 5585POPC   C4B70150   5.305  32.448   7.547
 5586POPC   NC370151  27.260   8.303   5.422
 5586POPC   PO470152  27.469   7.734   5.500
 5586POPC   GL170153  27.666   8.067   5.764
 5586POPC   GL270154  27.472   8.364   5.898
 5586POPC   C1A70155  27.757   8.073   6.214
 5586POPC   D2A70156  27.484   8.083   6.574
 5586POPC   C3A70157  27.623   8.172   6.987
 5586POPC   C4A70158  27.973   8.051   7.211
 5586POPC   C1B70159  27.575   8.553   6.318
 5586POPC   C2B70160  27.352   8.566   6.742
 5586POPC   C3B70161  27.413   8.604   7.191
 5586POPC   C4B70162  27.257   8.530   7.630
 5587POPC   NC370163   3.042   2.292   5.231
 5587POPC   PO470164   3.659   2.010   5.265
 5587POPC   GL170165   3.580   1.887   5.717
 5587POPC   GL270166   3.314   1.609   5.736
 5587POPC   C1A70167   3.551   2.053   6.172
 5587POPC   D2A70168   3.458   2.181   6.621
 5587POPC   C3A70169   3.830   2.051   6.893
 5587POPC   C4A70170   3.801   1.955   7.334
 5587POPC   C1B70171   3.367   1.565   6.209
 5587POPC   C2B70172   3.573   1.687   6.615
 5587POPC   C3B70173   3.367   1.835   7.010
 5587POPC   C4B70174   3.067   1.525   7.085
 5588POPC   NC370175  13.860  24.925   5.470
 5588POPC   PO470176  13.701  24.296   5.453
 5588POPC   GL170177  13.657  24.559   5.814
 5588POPC   GL270178  13.992  24.643   5.874
 5588POPC   C1A70179  13.477  24.578   6.242
 5588POPC   D2A70180  13.564  24.490   6.694
 5588POPC   C3A70181  13.342  24.497   7.113
 5588POPC   C4A70182  13.594  24.557   7.512
 5588POPC   C1B70183  13.976  24.513   6.298
 5588POPC   C2B70184  14.011  24.737   6.666
 5588POPC   C3B70185  13.883  24.648   7.070
 5588POPC   C4B70186  14.086  24.607   7.432
 5589POPC   NC370187  18.729   0.936   5.557
 5589POPC   PO470188  18.377   0.441   5.276
 5589POPC   GL170189  18.183   0.614   5.671
 5589POPC   GL270190  18.475   0.591   5.844
 5589POPC   C1A70191  18.027   0.433   6.087
 5589POPC   D2A70192  18.131   0.410   6.532
 5589POPC   C3A70193  17.947   0.136   6.833
 5589POPC   C4A70194  18.103   0.297   7.202
 5589POPC   C1B70195  18.530   0.342   6.209
 5589POPC   C2B70196  18.665   0.477   6.607
 5589POPC   C3B70197  18.561   0.333   6.992
 5589POPC   C4B70198  18.621   0.160   7.393
 5590POPC   NC370199  35.851   0.833   5.097
 5590POPC   PO470200  36.129   0.368   5.537
 5590POPC   GL170201  35.845   0.268   5.851
 5590POPC   GL270202  35.768   0.603   5.958
 5590POPC   C1A70203  35.877   0.224   6.302
 5590POPC   D2A70204  35.762   0.419   6.671
 5590POPC   C3A70205  35.995   0.223   7.008
 5590POPC   C4A70206  36.297  44.945   7.147
 5590POPC   C1B70207  36.126   0.687   6.240
 5590POPC   C2B70208  36.261   0.965   6.563
 5590POPC   C3B70209  36.349   0.956   7.002
 5590POPC   C4B70210  36.175   0.617   7.257
 5591POPC   NC370211  38.155  19.646   5.386
 5591POPC   PO470212  38.817  19.950   5.495
 5591POPC   GL170213  38.404  19.978   5.709
 5591POPC   GL270214  38.386  19.647   5.819
 5591POPC   C1A70215  38.147  20.024   6.079
 5591POPC   D2A70216  37.980  20.062   6.463
 5591POPC   C3A70217  38.263  19.880   6.753
 5591POPC   C4A70218  38.243  19.810   7.195
 5591POPC   C1B70219  38.561  19.683   6.185
 5591POPC   C2B70220  38.495  19.459   6.539
 5591POPC   C3B70221  38.628  19.560   6.922
 5591POPC   C4B70222  38.555  19.405   7.298
 5592POPC   NC370223  40.945  12.171   5.322
 5592POPC   PO470224  41.074  11.524   5.351
 5592POPC   GL170225  41.085  11.843   5.706
 5592POPC   GL270226  40.715  11.975   5.764
 5592POPC   C1A70227  41.058  12.028   6.140
 5592POPC   D2A70228  40.740  11.956   6.476
 5592POPC   C3A70229  40.841  12.091   6.848
 5592POPC   C4A70230  40.757  12.034   7.239
 5592POPC   C1B70231  40.572  12.278   6.133
 5592POPC   C2B70232  40.431  12.348   6.606
 5592POPC   C3B70233  40.481  12.428   7.059
 5592POPC   C4B70234  40.487  12.685   7.446
 5593POPC   NC370235  35.951  15.971   5.237
 5593POPC   PO470236  35.283  15.776   5.446
 5593POPC   GL170237  35.326  16.083   5.802
 5593POPC   GL270238  35.348  15.815   5.983
 5593POPC   C1A70239  35.384  16.208   6.287
 5593POPC   D2A70240  35.219  16.281   6.725
 5593POPC   C3A70241  35.365  16.016   7.090
 5593POPC   C4A70242  35.527  16.097   7.522
 5593POPC   C1B70243  35.010  15.707   6.215
 5593POPC   C2B70244  34.984  15.817   6.630
 5593POPC   C3B70245  34.874  15.665   7.004
 5593POPC   C4B70246  35.105  15.673   7.369
 5594POPC   NC370247   2.944  41.992   5.594
 5594POPC   PO470248   2.538  41.495   5.231
 5594POPC   GL170249   2.550  41.470   5.710
 5594POPC   GL270250   2.845  41.558   5.829
 5594POPC   C1A70251   2.484  41.302   6.168
 5594POPC   D2A70252   2.595  41.248   6.641
 5594POPC   C3A70253   3.000  41.368   6.820
 5594POPC   C4A70254   3.097  41.330   7.241
 5594POPC   C1B70255   2.616  41.816   6.142
 5594POPC   C2B70256   2.758  41.734   6.553
 5594POPC   C3B70257   2.615  41.719   6.951
 5594POPC   C4B70258   2.846  41.825   7.295
 5595POPC   NC370259  35.192  15.292   5.334
 5595POPC   PO470260  35.781  15.318   5.555
 5595POPC   GL170261  35.423  15.091   5.754
 5595POPC   GL270262  35.158  15.328   5.862
 5595POPC   C1A70263  35.297  14.910   6.154
 5595POPC   D2A70264  35.541  15.002   6.541
 5595POPC   C3A70265  35.363  15.031   6.914
 5595POPC   C4A70266  35.040  15.215   7.138
 5595POPC   C1B70267  35.515  15.390   6.185
 5595POPC   C2B70268  35.646  15.500   6.612
 5595POPC   C3B70269  35.792  15.295   6.987
 5595POPC   C4B70270  35.679  15.062   7.366
 5596POPC   NC370271  11.692  36.756   5.487
 5596POPC   PO470272  11.360  37.340   5.467
 5596POPC   GL170273  11.330  37.067   5.855
 5596POPC   GL270274  11.287  36.693   5.850
 5596POPC   C1A70275  11.374  36.936   6.307
 5596POPC   D2A70276  11.573  36.771   6.688
 5596POPC   C3A70277  11.354  36.906   7.066
 5596POPC   C4A70278  11.248  36.772   7.467
 5596POPC   C1B70279  11.010  36.598   6.231
 5596POPC   C2B70280  11.028  36.728   6.691
 5596POPC   C3B70281  10.943  36.565   7.126
 5596POPC   C4B70282  10.852  36.482   7.591
 5597POPC   NC370283  24.422  26.638   5.410
 5597POPC   PO470284  24.440  25.997   5.362
 5597POPC   GL170285  24.446  26.106   5.797
 5597POPC   GL270286  24.176  26.381   5.815
 5597POPC   C1A70287  24.727  26.101   6.211
 5597POPC   D2A70288  24.653  26.249   6.661
 5597POPC   C3A70289  24.728  25.949   7.033
 5597POPC   C4A70290  24.693  25.962   7.515
 5597POPC   C1B70291  24.214  26.178   6.241
 5597POPC   C2B70292  24.007  26.069   6.615
 5597POPC   C3B70293  24.243  26.113   6.965
 5597POPC   C4B70294  24.295  26.248   7.360
 5598POPC   NC370295  26.324   6.638   5.489
 5598POPC   PO470296  25.687   6.934   5.478
 5598POPC   GL170297  26.012   6.869   5.816
 5598POPC   GL270298  25.762   6.896   6.057
 5598POPC   C1A70299  26.222   6.680   6.219
 5598POPC   D2A70300  26.089   6.781   6.638
 5598POPC   C3A70301  26.306   6.697   7.019
 5598POPC   C4A70302  26.253   6.425   7.370
 5598POPC   C1B70303  25.788   6.430   6.144
 5598POPC   C2B70304  25.856   6.317   6.580
 5598POPC   C3B70305  25.837   6.486   6.999
 5598POPC   C4B70306  25.604   6.456   7.362
 5599POPC   NC370307  38.072   2.542   5.359
 5599POPC   PO470308  37.412   2.395   5.467
 5599POPC   GL170309  37.644   2.648   5.777
 5599POPC   GL270310  37.951   2.836   5.820
 5599POPC   C1A70311  37.729   2.529   6.197
 5599POPC   D2A70312  37.735   2.704   6.609
 5599POPC   C3A70313  37.481   2.724   6.944
 5599POPC   C4A70314  37.459   2.474   7.294
 5599POPC   C1B70315  37.941   2.995   6.242
 5599POPC   C2B70316  38.105   3.066   6.658
 5599POPC   C3B70317  38.001   2.827   7.042
 5599POPC   C4B70318  37.675   2.912   7.363
 5600POPC   NC370319   1.850   2.548   5.396
 5600POPC   PO470320   1.958   3.125   5.583
 5600POPC   GL170321   1.936   2.790   5.886
 5600POPC   GL270322   2.178   2.478   5.807
 5600POPC   C1A70323   1.907   2.939   6.334
 5600POPC   D2A70324   1.965   3.209   6.720
 5600POPC   C3A70325   1.965   2.930   7.051
 5600POPC   C4A70326   1.687   2.750   7.317
 5600POPC   C1B70327   2.078   2.418   6.251
 5600POPC   C2B70328   2.244   2.441   6.667
 5600POPC   C3B70329   2.127   2.452   7.111
 5600POPC   C4B70330   2.059   2.478   7.514
 5601POPC   NC370331   5.350  19.663   5.224
 5601POPC   PO470332   4.945  20.101   5.323
 5601POPC   GL170333   4.970  19.967   5.740
 5601POPC   GL270334   4.682  20.075   5.899
 5601POPC   C1A70335   5.254  19.937   6.103
 5601POPC   D2A70336   5.257  19.633   6.442
 5601POPC   C3A70337   5.370  19.729   6.897
 5601POPC   C4A70338   5.290  19.505   7.269
 5601POPC   C1B70339   4.786  19.871   6.310
 5601POPC   C2B70340   4.904  19.807   6.744
 5601POPC   C3B70341   4.872  19.797   7.190
 5601POPC   C4B70342   4.778  20.156   7.500
 5602POPC   NC370343  28.966  41.468   5.163
 5602POPC   PO470344  29.336  41.934   5.510
 5602POPC   GL170345  29.368  41.511   5.656
 5602POPC   GL270346  29.051  41.316   5.698
 5602POPC   C1A70347  29.354  41.483   6.100
 5602POPC   D2A70348  29.170  41.531   6.486
 5602POPC   C3A70349  29.323  41.360   6.837
 5602POPC   C4A70350  29.320  41.515   7.229
 5602POPC   C1B70351  28.933  41.187   6.140
 5602POPC   C2B70352  28.813  41.134   6.560
 5602POPC   C3B70353  28.874  41.211   6.997
 5602POPC   C4B70354  28.814  41.216   7.430
 5603POPC   NC370355   7.369   8.488   5.425
 5603POPC   PO470356   6.882   8.130   5.402
 5603POPC   GL170357   7.217   8.196   5.802
 5603POPC   GL270358   7.566   8.022   5.748
 5603POPC   C1A70359   7.484   8.275   6.208
 5603POPC   D2A70360   7.358   8.219   6.660
 5603POPC   C3A70361   7.535   8.236   7.058
 5603POPC   C4A70362   7.215   8.175   7.401
 5603POPC   C1B70363   7.768   7.844   6.140
 5603POPC   C2B70364   7.791   7.980   6.569
 5603POPC   C3B70365   7.888   7.847   6.995
 5603POPC   C4B70366   7.749   7.945   7.436
 5604POPC   NC370367  27.119  22.140   5.309
 5604POPC   PO470368  26.549  22.195   5.547
 5604POPC   GL170369  26.917  22.287   5.786
 5604POPC   GL270370  27.068  21.953   5.833
 5604POPC   C1A70371  26.885  22.240   6.234
 5604POPC   D2A70372  26.604  21.961   6.477
 5604POPC   C3A70373  26.532  22.126   6.875
 5604POPC   C4A70374  26.556  22.051   7.323
 5604POPC   C1B70375  27.083  21.770   6.289
 5604POPC   C2B70376  27.011  21.859   6.757
 5604POPC   C3B70377  27.026  22.105   7.135
 5604POPC   C4B70378  27.143  22.055   7.611
 5605POPC   NC370379  27.919   0.423   5.356
 5605POPC   PO470380  28.608   0.440   5.318
 5605POPC   GL170381  28.337   0.572   5.674
 5605POPC   GL270382  28.648   0.451   5.837
 5605POPC   C1A70383  28.157   0.723   6.113
 5605POPC   D2A70384  27.953   0.523   6.513
 5605POPC   C3A70385  27.959   0.684   6.937
 5605POPC   C4A70386  28.233   0.769   7.246
 5605POPC   C1B70387  28.423   0.280   6.165
 5605POPC   C2B70388  28.355   0.166   6.586
 5605POPC   C3B70389  28.431   0.446   6.911
 5605POPC   C4B70390  28.592   0.415   7.306
 5606POPC   NC370391  27.375  16.774   5.328
 5606POPC   PO470392  26.700  16.618   5.375
 5606POPC   GL170393  26.949  16.700   5.763
 5606POPC   GL270394  26.735  16.941   5.948
 5606POPC   C1A70395  26.904  16.544   6.199
 5606POPC   D2A70396  26.902  16.745   6.583
 5606POPC   C3A70397  26.738  16.486   6.927
 5606POPC   C4A70398  26.332  16.438   7.106
 5606POPC   C1B70399  26.668  17.171   6.339
 5606POPC   C2B70400  26.901  17.286   6.719
 5606POPC   C3B70401  26.896  16.956   7.043
 5606POPC   C4B70402  26.502  16.947   7.265
 5607POPC   NC370403  17.109  36.105   5.288
 5607POPC   PO470404  16.500  35.857   5.469
 5607POPC   GL170405  16.603  36.215   5.787
 5607POPC   GL270406  16.963  36.247   5.799
 5607POPC   C1A70407  16.541  36.296   6.272
 5607POPC   D2A70408  16.347  36.094   6.679
 5607POPC   C3A70409  16.543  36.197   7.090
 5607POPC   C4A70410  16.704  36.374   7.486
 5607POPC   C1B70411  17.046  36.178   6.258
 5607POPC   C2B70412  16.873  36.136   6.691
 5607POPC   C3B70413  17.048  36.131   7.109
 5607POPC   C4B70414  17.020  35.938   7.504
 5608POPC   NC370415  17.986   3.423   5.111
 5608POPC   PO470416  18.544   3.705   5.376
 5608POPC   GL170417  18.319   3.486   5.752
 5608POPC   GL270418  17.945   3.532   5.744
 5608POPC   C1A70419  18.312   3.446   6.233
 5608POPC   D2A70420  18.517   3.671   6.614
 5608POPC   C3A70421  18.331   3.562   7.014
 5608POPC   C4A70422  18.203   3.180   7.244
 5608POPC   C1B70423  17.899   3.756   6.161
 5608POPC   C2B70424  18.029   3.824   6.619
 5608POPC   C3B70425  17.931   3.851   7.094
 5608POPC   C4B70426  18.117   3.638   7.498
 5609POPC   NC370427  42.765   0.951   5.363
 5609POPC   PO470428  42.176   1.089   5.419
 5609POPC   GL170429  42.374   1.166   5.784
 5609POPC   GL270430  42.545   0.861   5.801
 5609POPC   C1A70431  42.556   1.320   6.172
 5609POPC   D2A70432  42.783   1.306   6.539
 5609POPC   C3A70433  42.535   1.292   6.915
 5609POPC   C4A70434  42.737   1.225   7.300
 5609POPC   C1B70435  42.432   0.823   6.216
 5609POPC   C2B70436  42.360   0.848   6.648
 5609POPC   C3B70437  42.064   0.870   6.996
 5609POPC   C4B70438  42.272   1.033   7.336
 5610POPC   NC370439  30.198  29.636   5.423
 5610POPC   PO470440  29.689  30.044   5.672
 5610POPC   GL170441  29.784  29.834   6.031
 5610POPC   GL270442  30.107  29.699   5.919
 5610POPC   C1A70443  29.801  29.953   6.452
 5610POPC   D2A70444  30.083  30.054   6.773
 5610POPC   C3A70445  29.828  29.874   7.073
 5610POPC   C4A70446  29.697  29.652   7.432
 5610POPC   C1B70447  30.261  29.760   6.327
 5610POPC   C2B70448  30.140  29.522   6.682
 5610POPC   C3B70449  30.348  29.541   7.062
 5610POPC   C4B70450  30.195  29.790   7.405
 5611POPC   NC370451   9.768  31.767   5.309
 5611POPC   PO470452   9.348  31.543   5.787
 5611POPC   GL170453   9.528  31.297   5.996
 5611POPC   GL270454   9.839  31.129   5.801
 5611POPC   C1A70455   9.513  31.480   6.402
 5611POPC   D2A70456   9.536  31.489   6.800
 5611POPC   C3A70457   9.881  31.630   7.014
 5611POPC   C4A70458   9.559  31.464   7.317
 5611POPC   C1B70459   9.975  31.320   6.194
 5611POPC   C2B70460   9.916  31.208   6.621
 5611POPC   C3B70461   9.857  31.129   7.059
 5611POPC   C4B70462  10.031  31.353   7.439
 5612POPC   NC370463  12.684  33.048   5.370
 5612POPC   PO470464  13.197  32.690   5.425
 5612POPC   GL170465  12.985  32.932   5.775
 5612POPC   GL270466  12.669  32.734   5.802
 5612POPC   C1A70467  12.877  33.201   6.157
 5612POPC   D2A70468  12.698  33.252   6.579
 5612POPC   C3A70469  12.959  33.416   6.883
 5612POPC   C4A70470  12.891  33.586   7.289
 5612POPC   C1B70471  12.851  32.679   6.225
 5612POPC   C2B70472  12.664  32.734   6.623
 5612POPC   C3B70473  12.787  32.715   7.051
 5612POPC   C4B70474  12.859  33.074   7.289
 5613POPC   NC370475  25.632   2.921   5.381
 5613POPC   PO470476  24.990   2.612   5.512
 5613POPC   GL170477  25.335   2.727   5.770
 5613POPC   GL270478  25.308   3.076   5.762
 5613POPC   C1A70479  25.280   2.786   6.193
 5613POPC   D2A70480  25.032   2.530   6.416
 5613POPC   C3A70481  25.071   2.720   6.824
 5613POPC   C4A70482  25.181   2.619   7.216
 5613POPC   C1B70483  25.647   3.152   6.062
 5613POPC   C2B70484  25.559   3.115   6.502
 5613POPC   C3B70485  25.562   2.843   6.857
 5613POPC   C4B70486  25.513   2.966   7.270
 5614POPC   NC370487  39.502  35.496   5.046
 5614POPC   PO470488  38.947  35.158   5.392
 5614POPC   GL170489  39.057  35.394   5.735
 5614POPC   GL270490  39.389  35.347   5.698
 5614POPC   C1A70491  39.074  35.233   6.146
 5614POPC   D2A70492  39.281  35.073   6.501
 5614POPC   C3A70493  39.214  35.313   6.840
 5614POPC   C4A70494  39.142  35.379   7.236
 5614POPC   C1B70495  39.429  35.591   6.090
 5614POPC   C2B70496  39.526  35.552   6.528
 5614POPC   C3B70497  39.652  35.569   6.941
 5614POPC   C4B70498  39.532  35.709   7.318
 5615POPC   NC370499  35.615  14.386   5.351
 5615POPC   PO470500  35.019  14.440   5.466
 5615POPC   GL170501  35.303  14.305   5.794
 5615POPC   GL270502  35.558  14.576   5.831
 5615POPC   C1A70503  35.374  14.283   6.245
 5615POPC   D2A70504  35.186  14.144   6.646
 5615POPC   C3A70505  35.312  14.337   7.024
 5615POPC   C4A70506  35.539  14.022   7.254
 5615POPC   C1B70507  35.754  14.669   6.226
 5615POPC   C2B70508  35.629  14.512   6.633
 5615POPC   C3B70509  35.713  14.671   7.033
 5615POPC   C4B70510  35.745  14.556   7.458
 5616POPC   NC370511  28.898   6.385   5.445
 5616POPC   PO470512  29.515   6.186   5.504
 5616POPC   GL170513  29.307   6.532   5.821
 5616POPC   GL270514  28.949   6.565   5.922
 5616POPC   C1A70515  29.278   6.729   6.272
 5616POPC   D2A70516  29.069   6.809   6.696
 5616POPC   C3A70517  29.371   6.802   7.050
 5616POPC   C4A70518  29.441   7.127   7.374
 5616POPC   C1B70519  28.817   6.344   6.314
 5616POPC   C2B70520  28.714   6.390   6.763
 5616POPC   C3B70521  28.973   6.473   7.118
 5616POPC   C4B70522  28.860   6.504   7.582
 5617POPC   NC370523  29.666  35.612   5.075
 5617POPC   PO470524  30.196  35.313   5.405
 5617POPC   GL170525  30.102  35.353   5.826
 5617POPC   GL270526  29.787  35.524   5.942
 5617POPC   C1A70527  30.227  35.605   6.177
 5617POPC   D2A70528  29.903  35.661   6.478
 5617POPC   C3A70529  29.991  35.515   6.882
 5617POPC   C4A70530  29.770  35.519   7.275
 5617POPC   C1B70531  29.777  35.186   6.223
 5617POPC   C2B70532  29.655  34.969   6.581
 5617POPC   C3B70533  29.619  35.152   6.964
 5617POPC   C4B70534  29.677  34.982   7.377
 5618POPC   NC370535  42.904  20.473   5.475
 5618POPC   PO470536  43.188  21.072   5.425
 5618POPC   GL170537  43.291  20.863   5.823
 5618POPC   GL270538  43.190  20.529   5.871
 5618POPC   C1A70539  43.012  20.859   6.206
 5618POPC   D2A70540  42.790  20.779   6.591
 5618POPC   C3A70541  43.070  20.915   6.925
 5618POPC   C4A70542  43.214  20.795   7.325
 5618POPC   C1B70543  42.939  20.355   6.198
 5618POPC   C2B70544  43.086  20.347   6.601
 5618POPC   C3B70545  42.898  20.448   6.981
 5618POPC   C4B70546  42.954  20.188   7.278
 5619POPC   NC370547  26.132  43.775   5.225
 5619POPC   PO470548  26.795  43.689   5.347
 5619POPC   GL170549  26.440  43.557   5.721
 5619POPC   GL270550  26.145  43.801   5.789
 5619POPC   C1A70551  26.355  43.654   6.228
 5619POPC   D2A70552  26.102  43.925   6.569
 5619POPC   C3A70553  26.016  43.766   7.005
 5619POPC   C4A70554  25.963  43.661   7.437
 5619POPC   C1B70555  25.824  43.831   6.156
 5619POPC   C2B70556  25.606  44.111   6.476
 5619POPC   C3B70557  25.589  44.030   6.897
 5619POPC   C4B70558  25.727  44.116   7.322
 5620POPC   NC370559  35.603   0.328   5.397
 5620POPC   PO470560  34.994   0.659   5.418
 5620POPC   GL170561  34.962   0.412   5.779
 5620POPC   GL270562  35.309   0.412   5.794
 5620POPC   C1A70563  35.000   0.445   6.242
 5620POPC   D2A70564  35.255   0.592   6.597
 5620POPC   C3A70565  35.085   0.422   6.975
 5620POPC   C4A70566  35.175   0.524   7.411
 5620POPC   C1B70567  35.411   0.148   6.131
 5620POPC   C2B70568  35.347   0.056   6.573
 5620POPC   C3B70569  35.503   0.127   6.995
 5620POPC   C4B70570  35.615   0.563   7.157
 5621POPC   NC370571   6.838   0.080   5.369
 5621POPC   PO470572   6.537  44.487   5.571
 5621POPC   GL170573   6.695  44.656   5.968
 5621POPC   GL270574   6.771  44.995   5.874
 5621POPC   C1A70575   6.609  44.461   6.398
 5621POPC   D2A70576   6.393  44.283   6.780
 5621POPC   C3A70577   6.531  44.472   7.141
 5621POPC   C4A70578   6.957  44.530   7.197
 5621POPC   C1B70579   6.710   0.142   6.271
 5621POPC   C2B70580   6.664  44.912   6.644
 5621POPC   C3B70581   6.770  44.971   7.093
 5621POPC   C4B70582   6.647  44.823   7.529
 5622POPC   NC370583  18.720  37.678   5.261
 5622POPC   PO470584  19.437  37.657   5.112
 5622POPC   GL170585  19.145  37.595   5.550
 5622POPC   GL270586  19.115  37.339   5.833
 5622POPC   C1A70587  19.143  37.804   6.006
 5622POPC   D2A70588  19.053  37.897   6.478
 5622POPC   C3A70589  19.075  37.911   6.928
 5622POPC   C4A70590  18.970  37.751   7.349
 5622POPC   C1B70591  18.960  37.412   6.294
 5622POPC   C2B70592  19.169  37.457   6.734
 5622POPC   C3B70593  19.409  37.570   7.157
 5622POPC   C4B70594  19.376  37.662   7.643
 5623POPC   NC370595  24.330  42.840   5.450
 5623POPC   PO470596  24.916  43.072   5.481
 5623POPC   GL170597  24.768  42.881   5.844
 5623POPC   GL270598  24.496  43.110   5.852
 5623POPC   C1A70599  24.601  42.877   6.288
 5623POPC   D2A70600  24.651  43.103   6.671
 5623POPC   C3A70601  24.962  42.900   6.970
 5623POPC   C4A70602  24.822  42.549   7.225
 5623POPC   C1B70603  24.163  43.178   6.146
 5623POPC   C2B70604  24.143  43.328   6.564
 5623POPC   C3B70605  24.238  43.252   6.990
 5623POPC   C4B70606  24.509  42.978   7.163
 5624POPC   NC370607  40.097  43.055   5.405
 5624POPC   PO470608  39.464  43.225   5.491
 5624POPC   GL170609  39.829  43.267   5.816
 5624POPC   GL270610  39.931  42.905   5.895
 5624POPC   C1A70611  40.063  43.267   6.241
 5624POPC   D2A70612  39.945  42.904   6.448
 5624POPC   C3A70613  40.014  42.833   6.898
 5624POPC   C4A70614  40.257  43.054   7.219
 5624POPC   C1B70615  40.353  42.871   6.118
 5624POPC   C2B70616  40.417  42.720   6.547
 5624POPC   C3B70617  40.481  42.631   6.942
 5624POPC   C4B70618  40.257  42.568   7.298
 5625POPC   NC370619  44.018  22.615   5.533
 5625POPC   PO470620  43.717  22.039   5.325
 5625POPC   GL170621  44.018  22.079   5.726
 5625POPC   GL270622  43.984  22.377   5.983
 5625POPC   C1A70623  44.075  21.913   6.188
 5625POPC   D2A70624  43.880  22.099   6.564
 5625POPC   C3A70625  44.022  22.008   6.965
 5625POPC   C4A70626  44.075  22.189   7.375
 5625POPC   C1B70627  43.600  22.124   6.122
 5625POPC   C2B70628  43.445  21.821   6.442
 5625POPC   C3B70629  43.540  21.826   6.893
 5625POPC   C4B70630  43.629  21.965   7.338
 5626POPC   NC370631   6.065  40.426   5.598
 5626POPC   PO470632   5.895  39.819   5.434
 5626POPC   GL170633   5.926  39.987   5.872
 5626POPC   GL270634   5.726  40.280   5.978
 5626POPC   C1A70635   5.738  39.855   6.258
 5626POPC   D2A70636   5.451  39.786   6.560
 5626POPC   C3A70637   5.581  39.758   6.944
 5626POPC   C4A70638   5.675  39.984   7.267
 5626POPC   C1B70639   5.941  40.329   6.364
 5626POPC   C2B70640   5.854  40.175   6.771
 5626POPC   C3B70641   5.977  40.351   7.150
 5626POPC   C4B70642   6.165  40.103   7.483
 5627POPC   NC370643  26.946  28.803   5.465
 5627POPC   PO470644  26.527  29.263   5.223
 5627POPC   GL170645  26.685  29.182   5.667
 5627POPC   GL270646  26.641  29.439   5.878
 5627POPC   C1A70647  26.734  28.991   6.110
 5627POPC   D2A70648  26.487  29.104   6.498
 5627POPC   C3A70649  26.646  29.238   6.915
 5627POPC   C4A70650  26.677  29.089   7.324
 5627POPC   C1B70651  27.013  29.464   6.200
 5627POPC   C2B70652  27.186  29.456   6.665
 5627POPC   C3B70653  27.112  29.457   7.142
 5627POPC   C4B70654  26.975  29.381   7.625
 5628POPC   NC370655  35.751  28.519   5.607
 5628POPC   PO470656  35.252  28.077   5.445
 5628POPC   GL170657  35.276  28.354   5.820
 5628POPC   GL270658  35.273  28.743   5.813
 5628POPC   C1A70659  35.421  28.380   6.244
 5628POPC   D2A70660  35.615  28.483   6.645
 5628POPC   C3A70661  35.439  28.237   7.010
 5628POPC   C4A70662  35.522  27.787   7.081
 5628POPC   C1B70663  35.016  28.889   6.180
 5628POPC   C2B70664  35.099  28.670   6.558
 5628POPC   C3B70665  35.268  28.712   6.938
 5628POPC   C4B70666  35.109  28.584   7.308
 5629POPC   NC370667  18.445   4.779   5.518
 5629POPC   PO470668  17.921   5.180   5.513
 5629POPC   GL170669  18.203   5.080   5.845
 5629POPC   GL270670  18.305   5.406   5.966
 5629POPC   C1A70671  18.166   4.964   6.267
 5629POPC   D2A70672  18.248   5.200   6.637
 5629POPC   C3A70673  18.340   4.921   6.973
 5629POPC   C4A70674  18.073   4.824   7.282
 5629POPC   C1B70675  18.618   5.244   6.262
 5629POPC   C2B70676  18.755   5.095   6.684
 5629POPC   C3B70677  18.750   5.186   7.146
 5629POPC   C4B70678  18.476   5.248   7.526
 5630POPC   NC370679  31.776  25.902   5.411
 5630POPC   PO470680  31.321  26.265   5.163
 5630POPC   GL170681  31.375  26.159   5.636
 5630POPC   GL270682  31.424  25.826   5.809
 5630POPC   C1A70683  31.397  26.223   6.118
 5630POPC   D2A70684  31.320  26.156   6.570
 5630POPC   C3A70685  31.467  26.325   6.967
 5630POPC   C4A70686  31.690  26.044   7.242
 5630POPC   C1B70687  31.271  25.580   6.165
 5630POPC   C2B70688  31.325  25.622   6.615
 5630POPC   C3B70689  31.510  25.601   7.027
 5630POPC   C4B70690  31.425  25.630   7.461
 5631POPC   NC370691  14.842  24.757   5.552
 5631POPC   PO470692  14.999  24.077   5.429
 5631POPC   GL170693  14.985  24.316   5.811
 5631POPC   GL270694  15.323  24.408   5.762
 5631POPC   C1A70695  14.912  24.512   6.236
 5631POPC   D2A70696  14.882  24.909   6.518
 5631POPC   C3A70697  14.989  24.828   6.966
 5631POPC   C4A70698  14.898  24.403   7.126
 5631POPC   C1B70699  15.428  24.509   6.181
 5631POPC   C2B70700  15.287  24.303   6.548
 5631POPC   C3B70701  15.356  24.454   6.927
 5631POPC   C4B70702  15.681  24.625   7.094
 5632POPC   NC370703   0.371  33.842   5.307
 5632POPC   PO470704   0.445  33.196   5.394
 5632POPC   GL170705   0.395  33.552   5.733
 5632POPC   GL270706   0.254  33.936   5.779
 5632POPC   C1A70707   0.544  33.715   6.136
 5632POPC   D2A70708   0.700  33.573   6.537
 5632POPC   C3A70709   0.388  33.586   6.860
 5632POPC   C4A70710   0.390  33.737   7.265
 5632POPC   C1B70711   0.097  34.105   6.161
 5632POPC   C2B70712   0.112  33.921   6.553
 5632POPC   C3B70713  44.998  33.967   6.956
 5632POPC   C4B70714   0.108  34.215   7.266
 5633POPC   NC370715  15.849  17.156   5.771
 5633POPC   PO470716  15.879  16.572   5.502
 5633POPC   GL170717  15.875  16.669   5.920
 5633POPC   GL270718  16.198  16.831   5.906
 5633POPC   C1A70719  15.876  16.786   6.361
 5633POPC   D2A70720  15.944  16.545   6.738
 5633POPC   C3A70721  15.698  16.684   7.079
 5633POPC   C4A70722  15.912  16.777   7.418
 5633POPC   C1B70723  16.305  17.128   6.231
 5633POPC   C2B70724  16.142  17.149   6.643
 5633POPC   C3B70725  16.137  16.960   7.011
 5633POPC   C4B70726  16.357  17.037   7.404
 5634POPC   NC370727  19.116  22.300   5.312
 5634POPC   PO470728  19.254  21.667   5.418
 5634POPC   GL170729  19.036  22.009   5.744
 5634POPC   GL270730  18.827  22.334   5.735
 5634POPC   C1A70731  19.197  22.277   6.139
 5634POPC   D2A70732  19.068  22.417   6.599
 5634POPC   C3A70733  18.975  22.047   6.882
 5634POPC   C4A70734  19.188  21.749   7.111
 5634POPC   C1B70735  18.710  22.376   6.193
 5634POPC   C2B70736  18.574  22.239   6.626
 5634POPC   C3B70737  18.603  22.363   7.074
 5634POPC   C4B70738  18.809  22.123   7.400
 5635POPC   NC370739   0.948  30.853   5.329
 5635POPC   PO470740   1.563  31.077   5.458
 5635POPC   GL170741   1.495  30.679   5.740
 5635POPC   GL270742   1.121  30.614   5.765
 5635POPC   C1A70743   1.452  30.484   6.174
 5635POPC   D2A70744   1.445  30.657   6.577
 5635POPC   C3A70745   1.344  30.546   7.011
 5635POPC   C4A70746   1.369  30.878   7.290
 5635POPC   C1B70747   1.033  30.772   6.197
 5635POPC   C2B70748   0.942  30.640   6.628
 5635POPC   C3B70749   0.924  30.820   7.009
 5635POPC   C4B70750   0.884  30.615   7.398
 5636POPC   NC370751  41.059  30.908   5.543
 5636POPC   PO470752  40.507  30.606   5.320
 5636POPC   GL170753  40.652  30.634   5.742
 5636POPC   GL270754  40.542  30.976   5.779
 5636POPC   C1A70755  40.906  30.641   6.144
 5636POPC   D2A70756  41.187  30.591   6.534
 5636POPC   C3A70757  41.032  30.752   6.916
 5636POPC   C4A70758  40.687  30.699   7.124
 5636POPC   C1B70759  40.412  30.827   6.172
 5636POPC   C2B70760  40.633  30.804   6.558
 5636POPC   C3B70761  40.343  30.938   6.817
 5636POPC   C4B70762  40.279  30.953   7.226
 5637POPC   NC370763  38.257  18.730   5.240
 5637POPC   PO470764  37.822  19.271   5.367
 5637POPC   GL170765  38.237  19.180   5.625
 5637POPC   GL270766  38.399  18.856   5.700
 5637POPC   C1A70767  38.405  19.205   6.077
 5637POPC   D2A70768  38.253  19.003   6.484
 5637POPC   C3A70769  38.314  19.125   6.929
 5637POPC   C4A70770  38.150  19.036   7.331
 5637POPC   C1B70771  38.480  18.698   6.096
 5637POPC   C2B70772  38.522  18.547   6.480
 5637POPC   C3B70773  38.606  18.543   6.888
 5637POPC   C4B70774  38.594  18.795   7.225
 5638POPC   NC370775  31.398  31.131   5.191
 5638POPC   PO470776  31.776  31.669   5.354
 5638POPC   GL170777  31.672  31.319   5.651
 5638POPC   GL270778  31.344  31.230   5.873
 5638POPC   C1A70779  31.794  31.288   6.102
 5638POPC   D2A70780  31.500  31.473   6.388
 5638POPC   C3A70781  31.640  31.563   6.802
 5638POPC   C4A70782  31.710  31.783   7.177
 5638POPC   C1B70783  31.081  31.211   6.268
 5638POPC   C2B70784  31.249  31.195   6.739
 5638POPC   C3B70785  31.298  31.357   7.162
 5638POPC   C4B70786  31.113  31.274   7.560
 5639POPC   NC370787  37.147  18.042   5.505
 5639POPC   PO470788  36.491  17.935   5.539
 5639POPC   GL170789  36.702  18.275   5.737
 5639POPC   GL270790  36.889  18.072   5.957
 5639POPC   C1A70791  36.726  18.524   6.137
 5639POPC   D2A70792  36.865  18.252   6.479
 5639POPC   C3A70793  37.017  18.397   6.858
 5639POPC   C4A70794  36.716  18.415   7.170
 5639POPC   C1B70795  37.263  18.073   6.183
 5639POPC   C2B70796  37.269  17.938   6.602
 5639POPC   C3B70797  37.366  17.900   7.016
 5639POPC   C4B70798  37.149  18.157   7.296
 5640POPC   NC370799   1.439  36.164   5.249
 5640POPC   PO470800   0.786  36.566   5.296
 5640POPC   GL170801   0.899  36.317   5.704
 5640POPC   GL270802   1.002  35.970   5.730
 5640POPC   C1A70803   1.231  36.365   6.070
 5640POPC   D2A70804   1.528  36.227   6.441
 5640POPC   C3A70805   1.439  36.372   6.882
 5640POPC   C4A70806   1.335  36.581   7.272
 5640POPC   C1B70807   1.225  35.878   6.127
 5640POPC   C2B70808   1.186  35.861   6.556
 5640POPC   C3B70809   1.023  36.046   6.895
 5640POPC   C4B70810   1.171  36.094   7.283
 5641POPC   NC370811  28.094  22.000   5.107
 5641POPC   PO470812  27.530  22.318   5.234
 5641POPC   GL170813  27.487  22.310   5.680
 5641POPC   GL270814  27.855  22.283   5.726
 5641POPC   C1A70815  27.470  22.131   6.105
 5641POPC   D2A70816  27.311  22.196   6.517
 5641POPC   C3A70817  27.571  22.143   6.851
 5641POPC   C4A70818  27.503  22.207   7.264
 5641POPC   C1B70819  27.799  22.561   6.092
 5641POPC   C2B70820  27.689  22.570   6.554
 5641POPC   C3B70821  27.862  22.574   6.998
 5641POPC   C4B70822  27.915  22.451   7.449
 5642POPC   NC370823  43.893  42.054   5.417
 5642POPC   PO470824  43.939  41.518   5.041
 5642POPC   GL170825  43.778  41.579   5.550
 5642POPC   GL270826  44.040  41.738   5.791
 5642POPC   C1A70827  43.631  41.497   6.045
 5642POPC   D2A70828  43.488  41.452   6.533
 5642POPC   C3A70829  43.698  41.615   6.946
 5642POPC   C4A70830  43.736  41.895   7.329
 5642POPC   C1B70831  44.192  41.921   6.193
 5642POPC   C2B70832  44.146  41.900   6.660
 5642POPC   C3B70833  44.237  41.721   7.098
 5642POPC   C4B70834  44.290  41.299   7.323
 5643POPC   NC370835  36.361  27.289   5.570
 5643POPC   PO470836  35.800  27.380   5.217
 5643POPC   GL170837  35.902  27.550   5.742
 5643POPC   GL270838  36.120  27.358   6.004
 5643POPC   C1A70839  36.001  27.791   6.214
 5643POPC   D2A70840  35.861  27.874   6.689
 5643POPC   C3A70841  36.102  27.706   7.086
 5643POPC   C4A70842  36.260  27.821   7.547
 5643POPC   C1B70843  36.458  27.431   6.268
 5643POPC   C2B70844  36.270  27.395   6.655
 5643POPC   C3B70845  36.380  27.275   7.026
 5643POPC   C4B70846  36.552  27.474   7.344
 5644POPC   NC370847  23.824  33.578   5.695
 5644POPC   PO470848  23.461  34.095   5.388
 5644POPC   GL170849  23.661  34.086   5.804
 5644POPC   GL270850  23.998  33.993   5.890
 5644POPC   C1A70851  23.576  33.972   6.245
 5644POPC   D2A70852  23.580  33.588   6.514
 5644POPC   C3A70853  23.654  33.632   6.962
 5644POPC   C4A70854  23.338  33.578   7.229
 5644POPC   C1B70855  24.112  33.932   6.281
 5644POPC   C2B70856  23.930  34.095   6.631
 5644POPC   C3B70857  24.010  33.991   7.023
 5644POPC   C4B70858  24.024  33.921   7.461
 5645POPC   NC370859  43.390  24.081   5.700
 5645POPC   PO470860  42.916  23.929   5.200
 5645POPC   GL170861  42.980  23.715   5.665
 5645POPC   GL270862  43.285  23.571   5.842
 5645POPC   C1A70863  42.923  23.686   6.182
 5645POPC   D2A70864  43.124  23.667   6.640
 5645POPC   C3A70865  42.914  23.693   7.058
 5645POPC   C4A70866  42.935  23.524   7.499
 5645POPC   C1B70867  43.445  23.798   6.251
 5645POPC   C2B70868  43.408  24.116   6.575
 5645POPC   C3B70869  43.328  24.073   7.005
 5645POPC   C4B70870  43.362  23.746   7.304
 5646POPC   NC370871   5.393  43.260   5.113
 5646POPC   PO470872   5.090  42.710   5.337
 5646POPC   GL170873   5.291  43.049   5.649
 5646POPC   GL270874   5.103  43.314   5.861
 5646POPC   C1A70875   5.463  42.993   6.106
 5646POPC   D2A70876   5.471  42.859   6.574
 5646POPC   C3A70877   5.160  43.036   6.858
 5646POPC   C4A70878   4.775  43.132   7.119
 5646POPC   C1B70879   5.082  43.288   6.338
 5646POPC   C2B70880   4.995  43.505   6.748
 5646POPC   C3B70881   5.174  43.508   7.185
 5646POPC   C4B70882   5.454  43.424   7.532
 5647POPC   NC370883  41.861   5.383   5.328
 5647POPC   PO470884  41.467   4.845   5.249
 5647POPC   GL170885  41.652   4.999   5.667
 5647POPC   GL270886  41.435   5.251   5.724
 5647POPC   C1A70887  41.839   5.100   6.106
 5647POPC   D2A70888  41.706   4.956   6.541
 5647POPC   C3A70889  41.778   5.213   6.901
 5647POPC   C4A70890  41.628   5.172   7.306
 5647POPC   C1B70891  41.338   5.020   6.113
 5647POPC   C2B70892  41.184   4.999   6.529
 5647POPC   C3B70893  41.266   5.052   6.937
 5647POPC   C4B70894  41.171   5.387   7.246
 5648POPC   NC370895  15.511  27.738   5.580
 5648POPC   PO470896  15.399  27.063   5.516
 5648POPC   GL170897  15.201  27.372   5.800
 5648POPC   GL270898  15.024  27.725   5.750
 5648POPC   C1A70899  15.281  27.392   6.249
 5648POPC   D2A70900  15.449  27.462   6.672
 5648POPC   C3A70901  15.146  27.363   7.002
 5648POPC   C4A70902  15.197  27.457   7.447
 5648POPC   C1B70903  15.174  27.889   6.184
 5648POPC   C2B70904  15.150  27.897   6.663
 5648POPC   C3B70905  15.268  27.846   7.099
 5648POPC   C4B70906  15.230  27.977   7.533
 5649POPC   NC370907   0.596  18.304   5.441
 5649POPC   PO470908  44.976  18.212   5.510
 5649POPC   GL170909   0.293  18.201   5.847
 5649POPC   GL270910   0.577  17.933   5.812
 5649POPC   C1A70911   0.361  18.512   6.175
 5649POPC   D2A70912   0.184  18.576   6.583
 5649POPC   C3A70913   0.415  18.390   6.914
 5649POPC   C4A70914   0.486  18.350   7.336
 5649POPC   C1B70915   0.639  18.075   6.266
 5649POPC   C2B70916   0.797  18.106   6.704
 5649POPC   C3B70917   0.741  17.953   7.138
 5649POPC   C4B70918   0.724  17.979   7.620
 5650POPC   NC370919  39.460  44.440   5.126
 5650POPC   PO470920  39.028  43.946   5.223
 5650POPC   GL170921  39.267  43.917   5.634
 5650POPC   GL270922  39.285  44.200   5.901
 5650POPC   C1A70923  39.288  43.697   6.039
 5650POPC   D2A70924  38.963  43.620   6.348
 5650POPC   C3A70925  38.924  43.552   6.826
 5650POPC   C4A70926  38.800  43.399   7.262
 5650POPC   C1B70927  39.191  44.090   6.364
 5650POPC   C2B70928  39.106  44.021   6.822
 5650POPC   C3B70929  38.815  44.010   7.193
 5650POPC   C4B70930  38.417  44.232   7.358
 5651POPC   NC370931   5.616  27.819   5.434
 5651POPC   PO470932   6.085  27.404   5.484
 5651POPC   GL170933   5.797  27.475   5.839
 5651POPC   GL270934   5.809  27.853   5.903
 5651POPC   C1A70935   5.769  27.538   6.298
 5651POPC   D2A70936   5.887  27.739   6.674
 5651POPC   C3A70937   5.679  27.579   7.046
 5651POPC   C4A70938   5.874  27.350   7.396
 5651POPC   C1B70939   6.111  28.120   6.148
 5651POPC   C2B70940   6.242  28.208   6.598
 5651POPC   C3B70941   6.309  27.910   6.926
 5651POPC   C4B70942   6.037  27.844   7.280
 5652POPC   NC370943  23.208  20.326   5.343
 5652POPC   PO470944  22.545  20.585   5.312
 5652POPC   GL170945  22.778  20.605   5.723
 5652POPC   GL270946  22.949  20.310   5.806
 5652POPC   C1A70947  22.775  20.645   6.206
 5652POPC   D2A70948  22.513  20.794   6.567
 5652POPC   C3A70949  22.662  20.683   6.994
 5652POPC   C4A70950  22.985  20.816   7.307
 5652POPC   C1B70951  23.168  20.283   6.230
 5652POPC   C2B70952  23.121  20.527   6.615
 5652POPC   C3B70953  23.125  20.401   7.045
 5652POPC   C4B70954  23.124  20.350   7.509
 5653POPC   NC370955  15.472  36.842   5.474
 5653POPC   PO470956  14.806  37.015   5.369
 5653POPC   GL170957  15.014  36.848   5.770
 5653POPC   GL270958  15.218  37.126   5.870
 5653POPC   C1A70959  15.181  36.712   6.200
 5653POPC   D2A70960  15.145  36.994   6.602
 5653POPC   C3A70961  15.210  36.831   7.023
 5653POPC   C4A70962  14.994  36.868   7.429
 5653POPC   C1B70963  15.467  37.159   6.248
 5653POPC   C2B70964  15.672  37.312   6.620
 5653POPC   C3B70965  15.639  37.135   7.034
 5653POPC   C4B70966  15.452  37.108   7.447
 5654POPC   NC370967  35.034  12.997   5.478
 5654POPC   PO470968  35.683  13.043   5.564
 5654POPC   GL170969  35.465  12.899   5.907
 5654POPC   GL270970  35.154  12.678   5.855
 5654POPC   C1A70971  35.581  13.060   6.318
 5654POPC   D2A70972  35.734  13.096   6.712
 5654POPC   C3A70973  35.451  13.155   7.040
 5654POPC   C4A70974  35.164  13.036   7.388
 5654POPC   C1B70975  35.166  12.757   6.296
 5654POPC   C2B70976  35.416  12.691   6.638
 5654POPC   C3B70977  35.336  12.668   7.051
 5654POPC   C4B70978  34.977  12.551   7.243
 5655POPC   NC370979  21.808  24.757   5.414
 5655POPC   PO470980  22.279  24.312   5.173
 5655POPC   GL170981  22.241  24.524   5.616
 5655POPC   GL270982  22.486  24.405   5.842
 5655POPC   C1A70983  22.055  24.579   6.086
 5655POPC   D2A70984  22.171  24.649   6.572
 5655POPC   C3A70985  21.944  24.596   6.979
 5655POPC   C4A70986  21.814  24.319   7.270
 5655POPC   C1B70987  22.545  24.652   6.223
 5655POPC   C2B70988  22.656  24.809   6.664
 5655POPC   C3B70989  22.422  24.716   7.070
 5655POPC   C4B70990  22.437  24.866   7.538
 5656POPC   NC370991  35.005  30.313   5.587
 5656POPC   PO470992  35.513  29.957   5.279
 5656POPC   GL170993  35.378  29.936   5.730
 5656POPC   GL270994  35.046  29.904   5.897
 5656POPC   C1A70995  35.497  29.753   6.146
 5656POPC   D2A70996  35.431  29.653   6.588
 5656POPC   C3A70997  35.588  29.895   6.898
 5656POPC   C4A70998  35.581  29.991   7.315
 5656POPC   C1B70999  35.201  30.161   6.192
 5656POPC   C2B71000  35.347  30.231   6.561
 5656POPC   C3B71001  35.082  30.064   6.844
 5656POPC   C4B71002  35.087  30.090   7.274
 5657POPC   NC371003  15.879  32.511   5.442
 5657POPC   PO471004  15.988  31.848   5.522
 5657POPC   GL171005  15.880  32.166   5.826
 5657POPC   GL271006  16.134  32.415   5.875
 5657POPC   C1A71007  15.720  32.124   6.233
 5657POPC   D2A71008  15.964  31.957   6.559
 5657POPC   C3A71009  15.797  32.036   6.954
 5657POPC   C4A71010  16.049  32.231   7.255
 5657POPC   C1B71011  16.163  32.391   6.306
 5657POPC   C2B71012  15.964  32.453   6.695
 5657POPC   C3B71013  16.300  32.559   6.926
 5657POPC   C4B71014  16.353  32.648   7.321
 5658POPC   NC371015  10.898   6.066   5.500
 5658POPC   PO471016  11.550   5.754   5.425
 5658POPC   GL171017  11.279   5.757   5.796
 5658POPC   GL271018  11.157   5.454   5.918
 5658POPC   C1A71019  11.344   5.757   6.267
 5658POPC   D2A71020  11.200   5.706   6.691
 5658POPC   C3A71021  11.141   6.115   6.943
 5658POPC   C4A71022  11.544   6.235   7.142
 5658POPC   C1B71023  11.555   5.292   6.154
 5658POPC   C2B71024  11.721   5.281   6.605
 5658POPC   C3B71025  11.586   5.447   7.027
 5658POPC   C4B71026  11.228   5.683   7.188
 5659POPC   NC371027  29.094   0.311   5.370
 5659POPC   PO471028  29.094   0.973   5.663
 5659POPC   GL171029  29.107   0.642   5.959
 5659POPC   GL271030  29.236   0.315   5.855
 5659POPC   C1A71031  29.065   0.408   6.331
 5659POPC   D2A71032  28.870   0.486   6.666
 5659POPC   C3A71033  29.123   0.471   6.988
 5659POPC   C4A71034  29.069   0.536   7.364
 5659POPC   C1B71035  28.890   0.035   6.028
 5659POPC   C2B71036  28.784  44.897   6.441
 5659POPC   C3B71037  28.903   0.008   6.855
 5659POPC   C4B71038  28.946   0.045   7.303
 5660POPC   NC371039  42.198  20.407   5.197
 5660POPC   PO471040  42.570  20.743   5.647
 5660POPC   GL171041  42.246  20.594   5.909
 5660POPC   GL271042  42.129  20.235   5.803
 5660POPC   C1A71043  42.305  20.647   6.358
 5660POPC   D2A71044  42.160  20.449   6.719
 5660POPC   C3A71045  42.407  20.711   6.997
 5660POPC   C4A71046  42.241  21.027   7.272
 5660POPC   C1B71047  42.361  20.168   6.198
 5660POPC   C2B71048  42.593  20.226   6.602
 5660POPC   C3B71049  42.466  20.193   7.057
 5660POPC   C4B71050  42.441  20.450   7.445
 5661POPC   NC371051  40.222  41.388   5.412
 5661POPC   PO471052  40.166  41.979   5.748
 5661POPC   GL171053  40.075  41.587   5.876
 5661POPC   GL271054  39.832  41.372   5.812
 5661POPC   C1A71055  40.149  41.376   6.267
 5661POPC   D2A71056  40.120  41.613   6.657
 5661POPC   C3A71057  40.048  41.377   7.048
 5661POPC   C4A71058  39.888  40.943   7.132
 5661POPC   C1B71059  39.698  41.587   6.218
 5661POPC   C2B71060  39.616  41.425   6.657
 5661POPC   C3B71061  39.517  41.355   7.106
 5661POPC   C4B71062  39.545  41.430   7.546
 5662POPC   NC371063  37.552  20.349   5.435
 5662POPC   PO471064  37.974  20.849   5.473
 5662POPC   GL171065  37.687  20.702   5.781
 5662POPC   GL271066  37.764  20.339   5.901
 5662POPC   C1A71067  37.655  20.753   6.200
 5662POPC   D2A71068  37.975  20.594   6.430
 5662POPC   C3A71069  37.858  20.825   6.760
 5662POPC   C4A71070  37.633  20.705   7.105
 5662POPC   C1B71071  37.497  20.284   6.288
 5662POPC   C2B71072  37.610  20.341   6.716
 5662POPC   C3B71073  37.419  20.239   7.100
 5662POPC   C4B71074  37.414  20.163   7.556
 5663POPC   NC371075  15.436  17.658   5.490
 5663POPC   PO471076  16.153  17.424   5.567
 5663POPC   GL171077  16.114  17.598   5.946
 5663POPC   GL271078  15.766  17.626   6.005
 5663POPC   C1A71079  16.113  17.596   6.396
 5663POPC   D2A71080  16.218  17.780   6.781
 5663POPC   C3A71081  16.179  17.471   7.093
 5663POPC   C4A71082  16.076  17.474   7.536
 5663POPC   C1B71083  15.698  17.304   6.379
 5663POPC   C2B71084  15.635  17.101   6.787
 5663POPC   C3B71085  15.738  17.216   7.244
 5663POPC   C4B71086  15.610  17.318   7.718
 5664POPC   NC371087  29.336  11.950   5.533
 5664POPC   PO471088  28.818  12.397   5.384
 5664POPC   GL171089  29.027  12.377   5.811
 5664POPC   GL271090  29.289  12.129   5.990
 5664POPC   C1A71091  29.049  12.455   6.269
 5664POPC   D2A71092  29.340  12.162   6.528
 5664POPC   C3A71093  29.147  11.941   6.880
 5664POPC   C4A71094  29.014  12.191   7.186
 5664POPC   C1B71095  29.515  11.782   6.190
 5664POPC   C2B71096  29.492  11.651   6.616
 5664POPC   C3B71097  29.550  11.689   7.058
 5664POPC   C4B71098  29.287  11.780   7.407
 5665POPC   NC371099  22.489  43.378   5.330
 5665POPC   PO471100  21.955  43.003   5.268
 5665POPC   GL171101  22.040  43.022   5.737
 5665POPC   GL271102  22.310  43.281   5.822
 5665POPC   C1A71103  22.246  42.912   6.163
 5665POPC   D2A71104  22.403  42.940   6.580
 5665POPC   C3A71105  22.227  43.146   6.928
 5665POPC   C4A71106  21.926  43.054   7.266
 5665POPC   C1B71107  22.421  43.399   6.251
 5665POPC   C2B71108  22.348  43.576   6.657
 5665POPC   C3B71109  22.488  43.575   7.077
 5665POPC   C4B71110  22.138  43.536   7.338
 5666POPC   NC371111  10.129  42.306   5.414
 5666POPC   PO471112  10.743  42.696   5.484
 5666POPC   GL171113  10.640  42.504   5.852
 5666POPC   GL271114  10.369  42.284   5.868
 5666POPC   C1A71115  10.505  42.545   6.279
 5666POPC   D2A71116  10.338  42.416   6.657
 5666POPC   C3A71117  10.559  42.288   7.045
 5666POPC   C4A71118  10.685  42.577   7.367
 5666POPC   C1B71119  10.227  42.088   6.273
 5666POPC   C2B71120  10.103  41.958   6.713
 5666POPC   C3B71121  10.037  42.289   7.026
 5666POPC   C4B71122  10.207  42.368   7.431
 5667POPC   NC371123  34.881  43.753   5.248
 5667POPC   PO471124  34.374  44.108   5.315
 5667POPC   GL171125  34.632  44.117   5.712
 5667POPC   GL271126  34.397  44.248   5.961
 5667POPC   C1A71127  34.766  43.924   6.140
 5667POPC   D2A71128  34.575  43.800   6.569
 5667POPC   C3A71129  34.814  43.785   6.977
 5667POPC   C4A71130  34.702  43.674   7.411
 5667POPC   C1B71131  34.235  43.831   6.155
 5667POPC   C2B71132  34.095  43.609   6.549
 5667POPC   C3B71133  34.008  43.710   6.978
 5667POPC   C4B71134  34.344  43.917   7.139
 5668POPC   NC371135   2.769  28.076   5.422
 5668POPC   PO471136   2.985  27.433   5.467
 5668POPC   GL171137   2.765  27.656   5.787
 5668POPC   GL271138   3.028  27.486   5.974
 5668POPC   C1A71139   2.753  27.824   6.225
 5668POPC   D2A71140   2.635  27.640   6.599
 5668POPC   C3A71141   2.717  27.563   7.022
 5668POPC   C4A71142   2.321  27.453   7.220
 5668POPC   C1B71143   3.103  27.113   6.192
 5668POPC   C2B71144   3.012  27.288   6.620
 5668POPC   C3B71145   3.111  27.274   7.042
 5668POPC   C4B71146   3.243  27.251   7.435
 5669POPC   NC371147  29.266  14.303   5.576
 5669POPC   PO471148  29.377  14.840   5.228
 5669POPC   GL171149  29.045  14.760   5.693
 5669POPC   GL271150  29.177  14.492   6.037
 5669POPC   C1A71151  28.767  14.727   6.072
 5669POPC   D2A71152  28.818  14.520   6.520
 5669POPC   C3A71153  29.186  14.384   6.800
 5669POPC   C4A71154  29.261  14.438   7.248
 5669POPC   C1B71155  29.227  14.141   6.328
 5669POPC   C2B71156  29.171  13.850   6.684
 5669POPC   C3B71157  29.189  13.942   7.136
 5669POPC   C4B71158  29.362  14.035   7.550
 5670POPC   NC371159  29.169  10.148   5.567
 5670POPC   PO471160  29.588   9.680   5.256
 5670POPC   GL171161  29.383   9.628   5.676
 5670POPC   GL271162  29.042   9.678   5.730
 5670POPC   C1A71163  29.342   9.463   6.105
 5670POPC   D2A71164  29.265   9.669   6.491
 5670POPC   C3A71165  29.380   9.546   6.881
 5670POPC   C4A71166  29.450   9.954   7.078
 5670POPC   C1B71167  28.973   9.907   6.163
 5670POPC   C2B71168  28.790   9.840   6.644
 5670POPC   C3B71169  28.947   9.757   7.116
 5670POPC   C4B71170  28.886   9.690   7.593
 5671POPC   NC371171  30.823  28.821   5.518
 5671POPC   PO471172  30.535  29.387   5.623
 5671POPC   GL171173  30.618  29.079   5.920
 5671POPC   GL271174  30.427  28.794   5.862
 5671POPC   C1A71175  30.835  29.076   6.316
 5671POPC   D2A71176  30.872  29.420   6.626
 5671POPC   C3A71177  30.807  29.256   7.036
 5671POPC   C4A71178  30.619  29.204   7.426
 5671POPC   C1B71179  30.383  28.804   6.305
 5671POPC   C2B71180  30.439  29.076   6.685
 5671POPC   C3B71181  30.442  28.870   7.102
 5671POPC   C4B71182  30.375  28.796   7.583
 5672POPC   NC371183   9.852   2.981   5.447
 5672POPC   PO471184   9.622   2.307   5.386
 5672POPC   GL171185   9.528   2.628   5.731
 5672POPC   GL271186   9.849   2.533   5.800
 5672POPC   C1A71187   9.552   2.921   6.141
 5672POPC   D2A71188   9.548   3.169   6.580
 5672POPC   C3A71189   9.618   2.976   7.015
 5672POPC   C4A71190   9.402   2.695   7.343
 5672POPC   C1B71191   9.889   2.550   6.236
 5672POPC   C2B71192   9.862   2.725   6.616
 5672POPC   C3B71193   9.923   2.550   6.997
 5672POPC   C4B71194   9.682   2.314   7.254
 5673POPC   NC371195  33.332  39.971   5.458
 5673POPC   PO471196  32.649  40.148   5.390
 5673POPC   GL171197  32.874  39.945   5.709
 5673POPC   GL271198  33.154  40.083   5.916
 5673POPC   C1A71199  32.814  39.710   6.079
 5673POPC   D2A71200  33.015  39.843   6.447
 5673POPC   C3A71201  32.833  39.682   6.812
 5673POPC   C4A71202  32.909  39.956   7.139
 5673POPC   C1B71203  33.413  40.335   6.206
 5673POPC   C2B71204  33.434  40.516   6.615
 5673POPC   C3B71205  33.244  40.369   6.993
 5673POPC   C4B71206  33.398  40.095   7.258
 5674POPC   NC371207   8.331   9.475   5.304
 5674POPC   PO471208   8.154  10.149   5.392
 5674POPC   GL171209   8.235   9.799   5.711
 5674POPC   GL271210   8.025   9.502   5.732
 5674POPC   C1A71211   8.439   9.571   6.098
 5674POPC   D2A71212   8.343   9.366   6.496
 5674POPC   C3A71213   8.395   9.522   6.888
 5674POPC   C4A71214   8.239   9.669   7.247
 5674POPC   C1B71215   7.937   9.662   6.163
 5674POPC   C2B71216   7.836   9.514   6.594
 5674POPC   C3B71217   7.778   9.593   7.061
 5674POPC   C4B71218   7.798   9.888   7.448
 5675POPC   NC371219   0.576   5.363   5.309
 5675POPC   PO471220   0.413   4.701   5.408
 5675POPC   GL171221   0.587   4.964   5.680
 5675POPC   GL271222   0.381   5.269   5.822
 5675POPC   C1A71223   0.628   4.832   6.092
 5675POPC   D2A71224   0.402   4.960   6.446
 5675POPC   C3A71225   0.561   4.895   6.858
 5675POPC   C4A71226   0.376   5.033   7.243
 5675POPC   C1B71227   0.194   5.423   6.259
 5675POPC   C2B71228   0.305   5.396   6.726
 5675POPC   C3B71229   0.677   5.376   7.029
 5675POPC   C4B71230   0.750   5.336   7.515
 5676POPC   NC371231  40.029  44.927   4.966
 5676POPC   PO471232  40.021  44.246   5.133
 5676POPC   GL171233  40.056  44.577   5.428
 5676POPC   GL271234  40.389  44.752   5.277
 5676POPC   C1A71235  39.762  44.460   5.803
 5676POPC   D2A71236  39.708  44.220   6.212
 5676POPC   C3A71237  40.077  44.097   6.484
 5676POPC   C4A71238  40.141  43.903   6.925
 5676POPC   C1B71239  40.485  44.779   5.691
 5676POPC   C2B71240  40.233  44.584   5.928
 5676POPC   C3B71241  40.091  44.603   6.275
 5676POPC   C4B71242  40.524  44.825   6.334
 5677POPC   NC371243  32.055  15.678   5.491
 5677POPC   PO471244  32.321  16.357   5.296
 5677POPC   GL171245  32.366  16.118   5.674
 5677POPC   GL271246  32.017  16.155   5.777
 5677POPC   C1A71247  32.456  16.035   6.118
 5677POPC   D2A71248  32.417  15.832   6.533
 5677POPC   C3A71249  32.506  16.001   6.934
 5677POPC   C4A71250  32.286  16.160   7.310
 5677POPC   C1B71251  31.951  16.003   6.199
 5677POPC   C2B71252  31.928  15.699   6.521
 5677POPC   C3B71253  32.001  15.897   6.913
 5677POPC   C4B71254  31.845  15.886   7.312
 5678POPC   NC371255  19.743  24.561   5.382
 5678POPC   PO471256  20.065  24.008   5.599
 5678POPC   GL171257  20.023  24.432   5.801
 5678POPC   GL271258  19.684  24.592   5.893
 5678POPC   C1A71259  20.105  24.650   6.179
 5678POPC   D2A71260  20.037  24.769   6.601
 5678POPC   C3A71261  20.167  24.428   6.832
 5678POPC   C4A71262  20.246  24.382   7.247
 5678POPC   C1B71263  19.481  24.416   6.278
 5678POPC   C2B71264  19.681  24.345   6.691
 5678POPC   C3B71265  19.741  24.467   7.125
 5678POPC   C4B71266  19.502  24.357   7.510
 5679POPC   NC371267   4.532  29.568   5.375
 5679POPC   PO471268   4.369  28.903   5.352
 5679POPC   GL171269   4.347  29.073   5.756
 5679POPC   GL271270   4.663  29.206   5.815
 5679POPC   C1A71271   4.419  28.982   6.205
 5679POPC   D2A71272   4.230  29.150   6.568
 5679POPC   C3A71273   4.308  28.974   6.990
 5679POPC   C4A71274   4.247  29.140   7.402
 5679POPC   C1B71275   4.831  29.396   6.240
 5679POPC   C2B71276   4.749  29.149   6.608
 5679POPC   C3B71277   4.723  29.255   7.025
 5679POPC   C4B71278   4.783  29.401   7.430
 5680POPC   NC371279  41.278  20.015   5.188
 5680POPC   PO471280  41.518  19.516   5.548
 5680POPC   GL171281  41.668  19.701   5.899
 5680POPC   GL271282  41.615  20.045   5.807
 5680POPC   C1A71283  41.587  19.694   6.302
 5680POPC   D2A71284  41.207  19.673   6.549
 5680POPC   C3A71285  41.442  19.632   6.896
 5680POPC   C4A71286  41.715  19.714   7.260
 5680POPC   C1B71287  41.809  20.150   6.219
 5680POPC   C2B71288  41.639  20.051   6.634
 5680POPC   C3B71289  41.569  20.146   7.017
 5680POPC   C4B71290  41.957  20.241   7.219
 5681POPC   NC371291  32.582   2.200   5.536
 5681POPC   PO471292  32.060   1.862   5.281
 5681POPC   GL171293  32.189   1.937   5.735
 5681POPC   GL271294  31.917   2.009   5.967
 5681POPC   C1A71295  32.345   1.861   6.179
 5681POPC   D2A71296  32.085   1.663   6.493
 5681POPC   C3A71297  32.133   1.879   6.888
 5681POPC   C4A71298  32.493   1.955   7.156
 5681POPC   C1B71299  32.171   2.371   6.163
 5681POPC   C2B71300  32.308   2.495   6.596
 5681POPC   C3B71301  32.240   2.374   7.045
 5681POPC   C4B71302  31.995   2.150   7.388
 5682POPC   NC371303  10.268   4.486   5.156
 5682POPC   PO471304  10.781   4.144   5.308
 5682POPC   GL171305  10.569   4.184   5.753
 5682POPC   GL271306  10.377   4.465   5.900
 5682POPC   C1A71307  10.428   4.080   6.208
 5682POPC   D2A71308  10.652   4.315   6.542
 5682POPC   C3A71309  10.801   4.224   6.950
 5682POPC   C4A71310  10.870   4.346   7.345
 5682POPC   C1B71311  10.249   4.593   6.330
 5682POPC   C2B71312  10.314   4.597   6.805
 5682POPC   C3B71313  10.376   4.418   7.233
 5682POPC   C4B71314  10.222   4.177   7.596
 5683POPC   NC371315  23.782   0.217   5.228
 5683POPC   PO471316  23.540   0.766   5.396
 5683POPC   GL171317  23.792   0.499   5.717
 5683POPC   GL271318  23.838   0.124   5.719
 5683POPC   C1A71319  23.767   0.362   6.168
 5683POPC   D2A71320  23.619   0.279   6.596
 5683POPC   C3A71321  23.588   0.658   6.857
 5683POPC   C4A71322  23.865   0.845   7.137
 5683POPC   C1B71323  24.157   0.043   6.041
 5683POPC   C2B71324  24.119   0.095   6.472
 5683POPC   C3B71325  23.962   0.009   6.876
 5683POPC   C4B71326  24.025   0.158   7.298
 5684POPC   NC371327  37.399  38.414   5.317
 5684POPC   PO471328  38.090  38.352   5.330
 5684POPC   GL171329  37.738  38.364   5.701
 5684POPC   GL271330  37.507  38.097   5.735
 5684POPC   C1A71331  37.581  38.529   6.127
 5684POPC   D2A71332  37.693  38.585   6.577
 5684POPC   C3A71333  37.989  38.630   6.935
 5684POPC   C4A71334  37.694  38.598   7.291
 5684POPC   C1B71335  37.781  38.069   6.118
 5684POPC   C2B71336  37.736  38.060   6.542
 5684POPC   C3B71337  37.720  38.197   6.963
 5684POPC   C4B71338  37.448  38.165   7.313
 5685POPC   NC371339  42.013  28.319   5.500
 5685POPC   PO471340  42.545  28.690   5.490
 5685POPC   GL171341  42.412  28.530   5.884
 5685POPC   GL271342  42.334  28.172   5.881
 5685POPC   C1A71343  42.398  28.435   6.326
 5685POPC   D2A71344  42.162  28.345   6.655
 5685POPC   C3A71345  42.363  28.427   7.013
 5685POPC   C4A71346  42.619  28.750   7.185
 5685POPC   C1B71347  42.146  27.979   6.261
 5685POPC   C2B71348  42.130  27.854   6.674
 5685POPC   C3B71349  42.012  28.027   7.058
 5685POPC   C4B71350  42.157  28.051   7.493
 5686POPC   NC371351  29.317  44.173   5.097
 5686POPC   PO471352  29.205  43.517   5.224
 5686POPC   GL171353  29.349  43.558   5.713
 5686POPC   GL271354  29.080  43.782   5.792
 5686POPC   C1A71355  29.386  43.773   6.179
 5686POPC   D2A71356  29.171  44.074   6.469
 5686POPC   C3A71357  29.259  44.096   6.928
 5686POPC   C4A71358  29.305  44.102   7.394
 5686POPC   C1B71359  28.935  43.541   6.181
 5686POPC   C2B71360  29.161  43.561   6.620
 5686POPC   C3B71361  29.177  43.619   7.091
 5686POPC   C4B71362  28.827  43.645   7.373
 5687POPC   NC371363  20.110  27.251   5.600
 5687POPC   PO471364  19.890  27.919   5.463
 5687POPC   GL171365  19.951  27.714   5.824
 5687POPC   GL271366  20.346  27.669   5.789
 5687POPC   C1A71367  19.642  27.671   6.182
 5687POPC   D2A71368  19.554  27.787   6.630
 5687POPC   C3A71369  19.689  27.507   6.964
 5687POPC   C4A71370  20.050  27.520   7.228
 5687POPC   C1B71371  20.277  27.943   6.121
 5687POPC   C2B71372  20.043  27.828   6.465
 5687POPC   C3B71373  20.093  27.887   6.887
 5687POPC   C4B71374  20.398  27.884   7.261
 5688POPC   NC371375   8.393  34.926   5.469
 5688POPC   PO471376   7.890  34.480   5.625
 5688POPC   GL171377   8.165  34.553   5.977
 5688POPC   GL271378   8.503  34.687   5.900
 5688POPC   C1A71379   8.243  34.338   6.368
 5688POPC   D2A71380   8.222  34.352   6.848
 5688POPC   C3A71381   8.216  34.795   7.021
 5688POPC   C4A71382   8.118  34.817   7.475
 5688POPC   C1B71383   8.735  34.554   6.225
 5688POPC   C2B71384   8.672  34.456   6.618
 5688POPC   C3B71385   8.686  34.571   6.989
 5688POPC   C4B71386   8.506  34.509   7.346
 5689POPC   NC371387   7.361   7.016   5.610
 5689POPC   PO471388   7.088   6.337   5.458
 5689POPC   GL171389   7.310   6.506   5.818
 5689POPC   GL271390   7.281   6.151   5.903
 5689POPC   C1A71391   7.545   6.704   6.190
 5689POPC   D2A71392   7.590   6.543   6.617
 5689POPC   C3A71393   7.404   6.741   6.970
 5689POPC   C4A71394   7.650   6.930   7.237
 5689POPC   C1B71395   7.275   6.267   6.288
 5689POPC   C2B71396   7.294   6.117   6.672
 5689POPC   C3B71397   7.517   6.223   7.035
 5689POPC   C4B71398   7.405   6.466   7.394
 5690POPC   NC371399  37.523  16.471   5.459
 5690POPC   PO471400  38.086  16.880   5.308
 5690POPC   GL171401  37.788  16.889   5.696
 5690POPC   GL271402  37.834  16.584   5.857
 5690POPC   C1A71403  37.802  16.940   6.188
 5690POPC   D2A71404  37.864  17.027   6.640
 5690POPC   C3A71405  37.578  16.770   6.903
 5690POPC   C4A71406  37.629  16.632   7.334
 5690POPC   C1B71407  37.766  16.392   6.260
 5690POPC   C2B71408  37.594  16.285   6.649
 5690POPC   C3B71409  37.833  16.312   7.013
 5690POPC   C4B71410  37.917  16.176   7.432
 5691POPC   NC371411   2.677  41.056   5.362
 5691POPC   PO471412   2.504  40.430   5.204
 5691POPC   GL171413   2.486  40.558   5.689
 5691POPC   GL271414   2.829  40.543   5.782
 5691POPC   C1A71415   2.591  40.698   6.194
 5691POPC   D2A71416   2.953  40.820   6.539
 5691POPC   C3A71417   2.827  40.907   6.989
 5691POPC   C4A71418   2.595  41.229   7.182
 5691POPC   C1B71419   3.046  40.418   6.181
 5691POPC   C2B71420   3.271  40.397   6.592
 5691POPC   C3B71421   3.160  40.517   6.995
 5691POPC   C4B71422   2.752  40.418   7.169
 5692POPC   NC371423   2.545  35.426   5.404
 5692POPC   PO471424   3.065  35.014   5.536
 5692POPC   GL171425   2.847  35.288   5.842
 5692POPC   GL271426   2.788  35.654   5.826
 5692POPC   C1A71427   2.732  35.318   6.289
 5692POPC   D2A71428   2.830  35.090   6.658
 5692POPC   C3A71429   2.515  35.053   6.968
 5692POPC   C4A71430   2.368  35.349   7.261
 5692POPC   C1B71431   2.627  35.804   6.232
 5692POPC   C2B71432   2.754  35.754   6.657
 5692POPC   C3B71433   2.785  35.520   7.024
 5692POPC   C4B71434   2.781  35.666   7.444
 5693POPC   NC371435  18.898  19.320   5.009
 5693POPC   PO471436  18.966  18.837   5.466
 5693POPC   GL171437  19.049  18.824   5.880
 5693POPC   GL271438  19.107  19.190   5.941
 5693POPC   C1A71439  19.240  18.831   6.264
 5693POPC   D2A71440  19.215  19.136   6.591
 5693POPC   C3A71441  19.199  18.961   7.029
 5693POPC   C4A71442  19.375  18.666   7.296
 5693POPC   C1B71443  18.900  19.478   6.200
 5693POPC   C2B71444  18.774  19.413   6.581
 5693POPC   C3B71445  18.947  19.393   6.946
 5693POPC   C4B71446  18.845  19.494   7.305
 5694POPC   NC371447  37.244  24.443   5.651
 5694POPC   PO471448  37.827  24.721   5.584
 5694POPC   GL171449  37.684  24.538   5.900
 5694POPC   GL271450  37.506  24.829   5.970
 5694POPC   C1A71451  37.915  24.351   6.212
 5694POPC   D2A71452  37.895  24.192   6.594
 5694POPC   C3A71453  37.878  24.385   6.973
 5694POPC   C4A71454  37.634  24.586   7.251
 5694POPC   C1B71455  37.669  24.772   6.350
 5694POPC   C2B71456  37.507  24.574   6.683
 5694POPC   C3B71457  37.183  24.693   6.939
 5694POPC   C4B71458  37.193  24.822   7.340
 5695POPC   NC371459   1.778  31.388   5.172
 5695POPC   PO471460   1.132  31.441   5.397
 5695POPC   GL171461   1.121  31.386   5.880
 5695POPC   GL271462   1.251  31.103   5.880
 5695POPC   C1A71463   1.158  31.558   6.300
 5695POPC   D2A71464   0.881  31.691   6.633
 5695POPC   C3A71465   1.049  31.681   7.026
 5695POPC   C4A71466   1.129  31.307   7.212
 5695POPC   C1B71467   1.424  31.099   6.307
 5695POPC   C2B71468   1.337  31.136   6.753
 5695POPC   C3B71469   1.603  31.337   7.055
 5695POPC   C4B71470   1.566  31.342   7.531
 5696POPC   NC371471  14.896  14.488   5.518
 5696POPC   PO471472  15.537  14.377   5.493
 5696POPC   GL171473  15.256  14.324   5.841
 5696POPC   GL271474  15.273  14.689   5.838
 5696POPC   C1A71475  14.963  14.476   6.195
 5696POPC   D2A71476  15.070  14.428   6.630
 5696POPC   C3A71477  15.138  14.502   7.083
 5696POPC   C4A71478  15.179  14.487   7.554
 5696POPC   C1B71479  15.455  14.577   6.257
 5696POPC   C2B71480  15.519  14.699   6.694
 5696POPC   C3B71481  15.616  14.671   7.134
 5696POPC   C4B71482  15.677  14.639   7.595
 5697POPC   NC371483  31.615  21.531   5.494
 5697POPC   PO471484  31.031  21.125   5.507
 5697POPC   GL171485  31.180  21.431   5.768
 5697POPC   GL271486  31.436  21.271   5.918
 5697POPC   C1A71487  31.150  21.582   6.195
 5697POPC   D2A71488  31.398  21.414   6.526
 5697POPC   C3A71489  31.177  21.390   6.901
 5697POPC   C4A71490  31.339  21.276   7.272
 5697POPC   C1B71491  31.668  21.638   6.135
 5697POPC   C2B71492  31.705  21.843   6.545
 5697POPC   C3B71493  31.566  21.754   6.954
 5697POPC   C4B71494  31.761  21.565   7.286
 5698POPC   NC371495  39.978   2.799   5.421
 5698POPC   PO471496  39.883   2.193   5.570
 5698POPC   GL171497  40.158   2.454   5.852
 5698POPC   GL271498  40.116   2.829   5.906
 5698POPC   C1A71499  40.061   2.506   6.317
 5698POPC   D2A71500  39.746   2.742   6.568
 5698POPC   C3A71501  39.809   2.697   7.012
 5698POPC   C4A71502  40.072   2.482   7.283
 5698POPC   C1B71503  40.132   3.005   6.323
 5698POPC   C2B71504  40.244   2.854   6.737
 5698POPC   C3B71505  40.315   2.934   7.178
 5698POPC   C4B71506  40.111   3.083   7.537
 5699POPC   NC371507  43.149  39.599   5.311
 5699POPC   PO471508  43.017  38.943   5.469
 5699POPC   GL171509  42.975  39.221   5.798
 5699POPC   GL271510  42.773  39.519   5.648
 5699POPC   C1A71511  42.983  39.044   6.209
 5699POPC   D2A71512  43.148  38.919   6.635
 5699POPC   C3A71513  43.057  39.224   6.919
 5699POPC   C4A71514  43.030  39.176   7.339
 5699POPC   C1B71515  42.799  39.627   6.073
 5699POPC   C2B71516  42.934  39.474   6.473
 5699POPC   C3B71517  42.664  39.545   6.823
 5699POPC   C4B71518  42.748  39.558   7.234
 5700POPC   NC371519  25.829   3.757   5.569
 5700POPC   PO471520  26.383   3.475   5.355
 5700POPC   GL171521  26.133   3.420   5.825
 5700POPC   GL271522  25.926   3.674   6.056
 5700POPC   C1A71523  26.126   3.275   6.281
 5700POPC   D2A71524  26.295   3.484   6.650
 5700POPC   C3A71525  26.110   3.541   7.013
 5700POPC   C4A71526  25.917   3.167   7.069
 5700POPC   C1B71527  25.559   3.792   6.246
 5700POPC   C2B71528  25.483   3.613   6.616
 5700POPC   C3B71529  25.603   3.573   7.012
 5700POPC   C4B71530  25.644   3.755   7.406
 5701POPC   NC371531  34.086   7.902   5.572
 5701POPC   PO471532  33.614   7.407   5.567
 5701POPC   GL171533  33.707   7.561   5.909
 5701POPC   GL271534  34.059   7.518   5.898
 5701POPC   C1A71535  33.803   7.281   6.264
 5701POPC   D2A71536  34.004   7.322   6.622
 5701POPC   C3A71537  33.684   7.406   6.907
 5701POPC   C4A71538  33.614   7.154   7.239
 5701POPC   C1B71539  33.982   7.782   6.257
 5701POPC   C2B71540  34.137   7.793   6.646
 5701POPC   C3B71541  34.074   7.683   7.051
 5701POPC   C4B71542  33.720   7.750   7.334
 5702POPC   NC371543   8.499  35.550   5.151
 5702POPC   PO471544   7.977  35.227   5.447
 5702POPC   GL171545   8.216  35.455   5.797
 5702POPC   GL271546   8.518  35.679   5.711
 5702POPC   C1A71547   8.277  35.520   6.263
 5702POPC   D2A71548   8.218  35.334   6.682
 5702POPC   C3A71549   8.019  35.594   7.027
 5702POPC   C4A71550   7.927  35.526   7.507
 5702POPC   C1B71551   8.716  35.760   6.138
 5702POPC   C2B71552   8.595  35.795   6.597
 5702POPC   C3B71553   8.544  35.548   7.002
 5702POPC   C4B71554   8.289  35.256   7.280
 5703POPC   NC371555  34.122  10.518   5.346
 5703POPC   PO471556  34.558  10.068   5.296
 5703POPC   GL171557  34.451  10.302   5.712
 5703POPC   GL271558  34.123  10.307   5.842
 5703POPC   C1A71559  34.663  10.515   6.093
 5703POPC   D2A71560  34.637  10.427   6.543
 5703POPC   C3A71561  34.634  10.626   6.966
 5703POPC   C4A71562  34.966  10.884   7.181
 5703POPC   C1B71563  34.195  10.703   6.097
 5703POPC   C2B71564  34.255  10.776   6.572
 5703POPC   C3B71565  34.157  10.811   7.043
 5703POPC   C4B71566  34.222  10.512   7.384
 5704POPC   NC371567   6.179  39.434   5.358
 5704POPC   PO471568   5.579  39.108   5.305
 5704POPC   GL171569   5.713  39.210   5.740
 5704POPC   GL271570   6.083  39.124   5.747
 5704POPC   C1A71571   5.852  39.269   6.199
 5704POPC   D2A71572   5.865  39.488   6.611
 5704POPC   C3A71573   5.745  39.280   6.995
 5704POPC   C4A71574   6.052  39.292   7.287
 5704POPC   C1B71575   6.378  39.164   6.096
 5704POPC   C2B71576   6.265  39.184   6.528
 5704POPC   C3B71577   6.419  39.322   6.928
 5704POPC   C4B71578   6.556  39.015   7.213
 5705POPC   NC371579   4.860  41.564   5.374
 5705POPC   PO471580   5.505  41.549   5.388
 5705POPC   GL171581   5.230  41.716   5.710
 5705POPC   GL271582   5.042  41.384   5.816
 5705POPC   C1A71583   5.156  41.737   6.149
 5705POPC   D2A71584   5.067  41.460   6.498
 5705POPC   C3A71585   5.275  41.600   6.828
 5705POPC   C4A71586   5.430  41.747   7.206
 5705POPC   C1B71587   4.758  41.241   6.170
 5705POPC   C2B71588   4.691  41.039   6.594
 5705POPC   C3B71589   4.632  41.213   6.989
 5705POPC   C4B71590   4.976  41.424   7.212
 5706POPC   NC371591  28.219  38.434   5.323
 5706POPC   PO471592  27.638  38.253   5.149
 5706POPC   GL171593  27.620  38.343   5.666
 5706POPC   GL271594  27.307  38.430   5.829
 5706POPC   C1A71595  27.868  38.468   6.083
 5706POPC   D2A71596  27.880  38.535   6.549
 5706POPC   C3A71597  27.926  38.251   6.919
 5706POPC   C4A71598  27.823  38.326   7.343
 5706POPC   C1B71599  27.398  38.607   6.242
 5706POPC   C2B71600  27.226  38.622   6.643
 5706POPC   C3B71601  27.457  38.527   7.041
 5706POPC   C4B71602  27.310  38.283   7.392
 5707POPC   NC371603  24.323  25.542   5.280
 5707POPC   PO471604  24.737  25.043   5.337
 5707POPC   GL171605  24.412  25.062   5.720
 5707POPC   GL271606  24.218  25.407   5.767
 5707POPC   C1A71607  24.323  25.117   6.181
 5707POPC   D2A71608  24.492  25.308   6.556
 5707POPC   C3A71609  24.514  25.136   6.993
 5707POPC   C4A71610  24.786  25.215   7.334
 5707POPC   C1B71611  24.447  25.645   6.118
 5707POPC   C2B71612  24.437  25.811   6.547
 5707POPC   C3B71613  24.348  25.620   6.923
 5707POPC   C4B71614  24.420  25.568   7.326
 5708POPC   NC371615   5.566  38.641   5.365
 5708POPC   PO471616   6.133  38.278   5.243
 5708POPC   GL171617   5.899  38.326   5.667
 5708POPC   GL271618   5.832  38.685   5.796
 5708POPC   C1A71619   5.843  38.328   6.141
 5708POPC   D2A71620   5.764  38.559   6.563
 5708POPC   C3A71621   5.840  38.395   6.982
 5708POPC   C4A71622   5.619  38.332   7.383
 5708POPC   C1B71623   6.058  38.786   6.203
 5708POPC   C2B71624   6.278  38.684   6.614
 5708POPC   C3B71625   6.088  38.910   6.935
 5708POPC   C4B71626   5.827  38.812   7.299
 5709POPC   NC371627  36.871  36.738   5.193
 5709POPC   PO471628  37.420  36.785   5.453
 5709POPC   GL171629  37.063  36.733   5.705
 5709POPC   GL271630  36.715  36.820   5.721
 5709POPC   C1A71631  37.030  36.832   6.152
 5709POPC   D2A71632  37.036  37.062   6.561
 5709POPC   C3A71633  37.114  36.854   6.969
 5709POPC   C4A71634  37.183  37.090   7.321
 5709POPC   C1B71635  36.510  36.998   6.105
 5709POPC   C2B71636  36.491  36.900   6.563
 5709POPC   C3B71637  36.642  37.065   6.956
 5709POPC   C4B71638  36.712  36.932   7.369
 5710POPC   NC371639   1.814   6.887   5.433
 5710POPC   PO471640   2.340   6.436   5.382
 5710POPC   GL171641   2.162   6.661   5.741
 5710POPC   GL271642   1.803   6.532   5.805
 5710POPC   C1A71643   2.045   6.749   6.182
 5710POPC   D2A71644   2.147   6.517   6.558
 5710POPC   C3A71645   1.961   6.714   6.924
 5710POPC   C4A71646   2.161   6.629   7.289
 5710POPC   C1B71647   1.791   6.299   6.221
 5710POPC   C2B71648   1.682   6.328   6.681
 5710POPC   C3B71649   1.805   6.256   7.117
 5710POPC   C4B71650   1.764   6.309   7.576
 5711POPC   NC371651  11.347  33.497   5.158
 5711POPC   PO471652  11.089  34.106   5.215
 5711POPC   GL171653  11.178  33.821   5.608
 5711POPC   GL271654  11.477  33.651   5.700
 5711POPC   C1A71655  11.146  33.743   6.083
 5711POPC   D2A71656  10.935  33.832   6.485
 5711POPC   C3A71657  11.095  33.604   6.836
 5711POPC   C4A71658  11.157  33.706   7.277
 5711POPC   C1B71659  11.583  33.979   5.992
 5711POPC   C2B71660  11.545  33.931   6.454
 5711POPC   C3B71661  11.584  33.787   6.891
 5711POPC   C4B71662  11.612  33.975   7.280
 5712POPC   NC371663   4.392  28.401   5.230
 5712POPC   PO471664   3.851  28.685   5.529
 5712POPC   GL171665   4.057  28.669   5.866
 5712POPC   GL271666   4.351  28.468   5.803
 5712POPC   C1A71667   4.121  28.556   6.267
 5712POPC   D2A71668   4.328  28.627   6.609
 5712POPC   C3A71669   4.356  28.239   6.785
 5712POPC   C4A71670   4.313  28.184   7.212
 5712POPC   C1B71671   4.656  28.489   6.185
 5712POPC   C2B71672   4.822  28.625   6.582
 5712POPC   C3B71673   4.658  28.579   7.016
 5712POPC   C4B71674   4.699  28.410   7.433
 5713POPC   NC371675  40.540  18.131   5.547
 5713POPC   PO471676  41.086  18.543   5.405
 5713POPC   GL171677  40.985  18.284   5.770
 5713POPC   GL271678  40.688  18.442   5.929
 5713POPC   C1A71679  40.959  18.086   6.169
 5713POPC   D2A71680  40.888  18.071   6.609
 5713POPC   C3A71681  40.869  18.429   6.898
 5713POPC   C4A71682  41.124  18.533   7.246
 5713POPC   C1B71683  40.453  18.186   6.252
 5713POPC   C2B71684  40.378  18.216   6.679
 5713POPC   C3B71685  40.544  18.070   7.045
 5713POPC   C4B71686  40.687  18.283   7.389
 5714POPC   NC371687  32.813  16.202   5.376
 5714POPC   PO471688  32.771  15.504   5.461
 5714POPC   GL171689  32.744  15.730   5.824
 5714POPC   GL271690  33.045  15.941   5.871
 5714POPC   C1A71691  32.835  15.693   6.272
 5714POPC   D2A71692  32.968  16.010   6.602
 5714POPC   C3A71693  33.007  15.873   7.043
 5714POPC   C4A71694  32.767  15.881   7.408
 5714POPC   C1B71695  33.205  16.262   6.189
 5714POPC   C2B71696  33.278  16.468   6.611
 5714POPC   C3B71697  33.224  16.331   7.075
 5714POPC   C4B71698  33.234  16.246   7.538
 5715POPC   NC371699  24.854   5.329   5.445
 5715POPC   PO471700  24.237   5.043   5.344
 5715POPC   GL171701  24.453   5.018   5.764
 5715POPC   GL271702  24.217   4.751   5.832
 5715POPC   C1A71703  24.616   5.088   6.234
 5715POPC   D2A71704  24.734   5.285   6.689
 5715POPC   C3A71705  24.486   5.186   7.109
 5715POPC   C4A71706  24.291   5.335   7.512
 5715POPC   C1B71707  24.351   4.641   6.208
 5715POPC   C2B71708  24.097   4.702   6.563
 5715POPC   C3B71709  24.187   4.801   6.979
 5715POPC   C4B71710  24.213   4.855   7.414
 5716POPC   NC371711  31.791   0.376   5.264
 5716POPC   PO471712  31.147   0.356   5.379
 5716POPC   GL171713  31.376   0.278   5.779
 5716POPC   GL271714  31.745   0.145   5.740
 5716POPC   C1A71715  31.240   0.431   6.190
 5716POPC   D2A71716  31.400   0.645   6.568
 5716POPC   C3A71717  31.283   0.494   6.973
 5716POPC   C4A71718  31.327   0.388   7.406
 5716POPC   C1B71719  31.690   0.183   6.202
 5716POPC   C2B71720  31.685   0.240   6.653
 5716POPC   C3B71721  31.793   0.559   6.950
 5716POPC   C4B71722  31.838   0.295   7.257
 5717POPC   NC371723  10.207  16.268   5.399
 5717POPC   PO471724   9.675  15.874   5.531
 5717POPC   GL171725   9.907  15.790   5.920
 5717POPC   GL271726  10.035  16.130   5.957
 5717POPC   C1A71727   9.894  15.657   6.390
 5717POPC   D2A71728   9.585  15.751   6.703
 5717POPC   C3A71729   9.755  15.915   7.073
 5717POPC   C4A71730   9.860  15.602   7.381
 5717POPC   C1B71731   9.697  16.121   6.300
 5717POPC   C2B71732   9.596  16.269   6.728
 5717POPC   C3B71733   9.667  16.485   7.117
 5717POPC   C4B71734   9.606  16.384   7.529
 5718POPC   NC371735  10.236  30.959   5.390
 5718POPC   PO471736  10.752  30.560   5.471
 5718POPC   GL171737  10.599  30.845   5.785
 5718POPC   GL271738  10.246  30.744   5.849
 5718POPC   C1A71739  10.684  30.814   6.226
 5718POPC   D2A71740  10.742  30.512   6.558
 5718POPC   C3A71741  10.739  30.636   6.968
 5718POPC   C4A71742  10.750  30.978   7.215
 5718POPC   C1B71743  10.156  30.845   6.262
 5718POPC   C2B71744  10.372  30.949   6.632
 5718POPC   C3B71745  10.275  30.815   7.035
 5718POPC   C4B71746  10.128  30.861   7.421
 5719POPC   NC371747  37.512  39.393   5.485
 5719POPC   PO471748  37.749  40.099   5.545
 5719POPC   GL171749  37.806  39.947   5.960
 5719POPC   GL271750  37.758  39.608   5.897
 5719POPC   C1A71751  37.479  39.893   6.286
 5719POPC   D2A71752  37.433  39.902   6.721
 5719POPC   C3A71753  37.813  39.850   6.933
 5719POPC   C4A71754  37.720  39.971   7.342
 5719POPC   C1B71755  37.733  39.415   6.299
 5719POPC   C2B71756  37.617  39.412   6.736
 5719POPC   C3B71757  37.507  39.547   7.178
 5719POPC   C4B71758  37.576  39.532   7.658
 5720POPC   NC371759  42.748   0.068   5.174
 5720POPC   PO471760  42.223  44.618   5.268
 5720POPC   GL171761  42.470  44.593   5.633
 5720POPC   GL271762  42.183  44.491   5.818
 5720POPC   C1A71763  42.575  44.659   6.108
 5720POPC   D2A71764  42.453  44.878   6.537
 5720POPC   C3A71765  42.313  44.621   6.862
 5720POPC   C4A71766  42.537  44.606   7.255
 5720POPC   C1B71767  42.246  44.309   6.275
 5720POPC   C2B71768  42.156  44.132   6.703
 5720POPC   C3B71769  42.239  44.202   7.188
 5720POPC   C4B71770  42.086  44.562   7.487
 5721POPC   NC371771   1.227  31.912   5.414
 5721POPC   PO471772   1.525  32.562   5.461
 5721POPC   GL171773   1.378  32.253   5.772
 5721POPC   GL271774   1.114  32.310   6.019
 5721POPC   C1A71775   1.508  32.007   6.134
 5721POPC   D2A71776   1.265  32.040   6.503
 5721POPC   C3A71777   1.419  31.995   6.883
 5721POPC   C4A71778   1.314  32.155   7.276
 5721POPC   C1B71779   0.803  32.103   6.286
 5721POPC   C2B71780   0.633  32.128   6.643
 5721POPC   C3B71781   0.893  32.186   6.963
 5721POPC   C4B71782   0.820  32.055   7.358
 5722POPC   NC371783  23.618  22.738   5.329
 5722POPC   PO471784  24.253  22.918   5.164
 5722POPC   GL171785  23.987  22.771   5.649
 5722POPC   GL271786  23.631  22.619   5.807
 5722POPC   C1A71787  23.904  22.965   6.103
 5722POPC   D2A71788  23.589  22.950   6.428
 5722POPC   C3A71789  23.657  23.031   6.887
 5722POPC   C4A71790  23.606  23.274   7.297
 5722POPC   C1B71791  23.778  22.492   6.189
 5722POPC   C2B71792  24.020  22.659   6.539
 5722POPC   C3B71793  24.009  22.647   6.984
 5722POPC   C4B71794  23.723  22.751   7.342
 5723POPC   NC371795  15.192  10.249   5.123
 5723POPC   PO471796  14.882  10.578   5.672
 5723POPC   GL171797  15.046  10.588   6.046
 5723POPC   GL271798  15.347  10.721   5.928
 5723POPC   C1A71799  15.065  10.476   6.461
 5723POPC   D2A71800  14.889  10.677   6.795
 5723POPC   C3A71801  14.845  10.350   7.079
 5723POPC   C4A71802  15.207  10.172   7.285
 5723POPC   C1B71803  15.549  10.491   6.282
 5723POPC   C2B71804  15.768  10.485   6.694
 5723POPC   C3B71805  15.540  10.582   7.090
 5723POPC   C4B71806  15.478  10.791   7.488
 5724POPC   NC371807  43.665  26.600   5.469
 5724POPC   PO471808  44.179  26.951   5.216
 5724POPC   GL171809  44.054  26.880   5.689
 5724POPC   GL271810  44.135  26.543   5.802
 5724POPC   C1A71811  43.800  26.790   6.098
 5724POPC   D2A71812  43.784  26.616   6.517
 5724POPC   C3A71813  43.614  26.884   6.793
 5724POPC   C4A71814  43.615  26.975   7.222
 5724POPC   C1B71815  44.260  26.592   6.267
 5724POPC   C2B71816  44.251  26.515   6.730
 5724POPC   C3B71817  44.015  26.701   7.027
 5724POPC   C4B71818  43.960  26.679   7.474
 5725POPC   NC371819  24.363  19.967   5.482
 5725POPC   PO471820  25.017  19.956   5.479
 5725POPC   GL171821  24.774  20.078   5.833
 5725POPC   GL271822  24.675  19.728   5.881
 5725POPC   C1A71823  24.577  20.031   6.268
 5725POPC   D2A71824  24.269  20.092   6.586
 5725POPC   C3A71825  24.435  20.005   6.996
 5725POPC   C4A71826  24.417  19.672   7.269
 5725POPC   C1B71827  24.550  19.530   6.309
 5725POPC   C2B71828  24.410  19.533   6.759
 5725POPC   C3B71829  24.076  19.371   7.072
 5725POPC   C4B71830  24.019  19.488   7.544
 5726POPC   NC371831  21.402   3.761   5.443
 5726POPC   PO471832  21.417   3.077   5.466
 5726POPC   GL171833  21.264   3.374   5.786
 5726POPC   GL271834  21.584   3.495   5.852
 5726POPC   C1A71835  21.269   3.705   6.150
 5726POPC   D2A71836  21.184   3.827   6.569
 5726POPC   C3A71837  21.350   3.570   6.906
 5726POPC   C4A71838  21.279   3.773   7.287
 5726POPC   C1B71839  21.768   3.797   6.206
 5726POPC   C2B71840  21.754   3.751   6.653
 5726POPC   C3B71841  21.782   3.747   7.117
 5726POPC   C4B71842  21.788   4.103   7.344
 5727POPC   NC371843  40.906  32.857   5.162
 5727POPC   PO471844  40.460  33.136   5.635
 5727POPC   GL171845  40.715  33.021   5.923
 5727POPC   GL271846  41.000  32.979   5.708
 5727POPC   C1A71847  40.696  33.214   6.311
 5727POPC   D2A71848  40.736  33.258   6.732
 5727POPC   C3A71849  40.679  32.931   6.980
 5727POPC   C4A71850  40.525  33.162   7.284
 5727POPC   C1B71851  41.167  33.146   6.123
 5727POPC   C2B71852  41.136  32.974   6.535
 5727POPC   C3B71853  41.168  33.090   6.942
 5727POPC   C4B71854  41.037  32.970   7.349
 5728POPC   NC371855  26.568  36.553   5.478
 5728POPC   PO471856  26.568  37.261   5.302
 5728POPC   GL171857  26.628  37.017   5.732
 5728POPC   GL271858  26.930  36.784   5.788
 5728POPC   C1A71859  26.639  36.797   6.183
 5728POPC   D2A71860  26.963  36.898   6.501
 5728POPC   C3A71861  26.826  37.102   6.894
 5728POPC   C4A71862  26.477  36.938   7.124
 5728POPC   C1B71863  27.039  36.477   6.181
 5728POPC   C2B71864  27.162  36.382   6.609
 5728POPC   C3B71865  27.133  36.687   6.930
 5728POPC   C4B71866  26.961  36.831   7.313
 5729POPC   NC371867  41.982   9.878   5.342
 5729POPC   PO471868  42.655   9.701   5.405
 5729POPC   GL171869  42.686   9.731   5.826
 5729POPC   GL271870  42.475  10.030   5.885
 5729POPC   C1A71871  42.727   9.451   6.187
 5729POPC   D2A71872  42.411   9.388   6.494
 5729POPC   C3A71873  42.552   9.407   6.892
 5729POPC   C4A71874  42.403   9.361   7.306
 5729POPC   C1B71875  42.223   9.736   6.167
 5729POPC   C2B71876  42.010   9.721   6.593
 5729POPC   C3B71877  42.133   9.726   7.045
 5729POPC   C4B71878  42.030   9.968   7.411
 5730POPC   NC371879  33.870  27.882   5.567
 5730POPC   PO471880  34.176  27.335   5.429
 5730POPC   GL171881  33.979  27.456   5.845
 5730POPC   GL271882  34.027  27.798   6.033
 5730POPC   C1A71883  33.963  27.356   6.268
 5730POPC   D2A71884  33.759  27.377   6.614
 5730POPC   C3A71885  33.958  27.622   6.890
 5730POPC   C4A71886  33.854  27.564   7.313
 5730POPC   C1B71887  33.807  27.860   6.413
 5730POPC   C2B71888  33.832  28.123   6.765
 5730POPC   C3B71889  33.757  28.021   7.161
 5730POPC   C4B71890  33.463  27.864   7.461
 5731POPC   NC371891  34.022  40.605   5.468
 5731POPC   PO471892  33.585  41.078   5.623
 5731POPC   GL171893  33.865  40.887   5.884
 5731POPC   GL271894  34.164  41.081   5.787
 5731POPC   C1A71895  33.748  40.813   6.311
 5731POPC   D2A71896  33.595  41.011   6.703
 5731POPC   C3A71897  33.583  40.740   7.054
 5731POPC   C4A71898  33.785  40.420   7.217
 5731POPC   C1B71899  34.281  40.934   6.209
 5731POPC   C2B71900  34.110  41.017   6.612
 5731POPC   C3B71901  34.059  40.903   7.027
 5731POPC   C4B71902  34.128  41.126   7.375
 5732POPC   NC371903   9.353  16.832   5.091
 5732POPC   PO471904   8.863  16.414   5.397
 5732POPC   GL171905   8.859  16.665   5.784
 5732POPC   GL271906   8.670  16.964   5.829
 5732POPC   C1A71907   9.084  16.760   6.141
 5732POPC   D2A71908   9.240  16.511   6.466
 5732POPC   C3A71909   9.189  16.587   6.909
 5732POPC   C4A71910   9.262  16.725   7.321
 5732POPC   C1B71911   8.583  16.829   6.243
 5732POPC   C2B71912   8.612  17.048   6.616
 5732POPC   C3B71913   8.525  16.923   7.040
 5732POPC   C4B71914   8.757  16.642   7.221
 5733POPC   NC371915  20.560  13.975   5.341
 5733POPC   PO471916  20.729  14.631   5.378
 5733POPC   GL171917  20.550  14.376   5.692
 5733POPC   GL271918  20.833  14.249   5.771
 5733POPC   C1A71919  20.394  14.216   6.094
 5733POPC   D2A71920  20.354  14.490   6.439
 5733POPC   C3A71921  20.475  14.379   6.852
 5733POPC   C4A71922  20.585  14.693   7.113
 5733POPC   C1B71923  20.774  14.567   6.126
 5733POPC   C2B71924  20.861  14.623   6.575
 5733POPC   C3B71925  21.000  14.390   6.946
 5733POPC   C4B71926  20.752  14.243   7.286
 5734POPC   NC371927  22.155   7.221   5.109
 5734POPC   PO471928  22.327   7.809   5.333
 5734POPC   GL171929  22.175   7.517   5.650
 5734POPC   GL271930  22.342   7.193   5.677
 5734POPC   C1A71931  22.027   7.358   6.066
 5734POPC   D2A71932  22.143   7.237   6.482
 5734POPC   C3A71933  21.849   7.443   6.796
 5734POPC   C4A71934  21.938   7.392   7.215
 5734POPC   C1B71935  22.585   7.171   6.092
 5734POPC   C2B71936  22.729   7.122   6.528
 5734POPC   C3B71937  22.459   7.206   6.896
 5734POPC   C4B71938  22.352   6.940   7.263
 5735POPC   NC371939  35.733  22.790   5.337
 5735POPC   PO471940  35.318  23.256   5.366
 5735POPC   GL171941  35.384  22.963   5.704
 5735POPC   GL271942  35.364  23.201   5.941
 5735POPC   C1A71943  35.277  22.762   6.131
 5735POPC   D2A71944  35.478  22.697   6.485
 5735POPC   C3A71945  35.340  22.841   6.838
 5735POPC   C4A71946  35.426  22.778   7.250
 5735POPC   C1B71947  35.369  23.207   6.406
 5735POPC   C2B71948  35.230  23.347   6.805
 5735POPC   C3B71949  35.415  23.290   7.191
 5735POPC   C4B71950  35.242  23.207   7.624
 5736POPC   NC371951  44.756   7.795   5.097
 5736POPC   PO471952  44.667   8.209   5.657
 5736POPC   GL171953  44.703   8.492   5.974
 5736POPC   GL271954   0.052   8.373   5.989
 5736POPC   C1A71955  44.501   8.373   6.378
 5736POPC   D2A71956  44.470   7.988   6.623
 5736POPC   C3A71957  44.558   8.046   7.056
 5736POPC   C4A71958  44.414   8.224   7.414
 5736POPC   C1B71959   0.024   8.423   6.394
 5736POPC   C2B71960  44.828   8.396   6.789
 5736POPC   C3B71961  44.716   8.581   7.178
 5736POPC   C4B71962  44.840   8.489   7.607
 5737POPC   NC371963  28.776  20.665   5.378
 5737POPC   PO471964  29.438  20.827   5.277
 5737POPC   GL171965  29.333  20.728   5.739
 5737POPC   GL271966  29.047  20.497   5.807
 5737POPC   C1A71967  29.448  20.520   6.155
 5737POPC   D2A71968  29.423  20.274   6.560
 5737POPC   C3A71969  29.465  20.519   6.955
 5737POPC   C4A71970  29.383  20.461   7.388
 5737POPC   C1B71971  28.952  20.589   6.249
 5737POPC   C2B71972  29.174  20.750   6.604
 5737POPC   C3B71973  29.033  20.817   7.031
 5737POPC   C4B71974  28.750  20.527   7.221
 5738POPC   NC371975  43.709   9.256   5.594
 5738POPC   PO471976  44.199   9.732   5.470
 5738POPC   GL171977  43.817   9.731   5.791
 5738POPC   GL271978  43.582  10.006   5.856
 5738POPC   C1A71979  43.705   9.642   6.238
 5738POPC   D2A71980  44.012   9.557   6.577
 5738POPC   C3A71981  43.912   9.496   7.015
 5738POPC   C4A71982  43.540   9.550   7.243
 5738POPC   C1B71983  43.894  10.207   6.124
 5738POPC   C2B71984  44.104  10.209   6.501
 5738POPC   C3B71985  43.970   9.995   6.847
 5738POPC   C4B71986  43.796   9.997   7.244
 5739POPC   NC371987  28.414  34.293   5.386
 5739POPC   PO471988  28.862  34.789   5.488
 5739POPC   GL171989  28.541  34.674   5.821
 5739POPC   GL271990  28.346  34.335   5.882
 5739POPC   C1A71991  28.217  34.762   6.149
 5739POPC   D2A71992  27.968  34.661   6.533
 5739POPC   C3A71993  28.139  34.850   6.911
 5739POPC   C4A71994  28.400  34.818   7.286
 5739POPC   C1B71995  28.680  34.331   6.176
 5739POPC   C2B71996  28.691  34.522   6.569
 5739POPC   C3B71997  28.474  34.434   6.975
 5739POPC   C4B71998  28.027  34.428   7.178
 5740POPC   NC371999   7.698  37.359   5.429
 5740POPC   PO472000   8.426  37.535   5.528
 5740POPC   GL172001   8.131  37.460   5.832
 5740POPC   GL272002   8.138  37.126   5.884
 5740POPC   C1A72003   8.012  37.570   6.263
 5740POPC   D2A72004   7.890  37.678   6.676
 5740POPC   C3A72005   8.237  37.822   6.913
 5740POPC   C4A72006   8.392  38.044   7.265
 5740POPC   C1B72007   8.420  37.262   6.249
 5740POPC   C2B72008   8.295  37.351   6.680
 5740POPC   C3B72009   8.034  37.303   7.014
 5740POPC   C4B72010   8.130  37.243   7.424
 5741POPC   NC372011  40.911  35.968   5.550
 5741POPC   PO472012  40.248  36.338   5.430
 5741POPC   GL172013  40.469  36.159   5.767
 5741POPC   GL272014  40.737  36.408   5.838
 5741POPC   C1A72015  40.564  36.070   6.210
 5741POPC   D2A72016  40.458  35.789   6.550
 5741POPC   C3A72017  40.747  35.808   6.884
 5741POPC   C4A72018  40.703  36.206   7.094
 5741POPC   C1B72019  41.003  36.395   6.224
 5741POPC   C2B72020  40.992  36.254   6.662
 5741POPC   C3B72021  41.124  36.461   7.050
 5741POPC   C4B72022  41.101  36.369   7.485
 5742POPC   NC372023  19.375  38.020   5.397
 5742POPC   PO472024  19.937  38.293   5.229
 5742POPC   GL172025  19.884  38.370   5.688
 5742POPC   GL272026  19.847  38.009   5.760
 5742POPC   C1A72027  19.767  38.676   6.043
 5742POPC   D2A72028  19.858  38.820   6.469
 5742POPC   C3A72029  19.718  38.501   6.757
 5742POPC   C4A72030  19.741  38.477   7.197
 5742POPC   C1B72031  20.101  38.104   6.132
 5742POPC   C2B72032  20.152  38.299   6.523
 5742POPC   C3B72033  20.092  38.185   6.948
 5742POPC   C4B72034  20.264  37.931   7.228
 5743POPC   NC372035  13.714  25.549   5.386
 5743POPC   PO472036  13.391  24.960   5.550
 5743POPC   GL172037  13.630  25.227   5.822
 5743POPC   GL272038  13.459  25.572   5.829
 5743POPC   C1A72039  13.778  25.002   6.189
 5743POPC   D2A72040  13.552  24.993   6.550
 5743POPC   C3A72041  13.731  25.127   6.907
 5743POPC   C4A72042  13.502  24.980   7.237
 5743POPC   C1B72043  13.437  25.458   6.275
 5743POPC   C2B72044  13.347  25.638   6.696
 5743POPC   C3B72045  13.446  25.497   7.128
 5743POPC   C4B72046  13.786  25.507   7.370
 5744POPC   NC372047  16.400  13.515   5.509
 5744POPC   PO472048  15.714  13.597   5.535
 5744POPC   GL172049  15.943  13.496   5.886
 5744POPC   GL272050  16.071  13.173   5.801
 5744POPC   C1A72051  15.872  13.489   6.332
 5744POPC   D2A72052  15.659  13.492   6.721
 5744POPC   C3A72053  15.779  13.804   7.000
 5744POPC   C4A72054  16.157  13.944   7.153
 5744POPC   C1B72055  16.341  13.317   6.156
 5744POPC   C2B72056  16.259  13.260   6.592
 5744POPC   C3B72057  16.188  13.440   6.979
 5744POPC   C4B72058  16.329  13.254   7.375
 5745POPC   NC372059  18.080  32.677   5.540
 5745POPC   PO472060  18.477  33.140   5.422
 5745POPC   GL172061  18.477  32.982   5.807
 5745POPC   GL272062  18.316  33.201   6.066
 5745POPC   C1A72063  18.446  32.708   6.147
 5745POPC   D2A72064  18.183  32.868   6.485
 5745POPC   C3A72065  18.110  32.720   6.900
 5745POPC   C4A72066  18.261  32.917   7.268
 5745POPC   C1B72067  17.892  33.274   6.260
 5745POPC   C2B72068  17.809  33.482   6.671
 5745POPC   C3B72069  17.999  33.311   7.073
 5745POPC   C4B72070  17.998  33.304   7.533
 5746POPC   NC372071  19.350   5.831   5.152
 5746POPC   PO472072  20.001   5.823   5.361
 5746POPC   GL172073  19.828   5.876   5.790
 5746POPC   GL272074  19.620   6.133   5.862
 5746POPC   C1A72075  19.989   5.974   6.220
 5746POPC   D2A72076  19.854   5.988   6.652
 5746POPC   C3A72077  20.111   6.051   7.007
 5746POPC   C4A72078  19.998   5.931   7.418
 5746POPC   C1B72079  19.470   5.995   6.281
 5746POPC   C2B72080  19.369   6.153   6.718
 5746POPC   C3B72081  19.556   6.020   7.130
 5746POPC   C4B72082  19.577   6.120   7.593
 5747POPC   NC372083   1.914  30.754   5.440
 5747POPC   PO472084   2.529  30.556   5.487
 5747POPC   GL172085   2.260  30.528   5.817
 5747POPC   GL272086   2.220  30.871   5.837
 5747POPC   C1A72087   2.371  30.614   6.265
 5747POPC   D2A72088   2.432  30.931   6.620
 5747POPC   C3A72089   2.237  30.713   6.985
 5747POPC   C4A72090   2.238  30.275   7.088
 5747POPC   C1B72091   1.895  30.742   6.138
 5747POPC   C2B72092   1.944  30.727   6.560
 5747POPC   C3B72093   1.752  30.859   6.932
 5747POPC   C4B72094   1.863  30.973   7.318
 5748POPC   NC372095  33.651  36.719   5.393
 5748POPC   PO472096  34.310  36.885   5.378
 5748POPC   GL172097  34.042  36.788   5.752
 5748POPC   GL272098  33.688  36.907   5.858
 5748POPC   C1A72099  34.010  36.777   6.225
 5748POPC   D2A72100  33.710  36.911   6.521
 5748POPC   C3A72101  33.832  36.841   6.892
 5748POPC   C4A72102  33.817  36.536   7.199
 5748POPC   C1B72103  33.641  37.244   6.144
 5748POPC   C2B72104  33.768  37.423   6.536
 5748POPC   C3B72105  33.535  37.280   6.894
 5748POPC   C4B72106  33.545  37.016   7.260
 5749POPC   NC372107  23.417  32.567   5.310
 5749POPC   PO472108  23.904  31.998   5.427
 5749POPC   GL172109  23.899  32.180   5.814
 5749POPC   GL272110  23.577  32.322   5.794
 5749POPC   C1A72111  23.779  32.068   6.223
 5749POPC   D2A72112  23.814  32.256   6.637
 5749POPC   C3A72113  23.982  32.212   7.065
 5749POPC   C4A72114  23.776  32.187   7.470
 5749POPC   C1B72115  23.601  32.546   6.223
 5749POPC   C2B72116  23.387  32.525   6.656
 5749POPC   C3B72117  23.281  32.694   7.093
 5749POPC   C4B72118  23.454  32.598   7.530
 5750POPC   NC372119  29.376  21.280   5.345
 5750POPC   PO472120  28.695  21.196   5.472
 5750POPC   GL172121  28.950  21.139   5.832
 5750POPC   GL272122  29.273  21.242   5.838
 5750POPC   C1A72123  28.980  21.411   6.206
 5750POPC   D2A72124  28.997  21.222   6.595
 5750POPC   C3A72125  28.900  21.390   6.957
 5750POPC   C4A72126  29.148  21.625   7.214
 5750POPC   C1B72127  29.387  21.057   6.223
 5750POPC   C2B72128  29.507  21.274   6.585
 5750POPC   C3B72129  29.384  21.213   6.993
 5750POPC   C4B72130  29.620  21.433   7.267
 5751POPC   NC372131  35.709   6.372   5.333
 5751POPC   PO472132  35.175   6.905   5.383
 5751POPC   GL172133  35.167   6.754   5.785
 5751POPC   GL272134  35.527   6.726   5.813
 5751POPC   C1A72135  35.202   6.774   6.230
 5751POPC   D2A72136  35.435   6.824   6.594
 5751POPC   C3A72137  35.165   6.819   6.907
 5751POPC   C4A72138  35.038   6.725   7.308
 5751POPC   C1B72139  35.502   6.309   6.051
 5751POPC   C2B72140  35.390   6.139   6.469
 5751POPC   C3B72141  35.341   6.328   6.867
 5751POPC   C4B72142  35.227   6.242   7.302
 5752POPC   NC372143   2.954  17.710   5.209
 5752POPC   PO472144   2.397  17.365   5.426
 5752POPC   GL172145   2.657  17.568   5.752
 5752POPC   GL272146   3.019  17.609   5.703
 5752POPC   C1A72147   2.841  17.412   6.158
 5752POPC   D2A72148   2.720  17.554   6.564
 5752POPC   C3A72149   2.778  17.433   6.987
 5752POPC   C4A72150   2.651  17.793   7.246
 5752POPC   C1B72151   3.049  17.868   6.068
 5752POPC   C2B72152   3.209  17.727   6.478
 5752POPC   C3B72153   3.055  17.843   6.888
 5752POPC   C4B72154   3.166  17.719   7.299
 5753POPC   NC372155  11.858  15.477   5.518
 5753POPC   PO472156  11.914  14.814   5.259
 5753POPC   GL172157  12.028  15.011   5.750
 5753POPC   GL272158  12.189  15.312   5.903
 5753POPC   C1A72159  12.185  14.952   6.230
 5753POPC   D2A72160  12.146  15.120   6.642
 5753POPC   C3A72161  11.871  15.101   6.984
 5753POPC   C4A72162  12.010  14.946   7.386
 5753POPC   C1B72163  12.276  15.510   6.329
 5753POPC   C2B72164  12.467  15.482   6.761
 5753POPC   C3B72165  12.243  15.418   7.192
 5753POPC   C4B72166  12.291  15.712   7.548
 5754POPC   NC372167  32.956  13.285   5.383
 5754POPC   PO472168  33.344  13.968   5.336
 5754POPC   GL172169  33.105  13.738   5.666
 5754POPC   GL272170  33.321  13.447   5.736
 5754POPC   C1A72171  32.900  13.534   6.053
 5754POPC   D2A72172  32.979  13.453   6.507
 5754POPC   C3A72173  32.689  13.525   6.846
 5754POPC   C4A72174  32.777  13.484   7.282
 5754POPC   C1B72175  33.408  13.331   6.184
 5754POPC   C2B72176  33.406  13.216   6.635
 5754POPC   C3B72177  33.195  13.321   7.032
 5754POPC   C4B72178  33.224  13.295   7.517
 5755POPC   NC372179  15.401  16.658   5.478
 5755POPC   PO472180  14.784  16.961   5.617
 5755POPC   GL172181  15.122  16.843   5.892
 5755POPC   GL272182  15.118  16.444   5.852
 5755POPC   C1A72183  15.268  17.003   6.318
 5755POPC   D2A72184  15.090  16.939   6.745
 5755POPC   C3A72185  15.265  16.995   7.154
 5755POPC   C4A72186  15.452  16.889   7.532
 5755POPC   C1B72187  15.434  16.523   6.167
 5755POPC   C2B72188  15.444  16.596   6.616
 5755POPC   C3B72189  15.222  16.491   7.007
 5755POPC   C4B72190  15.399  16.409   7.414
 5756POPC   NC372191  19.238   4.900   5.515
 5756POPC   PO472192  19.324   5.373   5.127
 5756POPC   GL172193  19.054   5.356   5.608
 5756POPC   GL272194  18.805   5.069   5.765
 5756POPC   C1A72195  19.130   5.282   6.098
 5756POPC   D2A72196  19.252   4.986   6.482
 5756POPC   C3A72197  19.222   5.162   6.902
 5756POPC   C4A72198  19.371   5.442   7.228
 5756POPC   C1B72199  18.883   4.821   6.172
 5756POPC   C2B72200  18.883   4.615   6.609
 5756POPC   C3B72201  18.810   4.693   7.032
 5756POPC   C4B72202  18.688   4.787   7.464
 5757POPC   NC372203  37.186  41.854   5.401
 5757POPC   PO472204  37.026  41.199   5.122
 5757POPC   GL172205  37.018  41.321   5.590
 5757POPC   GL272206  36.701  41.474   5.703
 5757POPC   C1A72207  37.049  41.386   6.077
 5757POPC   D2A72208  37.208  41.345   6.507
 5757POPC   C3A72209  37.034  41.512   6.900
 5757POPC   C4A72210  36.779  41.256   7.191
 5757POPC   C1B72211  36.681  41.727   6.129
 5757POPC   C2B72212  36.668  41.547   6.539
 5757POPC   C3B72213  36.543  41.665   6.944
 5757POPC   C4B72214  36.515  41.676   7.361
 5758POPC   NC372215  32.311   0.723   5.329
 5758POPC   PO472216  32.390   0.090   5.583
 5758POPC   GL172217  32.373   0.473   5.792
 5758POPC   GL272218  32.208   0.287   6.051
 5758POPC   C1A72219  32.341   0.746   6.166
 5758POPC   D2A72220  32.083   0.572   6.500
 5758POPC   C3A72221  32.280   0.405   6.863
 5758POPC   C4A72222  32.248   0.612   7.262
 5758POPC   C1B72223  32.545  44.968   6.199
 5758POPC   C2B72224  32.765  44.936   6.594
 5758POPC   C3B72225  32.644  44.993   7.000
 5758POPC   C4B72226  32.319   0.116   7.285
 5759POPC   NC372227  19.421  32.383   5.479
 5759POPC   PO472228  18.883  31.970   5.336
 5759POPC   GL172229  19.038  32.168   5.725
 5759POPC   GL272230  19.284  31.925   5.796
 5759POPC   C1A72231  18.885  32.402   6.109
 5759POPC   D2A72232  18.933  32.236   6.532
 5759POPC   C3A72233  18.820  32.444   6.940
 5759POPC   C4A72234  18.915  32.308   7.359
 5759POPC   C1B72235  19.345  32.168   6.165
 5759POPC   C2B72236  19.444  32.098   6.589
 5759POPC   C3B72237  19.268  32.165   6.992
 5759POPC   C4B72238  19.306  31.992   7.400
 5760POPC   NC372239  11.153  37.572   5.125
 5760POPC   PO472240  11.457  38.135   5.221
 5760POPC   GL172241  11.307  38.046   5.704
 5760POPC   GL272242  11.276  37.689   5.816
 5760POPC   C1A72243  11.256  38.018   6.181
 5760POPC   D2A72244  11.439  37.812   6.538
 5760POPC   C3A72245  11.436  38.036   6.927
 5760POPC   C4A72246  11.090  38.063   7.194
 5760POPC   C1B72247  11.286  37.440   6.208
 5760POPC   C2B72248  11.364  37.300   6.669
 5760POPC   C3B72249  11.386  37.415   7.125
 5760POPC   C4B72250  11.197  37.286   7.523
 5761POPC   NC372251  44.928  10.330   5.412
 5761POPC   PO472252  44.305  10.427   5.548
 5761POPC   GL172253  44.560  10.616   5.839
 5761POPC   GL272254  44.341  10.443   6.054
 5761POPC   C1A72255  44.827  10.683   6.223
 5761POPC   D2A72256  44.964  10.401   6.605
 5761POPC   C3A72257  44.993  10.604   7.008
 5761POPC   C4A72258  44.845  10.794   7.384
 5761POPC   C1B72259  44.581  10.251   6.317
 5761POPC   C2B72260  44.491  10.581   6.615
 5761POPC   C3B72261  44.485  10.548   7.019
 5761POPC   C4B72262  44.209  10.284   7.184
 5762POPC   NC372263   2.691   3.931   5.386
 5762POPC   PO472264   3.057   4.482   5.230
 5762POPC   GL172265   2.875   4.507   5.667
 5762POPC   GL272266   2.618   4.771   5.689
 5762POPC   C1A72267   2.681   4.286   6.044
 5762POPC   D2A72268   2.897   4.079   6.403
 5762POPC   C3A72269   2.868   4.134   6.843
 5762POPC   C4A72270   2.975   4.102   7.264
 5762POPC   C1B72271   2.791   4.793   6.101
 5762POPC   C2B72272   2.644   4.590   6.461
 5762POPC   C3B72273   2.664   4.597   6.875
 5762POPC   C4B72274   2.693   4.517   7.291
 5763POPC   NC372275   1.365  11.582   5.521
 5763POPC   PO472276   1.162  10.986   5.154
 5763POPC   GL172277   1.257  11.082   5.656
 5763POPC   GL272278   1.002  11.348   5.773
 5763POPC   C1A72279   1.196  11.113   6.174
 5763POPC   D2A72280   1.001  11.335   6.557
 5763POPC   C3A72281   1.173  11.198   6.933
 5763POPC   C4A72282   1.591  11.270   7.111
 5763POPC   C1B72283   1.144  11.619   6.145
 5763POPC   C2B72284   1.401  11.632   6.510
 5763POPC   C3B72285   1.296  11.691   6.906
 5763POPC   C4B72286   0.850  11.629   7.003
 5764POPC   NC372287  27.617  14.137   5.475
 5764POPC   PO472288  27.195  14.608   5.364
 5764POPC   GL172289  27.424  14.503   5.766
 5764POPC   GL272290  27.810  14.545   5.811
 5764POPC   C1A72291  27.403  14.262   6.153
 5764POPC   D2A72292  27.499  14.485   6.496
 5764POPC   C3A72293  27.466  14.335   6.878
 5764POPC   C4A72294  27.459  14.659   7.147
 5764POPC   C1B72295  27.912  14.311   6.223
 5764POPC   C2B72296  27.949  14.287   6.695
 5764POPC   C3B72297  27.942  14.450   7.129
 5764POPC   C4B72298  27.898  14.245   7.547
 5765POPC   NC372299  23.974  43.533   5.427
 5765POPC   PO472300  23.490  44.033   5.417
 5765POPC   GL172301  23.648  43.789   5.746
 5765POPC   GL272302  23.963  43.938   5.784
 5765POPC   C1A72303  23.813  43.603   6.133
 5765POPC   D2A72304  23.787  43.801   6.526
 5765POPC   C3A72305  23.862  43.611   6.909
 5765POPC   C4A72306  23.820  43.729   7.323
 5765POPC   C1B72307  23.955  44.169   6.163
 5765POPC   C2B72308  24.063  44.223   6.590
 5765POPC   C3B72309  23.849  44.148   6.981
 5765POPC   C4B72310  24.085  44.152   7.364
 5766POPC   NC372311   5.109  44.254   5.427
 5766POPC   PO472312   5.204  43.581   5.396
 5766POPC   GL172313   5.219  43.816   5.793
 5766POPC   GL272314   5.121  44.133   5.920
 5766POPC   C1A72315   5.277  43.773   6.239
 5766POPC   D2A72316   5.020  44.027   6.517
 5766POPC   C3A72317   5.117  43.972   6.944
 5766POPC   C4A72318   4.932  44.015   7.327
 5766POPC   C1B72319   4.781  44.350   6.156
 5766POPC   C2B72320   4.812  44.562   6.566
 5766POPC   C3B72321   4.850  44.405   6.991
 5766POPC   C4B72322   4.817  44.489   7.487
 5767POPC   NC372323  25.955   9.080   5.381
 5767POPC   PO472324  25.444   8.636   5.333
 5767POPC   GL172325  25.704   8.691   5.768
 5767POPC   GL272326  26.005   8.881   5.872
 5767POPC   C1A72327  25.853   8.516   6.189
 5767POPC   D2A72328  25.941   8.762   6.527
 5767POPC   C3A72329  26.033   8.682   6.965
 5767POPC   C4A72330  26.052   9.021   7.277
 5767POPC   C1B72331  26.305   8.963   6.241
 5767POPC   C2B72332  26.422   8.871   6.687
 5767POPC   C3B72333  26.569   8.999   7.093
 5767POPC   C4B72334  26.467   9.071   7.543
 5768POPC   NC372335  35.398  43.473   5.411
 5768POPC   PO472336  35.522  42.778   5.384
 5768POPC   GL172337  35.408  43.040   5.696
 5768POPC   GL272338  35.677  43.248   5.775
 5768POPC   C1A72339  35.288  43.094   6.108
 5768POPC   D2A72340  35.285  42.796   6.423
 5768POPC   C3A72341  35.090  42.953   6.781
 5768POPC   C4A72342  35.003  42.724   7.136
 5768POPC   C1B72343  35.766  43.354   6.195
 5768POPC   C2B72344  35.569  43.183   6.547
 5768POPC   C3B72345  35.581  43.066   6.945
 5768POPC   C4B72346  35.622  43.329   7.302
 5769POPC   NC372347  42.622  26.102   4.842
 5769POPC   PO472348  42.327  26.089   5.472
 5769POPC   GL172349  42.411  25.951   5.836
 5769POPC   GL272350  42.426  26.270   6.010
 5769POPC   C1A72351  42.222  25.841   6.215
 5769POPC   D2A72352  42.085  26.013   6.585
 5769POPC   C3A72353  42.271  25.793   6.872
 5769POPC   C4A72354  42.063  25.727   7.212
 5769POPC   C1B72355  42.427  26.489   6.407
 5769POPC   C2B72356  42.385  26.380   6.838
 5769POPC   C3B72357  42.311  26.187   7.233
 5769POPC   C4B72358  42.349  26.345   7.689
 5770POPC   NC372359   8.507  15.760   5.304
 5770POPC   PO472360   7.951  16.005   5.382
 5770POPC   GL172361   8.204  16.016   5.731
 5770POPC   GL272362   8.220  15.677   5.758
 5770POPC   C1A72363   8.369  16.040   6.145
 5770POPC   D2A72364   8.417  16.143   6.572
 5770POPC   C3A72365   8.607  15.782   6.777
 5770POPC   C4A72366   8.665  15.694   7.190
 5770POPC   C1B72367   7.986  15.724   6.151
 5770POPC   C2B72368   8.155  15.700   6.529
 5770POPC   C3B72369   8.099  15.882   6.896
 5770POPC   C4B72370   8.084  15.733   7.266
 5771POPC   NC372371   2.734   8.418   5.192
 5771POPC   PO472372   2.511   8.077   5.712
 5771POPC   GL172373   2.605   8.178   6.120
 5771POPC   GL272374   2.841   8.476   6.198
 5771POPC   C1A72375   2.486   8.272   6.521
 5771POPC   D2A72376   2.849   8.373   6.721
 5771POPC   C3A72377   2.921   8.038   6.997
 5771POPC   C4A72378   2.599   8.282   7.185
 5771POPC   C1B72379   3.194   8.223   6.347
 5771POPC   C2B72380   3.346   8.263   6.776
 5771POPC   C3B72381   3.138   8.465   7.154
 5771POPC   C4B72382   3.083   8.195   7.506
 5772POPC   NC372383   5.848  23.993   5.103
 5772POPC   PO472384   5.990  23.436   5.505
 5772POPC   GL172385   5.756  23.617   5.871
 5772POPC   GL272386   5.469  23.477   6.071
 5772POPC   C1A72387   5.815  23.867   6.235
 5772POPC   D2A72388   5.728  23.999   6.647
 5772POPC   C3A72389   6.011  23.841   6.934
 5772POPC   C4A72390   6.074  23.879   7.344
 5772POPC   C1B72391   5.807  23.366   6.353
 5772POPC   C2B72392   6.164  23.538   6.557
 5772POPC   C3B72393   6.195  23.355   6.958
 5772POPC   C4B72394   6.231  23.403   7.464
 5773POPC   NC372395  11.933  11.244   5.100
 5773POPC   PO472396  11.819  11.651   5.669
 5773POPC   GL172397  12.064  11.407   5.931
 5773POPC   GL272398  11.976  11.074   5.809
 5773POPC   C1A72399  12.412  11.461   6.255
 5773POPC   D2A72400  12.579  11.539   6.700
 5773POPC   C3A72401  12.268  11.614   7.018
 5773POPC   C4A72402  11.942  11.428   7.239
 5773POPC   C1B72403  12.206  10.989   6.221
 5773POPC   C2B72404  12.361  10.915   6.664
 5773POPC   C3B72405  12.319  11.066   7.086
 5773POPC   C4B72406  11.980  10.927   7.327
 5774POPC   NC372407  38.755  37.177   5.688
 5774POPC   PO472408  38.314  36.749   5.475
 5774POPC   GL172409  38.314  36.938   5.866
 5774POPC   GL272410  38.270  37.305   5.806
 5774POPC   C1A72411  38.598  36.880   6.270
 5774POPC   D2A72412  38.797  36.615   6.618
 5774POPC   C3A72413  38.620  36.722   7.046
 5774POPC   C4A72414  38.336  36.870   7.404
 5774POPC   C1B72415  38.239  37.248   6.261
 5774POPC   C2B72416  38.182  36.967   6.627
 5774POPC   C3B72417  38.068  37.115   7.022
 5774POPC   C4B72418  38.033  37.318   7.393
 5775POPC   NC372419  33.963   2.459   5.548
 5775POPC   PO472420  33.704   1.894   5.259
 5775POPC   GL172421  33.508   2.010   5.700
 5775POPC   GL272422  33.690   2.205   5.918
 5775POPC   C1A72423  33.373   1.801   6.128
 5775POPC   D2A72424  33.290   1.889   6.591
 5775POPC   C3A72425  33.556   1.967   6.942
 5775POPC   C4A72426  33.640   1.656   7.261
 5775POPC   C1B72427  33.692   2.116   6.348
 5775POPC   C2B72428  33.966   2.190   6.650
 5775POPC   C3B72429  33.919   2.339   7.022
 5775POPC   C4B72430  33.865   2.104   7.394
 5776POPC   NC372431  15.836  39.540   5.106
 5776POPC   PO472432  16.287  39.309   5.578
 5776POPC   GL172433  16.096  39.231   5.934
 5776POPC   GL272434  15.784  39.211   5.778
 5776POPC   C1A72435  15.863  39.394   6.274
 5776POPC   D2A72436  15.684  39.498   6.647
 5776POPC   C3A72437  16.058  39.532   6.909
 5776POPC   C4A72438  16.112  39.269   7.264
 5776POPC   C1B72439  15.689  38.949   6.126
 5776POPC   C2B72440  15.832  38.893   6.538
 5776POPC   C3B72441  15.777  39.067   6.918
 5776POPC   C4B72442  15.785  38.887   7.292
 5777POPC   NC372443   4.120   4.017   5.503
 5777POPC   PO472444   4.542   4.511   5.460
 5777POPC   GL172445   4.282   4.435   5.786
 5777POPC   GL272446   4.414   4.096   5.921
 5777POPC   C1A72447   4.071   4.380   6.165
 5777POPC   D2A72448   4.078   4.467   6.582
 5777POPC   C3A72449   4.195   4.237   6.914
 5777POPC   C4A72450   4.206   4.380   7.314
 5777POPC   C1B72451   4.589   4.389   6.213
 5777POPC   C2B72452   4.632   4.455   6.673
 5777POPC   C3B72453   4.677   4.308   7.105
 5777POPC   C4B72454   4.645   4.429   7.568
 5778POPC   NC372455  30.185  21.322   5.385
 5778POPC   PO472456  29.592  21.697   5.337
 5778POPC   GL172457  29.740  21.444   5.706
 5778POPC   GL272458  29.715  21.079   5.669
 5778POPC   C1A72459  29.725  21.549   6.170
 5778POPC   D2A72460  30.017  21.767   6.464
 5778POPC   C3A72461  30.049  21.555   6.858
 5778POPC   C4A72462  30.107  21.352   7.281
 5778POPC   C1B72463  29.890  21.059   6.095
 5778POPC   C2B72464  30.028  21.169   6.501
 5778POPC   C3B72465  29.874  21.088   6.910
 5778POPC   C4B72466  29.716  20.864   7.223
 5779POPC   NC372467   4.193  26.691   5.439
 5779POPC   PO472468   4.657  27.166   5.408
 5779POPC   GL172469   4.403  27.043   5.814
 5779POPC   GL272470   4.053  26.863   5.901
 5779POPC   C1A72471   4.367  26.896   6.280
 5779POPC   D2A72472   4.280  26.615   6.642
 5779POPC   C3A72473   4.559  26.759   6.961
 5779POPC   C4A72474   4.556  27.177   7.173
 5779POPC   C1B72475   3.909  26.564   6.254
 5779POPC   C2B72476   3.611  26.555   6.590
 5779POPC   C3B72477   3.852  26.761   6.879
 5779POPC   C4B72478   4.114  26.782   7.218
 5780POPC   NC372479  13.318   6.646   5.508
 5780POPC   PO472480  12.706   6.830   5.284
 5780POPC   GL172481  12.784   6.688   5.758
 5780POPC   GL272482  13.075   6.532   5.925
 5780POPC   C1A72483  12.763   6.757   6.229
 5780POPC   D2A72484  12.510   6.724   6.580
 5780POPC   C3A72485  12.677   6.667   7.001
 5780POPC   C4A72486  12.926   6.926   7.261
 5780POPC   C1B72487  13.097   6.322   6.279
 5780POPC   C2B72488  13.151   6.576   6.605
 5780POPC   C3B72489  13.192   6.548   7.016
 5780POPC   C4B72490  13.048   6.445   7.389
 5781POPC   NC372491  29.362  35.446   5.648
 5781POPC   PO472492  28.885  35.869   5.429
 5781POPC   GL172493  28.781  35.557   5.776
 5781POPC   GL272494  28.952  35.215   5.830
 5781POPC   C1A72495  28.919  35.532   6.222
 5781POPC   D2A72496  29.325  35.625   6.450
 5781POPC   C3A72497  29.306  35.611   6.911
 5781POPC   C4A72498  29.276  35.388   7.300
 5781POPC   C1B72499  29.248  35.146   6.237
 5781POPC   C2B72500  29.159  35.157   6.701
 5781POPC   C3B72501  29.194  34.941   7.112
 5781POPC   C4B72502  29.195  34.992   7.609
 5782POPC   NC372503  42.445  31.817   5.526
 5782POPC   PO472504  42.381  32.394   5.208
 5782POPC   GL172505  42.592  32.281   5.688
 5782POPC   GL272506  42.714  32.005   5.896
 5782POPC   C1A72507  42.489  32.416   6.142
 5782POPC   D2A72508  42.310  32.240   6.524
 5782POPC   C3A72509  42.405  32.134   6.937
 5782POPC   C4A72510  42.129  32.141   7.313
 5782POPC   C1B72511  42.692  31.977   6.324
 5782POPC   C2B72512  42.709  31.745   6.672
 5782POPC   C3B72513  42.698  31.733   7.091
 5782POPC   C4B72514  42.628  32.018   7.395
 5783POPC   NC372515  25.896  24.081   5.392
 5783POPC   PO472516  26.405  24.525   5.233
 5783POPC   GL172517  26.187  24.439   5.666
 5783POPC   GL272518  26.315  24.656   5.881
 5783POPC   C1A72519  26.001  24.361   6.106
 5783POPC   D2A72520  26.066  24.286   6.552
 5783POPC   C3A72521  25.772  24.462   6.834
 5783POPC   C4A72522  25.823  24.386   7.275
 5783POPC   C1B72523  26.405  24.861   6.248
 5783POPC   C2B72524  26.177  24.821   6.611
 5783POPC   C3B72525  26.212  24.635   6.974
 5783POPC   C4B72526  26.150  24.797   7.347
 5784POPC   NC372527  43.220   7.504   5.358
 5784POPC   PO472528  42.602   7.275   5.414
 5784POPC   GL172529  43.010   7.259   5.751
 5784POPC   GL272530  43.318   7.535   5.842
 5784POPC   C1A72531  43.118   7.222   6.192
 5784POPC   D2A72532  42.807   7.115   6.509
 5784POPC   C3A72533  43.006   7.101   6.890
 5784POPC   C4A72534  42.877   7.290   7.269
 5784POPC   C1B72535  43.079   7.738   6.157
 5784POPC   C2B72536  43.239   7.745   6.558
 5784POPC   C3B72537  43.567   7.674   6.878
 5784POPC   C4B72538  43.394   7.350   7.150
 5785POPC   NC372539   2.736   8.488   5.707
 5785POPC   PO472540   2.725   9.171   5.383
 5785POPC   GL172541   2.746   8.998   5.779
 5785POPC   GL272542   2.414   8.901   5.846
 5785POPC   C1A72543   2.766   9.028   6.238
 5785POPC   D2A72544   2.656   8.873   6.654
 5785POPC   C3A72545   2.860   9.108   6.927
 5785POPC   C4A72546   3.201   9.017   7.204
 5785POPC   C1B72547   2.380   8.704   6.263
 5785POPC   C2B72548   2.176   8.681   6.683
 5785POPC   C3B72549   2.347   8.746   7.082
 5785POPC   C4B72550   2.736   8.774   7.283
 5786POPC   NC372551  13.549   6.153   5.352
 5786POPC   PO472552  13.265   5.519   5.440
 5786POPC   GL172553  13.349   5.851   5.752
 5786POPC   GL272554  13.706   5.910   5.780
 5786POPC   C1A72555  13.382   5.869   6.207
 5786POPC   D2A72556  13.656   5.744   6.534
 5786POPC   C3A72557  13.551   5.648   6.933
 5786POPC   C4A72558  13.422   5.656   7.361
 5786POPC   C1B72559  13.916   6.008   6.176
 5786POPC   C2B72560  14.099   5.967   6.576
 5786POPC   C3B72561  13.917   6.042   6.976
 5786POPC   C4B72562  14.115   6.318   7.275
 5787POPC   NC372563  22.532  39.613   5.715
 5787POPC   PO472564  22.157  39.170   5.346
 5787POPC   GL172565  22.337  39.127   5.797
 5787POPC   GL272566  22.041  39.015   5.910
 5787POPC   C1A72567  22.242  39.226   6.305
 5787POPC   D2A72568  22.088  39.545   6.631
 5787POPC   C3A72569  22.206  39.370   7.069
 5787POPC   C4A72570  22.554  39.161   7.270
 5787POPC   C1B72571  21.838  38.896   6.288
 5787POPC   C2B72572  21.878  39.077   6.674
 5787POPC   C3B72573  21.784  38.945   7.050
 5787POPC   C4B72574  22.099  38.909   7.305
 5788POPC   NC372575  17.968   6.560   5.590
 5788POPC   PO472576  18.606   6.627   5.533
 5788POPC   GL172577  18.347   6.716   5.909
 5788POPC   GL272578  18.094   6.978   5.840
 5788POPC   C1A72579  18.068   6.523   6.256
 5788POPC   D2A72580  17.780   6.461   6.604
 5788POPC   C3A72581  18.107   6.452   6.914
 5788POPC   C4A72582  18.347   6.586   7.281
 5788POPC   C1B72583  18.120   7.047   6.260
 5788POPC   C2B72584  17.992   6.925   6.642
 5788POPC   C3B72585  18.178   6.979   6.997
 5788POPC   C4B72586  18.590   7.039   7.188
 5789POPC   NC372587   8.626  28.069   5.489
 5789POPC   PO472588   9.259  28.377   5.611
 5789POPC   GL172589   8.947  28.361   5.887
 5789POPC   GL272590   8.891  28.038   5.906
 5789POPC   C1A72591   8.840  28.447   6.312
 5789POPC   D2A72592   8.945  28.658   6.708
 5789POPC   C3A72593   8.868  28.298   6.969
 5789POPC   C4A72594   8.735  28.294   7.375
 5789POPC   C1B72595   9.166  27.982   6.233
 5789POPC   C2B72596   9.038  27.889   6.640
 5789POPC   C3B72597   9.258  27.937   7.000
 5789POPC   C4B72598   9.167  28.064   7.387
 5790POPC   NC372599  22.387  21.413   5.707
 5790POPC   PO472600  21.811  21.261   5.376
 5790POPC   GL172601  21.930  21.278   5.867
 5790POPC   GL272602  21.978  21.662   5.970
 5790POPC   C1A72603  22.139  21.296   6.304
 5790POPC   D2A72604  22.454  21.324   6.624
 5790POPC   C3A72605  22.281  21.070   6.939
 5790POPC   C4A72606  22.090  21.239   7.288
 5790POPC   C1B72607  22.357  21.875   6.213
 5790POPC   C2B72608  22.452  21.878   6.670
 5790POPC   C3B72609  22.136  21.779   6.994
 5790POPC   C4B72610  22.122  21.736   7.434
 5791POPC   NC372611   8.376  27.391   5.277
 5791POPC   PO472612   8.186  27.962   5.448
 5791POPC   GL172613   8.394  27.683   5.756
 5791POPC   GL272614   8.088  27.509   5.699
 5791POPC   C1A72615   8.358  27.370   6.107
 5791POPC   D2A72616   8.169  27.177   6.484
 5791POPC   C3A72617   8.039  27.432   6.817
 5791POPC   C4A72618   8.321  27.477   7.165
 5791POPC   C1B72619   7.982  27.768   6.061
 5791POPC   C2B72620   7.708  27.772   6.404
 5791POPC   C3B72621   7.786  27.931   6.801
 5791POPC   C4B72622   7.882  27.747   7.183
 5792POPC   NC372623  44.059  18.390   5.394
 5792POPC   PO472624  43.406  18.438   5.660
 5792POPC   GL172625  43.801  18.419   5.835
 5792POPC   GL272626  43.828  18.088   5.771
 5792POPC   C1A72627  43.981  18.414   6.227
 5792POPC   D2A72628  43.764  18.415   6.591
 5792POPC   C3A72629  43.938  18.599   6.943
 5792POPC   C4A72630  43.738  18.544   7.338
 5792POPC   C1B72631  43.601  18.060   6.183
 5792POPC   C2B72632  43.569  17.934   6.610
 5792POPC   C3B72633  43.599  18.128   6.998
 5792POPC   C4B72634  44.002  18.142   7.159
 5793POPC   NC372635  40.109  19.041   5.665
 5793POPC   PO472636  39.388  18.923   5.431
 5793POPC   GL172637  39.636  18.905   5.849
 5793POPC   GL272638  39.711  19.215   6.036
 5793POPC   C1A72639  39.868  18.807   6.256
 5793POPC   D2A72640  40.120  19.166   6.469
 5793POPC   C3A72641  40.025  19.233   6.909
 5793POPC   C4A72642  39.895  18.883   7.172
 5793POPC   C1B72643  39.759  19.539   6.311
 5793POPC   C2B72644  39.586  19.470   6.694
 5793POPC   C3B72645  39.678  19.564   7.098
 5793POPC   C4B72646  39.835  19.330   7.446
 5794POPC   NC372647  11.241   4.329   5.325
 5794POPC   PO472648  11.674   3.923   5.699
 5794POPC   GL172649  11.407   4.217   5.956
 5794POPC   GL272650  11.090   4.449   5.827
 5794POPC   C1A72651  11.448   4.263   6.411
 5794POPC   D2A72652  11.157   4.455   6.650
 5794POPC   C3A72653  11.239   4.569   7.058
 5794POPC   C4A72654  11.371   4.438   7.473
 5794POPC   C1B72655  10.938   4.140   6.138
 5794POPC   C2B72656  11.047   3.969   6.540
 5794POPC   C3B72657  11.282   4.054   6.935
 5794POPC   C4B72658  11.130   3.934   7.342
 5795POPC   NC372659  32.601  11.454   5.464
 5795POPC   PO472660  33.212  11.138   5.385
 5795POPC   GL172661  32.984  11.164   5.749
 5795POPC   GL272662  32.988  11.517   5.838
 5795POPC   C1A72663  32.878  11.105   6.173
 5795POPC   D2A72664  32.970  11.294   6.554
 5795POPC   C3A72665  32.905  10.993   6.886
 5795POPC   C4A72666  33.080  11.170   7.222
 5795POPC   C1B72667  32.704  11.585   6.190
 5795POPC   C2B72668  32.547  11.616   6.626
 5795POPC   C3B72669  32.831  11.560   6.977
 5795POPC   C4B72670  32.879  11.649   7.380
 5796POPC   NC372671  13.733   3.620   5.360
 5796POPC   PO472672  13.191   3.145   5.345
 5796POPC   GL172673  13.421   3.425   5.714
 5796POPC   GL272674  13.829   3.357   5.775
 5796POPC   C1A72675  13.584   3.532   6.161
 5796POPC   D2A72676  13.730   3.545   6.583
 5796POPC   C3A72677  13.445   3.750   6.880
 5796POPC   C4A72678  13.341   3.561   7.289
 5796POPC   C1B72679  14.079   3.415   6.190
 5796POPC   C2B72680  14.092   3.115   6.556
 5796POPC   C3B72681  13.870   3.193   6.945
 5796POPC   C4B72682  13.863   3.605   7.123
 5797POPC   NC372683  21.475  21.630   5.355
 5797POPC   PO472684  20.945  21.275   5.558
 5797POPC   GL172685  21.124  21.497   5.850
 5797POPC   GL272686  21.465  21.470   5.869
 5797POPC   C1A72687  21.130  21.560   6.267
 5797POPC   D2A72688  21.117  21.359   6.628
 5797POPC   C3A72689  21.150  21.512   7.051
 5797POPC   C4A72690  21.281  21.497   7.502
 5797POPC   C1B72691  21.625  21.333   6.308
 5797POPC   C2B72692  21.860  21.394   6.757
 5797POPC   C3B72693  21.698  21.560   7.178
 5797POPC   C4B72694  21.768  21.413   7.650
 5798POPC   NC372695  41.541   7.035   5.265
 5798POPC   PO472696  41.430   7.656   5.231
 5798POPC   GL172697  41.715   7.477   5.624
 5798POPC   GL272698  41.684   7.164   5.736
 5798POPC   C1A72699  41.862   7.383   6.139
 5798POPC   D2A72700  41.652   7.592   6.495
 5798POPC   C3A72701  41.629   7.473   6.950
 5798POPC   C4A72702  41.770   7.135   7.239
 5798POPC   C1B72703  41.370   7.367   6.056
 5798POPC   C2B72704  41.283   7.235   6.511
 5798POPC   C3B72705  41.316   7.074   6.955
 5798POPC   C4B72706  41.280   7.219   7.402
 5799POPC   NC372707  31.672   6.781   5.450
 5799POPC   PO472708  31.014   6.672   5.377
 5799POPC   GL172709  31.261   6.582   5.767
 5799POPC   GL272710  31.636   6.475   5.860
 5799POPC   C1A72711  31.310   6.761   6.175
 5799POPC   D2A72712  31.600   6.734   6.438
 5799POPC   C3A72713  31.437   6.726   6.810
 5799POPC   C4A72714  31.447   6.758   7.206
 5799POPC   C1B72715  31.768   6.276   6.265
 5799POPC   C2B72716  31.622   6.259   6.715
 5799POPC   C3B72717  31.785   6.394   7.140
 5799POPC   C4B72718  31.962   6.567   7.538
 5800POPC   NC372719  41.162  44.280   5.391
 5800POPC   PO472720  41.793  43.971   5.309
 5800POPC   GL172721  41.714  43.792   5.743
 5800POPC   GL272722  41.359  43.658   5.687
 5800POPC   C1A72723  41.561  43.558   6.142
 5800POPC   D2A72724  41.341  43.685   6.517
 5800POPC   C3A72725  41.506  43.512   6.922
 5800POPC   C4A72726  41.681  43.522   7.299
 5800POPC   C1B72727  41.381  44.033   5.996
 5800POPC   C2B72728  41.474  44.169   6.418
 5800POPC   C3B72729  41.575  44.020   6.827
 5800POPC   C4B72730  41.578  44.007   7.246
 5801POPC   NC372731  41.246  28.809   5.640
 5801POPC   PO472732  41.606  28.376   5.300
 5801POPC   GL172733  41.533  28.291   5.743
 5801POPC   GL272734  41.796  28.076   5.904
 5801POPC   C1A72735  41.441  28.266   6.211
 5801POPC   D2A72736  41.685  28.132   6.598
 5801POPC   C3A72737  41.425  28.221   6.977
 5801POPC   C4A72738  41.330  28.585   7.286
 5801POPC   C1B72739  41.917  28.464   6.155
 5801POPC   C2B72740  41.820  28.696   6.556
 5801POPC   C3B72741  41.831  28.534   7.001
 5801POPC   C4B72742  41.749  28.319   7.381
 5802POPC   NC372743   4.911  23.793   5.229
 5802POPC   PO472744   4.240  23.788   5.213
 5802POPC   GL172745   4.412  23.804   5.651
 5802POPC   GL272746   4.116  23.621   5.736
 5802POPC   C1A72747   4.467  23.692   6.126
 5802POPC   D2A72748   4.293  23.756   6.578
 5802POPC   C3A72749   4.542  23.998   6.900
 5802POPC   C4A72750   4.623  23.855   7.359
 5802POPC   C1B72751   3.985  23.486   6.136
 5802POPC   C2B72752   3.843  23.360   6.492
 5802POPC   C3B72753   4.057  23.367   6.850
 5802POPC   C4B72754   4.206  23.672   7.115
 5803POPC   NC372755  17.016  24.070   4.980
 5803POPC   PO472756  16.754  23.428   4.944
 5803POPC   GL172757  16.686  23.603   5.531
 5803POPC   GL272758  16.967  23.641   5.765
 5803POPC   C1A72759  16.538  23.650   6.048
 5803POPC   D2A72760  16.638  23.655   6.547
 5803POPC   C3A72761  16.389  23.746   6.925
 5803POPC   C4A72762  16.573  23.671   7.344
 5803POPC   C1B72763  17.057  23.560   6.230
 5803POPC   C2B72764  17.234  23.567   6.684
 5803POPC   C3B72765  17.064  23.702   7.086
 5803POPC   C4B72766  17.061  23.690   7.537
 5804POPC   NC372767  25.050  44.746   5.445
 5804POPC   PO472768  25.621  44.484   5.578
 5804POPC   GL172769  25.285  44.590   5.880
 5804POPC   GL272770  24.939  44.402   5.816
 5804POPC   C1A72771  25.390  44.773   6.287
 5804POPC   D2A72772  25.739  44.685   6.579
 5804POPC   C3A72773  25.554  44.553   6.972
 5804POPC   C4A72774  25.526  44.691   7.379
 5804POPC   C1B72775  24.910  44.504   6.268
 5804POPC   C2B72776  24.972  44.793   6.623
 5804POPC   C3B72777  25.110  44.854   7.047
 5804POPC   C4B72778  25.054  44.505   7.314
 5805POPC   NC372779  33.333  29.174   5.581
 5805POPC   PO472780  33.918  28.961   5.524
 5805POPC   GL172781  33.662  28.909   5.872
 5805POPC   GL272782  33.494  29.224   6.068
 5805POPC   C1A72783  33.673  28.786   6.267
 5805POPC   D2A72784  33.645  29.045   6.610
 5805POPC   C3A72785  33.915  28.912   6.957
 5805POPC   C4A72786  33.954  28.818   7.422
 5805POPC   C1B72787  33.941  29.252   6.157
 5805POPC   C2B72788  34.054  29.385   6.537
 5805POPC   C3B72789  33.824  29.424   6.899
 5805POPC   C4B72790  33.962  29.319   7.277
 5806POPC   NC372791  38.709   9.735   5.434
 5806POPC   PO472792  39.292   9.730   5.374
 5806POPC   GL172793  39.083   9.753   5.804
 5806POPC   GL272794  38.770   9.538   5.901
 5806POPC   C1A72795  39.256  10.020   6.158
 5806POPC   D2A72796  39.572  10.233   6.438
 5806POPC   C3A72797  39.503  10.056   6.827
 5806POPC   C4A72798  39.310   9.718   7.068
 5806POPC   C1B72799  38.928   9.598   6.333
 5806POPC   C2B72800  38.860   9.791   6.751
 5806POPC   C3B72801  38.845   9.531   7.116
 5806POPC   C4B72802  39.241   9.223   7.164
 5807POPC   NC372803  33.310  16.579   5.533
 5807POPC   PO472804  33.912  16.800   5.368
 5807POPC   GL172805  33.772  16.599   5.735
 5807POPC   GL272806  33.612  16.912   5.799
 5807POPC   C1A72807  33.655  16.524   6.166
 5807POPC   D2A72808  33.836  16.667   6.556
 5807POPC   C3A72809  33.680  16.511   6.942
 5807POPC   C4A72810  33.542  16.619   7.362
 5807POPC   C1B72811  33.627  17.053   6.217
 5807POPC   C2B72812  33.450  17.012   6.615
 5807POPC   C3B72813  33.573  17.025   7.024
 5807POPC   C4B72814  33.342  17.086   7.404
 5808POPC   NC372815  20.250  40.214   5.550
 5808POPC   PO472816  19.713  40.077   5.141
 5808POPC   GL172817  19.678  39.971   5.655
 5808POPC   GL272818  19.587  40.245   5.908
 5808POPC   C1A72819  19.768  39.837   6.126
 5808POPC   D2A72820  20.068  39.789   6.513
 5808POPC   C3A72821  19.896  39.780   6.956
 5808POPC   C4A72822  19.615  40.040   7.246
 5808POPC   C1B72823  19.998  40.287   6.177
 5808POPC   C2B72824  20.205  40.308   6.584
 5808POPC   C3B72825  20.061  40.274   7.024
 5808POPC   C4B72826  20.023  40.255   7.475
 5809POPC   NC372827   7.545   6.195   5.471
 5809POPC   PO472828   7.210   5.507   5.436
 5809POPC   GL172829   7.195   5.635   5.840
 5809POPC   GL272830   7.521   5.690   5.880
 5809POPC   C1A72831   7.128   5.782   6.272
 5809POPC   D2A72832   7.309   5.619   6.620
 5809POPC   C3A72833   7.239   5.776   7.051
 5809POPC   C4A72834   7.301   5.526   7.404
 5809POPC   C1B72835   7.633   5.860   6.296
 5809POPC   C2B72836   7.776   5.777   6.734
 5809POPC   C3B72837   7.730   5.758   7.178
 5809POPC   C4B72838   7.504   5.977   7.486
 5810POPC   NC372839  18.370  36.417   5.332
 5810POPC   PO472840  17.832  36.029   5.302
 5810POPC   GL172841  18.223  36.108   5.698
 5810POPC   GL272842  18.509  35.875   5.878
 5810POPC   C1A72843  18.342  36.255   6.142
 5810POPC   D2A72844  18.233  36.158   6.563
 5810POPC   C3A72845  18.510  36.303   6.874
 5810POPC   C4A72846  18.405  36.603   7.195
 5810POPC   C1B72847  18.771  35.677   6.185
 5810POPC   C2B72848  18.669  35.792   6.615
 5810POPC   C3B72849  18.533  35.769   7.044
 5810POPC   C4B72850  18.718  35.659   7.445
 5811POPC   NC372851   0.595  11.980   5.375
 5811POPC   PO472852   0.235  12.511   5.528
 5811POPC   GL172853   0.366  12.166   5.796
 5811POPC   GL272854   0.129  11.913   5.674
 5811POPC   C1A72855   0.589  12.086   6.183
 5811POPC   D2A72856   0.671  12.329   6.569
 5811POPC   C3A72857   0.502  12.106   6.939
 5811POPC   C4A72858   0.648  12.158   7.351
 5811POPC   C1B72859   0.174  11.770   6.113
 5811POPC   C2B72860   0.287  11.841   6.551
 5811POPC   C3B72861   0.067  11.793   6.941
 5811POPC   C4B72862   0.190  11.898   7.315
 5812POPC   NC372863  37.524  25.059   5.509
 5812POPC   PO472864  38.017  25.262   5.157
 5812POPC   GL172865  37.999  25.196   5.638
 5812POPC   GL272866  37.712  25.409   5.801
 5812POPC   C1A72867  37.983  25.130   6.132
 5812POPC   D2A72868  37.871  25.374   6.529
 5812POPC   C3A72869  38.030  25.368   6.955
 5812POPC   C4A72870  38.132  25.732   7.207
 5812POPC   C1B72871  37.471  25.280   6.187
 5812POPC   C2B72872  37.437  25.126   6.610
 5812POPC   C3B72873  37.685  24.985   6.910
 5812POPC   C4B72874  37.628  25.104   7.304
 5813POPC   NC372875  42.172  38.002   5.320
 5813POPC   PO472876  42.386  38.613   5.447
 5813POPC   GL172877  42.321  38.588   5.863
 5813POPC   GL272878  42.663  38.560   5.949
 5813POPC   C1A72879  42.113  38.256   6.104
 5813POPC   D2A72880  41.983  38.128   6.517
 5813POPC   C3A72881  42.117  38.375   6.869
 5813POPC   C4A72882  41.953  38.432   7.282
 5813POPC   C1B72883  42.450  38.531   6.377
 5813POPC   C2B72884  42.172  38.824   6.624
 5813POPC   C3B72885  42.129  38.872   7.082
 5813POPC   C4B72886  42.472  38.568   7.211
 5814POPC   NC372887   9.075  28.808   5.492
 5814POPC   PO472888   8.642  29.377   5.525
 5814POPC   GL172889   8.893  29.196   5.822
 5814POPC   GL272890   8.844  28.859   5.963
 5814POPC   C1A72891   8.953  29.286   6.233
 5814POPC   D2A72892   9.088  29.185   6.601
 5814POPC   C3A72893   9.056  29.472   6.924
 5814POPC   C4A72894   9.043  29.415   7.345
 5814POPC   C1B72895   9.226  28.787   6.236
 5814POPC   C2B72896   9.456  28.839   6.645
 5814POPC   C3B72897   9.252  28.986   7.041
 5814POPC   C4B72898   8.924  28.745   7.244
 5815POPC   NC372899  27.968  36.933   5.457
 5815POPC   PO472900  28.507  37.294   5.420
 5815POPC   GL172901  28.458  37.052   5.818
 5815POPC   GL272902  28.360  36.690   5.773
 5815POPC   C1A72903  28.512  36.877   6.251
 5815POPC   D2A72904  28.347  36.778   6.621
 5815POPC   C3A72905  28.343  36.948   6.993
 5815POPC   C4A72906  28.530  36.771   7.333
 5815POPC   C1B72907  28.050  36.691   6.115
 5815POPC   C2B72908  27.995  36.447   6.475
 5815POPC   C3B72909  28.098  36.375   6.891
 5815POPC   C4B72910  28.044  36.621   7.237
 5816POPC   NC372911  31.217  18.002   5.456
 5816POPC   PO472912  31.442  18.593   5.607
 5816POPC   GL172913  31.458  18.257   5.860
 5816POPC   GL272914  31.653  17.943   5.780
 5816POPC   C1A72915  31.330  18.317   6.275
 5816POPC   D2A72916  31.201  18.028   6.584
 5816POPC   C3A72917  31.348  18.249   6.916
 5816POPC   C4A72918  31.233  18.594   7.087
 5816POPC   C1B72919  31.723  18.011   6.236
 5816POPC   C2B72920  31.785  18.152   6.693
 5816POPC   C3B72921  31.788  18.052   7.169
 5816POPC   C4B72922  31.822  17.975   7.648
 5817POPC   NC372923  17.503  33.485   5.412
 5817POPC   PO472924  18.065  33.735   5.342
 5817POPC   GL172925  17.770  33.765   5.759
 5817POPC   GL272926  17.352  33.820   5.831
 5817POPC   C1A72927  17.695  33.756   6.223
 5817POPC   D2A72928  17.840  34.044   6.583
 5817POPC   C3A72929  17.618  33.974   6.978
 5817POPC   C4A72930  17.558  33.554   7.132
 5817POPC   C1B72931  17.144  33.809   6.188
 5817POPC   C2B72932  17.312  33.860   6.584
 5817POPC   C3B72933  17.123  33.817   6.987
 5817POPC   C4B72934  17.117  33.589   7.361
 5818POPC   NC372935   0.893  19.125   5.422
 5818POPC   PO472936   1.383  18.705   5.446
 5818POPC   GL172937   1.287  19.005   5.764
 5818POPC   GL272938   1.521  19.270   5.830
 5818POPC   C1A72939   1.212  19.025   6.206
 5818POPC   D2A72940   1.470  18.857   6.529
 5818POPC   C3A72941   1.294  18.885   6.928
 5818POPC   C4A72942   0.920  19.057   7.132
 5818POPC   C1B72943   1.431  19.511   6.208
 5818POPC   C2B72944   1.295  19.408   6.627
 5818POPC   C3B72945   1.516  19.395   7.006
 5818POPC   C4B72946   1.365  19.186   7.345
 5819POPC   NC372947  42.835  38.503   5.420
 5819POPC   PO472948  43.142  37.963   5.528
 5819POPC   GL172949  43.147  38.276   5.881
 5819POPC   GL272950  43.170  38.669   5.887
 5819POPC   C1A72951  43.482  38.365   6.176
 5819POPC   D2A72952  43.536  38.580   6.559
 5819POPC   C3A72953  43.289  38.425   6.889
 5819POPC   C4A72954  43.377  38.394   7.321
 5819POPC   C1B72955  43.004  38.537   6.328
 5819POPC   C2B72956  42.797  38.557   6.761
 5819POPC   C3B72957  42.966  38.722   7.153
 5819POPC   C4B72958  43.166  38.771   7.585
 5820POPC   NC372959  12.501  40.265   5.314
 5820POPC   PO472960  12.964  39.773   5.107
 5820POPC   GL172961  12.945  39.937   5.569
 5820POPC   GL272962  12.608  39.957   5.734
 5820POPC   C1A72963  13.038  40.046   6.040
 5820POPC   D2A72964  12.930  40.197   6.486
 5820POPC   C3A72965  13.070  39.970   6.841
 5820POPC   C4A72966  13.035  40.043   7.295
 5820POPC   C1B72967  12.521  40.004   6.190
 5820POPC   C2B72968  12.578  39.818   6.626
 5820POPC   C3B72969  12.603  40.092   6.988
 5820POPC   C4B72970  12.283  40.272   7.179
 5821POPC   NC372971   1.640  19.071   5.353
 5821POPC   PO472972   2.113  19.492   5.244
 5821POPC   GL172973   2.008  19.307   5.666
 5821POPC   GL272974   1.945  18.930   5.728
 5821POPC   C1A72975   1.931  19.238   6.132
 5821POPC   D2A72976   1.781  19.268   6.550
 5821POPC   C3A72977   1.859  18.985   6.866
 5821POPC   C4A72978   2.069  19.088   7.220
 5821POPC   C1B72979   2.226  18.789   6.048
 5821POPC   C2B72980   2.142  18.633   6.461
 5821POPC   C3B72981   2.307  18.720   6.859
 5821POPC   C4B72982   2.106  18.591   7.209
 5822POPC   NC372983  42.721  43.298   5.498
 5822POPC   PO472984  42.129  43.502   5.629
 5822POPC   GL172985  42.339  43.116   5.840
 5822POPC   GL272986  42.670  42.962   5.908
 5822POPC   C1A72987  42.409  43.083   6.308
 5822POPC   D2A72988  42.255  43.390   6.539
 5822POPC   C3A72989  42.344  43.360   6.934
 5822POPC   C4A72990  42.232  43.392   7.333
 5822POPC   C1B72991  42.807  43.363   6.156
 5822POPC   C2B72992  42.799  43.528   6.610
 5822POPC   C3B72993  42.823  43.372   7.067
 5822POPC   C4B72994  42.591  43.023   7.266
 5823POPC   NC372995  33.593  34.126   5.301
 5823POPC   PO472996  33.932  33.607   5.326
 5823POPC   GL172997  33.626  33.727   5.704
 5823POPC   GL272998  33.589  34.083   5.821
 5823POPC   C1A72999  33.624  33.720   6.209
 5823POPC   D2A73000  33.730  33.906   6.656
 5823POPC   C3A73001  33.893  33.607   7.009
 5823POPC   C4A73002  34.000  33.609   7.475
 5823POPC   C1B73003  33.550  34.298   6.240
 5823POPC   C2B73004  33.340  34.412   6.609
 5823POPC   C3B73005  33.348  34.174   6.967
 5823POPC   C4B73006  33.635  33.957   7.294
 5824POPC   NC373007  42.562  12.398   5.591
 5824POPC   PO473008  42.338  12.044   5.037
 5824POPC   GL173009  42.254  11.997   5.557
 5824POPC   GL273010  42.064  12.307   5.718
 5824POPC   C1A73011  42.446  11.939   6.049
 5824POPC   D2A73012  42.521  12.214   6.483
 5824POPC   C3A73013  42.672  12.156   6.956
 5824POPC   C4A73014  42.426  12.068   7.378
 5824POPC   C1B73015  42.205  12.497   6.136
 5824POPC   C2B73016  42.094  12.515   6.582
 5824POPC   C3B73017  42.185  12.340   6.986
 5824POPC   C4B73018  42.261  12.543   7.381
 5825POPC   NC373019   3.387   1.650   5.117
 5825POPC   PO473020   3.468   1.017   5.382
 5825POPC   GL173021   3.551   1.038   5.820
 5825POPC   GL273022   3.928   1.004   5.832
 5825POPC   C1A73023   3.289   1.045   6.232
 5825POPC   D2A73024   3.145   1.272   6.621
 5825POPC   C3A73025   3.152   1.045   7.034
 5825POPC   C4A73026   3.378   1.117   7.446
 5825POPC   C1B73027   3.797   1.084   6.265
 5825POPC   C2B73028   3.677   1.189   6.695
 5825POPC   C3B73029   3.651   0.947   7.065
 5825POPC   C4B73030   3.734   0.743   7.462
 5826POPC   NC373031  20.618  10.050   5.476
 5826POPC   PO473032  20.381   9.369   5.397
 5826POPC   GL173033  20.538   9.615   5.737
 5826POPC   GL273034  20.756   9.417   5.839
 5826POPC   C1A73035  20.754   9.820   6.121
 5826POPC   D2A73036  20.516   9.791   6.487
 5826POPC   C3A73037  20.684   9.749   6.877
 5826POPC   C4A73038  20.510   9.762   7.253
 5826POPC   C1B73039  20.529   9.361   6.189
 5826POPC   C2B73040  20.417   9.304   6.598
 5826POPC   C3B73041  20.279   9.392   6.994
 5826POPC   C4B73042  20.271   9.348   7.436
 5827POPC   NC373043  40.549   9.357   5.331
 5827POPC   PO473044  40.874  10.016   5.391
 5827POPC   GL173045  40.761   9.891   5.771
 5827POPC   GL273046  40.888  10.202   5.885
 5827POPC   C1A73047  40.637   9.636   6.147
 5827POPC   D2A73048  40.808   9.570   6.566
 5827POPC   C3A73049  40.668   9.443   6.993
 5827POPC   C4A73050  40.908   9.492   7.353
 5827POPC   C1B73051  40.524  10.161   6.153
 5827POPC   C2B73052  40.461   9.958   6.542
 5827POPC   C3B73053  40.562  10.161   6.939
 5827POPC   C4B73054  40.680   9.922   7.280
 5828POPC   NC373055  40.294  27.822   5.507
 5828POPC   PO473056  40.058  28.390   5.294
 5828POPC   GL173057  39.969  28.236   5.709
 5828POPC   GL273058  39.624  28.160   5.792
 5828POPC   C1A73059  40.006  28.129   6.157
 5828POPC   D2A73060  40.022  28.388   6.537
 5828POPC   C3A73061  40.131  28.194   6.928
 5828POPC   C4A73062  40.044  28.337   7.347
 5828POPC   C1B73063  39.496  28.132   6.271
 5828POPC   C2B73064  39.661  28.074   6.711
 5828POPC   C3B73065  39.638  28.077   7.164
 5828POPC   C4B73066  39.733  28.001   7.585
 5829POPC   NC373067  21.092  20.847   5.485
 5829POPC   PO473068  21.577  20.432   5.326
 5829POPC   GL173069  21.451  20.584   5.747
 5829POPC   GL273070  21.537  20.951   5.739
 5829POPC   C1A73071  21.373  20.492   6.198
 5829POPC   D2A73072  21.118  20.389   6.575
 5829POPC   C3A73073  21.250  20.581   6.974
 5829POPC   C4A73074  21.228  20.334   7.332
 5829POPC   C1B73075  21.275  21.001   6.117
 5829POPC   C2B73076  21.310  20.880   6.543
 5829POPC   C3B73077  21.450  21.098   6.899
 5829POPC   C4B73078  21.624  21.077   7.284
 5830POPC   NC373079  31.683  27.334   5.461
 5830POPC   PO473080  31.408  27.942   5.327
 5830POPC   GL173081  31.520  27.800   5.781
 5830POPC   GL273082  31.526  27.447   5.906
 5830POPC   C1A73083  31.266  27.740   6.204
 5830POPC   D2A73084  31.008  27.563   6.558
 5830POPC   C3A73085  31.251  27.534   6.952
 5830POPC   C4A73086  31.600  27.757   7.117
 5830POPC   C1B73087  31.735  27.472   6.253
 5830POPC   C2B73088  31.817  27.561   6.663
 5830POPC   C3B73089  31.762  27.290   6.986
 5830POPC   C4B73090  31.534  27.267   7.333
 5831POPC   NC373091  28.646  38.929   5.435
 5831POPC   PO473092  28.656  38.254   5.182
 5831POPC   GL173093  28.532  38.265   5.678
 5831POPC   GL273094  28.382  38.631   5.763
 5831POPC   C1A73095  28.399  38.291   6.145
 5831POPC   D2A73096  28.327  38.196   6.593
 5831POPC   C3A73097  28.613  38.238   6.945
 5831POPC   C4A73098  28.385  38.256   7.330
 5831POPC   C1B73099  28.571  38.802   6.147
 5831POPC   C2B73100  28.546  38.684   6.575
 5831POPC   C3B73101  28.281  38.610   6.914
 5831POPC   C4B73102  28.433  38.753   7.276
 5832POPC   NC373103  43.720   0.481   5.622
 5832POPC   PO473104  44.344   0.323   5.483
 5832POPC   GL173105  44.110   0.216   5.835
 5832POPC   GL273106  44.156   0.593   5.877
 5832POPC   C1A73107  43.920   0.294   6.253
 5832POPC   D2A73108  43.601   0.258   6.570
 5832POPC   C3A73109  43.743   0.170   6.965
 5832POPC   C4A73110  43.671   0.501   7.218
 5832POPC   C1B73111  44.320   0.652   6.284
 5832POPC   C2B73112  44.008   0.683   6.605
 5832POPC   C3B73113  44.103   0.690   7.015
 5832POPC   C4B73114  44.169   0.327   7.190
 5833POPC   NC373115  11.932  43.533   5.528
 5833POPC   PO473116  12.141  44.254   5.438
 5833POPC   GL173117  12.074  43.980   5.788
 5833POPC   GL273118  12.420  43.852   5.803
 5833POPC   C1A73119  11.870  43.806   6.205
 5833POPC   D2A73120  11.794  43.508   6.608
 5833POPC   C3A73121  11.787  43.746   7.007
 5833POPC   C4A73122  12.203  43.882   7.149
 5833POPC   C1B73123  12.359  44.119   6.207
 5833POPC   C2B73124  12.306  44.135   6.675
 5833POPC   C3B73125  12.454  44.308   7.083
 5833POPC   C4B73126  12.386  44.305   7.543
 5834POPC   NC373127  18.373   7.118   5.394
 5834POPC   PO473128  18.427   7.766   5.514
 5834POPC   GL173129  18.466   7.450   5.797
 5834POPC   GL273130  18.146   7.480   5.834
 5834POPC   C1A73131  18.454   7.433   6.243
 5834POPC   D2A73132  18.443   7.240   6.634
 5834POPC   C3A73133  18.399   7.486   6.993
 5834POPC   C4A73134  18.725   7.589   7.221
 5834POPC   C1B73135  17.944   7.538   6.212
 5834POPC   C2B73136  18.039   7.561   6.631
 5834POPC   C3B73137  17.887   7.419   7.029
 5834POPC   C4B73138  18.026   7.553   7.435
 5835POPC   NC373139  17.747   3.088   5.573
 5835POPC   PO473140  17.196   2.687   5.452
 5835POPC   GL173141  17.421   2.757   5.787
 5835POPC   GL273142  17.694   2.547   5.775
 5835POPC   C1A73143  17.386   2.897   6.196
 5835POPC   D2A73144  17.531   3.093   6.557
 5835POPC   C3A73145  17.526   2.987   6.971
 5835POPC   C4A73146  17.308   3.140   7.312
 5835POPC   C1B73147  17.430   2.353   6.102
 5835POPC   C2B73148  17.565   2.502   6.476
 5835POPC   C3B73149  17.533   2.493   6.882
 5835POPC   C4B73150  17.440   2.504   7.298
 5836POPC   NC373151  18.287   8.968   5.463
 5836POPC   PO473152  17.883   8.457   5.555
 5836POPC   GL173153  17.991   8.816   5.878
 5836POPC   GL273154  18.303   9.070   5.959
 5836POPC   C1A73155  18.050   8.779   6.341
 5836POPC   D2A73156  18.135   8.583   6.753
 5836POPC   C3A73157  17.961   8.814   7.072
 5836POPC   C4A73158  17.903   9.120   7.354
 5836POPC   C1B73159  18.496   8.684   6.090
 5836POPC   C2B73160  18.589   8.562   6.521
 5836POPC   C3B73161  18.595   8.714   6.983
 5836POPC   C4B73162  18.339   8.772   7.392
 5837POPC   NC373163  32.456  33.822   5.263
 5837POPC   PO473164  33.115  34.076   5.258
 5837POPC   GL173165  33.133  33.905   5.662
 5837POPC   GL273166  33.003  33.585   5.712
 5837POPC   C1A73167  33.191  33.962   6.123
 5837POPC   D2A73168  33.236  33.857   6.563
 5837POPC   C3A73169  33.369  33.641   6.939
 5837POPC   C4A73170  33.118  33.434   7.218
 5837POPC   C1B73171  32.740  33.794   6.020
 5837POPC   C2B73172  32.756  33.738   6.460
 5837POPC   C3B73173  32.837  33.743   6.917
 5837POPC   C4B73174  32.639  33.852   7.342
 5838POPC   NC373175  35.937   5.853   4.892
 5838POPC   PO473176  36.485   5.810   5.307
 5838POPC   GL173177  36.260   5.941   5.709
 5838POPC   GL273178  35.941   6.141   5.730
 5838POPC   C1A73179  36.207   5.717   6.094
 5838POPC   D2A73180  36.322   5.576   6.481
 5838POPC   C3A73181  36.127   5.628   6.841
 5838POPC   C4A73182  36.145   5.898   7.214
 5838POPC   C1B73183  36.048   6.205   6.145
 5838POPC   C2B73184  36.044   6.033   6.540
 5838POPC   C3B73185  35.801   6.122   6.887
 5838POPC   C4B73186  35.742   6.207   7.286
 5839POPC   NC373187  31.825  12.020   5.429
 5839POPC   PO473188  32.509  11.914   5.356
 5839POPC   GL173189  32.314  11.912   5.800
 5839POPC   GL273190  32.546  12.177   5.924
 5839POPC   C1A73191  31.977  11.912   6.187
 5839POPC   D2A73192  32.055  11.912   6.643
 5839POPC   C3A73193  31.994  11.957   7.084
 5839POPC   C4A73194  32.389  11.778   7.224
 5839POPC   C1B73195  32.467  12.022   6.317
 5839POPC   C2B73196  32.532  12.109   6.731
 5839POPC   C3B73197  32.792  12.055   7.075
 5839POPC   C4B73198  32.717  12.094   7.518
 5840POPC   NC373199  30.888   1.778   5.423
 5840POPC   PO473200  30.522   2.308   5.383
 5840POPC   GL173201  30.678   2.174   5.776
 5840POPC   GL273202  30.759   1.847   5.936
 5840POPC   C1A73203  30.608   2.263   6.195
 5840POPC   D2A73204  30.880   2.365   6.549
 5840POPC   C3A73205  30.705   2.255   6.930
 5840POPC   C4A73206  30.481   2.143   7.312
 5840POPC   C1B73207  30.448   1.753   6.313
 5840POPC   C2B73208  30.444   1.719   6.798
 5840POPC   C3B73209  30.760   1.777   7.133
 5840POPC   C4B73210  30.835   1.702   7.592
 5841POPC   NC373211  43.714  20.873   5.459
 5841POPC   PO473212  44.276  20.374   5.342
 5841POPC   GL173213  44.016  20.555   5.731
 5841POPC   GL273214  43.695  20.500   5.817
 5841POPC   C1A73215  43.980  20.863   6.098
 5841POPC   D2A73216  43.771  21.040   6.461
 5841POPC   C3A73217  43.890  20.822   6.882
 5841POPC   C4A73218  44.253  20.820   7.155
 5841POPC   C1B73219  43.529  20.624   6.229
 5841POPC   C2B73220  43.439  20.695   6.654
 5841POPC   C3B73221  43.412  20.445   7.022
 5841POPC   C4B73222  43.723  20.524   7.312
 5842POPC   NC373223  32.715  25.451   5.397
 5842POPC   PO473224  33.241  25.047   5.168
 5842POPC   GL173225  33.004  25.055   5.574
 5842POPC   GL273226  33.078  25.374   5.811
 5842POPC   C1A73227  32.854  24.972   6.004
 5842POPC   D2A73228  32.914  25.232   6.336
 5842POPC   C3A73229  32.783  25.151   6.733
 5842POPC   C4A73230  32.930  25.185   7.160
 5842POPC   C1B73231  33.241  25.600   6.220
 5842POPC   C2B73232  33.250  25.711   6.678
 5842POPC   C3B73233  33.235  25.635   7.124
 5842POPC   C4B73234  33.271  25.397   7.484
 5843POPC   NC373235  17.654  31.061   5.479
 5843POPC   PO473236  17.236  31.653   5.406
 5843POPC   GL173237  17.404  31.633   5.814
 5843POPC   GL273238  17.757  31.553   5.738
 5843POPC   C1A73239  17.228  31.424   6.185
 5843POPC   D2A73240  17.155  31.185   6.567
 5843POPC   C3A73241  17.192  31.436   6.904
 5843POPC   C4A73242  17.265  31.294   7.268
 5843POPC   C1B73243  17.840  31.325   6.115
 5843POPC   C2B73244  17.659  31.387   6.502
 5843POPC   C3B73245  17.719  31.284   6.906
 5843POPC   C4B73246  17.746  31.470   7.302
 5844POPC   NC373247  19.279  31.622   5.372
 5844POPC   PO473248  18.684  31.352   5.455
 5844POPC   GL173249  18.807  31.414   5.848
 5844POPC   GL273250  18.796  31.730   5.807
 5844POPC   C1A73251  19.017  31.265   6.208
 5844POPC   D2A73252  19.295  31.169   6.543
 5844POPC   C3A73253  19.039  31.210   6.901
 5844POPC   C4A73254  19.197  31.166   7.304
 5844POPC   C1B73255  19.002  31.789   6.204
 5844POPC   C2B73256  19.147  31.667   6.595
 5844POPC   C3B73257  19.269  31.645   7.023
 5844POPC   C4B73258  18.934  31.637   7.319
 5845POPC   NC373259  19.576  33.370   5.524
 5845POPC   PO473260  19.716  32.753   5.494
 5845POPC   GL173261  19.835  33.019   5.825
 5845POPC   GL273262  20.157  32.939   5.841
 5845POPC   C1A73263  19.806  33.062   6.275
 5845POPC   D2A73264  19.663  32.801   6.642
 5845POPC   C3A73265  19.759  32.956   7.080
 5845POPC   C4A73266  19.713  32.853   7.542
 5845POPC   C1B73267  20.322  32.968   6.231
 5845POPC   C2B73268  20.161  32.938   6.654
 5845POPC   C3B73269  20.287  32.890   7.098
 5845POPC   C4B73270  20.132  33.154   7.445
 5846POPC   NC373271  12.955  13.275   5.623
 5846POPC   PO473272  12.747  12.750   5.258
 5846POPC   GL173273  12.791  12.777   5.704
 5846POPC   GL273274  13.138  12.811   5.734
 5846POPC   C1A73275  12.786  12.700   6.161
 5846POPC   D2A73276  12.617  12.835   6.568
 5846POPC   C3A73277  12.707  12.537   6.921
 5846POPC   C4A73278  12.565  12.647   7.304
 5846POPC   C1B73279  13.189  13.001   6.172
 5846POPC   C2B73280  13.119  12.875   6.589
 5846POPC   C3B73281  12.953  12.975   6.966
 5846POPC   C4B73282  13.221  13.159   7.204
 5847POPC   NC373283  12.556  14.016   5.592
 5847POPC   PO473284  12.644  14.663   5.374
 5847POPC   GL173285  12.712  14.501   5.785
 5847POPC   GL273286  12.478  14.596   6.025
 5847POPC   C1A73287  12.978  14.572   6.168
 5847POPC   D2A73288  13.014  14.337   6.547
 5847POPC   C3A73289  12.917  14.587   6.914
 5847POPC   C4A73290  12.905  14.443   7.352
 5847POPC   C1B73291  12.640  14.172   6.188
 5847POPC   C2B73292  12.647  13.801   6.425
 5847POPC   C3B73293  12.866  13.812   6.789
 5847POPC   C4B73294  12.828  13.959   7.202
 5848POPC   NC373295   5.714  12.122   5.165
 5848POPC   PO473296   6.153  11.919   5.679
 5848POPC   GL173297   5.765  11.896   5.925
 5848POPC   GL273298   5.554  12.172   5.771
 5848POPC   C1A73299   5.743  11.927   6.380
 5848POPC   D2A73300   6.115  11.871   6.665
 5848POPC   C3A73301   6.028  11.880   7.088
 5848POPC   C4A73302   5.586  11.906   7.161
 5848POPC   C1B73303   5.831  12.371   6.074
 5848POPC   C2B73304   5.813  12.484   6.491
 5848POPC   C3B73305   5.868  12.318   6.876
 5848POPC   C4B73306   5.768  12.361   7.264
 5849POPC   NC373307  27.800  25.249   5.478
 5849POPC   PO473308  27.148  25.282   5.472
 5849POPC   GL173309  27.376  25.114   5.875
 5849POPC   GL273310  27.658  25.329   5.955
 5849POPC   C1A73311  27.345  25.237   6.350
 5849POPC   D2A73312  27.479  25.052   6.741
 5849POPC   C3A73313  27.277  25.234   7.048
 5849POPC   C4A73314  27.259  25.399   7.403
 5849POPC   C1B73315  27.842  25.203   6.355
 5849POPC   C2B73316  27.744  25.476   6.706
 5849POPC   C3B73317  27.757  25.374   7.140
 5849POPC   C4B73318  27.731  25.655   7.480
 5850POPC   NC373319  20.753   6.646   5.374
 5850POPC   PO473320  20.340   7.072   5.395
 5850POPC   GL173321  20.524   6.829   5.806
 5850POPC   GL273322  20.653   6.468   5.820
 5850POPC   C1A73323  20.633   6.646   6.271
 5850POPC   D2A73324  20.662   6.752   6.689
 5850POPC   C3A73325  20.471   6.449   6.966
 5850POPC   C4A73326  20.435   6.230   7.371
 5850POPC   C1B73327  21.027   6.372   6.033
 5850POPC   C2B73328  21.114   6.394   6.456
 5850POPC   C3B73329  20.982   6.382   6.842
 5850POPC   C4B73330  20.915   6.413   7.227
 5851POPC   NC373331   4.229  20.765   5.194
 5851POPC   PO473332   4.689  20.528   5.582
 5851POPC   GL173333   4.608  20.582   5.967
 5851POPC   GL273334   4.519  20.922   5.910
 5851POPC   C1A73335   4.419  20.318   6.315
 5851POPC   D2A73336   4.381  20.413   6.796
 5851POPC   C3A73337   4.027  20.628   7.022
 5851POPC   C4A73338   3.773  20.442   7.391
 5851POPC   C1B73339   4.307  20.824   6.290
 5851POPC   C2B73340   4.664  20.770   6.526
 5851POPC   C3B73341   4.747  20.761   6.944
 5851POPC   C4B73342   4.534  20.581   7.262
 5852POPC   NC373343   2.044  44.916   5.325
 5852POPC   PO473344   1.625  44.420   5.467
 5852POPC   GL173345   1.797  44.720   5.766
 5852POPC   GL273346   2.111  44.815   5.821
 5852POPC   C1A73347   1.746  44.829   6.214
 5852POPC   D2A73348   1.555  44.857   6.632
 5852POPC   C3A73349   1.863  44.711   6.926
 5852POPC   C4A73350   1.777  44.556   7.357
 5852POPC   C1B73351   2.281  44.905   6.239
 5852POPC   C2B73352   2.394  44.914   6.675
 5852POPC   C3B73353   2.220   0.088   7.043
 5852POPC   C4B73354   1.843   0.079   7.262
 5853POPC   NC373355  25.754  44.046   5.562
 5853POPC   PO473356  25.194  43.964   5.126
 5853POPC   GL173357  25.228  44.020   5.605
 5853POPC   GL273358  24.995  43.772   5.773
 5853POPC   C1A73359  25.267  44.118   6.073
 5853POPC   D2A73360  25.076  44.014   6.471
 5853POPC   C3A73361  25.140  44.286   6.825
 5853POPC   C4A73362  25.202  44.049   7.227
 5853POPC   C1B73363  25.332  43.619   6.072
 5853POPC   C2B73364  25.440  43.622   6.502
 5853POPC   C3B73365  25.217  43.658   6.881
 5853POPC   C4B73366  25.492  43.633   7.235
 5854POPC   NC373367  25.105  18.675   5.264
 5854POPC   PO473368  25.030  18.081   5.373
 5854POPC   GL173369  25.333  18.133   5.687
 5854POPC   GL273370  25.383  18.470   5.671
 5854POPC   C1A73371  25.343  18.057   6.146
 5854POPC   D2A73372  25.422  18.238   6.571
 5854POPC   C3A73373  25.159  18.022   6.881
 5854POPC   C4A73374  25.016  18.084   7.364
 5854POPC   C1B73375  25.538  18.555   6.072
 5854POPC   C2B73376  25.566  18.735   6.481
 5854POPC   C3B73377  25.453  18.707   6.905
 5854POPC   C4B73378  25.620  18.706   7.306
 5855POPC   NC373379  37.881  27.276   5.542
 5855POPC   PO473380  37.458  27.745   5.517
 5855POPC   GL173381  37.344  27.693   5.905
 5855POPC   GL273382  37.430  27.378   5.997
 5855POPC   C1A73383  37.294  27.901   6.281
 5855POPC   D2A73384  37.502  27.696   6.562
 5855POPC   C3A73385  37.313  27.704   6.923
 5855POPC   C4A73386  37.501  27.471   7.230
 5855POPC   C1B73387  37.795  27.351   6.298
 5855POPC   C2B73388  37.998  27.418   6.714
 5855POPC   C3B73389  37.998  27.404   7.163
 5855POPC   C4B73390  38.187  27.229   7.522
 5856POPC   NC373391  19.286   8.797   5.510
 5856POPC   PO473392  18.691   9.143   5.565
 5856POPC   GL173393  18.932   8.917   5.871
 5856POPC   GL273394  19.113   9.195   6.011
 5856POPC   C1A73395  19.169   8.768   6.259
 5856POPC   D2A73396  19.038   8.749   6.690
 5856POPC   C3A73397  19.079   9.054   7.005
 5856POPC   C4A73398  19.245   8.729   7.266
 5856POPC   C1B73399  18.755   9.052   6.331
 5856POPC   C2B73400  18.379   9.209   6.532
 5856POPC   C3B73401  18.311   9.175   6.974
 5856POPC   C4B73402  18.648   9.144   7.276
 5857POPC   NC373403  23.309  44.487   5.382
 5857POPC   PO473404  22.775  44.725   5.521
 5857POPC   GL173405  23.097  44.578   5.837
 5857POPC   GL273406  23.383  44.818   5.785
 5857POPC   C1A73407  23.049  44.597   6.291
 5857POPC   D2A73408  22.965  44.355   6.662
 5857POPC   C3A73409  22.948  44.566   7.046
 5857POPC   C4A73410  22.818  44.383   7.423
 5857POPC   C1B73411  23.412  44.952   6.234
 5857POPC   C2B73412  23.283  44.869   6.690
 5857POPC   C3B73413  23.187   0.030   7.118
 5857POPC   C4B73414  22.793  44.972   7.400
 5858POPC   NC373415  44.876  43.343   5.386
 5858POPC   PO473416   0.161  42.730   5.436
 5858POPC   GL173417  44.876  42.973   5.731
 5858POPC   GL273418  44.538  42.977   5.773
 5858POPC   C1A73419  44.941  43.191   6.134
 5858POPC   D2A73420  44.735  43.218   6.499
 5858POPC   C3A73421  44.818  43.295   6.906
 5858POPC   C4A73422  44.708  43.150   7.295
 5858POPC   C1B73423  44.387  42.995   6.199
 5858POPC   C2B73424  44.229  43.284   6.523
 5858POPC   C3B73425  44.321  43.251   6.967
 5858POPC   C4B73426  44.292  43.457   7.432
 5859POPC   NC373427  11.280  24.897   5.363
 5859POPC   PO473428  11.535  25.486   5.243
 5859POPC   GL173429  11.479  25.333   5.672
 5859POPC   GL273430  11.543  25.680   5.732
 5859POPC   C1A73431  11.313  25.093   6.069
 5859POPC   D2A73432  11.348  24.924   6.490
 5859POPC   C3A73433  11.116  25.101   6.841
 5859POPC   C4A73434  10.928  25.380   7.139
 5859POPC   C1B73435  11.371  25.599   6.112
 5859POPC   C2B73436  11.249  25.458   6.499
 5859POPC   C3B73437  11.362  25.548   6.930
 5859POPC   C4B73438  11.258  25.760   7.298
 5860POPC   NC373439  20.463   5.689   5.373
 5860POPC   PO473440  20.348   6.379   5.419
 5860POPC   GL173441  20.247   6.168   5.821
 5860POPC   GL273442  20.350   5.855   5.832
 5860POPC   C1A73443  20.499   6.126   6.236
 5860POPC   D2A73444  20.801   5.990   6.558
 5860POPC   C3A73445  20.658   5.988   6.985
 5860POPC   C4A73446  20.854   5.958   7.419
 5860POPC   C1B73447  20.333   5.599   6.201
 5860POPC   C2B73448  20.345   5.752   6.611
 5860POPC   C3B73449  20.349   5.560   6.998
 5860POPC   C4B73450  20.430   5.696   7.401
 5861POPC   NC373451  43.224   3.443   5.602
 5861POPC   PO473452  42.770   3.814   5.392
 5861POPC   GL173453  42.816   3.614   5.826
 5861POPC   GL273454  42.655   3.336   5.938
 5861POPC   C1A73455  43.062   3.565   6.239
 5861POPC   D2A73456  43.388   3.490   6.598
 5861POPC   C3A73457  43.342   3.656   7.057
 5861POPC   C4A73458  43.206   3.662   7.508
 5861POPC   C1B73459  42.736   3.139   6.326
 5861POPC   C2B73460  42.897   3.340   6.689
 5861POPC   C3B73461  42.870   3.452   7.101
 5861POPC   C4B73462  42.884   3.074   7.302
 5862POPC   NC373463  24.838  36.294   5.376
 5862POPC   PO473464  25.436  35.979   5.493
 5862POPC   GL173465  25.113  35.915   5.852
 5862POPC   GL273466  24.868  36.200   5.903
 5862POPC   C1A73467  25.024  35.960   6.339
 5862POPC   D2A73468  25.072  35.836   6.790
 5862POPC   C3A73469  25.398  35.952   7.130
 5862POPC   C4A73470  25.243  36.104   7.554
 5862POPC   C1B73471  24.841  36.472   6.289
 5862POPC   C2B73472  24.979  36.506   6.716
 5862POPC   C3B73473  25.043  36.318   7.079
 5862POPC   C4B73474  25.448  36.450   7.245
 5863POPC   NC373475  35.750   7.851   5.372
 5863POPC   PO473476  35.514   8.430   5.210
 5863POPC   GL173477  35.402   8.245   5.612
 5863POPC   GL273478  35.703   8.367   5.767
 5863POPC   C1A73479  35.272   8.161   6.067
 5863POPC   D2A73480  34.961   8.171   6.428
 5863POPC   C3A73481  35.127   8.135   6.851
 5863POPC   C4A73482  35.307   8.338   7.234
 5863POPC   C1B73483  35.785   8.015   6.056
 5863POPC   C2B73484  35.839   7.999   6.516
 5863POPC   C3B73485  35.733   8.248   6.907
 5863POPC   C4B73486  35.729   8.044   7.305
 5864POPC   NC373487   1.944  38.651   5.392
 5864POPC   PO473488   1.717  38.190   5.792
 5864POPC   GL173489   1.794  38.613   5.934
 5864POPC   GL273490   2.169  38.672   5.853
 5864POPC   C1A73491   1.706  38.589   6.384
 5864POPC   D2A73492   1.841  38.240   6.641
 5864POPC   C3A73493   2.014  38.393   7.016
 5864POPC   C4A73494   2.027  38.264   7.422
 5864POPC   C1B73495   2.197  38.482   6.273
 5864POPC   C2B73496   2.156  38.727   6.643
 5864POPC   C3B73497   2.380  38.890   6.992
 5864POPC   C4B73498   2.233  38.725   7.378
 5865POPC   NC373499   2.555  19.514   5.395
 5865POPC   PO473500   2.910  18.906   5.387
 5865POPC   GL173501   2.731  18.912   5.764
 5865POPC   GL273502   2.456  19.064   5.639
 5865POPC   C1A73503   2.730  18.874   6.203
 5865POPC   D2A73504   2.858  19.115   6.560
 5865POPC   C3A73505   2.792  18.902   6.934
 5865POPC   C4A73506   2.567  18.973   7.283
 5865POPC   C1B73507   2.440  19.274   6.039
 5865POPC   C2B73508   2.328  19.132   6.463
 5865POPC   C3B73509   2.409  19.252   6.874
 5865POPC   C4B73510   2.431  19.491   7.254
 5866POPC   NC373511  36.316  36.959   5.437
 5866POPC   PO473512  35.862  36.452   5.253
 5866POPC   GL173513  35.764  36.678   5.683
 5866POPC   GL273514  36.027  36.921   5.875
 5866POPC   C1A73515  35.791  36.564   6.138
 5866POPC   D2A73516  36.002  36.883   6.401
 5866POPC   C3A73517  35.961  36.814   6.853
 5866POPC   C4A73518  36.253  36.765   7.200
 5866POPC   C1B73519  35.989  37.329   6.159
 5866POPC   C2B73520  36.027  37.376   6.622
 5866POPC   C3B73521  36.175  37.255   7.025
 5866POPC   C4B73522  36.289  37.183   7.481
 5867POPC   NC373523  23.351  25.743   5.402
 5867POPC   PO473524  23.065  25.082   5.397
 5867POPC   GL173525  22.969  25.264   5.805
 5867POPC   GL273526  22.858  24.983   5.965
 5867POPC   C1A73527  22.861  25.506   6.197
 5867POPC   D2A73528  22.684  25.569   6.623
 5867POPC   C3A73529  22.642  25.255   6.953
 5867POPC   C4A73530  22.948  25.496   7.155
 5867POPC   C1B73531  23.157  25.071   6.260
 5867POPC   C2B73532  23.059  25.158   6.674
 5867POPC   C3B73533  23.223  25.045   7.070
 5867POPC   C4B73534  23.309  24.794   7.437
 5868POPC   NC373535  11.669   6.316   5.368
 5868POPC   PO473536  12.344   5.945   5.387
 5868POPC   GL173537  12.131   5.942   5.757
 5868POPC   GL273538  12.373   5.668   5.830
 5868POPC   C1A73539  11.866   5.771   6.094
 5868POPC   D2A73540  11.973   5.707   6.541
 5868POPC   C3A73541  11.944   5.911   6.954
 5868POPC   C4A73542  12.001   6.071   7.379
 5868POPC   C1B73543  12.363   5.828   6.222
 5868POPC   C2B73544  12.454   5.877   6.630
 5868POPC   C3B73545  12.530   5.697   7.006
 5868POPC   C4B73546  12.439   5.819   7.423
 5869POPC   NC373547  37.819  41.352   5.208
 5869POPC   PO473548  38.495  41.478   5.418
 5869POPC   GL173549  38.586  41.632   5.796
 5869POPC   GL273550  38.883  41.396   5.808
 5869POPC   C1A73551  38.317  41.812   6.108
 5869POPC   D2A73552  38.065  41.540   6.378
 5869POPC   C3A73553  38.158  41.493   6.819
 5869POPC   C4A73554  38.239  41.661   7.246
 5869POPC   C1B73555  38.657  41.280   6.173
 5869POPC   C2B73556  38.826  41.267   6.571
 5869POPC   C3B73557  38.606  41.281   6.951
 5869POPC   C4B73558  38.694  41.412   7.322
 5870POPC   NC373559  14.939   8.390   5.340
 5870POPC   PO473560  15.201   7.751   5.437
 5870POPC   GL173561  15.116   7.898   5.858
 5870POPC   GL273562  15.093   8.273   5.827
 5870POPC   C1A73563  15.041   8.049   6.289
 5870POPC   D2A73564  14.775   8.292   6.538
 5870POPC   C3A73565  14.768   8.131   6.952
 5870POPC   C4A73566  15.104   7.918   7.126
 5870POPC   C1B73567  15.426   8.353   6.144
 5870POPC   C2B73568  15.428   8.499   6.591
 5870POPC   C3B73569  15.362   8.390   7.038
 5870POPC   C4B73570  15.446   8.501   7.473
 5871POPC   NC373571  15.029  34.197   5.219
 5871POPC   PO473572  15.464  34.674   5.395
 5871POPC   GL173573  15.274  34.688   5.848
 5871POPC   GL273574  15.181  34.330   5.790
 5871POPC   C1A73575  15.261  34.804   6.321
 5871POPC   D2A73576  14.863  34.757   6.574
 5871POPC   C3A73577  14.908  34.538   6.966
 5871POPC   C4A73578  15.201  34.858   7.080
 5871POPC   C1B73579  14.967  34.400   6.190
 5871POPC   C2B73580  15.187  34.336   6.566
 5871POPC   C3B73581  15.427  34.427   6.910
 5871POPC   C4B73582  15.371  34.461   7.348
 5872POPC   NC373583  17.828  35.581   5.418
 5872POPC   PO473584  17.518  35.068   5.212
 5872POPC   GL173585  17.504  35.151   5.703
 5872POPC   GL273586  17.578  35.508   5.856
 5872POPC   C1A73587  17.523  35.147   6.198
 5872POPC   D2A73588  17.340  35.311   6.636
 5872POPC   C3A73589  17.637  35.494   6.965
 5872POPC   C4A73590  17.749  35.323   7.407
 5872POPC   C1B73591  17.395  35.664   6.251
 5872POPC   C2B73592  17.276  35.828   6.671
 5872POPC   C3B73593  17.101  35.607   7.006
 5872POPC   C4B73594  17.269  35.226   7.190
 5873POPC   NC373595  16.022  14.433   5.389
 5873POPC   PO473596  16.638  14.822   5.478
 5873POPC   GL173597  16.297  14.573   5.792
 5873POPC   GL273598  15.874  14.503   5.885
 5873POPC   C1A73599  16.232  14.313   6.162
 5873POPC   D2A73600  15.899  14.422   6.460
 5873POPC   C3A73601  15.900  14.314   6.890
 5873POPC   C4A73602  16.035  14.412   7.316
 5873POPC   C1B73603  15.753  14.093   6.087
 5873POPC   C2B73604  15.613  13.972   6.506
 5873POPC   C3B73605  15.412  14.128   6.884
 5873POPC   C4B73606  15.571  14.202   7.313
 5874POPC   NC373607  11.635  34.412   5.442
 5874POPC   PO473608  12.278  34.484   5.138
 5874POPC   GL173609  12.099  34.594   5.626
 5874POPC   GL273610  11.975  34.303   5.847
 5874POPC   C1A73611  12.033  34.745   6.103
 5874POPC   D2A73612  12.203  34.650   6.502
 5874POPC   C3A73613  12.085  34.780   6.902
 5874POPC   C4A73614  12.316  34.494   7.168
 5874POPC   C1B73615  11.801  34.346   6.301
 5874POPC   C2B73616  11.838  34.349   6.753
 5874POPC   C3B73617  11.796  34.449   7.183
 5874POPC   C4B73618  11.580  34.444   7.574
 5875POPC   NC373619   7.623  16.319   5.487
 5875POPC   PO473620   7.329  16.846   5.170
 5875POPC   GL173621   7.348  16.746   5.680
 5875POPC   GL273622   7.277  16.446   5.868
 5875POPC   C1A73623   7.522  16.844   6.152
 5875POPC   D2A73624   7.709  16.821   6.605
 5875POPC   C3A73625   7.520  17.021   6.997
 5875POPC   C4A73626   7.645  17.197   7.419
 5875POPC   C1B73627   7.096  16.577   6.280
 5875POPC   C2B73628   7.230  16.678   6.696
 5875POPC   C3B73629   7.536  16.504   6.971
 5875POPC   C4B73630   7.606  16.168   7.241
 5876POPC   NC373631   8.349  23.259   5.482
 5876POPC   PO473632   8.204  22.601   5.417
 5876POPC   GL173633   8.153  22.829   5.757
 5876POPC   GL273634   8.500  22.906   5.849
 5876POPC   C1A73635   7.899  22.884   6.123
 5876POPC   D2A73636   8.133  22.970   6.509
 5876POPC   C3A73637   7.902  22.921   6.890
 5876POPC   C4A73638   8.002  22.877   7.300
 5876POPC   C1B73639   8.519  23.283   6.120
 5876POPC   C2B73640   8.651  23.374   6.526
 5876POPC   C3B73641   8.476  23.160   6.856
 5876POPC   C4B73642   8.472  23.057   7.258
 5877POPC   NC373643  25.967  44.777   5.466
 5877POPC   PO473644  26.225  44.168   5.421
 5877POPC   GL173645  26.084  44.398   5.815
 5877POPC   GL273646  25.855  44.726   5.955
 5877POPC   C1A73647  25.995  44.340   6.241
 5877POPC   D2A73648  26.241  44.432   6.582
 5877POPC   C3A73649  26.012  44.329   6.909
 5877POPC   C4A73650  25.995  44.537   7.261
 5877POPC   C1B73651  26.153  44.847   6.272
 5877POPC   C2B73652  26.113   0.047   6.683
 5877POPC   C3B73653  25.846  44.987   7.078
 5877POPC   C4B73654  25.971  44.973   7.531
 5878POPC   NC373655  34.008  39.057   5.619
 5878POPC   PO473656  33.544  39.569   5.360
 5878POPC   GL173657  33.607  39.357   5.745
 5878POPC   GL273658  33.896  39.510   5.894
 5878POPC   C1A73659  33.563  39.155   6.172
 5878POPC   D2A73660  33.818  39.066   6.565
 5878POPC   C3A73661  33.622  38.966   6.971
 5878POPC   C4A73662  33.466  39.269   7.259
 5878POPC   C1B73663  34.152  39.628   6.242
 5878POPC   C2B73664  34.032  39.539   6.648
 5878POPC   C3B73665  33.906  39.407   7.035
 5878POPC   C4B73666  34.031  39.073   7.311
 5879POPC   NC373667  13.389  37.266   5.415
 5879POPC   PO473668  13.847  36.802   5.185
 5879POPC   GL173669  13.697  36.844   5.641
 5879POPC   GL273670  13.954  37.011   5.777
 5879POPC   C1A73671  13.419  36.892   6.059
 5879POPC   D2A73672  13.402  37.091   6.502
 5879POPC   C3A73673  13.355  36.858   6.919
 5879POPC   C4A73674  13.432  37.046   7.319
 5879POPC   C1B73675  13.861  37.101   6.194
 5879POPC   C2B73676  13.895  36.965   6.584
 5879POPC   C3B73677  13.794  37.106   6.965
 5879POPC   C4B73678  13.942  36.873   7.328
 5880POPC   NC373679  25.461  41.539   5.450
 5880POPC   PO473680  24.885  41.404   5.553
 5880POPC   GL173681  25.119  41.717   5.846
 5880POPC   GL273682  25.452  41.880   5.875
 5880POPC   C1A73683  25.185  41.747   6.300
 5880POPC   D2A73684  25.239  41.820   6.731
 5880POPC   C3A73685  25.218  41.448   6.930
 5880POPC   C4A73686  25.268  41.624   7.312
 5880POPC   C1B73687  25.697  41.631   6.148
 5880POPC   C2B73688  25.616  41.500   6.578
 5880POPC   C3B73689  25.693  41.570   7.023
 5880POPC   C4B73690  25.630  41.300   7.429
 5881POPC   NC373691  10.230  11.255   5.422
 5881POPC   PO473692  10.894  10.972   5.588
 5881POPC   GL173693  10.512  11.066   5.813
 5881POPC   GL273694  10.423  11.435   5.869
 5881POPC   C1A73695  10.397  11.073   6.238
 5881POPC   D2A73696  10.721  11.153   6.543
 5881POPC   C3A73697  10.546  11.042   6.944
 5881POPC   C4A73698  10.669  11.189   7.337
 5881POPC   C1B73699  10.486  11.582   6.290
 5881POPC   C2B73700  10.326  11.425   6.683
 5881POPC   C3B73701  10.445  11.550   7.079
 5881POPC   C4B73702  10.257  11.718   7.461
 5882POPC   NC373703  37.187  40.854   5.411
 5882POPC   PO473704  36.569  40.967   5.700
 5882POPC   GL173705  36.923  40.749   5.872
 5882POPC   GL273706  37.234  40.957   5.921
 5882POPC   C1A73707  36.919  40.704   6.332
 5882POPC   D2A73708  36.872  40.989   6.710
 5882POPC   C3A73709  36.675  40.769   7.048
 5882POPC   C4A73710  36.688  40.772   7.485
 5882POPC   C1B73711  37.419  40.826   6.332
 5882POPC   C2B73712  37.327  40.413   6.562
 5882POPC   C3B73713  37.325  40.396   7.002
 5882POPC   C4B73714  37.188  40.786   7.238
 5883POPC   NC373715   5.362   3.176   5.384
 5883POPC   PO473716   5.271   3.831   5.383
 5883POPC   GL173717   5.231   3.726   5.847
 5883POPC   GL273718   5.409   3.422   5.840
 5883POPC   C1A73719   5.028   3.454   6.190
 5883POPC   D2A73720   4.785   3.567   6.551
 5883POPC   C3A73721   4.767   3.374   6.920
 5883POPC   C4A73722   4.835   3.449   7.307
 5883POPC   C1B73723   5.547   3.376   6.246
 5883POPC   C2B73724   5.306   3.402   6.640
 5883POPC   C3B73725   5.288   3.495   7.080
 5883POPC   C4B73726   5.281   3.256   7.457
 5884POPC   NC373727  29.708  12.861   5.661
 5884POPC   PO473728  30.396  12.710   5.434
 5884POPC   GL173729  30.185  12.689   5.827
 5884POPC   GL273730  30.167  13.052   5.765
 5884POPC   C1A73731  29.936  12.666   6.226
 5884POPC   D2A73732  29.642  12.793   6.545
 5884POPC   C3A73733  29.898  12.834   6.898
 5884POPC   C4A73734  29.907  12.560   7.221
 5884POPC   C1B73735  30.222  13.097   6.192
 5884POPC   C2B73736  30.291  13.022   6.600
 5884POPC   C3B73737  30.427  12.826   6.956
 5884POPC   C4B73738  30.205  12.973   7.286
 5885POPC   NC373739  27.991  17.665   5.545
 5885POPC   PO473740  27.435  17.233   5.447
 5885POPC   GL173741  27.322  17.447   5.823
 5885POPC   GL273742  27.488  17.760   5.784
 5885POPC   C1A73743  27.480  17.435   6.238
 5885POPC   D2A73744  27.649  17.517   6.609
 5885POPC   C3A73745  27.295  17.647   6.800
 5885POPC   C4A73746  27.342  17.656   7.227
 5885POPC   C1B73747  27.388  17.930   6.202
 5885POPC   C2B73748  27.615  18.039   6.593
 5885POPC   C3B73749  27.731  17.963   7.017
 5885POPC   C4B73750  27.610  18.091   7.431
 5886POPC   NC373751  32.894  20.174   5.571
 5886POPC   PO473752  33.363  19.722   5.397
 5886POPC   GL173753  33.147  19.755   5.739
 5886POPC   GL273754  33.302  20.047   5.839
 5886POPC   C1A73755  32.927  19.773   6.110
 5886POPC   D2A73756  32.937  19.990   6.493
 5886POPC   C3A73757  32.834  19.742   6.882
 5886POPC   C4A73758  32.959  19.534   7.272
 5886POPC   C1B73759  33.368  20.152   6.225
 5886POPC   C2B73760  33.349  20.350   6.616
 5886POPC   C3B73761  33.257  20.055   6.891
 5886POPC   C4B73762  33.312  19.894   7.255
 5887POPC   NC373763  32.210  30.179   5.407
 5887POPC   PO473764  32.161  29.472   5.418
 5887POPC   GL173765  32.343  29.666   5.782
 5887POPC   GL273766  32.282  30.017   5.879
 5887POPC   C1A73767  32.160  29.663   6.217
 5887POPC   D2A73768  32.190  29.879   6.592
 5887POPC   C3A73769  32.287  29.684   6.931
 5887POPC   C4A73770  32.477  29.890   7.250
 5887POPC   C1B73771  32.184  30.259   6.258
 5887POPC   C2B73772  32.206  30.414   6.664
 5887POPC   C3B73773  32.286  30.330   7.101
 5887POPC   C4B73774  32.147  30.358   7.545
 5888POPC   NC373775  31.175  24.855   5.440
 5888POPC   PO473776  31.460  25.544   5.399
 5888POPC   GL173777  31.316  25.262   5.715
 5888POPC   GL273778  31.605  25.061   5.882
 5888POPC   C1A73779  31.151  25.073   6.101
 5888POPC   D2A73780  31.456  25.134   6.423
 5888POPC   C3A73781  31.353  25.139   6.852
 5888POPC   C4A73782  31.280  24.985   7.272
 5888POPC   C1B73783  31.935  25.058   6.222
 5888POPC   C2B73784  31.891  25.004   6.667
 5888POPC   C3B73785  31.807  25.160   7.079
 5888POPC   C4B73786  31.854  24.803   7.298
 5889POPC   NC373787  37.550  44.061   5.304
 5889POPC   PO473788  38.149  43.857   5.373
 5889POPC   GL173789  37.788  43.735   5.673
 5889POPC   GL273790  37.551  43.999   5.789
 5889POPC   C1A73791  37.572  43.573   6.058
 5889POPC   D2A73792  37.647  43.710   6.498
 5889POPC   C3A73793  37.588  43.559   6.903
 5889POPC   C4A73794  37.577  43.755   7.313
 5889POPC   C1B73795  37.379  44.027   6.170
 5889POPC   C2B73796  37.169  43.939   6.548
 5889POPC   C3B73797  37.258  43.966   6.959
 5889POPC   C4B73798  37.107  43.937   7.346
 5890POPC   NC373799  34.912   7.311   5.445
 5890POPC   PO473800  34.504   7.816   5.367
 5890POPC   GL173801  34.560   7.615   5.795
 5890POPC   GL273802  34.504   7.249   5.812
 5890POPC   C1A73803  34.428   7.516   6.269
 5890POPC   D2A73804  34.485   7.416   6.727
 5890POPC   C3A73805  34.293   7.217   7.077
 5890POPC   C4A73806  34.510   7.478   7.389
 5890POPC   C1B73807  34.846   7.225   6.149
 5890POPC   C2B73808  34.845   7.065   6.599
 5890POPC   C3B73809  34.809   7.156   7.059
 5890POPC   C4B73810  34.865   7.137   7.505
 5891POPC   NC373811   6.709   2.207   5.435
 5891POPC   PO473812   6.934   1.537   5.382
 5891POPC   GL173813   6.781   1.830   5.757
 5891POPC   GL273814   6.403   1.864   5.717
 5891POPC   C1A73815   6.730   2.138   6.128
 5891POPC   D2A73816   6.532   2.213   6.553
 5891POPC   C3A73817   6.685   1.969   6.926
 5891POPC   C4A73818   6.954   2.061   7.261
 5891POPC   C1B73819   6.205   2.031   6.112
 5891POPC   C2B73820   6.168   1.822   6.522
 5891POPC   C3B73821   6.254   1.739   6.944
 5891POPC   C4B73822   6.393   1.941   7.351
 5892POPC   NC373823  25.004   2.153   5.509
 5892POPC   PO473824  25.536   1.720   5.454
 5892POPC   GL173825  25.359   1.924   5.838
 5892POPC   GL273826  25.021   1.777   5.846
 5892POPC   C1A73827  25.438   2.266   6.181
 5892POPC   D2A73828  25.439   2.385   6.644
 5892POPC   C3A73829  25.468   2.044   6.912
 5892POPC   C4A73830  25.662   1.924   7.301
 5892POPC   C1B73831  24.948   2.040   6.182
 5892POPC   C2B73832  24.998   1.997   6.603
 5892POPC   C3B73833  24.986   2.239   6.938
 5892POPC   C4B73834  25.165   2.141   7.325
 5893POPC   NC373835  36.873   5.614   5.151
 5893POPC   PO473836  36.831   5.002   5.362
 5893POPC   GL173837  36.849   5.208   5.739
 5893POPC   GL273838  36.538   5.412   5.743
 5893POPC   C1A73839  37.042   5.039   6.130
 5893POPC   D2A73840  37.043   4.800   6.502
 5893POPC   C3A73841  37.023   5.003   6.879
 5893POPC   C4A73842  36.978   4.865   7.284
 5893POPC   C1B73843  36.571   5.246   6.174
 5893POPC   C2B73844  36.604   5.187   6.633
 5893POPC   C3B73845  36.543   5.392   7.064
 5893POPC   C4B73846  36.532   5.093   7.360
 5894POPC   NC373847  32.004   4.611   5.221
 5894POPC   PO473848  32.283   4.018   5.412
 5894POPC   GL173849  32.207   4.173   5.804
 5894POPC   GL273850  32.283   4.504   5.668
 5894POPC   C1A73851  32.068   4.117   6.253
 5894POPC   D2A73852  31.845   4.157   6.670
 5894POPC   C3A73853  32.096   4.060   7.022
 5894POPC   C4A73854  32.426   4.113   7.272
 5894POPC   C1B73855  32.085   4.600   6.079
 5894POPC   C2B73856  32.135   4.567   6.519
 5894POPC   C3B73857  32.377   4.473   6.882
 5894POPC   C4B73858  32.234   4.603   7.258
 5895POPC   NC373859  22.300  22.195   5.394
 5895POPC   PO473860  21.609  22.093   5.405
 5895POPC   GL173861  21.907  22.306   5.752
 5895POPC   GL273862  22.300  22.322   5.861
 5895POPC   C1A73863  21.956  22.209   6.195
 5895POPC   D2A73864  21.958  21.982   6.548
 5895POPC   C3A73865  22.028  22.265   6.880
 5895POPC   C4A73866  21.939  22.205   7.297
 5895POPC   C1B73867  22.558  22.454   6.166
 5895POPC   C2B73868  22.400  22.396   6.555
 5895POPC   C3B73869  22.488  22.494   6.975
 5895POPC   C4B73870  22.436  22.146   7.223
 5896POPC   NC373871  26.163  22.495   5.576
 5896POPC   PO473872  26.392  23.125   5.536
 5896POPC   GL173873  26.304  22.959   5.907
 5896POPC   GL273874  25.932  23.003   5.899
 5896POPC   C1A73875  26.264  23.147   6.315
 5896POPC   D2A73876  26.052  23.119   6.721
 5896POPC   C3A73877  26.315  23.005   7.073
 5896POPC   C4A73878  26.127  22.809   7.430
 5896POPC   C1B73879  25.976  22.703   6.240
 5896POPC   C2B73880  26.071  22.573   6.673
 5896POPC   C3B73881  25.872  22.733   7.010
 5896POPC   C4B73882  25.603  22.772   7.282
 5897POPC   NC373883   3.633  32.657   5.448
 5897POPC   PO473884   3.312  32.052   5.328
 5897POPC   GL173885   3.383  32.172   5.757
 5897POPC   GL273886   3.140  31.931   5.863
 5897POPC   C1A73887   3.599  32.445   6.109
 5897POPC   D2A73888   3.653  32.626   6.554
 5897POPC   C3A73889   3.753  32.365   6.912
 5897POPC   C4A73890   3.664  31.979   7.104
 5897POPC   C1B73891   3.222  32.101   6.290
 5897POPC   C2B73892   3.267  32.163   6.756
 5897POPC   C3B73893   3.216  32.236   7.200
 5897POPC   C4B73894   3.150  32.246   7.639
 5898POPC   NC373895  22.579  12.768   5.178
 5898POPC   PO473896  22.113  13.198   5.124
 5898POPC   GL173897  22.252  13.004   5.541
 5898POPC   GL273898  22.314  13.256   5.790
 5898POPC   C1A73899  22.183  12.764   5.963
 5898POPC   D2A73900  21.995  12.733   6.412
 5898POPC   C3A73901  22.069  12.733   6.883
 5898POPC   C4A73902  21.863  12.745   7.315
 5898POPC   C1B73903  22.153  13.215   6.231
 5898POPC   C2B73904  22.346  13.079   6.639
 5898POPC   C3B73905  22.308  13.118   7.110
 5898POPC   C4B73906  22.291  13.038   7.554
 5899POPC   NC373907  33.003  37.469   5.357
 5899POPC   PO473908  33.445  37.938   5.330
 5899POPC   GL173909  33.162  37.836   5.711
 5899POPC   GL273910  32.786  37.789   5.699
 5899POPC   C1A73911  33.078  37.683   6.141
 5899POPC   D2A73912  33.297  37.620   6.526
 5899POPC   C3A73913  33.170  37.755   6.902
 5899POPC   C4A73914  33.065  37.552   7.276
 5899POPC   C1B73915  32.607  37.907   6.112
 5899POPC   C2B73916  32.787  37.909   6.548
 5899POPC   C3B73917  32.681  37.795   7.006
 5899POPC   C4B73918  32.871  37.982   7.408
 5900POPC   NC373919  42.363  21.919   5.469
 5900POPC   PO473920  42.314  22.611   5.579
 5900POPC   GL173921  42.311  22.245   5.851
 5900POPC   GL273922  42.612  22.054   5.920
 5900POPC   C1A73923  42.233  22.123   6.261
 5900POPC   D2A73924  42.327  22.300   6.649
 5900POPC   C3A73925  42.126  22.014   6.949
 5900POPC   C4A73926  42.442  21.881   7.187
 5900POPC   C1B73927  42.653  22.465   6.162
 5900POPC   C2B73928  42.814  22.576   6.564
 5900POPC   C3B73929  42.738  22.354   6.951
 5900POPC   C4B73930  42.364  22.389   7.196
 5901POPC   NC373931  23.668   6.392   5.194
 5901POPC   PO473932  23.966   6.968   5.332
 5901POPC   GL173933  23.728   6.675   5.660
 5901POPC   GL273934  23.571   6.328   5.702
 5901POPC   C1A73935  23.823   6.575   6.105
 5901POPC   D2A73936  23.972   6.391   6.511
 5901POPC   C3A73937  23.906   6.651   6.873
 5901POPC   C4A73938  23.756   6.558   7.280
 5901POPC   C1B73939  23.338   6.431   6.085
 5901POPC   C2B73940  23.435   6.560   6.466
 5901POPC   C3B73941  23.417   6.507   6.883
 5901POPC   C4B73942  23.365   6.855   7.122
 5902POPC   NC373943  22.894  28.788   5.258
 5902POPC   PO473944  23.020  28.161   5.209
 5902POPC   GL173945  22.918  28.132   5.689
 5902POPC   GL273946  22.679  28.395   5.793
 5902POPC   C1A73947  23.083  28.266   6.124
 5902POPC   D2A73948  23.127  28.570   6.468
 5902POPC   C3A73949  23.126  28.328   6.863
 5902POPC   C4A73950  23.132  28.113   7.269
 5902POPC   C1B73951  22.614  28.477   6.268
 5902POPC   C2B73952  22.657  28.591   6.736
 5902POPC   C3B73953  22.730  28.466   7.180
 5902POPC   C4B73954  22.718  28.246   7.564
 5903POPC   NC373955  42.080  35.523   5.321
 5903POPC   PO473956  42.326  34.938   5.180
 5903POPC   GL173957  42.450  35.141   5.612
 5903POPC   GL273958  42.531  35.517   5.618
 5903POPC   C1A73959  42.276  35.188   6.076
 5903POPC   D2A73960  42.123  35.051   6.492
 5903POPC   C3A73961  42.311  35.123   6.876
 5903POPC   C4A73962  42.058  35.255   7.242
 5903POPC   C1B73963  42.451  35.666   6.054
 5903POPC   C2B73964  42.480  35.594   6.486
 5903POPC   C3B73965  42.633  35.513   6.901
 5903POPC   C4B73966  42.565  35.310   7.299
 5904POPC   NC373967  13.333  33.236   5.373
 5904POPC   PO473968  13.907  32.869   5.396
 5904POPC   GL173969  13.682  33.022   5.743
 5904POPC   GL273970  13.489  32.760   5.849
 5904POPC   C1A73971  13.800  33.116   6.171
 5904POPC   D2A73972  13.669  32.978   6.567
 5904POPC   C3A73973  13.769  33.190   6.943
 5904POPC   C4A73974  13.774  33.002   7.354
 5904POPC   C1B73975  13.315  32.973   6.182
 5904POPC   C2B73976  13.118  32.973   6.585
 5904POPC   C3B73977  13.286  33.009   6.994
 5904POPC   C4B73978  13.367  33.393   7.206
 5905POPC   NC373979  41.546  10.951   5.127
 5905POPC   PO473980  41.764  10.317   5.380
 5905POPC   GL173981  41.618  10.593   5.683
 5905POPC   GL273982  41.507  10.331   5.836
 5905POPC   C1A73983  41.791  10.678   6.120
 5905POPC   D2A73984  41.695  10.830   6.550
 5905POPC   C3A73985  41.876  10.711   6.965
 5905POPC   C4A73986  41.806  10.933   7.353
 5905POPC   C1B73987  41.334  10.315   6.205
 5905POPC   C2B73988  41.406  10.372   6.613
 5905POPC   C3B73989  41.119  10.406   6.934
 5905POPC   C4B73990  41.319  10.321   7.318
 5906POPC   NC373991  18.125  34.166   5.479
 5906POPC   PO473992  17.918  34.736   5.610
 5906POPC   GL173993  18.174  34.511   5.877
 5906POPC   GL273994  18.527  34.406   5.777
 5906POPC   C1A73995  18.352  34.696   6.234
 5906POPC   D2A73996  18.118  34.768   6.622
 5906POPC   C3A73997  18.364  34.897   6.930
 5906POPC   C4A73998  18.442  34.618   7.247
 5906POPC   C1B73999  18.432  34.153   6.144
 5906POPC   C2B74000  18.337  34.299   6.549
 5906POPC   C3B74001  18.180  34.302   6.941
 5906POPC   C4B74002  18.321  34.122   7.330
 5907POPC   NC374003  33.806  31.474   5.346
 5907POPC   PO474004  33.432  30.977   5.473
 5907POPC   GL174005  33.549  31.352   5.782
 5907POPC   GL274006  33.904  31.485   5.849
 5907POPC   C1A74007  33.521  31.731   6.081
 5907POPC   D2A74008  33.422  31.782   6.534
 5907POPC   C3A74009  33.662  31.523   6.829
 5907POPC   C4A74010  33.702  31.484   7.282
 5907POPC   C1B74011  33.890  31.415   6.319
 5907POPC   C2B74012  34.140  31.585   6.699
 5907POPC   C3B74013  34.192  31.431   7.120
 5907POPC   C4B74014  34.166  31.038   7.280
 5908POPC   NC374015   6.409  42.428   5.157
 5908POPC   PO474016   7.000  42.376   5.385
 5908POPC   GL174017   6.631  42.338   5.668
 5908POPC   GL274018   6.727  42.078   5.928
 5908POPC   C1A74019   6.410  42.432   6.087
 5908POPC   D2A74020   6.533  42.529   6.509
 5908POPC   C3A74021   6.478  42.374   6.895
 5908POPC   C4A74022   6.520  42.592   7.258
 5908POPC   C1B74023   6.934  42.396   6.233
 5908POPC   C2B74024   6.971  42.320   6.723
 5908POPC   C3B74025   6.876  42.101   7.114
 5908POPC   C4B74026   7.105  42.019   7.516
 5909POPC   NC374027   1.009   0.542   5.387
 5909POPC   PO474028   1.636   0.696   5.629
 5909POPC   GL174029   1.246   0.614   5.844
 5909POPC   GL274030   0.990   0.864   5.778
 5909POPC   C1A74031   1.116   0.400   6.237
 5909POPC   D2A74032   0.788   0.247   6.514
 5909POPC   C3A74033   0.907   0.196   6.950
 5909POPC   C4A74034   1.345   0.076   7.112
 5909POPC   C1B74035   1.171   0.958   6.198
 5909POPC   C2B74036   1.348   0.978   6.596
 5909POPC   C3B74037   1.149   0.948   6.982
 5909POPC   C4B74038   1.120   0.594   7.144
 5910POPC   NC374039  14.815  44.803   5.428
 5910POPC   PO474040  15.429  44.567   5.454
 5910POPC   GL174041  15.218  44.773   5.788
 5910POPC   GL274042  14.873  44.748   5.921
 5910POPC   C1A74043  15.244  44.852   6.226
 5910POPC   D2A74044  15.077  44.883   6.613
 5910POPC   C3A74045  15.318  44.718   6.938
 5910POPC   C4A74046  15.198  44.766   7.320
 5910POPC   C1B74047  14.648  44.409   6.140
 5910POPC   C2B74048  14.720  44.227   6.525
 5910POPC   C3B74049  14.842  44.499   6.893
 5910POPC   C4B74050  14.724  44.604   7.304
 5911POPC   NC374051  40.293  23.666   5.353
 5911POPC   PO474052  39.777  24.082   5.398
 5911POPC   GL174053  39.954  23.893   5.806
 5911POPC   GL274054  40.294  23.735   5.850
 5911POPC   C1A74055  40.031  23.864   6.270
 5911POPC   D2A74056  40.071  23.606   6.651
 5911POPC   C3A74057  40.147  23.842   7.035
 5911POPC   C4A74058  40.025  23.618   7.438
 5911POPC   C1B74059  40.319  23.421   6.199
 5911POPC   C2B74060  40.491  23.289   6.619
 5911POPC   C3B74061  40.390  23.407   7.050
 5911POPC   C4B74062  40.479  23.421   7.489
 5912POPC   NC374063  28.412  43.783   5.267
 5912POPC   PO474064  28.284  44.367   5.416
 5912POPC   GL174065  28.286  43.984   5.732
 5912POPC   GL274066  28.576  43.771   5.762
 5912POPC   C1A74067  28.260  43.798   6.158
 5912POPC   D2A74068  28.290  44.125   6.464
 5912POPC   C3A74069  28.169  44.007   6.877
 5912POPC   C4A74070  28.329  43.779   7.235
 5912POPC   C1B74071  28.726  44.007   6.120
 5912POPC   C2B74072  28.698  43.836   6.527
 5912POPC   C3B74073  28.748  43.878   6.926
 5912POPC   C4B74074  28.813  44.129   7.271
 5913POPC   NC374075  40.127  34.243   5.591
 5913POPC   PO474076  39.690  33.694   5.440
 5913POPC   GL174077  39.751  33.633   5.888
 5913POPC   GL274078  39.933  33.934   5.992
 5913POPC   C1A74079  39.999  33.427   6.224
 5913POPC   D2A74080  40.234  33.351   6.613
 5913POPC   C3A74081  40.052  33.459   7.036
 5913POPC   C4A74082  39.759  33.758   7.199
 5913POPC   C1B74083  40.115  33.914   6.407
 5913POPC   C2B74084  40.045  34.022   6.827
 5913POPC   C3B74085  40.242  34.033   7.201
 5913POPC   C4B74086  40.120  34.065   7.616
 5914POPC   NC374087  18.446  44.267   5.388
 5914POPC   PO474088  18.470  43.599   5.334
 5914POPC   GL174089  18.238  43.675   5.719
 5914POPC   GL274090  18.053  44.004   5.648
 5914POPC   C1A74091  18.330  43.777   6.163
 5914POPC   D2A74092  18.343  43.562   6.582
 5914POPC   C3A74093  18.415  43.733   7.000
 5914POPC   C4A74094  18.155  43.866   7.369
 5914POPC   C1B74095  17.858  43.943   6.049
 5914POPC   C2B74096  18.032  44.086   6.437
 5914POPC   C3B74097  18.010  43.970   6.825
 5914POPC   C4B74098  17.753  44.055   7.110
 5915POPC   NC374099  35.145  44.440   5.434
 5915POPC   PO474100  35.813  44.580   5.430
 5915POPC   GL174101  35.502  44.752   5.753
 5915POPC   GL274102  35.190  44.924   5.711
 5915POPC   C1A74103  35.336  44.647   6.189
 5915POPC   D2A74104  35.289  44.437   6.613
 5915POPC   C3A74105  35.400  44.618   7.031
 5915POPC   C4A74106  35.413  44.669   7.502
 5915POPC   C1B74107  34.924  44.955   6.090
 5915POPC   C2B74108  34.912  44.779   6.509
 5915POPC   C3B74109  34.990  44.921   6.925
 5915POPC   C4B74110  35.154   0.044   7.338
 5916POPC   NC374111  11.132  15.726   5.452
 5916POPC   PO474112  10.437  15.885   5.422
 5916POPC   GL174113  10.534  16.023   5.826
 5916POPC   GL274114  10.393  15.767   6.055
 5916POPC   C1A74115  10.463  16.271   6.199
 5916POPC   D2A74116  10.210  16.045   6.467
 5916POPC   C3A74117  10.359  15.884   6.824
 5916POPC   C4A74118  10.260  15.800   7.181
 5916POPC   C1B74119  10.728  15.860   6.350
 5916POPC   C2B74120  10.879  15.836   6.781
 5916POPC   C3B74121  10.891  15.958   7.205
 5916POPC   C4B74122  10.993  15.848   7.643
 5917POPC   NC374123  33.225   6.962   5.379
 5917POPC   PO474124  32.762   6.503   5.428
 5917POPC   GL174125  33.150   6.535   5.664
 5917POPC   GL274126  33.162   6.238   5.827
 5917POPC   C1A74127  33.182   6.706   6.086
 5917POPC   D2A74128  33.019   6.561   6.495
 5917POPC   C3A74129  33.144   6.758   6.891
 5917POPC   C4A74130  32.965   6.655   7.280
 5917POPC   C1B74131  33.421   6.271   6.182
 5917POPC   C2B74132  33.495   6.437   6.585
 5917POPC   C3B74133  33.334   6.285   6.968
 5917POPC   C4B74134  33.236   6.206   7.380
 5918POPC   NC374135  32.773   0.293   5.434
 5918POPC   PO474136  33.468   0.450   5.418
 5918POPC   GL174137  33.184   0.417   5.751
 5918POPC   GL274138  32.958   0.151   5.898
 5918POPC   C1A74139  33.255   0.530   6.147
 5918POPC   D2A74140  33.141   0.286   6.475
 5918POPC   C3A74141  33.146   0.530   6.812
 5918POPC   C4A74142  33.235   0.441   7.204
 5918POPC   C1B74143  32.746   0.437   6.162
 5918POPC   C2B74144  32.648   0.630   6.557
 5918POPC   C3B74145  32.687   0.722   6.973
 5918POPC   C4B74146  32.740   0.408   7.252
 5919POPC   NC374147  26.110  24.860   5.406
 5919POPC   PO474148  26.140  25.515   5.173
 5919POPC   GL174149  26.232  25.445   5.671
 5919POPC   GL274150  26.068  25.150   5.849
 5919POPC   C1A74151  26.442  25.425   6.127
 5919POPC   D2A74152  26.565  25.240   6.570
 5919POPC   C3A74153  26.382  25.143   7.010
 5919POPC   C4A74154  26.402  25.291   7.485
 5919POPC   C1B74155  26.018  25.219   6.305
 5919POPC   C2B74156  25.733  25.090   6.615
 5919POPC   C3B74157  25.794  24.972   7.003
 5919POPC   C4B74158  25.961  25.260   7.268
 5920POPC   NC374159  39.209  17.063   5.368
 5920POPC   PO474160  38.806  16.564   5.156
 5920POPC   GL174161  39.058  16.667   5.628
 5920POPC   GL274162  39.314  16.473   5.796
 5920POPC   C1A74163  39.092  16.836   6.092
 5920POPC   D2A74164  38.972  16.704   6.544
 5920POPC   C3A74165  39.120  16.813   6.977
 5920POPC   C4A74166  39.361  16.976   7.341
 5920POPC   C1B74167  39.322  16.414   6.286
 5920POPC   C2B74168  39.342  16.377   6.775
 5920POPC   C3B74169  39.410  16.466   7.245
 5920POPC   C4B74170  39.423  16.429   7.723
 5921POPC   NC374171  43.661  34.832   5.515
 5921POPC   PO474172  44.201  34.440   5.366
 5921POPC   GL174173  44.065  34.687   5.754
 5921POPC   GL274174  43.857  34.407   5.792
 5921POPC   C1A74175  43.865  34.780   6.169
 5921POPC   D2A74176  43.828  34.556   6.563
 5921POPC   C3A74177  43.826  34.737   6.971
 5921POPC   C4A74178  43.542  34.673   7.329
 5921POPC   C1B74179  44.072  34.270   6.165
 5921POPC   C2B74180  44.141  34.141   6.601
 5921POPC   C3B74181  44.015  34.244   7.049
 5921POPC   C4B74182  43.997  34.193   7.520
 5922POPC   NC374183  38.328   3.902   5.476
 5922POPC   PO474184  38.679   4.418   5.302
 5922POPC   GL174185  38.682   4.180   5.740
 5922POPC   GL274186  38.333   4.142   5.922
 5922POPC   C1A74187  38.776   4.323   6.176
 5922POPC   D2A74188  38.631   4.194   6.584
 5922POPC   C3A74189  38.795   4.342   6.919
 5922POPC   C4A74190  38.690   4.346   7.329
 5922POPC   C1B74191  38.291   4.424   6.267
 5922POPC   C2B74192  38.207   4.518   6.663
 5922POPC   C3B74193  38.314   4.271   6.988
 5922POPC   C4B74194  38.152   4.007   7.222
 5923POPC   NC374195  42.827   0.104   5.700
 5923POPC   PO474196  43.354   0.404   5.360
 5923POPC   GL174197  43.139   0.545   5.703
 5923POPC   GL274198  43.214   0.876   5.672
 5923POPC   C1A74199  43.199   0.489   6.151
 5923POPC   D2A74200  43.095   0.214   6.493
 5923POPC   C3A74201  43.119   0.412   6.883
 5923POPC   C4A74202  42.892   0.269   7.226
 5923POPC   C1B74203  43.424   0.960   6.106
 5923POPC   C2B74204  43.446   0.752   6.561
 5923POPC   C3B74205  43.340   0.847   7.032
 5923POPC   C4B74206  43.363   0.750   7.529
 5924POPC   NC374207  26.607  37.633   5.038
 5924POPC   PO474208  27.172  37.812   5.335
 5924POPC   GL174209  26.946  37.785   5.752
 5924POPC   GL274210  27.061  38.022   6.007
 5924POPC   C1A74211  26.793  37.617   6.186
 5924POPC   D2A74212  27.034  37.425   6.545
 5924POPC   C3A74213  27.156  37.511   6.985
 5924POPC   C4A74214  26.965  37.330   7.353
 5924POPC   C1B74215  27.035  38.031   6.445
 5924POPC   C2B74216  26.716  37.827   6.657
 5924POPC   C3B74217  26.644  37.586   7.019
 5924POPC   C4B74218  26.562  37.786   7.408
 5925POPC   NC374219   5.541  33.911   5.310
 5925POPC   PO474220   4.951  33.783   5.161
 5925POPC   GL174221   5.154  33.844   5.667
 5925POPC   GL274222   5.392  33.637   5.792
 5925POPC   C1A74223   5.053  33.940   6.133
 5925POPC   D2A74224   4.901  33.706   6.532
 5925POPC   C3A74225   4.982  33.870   6.962
 5925POPC   C4A74226   5.301  33.812   7.238
 5925POPC   C1B74227   5.119  33.432   6.129
 5925POPC   C2B74228   5.197  33.226   6.489
 5925POPC   C3B74229   5.246  33.437   6.849
 5925POPC   C4B74230   4.911  33.390   7.141
 5926POPC   NC374231  29.734  18.603   5.382
 5926POPC   PO474232  30.002  17.898   5.281
 5926POPC   GL174233  29.938  18.162   5.648
 5926POPC   GL274234  29.781  17.980   5.903
 5926POPC   C1A74235  29.940  18.456   6.013
 5926POPC   D2A74236  29.768  18.613   6.417
 5926POPC   C3A74237  29.876  18.552   6.869
 5926POPC   C4A74238  29.870  18.428   7.300
 5926POPC   C1B74239  30.091  17.981   6.201
 5926POPC   C2B74240  30.062  18.134   6.597
 5926POPC   C3B74241  30.149  18.097   7.020
 5926POPC   C4B74242  29.835  17.932   7.288
 5927POPC   NC374243  13.795  35.384   5.339
 5927POPC   PO474244  13.133  35.321   5.387
 5927POPC   GL174245  13.470  35.331   5.742
 5927POPC   GL274246  13.575  34.997   5.857
 5927POPC   C1A74247  13.723  35.407   6.159
 5927POPC   D2A74248  13.876  35.309   6.602
 5927POPC   C3A74249  13.538  35.345   6.878
 5927POPC   C4A74250  13.555  35.674   7.106
 5927POPC   C1B74251  13.289  35.120   6.214
 5927POPC   C2B74252  13.143  35.098   6.670
 5927POPC   C3B74253  13.220  34.982   7.125
 5927POPC   C4B74254  13.525  35.104   7.426
 5928POPC   NC374255  31.415   1.299   5.346
 5928POPC   PO474256  31.868   0.886   5.385
 5928POPC   GL174257  31.702   1.194   5.780
 5928POPC   GL274258  31.318   1.231   5.855
 5928POPC   C1A74259  31.637   1.445   6.231
 5928POPC   D2A74260  31.586   1.698   6.678
 5928POPC   C3A74261  31.742   1.598   7.124
 5928POPC   C4A74262  31.696   1.747   7.573
 5928POPC   C1B74263  31.156   0.970   6.240
 5928POPC   C2B74264  31.037   0.987   6.698
 5928POPC   C3B74265  31.265   1.009   7.123
 5928POPC   C4B74266  31.299   1.338   7.515
 5929POPC   NC374267  31.837  25.302   5.504
 5929POPC   PO474268  32.443  25.071   5.448
 5929POPC   GL174269  32.449  25.258   5.816
 5929POPC   GL274270  32.138  25.386   5.892
 5929POPC   C1A74271  32.421  25.236   6.270
 5929POPC   D2A74272  32.342  25.459   6.602
 5929POPC   C3A74273  32.296  25.207   6.924
 5929POPC   C4A74274  32.453  25.389   7.239
 5929POPC   C1B74275  31.805  25.557   6.158
 5929POPC   C2B74276  31.825  25.517   6.606
 5929POPC   C3B74277  32.029  25.651   6.987
 5929POPC   C4B74278  31.914  25.571   7.396
 5930POPC   NC374279  38.084   1.542   5.395
 5930POPC   PO474280  37.451   1.397   5.417
 5930POPC   GL174281  37.483   1.522   5.836
 5930POPC   GL274282  37.782   1.707   5.759
 5930POPC   C1A74283  37.458   1.382   6.298
 5930POPC   D2A74284  37.529   1.368   6.771
 5930POPC   C3A74285  37.692   1.035   7.063
 5930POPC   C4A74286  37.770   0.729   7.397
 5930POPC   C1B74287  37.957   1.564   6.126
 5930POPC   C2B74288  37.852   1.682   6.521
 5930POPC   C3B74289  37.833   1.782   6.907
 5930POPC   C4B74290  37.702   1.520   7.250
 5931POPC   NC374291  10.115  40.544   5.363
 5931POPC   PO474292  10.490  41.023   5.312
 5931POPC   GL174293  10.552  40.769   5.697
 5931POPC   GL274294  10.775  41.002   5.869
 5931POPC   C1A74295  10.492  40.709   6.171
 5931POPC   D2A74296  10.462  40.917   6.608
 5931POPC   C3A74297  10.306  40.706   6.984
 5931POPC   C4A74298  10.373  40.577   7.395
 5931POPC   C1B74299  10.979  41.057   6.285
 5931POPC   C2B74300  10.929  41.066   6.742
 5931POPC   C3B74301  10.698  41.053   7.124
 5931POPC   C4B74302  11.019  41.168   7.428
 5932POPC   NC374303  27.133  17.948   5.409
 5932POPC   PO474304  27.800  18.137   5.358
 5932POPC   GL174305  27.695  18.241   5.776
 5932POPC   GL274306  27.344  18.297   5.806
 5932POPC   C1A74307  27.861  18.244   6.190
 5932POPC   D2A74308  27.835  18.560   6.510
 5932POPC   C3A74309  27.625  18.472   6.887
 5932POPC   C4A74310  27.735  18.692   7.255
 5932POPC   C1B74311  27.379  18.435   6.244
 5932POPC   C2B74312  27.132  18.222   6.570
 5932POPC   C3B74313  27.217  18.118   6.982
 5932POPC   C4B74314  27.277  18.443   7.250
 5933POPC   NC374315   8.819   1.523   5.491
 5933POPC   PO474316   9.396   1.358   5.395
 5933POPC   GL174317   9.173   1.228   5.764
 5933POPC   GL274318   9.214   1.570   5.857
 5933POPC   C1A74319   8.898   1.258   6.158
 5933POPC   D2A74320   8.720   1.023   6.512
 5933POPC   C3A74321   8.907   0.994   6.922
 5933POPC   C4A74322   8.780   1.295   7.206
 5933POPC   C1B74323   9.404   1.341   6.225
 5933POPC   C2B74324   9.270   1.207   6.613
 5933POPC   C3B74325   9.226   1.419   6.997
 5933POPC   C4B74326   9.481   1.437   7.347
 5934POPC   NC374327   5.644   9.989   5.544
 5934POPC   PO474328   5.967   9.468   5.276
 5934POPC   GL174329   5.946   9.605   5.703
 5934POPC   GL274330   6.143   9.897   5.734
 5934POPC   C1A74331   5.815   9.655   6.159
 5934POPC   D2A74332   5.848   9.909   6.547
 5934POPC   C3A74333   5.862   9.726   6.952
 5934POPC   C4A74334   5.840   9.922   7.364
 5934POPC   C1B74335   6.216   9.984   6.176
 5934POPC   C2B74336   6.311  10.119   6.599
 5934POPC   C3B74337   6.198  10.110   7.009
 5934POPC   C4B74338   6.298  10.120   7.451
 5935POPC   NC374339  20.893  37.161   5.450
 5935POPC   PO474340  20.358  36.741   5.522
 5935POPC   GL174341  20.636  36.901   5.810
 5935POPC   GL274342  20.927  36.696   5.719
 5935POPC   C1A74343  20.616  37.095   6.205
 5935POPC   D2A74344  20.603  36.842   6.568
 5935POPC   C3A74345  20.512  37.049   6.889
 5935POPC   C4A74346  20.486  36.952   7.252
 5935POPC   C1B74347  20.974  36.724   6.191
 5935POPC   C2B74348  21.089  36.843   6.626
 5935POPC   C3B74349  20.969  36.775   7.066
 5935POPC   C4B74350  20.907  36.900   7.515
 5936POPC   NC374351   0.145  39.016   5.414
 5936POPC   PO474352   0.836  39.133   5.514
 5936POPC   GL174353   0.602  39.284   5.922
 5936POPC   GL274354   0.274  39.267   5.861
 5936POPC   C1A74355   0.539  39.415   6.356
 5936POPC   D2A74356   0.811  39.097   6.572
 5936POPC   C3A74357   0.763  39.058   7.025
 5936POPC   C4A74358   0.742  39.307   7.453
 5936POPC   C1B74359   0.330  38.978   6.248
 5936POPC   C2B74360   0.332  39.075   6.730
 5936POPC   C3B74361   0.358  39.384   7.112
 5936POPC   C4B74362   0.222  39.328   7.571
 5937POPC   NC374363   1.635  40.988   5.365
 5937POPC   PO474364   2.228  40.994   5.507
 5937POPC   GL174365   1.931  40.944   5.798
 5937POPC   GL274366   1.732  40.651   5.766
 5937POPC   C1A74367   2.100  40.904   6.197
 5937POPC   D2A74368   2.117  41.132   6.546
 5937POPC   C3A74369   2.260  40.882   6.907
 5937POPC   C4A74370   1.962  40.731   7.239
 5937POPC   C1B74371   1.601  40.787   6.195
 5937POPC   C2B74372   1.742  40.714   6.633
 5937POPC   C3B74373   1.500  40.702   7.049
 5937POPC   C4B74374   1.532  40.680   7.523
 5938POPC   NC374375   3.078   3.119   5.021
 5938POPC   PO474376   2.550   3.498   5.313
 5938POPC   GL174377   2.658   3.533   5.752
 5938POPC   GL274378   2.975   3.360   5.872
 5938POPC   C1A74379   2.511   3.716   6.160
 5938POPC   D2A74380   2.333   3.603   6.575
 5938POPC   C3A74381   2.637   3.645   6.898
 5938POPC   C4A74382   2.704   3.673   7.323
 5938POPC   C1B74383   2.819   3.247   6.286
 5938POPC   C2B74384   2.874   3.187   6.751
 5938POPC   C3B74385   2.817   3.151   7.216
 5938POPC   C4B74386   2.917   3.325   7.661
 5939POPC   NC374387  19.273  11.084   5.353
 5939POPC   PO474388  18.893  11.482   5.695
 5939POPC   GL174389  18.952  11.161   5.928
 5939POPC   GL274390  19.277  11.021   5.852
 5939POPC   C1A74391  19.093  11.296   6.312
 5939POPC   D2A74392  19.255  11.509   6.645
 5939POPC   C3A74393  18.908  11.421   6.892
 5939POPC   C4A74394  19.003  11.488   7.260
 5939POPC   C1B74395  19.287  10.831   6.234
 5939POPC   C2B74396  19.395  11.019   6.625
 5939POPC   C3B74397  19.269  11.089   7.022
 5939POPC   C4B74398  19.176  10.811   7.319
 5940POPC   NC374399  18.117  26.553   5.095
 5940POPC   PO474400  18.391  25.995   5.408
 5940POPC   GL174401  18.343  25.974   5.828
 5940POPC   GL274402  17.961  26.000   5.827
 5940POPC   C1A74403  18.566  25.917   6.230
 5940POPC   D2A74404  18.736  25.986   6.629
 5940POPC   C3A74405  18.574  26.256   6.943
 5940POPC   C4A74406  18.334  26.029   7.238
 5940POPC   C1B74407  18.113  26.175   6.232
 5940POPC   C2B74408  18.185  26.038   6.637
 5940POPC   C3B74409  17.886  25.985   6.934
 5940POPC   C4B74410  17.858  26.176   7.301
 5941POPC   NC374411  26.908  26.461   5.426
 5941POPC   PO474412  26.508  25.950   5.669
 5941POPC   GL174413  26.812  26.185   5.837
 5941POPC   GL274414  26.635  26.525   5.843
 5941POPC   C1A74415  26.999  26.022   6.193
 5941POPC   D2A74416  26.804  25.974   6.602
 5941POPC   C3A74417  27.028  26.085   6.975
 5941POPC   C4A74418  26.816  26.069   7.364
 5941POPC   C1B74419  26.612  26.405   6.251
 5941POPC   C2B74420  26.484  26.474   6.631
 5941POPC   C3B74421  26.513  26.256   6.985
 5941POPC   C4B74422  26.578  26.502   7.334
 5942POPC   NC374423  27.498  19.492   5.410
 5942POPC   PO474424  27.894  19.993   5.467
 5942POPC   GL174425  27.644  19.944   5.838
 5942POPC   GL274426  27.927  20.181   5.932
 5942POPC   C1A74427  27.488  19.618   6.209
 5942POPC   D2A74428  27.422  19.486   6.688
 5942POPC   C3A74429  27.459  19.819   6.996
 5942POPC   C4A74430  27.272  19.852   7.399
 5942POPC   C1B74431  27.985  19.799   6.175
 5942POPC   C2B74432  27.814  19.820   6.557
 5942POPC   C3B74433  27.906  19.574   6.838
 5942POPC   C4B74434  27.950  19.751   7.182
 5943POPC   NC374435  17.585   9.494   5.363
 5943POPC   PO474436  17.481  10.152   5.432
 5943POPC   GL174437  17.309   9.938   5.805
 5943POPC   GL274438  17.451   9.584   5.854
 5943POPC   C1A74439  17.289   9.843   6.256
 5943POPC   D2A74440  17.520   9.559   6.525
 5943POPC   C3A74441  17.319   9.596   6.906
 5943POPC   C4A74442  17.233   9.863   7.266
 5943POPC   C1B74443  17.761   9.872   6.102
 5943POPC   C2B74444  17.692  10.034   6.535
 5943POPC   C3B74445  17.643   9.986   6.968
 5943POPC   C4B74446  17.953   9.922   7.262
 5944POPC   NC374447  43.338  22.391   5.373
 5944POPC   PO474448  42.841  21.912   5.471
 5944POPC   GL174449  43.083  22.193   5.781
 5944POPC   GL274450  43.083  22.570   5.858
 5944POPC   C1A74451  43.088  22.190   6.241
 5944POPC   D2A74452  43.266  22.277   6.665
 5944POPC   C3A74453  43.165  22.110   7.081
 5944POPC   C4A74454  43.195  22.168   7.524
 5944POPC   C1B74455  43.299  22.666   6.290
 5944POPC   C2B74456  43.683  22.573   6.573
 5944POPC   C3B74457  43.674  22.407   7.012
 5944POPC   C4B74458  43.362  22.595   7.294
 5945POPC   NC374459  20.359  10.781   5.297
 5945POPC   PO474460  20.942  10.359   5.319
 5945POPC   GL174461  21.020  10.261   5.768
 5945POPC   GL274462  20.699  10.427   5.846
 5945POPC   C1A74463  20.935  10.282   6.256
 5945POPC   D2A74464  20.669  10.497   6.554
 5945POPC   C3A74465  20.599  10.309   6.955
 5945POPC   C4A74466  20.504  10.649   7.196
 5945POPC   C1B74467  20.421  10.213   6.169
 5945POPC   C2B74468  20.234  10.186   6.590
 5945POPC   C3B74469  20.172   9.997   6.973
 5945POPC   C4B74470  20.078  10.198   7.383
 5946POPC   NC374471  43.860  20.187   5.418
 5946POPC   PO474472  44.078  19.588   5.396
 5946POPC   GL174473  44.050  19.832   5.764
 5946POPC   GL274474  43.700  19.953   5.836
 5946POPC   C1A74475  44.248  19.861   6.168
 5946POPC   D2A74476  44.191  20.015   6.573
 5946POPC   C3A74477  43.923  19.741   6.840
 5946POPC   C4A74478  43.714  19.522   7.179
 5946POPC   C1B74479  43.849  20.191   6.174
 5946POPC   C2B74480  43.665  20.236   6.554
 5946POPC   C3B74481  43.865  20.259   6.903
 5946POPC   C4B74482  43.721  20.025   7.226
 5947POPC   NC374483  29.840  32.080   5.253
 5947POPC   PO474484  29.398  32.539   5.549
 5947POPC   GL174485  29.657  32.296   5.812
 5947POPC   GL274486  29.968  32.148   5.748
 5947POPC   C1A74487  29.895  32.428   6.183
 5947POPC   D2A74488  30.113  32.240   6.534
 5947POPC   C3A74489  30.014  32.414   6.938
 5947POPC   C4A74490  30.093  32.151   7.288
 5947POPC   C1B74491  29.809  31.938   6.138
 5947POPC   C2B74492  29.616  32.093   6.521
 5947POPC   C3B74493  29.727  31.996   6.941
 5947POPC   C4B74494  29.541  31.876   7.318
 5948POPC   NC374495  16.997   0.567   5.445
 5948POPC   PO474496  17.424   0.146   5.347
 5948POPC   GL174497  17.528   0.428   5.753
 5948POPC   GL274498  17.359   0.767   5.776
 5948POPC   C1A74499  17.468   0.481   6.238
 5948POPC   D2A74500  17.351   0.683   6.671
 5948POPC   C3A74501  17.406   0.489   7.084
 5948POPC   C4A74502  17.384   0.654   7.527
 5948POPC   C1B74503  17.757   0.865   6.008
 5948POPC   C2B74504  17.834   0.836   6.456
 5948POPC   C3B74505  17.849   0.666   6.906
 5948POPC   C4B74506  17.864   0.702   7.377
 5949POPC   NC374507  33.624   4.084   5.202
 5949POPC   PO474508  34.009   4.507   5.525
 5949POPC   GL174509  33.727   4.328   5.802
 5949POPC   GL274510  33.578   4.000   5.694
 5949POPC   C1A74511  33.820   4.374   6.232
 5949POPC   D2A74512  34.113   4.169   6.494
 5949POPC   C3A74513  34.186   4.273   6.915
 5949POPC   C4A74514  33.972   4.355   7.322
 5949POPC   C1B74515  33.569   3.915   6.121
 5949POPC   C2B74516  33.538   4.074   6.549
 5949POPC   C3B74517  33.663   4.150   7.000
 5949POPC   C4B74518  33.519   4.104   7.473
 5950POPC   NC374519  26.760   2.797   5.283
 5950POPC   PO474520  27.120   2.290   5.307
 5950POPC   GL174521  26.984   2.558   5.684
 5950POPC   GL274522  27.282   2.636   5.841
 5950POPC   C1A74523  26.817   2.804   6.081
 5950POPC   D2A74524  26.816   2.794   6.526
 5950POPC   C3A74525  27.062   2.976   6.841
 5950POPC   C4A74526  26.872   2.958   7.204
 5950POPC   C1B74527  27.068   2.381   6.169
 5950POPC   C2B74528  27.227   2.489   6.580
 5950POPC   C3B74529  27.010   2.476   6.948
 5950POPC   C4B74530  27.056   2.532   7.366
 5951POPC   NC374531  26.879  34.898   5.509
 5951POPC   PO474532  27.209  34.324   5.296
 5951POPC   GL174533  26.999  34.411   5.709
 5951POPC   GL274534  26.676  34.262   5.775
 5951POPC   C1A74535  26.825  34.596   6.134
 5951POPC   D2A74536  26.938  34.801   6.525
 5951POPC   C3A74537  26.788  34.640   6.910
 5951POPC   C4A74538  27.069  34.571   7.245
 5951POPC   C1B74539  26.497  34.185   6.205
 5951POPC   C2B74540  26.413  34.346   6.626
 5951POPC   C3B74541  26.499  34.222   7.059
 5951POPC   C4B74542  26.584  34.372   7.464
 5952POPC   NC374543   3.137  28.735   5.376
 5952POPC   PO474544   2.485  28.452   5.396
 5952POPC   GL174545   2.714  28.534   5.788
 5952POPC   GL274546   2.894  28.226   5.880
 5952POPC   C1A74547   2.461  28.680   6.179
 5952POPC   D2A74548   2.279  28.493   6.552
 5952POPC   C3A74549   2.479  28.536   6.938
 5952POPC   C4A74550   2.816  28.543   7.234
 5952POPC   C1B74551   2.822  28.336   6.287
 5952POPC   C2B74552   2.699  28.167   6.645
 5952POPC   C3B74553   2.876  28.066   7.027
 5952POPC   C4B74554   3.227  28.211   7.251
 5953POPC   NC374555   5.648  43.644   5.560
 5953POPC   PO474556   6.245  43.936   5.391
 5953POPC   GL174557   5.985  43.994   5.758
 5953POPC   GL274558   5.642  44.171   5.778
 5953POPC   C1A74559   6.060  43.822   6.151
 5953POPC   D2A74560   6.076  43.946   6.565
 5953POPC   C3A74561   5.942  43.646   6.873
 5953POPC   C4A74562   5.854  43.694   7.295
 5953POPC   C1B74563   5.665  44.142   6.243
 5953POPC   C2B74564   5.565  43.939   6.633
 5953POPC   C3B74565   5.606  44.055   7.049
 5953POPC   C4B74566   5.431  43.929   7.438
 5954POPC   NC374567  19.386  39.793   5.272
 5954POPC   PO474568  18.955  40.254   5.423
 5954POPC   GL174569  19.161  39.984   5.757
 5954POPC   GL274570  18.967  39.706   5.937
 5954POPC   C1A74571  19.208  40.058   6.227
 5954POPC   D2A74572  18.967  39.808   6.552
 5954POPC   C3A74573  18.775  39.945   6.956
 5954POPC   C4A74574  18.618  39.791   7.340
 5954POPC   C1B74575  19.322  39.560   6.233
 5954POPC   C2B74576  19.521  39.734   6.571
 5954POPC   C3B74577  19.361  39.679   6.954
 5954POPC   C4B74578  19.132  39.727   7.320
 5955POPC   NC374579  34.333   8.232   5.206
 5955POPC   PO474580  33.683   8.123   5.397
 5955POPC   GL174581  33.716   8.107   5.814
 5955POPC   GL274582  33.428   8.226   5.848
 5955POPC   C1A74583  33.924   8.275   6.188
 5955POPC   D2A74584  34.087   8.389   6.546
 5955POPC   C3A74585  34.014   8.196   6.888
 5955POPC   C4A74586  33.930   8.210   7.291
 5955POPC   C1B74587  33.477   8.017   6.231
 5955POPC   C2B74588  33.569   8.253   6.587
 5955POPC   C3B74589  33.534   8.074   6.964
 5955POPC   C4B74590  33.396   8.175   7.312
 5956POPC   NC374591  33.778  17.461   5.587
 5956POPC   PO474592  33.273  17.874   5.442
 5956POPC   GL174593  33.531  17.798   5.886
 5956POPC   GL274594  33.926  17.768   5.951
 5956POPC   C1A74595  33.557  17.648   6.328
 5956POPC   D2A74596  33.580  17.504   6.771
 5956POPC   C3A74597  33.784  17.817   7.006
 5956POPC   C4A74598  34.241  17.848   6.912
 5956POPC   C1B74599  34.025  17.403   6.240
 5956POPC   C2B74600  33.999  17.192   6.654
 5956POPC   C3B74601  33.977  17.344   7.092
 5956POPC   C4B74602  33.851  17.093   7.450
 5957POPC   NC374603  31.413  30.308   5.392
 5957POPC   PO474604  31.409  29.694   5.291
 5957POPC   GL174605  31.515  29.871   5.669
 5957POPC   GL274606  31.820  29.675   5.755
 5957POPC   C1A74607  31.314  29.920   6.093
 5957POPC   D2A74608  31.168  29.853   6.519
 5957POPC   C3A74609  31.379  29.854   6.897
 5957POPC   C4A74610  31.296  29.449   7.005
 5957POPC   C1B74611  31.803  30.004   6.067
 5957POPC   C2B74612  31.699  30.003   6.517
 5957POPC   C3B74613  31.844  30.105   6.931
 5957POPC   C4B74614  31.777  30.476   7.192
 5958POPC   NC374615  18.958  38.897   5.155
 5958POPC   PO474616  18.919  38.224   5.367
 5958POPC   GL174617  18.876  38.236   5.810
 5958POPC   GL274618  18.830  38.610   5.850
 5958POPC   C1A74619  19.144  38.292   6.176
 5958POPC   D2A74620  19.057  38.388   6.615
 5958POPC   C3A74621  19.261  38.392   6.991
 5958POPC   C4A74622  18.982  38.257   7.281
 5958POPC   C1B74623  18.959  38.748   6.254
 5958POPC   C2B74624  18.750  38.798   6.628
 5958POPC   C3B74625  18.694  38.573   6.998
 5958POPC   C4B74626  19.005  38.770   7.235
 5959POPC   NC374627  34.017  32.289   5.407
 5959POPC   PO474628  33.512  31.872   5.380
 5959POPC   GL174629  33.600  32.149   5.723
 5959POPC   GL274630  33.902  32.015   5.880
 5959POPC   C1A74631  33.534  32.247   6.175
 5959POPC   D2A74632  33.460  32.289   6.630
 5959POPC   C3A74633  33.696  32.499   6.966
 5959POPC   C4A74634  33.805  32.380   7.405
 5959POPC   C1B74635  33.909  31.928   6.360
 5959POPC   C2B74636  33.938  32.052   6.809
 5959POPC   C3B74637  34.197  32.345   7.089
 5959POPC   C4B74638  34.318  32.586   7.474
 5960POPC   NC374639  39.815  26.022   5.401
 5960POPC   PO474640  40.389  26.382   5.535
 5960POPC   GL174641  40.132  26.145   5.854
 5960POPC   GL274642  39.943  25.848   5.862
 5960POPC   C1A74643  39.969  26.064   6.296
 5960POPC   D2A74644  39.977  26.305   6.627
 5960POPC   C3A74645  40.205  26.221   6.954
 5960POPC   C4A74646  39.967  26.114   7.312
 5960POPC   C1B74647  39.576  25.753   6.168
 5960POPC   C2B74648  39.616  25.673   6.655
 5960POPC   C3B74649  39.626  25.674   7.142
 5960POPC   C4B74650  39.626  25.809   7.605
 5961POPC   NC374651  42.135   8.461   5.600
 5961POPC   PO474652  42.711   8.710   5.527
 5961POPC   GL174653  42.443   8.964   5.772
 5961POPC   GL274654  42.378   8.698   5.969
 5961POPC   C1A74655  42.126   9.153   6.091
 5961POPC   D2A74656  41.861   9.256   6.471
 5961POPC   C3A74657  42.063   9.252   6.878
 5961POPC   C4A74658  41.927   9.126   7.295
 5961POPC   C1B74659  42.557   8.929   6.285
 5961POPC   C2B74660  42.420   8.919   6.705
 5961POPC   C3B74661  42.313   8.865   7.124
 5961POPC   C4B74662  42.371   8.925   7.566
 5962POPC   NC374663   7.026  26.828   5.232
 5962POPC   PO474664   7.696  27.118   5.231
 5962POPC   GL174665   7.468  26.901   5.628
 5962POPC   GL274666   7.623  26.633   5.771
 5962POPC   C1A74667   7.252  26.830   6.071
 5962POPC   D2A74668   7.059  26.649   6.463
 5962POPC   C3A74669   7.293  26.788   6.873
 5962POPC   C4A74670   7.165  26.977   7.271
 5962POPC   C1B74671   7.742  26.761   6.143
 5962POPC   C2B74672   7.582  26.626   6.489
 5962POPC   C3B74673   7.675  26.428   6.861
 5962POPC   C4B74674   7.690  26.636   7.253
 5963POPC   NC374675  21.440   5.520   5.500
 5963POPC   PO474676  21.309   4.855   5.407
 5963POPC   GL174677  21.335   5.027   5.826
 5963POPC   GL274678  21.120   5.304   5.873
 5963POPC   C1A74679  21.321   4.936   6.285
 5963POPC   D2A74680  21.173   4.940   6.726
 5963POPC   C3A74681  21.472   4.900   7.069
 5963POPC   C4A74682  21.682   5.267   7.291
 5963POPC   C1B74683  21.393   5.449   6.192
 5963POPC   C2B74684  21.539   5.349   6.602
 5963POPC   C3B74685  21.332   5.423   6.975
 5963POPC   C4B74686  21.125   5.191   7.288
 5964POPC   NC374687  38.043  38.745   5.584
 5964POPC   PO474688  37.359  38.811   5.550
 5964POPC   GL174689  37.505  38.993   5.901
 5964POPC   GL274690  37.777  39.093   5.858
 5964POPC   C1A74691  37.375  39.028   6.308
 5964POPC   D2A74692  37.270  38.878   6.680
 5964POPC   C3A74693  37.590  38.955   6.944
 5964POPC   C4A74694  37.684  39.108   7.326
 5964POPC   C1B74695  37.907  38.918   6.232
 5964POPC   C2B74696  38.122  39.036   6.576
 5964POPC   C3B74697  38.074  39.267   6.939
 5964POPC   C4B74698  38.165  39.013   7.271
 5965POPC   NC374699  12.297   0.034   5.542
 5965POPC   PO474700  11.830   0.492   5.364
 5965POPC   GL174701  11.813   0.387   5.791
 5965POPC   GL274702  12.150   0.480   5.818
 5965POPC   C1A74703  11.903   0.282   6.220
 5965POPC   D2A74704  12.168   0.364   6.584
 5965POPC   C3A74705  12.016   0.427   6.985
 5965POPC   C4A74706  11.627   0.447   7.176
 5965POPC   C1B74707  12.333   0.679   6.196
 5965POPC   C2B74708  12.530   0.722   6.611
 5965POPC   C3B74709  12.350   0.828   6.989
 5965POPC   C4B74710  12.340   0.611   7.341
 5966POPC   NC374711  25.460  14.461   5.533
 5966POPC   PO474712  24.841  14.572   5.390
 5966POPC   GL174713  25.038  14.593   5.815
 5966POPC   GL274714  25.115  14.251   5.859
 5966POPC   C1A74715  25.025  14.475   6.314
 5966POPC   D2A74716  25.149  14.130   6.626
 5966POPC   C3A74717  25.154  14.258   7.060
 5966POPC   C4A74718  24.977  14.219   7.478
 5966POPC   C1B74719  25.418  14.183   6.192
 5966POPC   C2B74720  25.572  14.405   6.588
 5966POPC   C3B74721  25.561  14.583   7.023
 5966POPC   C4B74722  25.567  14.335   7.408
 5967POPC   NC374723  17.953  28.295   5.111
 5967POPC   PO474724  17.374  28.239   5.448
 5967POPC   GL174725  17.417  28.488   5.797
 5967POPC   GL274726  17.156  28.277   5.938
 5967POPC   C1A74727  17.439  28.586   6.237
 5967POPC   D2A74728  17.463  28.352   6.620
 5967POPC   C3A74729  17.257  28.466   6.983
 5967POPC   C4A74730  17.377  28.522   7.395
 5967POPC   C1B74731  17.458  28.041   6.215
 5967POPC   C2B74732  17.519  27.828   6.631
 5967POPC   C3B74733  17.574  28.052   7.027
 5967POPC   C4B74734  17.234  28.041   7.316
 5968POPC   NC374735  41.862  21.459   5.328
 5968POPC   PO474736  41.211  21.165   5.464
 5968POPC   GL174737  41.526  21.451   5.742
 5968POPC   GL274738  41.909  21.430   5.845
 5968POPC   C1A74739  41.531  21.581   6.194
 5968POPC   D2A74740  41.239  21.554   6.574
 5968POPC   C3A74741  41.401  21.622   7.007
 5968POPC   C4A74742  41.470  21.447   7.451
 5968POPC   C1B74743  42.002  21.324   6.297
 5968POPC   C2B74744  41.760  21.385   6.697
 5968POPC   C3B74745  41.761  21.198   7.130
 5968POPC   C4B74746  41.887  21.176   7.603
 5969POPC   NC374747  16.025  25.590   5.424
 5969POPC   PO474748  15.701  25.088   5.447
 5969POPC   GL174749  15.813  25.267   5.816
 5969POPC   GL274750  15.618  25.533   5.893
 5969POPC   C1A74751  16.083  25.222   6.176
 5969POPC   D2A74752  16.030  25.077   6.615
 5969POPC   C3A74753  16.027  25.373   6.971
 5969POPC   C4A74754  16.244  25.375   7.362
 5969POPC   C1B74755  15.673  25.475   6.328
 5969POPC   C2B74756  15.620  25.658   6.708
 5969POPC   C3B74757  15.610  25.656   7.125
 5969POPC   C4B74758  15.728  25.337   7.421
 5970POPC   NC374759  43.483   4.781   5.443
 5970POPC   PO474760  43.273   5.481   5.349
 5970POPC   GL174761  43.387   5.298   5.775
 5970POPC   GL274762  43.088   5.108   5.842
 5970POPC   C1A74763  43.357   5.137   6.264
 5970POPC   D2A74764  43.214   4.819   6.628
 5970POPC   C3A74765  43.191   4.966   7.077
 5970POPC   C4A74766  43.313   5.284   7.374
 5970POPC   C1B74767  42.833   5.330   6.165
 5970POPC   C2B74768  42.743   5.563   6.545
 5970POPC   C3B74769  42.581   5.523   6.934
 5970POPC   C4B74770  42.793   5.292   7.220
 5971POPC   NC374771  15.289  22.336   5.433
 5971POPC   PO474772  15.330  21.674   5.398
 5971POPC   GL174773  15.273  21.986   5.778
 5971POPC   GL274774  15.498  22.299   5.894
 5971POPC   C1A74775  15.076  22.242   6.139
 5971POPC   D2A74776  15.282  22.319   6.556
 5971POPC   C3A74777  14.996  22.244   6.884
 5971POPC   C4A74778  14.814  22.222   7.275
 5971POPC   C1B74779  15.479  21.930   6.207
 5971POPC   C2B74780  15.256  21.800   6.545
 5971POPC   C3B74781  15.378  21.915   6.925
 5971POPC   C4B74782  15.399  22.241   7.228
 5972POPC   NC374783  36.375   1.505   5.406
 5972POPC   PO474784  36.822   1.987   5.272
 5972POPC   GL174785  36.897   1.850   5.699
 5972POPC   GL274786  36.641   2.072   5.771
 5972POPC   C1A74787  37.062   2.086   6.081
 5972POPC   D2A74788  37.270   2.354   6.410
 5972POPC   C3A74789  37.282   2.260   6.854
 5972POPC   C4A74790  37.035   2.161   7.221
 5972POPC   C1B74791  36.622   1.825   6.155
 5972POPC   C2B74792  36.831   1.968   6.545
 5972POPC   C3B74793  36.624   2.181   6.894
 5972POPC   C4B74794  36.486   1.877   7.175
 5973POPC   NC374795  29.465  22.929   5.222
 5973POPC   PO474796  28.791  23.081   5.396
 5973POPC   GL174797  29.035  22.932   5.762
 5973POPC   GL274798  29.406  22.936   5.725
 5973POPC   C1A74799  29.101  23.055   6.202
 5973POPC   D2A74800  28.950  23.246   6.609
 5973POPC   C3A74801  28.922  23.072   7.020
 5973POPC   C4A74802  29.187  23.070   7.404
 5973POPC   C1B74803  29.569  22.836   6.133
 5973POPC   C2B74804  29.447  23.005   6.577
 5973POPC   C3B74805  29.359  22.798   6.966
 5973POPC   C4B74806  29.616  22.725   7.308
 5974POPC   NC374807   3.230  19.239   5.459
 5974POPC   PO474808   3.801  18.888   5.336
 5974POPC   GL174809   3.595  18.982   5.720
 5974POPC   GL274810   3.261  18.803   5.779
 5974POPC   C1A74811   3.688  19.093   6.151
 5974POPC   D2A74812   3.518  19.333   6.509
 5974POPC   C3A74813   3.712  19.171   6.901
 5974POPC   C4A74814   3.781  19.217   7.333
 5974POPC   C1B74815   3.243  18.890   6.252
 5974POPC   C2B74816   3.312  18.908   6.707
 5974POPC   C3B74817   3.235  19.062   7.102
 5974POPC   C4B74818   3.057  18.810   7.414
 5975POPC   NC374819  29.182  10.062   4.983
 5975POPC   PO474820  29.484  10.581   5.359
 5975POPC   GL174821  29.357  10.572   5.788
 5975POPC   GL274822  28.998  10.587   5.812
 5975POPC   C1A74823  29.252  10.347   6.183
 5975POPC   D2A74824  29.126  10.198   6.564
 5975POPC   C3A74825  29.083  10.434   6.902
 5975POPC   C4A74826  29.216  10.412   7.279
 5975POPC   C1B74827  28.749  10.377   6.141
 5975POPC   C2B74828  28.690  10.484   6.574
 5975POPC   C3B74829  28.641  10.717   6.966
 5975POPC   C4B74830  28.627  10.618   7.381
 5976POPC   NC374831  18.694  15.990   5.420
 5976POPC   PO474832  18.111  16.323   5.229
 5976POPC   GL174833  18.095  16.253   5.706
 5976POPC   GL274834  18.299  15.934   5.736
 5976POPC   C1A74835  18.178  16.190   6.162
 5976POPC   D2A74836  17.973  15.937   6.476
 5976POPC   C3A74837  18.154  15.980   6.874
 5976POPC   C4A74838  18.206  16.277   7.188
 5976POPC   C1B74839  18.534  15.808   6.094
 5976POPC   C2B74840  18.403  15.636   6.481
 5976POPC   C3B74841  18.568  15.671   6.878
 5976POPC   C4B74842  18.529  15.902   7.250
 5977POPC   NC374843  33.564  18.419   5.396
 5977POPC   PO474844  34.139  18.135   5.626
 5977POPC   GL174845  33.760  18.256   5.856
 5977POPC   GL274846  33.555  18.558   5.880
 5977POPC   C1A74847  33.814  18.134   6.278
 5977POPC   D2A74848  34.088  18.395   6.492
 5977POPC   C3A74849  33.916  18.289   6.845
 5977POPC   C4A74850  34.007  18.256   7.225
 5977POPC   C1B74851  33.472  18.481   6.245
 5977POPC   C2B74852  33.630  18.632   6.590
 5977POPC   C3B74853  33.479  18.544   6.987
 5977POPC   C4B74854  33.504  18.234   7.207
 5978POPC   NC374855   9.885  13.832   5.416
 5978POPC   PO474856   9.805  13.141   5.418
 5978POPC   GL174857   9.825  13.437   5.785
 5978POPC   GL274858   9.541  13.701   5.788
 5978POPC   C1A74859   9.715  13.474   6.248
 5978POPC   D2A74860   9.634  13.355   6.689
 5978POPC   C3A74861   9.939  13.587   6.937
 5978POPC   C4A74862   9.922  13.692   7.364
 5978POPC   C1B74863   9.453  13.905   6.188
 5978POPC   C2B74864   9.614  13.873   6.623
 5978POPC   C3B74865   9.456  13.791   7.069
 5978POPC   C4B74866   9.481  13.835   7.557
 5979POPC   NC374867  12.386  27.427   5.667
 5979POPC   PO474868  12.994  27.572   5.381
 5979POPC   GL174869  12.836  27.690   5.787
 5979POPC   GL274870  12.696  28.019   5.833
 5979POPC   C1A74871  12.804  27.702   6.245
 5979POPC   D2A74872  12.831  27.466   6.609
 5979POPC   C3A74873  12.690  27.683   6.972
 5979POPC   C4A74874  12.736  27.403   7.287
 5979POPC   C1B74875  12.630  28.180   6.272
 5979POPC   C2B74876  12.476  28.143   6.718
 5979POPC   C3B74877  12.565  28.167   7.167
 5979POPC   C4B74878  12.529  27.844   7.493
 5980POPC   NC374879  34.617  39.113   4.989
 5980POPC   PO474880  34.287  39.407   5.544
 5980POPC   GL174881  34.352  39.238   5.949
 5980POPC   GL274882  34.651  39.161   5.867
 5980POPC   C1A74883  34.332  39.164   6.396
 5980POPC   D2A74884  34.272  39.119   6.838
 5980POPC   C3A74885  34.499  39.270   7.178
 5980POPC   C4A74886  34.501  39.021   7.576
 5980POPC   C1B74887  34.754  38.899   6.188
 5980POPC   C2B74888  34.809  39.050   6.573
 5980POPC   C3B74889  34.794  38.903   6.968
 5980POPC   C4B74890  34.941  39.054   7.334
 5981POPC   NC374891  14.615  40.118   5.480
 5981POPC   PO474892  13.933  39.926   5.417
 5981POPC   GL174893  14.242  39.964   5.780
 5981POPC   GL274894  14.333  40.294   5.881
 5981POPC   C1A74895  14.543  39.859   6.126
 5981POPC   D2A74896  14.440  39.587   6.489
 5981POPC   C3A74897  14.381  39.875   6.813
 5981POPC   C4A74898  14.411  39.910   7.230
 5981POPC   C1B74899  14.719  40.350   6.124
 5981POPC   C2B74900  14.630  40.380   6.540
 5981POPC   C3B74901  14.784  40.353   6.934
 5981POPC   C4B74902  14.765  40.238   7.339
 5982POPC   NC374903  17.125  21.615   5.208
 5982POPC   PO474904  16.724  21.261   5.499
 5982POPC   GL174905  16.714  21.132   5.892
 5982POPC   GL274906  16.414  20.934   5.907
 5982POPC   C1A74907  16.807  21.411   6.274
 5982POPC   D2A74908  16.592  21.487   6.660
 5982POPC   C3A74909  16.886  21.520   6.959
 5982POPC   C4A74910  16.912  21.386   7.380
 5982POPC   C1B74911  16.472  21.037   6.339
 5982POPC   C2B74912  16.388  20.975   6.746
 5982POPC   C3B74913  16.563  21.121   7.085
 5982POPC   C4B74914  16.419  21.535   7.181
 5983POPC   NC374915  16.853  41.390   5.532
 5983POPC   PO474916  16.618  41.974   5.473
 5983POPC   GL174917  16.615  41.743   5.832
 5983POPC   GL274918  16.970  41.764   5.856
 5983POPC   C1A74919  16.586  41.535   6.247
 5983POPC   D2A74920  16.547  41.227   6.580
 5983POPC   C3A74921  16.680  41.345   6.999
 5983POPC   C4A74922  16.528  41.462   7.421
 5983POPC   C1B74923  16.996  41.857   6.280
 5983POPC   C2B74924  16.865  41.680   6.661
 5983POPC   C3B74925  16.884  41.839   7.076
 5983POPC   C4B74926  16.996  41.715   7.476
 5984POPC   NC374927  15.784  22.834   5.413
 5984POPC   PO474928  16.263  23.281   5.594
 5984POPC   GL174929  15.932  23.079   5.865
 5984POPC   GL274930  15.869  22.680   5.879
 5984POPC   C1A74931  16.076  23.011   6.290
 5984POPC   D2A74932  16.201  23.216   6.675
 5984POPC   C3A74933  16.141  22.934   7.027
 5984POPC   C4A74934  16.014  22.948   7.461
 5984POPC   C1B74935  15.622  22.731   6.233
 5984POPC   C2B74936  15.833  22.697   6.638
 5984POPC   C3B74937  15.671  22.645   7.032
 5984POPC   C4B74938  15.604  22.663   7.474
 5985POPC   NC374939  17.170  12.115   5.292
 5985POPC   PO474940  16.507  12.069   5.295
 5985POPC   GL174941  16.793  12.138   5.669
 5985POPC   GL274942  16.599  11.937   5.872
 5985POPC   C1A74943  17.000  12.107   6.136
 5985POPC   D2A74944  16.886  12.210   6.610
 5985POPC   C3A74945  16.807  12.233   7.069
 5985POPC   C4A74946  17.000  12.363   7.513
 5985POPC   C1B74947  16.510  12.053   6.290
 5985POPC   C2B74948  16.551  11.840   6.712
 5985POPC   C3B74949  16.384  11.737   7.102
 5985POPC   C4B74950  16.341  11.885   7.504
 5986POPC   NC374951  23.567  24.876   5.471
 5986POPC   PO474952  23.875  25.574   5.380
 5986POPC   GL174953  23.678  25.363   5.708
 5986POPC   GL274954  23.840  25.076   5.896
 5986POPC   C1A74955  23.517  25.441   6.116
 5986POPC   D2A74956  23.557  25.316   6.536
 5986POPC   C3A74957  23.365  25.527   6.863
 5986POPC   C4A74958  23.533  25.403   7.259
 5986POPC   C1B74959  23.880  24.944   6.351
 5986POPC   C2B74960  24.034  25.114   6.748
 5986POPC   C3B74961  24.033  25.272   7.172
 5986POPC   C4B74962  23.923  25.376   7.608
 5987POPC   NC374963   4.287  37.439   5.458
 5987POPC   PO474964   4.326  38.172   5.440
 5987POPC   GL174965   4.188  37.847   5.759
 5987POPC   GL274966   4.474  37.599   5.912
 5987POPC   C1A74967   3.999  37.794   6.170
 5987POPC   D2A74968   3.800  37.702   6.586
 5987POPC   C3A74969   4.068  37.662   6.961
 5987POPC   C4A74970   4.279  37.379   7.236
 5987POPC   C1B74971   4.713  37.642   6.329
 5987POPC   C2B74972   4.691  37.782   6.788
 5987POPC   C3B74973   4.825  37.621   7.195
 5987POPC   C4B74974   4.712  37.328   7.513
 5988POPC   NC374975  31.562  12.779   5.398
 5988POPC   PO474976  32.036  12.340   5.689
 5988POPC   GL174977  31.777  12.728   5.873
 5988POPC   GL274978  31.511  13.044   5.820
 5988POPC   C1A74979  31.437  12.700   6.161
 5988POPC   D2A74980  31.269  12.604   6.542
 5988POPC   C3A74981  31.542  12.603   6.888
 5988POPC   C4A74982  31.350  12.721   7.264
 5988POPC   C1B74983  31.554  13.202   6.238
 5988POPC   C2B74984  31.429  13.074   6.653
 5988POPC   C3B74985  31.581  13.149   7.069
 5988POPC   C4B74986  31.477  13.167   7.519
 5989POPC   NC374987  20.758  30.905   5.495
 5989POPC   PO474988  20.575  31.596   5.380
 5989POPC   GL174989  20.532  31.487   5.845
 5989POPC   GL274990  20.417  31.119   5.868
 5989POPC   C1A74991  20.678  31.580   6.303
 5989POPC   D2A74992  20.879  31.646   6.736
 5989POPC   C3A74993  20.635  31.553   7.105
 5989POPC   C4A74994  20.647  31.756   7.537
 5989POPC   C1B74995  20.336  31.176   6.310
 5989POPC   C2B74996  20.570  31.174   6.694
 5989POPC   C3B74997  20.547  31.064   7.122
 5989POPC   C4B74998  20.771  31.236   7.500
 5990POPC   NC374999  44.970   2.826   5.472
 5990POPC   PO475000   0.580   2.486   5.413
 5990POPC   GL175001   0.338   2.534   5.792
 5990POPC   GL275002   0.297   2.902   5.865
 5990POPC   C1A75003   0.406   2.577   6.251
 5990POPC   D2A75004   0.530   2.870   6.605
 5990POPC   C3A75005   0.390   2.693   7.014
 5990POPC   C4A75006   0.090   2.352   7.083
 5990POPC   C1B75007  44.961   2.798   6.178
 5990POPC   C2B75008   0.047   2.653   6.621
 5990POPC   C3B75009  44.909   2.869   7.000
 5990POPC   C4B75010  44.943   2.905   7.438
 5991POPC   NC375011   2.451  39.342   5.559
 5991POPC   PO475012   3.008  38.977   5.325
 5991POPC   GL175013   2.931  39.172   5.721
 5991POPC   GL275014   2.905  39.544   5.736
 5991POPC   C1A75015   2.834  39.038   6.155
 5991POPC   D2A75016   2.686  39.185   6.551
 5991POPC   C3A75017   2.900  39.017   6.891
 5991POPC   C4A75018   2.856  38.704   7.210
 5991POPC   C1B75019   2.726  39.587   6.153
 5991POPC   C2B75020   2.563  39.694   6.562
 5991POPC   C3B75021   2.552  39.503   6.958
 5991POPC   C4B75022   2.990  39.534   7.073
 5992POPC   NC375023  15.254  33.449   5.451
 5992POPC   PO475024  15.621  32.905   5.449
 5992POPC   GL175025  15.390  32.920   5.867
 5992POPC   GL275026  15.094  33.125   5.816
 5992POPC   C1A75027  15.101  32.828   6.252
 5992POPC   D2A75028  15.063  32.598   6.657
 5992POPC   C3A75029  15.048  32.882   6.969
 5992POPC   C4A75030  15.324  32.852   7.296
 5992POPC   C1B75031  15.277  33.336   6.177
 5992POPC   C2B75032  15.153  33.242   6.599
 5992POPC   C3B75033  15.289  33.350   7.008
 5992POPC   C4B75034  15.078  33.322   7.353
 5993POPC   NC375035  30.180  35.791   5.486
 5993POPC   PO475036  30.028  36.344   5.223
 5993POPC   GL175037  29.887  36.207   5.631
 5993POPC   GL275038  29.640  36.424   5.683
 5993POPC   C1A75039  29.929  36.007   6.066
 5993POPC   D2A75040  30.056  36.159   6.464
 5993POPC   C3A75041  29.893  36.032   6.872
 5993POPC   C4A75042  30.136  35.889   7.240
 5993POPC   C1B75043  29.786  36.483   6.134
 5993POPC   C2B75044  29.625  36.443   6.573
 5993POPC   C3B75045  29.694  36.534   6.977
 5993POPC   C4B75046  30.000  36.375   7.267
 5994POPC   NC375047   2.928  38.505   5.290
 5994POPC   PO475048   2.271  38.325   5.267
 5994POPC   GL175049   2.569  38.320   5.682
 5994POPC   GL275050   2.949  38.197   5.720
 5994POPC   C1A75051   2.703  38.448   6.138
 5994POPC   D2A75052   2.653  38.646   6.571
 5994POPC   C3A75053   2.536  38.387   6.938
 5994POPC   C4A75054   2.552  38.331   7.384
 5994POPC   C1B75055   3.117  38.138   6.157
 5994POPC   C2B75056   2.875  38.152   6.561
 5994POPC   C3B75057   3.042  38.247   6.968
 5994POPC   C4B75058   3.114  38.199   7.385
 5995POPC   NC375059  20.059  35.532   5.493
 5995POPC   PO475060  19.699  34.942   5.477
 5995POPC   GL175061  19.841  35.090   5.844
 5995POPC   GL275062  19.631  35.396   5.810
 5995POPC   C1A75063  19.654  35.172   6.258
 5995POPC   D2A75064  19.651  35.474   6.567
 5995POPC   C3A75065  19.821  35.372   6.946
 5995POPC   C4A75066  19.890  35.221   7.341
 5995POPC   C1B75067  19.900  35.625   6.128
 5995POPC   C2B75068  20.235  35.700   6.426
 5995POPC   C3B75069  20.092  35.821   6.834
 5995POPC   C4B75070  20.180  35.631   7.220
 5996POPC   NC375071  20.749  41.426   5.492
 5996POPC   PO475072  20.149  41.526   5.574
 5996POPC   GL175073  20.394  41.352   5.880
 5996POPC   GL275074  20.557  41.675   5.914
 5996POPC   C1A75075  20.496  41.362   6.325
 5996POPC   D2A75076  20.363  41.506   6.718
 5996POPC   C3A75077  20.608  41.414   7.065
 5996POPC   C4A75078  20.452  41.073   7.186
 5996POPC   C1B75079  20.809  41.761   6.267
 5996POPC   C2B75080  20.857  41.658   6.674
 5996POPC   C3B75081  20.857  41.866   7.083
 5996POPC   C4B75082  20.695  41.765   7.498
 5997POPC   NC375083  27.202  44.596   5.321
 5997POPC   PO475084  26.668   0.063   5.384
 5997POPC   GL175085  26.720  44.793   5.793
 5997POPC   GL275086  26.835  44.466   5.803
 5997POPC   C1A75087  26.630  44.629   6.254
 5997POPC   D2A75088  26.620  44.769   6.699
 5997POPC   C3A75089  26.989  44.754   6.990
 5997POPC   C4A75090  27.307  44.500   7.231
 5997POPC   C1B75091  26.971  44.247   6.221
 5997POPC   C2B75092  26.996  44.341   6.668
 5997POPC   C3B75093  26.914  44.213   7.074
 5997POPC   C4B75094  26.595  44.474   7.192
 5998POPC   NC375095  42.511  23.858   5.443
 5998POPC   PO475096  41.970  23.570   5.660
 5998POPC   GL175097  42.208  23.860   5.868
 5998POPC   GL275098  42.505  23.632   5.881
 5998POPC   C1A75099  42.402  23.957   6.266
 5998POPC   D2A75100  42.629  23.803   6.608
 5998POPC   C3A75101  42.359  23.682   6.909
 5998POPC   C4A75102  42.145  23.883   7.247
 5998POPC   C1B75103  42.414  23.440   6.257
 5998POPC   C2B75104  42.550  23.216   6.614
 5998POPC   C3B75105  42.692  23.245   7.030
 5998POPC   C4B75106  42.474  23.440   7.335
 5999POPC   NC375107  14.211  39.541   5.461
 5999POPC   PO475108  14.435  38.951   5.419
 5999POPC   GL175109  14.488  39.111   5.835
 5999POPC   GL275110  14.335  39.439   5.937
 5999POPC   C1A75111  14.403  39.105   6.304
 5999POPC   D2A75112  14.444  38.833   6.619
 5999POPC   C3A75113  14.413  38.954   7.036
 5999POPC   C4A75114  14.382  39.010   7.495
 5999POPC   C1B75115  14.779  39.401   6.135
 5999POPC   C2B75116  14.929  39.396   6.569
 5999POPC   C3B75117  14.666  39.396   6.928
 5999POPC   C4B75118  14.258  39.451   7.089
 6000POPC   NC375119  18.444  28.808   5.592
 6000POPC   PO475120  17.889  28.837   5.256
 6000POPC   GL175121  18.045  29.075   5.676
 6000POPC   GL275122  18.384  29.290   5.701
 6000POPC   C1A75123  18.084  29.155   6.103
 6000POPC   D2A75124  18.195  29.026   6.511
 6000POPC   C3A75125  17.993  29.137   6.900
 6000POPC   C4A75126  18.229  29.375   7.221
 6000POPC   C1B75127  18.567  29.336   6.153
 6000POPC   C2B75128  18.492  29.487   6.608
 6000POPC   C3B75129  18.674  29.307   7.009
 6000POPC   C4B75130  18.686  29.232   7.480
 6001POPC   NC375131  23.242   1.100   5.424
 6001POPC   PO475132  22.798   1.402   5.184
 6001POPC   GL175133  22.832   1.327   5.656
 6001POPC   GL275134  23.174   1.332   5.882
 6001POPC   C1A75135  22.716   1.246   6.075
 6001POPC   D2A75136  22.820   1.096   6.489
 6001POPC   C3A75137  22.730   1.249   6.892
 6001POPC   C4A75138  22.931   1.057   7.234
 6001POPC   C1B75139  23.096   1.494   6.321
 6001POPC   C2B75140  22.995   1.653   6.735
 6001POPC   C3B75141  23.040   1.551   7.181
 6001POPC   C4B75142  22.853   1.579   7.601
 6002POPC   NC375143  22.394  41.871   5.573
 6002POPC   PO475144  21.994  41.348   5.541
 6002POPC   GL175145  22.038  41.561   5.871
 6002POPC   GL275146  22.359  41.509   5.921
 6002POPC   C1A75147  21.790  41.674   6.206
 6002POPC   D2A75148  21.729  41.511   6.625
 6002POPC   C3A75149  21.791  41.752   6.985
 6002POPC   C4A75150  22.097  41.584   7.209
 6002POPC   C1B75151  22.227  41.414   6.352
 6002POPC   C2B75152  22.457  41.283   6.740
 6002POPC   C3B75153  22.357  41.143   7.164
 6002POPC   C4B75154  22.564  41.486   7.381
 6003POPC   NC375155  27.805  39.335   5.452
 6003POPC   PO475156  27.241  39.050   5.603
 6003POPC   GL175157  27.377  39.262   5.989
 6003POPC   GL275158  27.746  39.380   5.952
 6003POPC   C1A75159  27.324  39.099   6.427
 6003POPC   D2A75160  27.606  38.929   6.749
 6003POPC   C3A75161  27.428  39.043   7.141
 6003POPC   C4A75162  27.558  39.394   7.372
 6003POPC   C1B75163  27.761  39.009   6.211
 6003POPC   C2B75164  27.786  39.343   6.524
 6003POPC   C3B75165  27.901  39.311   6.973
 6003POPC   C4B75166  27.931  38.878   7.165
 6004POPC   NC375167  39.901  24.524   5.303
 6004POPC   PO475168  40.476  24.833   5.333
 6004POPC   GL175169  40.140  24.765   5.691
 6004POPC   GL275170  40.026  24.404   5.775
 6004POPC   C1A75171  40.260  24.662   6.132
 6004POPC   D2A75172  40.085  24.519   6.514
 6004POPC   C3A75173  39.903  24.776   6.828
 6004POPC   C4A75174  40.007  24.617   7.230
 6004POPC   C1B75175  39.774  24.315   6.146
 6004POPC   C2B75176  39.590  24.362   6.561
 6004POPC   C3B75177  39.774  24.252   6.970
 6004POPC   C4B75178  39.923  24.114   7.394
 6005POPC   NC375179   0.357  13.915   5.433
 6005POPC   PO475180   0.940  13.690   5.328
 6005POPC   GL175181   0.640  13.601   5.703
 6005POPC   GL275182   0.497  13.283   5.750
 6005POPC   C1A75183   0.446  13.787   6.098
 6005POPC   D2A75184   0.194  13.891   6.475
 6005POPC   C3A75185   0.348  13.699   6.857
 6005POPC   C4A75186   0.489  13.843   7.251
 6005POPC   C1B75187   0.296  13.311   6.170
 6005POPC   C2B75188   0.085  13.345   6.570
 6005POPC   C3B75189   0.234  13.199   6.979
 6005POPC   C4B75190   0.526  13.321   7.247
 6006POPC   NC375191   4.758   1.492   5.580
 6006POPC   PO475192   4.306   0.917   5.424
 6006POPC   GL175193   4.544   1.020   5.771
 6006POPC   GL275194   4.363   1.311   5.852
 6006POPC   C1A75195   4.702   1.088   6.175
 6006POPC   D2A75196   4.611   1.318   6.535
 6006POPC   C3A75197   4.536   1.184   6.949
 6006POPC   C4A75198   4.485   1.307   7.376
 6006POPC   C1B75199   4.188   1.404   6.235
 6006POPC   C2B75200   4.091   1.530   6.652
 6006POPC   C3B75201   4.070   1.408   7.058
 6006POPC   C4B75202   3.658   1.453   7.173
 6007POPC   NC375203  20.538  21.232   5.362
 6007POPC   PO475204  19.965  21.513   5.364
 6007POPC   GL175205  20.211  21.331   5.785
 6007POPC   GL275206  20.417  20.992   5.795
 6007POPC   C1A75207  20.347  21.394   6.253
 6007POPC   D2A75208  20.660  21.615   6.563
 6007POPC   C3A75209  20.622  21.524   7.021
 6007POPC   C4A75210  20.409  21.162   7.224
 6007POPC   C1B75211  20.740  21.088   6.135
 6007POPC   C2B75212  20.795  20.962   6.558
 6007POPC   C3B75213  20.870  21.064   6.972
 6007POPC   C4B75214  21.129  21.032   7.298
 6008POPC   NC375215  12.684  28.913   5.319
 6008POPC   PO475216  13.195  29.289   5.453
 6008POPC   GL175217  12.989  28.987   5.758
 6008POPC   GL275218  12.620  29.049   5.808
 6008POPC   C1A75219  13.049  29.017   6.206
 6008POPC   D2A75220  12.996  29.400   6.479
 6008POPC   C3A75221  13.163  29.394   6.887
 6008POPC   C4A75222  13.007  29.414   7.274
 6008POPC   C1B75223  12.543  29.180   6.241
 6008POPC   C2B75224  12.711  28.993   6.621
 6008POPC   C3B75225  12.820  28.994   7.043
 6008POPC   C4B75226  12.517  29.229   7.238
 6009POPC   NC375227  36.527  25.042   5.433
 6009POPC   PO475228  37.171  25.346   5.573
 6009POPC   GL175229  37.056  25.024   5.846
 6009POPC   GL275230  36.740  25.090   5.901
 6009POPC   C1A75231  37.032  25.052   6.314
 6009POPC   D2A75232  36.995  25.375   6.642
 6009POPC   C3A75233  37.120  25.208   7.008
 6009POPC   C4A75234  37.212  25.370   7.410
 6009POPC   C1B75235  36.744  25.468   6.206
 6009POPC   C2B75236  36.499  25.531   6.601
 6009POPC   C3B75237  36.623  25.442   7.041
 6009POPC   C4B75238  36.759  25.129   7.339
 6010POPC   NC375239  30.872  26.220   5.125
 6010POPC   PO475240  30.526  25.837   5.604
 6010POPC   GL175241  30.896  25.980   5.828
 6010POPC   GL275242  30.927  26.334   5.849
 6010POPC   C1A75243  30.949  25.971   6.269
 6010POPC   D2A75244  30.833  25.764   6.655
 6010POPC   C3A75245  31.078  25.926   6.980
 6010POPC   C4A75246  30.842  25.911   7.314
 6010POPC   C1B75247  30.694  26.415   6.251
 6010POPC   C2B75248  30.830  26.307   6.679
 6010POPC   C3B75249  30.639  26.309   7.081
 6010POPC   C4B75250  30.638  26.299   7.563
 6011POPC   NC375251  11.001  12.756   5.363
 6011POPC   PO475252  11.558  13.110   5.313
 6011POPC   GL175253  11.556  12.950   5.745
 6011POPC   GL275254  11.451  12.602   5.699
 6011POPC   C1A75255  11.406  13.054   6.200
 6011POPC   D2A75256  11.074  12.998   6.538
 6011POPC   C3A75257  11.232  13.020   6.975
 6011POPC   C4A75258  11.230  13.214   7.392
 6011POPC   C1B75259  11.180  12.595   6.074
 6011POPC   C2B75260  11.357  12.564   6.488
 6011POPC   C3B75261  11.326  12.490   6.911
 6011POPC   C4B75262  11.032  12.553   7.210
 6012POPC   NC375263  14.311  22.436   5.251
 6012POPC   PO475264  14.875  22.089   5.500
 6012POPC   GL175265  14.509  22.214   5.747
 6012POPC   GL275266  14.250  21.943   5.678
 6012POPC   C1A75267  14.493  22.372   6.186
 6012POPC   D2A75268  14.683  22.516   6.571
 6012POPC   C3A75269  14.470  22.305   6.892
 6012POPC   C4A75270  14.329  22.386   7.292
 6012POPC   C1B75271  14.353  21.871   6.116
 6012POPC   C2B75272  14.247  21.935   6.570
 6012POPC   C3B75273  14.210  21.757   6.983
 6012POPC   C4B75274  14.414  21.878   7.331
 6013POPC   NC375275  17.510   2.303   5.378
 6013POPC   PO475276  17.164   1.735   5.444
 6013POPC   GL175277  17.462   1.758   5.814
 6013POPC   GL275278  17.730   2.026   5.813
 6013POPC   C1A75279  17.424   1.825   6.270
 6013POPC   D2A75280  17.623   2.012   6.636
 6013POPC   C3A75281  17.393   2.018   7.030
 6013POPC   C4A75282  17.143   2.058   7.382
 6013POPC   C1B75283  17.926   2.248   6.204
 6013POPC   C2B75284  18.031   2.304   6.679
 6013POPC   C3B75285  17.871   2.189   7.104
 6013POPC   C4B75286  17.640   2.019   7.483
 6014POPC   NC375287  36.949  42.539   5.304
 6014POPC   PO475288  36.733  41.931   5.490
 6014POPC   GL175289  36.680  42.252   5.736
 6014POPC   GL275290  37.067  42.274   5.741
 6014POPC   C1A75291  36.481  42.248   6.156
 6014POPC   D2A75292  36.465  42.033   6.568
 6014POPC   C3A75293  36.800  42.109   6.893
 6014POPC   C4A75294  36.842  42.054   7.348
 6014POPC   C1B75295  36.912  42.568   6.073
 6014POPC   C2B75296  36.918  42.652   6.516
 6014POPC   C3B75297  37.104  42.523   6.898
 6014POPC   C4B75298  36.898  42.543   7.277
 6015POPC   NC375299  35.067  13.968   5.444
 6015POPC   PO475300  35.762  13.944   5.369
 6015POPC   GL175301  35.447  13.781   5.705
 6015POPC   GL275302  35.338  13.410   5.751
 6015POPC   C1A75303  35.400  13.754   6.157
 6015POPC   D2A75304  35.149  13.652   6.526
 6015POPC   C3A75305  35.388  13.649   6.903
 6015POPC   C4A75306  35.359  13.546   7.348
 6015POPC   C1B75307  35.149  13.262   6.168
 6015POPC   C2B75308  35.104  13.157   6.648
 6015POPC   C3B75309  34.955  13.379   7.068
 6015POPC   C4B75310  34.913  13.448   7.563
 6016POPC   NC375311   0.373  28.752   5.613
 6016POPC   PO475312   0.956  28.555   5.542
 6016POPC   GL175313   0.644  28.258   5.759
 6016POPC   GL275314   0.248  28.242   5.796
 6016POPC   C1A75315   0.543  28.271   6.198
 6016POPC   D2A75316   0.469  28.015   6.524
 6016POPC   C3A75317   0.537  28.211   6.931
 6016POPC   C4A75318   0.741  28.209   7.318
 6016POPC   C1B75319   0.031  28.380   6.216
 6016POPC   C2B75320   0.172  28.426   6.613
 6016POPC   C3B75321   0.000  28.357   6.991
 6016POPC   C4B75322   0.238  28.488   7.313
 6017POPC   NC375323  29.714  24.657   5.495
 6017POPC   PO475324  30.228  24.214   5.428
 6017POPC   GL175325  30.019  24.375   5.821
 6017POPC   GL275326  29.858  24.691   5.967
 6017POPC   C1A75327  29.881  24.275   6.257
 6017POPC   D2A75328  29.794  24.086   6.644
 6017POPC   C3A75329  30.047  24.199   6.980
 6017POPC   C4A75330  29.927  24.229   7.428
 6017POPC   C1B75331  30.258  24.681   6.170
 6017POPC   C2B75332  30.191  24.538   6.580
 6017POPC   C3B75333  29.969  24.738   6.915
 6017POPC   C4B75334  30.199  24.595   7.250
 6018POPC   NC375335   5.684   3.855   5.658
 6018POPC   PO475336   6.056   4.348   5.235
 6018POPC   GL175337   5.943   4.391   5.745
 6018POPC   GL275338   5.857   4.113   6.050
 6018POPC   C1A75339   5.872   4.614   6.156
 6018POPC   D2A75340   5.758   4.730   6.573
 6018POPC   C3A75341   5.799   4.468   6.921
 6018POPC   C4A75342   6.120   4.417   7.215
 6018POPC   C1B75343   5.501   3.892   6.324
 6018POPC   C2B75344   5.469   3.869   6.787
 6018POPC   C3B75345   5.480   3.981   7.225
 6018POPC   C4B75346   5.521   4.054   7.716
 6019POPC   NC375347  19.568  14.607   5.579
 6019POPC   PO475348  20.131  14.205   5.468
 6019POPC   GL175349  19.966  14.369   5.791
 6019POPC   GL275350  19.669  14.144   5.784
 6019POPC   C1A75351  19.862  14.392   6.212
 6019POPC   D2A75352  20.000  14.141   6.546
 6019POPC   C3A75353  19.979  14.487   6.822
 6019POPC   C4A75354  20.109  14.506   7.245
 6019POPC   C1B75355  19.510  14.015   6.202
 6019POPC   C2B75356  19.513  14.214   6.630
 6019POPC   C3B75357  19.587  14.326   7.080
 6019POPC   C4B75358  19.634  14.136   7.449
 6020POPC   NC375359  29.353   2.335   5.310
 6020POPC   PO475360  29.508   1.721   5.376
 6020POPC   GL175361  29.377   1.993   5.764
 6020POPC   GL275362  29.055   1.878   5.918
 6020POPC   C1A75363  29.324   2.122   6.241
 6020POPC   D2A75364  29.100   1.892   6.590
 6020POPC   C3A75365  29.234   2.050   6.986
 6020POPC   C4A75366  29.485   1.979   7.368
 6020POPC   C1B75367  28.799   1.656   6.241
 6020POPC   C2B75368  28.816   1.398   6.644
 6020POPC   C3B75369  28.712   1.533   7.073
 6020POPC   C4B75370  28.945   1.830   7.348
 6021POPC   NC375371  11.106   1.966   5.525
 6021POPC   PO475372  11.664   1.472   5.481
 6021POPC   GL175373  11.591   1.819   5.787
 6021POPC   GL275374  11.300   1.690   5.941
 6021POPC   C1A75375  11.465   2.044   6.230
 6021POPC   D2A75376  11.145   1.992   6.604
 6021POPC   C3A75377  11.351   1.953   7.010
 6021POPC   C4A75378  11.618   2.309   7.175
 6021POPC   C1B75379  10.979   1.649   6.265
 6021POPC   C2B75380  11.029   1.482   6.694
 6021POPC   C3B75381  10.924   1.631   7.090
 6021POPC   C4B75382  11.125   1.801   7.490
 6022POPC   NC375383   4.780  42.465   5.588
 6022POPC   PO475384   5.511  42.265   5.615
 6022POPC   GL175385   5.182  42.242   5.832
 6022POPC   GL275386   5.187  42.597   5.871
 6022POPC   C1A75387   5.037  42.222   6.240
 6022POPC   D2A75388   4.919  41.963   6.578
 6022POPC   C3A75389   5.087  42.061   6.954
 6022POPC   C4A75390   5.145  42.235   7.310
 6022POPC   C1B75391   5.030  42.742   6.280
 6022POPC   C2B75392   4.908  42.539   6.653
 6022POPC   C3B75393   4.945  42.634   7.081
 6022POPC   C4B75394   4.886  42.753   7.496
 6023POPC   NC375395  34.551  24.946   5.345
 6023POPC   PO475396  34.774  25.573   5.399
 6023POPC   GL175397  34.595  25.327   5.724
 6023POPC   GL275398  34.291  25.451   5.856
 6023POPC   C1A75399  34.706  25.134   6.112
 6023POPC   D2A75400  34.597  24.952   6.488
 6023POPC   C3A75401  34.707  25.121   6.878
 6023POPC   C4A75402  34.481  25.131   7.254
 6023POPC   C1B75403  34.229  25.281   6.286
 6023POPC   C2B75404  34.172  25.097   6.724
 6023POPC   C3B75405  33.973  25.059   7.132
 6023POPC   C4B75406  34.067  25.162   7.589
 6024POPC   NC375407  25.049  12.241   5.624
 6024POPC   PO475408  25.331  12.858   5.410
 6024POPC   GL175409  25.268  12.752   5.815
 6024POPC   GL275410  24.936  12.692   5.852
 6024POPC   C1A75411  25.227  12.962   6.211
 6024POPC   D2A75412  25.035  13.044   6.610
 6024POPC   C3A75413  25.307  12.975   6.938
 6024POPC   C4A75414  25.348  13.169   7.307
 6024POPC   C1B75415  24.840  12.516   6.222
 6024POPC   C2B75416  24.979  12.538   6.642
 6024POPC   C3B75417  24.884  12.678   7.031
 6024POPC   C4B75418  25.181  12.676   7.345
 6025POPC   NC375419   1.693  14.732   5.339
 6025POPC   PO475420   1.034  14.441   5.402
 6025POPC   GL175421   1.115  14.235   5.797
 6025POPC   GL275422   1.482  14.299   5.780
 6025POPC   C1A75423   0.936  13.959   6.141
 6025POPC   D2A75424   0.708  13.944   6.560
 6025POPC   C3A75425   0.874  14.116   6.965
 6025POPC   C4A75426   1.232  14.069   7.246
 6025POPC   C1B75427   1.397  14.179   6.196
 6025POPC   C2B75428   1.165  14.236   6.528
 6025POPC   C3B75429   1.298  14.411   6.871
 6025POPC   C4B75430   1.104  14.564   7.220
 6026POPC   NC375431  32.659   3.737   5.435
 6026POPC   PO475432  32.028   3.452   5.439
 6026POPC   GL175433  32.247   3.618   5.764
 6026POPC   GL275434  32.532   3.383   5.820
 6026POPC   C1A75435  32.022   3.613   6.156
 6026POPC   D2A75436  32.094   3.715   6.582
 6026POPC   C3A75437  32.077   3.404   6.874
 6026POPC   C4A75438  32.306   3.249   7.179
 6026POPC   C1B75439  32.468   3.395   6.254
 6026POPC   C2B75440  32.631   3.678   6.541
 6026POPC   C3B75441  32.470   3.729   6.932
 6026POPC   C4B75442  32.627   3.663   7.292
 6027POPC   NC375443  34.330  23.973   5.274
 6027POPC   PO475444  34.948  23.788   5.482
 6027POPC   GL175445  34.622  23.709   5.765
 6027POPC   GL275446  34.383  23.438   5.664
 6027POPC   C1A75447  34.605  23.884   6.172
 6027POPC   D2A75448  34.594  24.051   6.584
 6027POPC   C3A75449  34.458  23.822   6.996
 6027POPC   C4A75450  34.764  23.926   7.360
 6027POPC   C1B75451  34.394  23.392   6.121
 6027POPC   C2B75452  34.399  23.548   6.536
 6027POPC   C3B75453  34.635  23.366   6.869
 6027POPC   C4B75454  34.506  23.277   7.260
 6028POPC   NC375455   7.971   7.741   5.477
 6028POPC   PO475456   8.500   7.263   5.449
 6028POPC   GL175457   8.179   7.348   5.749
 6028POPC   GL275458   7.913   7.094   5.716
 6028POPC   C1A75459   8.215   7.509   6.175
 6028POPC   D2A75460   8.345   7.270   6.563
 6028POPC   C3A75461   8.178   7.375   6.971
 6028POPC   C4A75462   8.347   7.556   7.361
 6028POPC   C1B75463   7.825   7.201   6.130
 6028POPC   C2B75464   7.855   7.467   6.533
 6028POPC   C3B75465   7.666   7.320   6.897
 6028POPC   C4B75466   7.770   7.436   7.297
 6029POPC   NC375467   1.914  10.030   5.316
 6029POPC   PO475468   1.749   9.331   5.233
 6029POPC   GL175469   1.743   9.615   5.645
 6029POPC   GL275470   2.086   9.703   5.775
 6029POPC   C1A75471   1.761   9.527   6.131
 6029POPC   D2A75472   2.011   9.587   6.542
 6029POPC   C3A75473   1.804   9.699   6.938
 6029POPC   C4A75474   1.863  10.052   7.214
 6029POPC   C1B75475   2.175   9.934   6.182
 6029POPC   C2B75476   2.382  10.021   6.594
 6029POPC   C3B75477   2.332   9.949   7.036
 6029POPC   C4B75478   2.166   9.621   7.289
 6030POPC   NC375479  15.303   4.263   5.633
 6030POPC   PO475480  14.940   4.616   5.195
 6030POPC   GL175481  14.843   4.535   5.695
 6030POPC   GL275482  14.795   4.165   5.827
 6030POPC   C1A75483  15.033   4.573   6.162
 6030POPC   D2A75484  15.317   4.704   6.527
 6030POPC   C3A75485  15.188   4.569   6.942
 6030POPC   C4A75486  15.372   4.466   7.327
 6030POPC   C1B75487  15.054   4.026   6.196
 6030POPC   C2B75488  15.196   4.197   6.587
 6030POPC   C3B75489  15.159   4.077   7.036
 6030POPC   C4B75490  15.105   4.019   7.497
 6031POPC   NC375491   0.603  21.940   5.198
 6031POPC   PO475492   0.223  22.384   5.549
 6031POPC   GL175493   0.396  22.204   5.913
 6031POPC   GL275494   0.590  21.959   5.720
 6031POPC   C1A75495   0.399  22.345   6.373
 6031POPC   D2A75496   0.214  22.440   6.795
 6031POPC   C3A75497   0.425  22.207   7.101
 6031POPC   C4A75498   0.413  21.751   7.197
 6031POPC   C1B75499   0.616  21.831   6.188
 6031POPC   C2B75500   0.600  21.919   6.656
 6031POPC   C3B75501   0.856  21.925   7.042
 6031POPC   C4B75502   0.818  21.794   7.507
 6032POPC   NC375503  36.326   9.445   5.540
 6032POPC   PO475504  35.922   8.994   5.226
 6032POPC   GL175505  35.994   8.823   5.669
 6032POPC   GL275506  36.266   9.042   5.848
 6032POPC   C1A75507  36.014   8.736   6.148
 6032POPC   D2A75508  36.214   8.898   6.533
 6032POPC   C3A75509  35.962   8.818   6.899
 6032POPC   C4A75510  36.135   8.857   7.284
 6032POPC   C1B75511  36.210   9.335   6.253
 6032POPC   C2B75512  36.214   9.378   6.749
 6032POPC   C3B75513  35.912   9.309   7.139
 6032POPC   C4B75514  35.726   9.326   7.600
 6033POPC   NC375515  20.276  14.723   5.391
 6033POPC   PO475516  20.505  15.410   5.452
 6033POPC   GL175517  20.533  15.084   5.790
 6033POPC   GL275518  20.869  14.924   5.768
 6033POPC   C1A75519  20.408  14.980   6.246
 6033POPC   D2A75520  20.259  14.926   6.697
 6033POPC   C3A75521  20.428  15.166   7.048
 6033POPC   C4A75522  20.738  15.478   7.150
 6033POPC   C1B75523  20.907  15.098   6.190
 6033POPC   C2B75524  20.760  15.122   6.642
 6033POPC   C3B75525  20.988  14.987   7.023
 6033POPC   C4B75526  21.054  14.667   7.364
 6034POPC   NC375527  34.924  23.328   5.576
 6034POPC   PO475528  34.414  22.844   5.476
 6034POPC   GL175529  34.571  22.991   5.849
 6034POPC   GL275530  34.890  22.898   5.852
 6034POPC   C1A75531  34.561  22.816   6.275
 6034POPC   D2A75532  34.369  23.001   6.610
 6034POPC   C3A75533  34.463  22.828   7.023
 6034POPC   C4A75534  34.409  22.810   7.489
 6034POPC   C1B75535  34.899  23.176   6.224
 6034POPC   C2B75536  34.892  23.001   6.643
 6034POPC   C3B75537  34.940  22.973   7.105
 6034POPC   C4B75538  34.996  22.509   7.169
 6035POPC   NC375539  30.932  25.708   5.381
 6035POPC   PO475540  30.691  25.019   5.444
 6035POPC   GL175541  30.674  25.126   5.869
 6035POPC   GL275542  30.835  25.457   5.871
 6035POPC   C1A75543  30.651  25.155   6.328
 6035POPC   D2A75544  30.953  25.273   6.546
 6035POPC   C3A75545  30.858  25.216   6.941
 6035POPC   C4A75546  31.042  25.447   7.214
 6035POPC   C1B75547  30.559  25.635   6.207
 6035POPC   C2B75548  30.217  25.572   6.497
 6035POPC   C3B75549  30.393  25.421   6.819
 6035POPC   C4B75550  30.546  25.522   7.201
 6036POPC   NC375551  25.299  22.137   5.396
 6036POPC   PO475552  25.669  22.668   5.587
 6036POPC   GL175553  25.682  22.222   5.774
 6036POPC   GL275554  25.350  22.020   5.877
 6036POPC   C1A75555  25.751  21.952   6.146
 6036POPC   D2A75556  25.420  21.988   6.440
 6036POPC   C3A75557  25.377  22.333   6.723
 6036POPC   C4A75558  25.337  22.337   7.169
 6036POPC   C1B75559  25.012  21.889   6.140
 6036POPC   C2B75560  24.863  22.138   6.497
 6036POPC   C3B75561  24.942  22.078   6.913
 6036POPC   C4B75562  24.957  22.034   7.355
 6037POPC   NC375563   2.458  24.859   5.470
 6037POPC   PO475564   2.892  24.420   5.210
 6037POPC   GL175565   2.757  24.479   5.662
 6037POPC   GL275566   2.582  24.191   5.800
 6037POPC   C1A75567   2.889  24.542   6.109
 6037POPC   D2A75568   2.942  24.253   6.467
 6037POPC   C3A75569   3.031  24.477   6.852
 6037POPC   C4A75570   2.811  24.572   7.223
 6037POPC   C1B75571   2.475  24.231   6.208
 6037POPC   C2B75572   2.463  24.086   6.616
 6037POPC   C3B75573   2.718  24.094   6.960
 6037POPC   C4B75574   2.521  24.114   7.332
 6038POPC   NC375575  31.799   3.913   5.422
 6038POPC   PO475576  31.289   3.375   5.435
 6038POPC   GL175577  31.421   3.700   5.728
 6038POPC   GL275578  31.094   3.839   5.853
 6038POPC   C1A75579  31.589   3.899   6.131
 6038POPC   D2A75580  31.582   3.693   6.546
 6038POPC   C3A75581  31.713   3.743   6.980
 6038POPC   C4A75582  31.617   3.869   7.400
 6038POPC   C1B75583  31.218   3.555   6.166
 6038POPC   C2B75584  31.268   3.303   6.535
 6038POPC   C3B75585  31.289   3.470   6.974
 6038POPC   C4B75586  31.285   3.261   7.380
 6039POPC   NC375587  11.534  11.049   5.446
 6039POPC   PO475588  11.116  10.583   5.170
 6039POPC   GL175589  11.203  10.577   5.663
 6039POPC   GL275590  11.103  10.256   5.785
 6039POPC   C1A75591  11.316  10.716   6.106
 6039POPC   D2A75592  11.244  10.551   6.561
 6039POPC   C3A75593  11.453  10.664   6.975
 6039POPC   C4A75594  11.535  10.726   7.435
 6039POPC   C1B75595  10.949  10.267   6.224
 6039POPC   C2B75596  10.920  10.121   6.655
 6039POPC   C3B75597  11.181  10.226   6.985
 6039POPC   C4B75598  11.155  10.414   7.359
 6040POPC   NC375599  18.275  37.259   5.539
 6040POPC   PO475600  17.963  36.672   5.451
 6040POPC   GL175601  18.159  36.800   5.819
 6040POPC   GL275602  18.473  36.653   5.860
 6040POPC   C1A75603  18.127  36.867   6.261
 6040POPC   D2A75604  18.270  36.753   6.664
 6040POPC   C3A75605  18.172  37.030   6.973
 6040POPC   C4A75606  17.979  36.900   7.351
 6040POPC   C1B75607  18.587  37.045   6.131
 6040POPC   C2B75608  18.617  37.135   6.578
 6040POPC   C3B75609  18.703  36.960   6.974
 6040POPC   C4B75610  18.521  37.102   7.353
 6041POPC   NC375611  14.572  25.291   5.378
 6041POPC   PO475612  13.952  25.241   5.153
 6041POPC   GL175613  14.137  25.296   5.654
 6041POPC   GL275614  14.446  25.488   5.797
 6041POPC   C1A75615  14.131  25.351   6.144
 6041POPC   D2A75616  14.308  25.130   6.488
 6041POPC   C3A75617  14.219  25.320   6.875
 6041POPC   C4A75618  14.131  25.086   7.235
 6041POPC   C1B75619  14.657  25.269   6.124
 6041POPC   C2B75620  14.750  25.410   6.543
 6041POPC   C3B75621  14.736  25.285   6.966
 6041POPC   C4B75622  14.497  25.435   7.298
 6042POPC   NC375623  42.550  27.494   5.540
 6042POPC   PO475624  41.984  27.862   5.488
 6042POPC   GL175625  42.165  27.678   5.844
 6042POPC   GL275626  42.510  27.699   6.003
 6042POPC   C1A75627  42.070  27.420   6.174
 6042POPC   D2A75628  42.330  27.409   6.531
 6042POPC   C3A75629  42.087  27.426   6.924
 6042POPC   C4A75630  42.474  27.420   7.134
 6042POPC   C1B75631  42.697  28.010   6.275
 6042POPC   C2B75632  42.617  28.094   6.696
 6042POPC   C3B75633  42.508  27.916   7.080
 6042POPC   C4B75634  42.570  27.767   7.519
 6043POPC   NC375635   5.997  35.560   5.428
 6043POPC   PO475636   5.794  34.957   5.468
 6043POPC   GL175637   5.726  35.144   5.834
 6043POPC   GL275638   5.701  35.509   5.845
 6043POPC   C1A75639   5.753  35.108   6.238
 6043POPC   D2A75640   6.008  35.181   6.572
 6043POPC   C3A75641   5.842  35.004   6.899
 6043POPC   C4A75642   5.803  35.171   7.270
 6043POPC   C1B75643   5.992  35.571   6.194
 6043POPC   C2B75644   5.880  35.672   6.631
 6043POPC   C3B75645   5.952  35.638   7.072
 6043POPC   C4B75646   5.657  35.802   7.376
 6044POPC   NC375647  44.293  41.571   5.352
 6044POPC   PO475648  44.877  41.356   5.455
 6044POPC   GL175649  44.583  41.522   5.803
 6044POPC   GL275650  44.550  41.879   5.794
 6044POPC   C1A75651  44.517  41.387   6.248
 6044POPC   D2A75652  44.793  41.255   6.607
 6044POPC   C3A75653  44.730  41.390   7.044
 6044POPC   C4A75654   0.045  41.408   7.402
 6044POPC   C1B75655  44.719  41.856   6.225
 6044POPC   C2B75656  44.631  41.733   6.657
 6044POPC   C3B75657  44.820  41.874   7.041
 6044POPC   C4B75658  44.640  41.754   7.448
 6045POPC   NC375659  11.998  32.510   5.616
 6045POPC   PO475660  11.501  32.140   5.307
 6045POPC   GL175661  11.678  32.066   5.768
 6045POPC   GL275662  11.814  32.365   6.049
 6045POPC   C1A75663  11.871  31.876   6.144
 6045POPC   D2A75664  11.934  32.152   6.497
 6045POPC   C3A75665  12.146  32.033   6.834
 6045POPC   C4A75666  12.147  32.115   7.285
 6045POPC   C1B75667  12.199  32.545   6.303
 6045POPC   C2B75668  12.220  32.536   6.754
 6045POPC   C3B75669  12.185  32.607   7.177
 6045POPC   C4B75670  12.444  32.628   7.493
 6046POPC   NC375671   7.858  17.172   5.514
 6046POPC   PO475672   8.555  17.263   5.369
 6046POPC   GL175673   8.303  17.295   5.729
 6046POPC   GL275674   8.118  17.542   5.822
 6046POPC   C1A75675   8.376  17.289   6.173
 6046POPC   D2A75676   8.126  17.304   6.548
 6046POPC   C3A75677   8.335  17.367   6.893
 6046POPC   C4A75678   8.265  17.341   7.299
 6046POPC   C1B75679   8.118  17.740   6.208
 6046POPC   C2B75680   7.983  17.804   6.604
 6046POPC   C3B75681   8.174  17.822   6.982
 6046POPC   C4B75682   7.997  17.767   7.330
 6047POPC   NC375683  17.032  18.591   5.421
 6047POPC   PO475684  16.400  18.309   5.347
 6047POPC   GL175685  16.573  18.428   5.720
 6047POPC   GL275686  16.889  18.327   5.833
 6047POPC   C1A75687  16.473  18.337   6.154
 6047POPC   D2A75688  16.582  18.468   6.572
 6047POPC   C3A75689  16.369  18.266   6.899
 6047POPC   C4A75690  16.579  18.458   7.231
 6047POPC   C1B75691  16.905  18.045   6.193
 6047POPC   C2B75692  16.706  17.949   6.588
 6047POPC   C3B75693  16.866  18.159   6.936
 6047POPC   C4B75694  17.012  18.125   7.342
 6048POPC   NC375695  24.457   0.071   5.480
 6048POPC   PO475696  24.635  44.530   5.419
 6048POPC   GL175697  24.425  44.570   5.805
 6048POPC   GL275698  24.650  44.839   5.910
 6048POPC   C1A75699  24.342  44.577   6.260
 6048POPC   D2A75700  24.321  44.668   6.700
 6048POPC   C3A75701  24.660  44.529   6.958
 6048POPC   C4A75702  24.545  44.400   7.357
 6048POPC   C1B75703  24.651   0.087   6.293
 6048POPC   C2B75704  24.565   0.136   6.725
 6048POPC   C3B75705  24.455  44.982   7.106
 6048POPC   C4B75706  24.739  44.873   7.402
 6049POPC   NC375707  14.940  11.895   5.454
 6049POPC   PO475708  15.575  11.862   5.554
 6049POPC   GL175709  15.270  11.936   5.843
 6049POPC   GL275710  15.256  12.286   5.814
 6049POPC   C1A75711  15.067  12.053   6.221
 6049POPC   D2A75712  14.977  12.189   6.621
 6049POPC   C3A75713  15.269  12.039   6.916
 6049POPC   C4A75714  15.085  11.994   7.297
 6049POPC   C1B75715  15.354  12.525   6.213
 6049POPC   C2B75716  15.231  12.646   6.657
 6049POPC   C3B75717  15.206  12.516   7.132
 6049POPC   C4B75718  15.161  12.519   7.611
 6050POPC   NC375719  28.523   9.429   5.310
 6050POPC   PO475720  28.841  10.004   5.283
 6050POPC   GL175721  28.652  10.008   5.749
 6050POPC   GL275722  28.527   9.651   5.792
 6050POPC   C1A75723  28.467   9.898   6.225
 6050POPC   D2A75724  28.220   9.667   6.573
 6050POPC   C3A75725  28.208   9.810   6.996
 6050POPC   C4A75726  28.475   9.812   7.321
 6050POPC   C1B75727  28.811   9.436   6.117
 6050POPC   C2B75728  28.856   9.344   6.542
 6050POPC   C3B75729  28.571   9.429   6.884
 6050POPC   C4B75730  28.501   9.309   7.289
 6051POPC   NC375731  43.833  37.381   5.248
 6051POPC   PO475732  44.196  36.791   5.376
 6051POPC   GL175733  43.903  36.867   5.709
 6051POPC   GL275734  43.629  37.111   5.777
 6051POPC   C1A75735  43.950  36.865   6.150
 6051POPC   D2A75736  44.293  36.870   6.459
 6051POPC   C3A75737  44.261  37.108   6.865
 6051POPC   C4A75738  44.030  36.902   7.204
 6051POPC   C1B75739  43.597  37.245   6.206
 6051POPC   C2B75740  43.685  37.104   6.638
 6051POPC   C3B75741  43.557  37.084   7.080
 6051POPC   C4B75742  43.718  37.229   7.454
 6052POPC   NC375743   4.487  33.781   5.143
 6052POPC   PO475744   4.760  33.509   5.621
 6052POPC   GL175745   4.621  33.892   5.819
 6052POPC   GL275746   4.272  33.867   5.716
 6052POPC   C1A75747   4.516  33.970   6.260
 6052POPC   D2A75748   4.387  33.637   6.563
 6052POPC   C3A75749   4.503  33.699   6.998
 6052POPC   C4A75750   4.558  34.144   7.180
 6052POPC   C1B75751   4.041  34.097   6.037
 6052POPC   C2B75752   4.052  34.214   6.462
 6052POPC   C3B75753   4.148  34.046   6.861
 6052POPC   C4B75754   3.881  33.886   7.160
 6053POPC   NC375755  12.639  20.848   5.590
 6053POPC   PO475756  13.043  20.399   5.419
 6053POPC   GL175757  12.994  20.583   5.836
 6053POPC   GL275758  13.067  20.959   5.880
 6053POPC   C1A75759  12.857  20.443   6.224
 6053POPC   D2A75760  12.959  20.606   6.635
 6053POPC   C3A75761  12.925  20.333   6.985
 6053POPC   C4A75762  13.191  20.310   7.354
 6053POPC   C1B75763  12.833  20.984   6.279
 6053POPC   C2B75764  12.712  21.076   6.695
 6053POPC   C3B75765  12.695  20.819   7.026
 6053POPC   C4B75766  12.931  20.739   7.351
 6054POPC   NC375767  12.593  44.304   5.569
 6054POPC   PO475768  12.851  44.954   5.508
 6054POPC   GL175769  12.795  44.745   5.842
 6054POPC   GL275770  13.031  44.484   5.762
 6054POPC   C1A75771  12.929  44.907   6.219
 6054POPC   D2A75772  13.014  44.700   6.590
 6054POPC   C3A75773  13.073  44.960   6.913
 6054POPC   C4A75774  13.061  44.880   7.323
 6054POPC   C1B75775  12.845  44.317   6.165
 6054POPC   C2B75776  12.836  44.177   6.571
 6054POPC   C3B75777  12.965  44.330   6.973
 6054POPC   C4B75778  12.863  44.429   7.396
 6055POPC   NC375779  30.142  44.035   5.264
 6055POPC   PO475780  29.455  44.034   5.507
 6055POPC   GL175781  29.766  43.983   5.830
 6055POPC   GL275782  30.135  44.047   5.863
 6055POPC   C1A75783  29.819  44.037   6.273
 6055POPC   D2A75784  29.663  44.237   6.629
 6055POPC   C3A75785  29.794  44.000   6.988
 6055POPC   C4A75786  29.844  44.069   7.452
 6055POPC   C1B75787  30.232  44.330   6.231
 6055POPC   C2B75788  30.215  44.261   6.706
 6055POPC   C3B75789  30.265  44.121   7.159
 6055POPC   C4B75790  30.168  43.679   7.329
 6056POPC   NC375791  32.847  18.962   5.309
 6056POPC   PO475792  33.466  18.865   5.508
 6056POPC   GL175793  33.143  18.998   5.740
 6056POPC   GL275794  33.331  19.280   5.827
 6056POPC   C1A75795  32.910  19.119   6.128
 6056POPC   D2A75796  32.854  19.404   6.461
 6056POPC   C3A75797  32.942  19.222   6.865
 6056POPC   C4A75798  32.771  19.054   7.231
 6056POPC   C1B75799  33.399  18.977   6.170
 6056POPC   C2B75800  33.306  19.069   6.541
 6056POPC   C3B75801  33.518  19.024   6.881
 6056POPC   C4B75802  33.288  18.988   7.196
 6057POPC   NC375803  42.760   4.238   5.214
 6057POPC   PO475804  43.018   4.782   5.445
 6057POPC   GL175805  43.019   4.482   5.817
 6057POPC   GL275806  42.817   4.133   5.809
 6057POPC   C1A75807  43.043   4.421   6.284
 6057POPC   D2A75808  43.239   4.278   6.676
 6057POPC   C3A75809  43.141   4.439   7.088
 6057POPC   C4A75810  43.306   4.182   7.459
 6057POPC   C1B75811  42.678   3.919   6.209
 6057POPC   C2B75812  42.880   3.853   6.614
 6057POPC   C3B75813  42.953   3.971   7.015
 6057POPC   C4B75814  42.794   3.915   7.400
 6058POPC   NC375815  26.621  27.318   5.261
 6058POPC   PO475816  27.103  27.741   5.453
 6058POPC   GL175817  26.972  27.466   5.767
 6058POPC   GL275818  26.680  27.581   5.882
 6058POPC   C1A75819  27.089  27.515   6.185
 6058POPC   D2A75820  26.988  27.359   6.550
 6058POPC   C3A75821  27.054  27.608   6.922
 6058POPC   C4A75822  26.848  27.729   7.300
 6058POPC   C1B75823  26.571  27.553   6.343
 6058POPC   C2B75824  26.520  27.505   6.819
 6058POPC   C3B75825  26.474  27.373   7.279
 6058POPC   C4B75826  26.340  27.234   7.758
 6059POPC   NC375827  36.750  18.714   5.457
 6059POPC   PO475828  37.111  19.293   5.404
 6059POPC   GL175829  36.949  19.252   5.801
 6059POPC   GL275830  36.573  19.239   5.784
 6059POPC   C1A75831  37.109  18.971   6.113
 6059POPC   D2A75832  37.002  18.786   6.490
 6059POPC   C3A75833  37.255  18.890   6.821
 6059POPC   C4A75834  37.131  18.779   7.216
 6059POPC   C1B75835  36.615  19.084   6.225
 6059POPC   C2B75836  36.737  19.215   6.661
 6059POPC   C3B75837  36.757  19.307   7.126
 6059POPC   C4B75838  36.462  19.280   7.495
 6060POPC   NC375839  32.743   5.351   5.394
 6060POPC   PO475840  33.135   4.845   5.485
 6060POPC   GL175841  32.881   4.957   5.807
 6060POPC   GL275842  32.849   5.336   5.895
 6060POPC   C1A75843  32.975   4.963   6.232
 6060POPC   D2A75844  32.859   5.227   6.578
 6060POPC   C3A75845  33.098   5.175   6.950
 6060POPC   C4A75846  33.107   4.856   7.263
 6060POPC   C1B75847  32.681   5.607   6.235
 6060POPC   C2B75848  32.674   5.720   6.638
 6060POPC   C3B75849  32.645   5.464   6.989
 6060POPC   C4B75850  32.878   5.335   7.379
 6061POPC   NC375851   2.989  20.156   5.447
 6061POPC   PO475852   2.382  19.953   5.425
 6061POPC   GL175853   2.723  19.811   5.773
 6061POPC   GL275854   2.867  19.430   5.794
 6061POPC   C1A75855   2.706  19.723   6.222
 6061POPC   D2A75856   2.717  20.010   6.579
 6061POPC   C3A75857   2.622  19.889   6.981
 6061POPC   C4A75858   2.924  19.844   7.284
 6061POPC   C1B75859   3.103  19.386   6.174
 6061POPC   C2B75860   3.072  19.601   6.590
 6061POPC   C3B75861   2.893  19.431   6.985
 6061POPC   C4B75862   2.903  19.315   7.433
 6062POPC   NC375863  31.635  11.040   5.487
 6062POPC   PO475864  31.365  11.610   5.555
 6062POPC   GL175865  31.638  11.414   5.851
 6062POPC   GL275866  31.376  11.158   5.930
 6062POPC   C1A75867  31.769  11.233   6.242
 6062POPC   D2A75868  31.682  10.929   6.556
 6062POPC   C3A75869  31.459  11.073   6.894
 6062POPC   C4A75870  31.544  11.194   7.296
 6062POPC   C1B75871  31.255  11.212   6.390
 6062POPC   C2B75872  31.210  11.488   6.740
 6062POPC   C3B75873  31.186  11.601   7.142
 6062POPC   C4B75874  31.189  11.489   7.577
 6063POPC   NC375875  20.078  34.692   5.448
 6063POPC   PO475876  19.494  34.303   5.453
 6063POPC   GL175877  19.717  34.518   5.801
 6063POPC   GL275878  20.030  34.357   5.883
 6063POPC   C1A75879  19.792  34.673   6.257
 6063POPC   D2A75880  19.727  34.896   6.691
 6063POPC   C3A75881  19.768  34.668   7.061
 6063POPC   C4A75882  19.384  34.440   7.108
 6063POPC   C1B75883  20.261  34.425   6.295
 6063POPC   C2B75884  20.152  34.422   6.769
 6063POPC   C3B75885  20.104  34.328   7.223
 6063POPC   C4B75886  20.221  34.363   7.691
 6064POPC   NC375887   3.052  29.584   5.364
 6064POPC   PO475888   2.812  28.999   5.568
 6064POPC   GL175889   2.883  29.304   5.846
 6064POPC   GL275890   2.613  29.497   5.701
 6064POPC   C1A75891   2.785  29.072   6.227
 6064POPC   D2A75892   2.768  28.763   6.579
 6064POPC   C3A75893   2.765  29.000   6.963
 6064POPC   C4A75894   3.019  29.198   7.277
 6064POPC   C1B75895   2.517  29.504   6.143
 6064POPC   C2B75896   2.664  29.414   6.571
 6064POPC   C3B75897   2.637  29.528   6.936
 6064POPC   C4B75898   2.605  29.476   7.330
 6065POPC   NC375899  44.244   4.127   5.526
 6065POPC   PO475900  43.605   4.234   5.388
 6065POPC   GL175901  43.813   4.404   5.778
 6065POPC   GL275902  43.704   4.750   5.903
 6065POPC   C1A75903  43.966   4.319   6.208
 6065POPC   D2A75904  44.135   4.072   6.553
 6065POPC   C3A75905  44.173   4.270   6.933
 6065POPC   C4A75906  44.125   4.437   7.320
 6065POPC   C1B75907  43.543   4.586   6.292
 6065POPC   C2B75908  43.734   4.436   6.679
 6065POPC   C3B75909  43.661   4.464   7.108
 6065POPC   C4B75910  43.667   4.877   7.265
 6066POPC   NC375911  14.516   3.949   5.425
 6066POPC   PO475912  14.154   3.410   5.378
 6066POPC   GL175913  14.381   3.339   5.789
 6066POPC   GL275914  14.521   3.665   5.875
 6066POPC   C1A75915  14.525   3.192   6.196
 6066POPC   D2A75916  14.477   3.462   6.536
 6066POPC   C3A75917  14.364   3.370   6.936
 6066POPC   C4A75918  14.342   3.589   7.297
 6066POPC   C1B75919  14.556   3.900   6.258
 6066POPC   C2B75920  14.799   3.867   6.653
 6066POPC   C3B75921  14.751   3.782   7.075
 6066POPC   C4B75922  14.591   3.998   7.452
 6067POPC   NC375923  21.371  29.058   5.296
 6067POPC   PO475924  21.500  29.683   5.174
 6067POPC   GL175925  21.325  29.371   5.663
 6067POPC   GL275926  21.216  29.007   5.781
 6067POPC   C1A75927  21.447  29.354   6.159
 6067POPC   D2A75928  21.483  29.542   6.592
 6067POPC   C3A75929  21.340  29.390   6.987
 6067POPC   C4A75930  21.632  29.376   7.305
 6067POPC   C1B75931  21.199  28.934   6.251
 6067POPC   C2B75932  21.476  29.016   6.612
 6067POPC   C3B75933  21.557  28.913   7.043
 6067POPC   C4B75934  21.257  28.979   7.333
 6068POPC   NC375935   9.429   8.183   5.508
 6068POPC   PO475936   9.906   7.707   5.201
 6068POPC   GL175937   9.918   7.955   5.638
 6068POPC   GL275938   9.901   8.334   5.695
 6068POPC   C1A75939   9.994   7.960   6.093
 6068POPC   D2A75940   9.770   7.852   6.493
 6068POPC   C3A75941   9.673   8.123   6.882
 6068POPC   C4A75942   9.747   8.069   7.332
 6068POPC   C1B75943   9.673   8.393   6.095
 6068POPC   C2B75944   9.761   8.524   6.524
 6068POPC   C3B75945   9.589   8.661   6.901
 6068POPC   C4B75946   9.755   8.611   7.305
 6069POPC   NC375947  13.804  26.541   5.523
 6069POPC   PO475948  13.636  27.158   5.357
 6069POPC   GL175949  13.485  27.155   5.777
 6069POPC   GL275950  13.476  26.829   5.819
 6069POPC   C1A75951  13.502  27.150   6.233
 6069POPC   D2A75952  13.281  27.139   6.627
 6069POPC   C3A75953  13.543  27.078   7.002
 6069POPC   C4A75954  13.601  26.675   7.225
 6069POPC   C1B75955  13.673  26.678   6.212
 6069POPC   C2B75956  13.614  26.678   6.650
 6069POPC   C3B75957  13.806  26.362   6.901
 6069POPC   C4B75958  13.932  26.265   7.281
 6070POPC   NC375959  33.965  43.897   5.380
 6070POPC   PO475960  33.296  43.830   5.261
 6070POPC   GL175961  33.572  43.833   5.724
 6070POPC   GL275962  33.878  44.075   5.847
 6070POPC   C1A75963  33.604  43.870   6.216
 6070POPC   D2A75964  33.595  43.683   6.637
 6070POPC   C3A75965  33.566  43.986   6.975
 6070POPC   C4A75966  33.293  44.031   7.319
 6070POPC   C1B75967  33.962  44.267   6.248
 6070POPC   C2B75968  34.032  44.128   6.664
 6070POPC   C3B75969  33.994  44.284   7.074
 6070POPC   C4B75970  34.182  44.219   7.509
 6071POPC   NC375971   0.348  10.872   5.627
 6071POPC   PO475972   0.454  11.524   5.373
 6071POPC   GL175973   0.579  11.630   5.804
 6071POPC   GL275974   0.511  11.256   5.932
 6071POPC   C1A75975   0.641  11.581   6.271
 6071POPC   D2A75976   0.293  11.331   6.427
 6071POPC   C3A75977   0.210  11.312   6.841
 6071POPC   C4A75978   0.425  11.455   7.203
 6071POPC   C1B75979   0.673  11.015   6.341
 6071POPC   C2B75980   0.672  11.062   6.839
 6071POPC   C3B75981   0.363  10.943   7.163
 6071POPC   C4B75982   0.304  11.043   7.577
 6072POPC   NC375983   0.494  20.430   5.319
 6072POPC   PO475984   0.171  20.980   5.606
 6072POPC   GL175985   0.337  20.593   5.789
 6072POPC   GL275986   0.660  20.614   5.811
 6072POPC   C1A75987   0.305  20.461   6.234
 6072POPC   D2A75988   0.277  20.690   6.647
 6072POPC   C3A75989   0.233  20.530   7.092
 6072POPC   C4A75990   0.127  20.852   7.404
 6072POPC   C1B75991   0.794  20.648   6.244
 6072POPC   C2B75992   0.799  20.566   6.680
 6072POPC   C3B75993   0.649  20.830   6.995
 6072POPC   C4B75994   0.613  20.714   7.418
 6073POPC   NC375995  43.560   6.570   5.466
 6073POPC   PO475996  42.946   6.633   5.325
 6073POPC   GL175997  43.046   6.691   5.771
 6073POPC   GL275998  43.368   6.851   5.860
 6073POPC   C1A75999  43.009   6.726   6.222
 6073POPC   D2A76000  43.345   6.869   6.515
 6073POPC   C3A76001  43.413   6.748   6.944
 6073POPC   C4A76002  43.126   6.783   7.284
 6073POPC   C1B76003  43.450   6.477   6.144
 6073POPC   C2B76004  43.217   6.361   6.524
 6073POPC   C3B76005  43.043   6.411   6.932
 6073POPC   C4B76006  43.276   6.293   7.291
 6074POPC   NC376007  17.380   8.532   5.524
 6074POPC   PO476008  17.593   7.928   5.407
 6074POPC   GL176009  17.545   8.145   5.820
 6074POPC   GL276010  17.590   8.487   5.979
 6074POPC   C1A76011  17.660   8.043   6.222
 6074POPC   D2A76012  17.536   8.165   6.602
 6074POPC   C3A76013  17.627   7.835   6.847
 6074POPC   C4A76014  17.649   7.858   7.237
 6074POPC   C1B76015  17.434   8.649   6.362
 6074POPC   C2B76016  17.628   8.673   6.736
 6074POPC   C3B76017  17.734   8.336   7.043
 6074POPC   C4B76018  17.281   8.226   7.100
 6075POPC   NC376019  15.998  28.574   5.331
 6075POPC   PO476020  15.879  27.932   5.387
 6075POPC   GL176021  16.037  28.172   5.718
 6075POPC   GL276022  15.842  28.491   5.800
 6075POPC   C1A76023  15.976  28.123   6.169
 6075POPC   D2A76024  15.841  28.437   6.476
 6075POPC   C3A76025  15.881  28.380   6.937
 6075POPC   C4A76026  15.904  28.133   7.341
 6075POPC   C1B76027  16.235  28.544   6.038
 6075POPC   C2B76028  16.369  28.639   6.465
 6075POPC   C3B76029  16.407  28.485   6.882
 6075POPC   C4B76030  16.235  28.521   7.280
 6076POPC   NC376031  26.750  19.614   5.569
 6076POPC   PO476032  27.142  20.075   5.184
 6076POPC   GL176033  26.873  20.113   5.626
 6076POPC   GL276034  26.511  20.059   5.708
 6076POPC   C1A76035  26.890  20.020   6.113
 6076POPC   D2A76036  27.134  19.877   6.512
 6076POPC   C3A76037  26.946  19.681   6.891
 6076POPC   C4A76038  26.788  19.991   7.164
 6076POPC   C1B76039  26.425  19.803   6.119
 6076POPC   C2B76040  26.539  19.855   6.577
 6076POPC   C3B76041  26.325  19.843   6.992
 6076POPC   C4B76042  26.373  19.922   7.459
 6077POPC   NC376043  24.366  13.505   5.422
 6077POPC   PO476044  23.635  13.663   5.386
 6077POPC   GL176045  23.704  13.659   5.797
 6077POPC   GL276046  24.009  13.426   5.816
 6077POPC   C1A76047  23.504  13.818   6.195
 6077POPC   D2A76048  23.680  13.769   6.628
 6077POPC   C3A76049  23.467  13.615   7.006
 6077POPC   C4A76050  23.500  13.457   7.435
 6077POPC   C1B76051  24.014  13.723   6.190
 6077POPC   C2B76052  24.210  13.706   6.587
 6077POPC   C3B76053  24.093  13.894   6.948
 6077POPC   C4B76054  23.921  13.677   7.264
 6078POPC   NC376055   5.246  16.318   5.579
 6078POPC   PO476056   4.938  15.735   5.292
 6078POPC   GL176057   5.059  15.845   5.708
 6078POPC   GL276058   5.193  15.554   5.821
 6078POPC   C1A76059   4.894  15.953   6.124
 6078POPC   D2A76060   4.634  16.043   6.500
 6078POPC   C3A76061   4.907  16.084   6.890
 6078POPC   C4A76062   5.083  16.074   7.316
 6078POPC   C1B76063   5.381  15.799   6.199
 6078POPC   C2B76064   5.418  15.922   6.668
 6078POPC   C3B76065   5.249  15.669   7.011
 6078POPC   C4B76066   5.184  15.612   7.436
 6079POPC   NC376067  18.182  29.255   5.211
 6079POPC   PO476068  18.295  29.885   5.208
 6079POPC   GL176069  18.413  29.810   5.715
 6079POPC   GL276070  18.112  29.653   5.926
 6079POPC   C1A76071  18.475  29.859   6.200
 6079POPC   D2A76072  18.258  30.034   6.566
 6079POPC   C3A76073  18.371  29.868   6.980
 6079POPC   C4A76074  18.610  29.716   7.326
 6079POPC   C1B76075  17.893  29.583   6.315
 6079POPC   C2B76076  17.969  29.617   6.749
 6079POPC   C3B76077  17.888  29.720   7.161
 6079POPC   C4B76078  18.147  29.827   7.528
 6080POPC   NC376079  22.457  13.455   5.315
 6080POPC   PO476080  21.820  13.351   5.611
 6080POPC   GL176081  21.994  13.671   5.887
 6080POPC   GL276082  22.339  13.792   5.808
 6080POPC   C1A76083  22.114  13.790   6.289
 6080POPC   D2A76084  22.186  13.560   6.623
 6080POPC   C3A76085  21.933  13.501   6.971
 6080POPC   C4A76086  21.826  13.256   7.311
 6080POPC   C1B76087  22.553  13.532   6.152
 6080POPC   C2B76088  22.690  13.510   6.587
 6080POPC   C3B76089  22.487  13.591   7.023
 6080POPC   C4B76090  22.614  13.418   7.426
 6081POPC   NC376091   1.026  37.020   5.376
 6081POPC   PO476092   1.575  36.676   5.268
 6081POPC   GL176093   1.283  36.703   5.684
 6081POPC   GL276094   0.909  36.810   5.800
 6081POPC   C1A76095   1.292  36.864   6.127
 6081POPC   D2A76096   1.490  36.742   6.497
 6081POPC   C3A76097   1.299  36.884   6.865
 6081POPC   C4A76098   1.466  37.067   7.245
 6081POPC   C1B76099   0.795  36.630   6.188
 6081POPC   C2B76100   1.017  36.449   6.545
 6081POPC   C3B76101   0.934  36.545   6.966
 6081POPC   C4B76102   0.848  36.459   7.393
 6082POPC   NC376103  39.627  18.536   5.500
 6082POPC   PO476104  40.212  18.441   5.683
 6082POPC   GL176105  40.009  18.172   5.967
 6082POPC   GL276106  39.678  18.154   5.857
 6082POPC   C1A76107  39.942  18.273   6.417
 6082POPC   D2A76108  40.068  18.644   6.703
 6082POPC   C3A76109  40.293  18.544   7.077
 6082POPC   C4A76110  40.080  18.369   7.417
 6082POPC   C1B76111  39.516  18.427   6.196
 6082POPC   C2B76112  39.546  18.592   6.628
 6082POPC   C3B76113  39.690  18.436   7.023
 6082POPC   C4B76114  39.571  18.136   7.314
 6083POPC   NC376115  30.283  42.527   5.292
 6083POPC   PO476116  29.674  42.307   5.096
 6083POPC   GL176117  29.723  42.417   5.591
 6083POPC   GL276118  30.029  42.323   5.774
 6083POPC   C1A76119  29.609  42.341   6.057
 6083POPC   D2A76120  29.860  42.427   6.456
 6083POPC   C3A76121  29.772  42.254   6.886
 6083POPC   C4A76122  29.660  42.443   7.285
 6083POPC   C1B76123  30.231  42.162   6.187
 6083POPC   C2B76124  30.348  42.360   6.583
 6083POPC   C3B76125  30.194  42.540   6.920
 6083POPC   C4B76126  30.151  42.273   7.248
 6084POPC   NC376127   1.019  22.847   5.200
 6084POPC   PO476128   1.428  22.962   5.663
 6084POPC   GL176129   1.079  22.988   5.897
 6084POPC   GL276130   1.069  22.645   5.875
 6084POPC   C1A76131   1.138  23.173   6.310
 6084POPC   D2A76132   1.373  23.077   6.701
 6084POPC   C3A76133   1.135  22.858   7.007
 6084POPC   C4A76134   0.929  22.919   7.332
 6084POPC   C1B76135   1.334  22.700   6.245
 6084POPC   C2B76136   1.313  22.563   6.626
 6084POPC   C3B76137   1.581  22.642   6.949
 6084POPC   C4B76138   1.612  22.967   7.199
 6085POPC   NC376139  22.495  15.455   5.537
 6085POPC   PO476140  21.840  15.560   5.379
 6085POPC   GL176141  21.919  15.821   5.760
 6085POPC   GL276142  22.285  15.839   5.815
 6085POPC   C1A76143  21.953  16.010   6.179
 6085POPC   D2A76144  22.195  16.001   6.552
 6085POPC   C3A76145  21.983  15.978   6.957
 6085POPC   C4A76146  21.844  15.923   7.391
 6085POPC   C1B76147  22.285  15.599   6.196
 6085POPC   C2B76148  22.471  15.555   6.602
 6085POPC   C3B76149  22.289  15.529   6.993
 6085POPC   C4B76150  22.318  15.804   7.350
 6086POPC   NC376151  17.041  10.304   5.409
 6086POPC   PO476152  16.419  10.238   5.140
 6086POPC   GL176153  16.568  10.569   5.542
 6086POPC   GL276154  16.760  10.393   5.794
 6086POPC   C1A76155  16.462  10.681   6.038
 6086POPC   D2A76156  16.768  10.578   6.398
 6086POPC   C3A76157  16.646  10.511   6.832
 6086POPC   C4A76158  16.468  10.547   7.278
 6086POPC   C1B76159  16.918  10.165   6.085
 6086POPC   C2B76160  16.912  10.075   6.493
 6086POPC   C3B76161  17.142  10.130   6.839
 6086POPC   C4B76162  16.882  10.221   7.186
 6087POPC   NC376163  43.764  24.176   5.087
 6087POPC   PO476164  43.612  23.726   5.495
 6087POPC   GL176165  43.801  23.625   5.883
 6087POPC   GL276166  43.905  23.930   5.920
 6087POPC   C1A76167  43.884  23.570   6.325
 6087POPC   D2A76168  43.736  23.722   6.737
 6087POPC   C3A76169  43.753  23.426   7.113
 6087POPC   C4A76170  43.899  23.398   7.544
 6087POPC   C1B76171  44.173  24.041   6.269
 6087POPC   C2B76172  44.245  24.282   6.638
 6087POPC   C3B76173  44.204  24.111   7.047
 6087POPC   C4B76174  43.816  23.923   7.200
 6088POPC   NC376175  20.538  23.969   5.482
 6088POPC   PO476176  20.661  24.661   5.332
 6088POPC   GL176177  20.500  24.679   5.786
 6088POPC   GL276178  20.703  24.401   5.883
 6088POPC   C1A76179  20.609  24.770   6.242
 6088POPC   D2A76180  20.618  24.626   6.669
 6088POPC   C3A76181  20.415  24.846   7.014
 6088POPC   C4A76182  20.443  24.820   7.470
 6088POPC   C1B76183  20.418  24.241   6.223
 6088POPC   C2B76184  20.526  24.112   6.644
 6088POPC   C3B76185  20.681  24.227   7.040
 6088POPC   C4B76186  20.905  24.102   7.390
 6089POPC   NC376187   5.688  41.173   5.569
 6089POPC   PO476188   5.600  40.489   5.532
 6089POPC   GL176189   5.610  40.764   5.880
 6089POPC   GL276190   5.944  40.856   5.910
 6089POPC   C1A76191   5.636  40.745   6.324
 6089POPC   D2A76192   5.615  40.631   6.777
 6089POPC   C3A76193   5.776  40.850   7.143
 6089POPC   C4A76194   6.114  41.044   7.297
 6089POPC   C1B76195   6.135  40.825   6.338
 6089POPC   C2B76196   6.136  40.680   6.783
 6089POPC   C3B76197   6.402  40.625   7.159
 6089POPC   C4B76198   6.535  40.857   7.514
 6090POPC   NC376199   9.684   7.380   4.969
 6090POPC   PO476200   9.472   7.699   5.579
 6090POPC   GL176201   9.756   7.537   5.931
 6090POPC   GL276202  10.125   7.494   5.800
 6090POPC   C1A76203   9.703   7.292   6.304
 6090POPC   D2A76204   9.520   7.440   6.666
 6090POPC   C3A76205   9.632   7.271   7.023
 6090POPC   C4A76206  10.002   7.051   7.185
 6090POPC   C1B76207  10.176   7.474   6.251
 6090POPC   C2B76208  10.033   7.410   6.669
 6090POPC   C3B76209   9.947   7.683   6.982
 6090POPC   C4B76210  10.227   7.827   7.268
 6091POPC   NC376211  39.467  21.955   5.400
 6091POPC   PO476212  39.403  22.599   5.600
 6091POPC   GL176213  39.379  22.251   5.902
 6091POPC   GL276214  39.197  21.943   5.829
 6091POPC   C1A76215  39.131  22.170   6.273
 6091POPC   D2A76216  39.074  21.978   6.671
 6091POPC   C3A76217  39.040  22.221   7.046
 6091POPC   C4A76218  38.899  22.103   7.415
 6091POPC   C1B76219  39.419  21.758   6.200
 6091POPC   C2B76220  39.653  21.948   6.524
 6091POPC   C3B76221  39.520  22.093   6.923
 6091POPC   C4B76222  39.273  21.766   7.146
 6092POPC   NC376223  31.384   5.840   5.272
 6092POPC   PO476224  31.162   5.218   5.528
 6092POPC   GL176225  31.273   5.601   5.795
 6092POPC   GL276226  31.389   5.970   5.788
 6092POPC   C1A76227  31.251   5.722   6.246
 6092POPC   D2A76228  31.137   5.895   6.687
 6092POPC   C3A76229  31.259   5.635   7.054
 6092POPC   C4A76230  31.648   5.572   7.353
 6092POPC   C1B76231  31.257   6.236   6.155
 6092POPC   C2B76232  31.116   6.402   6.554
 6092POPC   C3B76233  31.177   6.326   7.020
 6092POPC   C4B76234  31.402   6.045   7.300
 6093POPC   NC376235  16.272  43.732   5.446
 6093POPC   PO476236  15.618  43.940   5.378
 6093POPC   GL176237  15.806  43.729   5.740
 6093POPC   GL276238  16.036  43.961   5.829
 6093POPC   C1A76239  15.834  43.636   6.197
 6093POPC   D2A76240  16.072  43.688   6.594
 6093POPC   C3A76241  16.005  43.962   6.928
 6093POPC   C4A76242  15.729  43.901   7.282
 6093POPC   C1B76243  15.844  44.178   6.130
 6093POPC   C2B76244  15.777  44.386   6.506
 6093POPC   C3B76245  15.584  44.265   6.898
 6093POPC   C4B76246  15.609  44.439   7.283
 6094POPC   NC376247  12.575   6.378   5.404
 6094POPC   PO476248  11.934   6.725   5.430
 6094POPC   GL176249  11.934   6.592   5.821
 6094POPC   GL276250  12.278   6.549   5.817
 6094POPC   C1A76251  12.080   6.797   6.230
 6094POPC   D2A76252  12.089   7.057   6.606
 6094POPC   C3A76253  12.147   6.760   6.917
 6094POPC   C4A76254  11.989   6.543   7.227
 6094POPC   C1B76255  12.104   6.271   6.165
 6094POPC   C2B76256  12.143   6.309   6.617
 6094POPC   C3B76257  12.350   6.231   6.997
 6094POPC   C4B76258  12.437   6.365   7.384
 6095POPC   NC376259  14.766   7.653   5.559
 6095POPC   PO476260  14.093   7.548   5.353
 6095POPC   GL176261  14.354   7.375   5.686
 6095POPC   GL276262  14.360   7.659   5.850
 6095POPC   C1A76263  14.512   7.227   6.103
 6095POPC   D2A76264  14.822   7.126   6.464
 6095POPC   C3A76265  14.658   7.143   6.903
 6095POPC   C4A76266  14.311   7.214   7.192
 6095POPC   C1B76267  14.179   7.603   6.230
 6095POPC   C2B76268  14.327   7.431   6.597
 6095POPC   C3B76269  14.080   7.586   6.911
 6095POPC   C4B76270  14.123   7.662   7.327
 6096POPC   NC376271  44.681  13.393   5.235
 6096POPC   PO476272  44.922  12.844   5.141
 6096POPC   GL176273  44.820  13.012   5.615
 6096POPC   GL276274  44.589  12.787   5.846
 6096POPC   C1A76275  44.818  13.139   6.090
 6096POPC   D2A76276  44.629  13.053   6.495
 6096POPC   C3A76277  44.933  12.887   6.741
 6096POPC   C4A76278  44.888  12.770   7.138
 6096POPC   C1B76279  44.341  12.696   6.245
 6096POPC   C2B76280  44.194  12.718   6.689
 6096POPC   C3B76281  44.397  12.907   7.056
 6096POPC   C4B76282  44.452  12.955   7.534
 6097POPC   NC376283  22.695  25.354   5.372
 6097POPC   PO476284  22.137  25.054   5.574
 6097POPC   GL176285  22.421  25.186   5.847
 6097POPC   GL276286  22.412  25.523   5.917
 6097POPC   C1A76287  22.481  25.172   6.308
 6097POPC   D2A76288  22.225  25.335   6.637
 6097POPC   C3A76289  21.943  25.086   6.822
 6097POPC   C4A76290  22.156  25.128   7.180
 6097POPC   C1B76291  22.002  25.402   6.175
 6097POPC   C2B76292  21.804  25.629   6.554
 6097POPC   C3B76293  21.814  25.545   7.022
 6097POPC   C4B76294  21.885  25.664   7.461
 6098POPC   NC376295  24.525   9.471   5.366
 6098POPC   PO476296  24.460   8.793   5.379
 6098POPC   GL176297  24.533   8.941   5.753
 6098POPC   GL276298  24.283   9.197   5.752
 6098POPC   C1A76299  24.445   8.801   6.164
 6098POPC   D2A76300  24.382   8.650   6.580
 6098POPC   C3A76301  24.570   8.894   6.940
 6098POPC   C4A76302  24.282   8.894   7.281
 6098POPC   C1B76303  24.521   9.308   6.117
 6098POPC   C2B76304  24.411   9.166   6.540
 6098POPC   C3B76305  24.234   9.278   6.953
 6098POPC   C4B76306  24.424   9.375   7.345
 6099POPC   NC376307   2.961  36.576   5.421
 6099POPC   PO476308   2.851  35.927   5.189
 6099POPC   GL176309   2.864  36.126   5.650
 6099POPC   GL276310   2.522  36.211   5.860
 6099POPC   C1A76311   2.968  36.180   6.094
 6099POPC   D2A76312   2.718  36.257   6.444
 6099POPC   C3A76313   2.867  36.244   6.847
 6099POPC   C4A76314   2.965  36.095   7.245
 6099POPC   C1B76315   2.229  36.138   6.232
 6099POPC   C2B76316   2.285  35.984   6.670
 6099POPC   C3B76317   2.450  36.004   7.099
 6099POPC   C4B76318   2.562  36.424   7.250
 6100POPC   NC376319  37.638  35.679   5.587
 6100POPC   PO476320  37.400  35.056   5.484
 6100POPC   GL176321  37.578  35.174   5.919
 6100POPC   GL276322  37.777  35.485   6.032
 6100POPC   C1A76323  37.499  35.247   6.382
 6100POPC   D2A76324  37.813  35.351   6.720
 6100POPC   C3A76325  37.740  35.547   7.119
 6100POPC   C4A76326  37.408  35.514   7.420
 6100POPC   C1B76327  38.066  35.257   6.272
 6100POPC   C2B76328  38.289  35.166   6.649
 6100POPC   C3B76329  38.185  35.048   7.070
 6100POPC   C4B76330  38.083  35.063   7.511
 6101POPC   NC376331   2.039  23.249   5.298
 6101POPC   PO476332   2.145  23.948   5.420
 6101POPC   GL176333   2.014  23.938   5.850
 6101POPC   GL276334   1.948  23.589   5.810
 6101POPC   C1A76335   2.049  23.987   6.321
 6101POPC   D2A76336   1.904  24.162   6.709
 6101POPC   C3A76337   2.120  23.969   7.031
 6101POPC   C4A76338   1.829  23.836   7.320
 6101POPC   C1B76339   1.852  23.262   6.112
 6101POPC   C2B76340   1.802  23.313   6.537
 6101POPC   C3B76341   1.712  23.468   6.928
 6101POPC   C4B76342   2.065  23.444   7.111
 6102POPC   NC376343   5.304  34.851   5.556
 6102POPC   PO476344   4.925  35.450   5.419
 6102POPC   GL176345   4.888  35.236   5.808
 6102POPC   GL276346   5.227  35.238   5.883
 6102POPC   C1A76347   4.886  35.170   6.258
 6102POPC   D2A76348   4.988  35.418   6.606
 6102POPC   C3A76349   4.949  35.257   6.998
 6102POPC   C4A76350   4.934  35.502   7.335
 6102POPC   C1B76351   5.364  35.452   6.247
 6102POPC   C2B76352   5.495  35.306   6.648
 6102POPC   C3B76353   5.435  35.468   7.042
 6102POPC   C4B76354   5.392  35.373   7.471
 6103POPC   NC376355  26.833  39.106   5.402
 6103POPC   PO476356  26.477  39.639   5.401
 6103POPC   GL176357  26.682  39.408   5.773
 6103POPC   GL276358  26.524  39.046   5.804
 6103POPC   C1A76359  26.896  39.323   6.189
 6103POPC   D2A76360  27.051  39.484   6.615
 6103POPC   C3A76361  26.815  39.761   6.870
 6103POPC   C4A76362  26.736  39.803   7.290
 6103POPC   C1B76363  26.583  38.920   6.231
 6103POPC   C2B76364  26.841  38.967   6.575
 6103POPC   C3B76365  26.917  38.948   6.993
 6103POPC   C4B76366  26.698  39.072   7.398
 6104POPC   NC376367  40.275  43.882   4.984
 6104POPC   PO476368  40.783  44.021   5.383
 6104POPC   GL176369  40.848  43.912   5.819
 6104POPC   GL276370  40.629  43.640   5.731
 6104POPC   C1A76371  40.958  44.091   6.255
 6104POPC   D2A76372  41.054  44.127   6.704
 6104POPC   C3A76373  41.064  43.791   6.953
 6104POPC   C4A76374  41.187  43.667   7.332
 6104POPC   C1B76375  40.567  43.361   6.085
 6104POPC   C2B76376  40.570  43.199   6.495
 6104POPC   C3B76377  40.648  43.114   6.910
 6104POPC   C4B76378  40.679  43.360   7.324
 6105POPC   NC376379  29.292  42.399   5.332
 6105POPC   PO476380  28.686  42.074   5.330
 6105POPC   GL176381  28.794  42.339   5.711
 6105POPC   GL276382  29.131  42.293   5.830
 6105POPC   C1A76383  28.750  42.251   6.192
 6105POPC   D2A76384  28.931  42.081   6.603
 6105POPC   C3A76385  28.812  42.269   6.987
 6105POPC   C4A76386  29.121  42.366   7.330
 6105POPC   C1B76387  29.239  41.992   6.187
 6105POPC   C2B76388  29.462  41.954   6.583
 6105POPC   C3B76389  29.341  41.993   7.022
 6105POPC   C4B76390  29.424  41.979   7.468
 6106POPC   NC376391   0.297  12.946   5.381
 6106POPC   PO476392   0.915  12.852   5.334
 6106POPC   GL176393   0.631  12.772   5.752
 6106POPC   GL276394   0.245  12.856   5.896
 6106POPC   C1A76395   0.668  12.943   6.180
 6106POPC   D2A76396   0.424  12.929   6.558
 6106POPC   C3A76397   0.706  12.941   6.909
 6106POPC   C4A76398   0.773  12.659   7.273
 6106POPC   C1B76399   0.336  12.533   6.206
 6106POPC   C2B76400   0.171  12.403   6.615
 6106POPC   C3B76401   0.329  12.585   6.983
 6106POPC   C4B76402   0.261  12.472   7.402
 6107POPC   NC376403  15.352  25.464   5.459
 6107POPC   PO476404  14.932  25.054   5.227
 6107POPC   GL176405  14.996  25.203   5.714
 6107POPC   GL276406  15.309  25.034   5.781
 6107POPC   C1A76407  15.161  25.387   6.127
 6107POPC   D2A76408  15.252  25.292   6.567
 6107POPC   C3A76409  15.150  25.571   6.906
 6107POPC   C4A76410  15.167  25.464   7.337
 6107POPC   C1B76411  15.520  25.016   6.181
 6107POPC   C2B76412  15.553  24.873   6.618
 6107POPC   C3B76413  15.486  25.110   7.013
 6107POPC   C4B76414  15.315  24.940   7.398
 6108POPC   NC376415  38.178  29.102   5.507
 6108POPC   PO476416  38.772  29.031   5.261
 6108POPC   GL176417  38.707  29.212   5.659
 6108POPC   GL276418  38.563  28.944   5.829
 6108POPC   C1A76419  38.781  29.290   6.148
 6108POPC   D2A76420  38.689  29.368   6.613
 6108POPC   C3A76421  38.753  29.154   7.011
 6108POPC   C4A76422  38.600  29.136   7.426
 6108POPC   C1B76423  38.328  29.055   6.226
 6108POPC   C2B76424  38.260  28.989   6.671
 6108POPC   C3B76425  38.247  28.943   7.113
 6108POPC   C4B76426  38.445  28.673   7.394
 6109POPC   NC376427  29.346  32.085   5.470
 6109POPC   PO476428  28.639  32.283   5.274
 6109POPC   GL176429  28.772  32.066   5.692
 6109POPC   GL276430  29.050  32.266   5.831
 6109POPC   C1A76431  28.884  31.862   6.103
 6109POPC   D2A76432  28.992  32.096   6.475
 6109POPC   C3A76433  29.212  31.970   6.832
 6109POPC   C4A76434  29.170  32.212   7.212
 6109POPC   C1B76435  29.320  32.379   6.183
 6109POPC   C2B76436  29.513  32.625   6.494
 6109POPC   C3B76437  29.489  32.464   6.904
 6109POPC   C4B76438  29.634  32.404   7.329
 6110POPC   NC376439  18.072  43.342   5.330
 6110POPC   PO476440  18.422  42.750   5.468
 6110POPC   GL176441  18.355  43.106   5.703
 6110POPC   GL276442  18.186  42.863   5.895
 6110POPC   C1A76443  18.310  43.270   6.150
 6110POPC   D2A76444  18.250  43.036   6.563
 6110POPC   C3A76445  18.286  43.240   7.003
 6110POPC   C4A76446  18.230  43.279   7.491
 6110POPC   C1B76447  17.909  42.880   6.184
 6110POPC   C2B76448  17.901  42.649   6.529
 6110POPC   C3B76449  17.965  42.782   6.907
 6110POPC   C4B76450  17.830  43.044   7.142
 6111POPC   NC376451   4.890  24.608   5.468
 6111POPC   PO476452   5.405  24.089   5.291
 6111POPC   GL176453   5.286  24.376   5.695
 6111POPC   GL276454   4.952  24.388   5.924
 6111POPC   C1A76455   5.384  24.446   6.153
 6111POPC   D2A76456   5.068  24.353   6.464
 6111POPC   C3A76457   5.288  24.309   6.837
 6111POPC   C4A76458   5.243  24.346   7.274
 6111POPC   C1B76459   4.832  24.739   6.167
 6111POPC   C2B76460   4.724  24.766   6.584
 6111POPC   C3B76461   4.868  24.621   6.985
 6111POPC   C4B76462   4.653  24.699   7.379
 6112POPC   NC376463  25.574  33.720   5.544
 6112POPC   PO476464  24.992  33.393   5.384
 6112POPC   GL176465  25.014  33.573   5.812
 6112POPC   GL276466  25.115  33.922   5.830
 6112POPC   C1A76467  25.199  33.632   6.236
 6112POPC   D2A76468  25.050  33.730   6.649
 6112POPC   C3A76469  25.226  33.677   7.049
 6112POPC   C4A76470  24.954  33.606   7.400
 6112POPC   C1B76471  25.174  34.152   6.237
 6112POPC   C2B76472  24.955  34.231   6.629
 6112POPC   C3B76473  25.154  34.183   7.036
 6112POPC   C4B76474  25.298  34.004   7.454
 6113POPC   NC376475  40.740  21.100   5.351
 6113POPC   PO476476  40.573  21.719   5.566
 6113POPC   GL176477  40.667  21.323   5.834
 6113POPC   GL276478  40.559  20.949   5.821
 6113POPC   C1A76479  40.817  21.458   6.236
 6113POPC   D2A76480  40.692  21.678   6.585
 6113POPC   C3A76481  40.872  21.548   6.967
 6113POPC   C4A76482  41.134  21.208   7.154
 6113POPC   C1B76483  40.750  20.953   6.235
 6113POPC   C2B76484  40.913  21.146   6.642
 6113POPC   C3B76485  40.695  20.990   6.991
 6113POPC   C4B76486  40.420  20.879   7.316
 6114POPC   NC376487   5.445   8.373   5.280
 6114POPC   PO476488   4.794   8.261   5.344
 6114POPC   GL176489   5.103   8.217   5.672
 6114POPC   GL276490   5.124   7.856   5.708
 6114POPC   C1A76491   5.117   8.340   6.133
 6114POPC   D2A76492   4.827   8.259   6.495
 6114POPC   C3A76493   4.884   8.370   6.951
 6114POPC   C4A76494   5.261   8.489   7.164
 6114POPC   C1B76495   5.006   7.839   6.145
 6114POPC   C2B76496   5.252   7.959   6.520
 6114POPC   C3B76497   5.326   7.762   6.899
 6114POPC   C4B76498   5.182   7.961   7.226
 6115POPC   NC376499   0.532   9.073   5.300
 6115POPC   PO476500   0.624   8.389   5.549
 6115POPC   GL176501   0.676   8.798   5.710
 6115POPC   GL276502   0.327   8.877   5.743
 6115POPC   C1A76503   0.643   9.098   6.072
 6115POPC   D2A76504   0.639   9.225   6.504
 6115POPC   C3A76505   0.493   9.052   6.892
 6115POPC   C4A76506   0.632   9.248   7.249
 6115POPC   C1B76507   0.476   8.611   6.135
 6115POPC   C2B76508   0.448   8.685   6.544
 6115POPC   C3B76509   0.290   8.570   6.939
 6115POPC   C4B76510   0.209   8.728   7.347
 6116POPC   NC376511  35.157  38.140   5.240
 6116POPC   PO476512  35.846  38.317   5.252
 6116POPC   GL176513  35.661  38.211   5.704
 6116POPC   GL276514  35.307  38.347   5.744
 6116POPC   C1A76515  35.670  38.350   6.175
 6116POPC   D2A76516  35.510  38.492   6.599
 6116POPC   C3A76517  35.494  38.194   6.933
 6116POPC   C4A76518  35.509  37.993   7.327
 6116POPC   C1B76519  35.177  38.539   6.167
 6116POPC   C2B76520  34.993  38.541   6.601
 6116POPC   C3B76521  35.124  38.534   7.059
 6116POPC   C4B76522  34.815  38.567   7.411
 6117POPC   NC376523  40.226  27.546   4.997
 6117POPC   PO476524  39.823  27.872   5.371
 6117POPC   GL176525  39.904  27.728   5.811
 6117POPC   GL276526  39.786  27.437   5.856
 6117POPC   C1A76527  40.225  27.624   6.152
 6117POPC   D2A76528  40.348  27.894   6.521
 6117POPC   C3A76529  40.393  27.720   6.950
 6117POPC   C4A76530  40.091  27.811   7.282
 6117POPC   C1B76531  39.750  27.692   6.306
 6117POPC   C2B76532  39.853  27.587   6.736
 6117POPC   C3B76533  39.855  27.186   6.939
 6117POPC   C4B76534  39.785  27.031   7.364
 6118POPC   NC376535  16.429  43.131   5.369
 6118POPC   PO476536  16.999  43.318   5.645
 6118POPC   GL176537  16.646  43.123   5.848
 6118POPC   GL276538  16.388  43.380   5.809
 6118POPC   C1A76539  16.678  42.765   6.150
 6118POPC   D2A76540  16.800  42.718   6.606
 6118POPC   C3A76541  16.508  42.896   6.922
 6118POPC   C4A76542  16.549  43.229   7.213
 6118POPC   C1B76543  16.352  43.506   6.210
 6118POPC   C2B76544  16.454  43.331   6.629
 6118POPC   C3B76545  16.871  43.283   6.829
 6118POPC   C4B76546  17.014  43.534   7.175
 6119POPC   NC376547  40.323  42.374   5.549
 6119POPC   PO476548  41.067  42.212   5.428
 6119POPC   GL176549  40.810  42.416   5.744
 6119POPC   GL276550  40.694  42.091   5.866
 6119POPC   C1A76551  40.641  42.447   6.190
 6119POPC   D2A76552  40.813  42.379   6.595
 6119POPC   C3A76553  40.668  42.172   6.938
 6119POPC   C4A76554  40.729  42.345   7.328
 6119POPC   C1B76555  40.954  42.006   6.268
 6119POPC   C2B76556  41.079  41.943   6.720
 6119POPC   C3B76557  40.959  41.833   7.187
 6119POPC   C4B76558  40.689  41.930   7.609
 6120POPC   NC376559  35.074   3.465   5.545
 6120POPC   PO476560  34.376   3.579   5.461
 6120POPC   GL176561  34.385   3.565   5.867
 6120POPC   GL276562  34.701   3.716   5.836
 6120POPC   C1A76563  34.393   3.235   6.189
 6120POPC   D2A76564  34.557   3.286   6.591
 6120POPC   C3A76565  34.382   3.260   6.997
 6120POPC   C4A76566  34.421   3.045   7.384
 6120POPC   C1B76567  34.732   3.622   6.248
 6120POPC   C2B76568  34.992   3.573   6.572
 6120POPC   C3B76569  34.822   3.556   6.951
 6120POPC   C4B76570  34.622   3.620   7.323
 6121POPC   NC376571   2.126  41.434   5.456
 6121POPC   PO476572   2.503  41.998   5.468
 6121POPC   GL176573   2.187  41.852   5.791
 6121POPC   GL276574   2.064  41.530   5.947
 6121POPC   C1A76575   2.089  41.960   6.238
 6121POPC   D2A76576   2.261  41.650   6.500
 6121POPC   C3A76577   2.134  41.540   6.880
 6121POPC   C4A76578   1.976  41.760   7.211
 6121POPC   C1B76579   1.750  41.272   6.151
 6121POPC   C2B76580   1.591  41.196   6.555
 6121POPC   C3B76581   1.800  41.114   6.939
 6121POPC   C4B76582   2.081  41.222   7.262
 6122POPC   NC376583  31.744  33.853   5.332
 6122POPC   PO476584  31.141  34.038   5.572
 6122POPC   GL176585  31.440  33.762   5.788
 6122POPC   GL276586  31.784  33.847   5.832
 6122POPC   C1A76587  31.351  33.571   6.176
 6122POPC   D2A76588  31.382  33.741   6.591
 6122POPC   C3A76589  31.149  33.574   6.914
 6122POPC   C4A76590  31.190  33.860   7.229
 6122POPC   C1B76591  31.771  33.854   6.253
 6122POPC   C2B76592  31.884  33.929   6.662
 6122POPC   C3B76593  31.701  33.963   7.061
 6122POPC   C4B76594  31.654  33.677   7.392
 6123POPC   NC376595  16.853  40.407   5.552
 6123POPC   PO476596  16.885  41.048   5.229
 6123POPC   GL176597  16.796  40.908   5.698
 6123POPC   GL276598  16.456  40.763   5.751
 6123POPC   C1A76599  16.824  41.060   6.162
 6123POPC   D2A76600  17.044  41.189   6.576
 6123POPC   C3A76601  17.000  40.916   6.967
 6123POPC   C4A76602  16.918  40.519   7.206
 6123POPC   C1B76603  16.619  40.583   6.157
 6123POPC   C2B76604  16.727  40.717   6.569
 6123POPC   C3B76605  16.504  40.578   6.915
 6123POPC   C4B76606  16.164  40.620   7.199
 6124POPC   NC376607   0.958  17.557   5.266
 6124POPC   PO476608   1.592  17.293   5.157
 6124POPC   GL176609   1.293  17.500   5.624
 6124POPC   GL276610   0.915  17.433   5.767
 6124POPC   C1A76611   1.275  17.566   6.130
 6124POPC   D2A76612   1.171  17.688   6.605
 6124POPC   C3A76613   1.408  17.656   7.026
 6124POPC   C4A76614   1.402  17.483   7.485
 6124POPC   C1B76615   0.892  17.190   6.175
 6124POPC   C2B76616   0.750  17.125   6.590
 6124POPC   C3B76617   0.869  17.245   6.993
 6124POPC   C4B76618   0.984  17.041   7.396
 6125POPC   NC376619   3.718  30.086   5.424
 6125POPC   PO476620   3.160  29.944   5.641
 6125POPC   GL176621   3.420  29.711   5.880
 6125POPC   GL276622   3.600  30.054   5.950
 6125POPC   C1A76623   3.531  29.670   6.308
 6125POPC   D2A76624   3.675  29.997   6.553
 6125POPC   C3A76625   3.486  30.116   6.961
 6125POPC   C4A76626   3.512  29.857   7.340
 6125POPC   C1B76627   3.975  29.866   6.140
 6125POPC   C2B76628   4.021  29.639   6.556
 6125POPC   C3B76629   3.851  29.753   6.968
 6125POPC   C4B76630   3.960  30.118   7.235
 6126POPC   NC376631  29.656  13.542   5.234
 6126POPC   PO476632  30.365  13.539   5.251
 6126POPC   GL176633  30.055  13.657   5.595
 6126POPC   GL276634  29.808  13.419   5.716
 6126POPC   C1A76635  30.042  13.765   6.037
 6126POPC   D2A76636  30.211  13.585   6.419
 6126POPC   C3A76637  30.101  13.807   6.797
 6126POPC   C4A76638  30.198  13.791   7.213
 6126POPC   C1B76639  29.804  13.348   6.162
 6126POPC   C2B76640  29.838  13.271   6.618
 6126POPC   C3B76641  29.974  13.351   7.056
 6126POPC   C4B76642  30.106  13.399   7.528
 6127POPC   NC376643  22.477  20.183   5.534
 6127POPC   PO476644  23.042  19.920   5.445
 6127POPC   GL176645  23.077  19.829   5.899
 6127POPC   GL276646  22.699  19.845   5.877
 6127POPC   C1A76647  22.904  19.674   6.320
 6127POPC   D2A76648  22.609  19.782   6.651
 6127POPC   C3A76649  22.813  19.672   7.025
 6127POPC   C4A76650  23.153  19.916   7.217
 6127POPC   C1B76651  22.685  20.124   6.216
 6127POPC   C2B76652  22.640  20.298   6.616
 6127POPC   C3B76653  22.686  20.160   7.050
 6127POPC   C4B76654  22.702  19.944   7.449
 6128POPC   NC376655   5.327  23.653   5.581
 6128POPC   PO476656   4.832  24.150   5.505
 6128POPC   GL176657   4.931  23.863   5.818
 6128POPC   GL276658   5.258  23.960   5.974
 6128POPC   C1A76659   4.968  23.565   6.161
 6128POPC   D2A76660   4.792  23.687   6.536
 6128POPC   C3A76661   4.852  23.588   6.933
 6128POPC   C4A76662   5.039  23.931   7.102
 6128POPC   C1B76663   5.299  23.883   6.386
 6128POPC   C2B76664   5.307  23.504   6.604
 6128POPC   C3B76665   5.360  23.562   7.020
 6128POPC   C4B76666   5.560  23.959   7.136
 6129POPC   NC376667  34.822  28.152   5.563
 6129POPC   PO476668  34.595  28.828   5.514
 6129POPC   GL176669  34.760  28.606   5.833
 6129POPC   GL276670  34.490  28.384   5.890
 6129POPC   C1A76671  34.893  28.377   6.196
 6129POPC   D2A76672  34.836  28.124   6.550
 6129POPC   C3A76673  34.918  28.320   6.920
 6129POPC   C4A76674  34.616  28.440   7.242
 6129POPC   C1B76675  34.478  28.037   6.172
 6129POPC   C2B76676  34.311  28.083   6.562
 6129POPC   C3B76677  34.485  28.037   6.950
 6129POPC   C4B76678  34.274  27.825   7.234
 6130POPC   NC376679  17.844  14.479   5.278
 6130POPC   PO476680  17.309  14.214   5.542
 6130POPC   GL176681  17.408  14.462   5.851
 6130POPC   GL276682  17.748  14.534   5.762
 6130POPC   C1A76683  17.299  14.355   6.252
 6130POPC   D2A76684  17.545  14.133   6.531
 6130POPC   C3A76685  17.346  14.400   6.811
 6130POPC   C4A76686  17.377  14.392   7.225
 6130POPC   C1B76687  17.797  14.369   6.149
 6130POPC   C2B76688  17.774  14.593   6.523
 6130POPC   C3B76689  17.823  14.513   6.949
 6130POPC   C4B76690  17.747  14.740   7.293
 6131POPC   NC376691  34.772   9.271   5.352
 6131POPC   PO476692  34.541   8.631   5.319
 6131POPC   GL176693  34.670   8.915   5.694
 6131POPC   GL276694  34.622   8.624   5.865
 6131POPC   C1A76695  34.515   9.051   6.131
 6131POPC   D2A76696  34.715   8.969   6.524
 6131POPC   C3A76697  34.575   8.984   6.946
 6131POPC   C4A76698  34.719   9.219   7.313
 6131POPC   C1B76699  34.527   8.537   6.293
 6131POPC   C2B76700  34.538   8.478   6.744
 6131POPC   C3B76701  34.257   8.595   7.079
 6131POPC   C4B76702  34.063   8.642   7.514
 6132POPC   NC376703   0.160  19.514   5.541
 6132POPC   PO476704   0.433  18.876   5.467
 6132POPC   GL176705   0.168  19.048   5.830
 6132POPC   GL276706   0.345  19.347   6.002
 6132POPC   C1A76707   0.126  19.000   6.297
 6132POPC   D2A76708   0.352  19.202   6.607
 6132POPC   C3A76709   0.462  18.929   6.920
 6132POPC   C4A76710   0.191  18.751   7.209
 6132POPC   C1B76711   0.658  19.045   6.209
 6132POPC   C2B76712   0.874  19.113   6.612
 6132POPC   C3B76713   0.710  19.444   6.881
 6132POPC   C4B76714   0.296  19.518   7.038
 6133POPC   NC376715  38.609  35.458   5.493
 6133POPC   PO476716  37.959  35.353   5.573
 6133POPC   GL176717  38.271  35.174   5.804
 6133POPC   GL276718  38.326  35.524   5.912
 6133POPC   C1A76719  38.561  35.134   6.169
 6133POPC   D2A76720  38.780  35.065   6.568
 6133POPC   C3A76721  38.686  35.254   6.998
 6133POPC   C4A76722  38.726  35.187   7.469
 6133POPC   C1B76723  38.471  35.638   6.300
 6133POPC   C2B76724  38.481  35.674   6.724
 6133POPC   C3B76725  38.251  35.553   7.039
 6133POPC   C4B76726  38.338  35.503   7.469
 6134POPC   NC376727  43.589  38.707   5.548
 6134POPC   PO476728  43.900  38.119   5.525
 6134POPC   GL176729  43.986  38.457   5.795
 6134POPC   GL276730  44.154  38.255   5.987
 6134POPC   C1A76731  43.925  38.658   6.213
 6134POPC   D2A76732  44.048  38.490   6.604
 6134POPC   C3A76733  43.797  38.467   7.005
 6134POPC   C4A76734  43.844  38.648   7.433
 6134POPC   C1B76735  43.901  38.080   6.306
 6134POPC   C2B76736  43.983  38.002   6.730
 6134POPC   C3B76737  44.254  38.202   6.978
 6134POPC   C4B76738  44.219  38.289   7.401
 6135POPC   NC376739   6.946  18.395   5.397
 6135POPC   PO476740   6.494  18.021   5.299
 6135POPC   GL176741   6.544  18.215   5.691
 6135POPC   GL276742   6.503  18.594   5.618
 6135POPC   C1A76743   6.598  18.077   6.139
 6135POPC   D2A76744   6.396  18.214   6.503
 6135POPC   C3A76745   6.588  18.129   6.885
 6135POPC   C4A76746   6.409  18.227   7.289
 6135POPC   C1B76747   6.597  18.573   6.065
 6135POPC   C2B76748   6.781  18.538   6.523
 6135POPC   C3B76749   6.646  18.634   6.965
 6135POPC   C4B76750   6.496  18.690   7.424
 6136POPC   NC376751  23.429  42.669   5.287
 6136POPC   PO476752  23.917  43.079   5.449
 6136POPC   GL176753  23.649  43.070   5.781
 6136POPC   GL276754  23.322  43.171   5.729
 6136POPC   C1A76755  23.648  43.120   6.192
 6136POPC   D2A76756  23.640  43.308   6.543
 6136POPC   C3A76757  23.761  43.099   6.882
 6136POPC   C4A76758  23.633  43.272   7.236
 6136POPC   C1B76759  23.234  42.856   6.065
 6136POPC   C2B76760  23.234  42.521   6.364
 6136POPC   C3B76761  23.298  42.527   6.826
 6136POPC   C4B76762  23.483  42.790   7.188
 6137POPC   NC376763  33.338   7.795   5.435
 6137POPC   PO476764  32.863   7.263   5.374
 6137POPC   GL176765  32.854   7.548   5.744
 6137POPC   GL276766  33.186   7.601   5.871
 6137POPC   C1A76767  32.693   7.482   6.175
 6137POPC   D2A76768  32.896   7.508   6.593
 6137POPC   C3A76769  32.716   7.544   7.014
 6137POPC   C4A76770  32.743   7.139   7.235
 6137POPC   C1B76771  33.331   7.505   6.284
 6137POPC   C2B76772  33.349   7.156   6.590
 6137POPC   C3B76773  33.182   7.271   6.995
 6137POPC   C4B76774  33.235   7.672   7.200
 6138POPC   NC376775  30.395   1.156   5.315
 6138POPC   PO476776  30.985   1.372   5.212
 6138POPC   GL176777  30.819   1.307   5.639
 6138POPC   GL276778  30.494   1.467   5.724
 6138POPC   C1A76779  30.870   1.368   6.090
 6138POPC   D2A76780  30.780   1.417   6.529
 6138POPC   C3A76781  31.073   1.464   6.874
 6138POPC   C4A76782  30.878   1.303   7.241
 6138POPC   C1B76783  30.382   1.204   6.105
 6138POPC   C2B76784  30.506   0.966   6.489
 6138POPC   C3B76785  30.536   1.129   6.904
 6138POPC   C4B76786  30.470   0.959   7.312
 6139POPC   NC376787  19.432  12.150   5.445
 6139POPC   PO476788  18.778  12.137   5.315
 6139POPC   GL176789  18.999  12.014   5.679
 6139POPC   GL276790  19.088  12.318   5.809
 6139POPC   C1A76791  19.100  11.931   6.131
 6139POPC   D2A76792  18.858  11.796   6.483
 6139POPC   C3A76793  19.004  11.915   6.894
 6139POPC   C4A76794  19.020  12.045   7.295
 6139POPC   C1B76795  19.187  12.490   6.185
 6139POPC   C2B76796  19.228  12.218   6.540
 6139POPC   C3B76797  19.182  12.394   6.940
 6139POPC   C4B76798  19.310  12.470   7.353
 6140POPC   NC376799  23.722  40.914   5.283
 6140POPC   PO476800  23.650  40.266   5.416
 6140POPC   GL176801  23.790  40.630   5.726
 6140POPC   GL276802  23.782  41.014   5.774
 6140POPC   C1A76803  23.772  40.690   6.191
 6140POPC   D2A76804  23.588  40.899   6.550
 6140POPC   C3A76805  23.657  40.710   6.935
 6140POPC   C4A76806  24.031  40.709   7.168
 6140POPC   C1B76807  23.604  41.220   6.139
 6140POPC   C2B76808  23.724  41.376   6.560
 6140POPC   C3B76809  23.857  41.196   6.954
 6140POPC   C4B76810  23.651  41.065   7.294
 6141POPC   NC376811  27.346   5.853   5.422
 6141POPC   PO476812  27.955   5.682   5.293
 6141POPC   GL176813  27.767   5.680   5.728
 6141POPC   GL276814  27.449   5.494   5.781
 6141POPC   C1A76815  27.580   5.912   6.085
 6141POPC   D2A76816  27.679   6.212   6.431
 6141POPC   C3A76817  27.620   5.942   6.809
 6141POPC   C4A76818  27.539   5.963   7.225
 6141POPC   C1B76819  27.239   5.521   6.182
 6141POPC   C2B76820  27.396   5.527   6.615
 6141POPC   C3B76821  27.254   5.529   7.048
 6141POPC   C4B76822  27.407   5.535   7.495
 6142POPC   NC376823  41.923   4.650   5.406
 6142POPC   PO476824  42.316   4.164   5.106
 6142POPC   GL176825  42.290   4.284   5.577
 6142POPC   GL276826  42.513   4.520   5.746
 6142POPC   C1A76827  42.093   4.436   6.004
 6142POPC   D2A76828  42.133   4.711   6.365
 6142POPC   C3A76829  42.246   4.499   6.744
 6142POPC   C4A76830  42.142   4.484   7.168
 6142POPC   C1B76831  42.531   4.398   6.245
 6142POPC   C2B76832  42.722   4.341   6.684
 6142POPC   C3B76833  42.629   4.341   7.139
 6142POPC   C4B76834  42.830   4.402   7.530
 6143POPC   NC376835  38.615  42.645   5.472
 6143POPC   PO476836  38.089  42.502   5.076
 6143POPC   GL176837  38.170  42.368   5.551
 6143POPC   GL276838  38.494  42.160   5.676
 6143POPC   C1A76839  38.173  42.367   6.043
 6143POPC   D2A76840  38.283  42.201   6.495
 6143POPC   C3A76841  38.086  42.416   6.890
 6143POPC   C4A76842  38.234  42.343   7.324
 6143POPC   C1B76843  38.655  42.226   6.122
 6143POPC   C2B76844  38.788  42.178   6.566
 6143POPC   C3B76845  38.589  42.295   6.930
 6143POPC   C4B76846  38.745  42.451   7.289
 6144POPC   NC376847  36.455  11.049   5.446
 6144POPC   PO476848  35.901  11.443   5.462
 6144POPC   GL176849  36.170  11.513   5.790
 6144POPC   GL276850  36.347  11.249   5.919
 6144POPC   C1A76851  36.081  11.606   6.212
 6144POPC   D2A76852  36.345  11.549   6.554
 6144POPC   C3A76853  36.168  11.404   6.910
 6144POPC   C4A76854  36.226  11.553   7.313
 6144POPC   C1B76855  36.001  11.058   6.118
 6144POPC   C2B76856  36.055  10.872   6.538
 6144POPC   C3B76857  35.947  10.918   6.927
 6144POPC   C4B76858  35.897  11.139   7.275
 6145POPC   NC376859  14.019   7.080   5.414
 6145POPC   PO476860  13.650   6.566   5.178
 6145POPC   GL176861  13.771   6.501   5.647
 6145POPC   GL276862  13.814   6.796   5.775
 6145POPC   C1A76863  13.552   6.338   6.028
 6145POPC   D2A76864  13.577   6.272   6.476
 6145POPC   C3A76865  13.276   6.061   6.720
 6145POPC   C4A76866  13.384   6.105   7.142
 6145POPC   C1B76867  13.550   6.855   6.115
 6145POPC   C2B76868  13.608   6.797   6.536
 6145POPC   C3B76869  13.390   6.980   6.861
 6145POPC   C4B76870  13.434   6.962   7.278
 6146POPC   NC376871   9.895  29.539   5.432
 6146POPC   PO476872   9.468  28.983   5.342
 6146POPC   GL176873   9.418  29.115   5.802
 6146POPC   GL276874   9.634  29.399   5.840
 6146POPC   C1A76875   9.676  29.037   6.209
 6146POPC   D2A76876   9.962  29.141   6.552
 6146POPC   C3A76877   9.796  29.035   6.971
 6146POPC   C4A76878   9.624  28.829   7.344
 6146POPC   C1B76879   9.731  29.549   6.266
 6146POPC   C2B76880   9.544  29.441   6.680
 6146POPC   C3B76881   9.530  29.452   7.138
 6146POPC   C4B76882   9.708  29.700   7.461
 6147POPC   NC376883   1.178  34.432   5.266
 6147POPC   PO476884   1.276  35.050   5.402
 6147POPC   GL176885   1.104  34.708   5.695
 6147POPC   GL276886   1.294  34.361   5.760
 6147POPC   C1A76887   0.996  34.580   6.108
 6147POPC   D2A76888   1.131  34.472   6.501
 6147POPC   C3A76889   0.841  34.471   6.781
 6147POPC   C4A76890   1.016  34.555   7.169
 6147POPC   C1B76891   1.494  34.332   6.167
 6147POPC   C2B76892   1.531  34.183   6.624
 6147POPC   C3B76893   1.504  34.452   6.991
 6147POPC   C4B76894   1.451  34.415   7.454
 6148POPC   NC376895  26.089  25.888   5.448
 6148POPC   PO476896  26.415  26.510   5.363
 6148POPC   GL176897  26.152  26.319   5.720
 6148POPC   GL276898  25.805  26.257   5.685
 6148POPC   C1A76899  26.094  26.358   6.174
 6148POPC   D2A76900  26.187  26.065   6.505
 6148POPC   C3A76901  26.001  26.125   6.903
 6148POPC   C4A76902  26.090  26.403   7.235
 6148POPC   C1B76903  25.830  25.929   6.047
 6148POPC   C2B76904  25.800  25.708   6.444
 6148POPC   C3B76905  25.879  25.558   6.853
 6148POPC   C4B76906  25.845  25.781   7.251
 6149POPC   NC376907   3.866  28.223   5.583
 6149POPC   PO476908   3.203  28.266   5.377
 6149POPC   GL176909   3.389  28.357   5.811
 6149POPC   GL276910   3.414  28.712   5.858
 6149POPC   C1A76911   3.311  28.455   6.291
 6149POPC   D2A76912   3.151  28.480   6.748
 6149POPC   C3A76913   3.519  28.520   6.999
 6149POPC   C4A76914   3.740  28.119   7.171
 6149POPC   C1B76915   3.679  28.825   6.248
 6149POPC   C2B76916   3.854  28.790   6.688
 6149POPC   C3B76917   4.015  28.557   7.061
 6149POPC   C4B76918   3.735  28.572   7.470
 6150POPC   NC376919  15.544  21.273   5.496
 6150POPC   PO476920  14.873  21.140   5.504
 6150POPC   GL176921  15.075  21.191   5.892
 6150POPC   GL276922  15.230  21.491   5.876
 6150POPC   C1A76923  14.996  21.286   6.344
 6150POPC   D2A76924  14.970  21.439   6.761
 6150POPC   C3A76925  15.128  21.228   7.084
 6150POPC   C4A76926  15.537  21.037   7.107
 6150POPC   C1B76927  14.952  21.755   6.126
 6150POPC   C2B76928  14.770  22.008   6.477
 6150POPC   C3B76929  14.698  21.846   6.884
 6150POPC   C4B76930  14.997  21.742   7.207
 6151POPC   NC376931  31.169  20.689   5.414
 6151POPC   PO476932  31.784  20.823   5.460
 6151POPC   GL176933  31.521  20.733   5.833
 6151POPC   GL276934  31.609  20.338   5.854
 6151POPC   C1A76935  31.359  20.917   6.268
 6151POPC   D2A76936  31.574  20.933   6.678
 6151POPC   C3A76937  31.381  20.824   7.064
 6151POPC   C4A76938  31.456  20.807   7.525
 6151POPC   C1B76939  31.256  20.427   6.177
 6151POPC   C2B76940  31.265  20.468   6.654
 6151POPC   C3B76941  31.367  20.331   7.112
 6151POPC   C4B76942  31.771  20.492   7.290
 6152POPC   NC376943  24.103  29.948   5.498
 6152POPC   PO476944  24.567  30.222   5.753
 6152POPC   GL176945  24.405  29.886   5.963
 6152POPC   GL276946  24.404  29.601   5.759
 6152POPC   C1A76947  24.692  29.613   6.176
 6152POPC   D2A76948  24.836  29.539   6.577
 6152POPC   C3A76949  24.739  29.853   6.890
 6152POPC   C4A76950  24.801  30.168   7.234
 6152POPC   C1B76951  24.202  29.448   6.153
 6152POPC   C2B76952  24.320  29.595   6.535
 6152POPC   C3B76953  24.341  29.502   6.921
 6152POPC   C4B76954  24.411  29.694   7.271
 6153POPC   NC376955  29.233  12.565   5.317
 6153POPC   PO476956  29.452  13.170   5.420
 6153POPC   GL176957  29.162  13.113   5.784
 6153POPC   GL276958  29.282  12.801   5.936
 6153POPC   C1A76959  28.914  12.975   6.203
 6153POPC   D2A76960  29.088  12.851   6.590
 6153POPC   C3A76961  28.917  13.013   6.948
 6153POPC   C4A76962  28.998  12.713   7.256
 6153POPC   C1B76963  29.375  13.132   6.253
 6153POPC   C2B76964  29.327  13.289   6.667
 6153POPC   C3B76965  29.445  13.011   7.045
 6153POPC   C4B76966  29.719  13.067   7.428
 6154POPC   NC376967  10.252   6.659   5.433
 6154POPC   PO476968  10.932   6.526   5.566
 6154POPC   GL176969  10.571   6.382   5.831
 6154POPC   GL276970  10.191   6.330   5.836
 6154POPC   C1A76971  10.516   6.405   6.269
 6154POPC   D2A76972  10.505   6.713   6.590
 6154POPC   C3A76973  10.654   6.586   6.992
 6154POPC   C4A76974  10.692   6.933   7.237
 6154POPC   C1B76975  10.005   6.468   6.196
 6154POPC   C2B76976  10.102   6.320   6.593
 6154POPC   C3B76977  10.149   6.548   6.963
 6154POPC   C4B76978  10.294   6.641   7.365
 6155POPC   NC376979   8.562   4.796   5.468
 6155POPC   PO476980   8.186   5.297   5.479
 6155POPC   GL176981   8.261   5.107   5.824
 6155POPC   GL276982   8.085   4.802   5.827
 6155POPC   C1A76983   8.105   5.152   6.237
 6155POPC   D2A76984   7.819   5.325   6.507
 6155POPC   C3A76985   8.018   5.320   6.904
 6155POPC   C4A76986   7.861   5.291   7.320
 6155POPC   C1B76987   8.395   4.730   6.174
 6155POPC   C2B76988   8.341   4.890   6.614
 6155POPC   C3B76989   8.151   4.815   7.005
 6155POPC   C4B76990   8.331   5.084   7.303
 6156POPC   NC376991  39.435  25.312   5.393
 6156POPC   PO476992  38.747  24.948   5.383
 6156POPC   GL176993  38.930  25.019   5.772
 6156POPC   GL276994  39.273  25.008   5.776
 6156POPC   C1A76995  39.039  25.425   5.975
 6156POPC   D2A76996  39.168  25.498   6.401
 6156POPC   C3A76997  39.026  25.210   6.721
 6156POPC   C4A76998  38.980  25.466   7.126
 6156POPC   C1B76999  39.494  25.226   6.121
 6156POPC   C2B77000  39.540  25.157   6.584
 6156POPC   C3B77001  39.423  25.204   7.021
 6156POPC   C4B77002  39.642  24.976   7.287
 6157POPC   NC377003  27.363  27.351   5.464
 6157POPC   PO477004  27.876  27.747   5.398
 6157POPC   GL177005  27.720  27.568   5.786
 6157POPC   GL277006  27.418  27.732   5.862
 6157POPC   C1A77007  27.629  27.440   6.226
 6157POPC   D2A77008  27.474  27.295   6.607
 6157POPC   C3A77009  27.546  27.444   6.966
 6157POPC   C4A77010  27.696  27.684   7.274
 6157POPC   C1B77011  27.727  27.950   6.161
 6157POPC   C2B77012  27.922  27.850   6.573
 6157POPC   C3B77013  28.022  27.989   7.005
 6157POPC   C4B77014  27.740  28.180   7.300
 6158POPC   NC377015  27.467  30.861   5.341
 6158POPC   PO477016  27.718  30.214   5.373
 6158POPC   GL177017  27.676  30.574   5.697
 6158POPC   GL277018  27.315  30.575   5.752
 6158POPC   C1A77019  27.602  30.903   6.061
 6158POPC   D2A77020  27.583  31.163   6.469
 6158POPC   C3A77021  27.591  30.913   6.874
 6158POPC   C4A77022  27.219  30.744   7.099
 6158POPC   C1B77023  27.438  30.403   6.170
 6158POPC   C2B77024  27.366  30.520   6.602
 6158POPC   C3B77025  27.596  30.391   6.991
 6158POPC   C4B77026  27.587  30.548   7.418
 6159POPC   NC377027  34.805   1.967   5.287
 6159POPC   PO477028  35.155   1.492   5.561
 6159POPC   GL177029  34.877   1.809   5.761
 6159POPC   GL277030  34.488   1.834   5.732
 6159POPC   C1A77031  34.772   1.931   6.162
 6159POPC   D2A77032  34.891   1.829   6.557
 6159POPC   C3A77033  34.827   2.164   6.803
 6159POPC   C4A77034  34.776   2.148   7.201
 6159POPC   C1B77035  34.260   1.987   6.140
 6159POPC   C2B77036  34.388   1.912   6.580
 6159POPC   C3B77037  34.332   2.005   7.009
 6159POPC   C4B77038  34.324   2.307   7.325
 6160POPC   NC377039  12.554  13.369   5.206
 6160POPC   PO477040  12.943  13.742   5.538
 6160POPC   GL177041  12.923  13.725   5.957
 6160POPC   GL277042  12.637  13.554   5.970
 6160POPC   C1A77043  13.143  13.662   6.345
 6160POPC   D2A77044  13.214  13.389   6.705
 6160POPC   C3A77045  13.249  13.653   7.078
 6160POPC   C4A77046  13.111  13.643   7.477
 6160POPC   C1B77047  12.784  13.287   6.311
 6160POPC   C2B77048  12.663  13.330   6.730
 6160POPC   C3B77049  12.769  13.429   7.143
 6160POPC   C4B77050  12.848  13.231   7.561
 6161POPC   NC377051   1.581  18.299   5.512
 6161POPC   PO477052   0.951  18.023   5.391
 6161POPC   GL177053   1.147  18.118   5.816
 6161POPC   GL277054   1.308  18.469   5.918
 6161POPC   C1A77055   1.183  18.113   6.279
 6161POPC   D2A77056   1.213  18.407   6.631
 6161POPC   C3A77057   1.237  18.161   7.010
 6161POPC   C4A77058   1.220  17.942   7.417
 6161POPC   C1B77059   0.911  18.552   6.153
 6161POPC   C2B77060   0.725  18.619   6.567
 6161POPC   C3B77061   0.875  18.564   7.012
 6161POPC   C4B77062   0.983  18.375   7.409
 6162POPC   NC377063  26.635   3.792   5.576
 6162POPC   PO477064  26.829   3.156   5.550
 6162POPC   GL177065  26.684   3.390   5.877
 6162POPC   GL277066  26.979   3.613   5.920
 6162POPC   C1A77067  26.647   3.577   6.295
 6162POPC   D2A77068  26.775   3.333   6.656
 6162POPC   C3A77069  26.596   3.378   7.065
 6162POPC   C4A77070  26.523   3.741   7.268
 6162POPC   C1B77071  27.120   3.880   6.261
 6162POPC   C2B77072  26.974   3.952   6.662
 6162POPC   C3B77073  26.991   3.691   6.997
 6162POPC   C4B77074  27.238   3.720   7.346
 6163POPC   NC377075  25.353  33.001   5.345
 6163POPC   PO477076  24.765  32.625   5.378
 6163POPC   GL177077  25.053  32.732   5.776
 6163POPC   GL277078  25.235  33.080   5.842
 6163POPC   C1A77079  25.060  32.828   6.255
 6163POPC   D2A77080  25.320  32.893   6.633
 6163POPC   C3A77081  25.248  32.737   7.055
 6163POPC   C4A77082  25.262  32.641   7.519
 6163POPC   C1B77083  25.521  33.241   6.195
 6163POPC   C2B77084  25.443  33.390   6.626
 6163POPC   C3B77085  25.446  33.225   7.045
 6163POPC   C4B77086  25.782  33.463   7.177
 6164POPC   NC377087  44.657  36.404   5.517
 6164POPC   PO477088  44.938  37.058   5.495
 6164POPC   GL177089  44.776  36.900   5.874
 6164POPC   GL277090  44.422  36.761   5.866
 6164POPC   C1A77091  44.781  37.057   6.328
 6164POPC   D2A77092  44.863  37.307   6.725
 6164POPC   C3A77093  44.785  37.017   7.067
 6164POPC   C4A77094  44.949  36.611   7.138
 6164POPC   C1B77095  44.673  36.551   6.236
 6164POPC   C2B77096  44.694  36.660   6.686
 6164POPC   C3B77097  44.436  36.624   7.040
 6164POPC   C4B77098  44.275  36.489   7.431
 6165POPC   NC377099  39.078   2.773   4.945
 6165POPC   PO477100  38.830   2.471   5.462
 6165POPC   GL177101  39.141   2.417   5.820
 6165POPC   GL277102  38.929   2.167   5.969
 6165POPC   C1A77103  39.389   2.631   6.169
 6165POPC   D2A77104  39.224   2.897   6.499
 6165POPC   C3A77105  39.386   3.003   6.909
 6165POPC   C4A77106  39.123   3.111   7.279
 6165POPC   C1B77107  39.083   2.262   6.408
 6165POPC   C2B77108  38.913   2.235   6.849
 6165POPC   C3B77109  39.206   2.223   7.212
 6165POPC   C4B77110  39.387   2.644   7.316
 6166POPC   NC377111  32.132  37.125   5.568
 6166POPC   PO477112  32.397  36.551   5.428
 6166POPC   GL177113  32.288  36.739   5.834
 6166POPC   GL277114  32.536  36.960   5.858
 6166POPC   C1A77115  32.246  36.987   6.257
 6166POPC   D2A77116  32.090  36.800   6.639
 6166POPC   C3A77117  32.044  37.001   7.023
 6166POPC   C4A77118  32.276  37.021   7.383
 6166POPC   C1B77119  32.730  36.755   6.184
 6166POPC   C2B77120  32.772  36.867   6.599
 6166POPC   C3B77121  32.581  36.856   6.985
 6166POPC   C4B77122  32.600  36.642   7.371
 6167POPC   NC377123  39.382  19.389   5.304
 6167POPC   PO477124  38.770  19.145   5.467
 6167POPC   GL177125  39.129  19.097   5.817
 6167POPC   GL277126  38.880  18.932   5.914
 6167POPC   C1A77127  39.320  18.904   6.233
 6167POPC   D2A77128  39.261  19.042   6.658
 6167POPC   C3A77129  39.434  19.093   7.072
 6167POPC   C4A77130  39.316  19.390   7.394
 6167POPC   C1B77131  38.829  19.040   6.314
 6167POPC   C2B77132  38.748  19.008   6.710
 6167POPC   C3B77133  38.918  19.155   7.064
 6167POPC   C4B77134  39.013  19.000   7.448
 6168POPC   NC377135   4.902  12.545   5.554
 6168POPC   PO477136   5.293  12.013   5.337
 6168POPC   GL177137   5.051  12.021   5.745
 6168POPC   GL277138   5.051  12.297   5.962
 6168POPC   C1A77139   5.126  11.860   6.215
 6168POPC   D2A77140   4.927  11.955   6.622
 6168POPC   C3A77141   5.089  11.906   7.056
 6168POPC   C4A77142   4.955  11.793   7.473
 6168POPC   C1B77143   5.367  12.304   6.278
 6168POPC   C2B77144   5.410  12.160   6.712
 6168POPC   C3B77145   5.282  12.370   7.091
 6168POPC   C4B77146   4.930  12.439   7.407
 6169POPC   NC377147  43.416   0.812   5.163
 6169POPC   PO477148  43.115   1.375   5.374
 6169POPC   GL177149  43.222   1.367   5.790
 6169POPC   GL277150  42.887   1.266   5.814
 6169POPC   C1A77151  43.185   1.433   6.211
 6169POPC   D2A77152  43.314   1.233   6.577
 6169POPC   C3A77153  43.107   1.318   6.941
 6169POPC   C4A77154  43.280   1.285   7.316
 6169POPC   C1B77155  42.927   0.960   6.119
 6169POPC   C2B77156  42.910   0.768   6.498
 6169POPC   C3B77157  42.844   0.881   6.892
 6169POPC   C4B77158  42.916   0.763   7.307
 6170POPC   NC377159  33.164  10.738   5.162
 6170POPC   PO477160  33.684  10.587   5.473
 6170POPC   GL177161  33.683  10.572   5.908
 6170POPC   GL277162  33.416  10.336   5.930
 6170POPC   C1A77163  33.799  10.542   6.358
 6170POPC   D2A77164  34.140  10.262   6.506
 6170POPC   C3A77165  34.065  10.175   6.944
 6170POPC   C4A77166  33.745  10.411   7.171
 6170POPC   C1B77167  33.319  10.376   6.344
 6170POPC   C2B77168  33.538  10.233   6.709
 6170POPC   C3B77169  33.282  10.183   7.085
 6170POPC   C4B77170  33.376  10.187   7.531
 6171POPC   NC377171  15.344  35.090   5.539
 6171POPC   PO477172  14.931  35.517   5.461
 6171POPC   GL177173  14.895  35.249   5.815
 6171POPC   GL277174  15.230  35.218   6.007
 6171POPC   C1A77175  14.783  35.288   6.233
 6171POPC   D2A77176  15.087  35.288   6.509
 6171POPC   C3A77177  14.935  35.244   6.878
 6171POPC   C4A77178  15.253  35.377   7.168
 6171POPC   C1B77179  15.618  35.450   6.086
 6171POPC   C2B77180  15.814  35.403   6.482
 6171POPC   C3B77181  15.633  35.469   6.859
 6171POPC   C4B77182  15.649  35.694   7.277
 6172POPC   NC377183  44.970  30.736   5.497
 6172POPC   PO477184  44.296  30.436   5.513
 6172POPC   GL177185  44.520  30.703   5.783
 6172POPC   GL277186  44.758  30.439   5.873
 6172POPC   C1A77187  44.751  30.905   6.123
 6172POPC   D2A77188  44.641  30.895   6.547
 6172POPC   C3A77189  44.878  30.898   6.909
 6172POPC   C4A77190  44.719  30.954   7.305
 6172POPC   C1B77191  44.487  30.449   6.253
 6172POPC   C2B77192  44.398  30.448   6.710
 6172POPC   C3B77193  44.616  30.464   7.108
 6172POPC   C4B77194  44.425  30.469   7.505
 6173POPC   NC377195  26.518   6.039   5.328
 6173POPC   PO477196  26.957   5.612   5.299
 6173POPC   GL177197  26.944   5.740   5.754
 6173POPC   GL277198  26.645   5.947   5.852
 6173POPC   C1A77199  27.082   6.058   6.072
 6173POPC   D2A77200  27.233   5.986   6.470
 6173POPC   C3A77201  27.149   6.149   6.871
 6173POPC   C4A77202  27.027   5.960   7.225
 6173POPC   C1B77203  26.738   5.672   6.252
 6173POPC   C2B77204  26.871   5.691   6.707
 6173POPC   C3B77205  26.654   5.663   7.089
 6173POPC   C4B77206  26.534   6.035   7.278
 6174POPC   NC377207  44.344   2.440   5.299
 6174POPC   PO477208  44.547   3.063   5.461
 6174POPC   GL177209  44.580   2.691   5.750
 6174POPC   GL277210  44.285   2.641   5.755
 6174POPC   C1A77211  44.525   2.491   6.170
 6174POPC   D2A77212  44.559   2.732   6.538
 6174POPC   C3A77213  44.615   2.470   6.870
 6174POPC   C4A77214  44.624   2.512   7.288
 6174POPC   C1B77215  44.258   2.931   6.136
 6174POPC   C2B77216  44.202   3.103   6.568
 6174POPC   C3B77217  44.243   2.848   6.960
 6174POPC   C4B77218  44.295   2.884   7.414
 6175POPC   NC377219  30.707   9.815   5.424
 6175POPC   PO477220  30.589   9.237   5.213
 6175POPC   GL177221  30.826   9.420   5.760
 6175POPC   GL277222  30.959   9.736   5.841
 6175POPC   C1A77223  30.593   9.646   6.164
 6175POPC   D2A77224  30.672   9.777   6.573
 6175POPC   C3A77225  30.462   9.678   6.941
 6175POPC   C4A77226  30.680   9.666   7.320
 6175POPC   C1B77227  30.954  10.029   6.206
 6175POPC   C2B77228  31.038  10.125   6.624
 6175POPC   C3B77229  31.046   9.891   6.990
 6175POPC   C4B77230  31.066  10.246   7.249
 6176POPC   NC377231  38.976  40.278   5.576
 6176POPC   PO477232  39.548  39.879   5.432
 6176POPC   GL177233  39.305  39.940   5.798
 6176POPC   GL277234  38.965  39.791   5.787
 6176POPC   C1A77235  39.336  40.169   6.186
 6176POPC   D2A77236  39.132  40.176   6.569
 6176POPC   C3A77237  39.360  40.093   6.960
 6176POPC   C4A77238  39.214  40.157   7.361
 6176POPC   C1B77239  38.838  39.952   6.186
 6176POPC   C2B77240  38.795  39.816   6.583
 6176POPC   C3B77241  38.831  40.029   6.990
 6176POPC   C4B77242  38.744  39.868   7.398
 6177POPC   NC377243  33.255   0.885   5.524
 6177POPC   PO477244  32.790   1.185   5.188
 6177POPC   GL177245  33.042   1.368   5.563
 6177POPC   GL277246  32.810   1.224   5.769
 6177POPC   C1A77247  33.195   1.308   6.066
 6177POPC   D2A77248  33.284   0.966   6.442
 6177POPC   C3A77249  33.281   1.013   6.922
 6177POPC   C4A77250  33.292   1.278   7.289
 6177POPC   C1B77251  32.818   0.968   6.182
 6177POPC   C2B77252  32.829   1.114   6.623
 6177POPC   C3B77253  32.819   1.222   7.052
 6177POPC   C4B77254  32.484   1.058   7.321
 6178POPC   NC377255   7.344   4.287   5.407
 6178POPC   PO477256   7.835   3.875   5.348
 6178POPC   GL177257   7.778   4.227   5.653
 6178POPC   GL277258   7.710   4.028   5.889
 6178POPC   C1A77259   7.475   4.465   6.018
 6178POPC   D2A77260   7.374   4.572   6.505
 6178POPC   C3A77261   7.274   4.496   6.988
 6178POPC   C4A77262   7.181   4.196   7.346
 6178POPC   C1B77263   7.582   4.084   6.313
 6178POPC   C2B77264   7.764   4.142   6.649
 6178POPC   C3B77265   7.776   4.386   6.943
 6178POPC   C4B77266   7.667   4.300   7.324
 6179POPC   NC377267  13.452  18.344   5.466
 6179POPC   PO477268  14.095  18.249   5.428
 6179POPC   GL177269  13.865  18.251   5.834
 6179POPC   GL277270  13.730  18.587   5.910
 6179POPC   C1A77271  13.948  18.259   6.311
 6179POPC   D2A77272  13.636  18.232   6.669
 6179POPC   C3A77273  13.645  18.202   7.109
 6179POPC   C4A77274  13.854  18.546   7.130
 6179POPC   C1B77275  13.434  18.368   6.207
 6179POPC   C2B77276  13.154  18.158   6.561
 6179POPC   C3B77277  13.166  18.015   7.017
 6179POPC   C4B77278  13.160  18.265   7.409
 6180POPC   NC377279   6.926  42.809   5.544
 6180POPC   PO477280   7.535  43.006   5.351
 6180POPC   GL177281   7.550  43.124   5.765
 6180POPC   GL277282   7.727  43.384   5.645
 6180POPC   C1A77283   7.314  43.206   6.153
 6180POPC   D2A77284   7.107  43.014   6.506
 6180POPC   C3A77285   7.220  43.175   6.898
 6180POPC   C4A77286   7.057  43.025   7.277
 6180POPC   C1B77287   7.701  43.527   6.086
 6180POPC   C2B77288   7.820  43.428   6.525
 6180POPC   C3B77289   7.721  43.531   6.937
 6180POPC   C4B77290   7.520  43.307   7.282
 6181POPC   NC377291  36.296  38.467   5.278
 6181POPC   PO477292  36.989  38.501   5.090
 6181POPC   GL177293  36.962  38.321   5.566
 6181POPC   GL277294  36.715  38.493   5.770
 6181POPC   C1A77295  37.123  38.241   6.023
 6181POPC   D2A77296  37.230  38.136   6.466
 6181POPC   C3A77297  37.276  38.386   6.845
 6181POPC   C4A77298  37.004  38.399   7.179
 6181POPC   C1B77299  36.952  38.701   6.140
 6181POPC   C2B77300  36.875  38.567   6.598
 6181POPC   C3B77301  36.558  38.421   6.931
 6181POPC   C4B77302  36.604  38.752   7.211
 6182POPC   NC377303  30.254  11.569   5.422
 6182POPC   PO477304  29.767  12.038   5.365
 6182POPC   GL177305  29.742  11.677   5.690
 6182POPC   GL277306  29.819  11.311   5.644
 6182POPC   C1A77307  29.973  11.578   6.076
 6182POPC   D2A77308  29.881  11.380   6.431
 6182POPC   C3A77309  29.939  11.467   6.814
 6182POPC   C4A77310  29.962  11.400   7.208
 6182POPC   C1B77311  29.836  11.044   6.039
 6182POPC   C2B77312  29.909  10.883   6.485
 6182POPC   C3B77313  29.952  10.963   6.922
 6182POPC   C4B77314  30.060  10.897   7.337
 6183POPC   NC377315  27.768  28.937   5.388
 6183POPC   PO477316  27.159  29.387   5.439
 6183POPC   GL177317  27.331  29.086   5.678
 6183POPC   GL277318  27.605  29.291   5.747
 6183POPC   C1A77319  27.292  28.877   6.072
 6183POPC   D2A77320  27.486  29.042   6.445
 6183POPC   C3A77321  27.389  28.991   6.872
 6183POPC   C4A77322  27.687  28.900   7.186
 6183POPC   C1B77323  27.722  29.407   6.161
 6183POPC   C2B77324  27.711  29.530   6.599
 6183POPC   C3B77325  27.696  29.395   7.020
 6183POPC   C4B77326  27.559  29.377   7.426
 6184POPC   NC377327  20.159   4.751   5.516
 6184POPC   PO477328  19.916   4.034   5.415
 6184POPC   GL177329  19.741   4.172   5.784
 6184POPC   GL277330  20.036   4.360   5.835
 6184POPC   C1A77331  19.585   4.371   6.165
 6184POPC   D2A77332  19.367   4.441   6.571
 6184POPC   C3A77333  19.520   4.718   6.904
 6184POPC   C4A77334  19.661   4.637   7.365
 6184POPC   C1B77335  20.077   4.177   6.232
 6184POPC   C2B77336  20.111   4.376   6.609
 6184POPC   C3B77337  20.002   4.548   6.996
 6184POPC   C4B77338  20.155   4.440   7.404
 6185POPC   NC377339  40.749  30.201   5.368
 6185POPC   PO477340  41.019  29.510   5.478
 6185POPC   GL177341  40.766  29.827   5.751
 6185POPC   GL277342  40.888  30.181   5.852
 6185POPC   C1A77343  40.580  29.971   6.183
 6185POPC   D2A77344  40.752  30.209   6.550
 6185POPC   C3A77345  40.580  30.074   6.904
 6185POPC   C4A77346  40.438  30.057   7.282
 6185POPC   C1B77347  41.131  30.185   6.233
 6185POPC   C2B77348  41.189  29.899   6.557
 6185POPC   C3B77349  41.154  30.015   6.956
 6185POPC   C4B77350  40.891  29.795   7.204
 6186POPC   NC377351  10.662  34.186   5.397
 6186POPC   PO477352  10.183  33.726   5.402
 6186POPC   GL177353  10.331  33.684   5.839
 6186POPC   GL277354  10.048  33.459   6.019
 6186POPC   C1A77355  10.538  34.017   6.184
 6186POPC   D2A77356  10.442  34.021   6.672
 6186POPC   C3A77357  10.786  33.989   7.014
 6186POPC   C4A77358  10.801  34.013   7.501
 6186POPC   C1B77359  10.361  33.578   6.331
 6186POPC   C2B77360  10.569  33.502   6.692
 6186POPC   C3B77361  10.538  33.537   7.098
 6186POPC   C4B77362  10.684  33.532   7.491
 6187POPC   NC377363   4.305  22.375   5.336
 6187POPC   PO477364   4.278  21.786   5.456
 6187POPC   GL177365   4.185  22.106   5.757
 6187POPC   GL277366   4.545  22.161   5.760
 6187POPC   C1A77367   4.074  22.274   6.161
 6187POPC   D2A77368   4.078  21.974   6.522
 6187POPC   C3A77369   4.215  22.089   6.933
 6187POPC   C4A77370   4.279  22.500   7.085
 6187POPC   C1B77371   4.603  22.299   6.186
 6187POPC   C2B77372   4.541  22.439   6.614
 6187POPC   C3B77373   4.750  22.308   6.987
 6187POPC   C4B77374   4.624  21.993   7.259
 6188POPC   NC377375   2.638  31.042   5.498
 6188POPC   PO477376   3.019  31.589   5.484
 6188POPC   GL177377   2.805  31.490   5.821
 6188POPC   GL277378   2.479  31.560   5.778
 6188POPC   C1A77379   2.693  31.341   6.219
 6188POPC   D2A77380   2.938  31.233   6.561
 6188POPC   C3A77381   2.689  31.351   6.860
 6188POPC   C4A77382   2.811  31.415   7.269
 6188POPC   C1B77383   2.284  31.718   6.181
 6188POPC   C2B77384   2.277  31.596   6.625
 6188POPC   C3B77385   2.417  31.707   7.073
 6188POPC   C4B77386   2.450  31.606   7.563
 6189POPC   NC377387   5.638  21.318   5.292
 6189POPC   PO477388   6.172  21.544   5.645
 6189POPC   GL177389   5.968  21.418   5.936
 6189POPC   GL277390   5.747  21.258   5.770
 6189POPC   C1A77391   5.869  21.560   6.310
 6189POPC   D2A77392   5.838  21.337   6.649
 6189POPC   C3A77393   6.131  21.445   6.939
 6189POPC   C4A77394   6.002  21.602   7.327
 6189POPC   C1B77395   5.598  21.036   6.085
 6189POPC   C2B77396   5.535  20.946   6.493
 6189POPC   C3B77397   5.726  20.887   6.862
 6189POPC   C4B77398   5.730  21.216   7.156
 6190POPC   NC377399  11.711  42.565   5.647
 6190POPC   PO477400  12.286  42.433   5.282
 6190POPC   GL177401  12.207  42.469   5.741
 6190POPC   GL277402  12.038  42.148   5.805
 6190POPC   C1A77403  12.070  42.492   6.197
 6190POPC   D2A77404  11.847  42.454   6.582
 6190POPC   C3A77405  12.052  42.389   6.952
 6190POPC   C4A77406  12.232  42.587   7.287
 6190POPC   C1B77407  11.811  42.043   6.209
 6190POPC   C2B77408  11.719  41.959   6.650
 6190POPC   C3B77409  11.683  42.030   7.084
 6190POPC   C4B77410  11.991  42.111   7.406
 6191POPC   NC377411  23.323  31.009   5.692
 6191POPC   PO477412  22.744  30.720   5.441
 6191POPC   GL177413  22.974  30.604   5.819
 6191POPC   GL277414  23.292  30.448   5.739
 6191POPC   C1A77415  22.938  30.740   6.263
 6191POPC   D2A77416  23.063  30.962   6.629
 6191POPC   C3A77417  22.911  30.844   7.052
 6191POPC   C4A77418  22.822  30.929   7.498
 6191POPC   C1B77419  23.272  30.367   6.199
 6191POPC   C2B77420  23.072  30.332   6.604
 6191POPC   C3B77421  23.201  30.432   7.038
 6191POPC   C4B77422  22.950  30.450   7.385
 6192POPC   NC377423   9.236  11.367   5.525
 6192POPC   PO477424   9.242  10.715   5.629
 6192POPC   GL177425   9.096  11.036   5.908
 6192POPC   GL277426   8.907  11.389   5.964
 6192POPC   C1A77427   8.885  10.990   6.276
 6192POPC   D2A77428   8.831  11.365   6.500
 6192POPC   C3A77429   8.909  11.278   6.915
 6192POPC   C4A77430   8.874  11.282   7.352
 6192POPC   C1B77431   9.283  11.482   6.155
 6192POPC   C2B77432   9.329  11.554   6.540
 6192POPC   C3B77433   9.167  11.703   6.906
 6192POPC   C4B77434   9.301  11.539   7.304
 6193POPC   NC377435   2.987  30.351   5.458
 6193POPC   PO477436   3.103  30.985   5.430
 6193POPC   GL177437   2.930  30.779   5.823
 6193POPC   GL277438   2.775  30.446   5.917
 6193POPC   C1A77439   2.838  30.831   6.258
 6193POPC   D2A77440   2.979  30.713   6.663
 6193POPC   C3A77441   2.940  30.956   7.032
 6193POPC   C4A77442   2.528  31.001   7.280
 6193POPC   C1B77443   2.806  30.315   6.348
 6193POPC   C2B77444   2.564  30.428   6.717
 6193POPC   C3B77445   2.698  30.500   7.160
 6193POPC   C4B77446   2.733  30.341   7.602
 6194POPC   NC377447  41.852  26.051   5.477
 6194POPC   PO477448  41.190  25.784   5.496
 6194POPC   GL177449  41.463  25.885   5.823
 6194POPC   GL277450  41.517  26.258   5.862
 6194POPC   C1A77451  41.346  25.833   6.262
 6194POPC   D2A77452  41.104  25.635   6.599
 6194POPC   C3A77453  41.237  25.807   6.968
 6194POPC   C4A77454  41.528  25.845   7.268
 6194POPC   C1B77455  41.736  26.166   6.228
 6194POPC   C2B77456  41.572  26.142   6.654
 6194POPC   C3B77457  41.773  26.215   7.043
 6194POPC   C4B77458  41.502  26.352   7.395
 6195POPC   NC377459  36.396   2.353   5.382
 6195POPC   PO477460  36.026   1.792   5.550
 6195POPC   GL177461  36.202   1.811   5.872
 6195POPC   GL277462  36.157   2.169   5.879
 6195POPC   C1A77463  36.108   1.825   6.285
 6195POPC   D2A77464  36.349   1.792   6.632
 6195POPC   C3A77465  36.083   1.952   6.896
 6195POPC   C4A77466  35.933   1.868   7.261
 6195POPC   C1B77467  35.748   2.145   6.093
 6195POPC   C2B77468  35.785   2.180   6.562
 6195POPC   C3B77469  35.639   2.224   7.048
 6195POPC   C4B77470  35.703   2.210   7.559
 6196POPC   NC377471  28.806  18.237   5.451
 6196POPC   PO477472  29.497  18.187   5.370
 6196POPC   GL177473  29.441  18.337   5.774
 6196POPC   GL277474  29.169  18.122   5.799
 6196POPC   C1A77475  29.445  18.214   6.234
 6196POPC   D2A77476  29.354  18.398   6.645
 6196POPC   C3A77477  29.428  18.238   7.067
 6196POPC   C4A77478  29.323  18.545   7.373
 6196POPC   C1B77479  28.936  18.334   6.135
 6196POPC   C2B77480  28.889  18.192   6.552
 6196POPC   C3B77481  28.927  18.387   6.947
 6196POPC   C4B77482  28.617  18.445   7.217
 6197POPC   NC377483  32.222  31.537   5.293
 6197POPC   PO477484  31.879  30.941   5.318
 6197POPC   GL177485  32.060  30.998   5.771
 6197POPC   GL277486  32.209  31.294   5.719
 6197POPC   C1A77487  32.310  31.178   6.175
 6197POPC   D2A77488  32.347  31.488   6.513
 6197POPC   C3A77489  32.195  31.336   6.883
 6197POPC   C4A77490  32.406  31.191   7.252
 6197POPC   C1B77491  32.158  31.654   6.022
 6197POPC   C2B77492  31.930  31.761   6.404
 6197POPC   C3B77493  32.069  31.850   6.825
 6197POPC   C4B77494  32.228  31.712   7.218
 6198POPC   NC377495  33.305  32.420   5.373
 6198POPC   PO477496  32.685  32.082   5.415
 6198POPC   GL177497  32.867  32.064   5.821
 6198POPC   GL277498  33.109  32.317   5.828
 6198POPC   C1A77499  33.057  32.004   6.220
 6198POPC   D2A77500  32.955  32.264   6.564
 6198POPC   C3A77501  33.045  32.061   6.946
 6198POPC   C4A77502  33.490  31.947   7.052
 6198POPC   C1B77503  32.822  32.509   6.119
 6198POPC   C2B77504  32.689  32.722   6.508
 6198POPC   C3B77505  32.634  32.519   6.873
 6198POPC   C4B77506  32.817  32.492   7.242
 6199POPC   NC377507  34.054  35.806   5.318
 6199POPC   PO477508  33.518  36.274   5.373
 6199POPC   GL177509  33.551  36.407   5.807
 6199POPC   GL277510  33.865  36.353   5.936
 6199POPC   C1A77511  33.511  36.532   6.247
 6199POPC   D2A77512  33.800  36.381   6.586
 6199POPC   C3A77513  33.534  36.132   6.860
 6199POPC   C4A77514  33.341  36.312   7.214
 6199POPC   C1B77515  33.745  36.009   6.206
 6199POPC   C2B77516  33.990  35.791   6.533
 6199POPC   C3B77517  34.004  35.966   6.931
 6199POPC   C4B77518  33.797  36.058   7.351
 6200POPC   NC377519  38.882  41.760   5.407
 6200POPC   PO477520  39.577  41.524   5.404
 6200POPC   GL177521  39.362  41.584   5.805
 6200POPC   GL277522  39.144  41.862   5.842
 6200POPC   C1A77523  39.223  41.442   6.230
 6200POPC   D2A77524  39.195  41.735   6.571
 6200POPC   C3A77525  39.062  41.559   6.935
 6200POPC   C4A77526  39.129  41.658   7.336
 6200POPC   C1B77527  38.853  41.770   6.189
 6200POPC   C2B77528  38.579  41.705   6.527
 6200POPC   C3B77529  38.606  41.792   6.924
 6200POPC   C4B77530  38.639  41.946   7.324
 6201POPC   NC377531   6.064  15.752   5.481
 6201POPC   PO477532   5.689  16.275   5.700
 6201POPC   GL177533   5.836  15.954   5.932
 6201POPC   GL277534   5.707  15.620   5.834
 6201POPC   C1A77535   5.789  16.091   6.346
 6201POPC   D2A77536   5.942  16.317   6.691
 6201POPC   C3A77537   5.969  16.060   7.044
 6201POPC   C4A77538   5.586  15.969   7.238
 6201POPC   C1B77539   5.935  15.533   6.215
 6201POPC   C2B77540   5.988  15.714   6.613
 6201POPC   C3B77541   5.757  15.589   6.943
 6201POPC   C4B77542   5.613  15.405   7.313
 6202POPC   NC377543  18.744  19.232   5.593
 6202POPC   PO477544  18.155  18.949   5.390
 6202POPC   GL177545  18.244  18.978   5.790
 6202POPC   GL277546  18.545  18.857   5.875
 6202POPC   C1A77547  18.136  19.036   6.196
 6202POPC   D2A77548  18.313  19.093   6.593
 6202POPC   C3A77549  18.068  19.115   6.937
 6202POPC   C4A77550  18.114  19.311   7.322
 6202POPC   C1B77551  18.725  18.979   6.287
 6202POPC   C2B77552  18.754  18.940   6.761
 6202POPC   C3B77553  18.591  19.049   7.174
 6202POPC   C4B77554  18.531  18.739   7.504
 6203POPC   NC377555  31.456  24.133   5.434
 6203POPC   PO477556  31.668  24.810   5.400
 6203POPC   GL177557  31.671  24.554   5.744
 6203POPC   GL277558  31.341  24.579   5.825
 6203POPC   C1A77559  31.659  24.635   6.209
 6203POPC   D2A77560  31.522  24.441   6.579
 6203POPC   C3A77561  31.504  24.648   6.944
 6203POPC   C4A77562  31.611  24.352   7.237
 6203POPC   C1B77563  31.206  24.373   6.181
 6203POPC   C2B77564  31.148  24.086   6.547
 6203POPC   C3B77565  31.144  24.256   6.969
 6203POPC   C4B77566  31.153  24.503   7.356
 6204POPC   NC377567  42.549  24.612   5.611
 6204POPC   PO477568  42.011  24.338   5.363
 6204POPC   GL177569  42.108  24.394   5.786
 6204POPC   GL277570  42.102  24.771   5.867
 6204POPC   C1A77571  42.275  24.438   6.210
 6204POPC   D2A77572  42.100  24.442   6.623
 6204POPC   C3A77573  42.321  24.317   7.008
 6204POPC   C4A77574  42.456  24.422   7.432
 6204POPC   C1B77575  42.390  24.937   6.250
 6204POPC   C2B77576  42.475  24.851   6.720
 6204POPC   C3B77577  42.719  24.667   7.058
 6204POPC   C4B77578  42.806  24.788   7.506
 6205POPC   NC377579   0.979  27.209   5.552
 6205POPC   PO477580   1.392  27.700   5.438
 6205POPC   GL177581   1.247  27.687   5.874
 6205POPC   GL277582   0.989  27.430   6.020
 6205POPC   C1A77583   1.372  27.569   6.296
 6205POPC   D2A77584   1.174  27.335   6.655
 6205POPC   C3A77585   1.277  27.583   6.994
 6205POPC   C4A77586   1.581  27.921   6.999
 6205POPC   C1B77587   0.724  27.524   6.400
 6205POPC   C2B77588   0.658  27.692   6.850
 6205POPC   C3B77589   0.829  27.693   7.222
 6205POPC   C4B77590   0.917  27.265   7.179
 6206POPC   NC377591   1.953  32.403   5.341
 6206POPC   PO477592   1.676  31.818   5.325
 6206POPC   GL177593   1.864  32.078   5.749
 6206POPC   GL277594   1.841  32.472   5.839
 6206POPC   C1A77595   2.012  32.181   6.217
 6206POPC   D2A77596   2.287  32.117   6.618
 6206POPC   C3A77597   2.269  32.189   7.080
 6206POPC   C4A77598   2.094  31.926   7.409
 6206POPC   C1B77599   1.595  32.527   6.223
 6206POPC   C2B77600   1.711  32.364   6.645
 6206POPC   C3B77601   1.776  32.289   7.097
 6206POPC   C4B77602   1.745  32.294   7.534
 6207POPC   NC377603  27.470  32.226   5.118
 6207POPC   PO477604  27.422  32.539   5.688
 6207POPC   GL177605  27.708  32.296   5.959
 6207POPC   GL277606  27.906  31.966   5.950
 6207POPC   C1A77607  27.669  32.386   6.404
 6207POPC   D2A77608  27.384  32.509   6.729
 6207POPC   C3A77609  27.588  32.471   7.122
 6207POPC   C4A77610  27.875  32.100   7.153
 6207POPC   C1B77611  27.692  31.887   6.304
 6207POPC   C2B77612  27.722  31.850   6.713
 6207POPC   C3B77613  27.427  32.015   6.942
 6207POPC   C4B77614  27.147  31.804   7.160
 6208POPC   NC377615  21.092  42.307   5.166
 6208POPC   PO477616  21.694  42.118   5.342
 6208POPC   GL177617  21.516  42.220   5.727
 6208POPC   GL277618  21.726  42.533   5.774
 6208POPC   C1A77619  21.637  42.168   6.164
 6208POPC   D2A77620  21.575  42.358   6.561
 6208POPC   C3A77621  21.457  42.162   6.949
 6208POPC   C4A77622  21.647  42.204   7.321
 6208POPC   C1B77623  21.748  42.776   6.177
 6208POPC   C2B77624  21.915  42.738   6.607
 6208POPC   C3B77625  21.696  42.643   7.002
 6208POPC   C4B77626  21.510  42.703   7.416
 6209POPC   NC377627  37.207  27.311   5.520
 6209POPC   PO477628  36.671  27.725   5.589
 6209POPC   GL177629  36.835  27.412   5.864
 6209POPC   GL277630  36.867  27.733   6.062
 6209POPC   C1A77631  36.994  27.291   6.261
 6209POPC   D2A77632  36.898  27.596   6.571
 6209POPC   C3A77633  36.895  27.414   6.956
 6209POPC   C4A77634  37.031  27.598   7.339
 6209POPC   C1B77635  36.522  27.976   6.223
 6209POPC   C2B77636  36.375  27.900   6.622
 6209POPC   C3B77637  36.615  27.834   6.971
 6209POPC   C4B77638  36.706  28.003   7.354
 6210POPC   NC377639  34.665  41.861   5.392
 6210POPC   PO477640  35.036  41.276   5.459
 6210POPC   GL177641  34.709  41.454   5.716
 6210POPC   GL277642  34.819  41.761   5.853
 6210POPC   C1A77643  34.485  41.440   6.108
 6210POPC   D2A77644  34.522  41.301   6.533
 6210POPC   C3A77645  34.377  41.320   6.960
 6210POPC   C4A77646  34.167  41.610   7.266
 6210POPC   C1B77647  34.759  42.054   6.171
 6210POPC   C2B77648  34.665  42.034   6.598
 6210POPC   C3B77649  34.674  41.915   7.017
 6210POPC   C4B77650  34.667  41.600   7.268
 6211POPC   NC377651   1.695  32.969   5.592
 6211POPC   PO477652   2.266  33.222   5.341
 6211POPC   GL177653   2.125  33.164   5.783
 6211POPC   GL277654   2.215  32.825   5.729
 6211POPC   C1A77655   1.859  33.248   6.197
 6211POPC   D2A77656   1.673  33.436   6.597
 6211POPC   C3A77657   1.907  33.309   6.962
 6211POPC   C4A77658   2.298  33.100   7.008
 6211POPC   C1B77659   2.119  32.768   6.168
 6211POPC   C2B77660   2.022  32.918   6.584
 6211POPC   C3B77661   1.914  32.766   6.986
 6211POPC   C4B77662   1.578  32.859   7.221
 6212POPC   NC377663  39.370  34.064   5.296
 6212POPC   PO477664  38.903  33.760   5.172
 6212POPC   GL177665  39.135  33.866   5.694
 6212POPC   GL277666  39.480  34.108   5.769
 6212POPC   C1A77667  39.320  33.800   6.121
 6212POPC   D2A77668  39.620  33.731   6.447
 6212POPC   C3A77669  39.430  33.603   6.832
 6212POPC   C4A77670  39.251  33.615   7.247
 6212POPC   C1B77671  39.425  34.306   6.151
 6212POPC   C2B77672  39.264  34.150   6.513
 6212POPC   C3B77673  39.528  34.107   6.842
 6212POPC   C4B77674  39.339  34.109   7.205
 6213POPC   NC377675  21.252   2.827   5.118
 6213POPC   PO477676  21.576   2.293   5.476
 6213POPC   GL177677  21.564   2.648   5.786
 6213POPC   GL277678  21.243   2.833   5.873
 6213POPC   C1A77679  21.471   2.570   6.240
 6213POPC   D2A77680  21.552   2.403   6.629
 6213POPC   C3A77681  21.362   2.624   6.937
 6213POPC   C4A77682  21.452   2.589   7.349
 6213POPC   C1B77683  21.387   3.096   6.226
 6213POPC   C2B77684  21.497   3.080   6.692
 6213POPC   C3B77685  21.347   3.096   7.136
 6213POPC   C4B77686  20.999   3.298   7.302
 6214POPC   NC377687  39.752  21.000   5.474
 6214POPC   PO477688  39.904  20.385   5.329
 6214POPC   GL177689  40.109  20.590   5.707
 6214POPC   GL277690  40.174  20.219   5.778
 6214POPC   C1A77691  40.093  20.884   6.085
 6214POPC   D2A77692  39.961  20.927   6.522
 6214POPC   C3A77693  40.096  20.968   6.940
 6214POPC   C4A77694  39.921  20.883   7.366
 6214POPC   C1B77695  40.202  20.098   6.223
 6214POPC   C2B77696  40.041  20.392   6.512
 6214POPC   C3B77697  39.914  20.475   6.912
 6214POPC   C4B77698  40.109  20.405   7.280
 6215POPC   NC377699  42.268  18.625   5.323
 6215POPC   PO477700  42.551  17.941   5.505
 6215POPC   GL177701  42.246  18.118   5.820
 6215POPC   GL277702  42.138  18.458   5.782
 6215POPC   C1A77703  42.269  18.256   6.250
 6215POPC   D2A77704  42.482  18.537   6.516
 6215POPC   C3A77705  42.484  18.439   6.968
 6215POPC   C4A77706  42.382  18.030   7.165
 6215POPC   C1B77707  41.856  18.535   6.132
 6215POPC   C2B77708  41.876  18.372   6.558
 6215POPC   C3B77709  41.943  18.587   6.938
 6215POPC   C4B77710  42.058  18.417   7.332
 6216POPC   NC377711  38.517  33.529   5.235
 6216POPC   PO477712  38.815  34.178   5.473
 6216POPC   GL177713  38.590  33.896   5.750
 6216POPC   GL277714  38.620  33.564   5.719
 6216POPC   C1A77715  38.380  33.777   6.132
 6216POPC   D2A77716  38.564  33.664   6.512
 6216POPC   C3A77717  38.438  33.821   6.913
 6216POPC   C4A77718  38.148  33.667   7.178
 6216POPC   C1B77719  38.868  33.584   6.081
 6216POPC   C2B77720  39.064  33.535   6.477
 6216POPC   C3B77721  38.913  33.634   6.882
 6216POPC   C4B77722  38.719  33.533   7.278
 6217POPC   NC377723  12.242  21.345   5.667
 6217POPC   PO477724  11.723  21.641   5.494
 6217POPC   GL177725  11.748  21.374   5.865
 6217POPC   GL277726  11.729  21.009   5.759
 6217POPC   C1A77727  11.966  21.506   6.262
 6217POPC   D2A77728  12.115  21.469   6.687
 6217POPC   C3A77729  12.113  21.595   7.114
 6217POPC   C4A77730  12.383  21.655   7.472
 6217POPC   C1B77731  11.994  20.992   6.161
 6217POPC   C2B77732  12.233  20.999   6.550
 6217POPC   C3B77733  12.249  21.071   6.982
 6217POPC   C4B77734  11.990  20.968   7.285
 6218POPC   NC377735   6.723  35.136   5.549
 6218POPC   PO477736   6.444  35.710   5.356
 6218POPC   GL177737   6.419  35.495   5.771
 6218POPC   GL277738   6.222  35.182   5.711
 6218POPC   C1A77739   6.630  35.502   6.208
 6218POPC   D2A77740   6.396  35.643   6.574
 6218POPC   C3A77741   6.627  35.563   6.936
 6218POPC   C4A77742   6.852  35.319   7.221
 6218POPC   C1B77743   6.285  35.121   6.146
 6218POPC   C2B77744   6.512  35.134   6.564
 6218POPC   C3B77745   6.345  35.154   6.986
 6218POPC   C4B77746   6.197  34.860   7.240
 6219POPC   NC377747  26.617  42.373   5.578
 6219POPC   PO477748  27.210  42.683   5.505
 6219POPC   GL177749  27.045  42.390   5.875
 6219POPC   GL277750  26.717  42.481   6.063
 6219POPC   C1A77751  27.039  42.179   6.323
 6219POPC   D2A77752  26.731  42.370   6.637
 6219POPC   C3A77753  26.720  42.467   7.085
 6219POPC   C4A77754  27.005  42.493   7.433
 6219POPC   C1B77755  26.412  42.196   6.264
 6219POPC   C2B77756  26.491  41.926   6.633
 6219POPC   C3B77757  26.457  42.022   7.073
 6219POPC   C4B77758  26.525  42.196   7.484
 6220POPC   NC377759  16.605  23.184   5.310
 6220POPC   PO477760  17.153  22.829   5.536
 6220POPC   GL177761  17.056  22.986   5.945
 6220POPC   GL277762  16.747  23.180   5.838
 6220POPC   C1A77763  16.910  22.770   6.352
 6220POPC   D2A77764  16.522  22.812   6.629
 6220POPC   C3A77765  16.682  22.780   7.036
 6220POPC   C4A77766  16.801  22.394   7.216
 6220POPC   C1B77767  16.636  23.200   6.274
 6220POPC   C2B77768  16.855  23.202   6.661
 6220POPC   C3B77769  16.613  23.294   6.987
 6220POPC   C4B77770  16.481  23.140   7.364
 6221POPC   NC377771  32.452  10.036   5.457
 6221POPC   PO477772  32.051   9.507   5.652
 6221POPC   GL177773  32.261   9.703   5.937
 6221POPC   GL277774  32.114  10.016   5.845
 6221POPC   C1A77775  32.235   9.599   6.383
 6221POPC   D2A77776  32.016   9.545   6.779
 6221POPC   C3A77777  32.324   9.639   7.116
 6221POPC   C4A77778  32.494   9.595   7.534
 6221POPC   C1B77779  31.909   9.966   6.219
 6221POPC   C2B77780  32.038  10.047   6.643
 6221POPC   C3B77781  31.925   9.980   7.061
 6221POPC   C4B77782  32.047   9.896   7.492
 6222POPC   NC377783  29.841   3.712   5.537
 6222POPC   PO477784  29.886   4.403   5.331
 6222POPC   GL177785  29.865   4.486   5.758
 6222POPC   GL277786  29.824   4.140   5.874
 6222POPC   C1A77787  30.075   4.524   6.160
 6222POPC   D2A77788  30.061   4.263   6.519
 6222POPC   C3A77789  30.055   4.526   6.861
 6222POPC   C4A77790  30.076   4.353   7.238
 6222POPC   C1B77791  29.585   4.254   6.261
 6222POPC   C2B77792  29.427   4.345   6.705
 6222POPC   C3B77793  29.597   4.233   7.129
 6222POPC   C4B77794  29.674   4.426   7.564
 6223POPC   NC377795  37.474  19.575   5.479
 6223POPC   PO477796  37.960  20.084   5.410
 6223POPC   GL177797  37.825  19.844   5.730
 6223POPC   GL277798  37.884  19.501   5.823
 6223POPC   C1A77799  37.650  19.847   6.111
 6223POPC   D2A77800  37.604  19.699   6.512
 6223POPC   C3A77801  37.761  19.878   6.893
 6223POPC   C4A77802  37.531  19.756   7.210
 6223POPC   C1B77803  38.041  19.532   6.255
 6223POPC   C2B77804  37.999  19.443   6.694
 6223POPC   C3B77805  37.916  19.426   7.122
 6223POPC   C4B77806  37.691  19.359   7.498
 6224POPC   NC377807  43.024  14.357   5.455
 6224POPC   PO477808  42.723  13.709   5.448
 6224POPC   GL177809  42.886  14.035   5.843
 6224POPC   GL277810  43.237  14.265   5.897
 6224POPC   C1A77811  42.933  14.205   6.303
 6224POPC   D2A77812  42.894  14.200   6.761
 6224POPC   C3A77813  43.186  14.430   7.063
 6224POPC   C4A77814  43.328  14.866   7.134
 6224POPC   C1B77815  43.461  14.203   6.283
 6224POPC   C2B77816  43.382  14.036   6.726
 6224POPC   C3B77817  43.532  14.058   7.178
 6224POPC   C4B77818  43.589  14.024   7.645
 6225POPC   NC377819  20.069  15.541   5.541
 6225POPC   PO477820  19.723  14.948   5.313
 6225POPC   GL177821  19.784  15.115   5.726
 6225POPC   GL277822  20.013  14.888   5.879
 6225POPC   C1A77823  19.813  15.372   6.124
 6225POPC   D2A77824  20.088  15.427   6.483
 6225POPC   C3A77825  19.864  15.432   6.864
 6225POPC   C4A77826  20.037  15.400   7.267
 6225POPC   C1B77827  19.623  14.881   6.161
 6225POPC   C2B77828  19.540  14.708   6.552
 6225POPC   C3B77829  19.525  14.818   6.949
 6225POPC   C4B77830  19.909  14.951   7.077
 6226POPC   NC377831   3.514  18.530   5.327
 6226POPC   PO477832   3.193  18.036   5.430
 6226POPC   GL177833   3.367  18.239   5.782
 6226POPC   GL277834   3.700  18.276   5.740
 6226POPC   C1A77835   3.469  18.128   6.215
 6226POPC   D2A77836   3.323  18.206   6.617
 6226POPC   C3A77837   3.531  18.011   6.953
 6226POPC   C4A77838   3.494  18.254   7.279
 6226POPC   C1B77839   3.650  18.589   6.036
 6226POPC   C2B77840   3.637  18.595   6.457
 6226POPC   C3B77841   3.641  18.542   6.889
 6226POPC   C4B77842   3.580  18.749   7.268
 6227POPC   NC377843   6.954  32.161   5.423
 6227POPC   PO477844   6.368  32.655   5.352
 6227POPC   GL177845   6.632  32.489   5.717
 6227POPC   GL277846   6.601  32.132   5.816
 6227POPC   C1A77847   6.749  32.440   6.179
 6227POPC   D2A77848   6.942  32.251   6.539
 6227POPC   C3A77849   6.871  32.445   6.927
 6227POPC   C4A77850   6.752  32.388   7.340
 6227POPC   C1B77851   6.686  31.884   6.187
 6227POPC   C2B77852   6.722  31.769   6.630
 6227POPC   C3B77853   6.642  31.901   7.080
 6227POPC   C4B77854   6.371  31.960   7.436
 6228POPC   NC377855  21.992  35.916   5.526
 6228POPC   PO477856  22.225  35.269   5.437
 6228POPC   GL177857  22.233  35.344   5.842
 6228POPC   GL277858  22.510  35.086   5.873
 6228POPC   C1A77859  22.017  35.538   6.213
 6228POPC   D2A77860  21.940  35.312   6.604
 6228POPC   C3A77861  21.979  35.543   6.980
 6228POPC   C4A77862  22.077  35.166   7.236
 6228POPC   C1B77863  22.397  35.213   6.299
 6228POPC   C2B77864  22.376  35.573   6.613
 6228POPC   C3B77865  22.472  35.470   7.038
 6228POPC   C4B77866  22.536  35.272   7.419
 6229POPC   NC377867   1.771   0.758   5.183
 6229POPC   PO477868   2.137   1.283   5.104
 6229POPC   GL177869   2.174   1.202   5.593
 6229POPC   GL277870   1.876   1.315   5.753
 6229POPC   C1A77871   2.229   1.074   6.091
 6229POPC   D2A77872   2.047   0.841   6.478
 6229POPC   C3A77873   2.077   1.041   6.899
 6229POPC   C4A77874   2.180   1.263   7.257
 6229POPC   C1B77875   1.988   1.535   6.127
 6229POPC   C2B77876   2.141   1.432   6.512
 6229POPC   C3B77877   1.935   1.544   6.884
 6229POPC   C4B77878   1.851   1.688   7.280
 6230POPC   NC377879  13.619  32.511   5.425
 6230POPC   PO477880  13.876  31.981   5.524
 6230POPC   GL177881  13.795  32.285   5.840
 6230POPC   GL277882  13.900  32.095   6.104
 6230POPC   C1A77883  13.845  32.588   6.182
 6230POPC   D2A77884  13.847  32.376   6.569
 6230POPC   C3A77885  13.802  32.643   6.948
 6230POPC   C4A77886  13.864  32.495   7.346
 6230POPC   C1B77887  13.507  31.980   6.270
 6230POPC   C2B77888  13.383  32.061   6.670
 6230POPC   C3B77889  13.658  32.153   6.999
 6230POPC   C4B77890  13.501  32.103   7.377
 6231POPC   NC377891  21.880  14.698   5.638
 6231POPC   PO477892  22.486  14.839   5.281
 6231POPC   GL177893  22.339  14.520   5.701
 6231POPC   GL277894  22.430  14.606   5.992
 6231POPC   C1A77895  22.059  14.267   6.088
 6231POPC   D2A77896  21.782  14.135   6.482
 6231POPC   C3A77897  22.041  14.011   6.845
 6231POPC   C4A77898  22.091  13.890   7.276
 6231POPC   C1B77899  22.336  14.591   6.401
 6231POPC   C2B77900  22.535  14.595   6.774
 6231POPC   C3B77901  22.333  14.603   7.144
 6231POPC   C4B77902  22.305  14.338   7.473
 6232POPC   NC377903  18.756  21.550   5.410
 6232POPC   PO477904  19.144  20.946   5.395
 6232POPC   GL177905  19.247  21.176   5.767
 6232POPC   GL277906  19.022  21.468   5.851
 6232POPC   C1A77907  19.386  21.316   6.183
 6232POPC   D2A77908  19.200  21.528   6.555
 6232POPC   C3A77909  19.311  21.279   6.899
 6232POPC   C4A77910  19.096  21.048   7.217
 6232POPC   C1B77911  18.885  21.785   6.174
 6232POPC   C2B77912  18.687  21.741   6.567
 6232POPC   C3B77913  18.691  21.487   6.935
 6232POPC   C4B77914  18.771  21.603   7.341
 6233POPC   NC377915  11.108  30.800   5.246
 6233POPC   PO477916  11.744  30.614   5.358
 6233POPC   GL177917  11.546  30.891   5.703
 6233POPC   GL277918  11.160  30.813   5.767
 6233POPC   C1A77919  11.497  30.838   6.182
 6233POPC   D2A77920  11.677  30.880   6.605
 6233POPC   C3A77921  11.635  30.820   7.097
 6233POPC   C4A77922  11.551  30.535   7.525
 6233POPC   C1B77923  11.101  30.504   6.127
 6233POPC   C2B77924  11.255  30.564   6.553
 6233POPC   C3B77925  11.189  30.858   6.870
 6233POPC   C4B77926  11.155  30.681   7.265
 6234POPC   NC377927   9.345   9.932   5.478
 6234POPC   PO477928   8.697   9.699   5.477
 6234POPC   GL177929   8.721   9.901   5.834
 6234POPC   GL277930   9.026   9.756   5.893
 6234POPC   C1A77931   8.742   9.995   6.260
 6234POPC   D2A77932   8.760   9.695   6.555
 6234POPC   C3A77933   8.866   9.753   6.990
 6234POPC   C4A77934   8.654   9.960   7.323
 6234POPC   C1B77935   9.232   9.821   6.290
 6234POPC   C2B77936   9.253   9.565   6.648
 6234POPC   C3B77937   9.301   9.502   7.054
 6234POPC   C4B77938   9.322   9.967   7.134
 6235POPC   NC377939  10.961  43.855   5.619
 6235POPC   PO477940  11.599  44.035   5.512
 6235POPC   GL177941  11.426  43.827   5.855
 6235POPC   GL277942  11.256  43.466   5.826
 6235POPC   C1A77943  11.328  44.039   6.237
 6235POPC   D2A77944  11.538  43.950   6.602
 6235POPC   C3A77945  11.378  44.126   6.940
 6235POPC   C4A77946  10.974  44.179   7.077
 6235POPC   C1B77947  11.397  43.529   6.267
 6235POPC   C2B77948  11.296  43.440   6.699
 6235POPC   C3B77949  11.232  43.649   7.103
 6235POPC   C4B77950  11.496  43.719   7.442
 6236POPC   NC377951   6.338  12.340   5.633
 6236POPC   PO477952   6.707  11.872   5.298
 6236POPC   GL177953   6.686  11.969   5.768
 6236POPC   GL277954   6.776  12.345   5.901
 6236POPC   C1A77955   6.814  11.958   6.223
 6236POPC   D2A77956   7.010  12.225   6.555
 6236POPC   C3A77957   6.810  12.178   6.966
 6236POPC   C4A77958   6.624  11.837   7.188
 6236POPC   C1B77959   6.560  12.412   6.349
 6236POPC   C2B77960   6.367  12.379   6.805
 6236POPC   C3B77961   6.304  12.247   7.295
 6236POPC   C4B77962   6.367  12.159   7.806
 6237POPC   NC377963   5.758  42.642   5.477
 6237POPC   PO477964   5.826  43.298   5.312
 6237POPC   GL177965   5.998  43.324   5.737
 6237POPC   GL277966   5.907  43.016   5.811
 6237POPC   C1A77967   5.843  43.354   6.207
 6237POPC   D2A77968   5.892  43.159   6.627
 6237POPC   C3A77969   5.662  43.215   7.020
 6237POPC   C4A77970   5.972  43.211   7.334
 6237POPC   C1B77971   6.016  42.854   6.220
 6237POPC   C2B77972   5.988  42.638   6.592
 6237POPC   C3B77973   6.091  42.740   7.002
 6237POPC   C4B77974   5.784  42.733   7.302
 6238POPC   NC377975   7.034  33.780   5.485
 6238POPC   PO477976   6.482  33.633   5.142
 6238POPC   GL177977   6.485  33.775   5.626
 6238POPC   GL277978   6.774  33.779   5.901
 6238POPC   C1A77979   6.334  33.633   6.055
 6238POPC   D2A77980   6.501  33.480   6.454
 6238POPC   C3A77981   6.363  33.611   6.861
 6238POPC   C4A77982   6.506  33.512   7.269
 6238POPC   C1B77983   6.703  33.924   6.305
 6238POPC   C2B77984   6.845  33.807   6.698
 6238POPC   C3B77985   6.753  33.929   7.114
 6238POPC   C4B77986   6.522  34.174   7.405
 6239POPC   NC377987  17.181  25.070   5.447
 6239POPC   PO477988  17.844  25.181   5.536
 6239POPC   GL177989  17.704  25.240   5.910
 6239POPC   GL277990  17.357  25.367   5.870
 6239POPC   C1A77991  17.888  25.229   6.311
 6239POPC   D2A77992  17.833  25.549   6.622
 6239POPC   C3A77993  17.841  25.242   6.899
 6239POPC   C4A77994  17.586  25.095   7.210
 6239POPC   C1B77995  17.408  25.391   6.335
 6239POPC   C2B77996  17.363  25.149   6.702
 6239POPC   C3B77997  17.105  25.104   7.080
 6239POPC   C4B77998  17.272  25.464   7.338
 6240POPC   NC377999  42.847   5.218   5.397
 6240POPC   PO478000  42.142   5.071   5.478
 6240POPC   GL178001  42.236   4.927   5.848
 6240POPC   GL278002  42.571   5.033   5.780
 6240POPC   C1A78003  42.350   5.155   6.233
 6240POPC   D2A78004  42.237   5.306   6.627
 6240POPC   C3A78005  42.274   5.089   7.053
 6240POPC   C4A78006  42.072   4.911   7.455
 6240POPC   C1B78007  42.751   4.830   6.119
 6240POPC   C2B78008  42.639   4.837   6.550
 6240POPC   C3B78009  42.714   4.812   6.984
 6240POPC   C4B78010  42.552   4.790   7.399
 6241POPC   NC378011  22.059   2.186   5.390
 6241POPC   PO478012  22.575   1.762   5.568
 6241POPC   GL178013  22.317   1.989   5.811
 6241POPC   GL278014  22.409   2.331   5.831
 6241POPC   C1A78015  22.178   2.054   6.221
 6241POPC   D2A78016  22.037   2.319   6.524
 6241POPC   C3A78017  22.126   2.197   6.940
 6241POPC   C4A78018  22.192   1.977   7.295
 6241POPC   C1B78019  22.444   2.541   6.274
 6241POPC   C2B78020  22.390   2.597   6.753
 6241POPC   C3B78021  22.492   2.504   7.189
 6241POPC   C4B78022  22.301   2.356   7.589
 6242POPC   NC378023  43.562  41.109   5.498
 6242POPC   PO478024  44.157  41.249   5.654
 6242POPC   GL178025  43.958  40.812   5.732
 6242POPC   GL278026  44.194  40.565   5.911
 6242POPC   C1A78027  43.665  40.771   6.089
 6242POPC   D2A78028  43.868  41.025   6.411
 6242POPC   C3A78029  43.749  41.083   6.834
 6242POPC   C4A78030  43.876  40.900   7.204
 6242POPC   C1B78031  44.023  40.485   6.323
 6242POPC   C2B78032  43.869  40.562   6.750
 6242POPC   C3B78033  44.126  40.428   7.114
 6242POPC   C4B78034  44.273  40.277   7.543
 6243POPC   NC378035  29.814  41.960   5.366
 6243POPC   PO478036  30.109  41.408   5.156
 6243POPC   GL178037  29.927  41.484   5.611
 6243POPC   GL278038  30.062  41.789   5.789
 6243POPC   C1A78039  29.849  41.367   6.080
 6243POPC   D2A78040  29.692  41.500   6.487
 6243POPC   C3A78041  29.806  41.475   6.899
 6243POPC   C4A78042  29.701  41.192   7.209
 6243POPC   C1B78043  29.808  41.880   6.163
 6243POPC   C2B78044  30.009  41.918   6.580
 6243POPC   C3B78045  30.183  41.829   6.974
 6243POPC   C4B78046  29.854  41.843   7.252
 6244POPC   NC378047   3.864  11.197   5.395
 6244POPC   PO478048   3.311  11.461   5.510
 6244POPC   GL178049   3.468  11.226   5.849
 6244POPC   GL278050   3.818  11.156   5.903
 6244POPC   C1A78051   3.335  11.303   6.253
 6244POPC   D2A78052   3.470  11.579   6.547
 6244POPC   C3A78053   3.627  11.379   6.890
 6244POPC   C4A78054   3.329  11.422   7.224
 6244POPC   C1B78055   3.775  11.077   6.334
 6244POPC   C2B78056   3.506  10.901   6.607
 6244POPC   C3B78057   3.344  10.908   7.007
 6244POPC   C4B78058   3.636  11.022   7.260
 6245POPC   NC378059   6.025   7.932   5.274
 6245POPC   PO478060   5.798   7.277   5.328
 6245POPC   GL178061   5.877   7.531   5.694
 6245POPC   GL278062   5.596   7.680   5.822
 6245POPC   C1A78063   5.917   7.390   6.146
 6245POPC   D2A78064   6.037   7.262   6.580
 6245POPC   C3A78065   5.798   7.155   6.922
 6245POPC   C4A78066   5.824   7.348   7.324
 6245POPC   C1B78067   5.459   7.612   6.210
 6245POPC   C2B78068   5.705   7.650   6.551
 6245POPC   C3B78069   5.839   7.692   6.956
 6245POPC   C4B78070   5.657   7.831   7.369
 6246POPC   NC378071   0.549  42.627   5.201
 6246POPC   PO478072   0.234  42.039   5.222
 6246POPC   GL178073   0.428  42.299   5.612
 6246POPC   GL278074   0.162  42.398   5.827
 6246POPC   C1A78075   0.566  42.324   6.097
 6246POPC   D2A78076   0.698  42.298   6.547
 6246POPC   C3A78077   0.512  42.545   6.907
 6246POPC   C4A78078   0.672  42.435   7.298
 6246POPC   C1B78079   0.041  42.258   6.210
 6246POPC   C2B78080   0.176  42.310   6.597
 6246POPC   C3B78081   0.006  42.367   6.979
 6246POPC   C4B78082   0.171  42.380   7.327
 6247POPC   NC378083  32.102  24.868   5.228
 6247POPC   PO478084  32.542  24.340   5.277
 6247POPC   GL178085  32.244  24.527   5.623
 6247POPC   GL278086  32.083  24.866   5.751
 6247POPC   C1A78087  32.068  24.353   6.016
 6247POPC   D2A78088  32.233  24.181   6.422
 6247POPC   C3A78089  31.989  24.263   6.817
 6247POPC   C4A78090  32.121  24.365   7.239
 6247POPC   C1B78091  32.380  24.760   6.094
 6247POPC   C2B78092  32.513  24.760   6.553
 6247POPC   C3B78093  32.572  24.789   7.032
 6247POPC   C4B78094  32.597  24.939   7.472
 6248POPC   NC378095   5.971   4.780   5.410
 6248POPC   PO478096   5.733   5.470   5.237
 6248POPC   GL178097   5.908   5.345   5.689
 6248POPC   GL278098   6.202   5.602   5.752
 6248POPC   C1A78099   5.759   5.159   6.142
 6248POPC   D2A78100   5.608   5.206   6.613
 6248POPC   C3A78101   5.930   5.039   6.960
 6248POPC   C4A78102   5.887   4.838   7.366
 6248POPC   C1B78103   6.250   5.352   6.130
 6248POPC   C2B78104   6.114   5.306   6.563
 6248POPC   C3B78105   6.228   5.471   6.991
 6248POPC   C4B78106   6.171   5.258   7.399
 6249POPC   NC378107  44.684  14.654   5.421
 6249POPC   PO478108  44.965  14.037   5.625
 6249POPC   GL178109  44.844  14.397   5.846
 6249POPC   GL278110  44.503  14.419   5.874
 6249POPC   C1A78111  44.819  14.385   6.277
 6249POPC   D2A78112  44.657  14.478   6.630
 6249POPC   C3A78113  44.918  14.506   6.926
 6249POPC   C4A78114  44.801  14.596   7.299
 6249POPC   C1B78115  44.275  14.522   6.294
 6249POPC   C2B78116  44.171  14.540   6.742
 6249POPC   C3B78117  44.368  14.442   7.120
 6249POPC   C4B78118  44.538  14.137   7.409
 6250POPC   NC378119   2.441  14.437   5.371
 6250POPC   PO478120   1.784  14.224   5.373
 6250POPC   GL178121   2.079  14.241   5.714
 6250POPC   GL278122   1.999  14.551   5.765
 6250POPC   C1A78123   2.291  14.310   6.124
 6250POPC   D2A78124   2.118  14.441   6.527
 6250POPC   C3A78125   2.298  14.552   6.915
 6250POPC   C4A78126   2.145  14.328   7.241
 6250POPC   C1B78127   1.788  14.503   6.140
 6250POPC   C2B78128   1.640  14.630   6.532
 6250POPC   C3B78129   1.778  14.565   6.936
 6250POPC   C4B78130   1.609  14.402   7.290
 6251POPC   NC378131   4.851  44.907   5.496
 6251POPC   PO478132   5.467  44.543   5.456
 6251POPC   GL178133   5.172  44.626   5.784
 6251POPC   GL278134   5.433  44.795   5.952
 6251POPC   C1A78135   4.978  44.838   6.138
 6251POPC   D2A78136   5.242   0.066   6.399
 6251POPC   C3A78137   5.231  44.881   6.768
 6251POPC   C4A78138   5.049  44.824   7.168
 6251POPC   C1B78139   5.276  44.464   6.271
 6251POPC   C2B78140   5.336  44.390   6.698
 6251POPC   C3B78141   5.512  44.568   7.054
 6251POPC   C4B78142   5.269  44.374   7.285
 6252POPC   NC378143  36.624   3.964   5.461
 6252POPC   PO478144  37.019   3.315   5.424
 6252POPC   GL178145  36.804   3.516   5.786
 6252POPC   GL278146  37.134   3.562   5.901
 6252POPC   C1A78147  36.621   3.477   6.248
 6252POPC   D2A78148  36.573   3.627   6.685
 6252POPC   C3A78149  36.849   3.493   7.059
 6252POPC   C4A78150  37.181   3.138   7.117
 6252POPC   C1B78151  37.107   3.449   6.330
 6252POPC   C2B78152  37.234   3.417   6.699
 6252POPC   C3B78153  37.329   3.617   7.016
 6252POPC   C4B78154  37.146   3.906   7.249
 6253POPC   NC378155  44.360  38.070   5.533
 6253POPC   PO478156  44.815  38.669   5.469
 6253POPC   GL178157  44.546  38.510   5.767
 6253POPC   GL278158  44.402  38.743   5.998
 6253POPC   C1A78159  44.612  38.303   6.184
 6253POPC   D2A78160  44.549  38.462   6.615
 6253POPC   C3A78161  44.773  38.242   6.907
 6253POPC   C4A78162  44.642  38.002   7.221
 6253POPC   C1B78163  44.816  38.771   6.298
 6253POPC   C2B78164  44.929  38.761   6.766
 6253POPC   C3B78165  44.672  38.682   7.144
 6253POPC   C4B78166  44.243  38.700   7.058
 6254POPC   NC378167  39.641  17.733   5.366
 6254POPC   PO478168  40.310  17.709   5.443
 6254POPC   GL178169  40.185  17.484   5.812
 6254POPC   GL278170  39.893  17.664   5.823
 6254POPC   C1A78171  39.987  17.247   6.174
 6254POPC   D2A78172  40.169  17.257   6.587
 6254POPC   C3A78173  39.883  17.349   6.917
 6254POPC   C4A78174  39.821  17.196   7.327
 6254POPC   C1B78175  40.111  17.749   6.241
 6254POPC   C2B78176  39.982  17.817   6.655
 6254POPC   C3B78177  40.033  18.037   7.030
 6254POPC   C4B78178  40.263  17.879   7.417
 6255POPC   NC378179  31.511  10.267   5.208
 6255POPC   PO478180  31.184  10.886   5.407
 6255POPC   GL178181  31.313  10.656   5.766
 6255POPC   GL278182  31.593  10.438   5.721
 6255POPC   C1A78183  31.324  10.723   6.209
 6255POPC   D2A78184  31.362  10.524   6.584
 6255POPC   C3A78185  31.201  10.649   6.951
 6255POPC   C4A78186  31.325  10.698   7.349
 6255POPC   C1B78187  31.441  10.229   6.110
 6255POPC   C2B78188  31.522  10.041   6.527
 6255POPC   C3B78189  31.465  10.191   6.950
 6255POPC   C4B78190  31.648  10.295   7.371
 6256POPC   NC378191   1.104  25.674   5.312
 6256POPC   PO478192   1.502  26.256   5.234
 6256POPC   GL178193   1.426  26.303   5.701
 6256POPC   GL278194   1.407  25.945   5.779
 6256POPC   C1A78195   1.361  26.449   6.162
 6256POPC   D2A78196   1.390  26.225   6.590
 6256POPC   C3A78197   1.170  26.276   7.012
 6256POPC   C4A78198   1.366  26.228   7.429
 6256POPC   C1B78199   1.430  25.673   6.155
 6256POPC   C2B78200   1.201  25.725   6.533
 6256POPC   C3B78201   0.975  25.660   6.907
 6256POPC   C4B78202   1.038  25.747   7.309
 6257POPC   NC378203   7.161   0.916   5.620
 6257POPC   PO478204   6.563   0.972   5.263
 6257POPC   GL178205   6.610   1.029   5.733
 6257POPC   GL278206   6.614   1.364   5.785
 6257POPC   C1A78207   6.494   1.126   6.212
 6257POPC   D2A78208   6.405   0.969   6.643
 6257POPC   C3A78209   6.344   1.252   7.004
 6257POPC   C4A78210   6.526   1.443   7.339
 6257POPC   C1B78211   6.547   1.636   6.172
 6257POPC   C2B78212   6.554   1.484   6.594
 6257POPC   C3B78213   6.843   1.347   6.906
 6257POPC   C4B78214   7.010   1.549   7.243
 6258POPC   NC378215  18.574  15.119   5.304
 6258POPC   PO478216  18.068  15.491   5.529
 6258POPC   GL178217  18.465  15.388   5.762
 6258POPC   GL278218  18.449  15.036   5.830
 6258POPC   C1A78219  18.691  15.294   6.189
 6258POPC   D2A78220  18.584  15.165   6.634
 6258POPC   C3A78221  18.201  15.330   6.856
 6258POPC   C4A78222  18.363  15.414   7.291
 6258POPC   C1B78223  18.272  14.931   6.263
 6258POPC   C2B78224  18.201  14.806   6.721
 6258POPC   C3B78225  18.397  14.940   7.099
 6258POPC   C4B78226  18.179  14.978   7.468
 6259POPC   NC378227  33.290  10.215   5.448
 6259POPC   PO478228  32.731  10.581   5.170
 6259POPC   GL178229  32.919  10.544   5.595
 6259POPC   GL278230  33.226  10.717   5.669
 6259POPC   C1A78231  32.887  10.590   6.045
 6259POPC   D2A78232  32.740  10.692   6.456
 6259POPC   C3A78233  32.940  10.464   6.777
 6259POPC   C4A78234  32.809  10.480   7.192
 6259POPC   C1B78235  33.322  10.866   6.088
 6259POPC   C2B78236  33.249  10.858   6.512
 6259POPC   C3B78237  33.383  10.686   6.880
 6259POPC   C4B78238  33.298  10.656   7.287
 6260POPC   NC378239   8.950   3.408   5.505
 6260POPC   PO478240   8.631   4.005   5.451
 6260POPC   GL178241   8.678   3.758   5.838
 6260POPC   GL278242   8.637   3.381   5.898
 6260POPC   C1A78243   8.690   3.729   6.281
 6260POPC   D2A78244   9.047   3.680   6.570
 6260POPC   C3A78245   9.028   3.795   7.013
 6260POPC   C4A78246   8.782   3.479   7.210
 6260POPC   C1B78247   8.894   3.276   6.247
 6260POPC   C2B78248   8.999   3.158   6.660
 6260POPC   C3B78249   8.707   3.022   6.967
 6260POPC   C4B78250   8.425   3.125   7.315
 6261POPC   NC378251   2.496   2.174   5.455
 6261POPC   PO478252   2.975   1.766   5.360
 6261POPC   GL178253   2.796   1.888   5.762
 6261POPC   GL278254   2.875   2.238   5.803
 6261POPC   C1A78255   2.850   1.888   6.210
 6261POPC   D2A78256   3.046   1.799   6.592
 6261POPC   C3A78257   2.772   1.885   6.923
 6261POPC   C4A78258   2.939   1.997   7.302
 6261POPC   C1B78259   2.617   2.358   6.180
 6261POPC   C2B78260   2.735   2.290   6.626
 6261POPC   C3B78261   2.609   2.343   7.068
 6261POPC   C4B78262   2.556   2.376   7.544
 6262POPC   NC378263  17.142  42.888   5.511
 6262POPC   PO478264  17.624  43.287   5.233
 6262POPC   GL178265  17.555  43.215   5.675
 6262POPC   GL278266  17.880  43.291   5.828
 6262POPC   C1A78267  17.461  43.137   6.129
 6262POPC   D2A78268  17.562  43.020   6.572
 6262POPC   C3A78269  17.416  43.265   6.930
 6262POPC   C4A78270  17.327  43.048   7.300
 6262POPC   C1B78271  17.861  43.444   6.262
 6262POPC   C2B78272  17.883  43.392   6.710
 6262POPC   C3B78273  17.866  43.539   7.118
 6262POPC   C4B78274  17.720  43.331   7.528
 6263POPC   NC378275  31.485  32.758   5.485
 6263POPC   PO478276  31.512  33.437   5.349
 6263POPC   GL178277  31.349  33.233   5.734
 6263POPC   GL278278  31.648  33.098   5.839
 6263POPC   C1A78279  31.243  33.071   6.160
 6263POPC   D2A78280  31.400  33.209   6.571
 6263POPC   C3A78281  31.260  33.069   6.980
 6263POPC   C4A78282  31.301  33.333   7.336
 6263POPC   C1B78283  31.739  32.928   6.253
 6263POPC   C2B78284  31.700  32.781   6.675
 6263POPC   C3B78285  31.769  32.926   7.074
 6263POPC   C4B78286  31.844  32.656   7.381
 6264POPC   NC378287   3.460  23.754   5.409
 6264POPC   PO478288   3.499  23.159   5.446
 6264POPC   GL178289   3.585  23.434   5.816
 6264POPC   GL278290   3.658  23.808   5.887
 6264POPC   C1A78291   3.423  23.540   6.239
 6264POPC   D2A78292   3.317  23.499   6.652
 6264POPC   C3A78293   3.633  23.623   6.930
 6264POPC   C4A78294   3.811  23.394   7.283
 6264POPC   C1B78295   3.434  24.082   6.210
 6264POPC   C2B78296   3.336  24.015   6.668
 6264POPC   C3B78297   3.444  24.057   7.098
 6264POPC   C4B78298   3.791  23.902   7.370
 6265POPC   NC378299   2.499  44.068   5.284
 6265POPC   PO478300   3.134  44.266   5.396
 6265POPC   GL178301   2.894  44.023   5.705
 6265POPC   GL278302   2.551  43.940   5.787
 6265POPC   C1A78303   2.968  43.913   6.134
 6265POPC   D2A78304   3.021  43.755   6.539
 6265POPC   C3A78305   2.896  43.895   6.905
 6265POPC   C4A78306   2.918  44.119   7.261
 6265POPC   C1B78307   2.497  43.747   6.208
 6265POPC   C2B78308   2.514  43.627   6.661
 6265POPC   C3B78309   2.381  43.863   7.038
 6265POPC   C4B78310   2.410  43.911   7.486
 6266POPC   NC378311  35.809   4.619   5.326
 6266POPC   PO478312  36.451   4.477   5.406
 6266POPC   GL178313  36.458   4.500   5.868
 6266POPC   GL278314  36.696   4.752   5.891
 6266POPC   C1A78315  36.155   4.487   6.260
 6266POPC   D2A78316  35.918   4.349   6.637
 6266POPC   C3A78317  36.111   4.228   7.053
 6266POPC   C4A78318  36.154   3.843   7.254
 6266POPC   C1B78319  36.570   4.758   6.336
 6266POPC   C2B78320  36.390   4.601   6.774
 6266POPC   C3B78321  36.344   4.642   7.246
 6266POPC   C4B78322  36.172   4.642   7.708
 6267POPC   NC378323   0.063  38.265   5.528
 6267POPC   PO478324   0.731  38.294   5.404
 6267POPC   GL178325   0.475  38.487   5.723
 6267POPC   GL278326   0.610  38.783   5.816
 6267POPC   C1A78327   0.265  38.488   6.125
 6267POPC   D2A78328   0.355  38.560   6.546
 6267POPC   C3A78329   0.285  38.269   6.855
 6267POPC   C4A78330   0.176  38.493   7.155
 6267POPC   C1B78331   0.776  38.677   6.218
 6267POPC   C2B78332   0.843  38.518   6.639
 6267POPC   C3B78333   0.700  38.546   7.051
 6267POPC   C4B78334   0.968  38.503   7.399
 6268POPC   NC378335   1.836  25.821   5.326
 6268POPC   PO478336   2.297  26.210   5.566
 6268POPC   GL178337   1.909  26.091   5.776
 6268POPC   GL278338   1.871  25.707   5.824
 6268POPC   C1A78339   1.732  26.080   6.194
 6268POPC   D2A78340   1.773  25.854   6.617
 6268POPC   C3A78341   1.697  26.107   7.009
 6268POPC   C4A78342   1.876  26.319   7.382
 6268POPC   C1B78343   2.158  25.761   6.156
 6268POPC   C2B78344   2.209  25.549   6.542
 6268POPC   C3B78345   2.357  25.705   6.920
 6268POPC   C4B78346   2.152  25.902   7.236
 6269POPC   NC378347   5.407  11.683   5.639
 6269POPC   PO478348   5.892  11.296   5.350
 6269POPC   GL178349   5.832  11.397   5.767
 6269POPC   GL278350   5.721  11.080   5.841
 6269POPC   C1A78351   6.028  11.384   6.184
 6269POPC   D2A78352   6.193  11.322   6.618
 6269POPC   C3A78353   5.852  11.430   6.921
 6269POPC   C4A78354   5.829  11.515   7.382
 6269POPC   C1B78355   5.453  10.918   6.190
 6269POPC   C2B78356   5.263  11.046   6.570
 6269POPC   C3B78357   5.349  11.070   6.955
 6269POPC   C4B78358   5.636  11.061   7.218
 6270POPC   NC378359   7.306  18.911   5.582
 6270POPC   PO478360   7.791  19.314   5.365
 6270POPC   GL178361   7.814  19.041   5.735
 6270POPC   GL278362   7.804  18.658   5.738
 6270POPC   C1A78363   7.848  19.098   6.176
 6270POPC   D2A78364   7.573  19.342   6.466
 6270POPC   C3A78365   7.512  19.205   6.898
 6270POPC   C4A78366   7.320  18.870   7.163
 6270POPC   C1B78367   7.636  18.643   6.191
 6270POPC   C2B78368   7.683  18.831   6.603
 6270POPC   C3B78369   7.758  18.648   7.024
 6270POPC   C4B78370   7.750  18.625   7.472
 6271POPC   NC378371  24.389  11.852   5.228
 6271POPC   PO478372  24.637  12.433   5.521
 6271POPC   GL178373  24.526  12.215   5.850
 6271POPC   GL278374  24.395  11.901   5.751
 6271POPC   C1A78375  24.684  12.019   6.209
 6271POPC   D2A78376  24.590  12.214   6.574
 6271POPC   C3A78377  24.465  11.992   6.883
 6271POPC   C4A78378  24.594  12.011   7.250
 6271POPC   C1B78379  24.181  11.976   6.172
 6271POPC   C2B78380  24.004  12.047   6.571
 6271POPC   C3B78381  23.994  11.816   6.932
 6271POPC   C4B78382  24.193  11.675   7.295
 6272POPC   NC378383   1.363  28.828   5.517
 6272POPC   PO478384   1.288  29.473   5.296
 6272POPC   GL178385   0.937  29.479   5.584
 6272POPC   GL278386   1.152  29.259   5.774
 6272POPC   C1A78387   0.815  29.592   6.032
 6272POPC   D2A78388   0.841  29.625   6.490
 6272POPC   C3A78389   1.012  29.291   6.791
 6272POPC   C4A78390   0.900  29.119   7.214
 6272POPC   C1B78391   1.250  29.306   6.216
 6272POPC   C2B78392   1.340  28.949   6.516
 6272POPC   C3B78393   1.491  28.872   6.916
 6272POPC   C4B78394   1.404  29.171   7.195
 6273POPC   NC378395  36.535   9.357   5.056
 6273POPC   PO478396  35.984   9.739   5.415
 6273POPC   GL178397  36.060   9.912   5.778
 6273POPC   GL278398  36.373  10.031   5.674
 6273POPC   C1A78399  35.994  10.031   6.212
 6273POPC   D2A78400  35.951   9.796   6.596
 6273POPC   C3A78401  35.890   9.865   7.028
 6273POPC   C4A78402  35.578   9.695   7.243
 6273POPC   C1B78403  36.425   9.782   6.079
 6273POPC   C2B78404  36.440   9.910   6.493
 6273POPC   C3B78405  36.374   9.941   6.921
 6273POPC   C4B78406  36.319   9.595   7.217
 6274POPC   NC378407  27.798  35.608   5.492
 6274POPC   PO478408  27.315  35.120   5.292
 6274POPC   GL178409  27.515  35.235   5.697
 6274POPC   GL278410  27.886  35.146   5.693
 6274POPC   C1A78411  27.475  35.418   6.139
 6274POPC   D2A78412  27.270  35.300   6.563
 6274POPC   C3A78413  27.360  35.480   7.000
 6274POPC   C4A78414  27.528  35.269   7.393
 6274POPC   C1B78415  27.758  34.992   6.094
 6274POPC   C2B78416  27.801  35.144   6.520
 6274POPC   C3B78417  27.805  35.238   6.944
 6274POPC   C4B78418  28.025  35.144   7.316
 6275POPC   NC378419  14.479  15.218   5.289
 6275POPC   PO478420  14.458  14.603   5.534
 6275POPC   GL178421  14.643  14.973   5.726
 6275POPC   GL278422  14.464  15.321   5.789
 6275POPC   C1A78423  14.632  15.010   6.170
 6275POPC   D2A78424  14.787  14.859   6.553
 6275POPC   C3A78425  14.699  15.061   6.933
 6275POPC   C4A78426  14.835  14.839   7.293
 6275POPC   C1B78427  14.330  15.428   6.218
 6275POPC   C2B78428  14.302  15.133   6.579
 6275POPC   C3B78429  14.181  15.107   7.011
 6275POPC   C4B78430  14.308  15.452   7.243
 6276POPC   NC378431   1.145   3.890   5.350
 6276POPC   PO478432   1.406   4.558   5.414
 6276POPC   GL178433   1.163   4.262   5.712
 6276POPC   GL278434   1.397   3.986   5.801
 6276POPC   C1A78435   1.042   4.263   6.159
 6276POPC   D2A78436   1.172   4.501   6.523
 6276POPC   C3A78437   0.997   4.442   6.935
 6276POPC   C4A78438   1.335   4.549   7.218
 6276POPC   C1B78439   1.393   3.876   6.226
 6276POPC   C2B78440   1.466   4.080   6.582
 6276POPC   C3B78441   1.487   4.001   6.994
 6276POPC   C4B78442   1.116   4.015   7.195
 6277POPC   NC378443  20.670  18.022   5.311
 6277POPC   PO478444  20.650  18.712   5.433
 6277POPC   GL178445  20.757  18.446   5.798
 6277POPC   GL278446  20.776  18.089   5.783
 6277POPC   C1A78447  20.820  18.268   6.234
 6277POPC   D2A78448  20.932  18.128   6.629
 6277POPC   C3A78449  20.711  18.186   6.956
 6277POPC   C4A78450  20.826  18.378   7.310
 6277POPC   C1B78451  20.454  17.921   6.066
 6277POPC   C2B78452  20.278  18.002   6.483
 6277POPC   C3B78453  20.327  17.862   6.884
 6277POPC   C4B78454  20.301  18.106   7.265
 6278POPC   NC378455   5.429   0.924   5.401
 6278POPC   PO478456   5.104   0.316   5.416
 6278POPC   GL178457   5.114   0.568   5.763
 6278POPC   GL278458   5.218   0.278   5.933
 6278POPC   C1A78459   5.045   0.712   6.194
 6278POPC   D2A78460   4.688   0.671   6.495
 6278POPC   C3A78461   4.802   0.755   6.908
 6278POPC   C4A78462   5.182   0.692   7.100
 6278POPC   C1B78463   4.774   0.289   6.123
 6278POPC   C2B78464   4.721   0.129   6.563
 6278POPC   C3B78465   4.946   0.267   6.948
 6278POPC   C4B78466   4.791   0.452   7.364
 6279POPC   NC378467  15.301   9.313   5.459
 6279POPC   PO478468  14.826   8.839   5.460
 6279POPC   GL178469  15.077   8.920   5.783
 6279POPC   GL278470  15.001   9.267   5.856
 6279POPC   C1A78471  15.200   8.825   6.217
 6279POPC   D2A78472  15.417   9.034   6.571
 6279POPC   C3A78473  15.179   8.863   6.896
 6279POPC   C4A78474  15.104   8.816   7.279
 6279POPC   C1B78475  15.130   9.325   6.259
 6279POPC   C2B78476  14.878   9.158   6.637
 6279POPC   C3B78477  14.913   9.305   7.100
 6279POPC   C4B78478  14.960   9.228   7.570
 6280POPC   NC378479  19.672  30.790   5.338
 6280POPC   PO478480  20.311  30.777   5.496
 6280POPC   GL178481  19.967  30.747   5.802
 6280POPC   GL278482  19.709  30.990   5.800
 6280POPC   C1A78483  19.731  30.564   6.153
 6280POPC   D2A78484  19.837  30.413   6.560
 6280POPC   C3A78485  19.665  30.212   6.911
 6280POPC   C4A78486  19.790  30.356   7.314
 6280POPC   C1B78487  19.693  31.132   6.209
 6280POPC   C2B78488  19.795  30.932   6.576
 6280POPC   C3B78489  19.768  30.719   6.964
 6280POPC   C4B78490  19.599  30.859   7.369
 6281POPC   NC378491  30.907  21.654   5.399
 6281POPC   PO478492  30.552  21.211   5.135
 6281POPC   GL178493  30.610  21.356   5.681
 6281POPC   GL278494  30.741  21.656   5.883
 6281POPC   C1A78495  30.762  21.215   6.116
 6281POPC   D2A78496  30.555  21.186   6.538
 6281POPC   C3A78497  30.660  21.320   6.966
 6281POPC   C4A78498  30.553  21.180   7.389
 6281POPC   C1B78499  30.487  21.632   6.259
 6281POPC   C2B78500  30.504  21.758   6.702
 6281POPC   C3B78501  30.418  21.748   7.155
 6281POPC   C4B78502  30.430  21.637   7.582
 6282POPC   NC378503   4.695  30.222   5.362
 6282POPC   PO478504   4.129  29.799   5.440
 6282POPC   GL178505   4.449  29.929   5.740
 6282POPC   GL278506   4.686  29.701   5.852
 6282POPC   C1A78507   4.483  30.050   6.162
 6282POPC   D2A78508   4.234  30.151   6.489
 6282POPC   C3A78509   4.274  29.992   6.846
 6282POPC   C4A78510   4.463  30.019   7.208
 6282POPC   C1B78511   4.371  29.545   6.185
 6282POPC   C2B78512   4.513  29.592   6.650
 6282POPC   C3B78513   4.311  29.537   7.079
 6282POPC   C4B78514   4.336  29.645   7.537
 6283POPC   NC378515  20.438  15.855   5.285
 6283POPC   PO478516  20.312  16.351   5.613
 6283POPC   GL178517  20.449  16.045   5.854
 6283POPC   GL278518  20.605  15.757   5.795
 6283POPC   C1A78519  20.597  16.020   6.249
 6283POPC   D2A78520  20.582  16.280   6.574
 6283POPC   C3A78521  20.644  16.064   6.954
 6283POPC   C4A78522  20.612  16.249   7.354
 6283POPC   C1B78523  20.535  15.498   6.155
 6283POPC   C2B78524  20.579  15.602   6.588
 6283POPC   C3B78525  20.321  15.648   6.917
 6283POPC   C4B78526  20.290  15.841   7.273
 6284POPC   NC378527  36.689   7.956   5.046
 6284POPC   PO478528  36.714   7.295   5.303
 6284POPC   GL178529  36.890   7.367   5.689
 6284POPC   GL278530  36.639   7.462   5.813
 6284POPC   C1A78531  36.980   7.371   6.165
 6284POPC   D2A78532  36.842   7.568   6.546
 6284POPC   C3A78533  36.805   7.218   6.848
 6284POPC   C4A78534  36.701   7.232   7.255
 6284POPC   C1B78535  36.472   7.459   6.185
 6284POPC   C2B78536  36.299   7.414   6.540
 6284POPC   C3B78537  36.273   7.179   6.860
 6284POPC   C4B78538  36.211   7.306   7.223
 6285POPC   NC378539   7.615  13.677   5.361
 6285POPC   PO478540   7.138  13.235   5.355
 6285POPC   GL178541   7.317  13.563   5.737
 6285POPC   GL278542   7.658  13.795   5.824
 6285POPC   C1A78543   7.359  13.608   6.191
 6285POPC   D2A78544   7.622  13.386   6.487
 6285POPC   C3A78545   7.527  13.402   6.891
 6285POPC   C4A78546   7.211  13.427   7.204
 6285POPC   C1B78547   7.859  13.734   6.184
 6285POPC   C2B78548   7.738  13.885   6.578
 6285POPC   C3B78549   7.407  13.904   6.866
 6285POPC   C4B78550   7.551  13.786   7.237
 6286POPC   NC378551  26.208  20.115   5.275
 6286POPC   PO478552  26.364  19.470   5.348
 6286POPC   GL178553  26.145  19.676   5.695
 6286POPC   GL278554  25.984  20.001   5.727
 6286POPC   C1A78555  25.970  19.564   6.099
 6286POPC   D2A78556  26.075  19.639   6.532
 6286POPC   C3A78557  25.833  19.634   6.923
 6286POPC   C4A78558  25.880  19.896   7.302
 6286POPC   C1B78559  25.982  20.069   6.185
 6286POPC   C2B78560  26.043  20.136   6.642
 6286POPC   C3B78561  25.903  20.325   7.025
 6286POPC   C4B78562  25.707  20.362   7.437
 6287POPC   NC378563  26.743  17.071   5.447
 6287POPC   PO478564  26.667  17.783   5.395
 6287POPC   GL178565  26.822  17.579   5.775
 6287POPC   GL278566  26.526  17.375   5.790
 6287POPC   C1A78567  26.987  17.570   6.245
 6287POPC   D2A78568  26.803  17.812   6.616
 6287POPC   C3A78569  26.823  17.725   7.050
 6287POPC   C4A78570  26.876  17.382   7.283
 6287POPC   C1B78571  26.489  17.629   6.162
 6287POPC   C2B78572  26.365  17.543   6.552
 6287POPC   C3B78573  26.443  17.337   6.925
 6287POPC   C4B78574  26.346  17.476   7.306
 6288POPC   NC378575  42.331   3.747   5.273
 6288POPC   PO478576  41.919   3.303   5.424
 6288POPC   GL178577  42.184   3.473   5.795
 6288POPC   GL278578  42.348   3.806   5.779
 6288POPC   C1A78579  42.325   3.531   6.268
 6288POPC   D2A78580  42.108   3.543   6.682
 6288POPC   C3A78581  42.334   3.501   7.086
 6288POPC   C4A78582  42.543   3.481   7.501
 6288POPC   C1B78583  42.055   3.927   6.107
 6288POPC   C2B78584  42.232   4.031   6.495
 6288POPC   C3B78585  42.433   3.953   6.871
 6288POPC   C4B78586  42.297   3.976   7.295
 6289POPC   NC378587   5.738  17.176   5.433
 6289POPC   PO478588   5.944  17.843   5.458
 6289POPC   GL178589   5.901  17.545   5.799
 6289POPC   GL278590   5.558  17.428   5.846
 6289POPC   C1A78591   5.842  17.632   6.255
 6289POPC   D2A78592   5.965  17.700   6.702
 6289POPC   C3A78593   5.789  17.678   7.093
 6289POPC   C4A78594   6.100  17.837   7.358
 6289POPC   C1B78595   5.354  17.455   6.252
 6289POPC   C2B78596   5.565  17.373   6.641
 6289POPC   C3B78597   5.789  17.163   6.957
 6289POPC   C4B78598   5.812  17.225   7.381
 6290POPC   NC378599  25.174   4.409   5.410
 6290POPC   PO478600  25.868   4.333   5.385
 6290POPC   GL178601  25.575   4.380   5.766
 6290POPC   GL278602  25.296   4.645   5.830
 6290POPC   C1A78603  25.381   4.272   6.169
 6290POPC   D2A78604  25.595   4.230   6.551
 6290POPC   C3A78605  25.481   4.065   6.919
 6290POPC   C4A78606  25.240   4.060   7.290
 6290POPC   C1B78607  25.446   4.774   6.225
 6290POPC   C2B78608  25.277   4.661   6.620
 6290POPC   C3B78609  25.151   4.513   7.019
 6290POPC   C4B78610  25.330   4.538   7.416
 6291POPC   NC378611  23.572  30.760   5.256
 6291POPC   PO478612  24.093  31.199   5.482
 6291POPC   GL178613  23.834  30.972   5.797
 6291POPC   GL278614  23.746  30.663   5.722
 6291POPC   C1A78615  23.587  30.776   6.202
 6291POPC   D2A78616  23.467  30.650   6.640
 6291POPC   C3A78617  23.420  30.908   6.988
 6291POPC   C4A78618  23.742  30.999   7.277
 6291POPC   C1B78619  23.761  30.314   6.009
 6291POPC   C2B78620  23.776  30.324   6.431
 6291POPC   C3B78621  23.944  30.448   6.812
 6291POPC   C4B78622  23.689  30.519   7.147
 6292POPC   NC378623  37.859  12.141   5.647
 6292POPC   PO478624  37.462  11.739   5.433
 6292POPC   GL178625  37.550  11.782   5.855
 6292POPC   GL278626  37.882  11.691   5.940
 6292POPC   C1A78627  37.516  12.004   6.245
 6292POPC   D2A78628  37.625  12.261   6.600
 6292POPC   C3A78629  37.484  12.101   6.982
 6292POPC   C4A78630  37.526  12.236   7.404
 6292POPC   C1B78631  38.046  11.996   6.267
 6292POPC   C2B78632  38.138  12.336   6.574
 6292POPC   C3B78633  38.003  12.204   6.979
 6292POPC   C4B78634  37.876  11.831   7.174
 6293POPC   NC378635  31.322  41.162   5.637
 6293POPC   PO478636  31.751  41.686   5.471
 6293POPC   GL178637  31.647  41.514   5.875
 6293POPC   GL278638  31.958  41.416   6.055
 6293POPC   C1A78639  31.408  41.464   6.299
 6293POPC   D2A78640  31.122  41.274   6.647
 6293POPC   C3A78641  31.116  41.422   7.089
 6293POPC   C4A78642  31.082  41.428   7.562
 6293POPC   C1B78643  31.789  41.807   6.245
 6293POPC   C2B78644  31.617  41.937   6.615
 6293POPC   C3B78645  31.566  41.752   7.008
 6293POPC   C4B78646  31.596  41.355   7.232
 6294POPC   NC378647  37.478  15.811   5.539
 6294POPC   PO478648  37.927  16.240   5.505
 6294POPC   GL178649  37.780  16.061   5.876
 6294POPC   GL278650  37.455  16.202   5.896
 6294POPC   C1A78651  37.662  15.877   6.277
 6294POPC   D2A78652  37.543  15.735   6.679
 6294POPC   C3A78653  37.575  15.902   7.123
 6294POPC   C4A78654  37.663  15.746   7.556
 6294POPC   C1B78655  37.237  16.155   6.272
 6294POPC   C2B78656  37.121  16.040   6.696
 6294POPC   C3B78657  37.263  16.296   7.065
 6294POPC   C4B78658  37.363  16.227   7.512
 6295POPC   NC378659  11.432   1.072   5.457
 6295POPC   PO478660  10.957   1.510   5.633
 6295POPC   GL178661  11.179   1.193   5.882
 6295POPC   GL278662  11.581   1.230   5.915
 6295POPC   C1A78663  11.281   1.257   6.293
 6295POPC   D2A78664  11.568   1.114   6.540
 6295POPC   C3A78665  11.329   1.083   6.892
 6295POPC   C4A78666  11.407   0.938   7.286
 6295POPC   C1B78667  11.721   1.541   6.183
 6295POPC   C2B78668  11.518   1.640   6.543
 6295POPC   C3B78669  11.639   1.502   6.902
 6295POPC   C4B78670  11.365   1.443   7.238
 6296POPC   NC378671  25.558   8.242   5.089
 6296POPC   PO478672  25.037   8.314   5.497
 6296POPC   GL178673  25.096   8.089   5.861
 6296POPC   GL278674  25.234   8.411   5.988
 6296POPC   C1A78675  25.075   8.026   6.310
 6296POPC   D2A78676  25.140   8.268   6.706
 6296POPC   C3A78677  25.003   8.219   7.134
 6296POPC   C4A78678  25.243   7.954   7.417
 6296POPC   C1B78679  25.377   8.557   6.368
 6296POPC   C2B78680  25.604   8.471   6.755
 6296POPC   C3B78681  25.494   8.379   7.168
 6296POPC   C4B78682  25.482   8.344   7.633
 6297POPC   NC378683  17.527   6.605   5.250
 6297POPC   PO478684  17.219   7.086   5.551
 6297POPC   GL178685  17.541   6.851   5.786
 6297POPC   GL278686  17.515   6.561   5.817
 6297POPC   C1A78687  17.653   6.811   6.231
 6297POPC   D2A78688  17.381   6.824   6.587
 6297POPC   C3A78689  17.589   6.811   6.957
 6297POPC   C4A78690  17.671   7.044   7.325
 6297POPC   C1B78691  17.246   6.482   6.224
 6297POPC   C2B78692  17.276   6.302   6.632
 6297POPC   C3B78693  17.132   6.520   6.994
 6297POPC   C4B78694  17.337   6.633   7.384
 6298POPC   NC378695  25.820  12.824   5.370
 6298POPC   PO478696  26.205  12.407   5.592
 6298POPC   GL178697  26.068  12.837   5.836
 6298POPC   GL278698  25.707  13.040   5.810
 6298POPC   C1A78699  26.229  12.883   6.287
 6298POPC   D2A78700  26.099  12.565   6.621
 6298POPC   C3A78701  26.060  12.710   7.053
 6298POPC   C4A78702  26.380  12.914   7.352
 6298POPC   C1B78703  25.737  12.989   6.236
 6298POPC   C2B78704  25.883  13.022   6.644
 6298POPC   C3B78705  25.797  13.141   7.042
 6298POPC   C4B78706  25.891  13.026   7.455
 6299POPC   NC378707  24.692  33.833   5.482
 6299POPC   PO478708  24.065  33.653   5.290
 6299POPC   GL178709  24.332  33.570   5.740
 6299POPC   GL278710  24.491  33.817   5.936
 6299POPC   C1A78711  24.302  33.448   6.228
 6299POPC   D2A78712  24.084  33.573   6.652
 6299POPC   C3A78713  24.309  33.558   7.060
 6299POPC   C4A78714  24.457  33.666   7.490
 6299POPC   C1B78715  24.725  33.822   6.259
 6299POPC   C2B78716  24.548  33.794   6.650
 6299POPC   C3B78717  24.696  33.926   7.052
 6299POPC   C4B78718  24.806  34.091   7.447
 6300POPC   NC378719   5.475  30.201   5.404
 6300POPC   PO478720   4.895  29.771   5.155
 6300POPC   GL178721   5.099  29.853   5.588
 6300POPC   GL278722   4.952  30.145   5.792
 6300POPC   C1A78723   5.235  29.821   6.065
 6300POPC   D2A78724   5.398  30.077   6.440
 6300POPC   C3A78725   5.263  29.948   6.866
 6300POPC   C4A78726   4.873  29.753   7.049
 6300POPC   C1B78727   4.935  30.255   6.256
 6300POPC   C2B78728   4.752  30.142   6.677
 6300POPC   C3B78729   4.884  30.277   7.088
 6300POPC   C4B78730   5.204  30.130   7.355
 6301POPC   NC378731  21.017  25.939   5.272
 6301POPC   PO478732  21.672  25.965   5.316
 6301POPC   GL178733  21.640  26.036   5.718
 6301POPC   GL278734  21.268  26.150   5.729
 6301POPC   C1A78735  21.620  26.232   6.106
 6301POPC   D2A78736  21.501  26.070   6.502
 6301POPC   C3A78737  21.394  26.189   6.900
 6301POPC   C4A78738  21.586  25.978   7.214
 6301POPC   C1B78739  21.100  26.078   6.155
 6301POPC   C2B78740  20.918  25.993   6.582
 6301POPC   C3B78741  20.862  25.826   6.993
 6301POPC   C4B78742  21.090  25.940   7.366
 6302POPC   NC378743   2.271  30.083   5.401
 6302POPC   PO478744   2.905  29.999   5.169
 6302POPC   GL178745   2.672  30.006   5.667
 6302POPC   GL278746   2.834  29.879   6.000
 6302POPC   C1A78747   2.412  30.110   6.070
 6302POPC   D2A78748   2.496  29.908   6.462
 6302POPC   C3A78749   2.795  29.990   6.792
 6302POPC   C4A78750   2.611  29.975   7.203
 6302POPC   C1B78751   3.030  29.591   6.276
 6302POPC   C2B78752   3.174  29.567   6.724
 6302POPC   C3B78753   3.063  29.717   7.142
 6302POPC   C4B78754   3.083  30.141   7.279
 6303POPC   NC378755  36.424   7.689   5.415
 6303POPC   PO478756  36.917   8.257   5.312
 6303POPC   GL178757  36.995   8.314   5.790
 6303POPC   GL278758  36.649   8.223   5.796
 6303POPC   C1A78759  37.060   8.205   6.284
 6303POPC   D2A78760  37.159   7.988   6.715
 6303POPC   C3A78761  37.103   8.296   7.079
 6303POPC   C4A78762  36.990   8.745   7.054
 6303POPC   C1B78763  36.671   8.524   6.130
 6303POPC   C2B78764  36.652   8.405   6.541
 6303POPC   C3B78765  36.691   8.113   6.869
 6303POPC   C4B78766  36.656   8.005   7.309
 6304POPC   NC378767  25.442  35.505   5.490
 6304POPC   PO478768  24.852  35.266   5.131
 6304POPC   GL178769  24.970  35.426   5.637
 6304POPC   GL278770  25.236  35.164   5.805
 6304POPC   C1A78771  25.054  35.487   6.128
 6304POPC   D2A78772  25.049  35.356   6.571
 6304POPC   C3A78773  24.962  35.314   6.984
 6304POPC   C4A78774  25.227  35.500   7.276
 6304POPC   C1B78775  25.211  35.011   6.237
 6304POPC   C2B78776  25.418  35.001   6.658
 6304POPC   C3B78777  25.514  35.097   7.076
 6304POPC   C4B78778  25.917  35.065   7.229
 6305POPC   NC378779   9.178   2.447   5.377
 6305POPC   PO478780   9.305   3.118   5.482
 6305POPC   GL178781   9.009   2.964   5.807
 6305POPC   GL278782   8.754   2.667   5.792
 6305POPC   C1A78783   9.036   2.798   6.214
 6305POPC   D2A78784   8.963   2.602   6.566
 6305POPC   C3A78785   9.163   2.741   6.906
 6305POPC   C4A78786   9.146   3.108   7.192
 6305POPC   C1B78787   8.594   2.483   6.227
 6305POPC   C2B78788   8.677   2.183   6.582
 6305POPC   C3B78789   8.695   2.455   6.963
 6305POPC   C4B78790   8.839   2.682   7.310
 6306POPC   NC378791  12.253  11.739   5.528
 6306POPC   PO478792  12.012  12.370   5.331
 6306POPC   GL178793  12.043  12.156   5.707
 6306POPC   GL278794  11.736  12.177   5.863
 6306POPC   C1A78795  12.251  12.118   6.103
 6306POPC   D2A78796  12.243  11.889   6.516
 6306POPC   C3A78797  12.152  12.094   6.920
 6306POPC   C4A78798  12.237  12.261   7.341
 6306POPC   C1B78799  11.788  12.025   6.274
 6306POPC   C2B78800  11.634  12.129   6.670
 6306POPC   C3B78801  11.709  11.837   6.969
 6306POPC   C4B78802  11.859  11.913   7.341
 6307POPC   NC378803  26.932  43.193   5.372
 6307POPC   PO478804  26.414  42.799   5.507
 6307POPC   GL178805  26.789  42.905   5.780
 6307POPC   GL278806  27.141  43.069   5.817
 6307POPC   C1A78807  26.774  43.226   6.143
 6307POPC   D2A78808  26.581  43.287   6.566
 6307POPC   C3A78809  26.698  42.972   6.922
 6307POPC   C4A78810  26.687  42.888   7.409
 6307POPC   C1B78811  27.283  43.395   6.077
 6307POPC   C2B78812  27.389  43.421   6.503
 6307POPC   C3B78813  27.086  43.313   6.775
 6307POPC   C4B78814  26.968  43.312   7.187
 6308POPC   NC378815   8.702  36.147   5.523
 6308POPC   PO478816   9.296  35.901   5.467
 6308POPC   GL178817   9.092  35.912   5.833
 6308POPC   GL278818   8.932  36.220   5.975
 6308POPC   C1A78819   9.249  35.893   6.239
 6308POPC   D2A78820   9.320  35.723   6.617
 6308POPC   C3A78821   9.020  35.915   6.871
 6308POPC   C4A78822   8.806  36.185   7.139
 6308POPC   C1B78823   8.858  36.230   6.439
 6308POPC   C2B78824   8.531  36.429   6.728
 6308POPC   C3B78825   8.411  36.507   7.171
 6308POPC   C4B78826   8.517  36.290   7.585
 6309POPC   NC378827   0.210  26.000   4.939
 6309POPC   PO478828   0.577  25.856   5.461
 6309POPC   GL178829   0.329  25.992   5.814
 6309POPC   GL278830   0.031  26.220   5.777
 6309POPC   C1A78831   0.404  25.857   6.190
 6309POPC   D2A78832   0.686  25.816   6.489
 6309POPC   C3A78833   0.497  25.810   6.840
 6309POPC   C4A78834   0.601  25.983   7.190
 6309POPC   C1B78835   0.118  26.287   6.206
 6309POPC   C2B78836   0.145  26.089   6.574
 6309POPC   C3B78837   0.216  26.225   6.947
 6309POPC   C4B78838   0.050  26.191   7.276
 6310POPC   NC378839  43.817  17.549   5.519
 6310POPC   PO478840  44.218  17.958   5.434
 6310POPC   GL178841  44.193  17.770   5.888
 6310POPC   GL278842  44.102  17.417   5.947
 6310POPC   C1A78843  43.983  17.714   6.334
 6310POPC   D2A78844  43.645  17.433   6.574
 6310POPC   C3A78845  43.609  17.603   7.005
 6310POPC   C4A78846  44.028  17.632   7.127
 6310POPC   C1B78847  44.116  17.157   6.284
 6310POPC   C2B78848  44.285  16.936   6.616
 6310POPC   C3B78849  44.210  17.118   7.011
 6310POPC   C4B78850  43.795  17.184   7.204
 6311POPC   NC378851  41.271  28.826   5.062
 6311POPC   PO478852  41.687  28.970   5.570
 6311POPC   GL178853  41.550  29.285   5.852
 6311POPC   GL278854  41.170  29.241   5.908
 6311POPC   C1A78855  41.859  29.349   6.201
 6311POPC   D2A78856  42.100  29.316   6.603
 6311POPC   C3A78857  41.852  29.334   6.991
 6311POPC   C4A78858  41.622  28.985   7.159
 6311POPC   C1B78859  41.416  28.991   6.242
 6311POPC   C2B78860  41.567  29.145   6.615
 6311POPC   C3B78861  41.334  29.403   6.889
 6311POPC   C4B78862  41.196  29.236   7.268
 6312POPC   NC378863  14.647  38.550   5.476
 6312POPC   PO478864  14.001  38.362   5.513
 6312POPC   GL178865  14.220  38.558   5.816
 6312POPC   GL278866  14.396  38.226   5.870
 6312POPC   C1A78867  14.514  38.649   6.131
 6312POPC   D2A78868  14.694  38.402   6.466
 6312POPC   C3A78869  14.504  38.415   6.893
 6312POPC   C4A78870  14.649  38.580   7.283
 6312POPC   C1B78871  14.182  38.260   6.290
 6312POPC   C2B78872  14.010  38.160   6.723
 6312POPC   C3B78873  14.170  38.126   7.158
 6312POPC   C4B78874  14.162  38.140   7.632
 6313POPC   NC378875  12.915  43.364   5.453
 6313POPC   PO478876  12.439  42.914   5.629
 6313POPC   GL178877  12.850  42.994   5.815
 6313POPC   GL278878  12.988  43.342   5.946
 6313POPC   C1A78879  12.998  42.856   6.210
 6313POPC   D2A78880  12.965  42.639   6.588
 6313POPC   C3A78881  12.962  42.855   6.961
 6313POPC   C4A78882  12.935  43.064   7.352
 6313POPC   C1B78883  12.649  43.258   6.214
 6313POPC   C2B78884  12.696  43.128   6.614
 6313POPC   C3B78885  12.824  43.356   6.937
 6313POPC   C4B78886  13.002  43.557   7.281
 6314POPC   NC378887   5.169  40.474   5.349
 6314POPC   PO478888   4.764  41.023   5.400
 6314POPC   GL178889   4.749  40.915   5.790
 6314POPC   GL278890   5.115  40.867   5.792
 6314POPC   C1A78891   4.839  40.746   6.197
 6314POPC   D2A78892   5.162  40.716   6.494
 6314POPC   C3A78893   5.123  40.694   6.904
 6314POPC   C4A78894   4.967  40.901   7.201
 6314POPC   C1B78895   5.287  41.105   6.172
 6314POPC   C2B78896   5.454  41.129   6.627
 6314POPC   C3B78897   5.379  41.154   7.066
 6314POPC   C4B78898   5.365  40.987   7.496
 6315POPC   NC378899   0.386  26.311   5.426
 6315POPC   PO478900   0.587  26.967   5.483
 6315POPC   GL178901   0.380  26.949   5.869
 6315POPC   GL278902   0.389  26.588   5.912
 6315POPC   C1A78903   0.545  26.950   6.301
 6315POPC   D2A78904   0.695  27.099   6.701
 6315POPC   C3A78905   0.469  26.918   7.041
 6315POPC   C4A78906   0.647  26.940   7.449
 6315POPC   C1B78907   0.599  26.417   6.319
 6315POPC   C2B78908   0.691  26.315   6.769
 6315POPC   C3B78909   0.624  26.469   7.209
 6315POPC   C4B78910   0.262  26.610   7.432
 6316POPC   NC378911  29.678  27.097   5.478
 6316POPC   PO478912  30.172  26.699   5.478
 6316POPC   GL178913  29.819  26.513   5.722
 6316POPC   GL278914  29.542  26.720   5.832
 6316POPC   C1A78915  29.803  26.374   6.161
 6316POPC   D2A78916  30.166  26.474   6.402
 6316POPC   C3A78917  30.171  26.424   6.835
 6316POPC   C4A78918  30.247  26.553   7.253
 6316POPC   C1B78919  29.849  26.904   6.146
 6316POPC   C2B78920  29.989  26.934   6.582
 6316POPC   C3B78921  29.816  26.784   6.997
 6316POPC   C4B78922  29.541  26.943   7.357
 6317POPC   NC378923   2.613  22.465   5.534
 6317POPC   PO478924   2.864  21.902   5.435
 6317POPC   GL178925   2.787  22.053   5.859
 6317POPC   GL278926   2.867  22.402   5.990
 6317POPC   C1A78927   2.713  21.928   6.286
 6317POPC   D2A78928   2.751  22.146   6.658
 6317POPC   C3A78929   2.696  21.866   7.036
 6317POPC   C4A78930   2.884  21.961   7.434
 6317POPC   C1B78931   2.469  22.433   6.254
 6317POPC   C2B78932   2.269  22.513   6.642
 6317POPC   C3B78933   2.389  22.257   6.976
 6317POPC   C4B78934   2.459  22.302   7.392
 6318POPC   NC378935  16.282   0.953   5.606
 6318POPC   PO478936  16.944   1.058   5.410
 6318POPC   GL178937  16.756   1.078   5.798
 6318POPC   GL278938  16.847   0.767   5.893
 6318POPC   C1A78939  16.559   1.060   6.220
 6318POPC   D2A78940  16.364   1.076   6.649
 6318POPC   C3A78941  16.565   1.359   6.921
 6318POPC   C4A78942  16.792   1.359   7.301
 6318POPC   C1B78943  17.033   0.786   6.264
 6318POPC   C2B78944  16.904   1.045   6.597
 6318POPC   C3B78945  17.062   1.113   6.952
 6318POPC   C4B78946  17.004   0.770   7.214
 6319POPC   NC378947   5.751  20.448   5.339
 6319POPC   PO478948   5.983  20.999   5.197
 6319POPC   GL178949   5.904  20.778   5.718
 6319POPC   GL278950   5.728  20.469   5.842
 6319POPC   C1A78951   5.932  20.706   6.238
 6319POPC   D2A78952   5.902  20.366   6.558
 6319POPC   C3A78953   6.051  20.516   6.965
 6319POPC   C4A78954   5.843  20.748   7.338
 6319POPC   C1B78955   5.470  20.457   6.228
 6319POPC   C2B78956   5.365  20.181   6.581
 6319POPC   C3B78957   5.497  20.374   6.971
 6319POPC   C4B78958   5.776  20.255   7.290
 6320POPC   NC378959   0.958  24.376   5.636
 6320POPC   PO478960   0.423  24.142   5.315
 6320POPC   GL178961   0.437  24.327   5.754
 6320POPC   GL278962   0.675  24.165   5.981
 6320POPC   C1A78963   0.342  24.679   6.065
 6320POPC   D2A78964   0.458  24.885   6.485
 6320POPC   C3A78965   0.160  24.788   6.830
 6320POPC   C4A78966   0.203  24.634   7.257
 6320POPC   C1B78967   0.729  24.457   6.301
 6320POPC   C2B78968   0.569  24.416   6.698
 6320POPC   C3B78969   0.543  24.296   7.101
 6320POPC   C4B78970   0.643  24.598   7.473
 6321POPC   NC378971  30.599  19.038   5.335
 6321POPC   PO478972  31.038  19.352   5.684
 6321POPC   GL178973  30.795  19.050   5.884
 6321POPC   GL278974  30.467  19.136   5.866
 6321POPC   C1A78975  30.664  18.852   6.260
 6321POPC   D2A78976  30.494  19.009   6.637
 6321POPC   C3A78977  30.728  18.807   6.930
 6321POPC   C4A78978  30.893  18.875   7.302
 6321POPC   C1B78979  30.602  19.371   6.275
 6321POPC   C2B78980  30.757  19.451   6.720
 6321POPC   C3B78981  30.693  19.292   7.105
 6321POPC   C4B78982  30.459  19.124   7.459
 6322POPC   NC378983  13.206  34.862   5.510
 6322POPC   PO478984  13.676  34.568   5.024
 6322POPC   GL178985  13.683  34.559   5.573
 6322POPC   GL278986  13.997  34.660   5.857
 6322POPC   C1A78987  13.586  34.504   6.063
 6322POPC   D2A78988  13.893  34.434   6.437
 6322POPC   C3A78989  13.660  34.387   6.830
 6322POPC   C4A78990  13.363  34.407   7.173
 6322POPC   C1B78991  13.940  34.919   6.225
 6322POPC   C2B78992  13.618  34.874   6.550
 6322POPC   C3B78993  13.720  34.882   6.978
 6322POPC   C4B78994  13.763  34.671   7.348
 6323POPC   NC378995  23.452   4.278   5.476
 6323POPC   PO478996  24.121   4.252   5.536
 6323POPC   GL178997  24.117   4.258   5.938
 6323POPC   GL278998  23.756   4.325   5.917
 6323POPC   C1A78999  24.024   4.247   6.352
 6323POPC   D2A79000  23.674   4.306   6.593
 6323POPC   C3A79001  23.614   4.177   7.005
 6323POPC   C4A79002  23.836   4.181   7.355
 6323POPC   C1B79003  23.695   4.656   6.185
 6323POPC   C2B79004  23.489   4.777   6.543
 6323POPC   C3B79005  23.699   4.726   6.903
 6323POPC   C4B79006  23.736   4.694   7.320
 6324POPC   NC379007  44.521  28.841   5.633
 6324POPC   PO479008  44.555  29.534   5.478
 6324POPC   GL179009  44.629  29.314   5.845
 6324POPC   GL279010  44.926  29.130   5.786
 6324POPC   C1A79011  44.548  29.111   6.254
 6324POPC   D2A79012  44.576  29.174   6.720
 6324POPC   C3A79013  44.302  29.055   7.037
 6324POPC   C4A79014  44.436  29.142   7.423
 6324POPC   C1B79015   0.055  28.948   6.175
 6324POPC   C2B79016  44.877  28.818   6.516
 6324POPC   C3B79017  44.959  28.865   6.923
 6324POPC   C4B79018  44.904  29.043   7.300
 6325POPC   NC379019  19.732  28.490   5.414
 6325POPC   PO479020  20.304  28.468   5.287
 6325POPC   GL179021  20.072  28.293   5.751
 6325POPC   GL279022  19.658  28.188   5.831
 6325POPC   C1A79023  19.952  28.340   6.208
 6325POPC   D2A79024  19.800  28.257   6.614
 6325POPC   C3A79025  19.970  28.446   6.955
 6325POPC   C4A79026  19.994  28.187   7.274
 6325POPC   C1B79027  19.444  28.359   6.239
 6325POPC   C2B79028  19.296  28.217   6.670
 6325POPC   C3B79029  19.494  28.243   7.076
 6325POPC   C4B79030  19.533  28.687   7.159
 6326POPC   NC379031   3.532  35.110   5.511
 6326POPC   PO479032   3.603  35.748   5.124
 6326POPC   GL179033   3.634  35.659   5.573
 6326POPC   GL279034   3.281  35.568   5.644
 6326POPC   C1A79035   3.756  35.576   6.019
 6326POPC   D2A79036   3.966  35.637   6.455
 6326POPC   C3A79037   3.654  35.556   6.808
 6326POPC   C4A79038   3.714  35.371   7.242
 6326POPC   C1B79039   3.207  35.612   6.107
 6326POPC   C2B79040   3.181  35.467   6.531
 6326POPC   C3B79041   3.236  35.278   6.930
 6326POPC   C4B79042   3.209  35.434   7.334
 6327POPC   NC379043  41.794   1.265   5.230
 6327POPC   PO479044  41.636   0.646   5.419
 6327POPC   GL179045  41.702   1.054   5.780
 6327POPC   GL279046  41.890   1.399   5.750
 6327POPC   C1A79047  41.541   1.239   6.245
 6327POPC   D2A79048  41.520   1.437   6.693
 6327POPC   C3A79049  41.493   1.153   7.058
 6327POPC   C4A79050  41.730   1.007   7.415
 6327POPC   C1B79051  42.041   1.326   6.201
 6327POPC   C2B79052  42.017   1.283   6.681
 6327POPC   C3B79053  41.954   1.379   7.129
 6327POPC   C4B79054  42.028   1.412   7.596
 6328POPC   NC379055  21.755  30.172   5.639
 6328POPC   PO479056  22.237  29.882   5.239
 6328POPC   GL179057  22.208  29.918   5.682
 6328POPC   GL279058  22.285  30.264   5.697
 6328POPC   C1A79059  22.126  29.745   6.116
 6328POPC   D2A79060  21.874  29.874   6.491
 6328POPC   C3A79061  21.933  29.633   6.864
 6328POPC   C4A79062  21.991  29.753   7.269
 6328POPC   C1B79063  22.205  30.269   6.128
 6328POPC   C2B79064  22.349  30.054   6.446
 6328POPC   C3B79065  22.271  30.027   6.864
 6328POPC   C4B79066  22.167  30.261   7.196
 6329POPC   NC379067  27.835   4.981   5.394
 6329POPC   PO479068  27.223   5.075   5.605
 6329POPC   GL179069  27.510   4.844   5.847
 6329POPC   GL279070  27.795   5.074   5.899
 6329POPC   C1A79071  27.646   4.702   6.233
 6329POPC   D2A79072  27.710   5.040   6.523
 6329POPC   C3A79073  27.447   5.069   6.864
 6329POPC   C4A79074  27.571   5.078   7.271
 6329POPC   C1B79075  27.766   5.427   6.193
 6329POPC   C2B79076  27.897   5.540   6.612
 6329POPC   C3B79077  27.763   5.471   7.030
 6329POPC   C4B79078  27.931   5.464   7.468
 6330POPC   NC379079  44.058   3.190   5.427
 6330POPC   PO479080  43.848   2.558   5.175
 6330POPC   GL179081  43.789   2.611   5.646
 6330POPC   GL279082  43.867   2.920   5.822
 6330POPC   C1A79083  43.973   2.453   6.087
 6330POPC   D2A79084  44.069   2.595   6.519
 6330POPC   C3A79085  44.127   2.348   6.898
 6330POPC   C4A79086  44.024   2.469   7.302
 6330POPC   C1B79087  43.697   2.845   6.255
 6330POPC   C2B79088  43.737   2.966   6.706
 6330POPC   C3B79089  43.752   2.905   7.164
 6330POPC   C4B79090  43.865   3.093   7.579
 6331POPC   NC379091  26.580  32.105   5.559
 6331POPC   PO479092  27.154  31.875   5.311
 6331POPC   GL179093  27.077  31.911   5.759
 6331POPC   GL279094  27.003  32.255   5.792
 6331POPC   C1A79095  27.227  32.057   6.193
 6331POPC   D2A79096  27.045  31.971   6.592
 6331POPC   C3A79097  26.982  32.257   6.933
 6331POPC   C4A79098  26.736  32.090   7.207
 6331POPC   C1B79099  26.744  32.249   6.174
 6331POPC   C2B79100  26.700  32.458   6.550
 6331POPC   C3B79101  26.468  32.373   6.894
 6331POPC   C4B79102  26.243  32.297   7.280
 6332POPC   NC379103  22.717   6.850   5.489
 6332POPC   PO479104  23.242   6.503   5.328
 6332POPC   GL179105  23.173   6.740   5.728
 6332POPC   GL279106  22.903   6.489   5.825
 6332POPC   C1A79107  23.030   6.856   6.180
 6332POPC   D2A79108  22.954   6.655   6.599
 6332POPC   C3A79109  22.743   6.792   6.956
 6332POPC   C4A79110  22.929   6.888   7.338
 6332POPC   C1B79111  22.857   6.284   6.248
 6332POPC   C2B79112  23.035   6.157   6.651
 6332POPC   C3B79113  22.973   6.365   7.069
 6332POPC   C4B79114  23.205   6.441   7.448
 6333POPC   NC379115  26.803  23.218   5.316
 6333POPC   PO479116  27.039  22.598   5.305
 6333POPC   GL179117  26.736  22.760   5.637
 6333POPC   GL279118  26.846  23.118   5.809
 6333POPC   C1A79119  26.746  22.734   6.113
 6333POPC   D2A79120  26.780  23.036   6.479
 6333POPC   C3A79121  26.821  22.878   6.925
 6333POPC   C4A79122  26.607  22.565   7.144
 6333POPC   C1B79123  27.094  23.317   6.174
 6333POPC   C2B79124  27.268  23.231   6.584
 6333POPC   C3B79125  27.310  23.083   6.996
 6333POPC   C4B79126  27.078  23.007   7.377
 6334POPC   NC379127  19.855  41.873   5.470
 6334POPC   PO479128  19.519  41.310   5.596
 6334POPC   GL179129  19.699  41.637   5.904
 6334POPC   GL279130  20.035  41.836   5.944
 6334POPC   C1A79131  19.704  41.746   6.341
 6334POPC   D2A79132  19.822  41.479   6.692
 6334POPC   C3A79133  19.818  41.624   7.118
 6334POPC   C4A79134  19.517  41.899   7.301
 6334POPC   C1B79135  20.220  41.809   6.330
 6334POPC   C2B79136  20.074  41.935   6.752
 6334POPC   C3B79137  20.333  41.829   7.114
 6334POPC   C4B79138  20.181  41.697   7.510
 6335POPC   NC379139   7.034  31.235   5.413
 6335POPC   PO479140   6.550  31.796   5.440
 6335POPC   GL179141   6.728  31.556   5.757
 6335POPC   GL279142   7.007  31.751   5.770
 6335POPC   C1A79143   6.545  31.349   6.130
 6335POPC   D2A79144   6.408  31.218   6.539
 6335POPC   C3A79145   6.353  31.490   6.878
 6335POPC   C4A79146   6.376  31.463   7.310
 6335POPC   C1B79147   7.035  31.469   6.176
 6335POPC   C2B79148   6.936  31.291   6.598
 6335POPC   C3B79149   6.851  31.373   7.040
 6335POPC   C4B79150   6.848  31.576   7.441
 6336POPC   NC379151  31.750  14.725   5.512
 6336POPC   PO479152  31.785  14.029   5.474
 6336POPC   GL179153  31.643  14.124   5.885
 6336POPC   GL279154  31.519  14.466   5.889
 6336POPC   C1A79155  31.500  14.209   6.325
 6336POPC   D2A79156  31.349  13.958   6.668
 6336POPC   C3A79157  31.345  14.180   7.041
 6336POPC   C4A79158  31.638  14.125   7.378
 6336POPC   C1B79159  31.195  14.602   6.181
 6336POPC   C2B79160  31.109  14.684   6.593
 6336POPC   C3B79161  30.963  14.788   6.970
 6336POPC   C4B79162  31.292  14.669   7.226
 6337POPC   NC379163  34.366  21.561   5.442
 6337POPC   PO479164  34.803  21.079   5.297
 6337POPC   GL179165  34.525  21.166   5.698
 6337POPC   GL279166  34.491  20.978   5.957
 6337POPC   C1A79167  34.427  21.482   6.089
 6337POPC   D2A79168  34.600  21.698   6.497
 6337POPC   C3A79169  34.561  21.561   6.949
 6337POPC   C4A79170  34.171  21.549   7.196
 6337POPC   C1B79171  34.424  21.077   6.404
 6337POPC   C2B79172  34.177  21.185   6.768
 6337POPC   C3B79173  34.423  21.092   7.116
 6337POPC   C4B79174  34.818  21.049   7.265
 6338POPC   NC379175  27.518  18.526   5.359
 6338POPC   PO479176  27.761  19.130   5.246
 6338POPC   GL179177  27.709  18.915   5.654
 6338POPC   GL279178  27.360  18.826   5.753
 6338POPC   C1A79179  27.789  18.877   6.101
 6338POPC   D2A79180  27.735  19.171   6.447
 6338POPC   C3A79181  27.731  19.069   6.884
 6338POPC   C4A79182  27.619  19.357   7.209
 6338POPC   C1B79183  27.283  18.940   6.194
 6338POPC   C2B79184  27.370  18.821   6.624
 6338POPC   C3B79185  27.284  18.936   7.087
 6338POPC   C4B79186  27.329  18.840   7.564
 6339POPC   NC379187   2.220  37.799   5.292
 6339POPC   PO479188   2.860  37.616   5.311
 6339POPC   GL179189   2.639  37.775   5.662
 6339POPC   GL279190   2.573  37.477   5.823
 6339POPC   C1A79191   2.636  37.896   6.137
 6339POPC   D2A79192   2.682  37.650   6.558
 6339POPC   C3A79193   2.740  37.819   7.004
 6339POPC   C4A79194   3.005  37.701   7.383
 6339POPC   C1B79195   2.321  37.455   6.206
 6339POPC   C2B79196   2.179  37.551   6.613
 6339POPC   C3B79197   2.290  37.398   7.006
 6339POPC   C4B79198   2.588  37.407   7.331
 6340POPC   NC379199  44.603   9.388   5.494
 6340POPC   PO479200   0.138   9.896   5.392
 6340POPC   GL179201  44.871   9.823   5.763
 6340POPC   GL279202  44.550  10.030   5.776
 6340POPC   C1A79203  44.831   9.694   6.204
 6340POPC   D2A79204  44.965   9.855   6.604
 6340POPC   C3A79205  44.896   9.594   6.945
 6340POPC   C4A79206  44.784   9.623   7.315
 6340POPC   C1B79207  44.306   9.856   6.142
 6340POPC   C2B79208  44.450   9.829   6.580
 6340POPC   C3B79209  44.572   9.994   6.961
 6340POPC   C4B79210  44.301   9.780   7.244
 6341POPC   NC379211  20.348   1.790   5.525
 6341POPC   PO479212  21.008   1.940   5.542
 6341POPC   GL179213  20.697   2.077   5.822
 6341POPC   GL279214  20.625   1.755   5.980
 6341POPC   C1A79215  20.479   2.187   6.222
 6341POPC   D2A79216  20.594   2.103   6.656
 6341POPC   C3A79217  20.566   2.066   7.103
 6341POPC   C4A79218  20.875   1.801   7.308
 6341POPC   C1B79219  20.392   1.695   6.393
 6341POPC   C2B79220  20.142   1.827   6.787
 6341POPC   C3B79221  20.228   1.656   7.197
 6341POPC   C4B79222  20.592   1.369   7.281
 6342POPC   NC379223  17.884  23.099   5.372
 6342POPC   PO479224  18.504  22.975   5.245
 6342POPC   GL179225  18.445  22.953   5.690
 6342POPC   GL279226  18.104  22.938   5.813
 6342POPC   C1A79227  18.554  22.891   6.116
 6342POPC   D2A79228  18.457  22.694   6.501
 6342POPC   C3A79229  18.516  22.863   6.897
 6342POPC   C4A79230  18.322  22.830   7.243
 6342POPC   C1B79231  18.055  22.887   6.270
 6342POPC   C2B79232  18.039  22.883   6.732
 6342POPC   C3B79233  17.811  22.886   7.114
 6342POPC   C4B79234  17.963  23.203   7.377
 6343POPC   NC379235  43.281  36.857   5.441
 6343POPC   PO479236  42.752  36.564   5.207
 6343POPC   GL179237  42.889  36.647   5.704
 6343POPC   GL279238  43.243  36.691   5.913
 6343POPC   C1A79239  42.834  36.595   6.178
 6343POPC   D2A79240  42.725  36.863   6.547
 6343POPC   C3A79241  42.880  36.688   6.962
 6343POPC   C4A79242  42.979  36.585   7.400
 6343POPC   C1B79243  43.275  36.811   6.363
 6343POPC   C2B79244  43.169  37.049   6.742
 6343POPC   C3B79245  43.016  37.109   7.172
 6343POPC   C4B79246  43.246  37.049   7.530
 6344POPC   NC379247  23.438  34.559   5.457
 6344POPC   PO479248  22.846  34.795   5.499
 6344POPC   GL179249  22.924  34.753   5.917
 6344POPC   GL279250  23.257  34.810   5.855
 6344POPC   C1A79251  22.670  34.751   6.320
 6344POPC   D2A79252  22.598  34.432   6.650
 6344POPC   C3A79253  22.865  34.488   7.007
 6344POPC   C4A79254  22.823  34.538   7.433
 6344POPC   C1B79255  23.371  34.945   6.235
 6344POPC   C2B79256  23.118  34.876   6.568
 6344POPC   C3B79257  23.261  34.788   6.940
 6344POPC   C4B79258  23.162  34.893   7.314
 6345POPC   NC379259  12.695  42.582   5.467
 6345POPC   PO479260  13.112  42.125   5.425
 6345POPC   GL179261  12.915  42.175   5.786
 6345POPC   GL279262  12.571  42.114   5.686
 6345POPC   C1A79263  13.059  42.318   6.187
 6345POPC   D2A79264  13.208  42.147   6.581
 6345POPC   C3A79265  13.134  42.327   6.981
 6345POPC   C4A79266  13.176  42.589   7.318
 6345POPC   C1B79267  12.533  42.282   6.115
 6345POPC   C2B79268  12.688  42.219   6.545
 6345POPC   C3B79269  12.755  41.993   6.907
 6345POPC   C4B79270  12.650  42.304   7.198
 6346POPC   NC379271  36.451  35.941   5.626
 6346POPC   PO479272  36.332  35.319   5.336
 6346POPC   GL179273  36.263  35.492   5.802
 6346POPC   GL279274  36.553  35.436   6.019
 6346POPC   C1A79275  36.108  35.527   6.267
 6346POPC   D2A79276  36.402  35.400   6.627
 6346POPC   C3A79277  36.186  35.397   7.036
 6346POPC   C4A79278  35.975  35.281   7.435
 6346POPC   C1B79279  36.326  35.072   6.233
 6346POPC   C2B79280  36.126  34.961   6.656
 6346POPC   C3B79281  36.086  34.886   7.115
 6346POPC   C4B79282  36.040  34.799   7.593
 6347POPC   NC379283  35.134  18.362   5.541
 6347POPC   PO479284  35.695  18.582   5.856
 6347POPC   GL179285  35.428  18.270   5.943
 6347POPC   GL279286  35.491  17.969   5.754
 6347POPC   C1A79287  35.147  18.246   6.267
 6347POPC   D2A79288  35.108  18.233   6.689
 6347POPC   C3A79289  35.408  18.403   6.931
 6347POPC   C4A79290  35.235  18.538   7.279
 6347POPC   C1B79291  35.388  17.804   6.168
 6347POPC   C2B79292  35.082  17.771   6.491
 6347POPC   C3B79293  35.224  17.779   6.925
 6347POPC   C4B79294  35.304  18.015   7.297
 6348POPC   NC379295  13.832  17.423   5.381
 6348POPC   PO479296  13.408  17.896   5.424
 6348POPC   GL179297  13.595  17.586   5.796
 6348POPC   GL279298  13.970  17.481   5.887
 6348POPC   C1A79299  13.549  17.447   6.246
 6348POPC   D2A79300  13.495  17.721   6.639
 6348POPC   C3A79301  13.352  17.515   7.019
 6348POPC   C4A79302  13.554  17.327   7.373
 6348POPC   C1B79303  13.965  17.725   6.311
 6348POPC   C2B79304  13.982  17.863   6.751
 6348POPC   C3B79305  13.810  17.727   7.131
 6348POPC   C4B79306  13.934  17.695   7.558
 6349POPC   NC379307  19.260  18.471   5.393
 6349POPC   PO479308  18.747  18.132   5.465
 6349POPC   GL179309  18.998  18.310   5.808
 6349POPC   GL279310  19.367  18.130   5.757
 6349POPC   C1A79311  18.878  18.468   6.245
 6349POPC   D2A79312  19.095  18.577   6.672
 6349POPC   C3A79313  18.893  18.544   7.080
 6349POPC   C4A79314  18.755  18.205   7.292
 6349POPC   C1B79315  19.396  18.331   6.151
 6349POPC   C2B79316  19.375  18.171   6.557
 6349POPC   C3B79317  19.426  18.289   6.967
 6349POPC   C4B79318  19.255  18.168   7.351
 6350POPC   NC379319  26.724  18.860   5.380
 6350POPC   PO479320  27.111  19.336   5.615
 6350POPC   GL179321  26.779  19.111   5.839
 6350POPC   GL279322  26.863  18.751   5.848
 6350POPC   C1A79323  26.797  19.044   6.285
 6350POPC   D2A79324  27.013  19.184   6.648
 6350POPC   C3A79325  26.780  19.185   7.003
 6350POPC   C4A79326  26.524  19.027   7.330
 6350POPC   C1B79327  26.884  18.555   6.223
 6350POPC   C2B79328  26.883  18.672   6.651
 6350POPC   C3B79329  26.843  18.685   7.065
 6350POPC   C4B79330  26.867  18.666   7.482
 6351POPC   NC379331  24.247  42.153   5.036
 6351POPC   PO479332  23.566  42.186   5.170
 6351POPC   GL179333  23.746  42.314   5.627
 6351POPC   GL279334  23.883  42.621   5.692
 6351POPC   C1A79335  23.902  42.142   6.053
 6351POPC   D2A79336  23.673  42.249   6.449
 6351POPC   C3A79337  23.617  42.099   6.865
 6351POPC   C4A79338  23.501  42.291   7.239
 6351POPC   C1B79339  23.670  42.614   6.078
 6351POPC   C2B79340  23.675  42.744   6.530
 6351POPC   C3B79341  23.832  42.561   6.916
 6351POPC   C4B79342  23.996  42.817   7.263
 6352POPC   NC379343  22.298  10.343   5.412
 6352POPC   PO479344  22.321  11.003   5.429
 6352POPC   GL179345  22.185  10.850   5.821
 6352POPC   GL279346  22.009  10.548   5.784
 6352POPC   C1A79347  22.370  10.718   6.209
 6352POPC   D2A79348  22.324  10.486   6.577
 6352POPC   C3A79349  22.501  10.676   6.925
 6352POPC   C4A79350  22.443  10.476   7.300
 6352POPC   C1B79351  21.860  10.635   6.204
 6352POPC   C2B79352  21.816  10.427   6.607
 6352POPC   C3B79353  22.007  10.473   6.985
 6352POPC   C4B79354  21.930  10.380   7.400
 6353POPC   NC379355  42.455  31.071   5.290
 6353POPC   PO479356  42.227  30.433   5.456
 6353POPC   GL179357  42.268  30.562   5.878
 6353POPC   GL279358  42.447  30.852   5.795
 6353POPC   C1A79359  42.139  30.630   6.329
 6353POPC   D2A79360  42.160  30.915   6.688
 6353POPC   C3A79361  42.219  30.790   7.140
 6353POPC   C4A79362  42.138  30.864   7.632
 6353POPC   C1B79363  42.628  30.771   6.222
 6353POPC   C2B79364  42.588  30.670   6.659
 6353POPC   C3B79365  42.719  30.814   7.071
 6353POPC   C4B79366  42.630  30.686   7.515
 6354POPC   NC379367  39.187  11.333   5.457
 6354POPC   PO479368  39.554  10.897   5.568
 6354POPC   GL179369  39.487  11.218   5.889
 6354POPC   GL279370  39.115  11.234   5.958
 6354POPC   C1A79371  39.455  11.257   6.352
 6354POPC   D2A79372  39.401  11.514   6.727
 6354POPC   C3A79373  39.424  11.374   7.162
 6354POPC   C4A79374  39.529  11.532   7.639
 6354POPC   C1B79375  39.028  10.949   6.325
 6354POPC   C2B79376  39.247  10.971   6.731
 6354POPC   C3B79377  39.144  10.893   7.128
 6354POPC   C4B79378  38.922  10.992   7.437
 6355POPC   NC379379  21.741  37.673   5.588
 6355POPC   PO479380  21.216  37.947   5.566
 6355POPC   GL179381  21.338  37.638   5.877
 6355POPC   GL279382  21.211  37.306   5.838
 6355POPC   C1A79383  21.534  37.477   6.230
 6355POPC   D2A79384  21.403  37.572   6.627
 6355POPC   C3A79385  21.340  37.497   7.038
 6355POPC   C4A79386  21.316  37.855   7.298
 6355POPC   C1B79387  21.031  37.399   6.262
 6355POPC   C2B79388  20.927  37.322   6.719
 6355POPC   C3B79389  20.892  37.292   7.173
 6355POPC   C4B79390  21.114  37.438   7.555
 6356POPC   NC379391   4.413  32.853   5.507
 6356POPC   PO479392   3.852  33.192   5.345
 6356POPC   GL179393   4.005  33.095   5.771
 6356POPC   GL279394   4.329  33.299   5.853
 6356POPC   C1A79395   4.166  32.932   6.176
 6356POPC   D2A79396   4.319  32.939   6.590
 6356POPC   C3A79397   4.221  33.253   6.887
 6356POPC   C4A79398   4.160  33.128   7.286
 6356POPC   C1B79399   4.635  33.205   6.232
 6356POPC   C2B79400   4.715  33.242   6.692
 6356POPC   C3B79401   4.603  32.943   7.043
 6356POPC   C4B79402   4.557  32.894   7.489
 6357POPC   NC379403   9.402  22.868   5.322
 6357POPC   PO479404   8.746  23.059   5.358
 6357POPC   GL179405   9.018  22.921   5.699
 6357POPC   GL279406   8.912  22.580   5.754
 6357POPC   C1A79407   8.995  23.051   6.140
 6357POPC   D2A79408   9.161  22.988   6.561
 6357POPC   C3A79409   9.030  23.279   6.882
 6357POPC   C4A79410   8.965  23.146   7.284
 6357POPC   C1B79411   8.811  22.564   6.175
 6357POPC   C2B79412   8.658  22.831   6.504
 6357POPC   C3B79413   8.823  22.801   6.929
 6357POPC   C4B79414   9.118  22.646   7.224
 6358POPC   NC379415  35.048  29.868   5.236
 6358POPC   PO479416  34.411  29.634   5.241
 6358POPC   GL179417  34.487  29.808   5.732
 6358POPC   GL279418  34.237  29.545   5.806
 6358POPC   C1A79419  34.614  30.089   6.150
 6358POPC   D2A79420  34.637  30.292   6.604
 6358POPC   C3A79421  34.381  30.096   6.919
 6358POPC   C4A79422  34.692  29.835   7.112
 6358POPC   C1B79423  34.284  29.701   6.202
 6358POPC   C2B79424  34.468  29.726   6.584
 6358POPC   C3B79425  34.297  29.575   6.966
 6358POPC   C4B79426  34.376  29.577   7.419
 6359W        W79427  43.513  13.887  11.899
 6360W        W79428  33.090  22.816   2.796
 6361W        W79429  15.787  36.030  11.624
 6362W        W79430  23.082  24.652   0.338
 6363W        W79431  17.164   4.256   4.391
 6364W        W79432  18.906   5.185  13.662
 6365W        W79433  32.663  36.982   4.207
 6366W        W79434   9.796   6.407  12.022
 6367W        W79435  41.509  22.496   1.429
 6368W        W79436  26.651  20.756   1.426
 6369W        W79437  40.490  23.448   0.355
 6370W        W79438   1.457  13.655   4.298
 6371W        W79439  33.987  27.772   4.585
 6372W        W79440  24.089  27.960   3.059
 6373W        W79441   9.029   2.329   0.090
 6374W        W79442  27.205  13.796   3.694
 6375W        W79443  11.592  37.829   3.639
 6376W        W79444  18.717   8.817  13.301
 6377W        W79445  29.104  39.494  13.361
 6378W        W79446  18.320  32.452  13.813
 6379W        W79447  39.251  29.620   1.259
 6380W        W79448  43.438   6.295   2.325
 6381W        W79449  22.180   7.150  12.117
 6382W        W79450  19.322   7.765  14.419
 6383W        W79451  17.280   2.228  10.510
 6384W        W79452  13.565   0.830  10.551
 6385W        W79453  11.207  42.521   2.970
 6386W        W79454  42.010  22.635   0.345
 6387W        W79455   0.436  37.060  13.551
 6388W        W79456  20.517  41.249  13.859
 6389W        W79457  28.501   3.375  14.240
 6390W        W79458   8.355  20.771   5.064
 6391W        W79459  28.553  31.979   3.395
 6392W        W79460   4.825  28.659   4.710
 6393W        W79461  41.038  44.799   0.270
 6394W        W79462   1.909  37.540  14.460
 6395W        W79463  10.349  38.910   1.398
 6396W        W79464  44.216  38.504   5.309
 6397W        W79465  34.403  11.604  10.317
 6398W        W79466  22.584  43.041   0.180
 6399W        W79467  39.539  14.279   3.774
 6400W        W79468  36.122  43.650  11.467
 6401W        W79469   4.940  25.095  14.825
 6402W        W79470  14.310  30.609   2.446
 6403W        W79471  18.728  27.271   2.678
 6404W        W79472  39.584   6.662   2.614
 6405W        W79473   2.048  10.704  14.884
 6406W        W79474  38.344   9.813   4.594
 6407W        W79475  22.546  20.659   2.167
 6408W        W79476  42.904  21.257  11.181
 6409W        W79477  40.329  40.427   4.184
 6410W        W79478  14.429  22.870   3.174
 6411W        W79479  28.599  40.514  13.890
 6412W        W79480  28.618  17.641   1.331
 6413W        W79481  14.671  28.084   1.709
 6414W        W79482  20.625  40.481   3.892
 6415W        W79483   5.984  13.878  12.362
 6416W        W79484  43.691  43.911  13.845
 6417W        W79485  41.773   6.867  10.702
 6418W        W79486  26.910   9.603  14.406
 6419W        W79487  30.052  34.533   3.038
 6420W        W79488  27.618  36.757   4.645
 6421W        W79489   7.601  15.599   4.418
 6422W        W79490  21.752  30.698   1.811
 6423W        W79491  42.044  22.638   3.630
 6424W        W79492  40.425  20.618   4.042
 6425W        W79493  11.388   4.248  10.660
 6426W        W79494  35.372  38.299  14.087
 6427W        W79495  33.348   8.197  12.791
 6428W        W79496  23.221  31.099   4.069
 6429W        W79497  39.612  39.990   0.397
 6430W        W79498  13.698  22.761  12.473
 6431W        W79499  26.631   3.552  13.101
 6432W        W79500  31.340  27.607   3.888
 6433W        W79501   7.008  13.818  10.928
 6434W        W79502   8.462  44.970  13.546
 6435W        W79503  34.524  31.667  10.729
 6436W        W79504  42.225  42.386   0.308
 6437W        W79505  24.265  11.391   2.751
 6438W        W79506  17.916   1.447   1.430
 6439W        W79507   8.011  29.054   1.736
 6440W        W79508  21.096  15.977   0.275
 6441W        W79509  31.634  16.524  11.125
 6442W        W79510  39.999  34.145   0.845
 6443W        W79511  13.719  29.905  14.827
 6444W        W79512  31.367   9.261   0.036
 6445W        W79513   4.173  41.374  12.133
 6446W        W79514  26.652  34.672  13.900
 6447W        W79515  22.949  42.937   3.689
 6448W        W79516   0.979   5.689   1.797
 6449W        W79517  13.089   2.994  13.423
 6450W        W79518   6.361  18.777  11.955
 6451W        W79519  15.190  13.502   3.412
 6452W        W79520  40.987  16.623  14.301
 6453W        W79521  21.896  30.164   0.688
 6454W        W79522  42.355  33.149  13.381
 6455W        W79523  41.186   3.212  13.062
 6456W        W79524  33.548  34.634  14.770
 6457W        W79525  35.414  40.881   3.758
 6458W        W79526  36.484  11.288   3.945
 6459W        W79527  27.109   0.477  11.772
 6460W        W79528  34.634  36.938   2.556
 6461W        W79529  21.624  27.598   4.351
 6462W        W79530   1.414   3.260   2.266
 6463W        W79531  13.843   2.997  14.468
 6464W        W79532   9.637  18.208  14.788
 6465W        W79533  29.584  31.146  12.977
 6466W        W79534  34.232  21.160  12.138
 6467W        W79535  32.466  17.788  10.475
 6468W        W79536  18.032  15.618   1.335
 6469W        W79537  19.756  38.270   0.546
 6470W        W79538   7.967  14.061  11.070
 6471W        W79539  28.652  42.432   4.730
 6472W        W79540  33.903  17.072   2.766
 6473W        W79541  35.612  19.236   2.837
 6474W        W79542  27.751  10.805  13.790
 6475W        W79543   9.229  22.106  13.498
 6476W        W79544  21.307  37.868  13.835
 6477W        W79545  27.599  25.199   2.309
 6478W        W79546  39.926   3.777  11.942
 6479W        W79547  39.069  44.903  10.278
 6480W        W79548  26.156  15.534   2.851
 6481W        W79549  20.630   5.753  11.935
 6482W        W79550  11.889  39.431   2.576
 6483W        W79551  17.694  11.716  12.917
 6484W        W79552   9.833  43.859  13.762
 6485W        W79553  38.583   4.715   3.129
 6486W        W79554  17.063  30.527   4.529
 6487W        W79555  34.670  39.756  12.508
 6488W        W79556  23.129  39.983   3.190
 6489W        W79557  37.394  32.016  12.052
 6490W        W79558  22.393  35.857  12.430
 6491W        W79559  12.805  29.742  11.931
 6492W        W79560  28.552  32.379   3.078
 6493W        W79561  27.198  15.269   4.530
 6494W        W79562   2.300  19.832  11.563
 6495W        W79563  33.554   4.663  12.061
 6496W        W79564  43.431  20.484  12.866
 6497W        W79565  22.059   1.538  11.145
 6498W        W79566  31.531  14.184  13.379
 6499W        W79567  27.869  43.823   0.621
 6500W        W79568  42.341  27.640   3.333
 6501W        W79569  18.262  35.905   4.326
 6502W        W79570  32.463   0.800   0.469
 6503W        W79571   7.636   3.429   1.508
 6504W        W79572  23.618   4.364  12.272
 6505W        W79573  28.711  41.901   2.213
 6506W        W79574  19.112  28.344   2.163
 6507W        W79575  31.924  44.707  14.924
 6508W        W79576  41.009  40.285   2.132
 6509W        W79577  44.070   1.357   4.678
 6510W        W79578  38.794  30.928   1.610
 6511W        W79579  19.805   9.140  11.624
 6512W        W79580  12.280  19.656   2.559
 6513W        W79581  39.219  25.173   1.161
 6514W        W79582  24.077  34.566  11.856
 6515W        W79583   0.286  36.342   3.287
 6516W        W79584  34.458  14.142   2.349
 6517W        W79585  11.836  31.343  10.633
 6518W        W79586  41.419   8.219  10.836
 6519W        W79587  39.082  34.304   4.103
 6520W        W79588  34.897  17.720   4.139
 6521W        W79589  43.540  27.867  11.476
 6522W        W79590   8.873  44.834  13.886
 6523W        W79591  10.265  24.778  11.049
 6524W        W79592  41.573  21.026   2.406
 6525W        W79593  42.518  17.792   1.548
 6526W        W79594  11.325  23.541  13.878
 6527W        W79595  27.940   2.551  14.541
 6528W        W79596  31.003   6.541   0.990
 6529W        W79597  15.873  33.551   4.552
 6530W        W79598  11.211   9.300  12.541
 6531W        W79599   4.799   4.793   5.096
 6532W        W79600   6.278  42.130   0.865
 6533W        W79601  16.887   3.320  13.650
 6534W        W79602  37.169  14.592   3.650
 6535W        W79603  16.542  36.784   2.289
 6536W        W79604  27.407  31.330  13.813
 6537W        W79605   8.962  12.334  13.988
 6538W        W79606   1.133  41.107  11.964
 6539W        W79607  34.558   6.175   3.671
 6540W        W79608   3.303  34.363   4.911
 6541W        W79609  26.286   7.284  11.139
 6542W        W79610  27.777   5.326   4.155
 6543W        W79611   0.339  20.355   3.508
 6544W        W79612  11.318  28.536  12.071
 6545W        W79613  31.952  31.924  14.802
 6546W        W79614  38.359  44.549  12.844
 6547W        W79615  29.086   0.976  12.912
 6548W        W79616  40.616  28.560  13.501
 6549W        W79617  19.520  29.468  13.025
 6550W        W79618  25.365  15.759  14.752
 6551W        W79619  17.969  17.418  11.093
 6552W        W79620  10.678  32.580   3.638
 6553W        W79621   9.892  40.489   3.308
 6554W        W79622  21.068  20.045   0.748
 6555W        W79623  34.157  26.116   0.345
 6556W        W79624  11.130  38.005   3.818
 6557W        W79625  15.380  31.927  11.048
 6558W        W79626  36.954  24.547  11.222
 6559W        W79627  16.152   1.063   1.802
 6560W        W79628  32.765  38.007  14.352
 6561W        W79629  32.398  37.035  12.921
 6562W        W79630  15.850   1.316  14.784
 6563W        W79631  31.878  19.261  11.154
 6564W        W79632   1.304  15.924  13.823
 6565W        W79633  35.673  39.576   1.348
 6566W        W79634  23.615  26.485  14.096
 6567W        W79635  13.023  21.097  11.195
 6568W        W79636  39.825  28.496   2.893
 6569W        W79637   5.455  16.359   1.357
 6570W        W79638  28.037  17.971  11.956
 6571W        W79639  36.316  44.007   0.479
 6572W        W79640  29.570   8.275   3.627
 6573W        W79641  25.547  34.340   3.302
 6574W        W79642  18.220  34.950  13.014
 6575W        W79643  10.460  35.117  11.179
 6576W        W79644  25.059  39.161   4.564
 6577W        W79645   7.985   8.677   2.380
 6578W        W79646  33.098  19.579  10.738
 6579W        W79647   8.448   0.833  13.680
 6580W        W79648  35.172   7.322  12.451
 6581W        W79649  12.022  17.956  10.642
 6582W        W79650  16.946  35.127  10.342
 6583W        W79651   5.157  12.637  12.924
 6584W        W79652   5.706  34.125   4.210
 6585W        W79653  14.704  18.845   1.268
 6586W        W79654  34.506  43.558  13.942
 6587W        W79655  39.765  43.257  12.598
 6588W        W79656  36.022   2.484  13.843
 6589W        W79657   7.392  30.428  12.848
 6590W        W79658  15.562   7.916   4.137
 6591W        W79659   3.248  36.377   4.380
 6592W        W79660  28.898  37.128  13.882
 6593W        W79661  43.387  39.877   1.676
 6594W        W79662  21.762  37.880   3.071
 6595W        W79663  24.775  23.199   1.203
 6596W        W79664  19.535  10.194  10.456
 6597W        W79665  30.046  32.409  12.596
 6598W        W79666  28.561  20.141  12.034
 6599W        W79667  18.117   1.927   2.822
 6600W        W79668   1.293  31.685   0.404
 6601W        W79669   2.376  23.755   1.168
 6602W        W79670  31.398   1.229  13.498
 6603W        W79671   1.914  33.273   4.605
 6604W        W79672  23.657  17.126   4.017
 6605W        W79673  21.753   1.377  13.388
 6606W        W79674  16.689  16.972  10.641
 6607W        W79675  33.127  27.270  14.497
 6608W        W79676  27.619  18.678  14.294
 6609W        W79677   8.351  13.648   1.507
 6610W        W79678  25.541  40.517   1.329
 6611W        W79679  14.269  26.428  12.923
 6612W        W79680  14.694  35.533   2.717
 6613W        W79681  34.171  37.990  14.975
 6614W        W79682  20.092  36.998   0.793
 6615W        W79683  37.125  21.103  10.942
 6616W        W79684   8.901   6.019   2.738
 6617W        W79685  32.639  10.441   0.407
 6618W        W79686  36.930  24.644   1.386
 6619W        W79687  30.772   8.472   2.831
 6620W        W79688  30.229  26.079   1.475
 6621W        W79689  28.498  29.750   0.736
 6622W        W79690   4.440  10.789  12.376
 6623W        W79691   9.570  27.221   2.924
 6624W        W79692  21.756  33.288   3.772
 6625W        W79693   8.395   9.139  11.135
 6626W        W79694   3.300   0.154  14.049
 6627W        W79695  12.347  43.796  13.376
 6628W        W79696  39.476   8.882   1.273
 6629W        W79697  26.706   2.714  14.299
 6630W        W79698  36.290  16.186  13.998
 6631W        W79699  16.327   6.708   3.168
 6632W        W79700  21.444  41.272  10.666
 6633W        W79701  17.752   7.201  13.396
 6634W        W79702   9.298  28.783   1.809
 6635W        W79703  15.783  38.596  14.963
 6636W        W79704  41.400  22.254   3.250
 6637W        W79705  42.121   5.872   2.915
 6638W        W79706   4.935  27.085  14.974
 6639W        W79707  22.748   3.929   1.774
 6640W        W79708  30.481   8.747   2.460
 6641W        W79709  24.187   1.453  12.648
 6642W        W79710  12.331  34.421   1.315
 6643W        W79711  32.542  31.828   0.306
 6644W        W79712  36.000   7.268   1.232
 6645W        W79713  19.101  43.781  11.059
 6646W        W79714   8.818   1.059  11.534
 6647W        W79715  39.899  20.262   0.877
 6648W        W79716   5.297  16.705  14.625
 6649W        W79717  38.749  18.604  10.922
 6650W        W79718   1.395  20.794   4.626
 6651W        W79719  13.969   4.626  11.547
 6652W        W79720  40.989   3.738  11.070
 6653W        W79721  40.800  42.885  10.726
 6654W        W79722   7.947  21.282  14.986
 6655W        W79723   2.974  24.799  11.547
 6656W        W79724  32.065  10.730  10.786
 6657W        W79725  10.882   4.416  13.448
 6658W        W79726  18.227  35.380  10.906
 6659W        W79727  12.871  14.122  12.104
 6660W        W79728  21.830  34.613  14.932
 6661W        W79729  34.971  35.368   0.921
 6662W        W79730  41.494  14.426  14.420
 6663W        W79731   1.809   1.685  12.618
 6664W        W79732   7.771  11.114  11.178
 6665W        W79733   7.547  36.674  13.919
 6666W        W79734   1.160  17.074  12.136
 6667W        W79735   6.706  16.045  14.097
 6668W        W79736  22.188   0.511   3.256
 6669W        W79737   8.205  14.678  11.043
 6670W        W79738  40.965  11.218   0.294
 6671W        W79739  10.614   9.373   2.669
 6672W        W79740   7.296  23.704  10.734
 6673W        W79741  10.183  11.214  13.576
 6674W        W79742  19.193  39.509   1.725
 6675W        W79743  15.639  38.351   3.263
 6676W        W79744  33.630  40.528   0.400
 6677W        W79745  39.088   6.930  13.062
 6678W        W79746  25.492  39.402   3.917
 6679W        W79747  16.592   3.095   0.987
 6680W        W79748  43.690   6.499   1.855
 6681W        W79749  32.888  30.556   3.839
 6682W        W79750  42.378   1.169   2.493
 6683W        W79751   1.570  21.212   3.780
 6684W        W79752   4.654   2.434   3.077
 6685W        W79753  33.764  26.610  12.684
 6686W        W79754  16.574  38.803  13.279
 6687W        W79755  16.165  23.246  12.498
 6688W        W79756  38.652  11.537   4.935
 6689W        W79757  21.285  17.493  11.445
 6690W        W79758   1.372   9.688   4.243
 6691W        W79759  42.861   5.230  10.753
 6692W        W79760   9.325  19.067  11.645
 6693W        W79761  41.709  28.570   2.814
 6694W        W79762  20.986  43.803   2.860
 6695W        W79763  18.440   8.348   1.970
 6696W        W79764  17.267  26.799   4.529
 6697W        W79765  22.547  37.838  14.974
 6698W        W79766  44.851   8.866   1.462
 6699W        W79767  32.962  29.701   2.149
 6700W        W79768  27.603  34.113  11.281
 6701W        W79769  20.779  39.515  11.049
 6702W        W79770   3.440   1.009   1.511
 6703W        W79771   9.440  14.916  13.905
 6704W        W79772  10.912  14.542  14.847
 6705W        W79773  29.567   3.126  12.555
 6706W        W79774  16.368  33.019   3.256
 6707W        W79775  21.470  39.964   0.287
 6708W        W79776  33.603  19.698  13.295
 6709W        W79777  11.067  20.782  14.391
 6710W        W79778   3.314  30.465   4.641
 6711W        W79779  41.003  38.119   0.915
 6712W        W79780   0.299  17.081  11.661
 6713W        W79781  22.980  12.364  14.005
 6714W        W79782  24.946  18.168   3.671
 6715W        W79783   6.834  33.173  13.807
 6716W        W79784  12.821  41.511   2.562
 6717W        W79785  41.858   9.814   3.411
 6718W        W79786   3.475  20.637  14.369
 6719W        W79787  29.836  28.527  13.825
 6720W        W79788  44.513  13.302  11.525
 6721W        W79789  22.940  16.528  10.259
 6722W        W79790  27.085   4.695  14.690
 6723W        W79791  10.233  30.150   2.153
 6724W        W79792  24.247  19.630  12.795
 6725W        W79793  11.557  33.174  11.850
 6726W        W79794  15.142   2.658   2.183
 6727W        W79795  43.519  22.775  13.464
 6728W        W79796  35.751  42.617   0.413
 6729W        W79797   5.260   5.874  14.316
 6730W        W79798  38.989  25.126   2.404
 6731W        W79799  36.012  20.108   0.867
 6732W        W79800  25.640   5.677  12.560
 6733W        W79801   1.788  25.316   3.918
 6734W        W79802  41.249  20.674   3.434
 6735W        W79803  30.583  38.926   1.314
 6736W        W79804  27.128   8.879   2.600
 6737W        W79805  11.866  22.336  14.845
 6738W        W79806  37.578   1.744  14.872
 6739W        W79807  16.786   8.565   1.376
 6740W        W79808   7.294  36.316  14.230
 6741W        W79809  37.643  13.251   1.256
 6742W        W79810   5.853  43.910  14.942
 6743W        W79811  43.482  18.292  12.035
 6744W        W79812  14.942  16.051  11.994
 6745W        W79813  16.561  41.612   4.806
 6746W        W79814  27.611  20.681  14.420
 6747W        W79815  27.034   1.059   0.519
 6748W        W79816  28.202  24.151   1.553
 6749W        W79817  12.731   7.732   3.926
 6750W        W79818  27.624  27.829   2.265
 6751W        W79819  15.301  36.859  10.721
 6752W        W79820   1.486  22.986  11.489
 6753W        W79821   1.971  40.845   3.370
 6754W        W79822  10.679  11.364  14.793
 6755W        W79823  13.124  18.287  12.361
 6756W        W79824  44.281  16.090   3.844
 6757W        W79825   7.381  14.933  13.604
 6758W        W79826   8.308   2.335   3.225
 6759W        W79827  11.926   5.706  10.567
 6760W        W79828  43.429   5.409  10.349
 6761W        W79829  33.654  36.645   2.699
 6762W        W79830  18.068  12.920  11.838
 6763W        W79831   8.740  15.790  14.687
 6764W        W79832  20.205  16.093   0.839
 6765W        W79833  28.999  36.971  12.422
 6766W        W79834  25.989   2.576  12.106
 6767W        W79835   4.506  28.701   2.104
 6768W        W79836  41.844  32.363   2.349
 6769W        W79837  17.276  11.481   2.808
 6770W        W79838  33.138  43.875  10.778
 6771W        W79839   7.887   7.071  10.606
 6772W        W79840  14.856  11.035  13.483
 6773W        W79841  26.266   8.934   0.772
 6774W        W79842  29.101  11.119   1.475
 6775W        W79843   1.797  41.291  14.064
 6776W        W79844   0.478  19.550  12.818
 6777W        W79845  36.867  14.157   4.295
 6778W        W79846  36.150  31.035   0.907
 6779W        W79847   8.050  35.899   0.445
 6780W        W79848  19.632  42.925   3.793
 6781W        W79849  12.750  12.917   2.922
 6782W        W79850  17.549  38.412   4.208
 6783W        W79851   3.446  30.513  12.480
 6784W        W79852  18.331  18.634  13.834
 6785W        W79853  40.149  31.126  11.947
 6786W        W79854  31.085  23.028  14.364
 6787W        W79855  12.102  15.035  14.784
 6788W        W79856  15.153  25.070  14.955
 6789W        W79857  23.983  36.953   3.262
 6790W        W79858  10.688  20.367   3.695
 6791W        W79859  34.765  22.384  11.693
 6792W        W79860   3.308   6.458   1.708
 6793W        W79861   2.885  16.661   4.000
 6794W        W79862  39.987  20.004   1.319
 6795W        W79863   8.393  41.518  12.574
 6796W        W79864  22.042   1.789  14.896
 6797W        W79865   1.369   6.956   1.710
 6798W        W79866  31.497   0.347  13.569
 6799W        W79867  15.232  31.181   3.470
 6800W        W79868  24.499  35.411  12.389
 6801W        W79869  44.447  12.076   2.681
 6802W        W79870  40.038  35.914   2.322
 6803W        W79871  28.133  30.218   3.437
 6804W        W79872  10.217  18.068   1.491
 6805W        W79873  18.793  15.774   0.575
 6806W        W79874  10.121  17.330  14.783
 6807W        W79875   1.804  35.777   2.367
 6808W        W79876  17.267  21.918  12.502
 6809W        W79877   1.312  41.584  11.969
 6810W        W79878  37.444  12.545  14.407
 6811W        W79879  36.576   7.244  14.302
 6812W        W79880   6.277  44.510   1.020
 6813W        W79881   2.772  14.544  14.498
 6814W        W79882  40.942  16.786   4.276
 6815W        W79883  27.455  32.416   3.593
 6816W        W79884   9.152  25.512   3.286
 6817W        W79885  15.873  28.857  13.528
 6818W        W79886  29.492  33.343   3.283
 6819W        W79887  44.715  41.937  12.560
 6820W        W79888   6.890   6.304  14.329
 6821W        W79889  15.110  41.570  13.563
 6822W        W79890  23.313  16.123   4.460
 6823W        W79891  17.808   9.176  11.520
 6824W        W79892  19.695  21.921  12.760
 6825W        W79893   6.986   1.845  12.521
 6826W        W79894  24.002  20.424  13.296
 6827W        W79895   9.623   9.034  11.456
 6828W        W79896  27.834  18.653  14.929
 6829W        W79897  24.757   6.916   1.450
 6830W        W79898  10.609  17.080  12.989
 6831W        W79899  21.501  16.597  14.008
 6832W        W79900  18.582  42.440  12.453
 6833W        W79901  25.724  44.311   0.365
 6834W        W79902   6.433  28.223  10.360
 6835W        W79903  35.110  40.361  11.883
 6836W        W79904   4.447  24.456  12.023
 6837W        W79905  23.149  43.325  10.982
 6838W        W79906  15.343  42.354  13.905
 6839W        W79907  36.318  33.506  12.600
 6840W        W79908  23.308  15.757   3.736
 6841W        W79909  30.598  41.024   1.172
 6842W        W79910  31.396  40.186  11.054
 6843W        W79911  29.998  43.819  14.267
 6844W        W79912  43.021   6.766  14.394
 6845W        W79913  15.178  38.731   1.196
 6846W        W79914  35.438   9.711   3.746
 6847W        W79915   9.894  13.655   1.227
 6848W        W79916  35.633  39.413  12.568
 6849W        W79917  18.158   1.261  11.295
 6850W        W79918   9.165  14.752   3.223
 6851W        W79919  33.354  14.514   0.489
 6852W        W79920  16.591  43.009   2.115
 6853W        W79921  31.366  13.668  14.544
 6854W        W79922  40.681   5.775  13.744
 6855W        W79923  12.339  21.323   4.187
 6856W        W79924  18.641  35.772  12.376
 6857W        W79925  27.600  30.160   1.325
 6858W        W79926  36.576  38.766  13.551
 6859W        W79927  21.780  12.229  11.201
 6860W        W79928  19.235  41.010   1.888
 6861W        W79929  25.558  19.943   5.060
 6862W        W79930  40.958   1.405   0.355
 6863W        W79931  12.265  43.711   3.796
 6864W        W79932  34.612  31.384   1.888
 6865W        W79933  36.211  39.141   4.313
 6866W        W79934  19.949   9.838   3.240
 6867W        W79935  12.335  30.218  14.307
 6868W        W79936  10.744  31.519   0.345
 6869W        W79937  36.591   3.881   0.940
 6870W        W79938  40.567  34.819  10.394
 6871W        W79939  11.270  43.622  14.020
 6872W        W79940   9.767  44.209  13.305
 6873W        W79941  43.170   9.325   4.562
 6874W        W79942  41.129  40.337   2.652
 6875W        W79943  24.203   9.188  11.961
 6876W        W79944   5.536   9.702   3.228
 6877W        W79945   7.114  17.117   4.781
 6878W        W79946  11.698  15.157   4.101
 6879W        W79947  34.418   9.372   2.808
 6880W        W79948  21.246   3.417   1.499
 6881W        W79949  31.948  42.549  12.798
 6882W        W79950  21.012  24.446  10.915
 6883W        W79951   3.343  31.197  10.668
 6884W        W79952  27.573  34.201   2.214
 6885W        W79953  24.480  27.002  10.602
 6886W        W79954   9.180  28.854  10.701
 6887W        W79955  38.490  13.872   0.652
 6888W        W79956  24.739  36.635   2.889
 6889W        W79957  25.873  31.726  13.353
 6890W        W79958  31.343  35.672   3.386
 6891W        W79959  17.280  18.720   2.652
 6892W        W79960  39.046  29.883  14.932
 6893W        W79961   2.328   7.881   0.042
 6894W        W79962  14.947  35.868  12.869
 6895W        W79963   1.873  22.298  11.850
 6896W        W79964  36.362  44.573   1.345
 6897W        W79965  10.754  21.200  14.435
 6898W        W79966  11.792  25.079   1.199
 6899W        W79967   8.990   1.022  12.476
 6900W        W79968   7.235   3.264  10.978
 6901W        W79969   0.921   2.694  12.386
 6902W        W79970  24.020   0.908  11.466
 6903W        W79971  29.701  12.266   0.382
 6904W        W79972   2.227  37.643  14.907
 6905W        W79973   1.553  18.731   0.911
 6906W        W79974  44.976  32.849  11.329
 6907W        W79975  24.145  35.205   4.130
 6908W        W79976  44.936  15.533   2.197
 6909W        W79977  40.222   0.587  11.618
 6910W        W79978  24.147   2.377   1.070
 6911W        W79979  26.975   5.651  14.376
 6912W        W79980  35.482  31.871  10.232
 6913W        W79981  10.375  41.138  12.375
 6914W        W79982  25.163  34.604  10.610
 6915W        W79983   7.707  11.031   4.709
 6916W        W79984  41.575  12.480   0.704
 6917W        W79985  44.335  28.723  12.112
 6918W        W79986  35.195  32.083   4.164
 6919W        W79987  35.150   0.706  10.606
 6920W        W79988   0.762   4.057  13.836
 6921W        W79989  31.660  40.721   0.298
 6922W        W79990  10.783  12.262  12.847
 6923W        W79991   9.585  32.554   4.736
 6924W        W79992  35.920  12.770  14.665
 6925W        W79993  24.528  32.487  12.423
 6926W        W79994  31.193  34.052  13.801
 6927W        W79995   6.447  15.484  10.654
 6928W        W79996  11.760  19.013  14.908
 6929W        W79997  30.392   3.399  10.785
 6930W        W79998  18.299  12.751   4.112
 6931W        W79999  41.818  38.391   0.697
 6932W        W80000  30.894  44.361  10.383
 6933W        W80001  33.484  13.181   0.804
 6934W        W80002  29.546  21.564  10.748
 6935W        W80003  43.450  30.655  11.994
 6936W        W80004   1.709  21.329   1.780
 6937W        W80005   5.377  41.057   3.843
 6938W        W80006  30.599   6.926   4.556
 6939W        W80007  35.984   7.744  10.888
 6940W        W80008  29.544  22.030   2.134
 6941W        W80009  17.668  12.878   1.475
 6942W        W80010  38.239  13.616   2.733
 6943W        W80011  10.768  38.066   0.397
 6944W        W80012  26.537  13.808   1.916
 6945W        W80013  29.285   2.562   1.832
 6946W        W80014  25.562  17.213  10.747
 6947W        W80015  20.297   6.210   1.622
 6948W        W80016  13.118  21.606  13.809
 6949W        W80017   5.371   9.366  13.078
 6950W        W80018   4.235  13.405  13.546
 6951W        W80019  32.965  33.464  14.867
 6952W        W80020  31.563  17.321   0.457
 6953W        W80021  31.364  19.199   4.698
 6954W        W80022  26.980   1.108   1.434
 6955W        W80023  18.721  32.969   0.841
 6956W        W80024   8.391  38.493   4.582
 6957W        W80025  17.417  37.120   1.343
 6958W        W80026   5.689  35.590  12.987
 6959W        W80027   8.936   9.283   3.700
 6960W        W80028  13.342  26.712   4.517
 6961W        W80029   9.346  25.648   2.820
 6962W        W80030   7.823   3.335  11.102
 6963W        W80031  36.053  36.051   4.307
 6964W        W80032   4.841  10.445   4.157
 6965W        W80033  16.775  23.044   0.223
 6966W        W80034  37.125  26.708   3.251
 6967W        W80035  10.300  23.539  14.402
 6968W        W80036  17.506  44.540   0.251
 6969W        W80037  41.780  30.381   0.966
 6970W        W80038   3.744  20.992  12.905
 6971W        W80039  38.150  15.731  14.273
 6972W        W80040   2.890  26.179  14.868
 6973W        W80041  44.024   9.086   0.925
 6974W        W80042  37.843   6.313  12.619
 6975W        W80043  27.583  33.866   3.219
 6976W        W80044  39.834  38.622   1.788
 6977W        W80045  33.615  19.267  12.995
 6978W        W80046  42.573  18.492   3.257
 6979W        W80047  43.661  40.918   0.417
 6980W        W80048  13.367  36.829   4.816
 6981W        W80049   5.733  18.071   0.017
 6982W        W80050  20.980  33.567  14.461
 6983W        W80051   5.242  34.851   4.841
 6984W        W80052  37.843   7.659   1.294
 6985W        W80053  42.230  32.883  11.366
 6986W        W80054  17.426  14.347   4.527
 6987W        W80055  15.183  11.332   0.945
 6988W        W80056  38.975  18.499  10.463
 6989W        W80057  11.097  11.884   1.784
 6990W        W80058   5.767  15.130   0.918
 6991W        W80059   6.803  17.082   1.444
 6992W        W80060  16.235  23.450   5.026
 6993W        W80061  32.358  38.248   2.755
 6994W        W80062  35.027  34.059   4.967
 6995W        W80063   5.090   7.102  11.701
 6996W        W80064  19.640   9.783  13.369
 6997W        W80065  20.155  37.003  11.501
 6998W        W80066  21.001  40.351  13.996
 6999W        W80067   6.921  18.171  11.137
 7000W        W80068  35.889   5.363   3.288
 7001W        W80069  13.143  12.387   5.171
 7002W        W80070  38.609  23.902   3.138
 7003W        W80071  38.484   5.743   3.991
 7004W        W80072  44.504  30.512   2.260
 7005W        W80073  25.580  44.941   3.122
 7006W        W80074  39.180   9.876  11.439
 7007W        W80075  20.444  42.635   0.454
 7008W        W80076  20.195  12.569   1.351
 7009W        W80077  40.044  29.102   4.155
 7010W        W80078   4.414  36.519  12.418
 7011W        W80079  13.347   8.738   4.546
 7012W        W80080  40.650  44.517   0.464
 7013W        W80081  14.151  25.748   1.485
 7014W        W80082  31.969  35.534   0.174
 7015W        W80083  12.352  24.499   4.194
 7016W        W80084   4.769   2.364   4.030
 7017W        W80085  39.998  15.887  13.735
 7018W        W80086  17.318  26.455  12.406
 7019W        W80087  41.922  26.819  12.028
 7020W        W80088  14.808  37.434  13.374
 7021W        W80089  21.754  39.794   3.164
 7022W        W80090   6.611  20.893   2.773
 7023W        W80091  43.905  15.519   3.240
 7024W        W80092  42.477  20.565   3.150
 7025W        W80093  31.162  35.706   2.576
 7026W        W80094  38.330  33.017  11.274
 7027W        W80095   3.528  38.466  10.825
 7028W        W80096  35.581  25.011  11.040
 7029W        W80097  18.768  15.368  12.555
 7030W        W80098   7.844   4.638  11.640
 7031W        W80099  23.656  21.770  12.015
 7032W        W80100   7.794  36.478   0.907
 7033W        W80101  44.387  31.901  12.491
 7034W        W80102  16.868  16.545   4.560
 7035W        W80103  21.040   5.091   4.975
 7036W        W80104  25.142   4.466  12.815
 7037W        W80105   7.823  33.957   2.295
 7038W        W80106  14.845  29.243  10.498
 7039W        W80107  35.584  40.293  14.397
 7040W        W80108   3.312  39.659   0.241
 7041W        W80109  10.557   5.907   4.070
 7042W        W80110  30.411  37.925  14.733
 7043W        W80111   3.724  24.929  13.284
 7044W        W80112  26.884  34.029   3.550
 7045W        W80113  11.033  24.623   0.543
 7046W        W80114  30.885  18.725   0.019
 7047W        W80115  37.439  11.834   4.638
 7048W        W80116  29.088  35.087   1.210
 7049W        W80117  11.975  32.468   1.382
 7050W        W80118  38.037  24.676   1.490
 7051W        W80119   0.890  28.595  10.495
 7052W        W80120  40.947  32.430   1.670
 7053W        W80121  24.698  23.439  13.337
 7054W        W80122   0.582  32.824   0.955
 7055W        W80123  34.009  25.800   0.774
 7056W        W80124   8.252  33.932  12.712
 7057W        W80125  12.966  32.868  11.964
 7058W        W80126  31.569  39.730   0.284
 7059W        W80127  36.461  40.472   0.834
 7060W        W80128  33.544   0.855  12.517
 7061W        W80129  33.545  16.183  14.902
 7062W        W80130  41.999  32.490   0.449
 7063W        W80131  31.341  43.570  13.243
 7064W        W80132  33.820   9.243  14.393
 7065W        W80133  33.553  17.731  11.843
 7066W        W80134   9.147  27.414   4.193
 7067W        W80135  25.178  26.964   1.281
 7068W        W80136  36.002  33.173   1.424
 7069W        W80137  38.550   0.848   0.789
 7070W        W80138  38.733  27.773  14.809
 7071W        W80139  44.073  15.762   2.368
 7072W        W80140  26.449  29.969  12.072
 7073W        W80141  35.514  32.390  11.896
 7074W        W80142  33.431  39.368   4.622
 7075W        W80143  19.720  40.232  12.149
 7076W        W80144   0.318  34.320  12.814
 7077W        W80145   3.323  19.772   1.882
 7078W        W80146  28.736  12.232  12.456
 7079W        W80147  23.291  28.337  11.594
 7080W        W80148  15.329  39.504   4.592
 7081W        W80149  31.663  33.384  13.499
 7082W        W80150  12.619  37.282   1.681
 7083W        W80151  28.398  22.455   4.380
 7084W        W80152  37.463  36.445   4.142
 7085W        W80153  29.403  11.062  14.965
 7086W        W80154   3.244   7.356   4.222
 7087W        W80155  29.161  22.243  11.113
 7088W        W80156  33.443   2.791   3.344
 7089W        W80157  38.802   2.889   0.427
 7090W        W80158  17.822  10.227  11.666
 7091W        W80159  11.282   4.923  11.268
 7092W        W80160   4.363  42.511   2.564
 7093W        W80161  25.205  32.574  14.156
 7094W        W80162  20.254   7.102  13.768
 7095W        W80163  32.448   1.170   3.776
 7096W        W80164  34.857  42.597   4.569
 7097W        W80165  21.943  42.775   3.667
 7098W        W80166  28.048  34.129   4.338
 7099W        W80167  30.132  14.108   1.827
 7100W        W80168   8.886  44.305   3.087
 7101W        W80169  42.771  37.646  10.293
 7102W        W80170  41.899  12.572  11.500
 7103W        W80171  28.993  33.785   2.546
 7104W        W80172  32.918  11.149   4.413
 7105W        W80173  44.512  13.080  13.885
 7106W        W80174  14.114  35.662  14.918
 7107W        W80175  19.020   0.522   3.333
 7108W        W80176  18.660  24.643   1.876
 7109W        W80177  41.078  36.398  14.321
 7110W        W80178   5.843  15.024  12.283
 7111W        W80179  14.054  12.638  11.218
 7112W        W80180  29.574   5.338   3.783
 7113W        W80181  25.220   6.630  11.855
 7114W        W80182  28.375   0.368   3.162
 7115W        W80183  26.722  13.150   1.176
 7116W        W80184   0.328  22.985  10.884
 7117W        W80185  23.264  16.535  13.550
 7118W        W80186  18.284  42.021  14.922
 7119W        W80187  44.450   2.420   1.742
 7120W        W80188  17.566   2.945  10.416
 7121W        W80189  19.225  27.188  12.406
 7122W        W80190   6.706  34.760  11.630
 7123W        W80191  34.313   8.452  11.181
 7124W        W80192  32.023  13.011  12.811
 7125W        W80193  25.161  25.169  12.311
 7126W        W80194  43.367  20.651   0.651
 7127W        W80195  16.091  11.105   0.405
 7128W        W80196  37.482  24.317  14.540
 7129W        W80197  38.050  41.347   4.721
 7130W        W80198  27.770  11.788  13.636
 7131W        W80199   3.422  25.519   0.250
 7132W        W80200  23.104  35.495  11.864
 7133W        W80201  10.750  28.807   4.909
 7134W        W80202  37.918  14.958   0.437
 7135W        W80203   6.931  26.957   0.993
 7136W        W80204  23.169  12.920  11.028
 7137W        W80205  34.346  34.482  12.499
 7138W        W80206  34.839  12.518  11.261
 7139W        W80207  38.436  38.977  10.488
 7140W        W80208  37.585  16.781  12.472
 7141W        W80209  42.329  25.419   2.325
 7142W        W80210  19.873  13.848  12.123
 7143W        W80211  17.379  13.152   0.481
 7144W        W80212  16.253  12.166   3.553
 7145W        W80213  38.658  40.965  12.962
 7146W        W80214  44.439  23.135   0.284
 7147W        W80215   6.966  39.272  13.035
 7148W        W80216  30.327   8.181   0.812
 7149W        W80217  24.158  26.477  14.013
 7150W        W80218  42.685   7.892  13.502
 7151W        W80219  12.296  31.602  14.314
 7152W        W80220  30.943   9.365   4.925
 7153W        W80221  35.525  36.885   3.634
 7154W        W80222  20.570  42.854  11.727
 7155W        W80223  11.379  10.303   2.369
 7156W        W80224   5.187  26.958   3.391
 7157W        W80225  27.850  31.045   4.365
 7158W        W80226  20.574   5.287  11.699
 7159W        W80227  43.627  28.959  12.181
 7160W        W80228   4.804  31.403   4.182
 7161W        W80229  34.968  17.197   4.111
 7162W        W80230  15.883   8.717   1.297
 7163W        W80231  24.202   7.945   5.014
 7164W        W80232  27.963  31.112   3.867
 7165W        W80233  10.647  23.711  14.733
 7166W        W80234  11.134  44.474  14.315
 7167W        W80235  12.362  24.400   1.385
 7168W        W80236  15.028  15.520   3.082
 7169W        W80237  16.770  41.124   4.705
 7170W        W80238   3.021  15.719   3.693
 7171W        W80239  10.202   4.620  12.772
 7172W        W80240  17.719  26.609  10.038
 7173W        W80241  25.699  44.832   0.334
 7174W        W80242  24.544  26.742  13.705
 7175W        W80243  13.277  33.403   2.871
 7176W        W80244  15.812  22.824   1.070
 7177W        W80245  25.592  40.723  14.558
 7178W        W80246   4.471  20.647   2.404
 7179W        W80247  36.422   8.094  14.500
 7180W        W80248  28.056  12.934  11.068
 7181W        W80249  20.715  22.788   4.602
 7182W        W80250  26.492   8.855   1.287
 7183W        W80251   9.513   0.730   0.902
 7184W        W80252  29.917   8.605  13.534
 7185W        W80253  24.673  22.185  13.054
 7186W        W80254  41.305  36.982   1.803
 7187W        W80255  42.207  22.972   0.931
 7188W        W80256  31.048  17.384  11.047
 7189W        W80257  20.279   4.894   2.352
 7190W        W80258  25.366  33.887  11.096
 7191W        W80259   9.808   5.364   3.160
 7192W        W80260   1.320  15.616   0.265
 7193W        W80261  34.310  16.415  11.584
 7194W        W80262  40.723  37.878   4.113
 7195W        W80263  23.943   9.222   4.100
 7196W        W80264   9.513  26.408   0.372
 7197W        W80265  11.808  13.348   3.148
 7198W        W80266   5.002  31.729   4.593
 7199W        W80267  37.493  11.976   0.654
 7200W        W80268  24.707  37.086  11.528
 7201W        W80269   3.631  10.324  12.539
 7202W        W80270  10.888  32.601  11.652
 7203W        W80271   7.728   6.397  12.926
 7204W        W80272  26.942  18.728   4.885
 7205W        W80273  39.381  40.070  13.995
 7206W        W80274  27.031  32.688  11.171
 7207W        W80275  37.184  41.561   3.192
 7208W        W80276   7.125  11.729  12.469
 7209W        W80277  26.406   1.175  11.979
 7210W        W80278  43.014  40.393  11.760
 7211W        W80279  39.021   8.155  14.231
 7212W        W80280   7.868  20.365   4.677
 7213W        W80281  11.382  16.645  10.943
 7214W        W80282   5.217   6.488   0.685
 7215W        W80283  15.492   7.710   1.108
 7216W        W80284   2.205  14.795   2.898
 7217W        W80285   2.866   9.819   2.613
 7218W        W80286  44.798  29.538   2.669
 7219W        W80287  15.612  26.215   1.731
 7220W        W80288   1.915  14.375   0.809
 7221W        W80289  10.672  34.315   0.692
 7222W        W80290  38.396  19.249  12.413
 7223W        W80291  41.546  34.049  14.863
 7224W        W80292   6.128  15.644  14.441
 7225W        W80293   6.806  33.887  11.221
 7226W        W80294  12.695  13.715   0.447
 7227W        W80295   6.349  43.275  14.960
 7228W        W80296   7.636  13.560  13.451
 7229W        W80297  13.848   5.317   0.041
 7230W        W80298  21.729  39.534   0.220
 7231W        W80299  38.964  20.241  13.368
 7232W        W80300  11.207  14.985  14.359
 7233W        W80301  35.001  39.504   3.670
 7234W        W80302  14.389  20.724   4.815
 7235W        W80303  27.734  10.638   1.466
 7236W        W80304  31.994   3.147  13.835
 7237W        W80305  14.677  26.712   0.224
 7238W        W80306  13.098  35.433  14.508
 7239W        W80307  32.414  24.727  12.887
 7240W        W80308  12.268  17.362   1.921
 7241W        W80309  13.944  24.429   0.583
 7242W        W80310  22.056  43.319   1.060
 7243W        W80311  10.114  39.038  12.660
 7244W        W80312   4.790  11.996  10.748
 7245W        W80313  39.525  39.043   0.801
 7246W        W80314  42.108  42.513  12.975
 7247W        W80315   2.507  10.260   4.476
 7248W        W80316  27.607  22.585   2.734
 7249W        W80317  26.969  19.285  11.126
 7250W        W80318  13.694   3.312   1.784
 7251W        W80319  35.950  14.767  11.155
 7252W        W80320  43.915  44.014   1.693
 7253W        W80321  32.129  15.215   4.046
 7254W        W80322  30.939  35.388   2.123
 7255W        W80323  17.292  41.809   1.653
 7256W        W80324  28.449  14.315   2.762
 7257W        W80325  34.760  19.074  12.972
 7258W        W80326   0.445   9.930  10.358
 7259W        W80327  18.035  13.380  11.058
 7260W        W80328  27.566  16.788   2.827
 7261W        W80329  27.623  19.138  13.234
 7262W        W80330  17.721  43.542  13.147
 7263W        W80331  43.450  41.393  13.927
 7264W        W80332   2.972  22.941   3.278
 7265W        W80333  25.903   9.885  12.069
 7266W        W80334  39.837  37.481  14.049
 7267W        W80335  33.098  30.330  14.375
 7268W        W80336   2.196   3.662   2.171
 7269W        W80337  43.375  26.094   4.607
 7270W        W80338  23.486  33.144  10.783
 7271W        W80339   7.287  40.445  14.793
 7272W        W80340  38.836  37.963  10.477
 7273W        W80341  41.604   5.331  11.519
 7274W        W80342  43.987  43.384  13.020
 7275W        W80343  38.866  30.659   1.180
 7276W        W80344  28.213  21.604   4.160
 7277W        W80345  10.770  24.699   0.975
 7278W        W80346  37.830  19.507  13.970
 7279W        W80347  13.119  19.776   0.427
 7280W        W80348   5.393   0.861   3.274
 7281W        W80349  18.093  32.392   1.372
 7282W        W80350  44.768  24.565   0.797
 7283W        W80351  24.999  27.307   0.918
 7284W        W80352  15.224  34.293  10.750
 7285W        W80353  34.566  40.023   2.257
 7286W        W80354  14.759  42.215  12.136
 7287W        W80355  20.606  14.819  10.717
 7288W        W80356  25.165  10.664   2.601
 7289W        W80357  25.913  12.136   0.918
 7290W        W80358  37.141  26.559  11.594
 7291W        W80359   6.312   3.365   4.642
 7292W        W80360   0.213  41.325  11.190
 7293W        W80361  16.195  37.879   3.576
 7294W        W80362   9.297  15.741   3.574
 7295W        W80363   7.217  37.057   2.727
 7296W        W80364   7.848  37.585  11.943
 7297W        W80365  17.582  13.080  12.949
 7298W        W80366  41.689  11.600  11.684
 7299W        W80367   0.525  23.112   3.222
 7300W        W80368  21.140  24.965  12.010
 7301W        W80369  11.816  19.011   3.628
 7302W        W80370  43.753  41.969   0.798
 7303W        W80371  15.532  15.634  13.101
 7304W        W80372  18.582  23.880   2.715
 7305W        W80373  22.045  27.754   4.601
 7306W        W80374  41.378  38.955   1.629
 7307W        W80375  40.902  27.461  13.026
 7308W        W80376  22.560  18.131  11.652
 7309W        W80377  23.832  39.437   3.189
 7310W        W80378  21.087   6.427  13.395
 7311W        W80379  33.566  14.020   2.371
 7312W        W80380  25.937   4.414   4.650
 7313W        W80381  36.708   9.712   1.997
 7314W        W80382  15.134  17.615  10.728
 7315W        W80383  36.054  10.262  12.957
 7316W        W80384   3.451  39.226   2.858
 7317W        W80385  19.884   7.789   1.775
 7318W        W80386  11.888  11.806  10.482
 7319W        W80387  24.720  33.254  11.567
 7320W        W80388   0.533  25.482  11.456
 7321W        W80389  38.242  10.816  10.304
 7322W        W80390   9.853  11.404  11.199
 7323W        W80391  11.386  39.870  10.813
 7324W        W80392   6.458   7.069   0.836
 7325W        W80393  41.937  33.018  14.265
 7326W        W80394  41.224  32.890  11.050
 7327W        W80395  31.920   9.133   2.087
 7328W        W80396  30.019  10.052  13.408
 7329W        W80397   7.219  18.109  14.559
 7330W        W80398  18.697  12.355  14.368
 7331W        W80399   5.298  19.345  10.672
 7332W        W80400  43.246   7.911  13.143
 7333W        W80401  30.637  14.167   1.732
 7334W        W80402  18.468   7.329   4.917
 7335W        W80403  26.046  12.298   2.686
 7336W        W80404  30.694  32.340  14.291
 7337W        W80405  15.623  27.087  14.398
 7338W        W80406   2.492   0.525  14.866
 7339W        W80407  40.263  15.653  12.889
 7340W        W80408  31.457  18.351   1.281
 7341W        W80409   1.254  37.991  14.837
 7342W        W80410  18.607  20.975  13.733
 7343W        W80411  37.306  35.528  10.675
 7344W        W80412   8.849  27.659  12.102
 7345W        W80413  23.470  11.331  10.891
 7346W        W80414  33.298   9.485   0.684
 7347W        W80415  22.508   4.619  14.765
 7348W        W80416   6.477  12.677  13.289
 7349W        W80417  27.443  10.253   1.696
 7350W        W80418  35.873  25.079  11.913
 7351W        W80419  38.530  23.659   1.243
 7352W        W80420  22.528   6.272  13.870
 7353W        W80421  20.307  16.102   2.741
 7354W        W80422  33.384  38.780  11.990
 7355W        W80423  11.626  27.011  13.033
 7356W        W80424   9.732   0.272  13.295
 7357W        W80425  37.371   2.723   4.685
 7358W        W80426  32.506  27.088   2.462
 7359W        W80427  13.488  16.966  10.391
 7360W        W80428   3.920  43.493   3.435
 7361W        W80429  30.762  36.573   4.777
 7362W        W80430   9.195  16.646  11.512
 7363W        W80431  22.503  30.717  13.422
 7364W        W80432   0.459  22.710   4.667
 7365W        W80433  25.470  44.308   2.675
 7366W        W80434  36.408  31.392  14.302
 7367W        W80435  39.802  33.102   0.773
 7368W        W80436  18.626  17.786   1.177
 7369W        W80437  11.235  18.699  10.778
 7370W        W80438  13.304  30.835  10.424
 7371W        W80439  17.099  13.159  11.483
 7372W        W80440  22.567  16.975   3.212
 7373W        W80441  19.226  23.105   3.614
 7374W        W80442  15.098  34.045  11.189
 7375W        W80443   6.652  36.910  10.843
 7376W        W80444  13.368  26.021   0.855
 7377W        W80445  19.112  29.825   3.639
 7378W        W80446  22.387  38.526   3.279
 7379W        W80447  39.867   3.242   1.365
 7380W        W80448  21.337  15.333   2.775
 7381W        W80449  32.383  36.723  13.869
 7382W        W80450  20.726   4.835  10.895
 7383W        W80451   5.742  34.592  13.030
 7384W        W80452  23.163  14.225  14.437
 7385W        W80453  17.181  16.645  12.081
 7386W        W80454  11.113  12.431   4.236
 7387W        W80455  19.735   6.834   1.326
 7388W        W80456   0.919  40.545  13.158
 7389W        W80457  12.998  14.579   3.642
 7390W        W80458  37.114  10.408  10.864
 7391W        W80459  30.821  27.607  12.928
 7392W        W80460  33.500  10.662  13.054
 7393W        W80461  12.640  22.052   0.298
 7394W        W80462   4.883  34.624  13.892
 7395W        W80463   1.426   8.494   1.962
 7396W        W80464  32.861  14.737  13.541
 7397W        W80465   7.006  38.420   2.158
 7398W        W80466  42.309   9.819   0.751
 7399W        W80467  31.413  26.564  14.314
 7400W        W80468  20.059  24.125   4.718
 7401W        W80469  13.745   8.422  11.817
 7402W        W80470   4.690   3.835  12.907
 7403W        W80471  44.724  31.387  13.785
 7404W        W80472   9.048  10.195  11.978
 7405W        W80473  20.204  26.689  13.082
 7406W        W80474  16.151  16.388   1.760
 7407W        W80475  36.200  19.677   2.792
 7408W        W80476  31.022   7.371  12.608
 7409W        W80477  23.732  28.630   1.273
 7410W        W80478  16.712  30.152   3.286
 7411W        W80479  10.464   6.336  12.561
 7412W        W80480   8.730   3.941  10.972
 7413W        W80481  30.526  23.040  11.589
 7414W        W80482  31.673  38.225  11.233
 7415W        W80483  27.851  44.503   0.781
 7416W        W80484  27.624  42.870   0.718
 7417W        W80485  26.385  43.080   3.622
 7418W        W80486  12.821  11.766  14.277
 7419W        W80487  23.832  11.480   0.169
 7420W        W80488   6.921  10.208   1.878
 7421W        W80489   9.167  11.257   3.625
 7422W        W80490  23.707  25.058   2.082
 7423W        W80491   0.777  22.623  10.464
 7424W        W80492  43.050  32.960  12.390
 7425W        W80493   7.916  40.833  11.510
 7426W        W80494  26.916  30.586  14.854
 7427W        W80495  15.153  25.225   3.714
 7428W        W80496  14.812  31.468   1.891
 7429W        W80497  21.666  10.496  14.776
 7430W        W80498  15.918  20.392   9.928
 7431W        W80499  21.030  30.380   3.505
 7432W        W80500  18.821   1.878  11.132
 7433W        W80501  33.582  44.723   2.800
 7434W        W80502  32.964  11.096   1.846
 7435W        W80503  30.575  44.743   0.034
 7436W        W80504  10.465  30.928  14.334
 7437W        W80505  27.474  19.811  13.582
 7438W        W80506  38.935  34.683   3.141
 7439W        W80507   6.854  23.575   3.682
 7440W        W80508  43.885  12.713   4.183
 7441W        W80509  21.285  36.117  10.762
 7442W        W80510  23.262  33.761   1.232
 7443W        W80511   6.756  13.225  11.145
 7444W        W80512  44.328  23.792   3.312
 7445W        W80513  17.803  37.873   3.288
 7446W        W80514  43.288  28.699  11.909
 7447W        W80515  40.984  17.189   0.764
 7448W        W80516  21.588  19.788  12.557
 7449W        W80517  11.166  29.401   4.127
 7450W        W80518  19.298  33.959   2.473
 7451W        W80519  27.061  18.126   3.415
 7452W        W80520  11.826  20.544   1.394
 7453W        W80521  40.574  12.382   3.262
 7454W        W80522  17.681   8.018   2.359
 7455W        W80523   7.371  37.582  11.558
 7456W        W80524  25.166  13.770  12.818
 7457W        W80525  16.297  17.314  14.923
 7458W        W80526  12.773  17.065  11.673
 7459W        W80527   8.167  33.184  13.712
 7460W        W80528  44.783  35.928   0.549
 7461W        W80529  33.558  31.617  10.289
 7462W        W80530  44.302  32.591  11.537
 7463W        W80531  36.447  14.584  14.387
 7464W        W80532  30.299  17.576  11.311
 7465W        W80533   1.072  24.747  11.209
 7466W        W80534  38.340  36.863   3.140
 7467W        W80535  10.155  22.235  14.359
 7468W        W80536  40.907  30.023   0.949
 7469W        W80537  43.469  35.587   3.668
 7470W        W80538  43.790  34.911   1.800
 7471W        W80539  10.890  28.969  11.403
 7472W        W80540  26.954  29.981  11.141
 7473W        W80541  28.040  21.516   3.274
 7474W        W80542  37.085   4.920  13.006
 7475W        W80543  41.049   2.739  12.044
 7476W        W80544  31.123  10.138   9.814
 7477W        W80545  12.718  31.850   1.895
 7478W        W80546  34.600  16.517   2.332
 7479W        W80547  26.001  40.511  12.678
 7480W        W80548  38.183  18.057  12.338
 7481W        W80549   6.731  16.282   1.837
 7482W        W80550  44.087  17.515   5.027
 7483W        W80551  17.158  32.048  14.967
 7484W        W80552  34.101  39.388  11.670
 7485W        W80553  29.506   0.468  13.782
 7486W        W80554  44.513  44.863   1.072
 7487W        W80555  42.029   1.691   1.736
 7488W        W80556  34.656  34.490   4.952
 7489W        W80557  38.785  25.008  12.529
 7490W        W80558  10.131  41.294  14.193
 7491W        W80559   6.692   5.527   2.855
 7492W        W80560   0.414  15.674   0.135
 7493W        W80561  32.598   2.693   2.294
 7494W        W80562  33.328  19.309   4.604
 7495W        W80563  44.514  37.579  13.983
 7496W        W80564  32.439  31.131  12.428
 7497W        W80565   3.511  34.114  14.476
 7498W        W80566  16.887  36.880   1.333
 7499W        W80567  15.854  30.949  11.441
 7500W        W80568   5.175  31.526  11.570
 7501W        W80569   6.475  10.813   2.256
 7502W        W80570  41.384  37.454   2.439
 7503W        W80571   4.166  13.164   0.898
 7504W        W80572  34.337   0.843   1.870
 7505W        W80573   6.837  12.382  13.013
 7506W        W80574  30.981   6.966   3.035
 7507W        W80575  27.003  20.841   4.130
 7508W        W80576  18.095  33.084  13.649
 7509W        W80577   2.437   3.979  13.522
 7510W        W80578   6.646   0.493  13.622
 7511W        W80579  18.550  18.563  14.358
 7512W        W80580  12.601  14.290  10.314
 7513W        W80581  34.834  34.639  12.520
 7514W        W80582  15.657  20.726   1.750
 7515W        W80583  31.646   5.785  14.450
 7516W        W80584   7.169  18.263  12.079
 7517W        W80585  23.668  34.174   3.679
 7518W        W80586   8.776   8.347  11.309
 7519W        W80587   0.036  34.136  14.890
 7520W        W80588  17.569  15.319  13.406
 7521W        W80589   2.424  11.135   1.513
 7522W        W80590   3.706  43.715  11.498
 7523W        W80591  16.151  38.928  13.561
 7524W        W80592  39.819  36.986   0.339
 7525W        W80593   1.989  37.284  13.053
 7526W        W80594  27.330  30.487   0.957
 7527W        W80595  34.376   4.292   2.735
 7528W        W80596  27.444  16.670   0.267
 7529W        W80597  43.072  32.612   1.964
 7530W        W80598  16.255  25.597  13.969
 7531W        W80599  12.578  21.028  12.910
 7532W        W80600  18.538  26.012   3.660
 7533W        W80601  22.824   8.132  11.537
 7534W        W80602  20.126  23.566  12.253
 7535W        W80603  29.012   1.648  12.188
 7536W        W80604   9.154   6.734  11.501
 7537W        W80605  23.181  17.053  12.439
 7538W        W80606   6.707  34.341   0.909
 7539W        W80607  42.943  35.241   4.130
 7540W        W80608  18.662  36.733  13.897
 7541W        W80609   5.730  20.007  10.657
 7542W        W80610   9.414  33.122  13.965
 7543W        W80611  39.501   2.045   5.054
 7544W        W80612  36.258  12.603  11.076
 7545W        W80613   7.184  32.883  12.349
 7546W        W80614   5.722  30.377  13.387
 7547W        W80615  20.721  20.363   1.002
 7548W        W80616  18.185  27.422   4.759
 7549W        W80617  34.174  42.996   3.311
 7550W        W80618  40.365  39.547  14.857
 7551W        W80619  34.083  32.988  12.888
 7552W        W80620   4.407   4.791   0.294
 7553W        W80621  40.317  41.554   3.159
 7554W        W80622  12.238   3.713   4.638
 7555W        W80623  15.957   9.802  12.009
 7556W        W80624   8.691  42.629  14.702
 7557W        W80625  35.176  20.169  11.671
 7558W        W80626  35.654   0.265   2.927
 7559W        W80627  20.345  34.376   0.265
 7560W        W80628  36.584   7.163   2.338
 7561W        W80629   8.685   8.860   3.376
 7562W        W80630  32.699  35.545   2.875
 7563W        W80631  29.051  24.640   3.673
 7564W        W80632  30.387  29.489   4.570
 7565W        W80633  35.996   7.357  13.669
 7566W        W80634  36.850  23.537   4.232
 7567W        W80635  13.037   6.887  13.767
 7568W        W80636  17.393  41.493   2.605
 7569W        W80637  10.922  33.392  14.840
 7570W        W80638  26.375  26.643  14.412
 7571W        W80639  33.322   0.902  14.486
 7572W        W80640  21.781  24.593   0.923
 7573W        W80641  26.568   9.317  13.314
 7574W        W80642  31.341  21.730  12.936
 7575W        W80643   4.719  10.169   1.410
 7576W        W80644  19.142  39.767  13.161
 7577W        W80645   0.709  13.381  14.570
 7578W        W80646  17.126  18.079   1.498
 7579W        W80647  23.267  30.132  10.718
 7580W        W80648   9.460  11.733  14.569
 7581W        W80649  42.762  39.003   2.801
 7582W        W80650   8.127  18.700   0.190
 7583W        W80651  17.044  31.216   0.436
 7584W        W80652  41.601  39.553   0.260
 7585W        W80653  11.254  18.749   0.242
 7586W        W80654  25.149  42.824   4.422
 7587W        W80655  26.747  19.639   4.733
 7588W        W80656  41.582  32.153   3.045
 7589W        W80657  39.062   3.806   1.693
 7590W        W80658   7.206  41.255   3.744
 7591W        W80659  33.026  25.971   2.649
 7592W        W80660  39.454  13.637  11.054
 7593W        W80661  38.332  25.858  13.466
 7594W        W80662  19.840  41.173   2.878
 7595W        W80663  25.204  28.169  12.036
 7596W        W80664  28.026  22.049  13.822
 7597W        W80665  23.963   1.848  11.128
 7598W        W80666  33.578  34.006   0.746
 7599W        W80667  24.613   2.884   0.872
 7600W        W80668  12.184  26.484  11.065
 7601W        W80669  16.442  32.488  13.884
 7602W        W80670  23.627  23.341   2.358
 7603W        W80671   3.029   5.383  12.016
 7604W        W80672   0.071  40.745  13.293
 7605W        W80673  43.712  23.029   4.864
 7606W        W80674  27.527  16.738  10.616
 7607W        W80675  24.019  19.747   1.955
 7608W        W80676  37.911  37.560  12.768
 7609W        W80677   5.633  28.571  14.110
 7610W        W80678  32.369  35.633   3.259
 7611W        W80679   6.163  30.899  13.773
 7612W        W80680  24.145   0.867  11.979
 7613W        W80681  14.972  10.960  12.604
 7614W        W80682   3.960  33.982   0.805
 7615W        W80683  35.091  29.529   0.850
 7616W        W80684   8.272  39.419  11.110
 7617W        W80685  33.798  17.511   1.833
 7618W        W80686   5.301  31.901   1.232
 7619W        W80687   7.243  19.038  11.449
 7620W        W80688  40.879   8.379   4.646
 7621W        W80689  22.041  34.866   3.085
 7622W        W80690  24.008  44.388   4.649
 7623W        W80691   8.685  36.750  11.222
 7624W        W80692  39.629  10.917   1.715
 7625W        W80693  22.987  21.162  10.674
 7626W        W80694   4.943  29.697  13.470
 7627W        W80695  41.519  40.870   4.927
 7628W        W80696  28.064  30.654   2.686
 7629W        W80697  20.558  39.326  11.460
 7630W        W80698  19.277  15.277  12.856
 7631W        W80699  26.614  23.544  10.765
 7632W        W80700  35.403  12.555  13.373
 7633W        W80701  31.017  43.783   2.320
 7634W        W80702  15.826  20.584   2.239
 7635W        W80703  15.177   8.427  13.057
 7636W        W80704  41.363  26.943   3.354
 7637W        W80705  15.349  18.179  14.560
 7638W        W80706  17.510   0.743   1.689
 7639W        W80707  40.416   3.572   3.670
 7640W        W80708  24.442  36.300  11.698
 7641W        W80709  31.594  37.509  12.998
 7642W        W80710   9.791  15.819   3.353
 7643W        W80711  29.967  32.573  13.077
 7644W        W80712  10.606  23.703  12.796
 7645W        W80713  14.587  43.038  12.650
 7646W        W80714  13.882   3.502   4.121
 7647W        W80715  21.296  20.721  10.626
 7648W        W80716  18.707  39.024  12.053
 7649W        W80717   6.839   8.716  11.840
 7650W        W80718  18.050  21.059   4.594
 7651W        W80719  29.621  13.859   3.178
 7652W        W80720  16.795  27.815  12.896
 7653W        W80721  23.462  31.937   1.888
 7654W        W80722   1.914  39.912  11.168
 7655W        W80723   8.446  21.164  14.997
 7656W        W80724   5.195  30.538   2.825
 7657W        W80725  30.947  11.298   1.454
 7658W        W80726  37.175   8.891   3.451
 7659W        W80727  19.250  10.021  12.065
 7660W        W80728  15.816  43.416   4.128
 7661W        W80729  17.085  36.850   2.272
 7662W        W80730  30.894  16.588   2.235
 7663W        W80731  26.280  19.196   2.382
 7664W        W80732   7.086  17.615  13.194
 7665W        W80733  25.195  23.163  10.741
 7666W        W80734  17.614  37.464  10.169
 7667W        W80735  14.860  35.101  12.948
 7668W        W80736  42.325  37.884   4.282
 7669W        W80737   0.924  39.271   2.194
 7670W        W80738   5.956   9.238   3.206
 7671W        W80739  26.422  35.460  12.405
 7672W        W80740  33.034  34.138  12.067
 7673W        W80741  24.574  29.384  13.848
 7674W        W80742  28.317   4.220  11.574
 7675W        W80743  37.304   1.881  12.486
 7676W        W80744  10.127  13.751   0.479
 7677W        W80745  10.261  34.596  14.801
 7678W        W80746  31.566  32.362  12.436
 7679W        W80747  44.550  35.104   1.393
 7680W        W80748  28.109  43.486   2.679
 7681W        W80749  27.772   7.899  14.155
 7682W        W80750  13.545  25.338   2.745
 7683W        W80751  42.521  25.447  13.839
 7684W        W80752  41.807  24.019   1.394
 7685W        W80753  28.723  12.861   4.231
 7686W        W80754  20.340  37.884   4.222
 7687W        W80755  26.907  31.345  11.811
 7688W        W80756  35.266   1.821  14.932
 7689W        W80757  21.217  31.578  12.451
 7690W        W80758  34.613  23.156   1.426
 7691W        W80759  44.270   3.456   1.818
 7692W        W80760  32.669  28.402   0.950
 7693W        W80761  28.971  32.615   4.784
 7694W        W80762  40.295  10.348  14.340
 7695W        W80763   7.552  41.073   2.402
 7696W        W80764  38.885  16.852   2.235
 7697W        W80765   9.678  14.600  12.039
 7698W        W80766  32.417  14.241   3.160
 7699W        W80767  26.673  19.561   3.830
 7700W        W80768   8.231  41.585  11.151
 7701W        W80769  12.324  32.933  10.771
 7702W        W80770   2.395  10.158   5.000
 7703W        W80771  40.598  17.121   1.632
 7704W        W80772   7.602   1.947   2.602
 7705W        W80773  11.752  38.313   3.614
 7706W        W80774  26.335  41.559   2.865
 7707W        W80775  37.945  18.231  10.618
 7708W        W80776  27.730  14.748  14.464
 7709W        W80777  25.988  37.310   1.841
 7710W        W80778   0.757  40.968   4.060
 7711W        W80779  17.210  36.833   0.913
 7712W        W80780  11.729   4.321   4.376
 7713W        W80781  19.052  23.002  13.455
 7714W        W80782  28.732  17.594  12.552
 7715W        W80783   0.387  36.187   0.852
 7716W        W80784  28.215  14.717   3.190
 7717W        W80785  24.224  31.618  13.795
 7718W        W80786   6.348   5.444  14.871
 7719W        W80787  43.730  38.735   2.909
 7720W        W80788  40.514  29.050  10.728
 7721W        W80789  23.069  15.187   3.183
 7722W        W80790  36.585  12.355  11.391
 7723W        W80791  17.246  42.333  14.728
 7724W        W80792  40.725  36.955  11.013
 7725W        W80793  25.967  35.837   3.670
 7726W        W80794  13.422  19.581   1.688
 7727W        W80795  30.143  29.027  14.988
 7728W        W80796  41.614  23.996   0.938
 7729W        W80797  33.682  38.365   5.126
 7730W        W80798  44.991   1.476  13.908
 7731W        W80799  41.472  28.812  10.365
 7732W        W80800  40.328  23.185   0.791
 7733W        W80801  20.722   6.245  12.067
 7734W        W80802  33.451   7.763   0.637
 7735W        W80803  37.835  17.124  10.681
 7736W        W80804   5.922  16.062   2.195
 7737W        W80805   6.532  43.822  13.110
 7738W        W80806  38.259  39.440  12.590
 7739W        W80807  13.110  12.238   2.715
 7740W        W80808  11.625  22.767   4.967
 7741W        W80809  24.035   3.065  11.567
 7742W        W80810  25.428  34.935   1.277
 7743W        W80811   9.086  44.259   2.136
 7744W        W80812   0.784  38.583  10.351
 7745W        W80813  11.708  23.439  13.506
 7746W        W80814  14.713  18.071  13.939
 7747W        W80815  10.932   7.910  14.299
 7748W        W80816   1.377   8.077   3.267
 7749W        W80817  33.557  18.834   0.880
 7750W        W80818  43.850   4.124  13.424
 7751W        W80819  41.935  30.561   3.729
 7752W        W80820  23.948   5.857   0.227
 7753W        W80821  16.532  44.203  11.024
 7754W        W80822  24.450  29.877  11.188
 7755W        W80823  38.745   8.999   0.675
 7756W        W80824  39.254  19.649   4.409
 7757W        W80825  15.253  31.781   4.716
 7758W        W80826  26.992  15.813   3.729
 7759W        W80827   7.244  13.798   4.457
 7760W        W80828  44.216  10.115   2.659
 7761W        W80829  32.167  26.702  11.508
 7762W        W80830  34.587  22.502  11.180
 7763W        W80831  35.600   6.422  11.969
 7764W        W80832   1.280  35.057   2.691
 7765W        W80833   3.742  17.697  11.375
 7766W        W80834  43.401  25.519  10.728
 7767W        W80835  14.654  24.008  12.802
 7768W        W80836  32.063  39.275   0.693
 7769W        W80837  42.363   3.168   1.290
 7770W        W80838   5.328  23.736  12.824
 7771W        W80839   4.904  17.762  14.590
 7772W        W80840  34.559  39.319   3.401
 7773W        W80841  27.152  42.055  10.741
 7774W        W80842  11.146  22.826   4.723
 7775W        W80843  23.170  30.426   0.930
 7776W        W80844   7.856  31.681  10.876
 7777W        W80845  28.528  10.453   0.224
 7778W        W80846   7.332  36.056  12.463
 7779W        W80847   2.379   9.794  11.058
 7780W        W80848  42.427  26.828  11.103
 7781W        W80849  30.026   5.067   9.985
 7782W        W80850  25.953  26.437  13.828
 7783W        W80851   6.743  31.912   1.906
 7784W        W80852  35.900  27.088   4.148
 7785W        W80853  19.782  31.097  13.561
 7786W        W80854   2.778  35.640   0.271
 7787W        W80855  41.263  42.454   4.941
 7788W        W80856  10.423  35.689  12.006
 7789W        W80857  20.785  21.258  14.028
 7790W        W80858  44.254  12.865  13.488
 7791W        W80859  17.234   7.936   2.660
 7792W        W80860  21.252  28.574   3.382
 7793W        W80861  14.662  24.207  10.595
 7794W        W80862  16.080  11.144  12.002
 7795W        W80863  42.016  21.156  11.047
 7796W        W80864  15.605  43.264  13.999
 7797W        W80865   3.134  21.373  14.954
 7798W        W80866  28.456   7.676   3.711
 7799W        W80867  36.370  15.774   2.218
 7800W        W80868  37.449  34.425   2.367
 7801W        W80869  21.019  37.180  12.111
 7802W        W80870  40.925  20.250   4.845
 7803W        W80871   0.856  16.136  12.179
 7804W        W80872  35.911  10.601  12.566
 7805W        W80873  24.934  18.321  12.859
 7806W        W80874  23.024  14.394  13.964
 7807W        W80875   4.846  30.960  10.624
 7808W        W80876   8.654  31.188  11.851
 7809W        W80877  34.406   9.866  11.221
 7810W        W80878   5.212   6.949   1.896
 7811W        W80879  41.348  21.197  13.326
 7812W        W80880  31.566  32.180   0.918
 7813W        W80881  12.598  18.021   0.168
 7814W        W80882   4.920  11.339  13.988
 7815W        W80883  23.991   6.669   0.719
 7816W        W80884   3.686   2.813  11.894
 7817W        W80885  40.674  21.902   0.288
 7818W        W80886  38.024  15.063  11.995
 7819W        W80887  17.244  22.296   3.679
 7820W        W80888  18.740  29.234   2.228
 7821W        W80889  19.401  12.123   2.912
 7822W        W80890  35.729  37.528  12.098
 7823W        W80891  42.378   7.408   4.346
 7824W        W80892  18.530  14.980  14.336
 7825W        W80893   9.891  19.049   3.349
 7826W        W80894   0.125  31.964   0.746
 7827W        W80895  23.158  27.942   2.473
 7828W        W80896   1.283  34.802  14.825
 7829W        W80897  26.561  32.056   1.943
 7830W        W80898   7.829  33.561   4.995
 7831W        W80899  26.528   8.728   0.364
 7832W        W80900  40.022   5.211   2.183
 7833W        W80901  30.513   0.535  14.535
 7834W        W80902  16.934  12.282  12.935
 7835W        W80903  35.404  10.348   1.366
 7836W        W80904   7.468  11.944   2.306
 7837W        W80905  14.625  12.219   3.170
 7838W        W80906  26.577  18.806   4.490
 7839W        W80907  11.819  22.753  13.859
 7840W        W80908  21.592   8.493   3.193
 7841W        W80909  22.213   6.548   2.535
 7842W        W80910  38.922  24.234   2.888
 7843W        W80911   7.667  22.227  12.436
 7844W        W80912  36.554   3.618   2.289
 7845W        W80913  27.886  19.817   0.388
 7846W        W80914  12.779  10.408   3.269
 7847W        W80915  37.556  21.941  11.923
 7848W        W80916  20.918   3.856   3.765
 7849W        W80917  31.522   6.644   3.324
 7850W        W80918  28.432  38.104   3.169
 7851W        W80919  11.750  22.248  13.961
 7852W        W80920   5.619  30.603   0.688
 7853W        W80921   0.354  27.175   0.308
 7854W        W80922  18.584   0.703  11.677
 7855W        W80923  13.235  34.264   5.030
 7856W        W80924   8.360   5.910  14.013
 7857W        W80925   4.870   3.379  10.992
 7858W        W80926  20.840  20.726  10.908
 7859W        W80927  38.316  38.383   1.908
 7860W        W80928  35.720  20.956   4.803
 7861W        W80929   4.733  32.606  14.118
 7862W        W80930  10.604  14.132  10.968
 7863W        W80931  24.186  11.331  11.570
 7864W        W80932  40.631   3.281  11.076
 7865W        W80933  30.959  28.905   3.383
 7866W        W80934  18.977  15.641  10.292
 7867W        W80935  21.990  14.245  12.685
 7868W        W80936   7.772  40.045  10.837
 7869W        W80937   8.477  34.143  11.908
 7870W        W80938   4.781  11.615   0.354
 7871W        W80939  31.078  15.864   1.936
 7872W        W80940  20.272  35.401  14.821
 7873W        W80941   1.552   0.377   0.822
 7874W        W80942   0.476  28.512   0.977
 7875W        W80943  12.401  41.600   2.844
 7876W        W80944  38.555  15.636  11.175
 7877W        W80945  43.840   3.231  11.583
 7878W        W80946   3.292  23.430   2.686
 7879W        W80947  17.285  33.893   0.734
 7880W        W80948  41.054  34.019  10.457
 7881W        W80949   8.641  44.414   4.695
 7882W        W80950  38.004   9.399   4.538
 7883W        W80951   8.819   4.780   5.011
 7884W        W80952  26.829  10.438  13.958
 7885W        W80953  22.573  37.139  11.391
 7886W        W80954  18.017  35.595   3.063
 7887W        W80955   7.201  27.962  12.358
 7888W        W80956   8.287   0.560   0.759
 7889W        W80957  39.139  27.976  12.549
 7890W        W80958  17.518  36.673  11.467
 7891W        W80959  19.636  19.324   3.793
 7892W        W80960  19.427  42.999  14.886
 7893W        W80961  34.075  36.765   0.424
 7894W        W80962   4.788  35.072   4.598
 7895W        W80963   0.393  14.897  14.365
 7896W        W80964  42.980   5.878   2.359
 7897W        W80965  24.651  24.600   1.442
 7898W        W80966  18.885  41.526   0.900
 7899W        W80967  38.389  41.680   3.975
 7900W        W80968   2.516   9.773   1.272
 7901W        W80969  11.028   7.525  10.937
 7902W        W80970   2.257  41.761   0.805
 7903W        W80971  39.917   3.717  14.764
 7904W        W80972  42.369  20.705  12.432
 7905W        W80973   3.768  24.170   4.858
 7906W        W80974  19.472  11.213  13.988
 7907W        W80975   8.041  30.880  11.139
 7908W        W80976  44.478  39.958   4.174
 7909W        W80977  18.292   9.342  13.932
 7910W        W80978  25.210   8.422   0.484
 7911W        W80979  35.060  18.760  10.652
 7912W        W80980  11.481  29.644   1.888
 7913W        W80981   9.698  20.988   4.599
 7914W        W80982   1.762  16.738   0.232
 7915W        W80983  42.425  20.512   1.038
 7916W        W80984   7.419   7.190   3.068
 7917W        W80985   4.468   7.828  12.041
 7918W        W80986  13.778  43.135   1.301
 7919W        W80987  39.895  37.935   2.934
 7920W        W80988   1.353  15.812   4.134
 7921W        W80989  30.229  37.195  14.352
 7922W        W80990  34.346  36.059  14.042
 7923W        W80991  15.505  28.971   0.617
 7924W        W80992  40.008  18.758   2.372
 7925W        W80993  36.075  20.519   1.787
 7926W        W80994  27.810  29.281   4.795
 7927W        W80995  14.555   0.888  12.533
 7928W        W80996  25.414  15.537   1.385
 7929W        W80997  43.455   6.263  11.578
 7930W        W80998  11.857  41.709  14.342
 7931W        W80999   2.764   4.562   2.343
 7932W        W81000  36.476  29.016   0.920
 7933W        W81001  44.372  24.506   4.095
 7934W        W81002  25.416  40.762   0.396
 7935W        W81003  28.617  13.575   1.325
 7936W        W81004  26.218  13.448  14.822
 7937W        W81005  13.309  23.231   1.466
 7938W        W81006  32.393  44.455  10.717
 7939W        W81007   9.740   1.186  13.798
 7940W        W81008  23.490  30.409   3.222
 7941W        W81009   7.934  35.292  13.816
 7942W        W81010   4.368  13.388   3.109
 7943W        W81011  25.382   0.781   0.334
 7944W        W81012  16.156  17.327   2.854
 7945W        W81013   4.480  24.704   4.138
 7946W        W81014  38.089  24.386  13.806
 7947W        W81015  43.600  37.104   3.806
 7948W        W81016  33.473  14.350  13.047
 7949W        W81017  11.330  30.170   1.322
 7950W        W81018  29.520  10.668  13.628
 7951W        W81019  35.325  21.998   0.296
 7952W        W81020  17.218  20.599  10.350
 7953W        W81021   5.147  38.641   3.222
 7954W        W81022   7.821  37.547  14.814
 7955W        W81023  15.734  43.390   2.116
 7956W        W81024  32.915  21.795  13.514
 7957W        W81025  15.844   2.347   4.304
 7958W        W81026  22.751  44.213   1.824
 7959W        W81027  33.018  24.203  12.675
 7960W        W81028   1.688  21.020   0.915
 7961W        W81029  15.317  35.039  14.780
 7962W        W81030   1.853  40.490  11.090
 7963W        W81031  13.588  16.343  13.823
 7964W        W81032  40.803  11.758   2.294
 7965W        W81033  42.699  43.697  13.178
 7966W        W81034  32.113  31.960   3.606
 7967W        W81035   4.187  13.831  10.650
 7968W        W81036  26.048  24.098  12.829
 7969W        W81037  38.454   8.667  10.419
 7970W        W81038  44.844   1.360   1.705
 7971W        W81039   7.131   2.648  14.485
 7972W        W81040  34.489  37.792   4.988
 7973W        W81041  10.147   3.492  12.023
 7974W        W81042  35.999  20.281  11.581
 7975W        W81043  27.130  14.328  10.757
 7976W        W81044  20.752   4.796  13.901
 7977W        W81045   5.098  32.615   0.024
 7978W        W81046  14.977  43.847  12.723
 7979W        W81047  36.417  16.236   2.446
 7980W        W81048  44.334  40.359  12.136
 7981W        W81049  16.300  12.131  10.794
 7982W        W81050  17.026  34.480  14.426
 7983W        W81051   0.245  19.859   2.829
 7984W        W81052  12.578  19.899  12.220
 7985W        W81053  39.465  27.938   1.878
 7986W        W81054   2.255   6.799  12.387
 7987W        W81055  17.569  20.347   1.235
 7988W        W81056  31.780  10.217  11.686
 7989W        W81057   6.759  40.693  11.556
 7990W        W81058  34.315  25.544  12.529
 7991W        W81059  17.988  22.023  12.196
 7992W        W81060  44.283   2.414   2.302
 7993W        W81061  19.698  39.499   1.371
 7994W        W81062  38.877   7.996  10.058
 7995W        W81063  23.409  10.234   0.134
 7996W        W81064   2.230  17.921   4.034
 7997W        W81065  27.031   8.998  11.158
 7998W        W81066  40.465  28.116   1.478
 7999W        W81067   4.752  10.305  13.518
 8000W        W81068  40.309  15.654   4.671
 8001W        W81069  11.036  33.375  11.945
 8002W        W81070  36.626   0.293  10.525
 8003W        W81071  35.627  20.301  13.990
 8004W        W81072  41.074   7.741   2.651
 8005W        W81073  19.129  28.467   4.175
 8006W        W81074  44.856   1.604  14.888
 8007W        W81075  17.673  41.014  12.136
 8008W        W81076  18.878  19.263  10.999
 8009W        W81077  15.120  40.260   2.753
 8010W        W81078  10.893  11.817  10.725
 8011W        W81079  17.201  41.523  10.162
 8012W        W81080  28.279   9.612  12.430
 8013W        W81081  29.998  39.090   1.946
 8014W        W81082  43.966  17.267  12.548
 8015W        W81083  30.732  39.348  14.047
 8016W        W81084   6.132  18.642   2.302
 8017W        W81085  38.844  30.529  14.227
 8018W        W81086  25.904  44.762  12.940
 8019W        W81087  41.589  17.354  13.433
 8020W        W81088   1.198  24.036   2.838
 8021W        W81089   9.690  15.387   4.252
 8022W        W81090  40.697  30.026   1.453
 8023W        W81091  22.463  18.686  14.345
 8024W        W81092  33.790   8.734   4.095
 8025W        W81093  36.041  11.086   3.671
 8026W        W81094   6.854  21.771  12.853
 8027W        W81095  29.117   0.327   2.482
 8028W        W81096  37.908  15.704   4.040
 8029W        W81097  11.310  27.561   0.910
 8030W        W81098   8.258  14.428   2.183
 8031W        W81099  19.176  25.568  10.765
 8032W        W81100  17.049  27.554  11.706
 8033W        W81101  42.254  41.564  12.962
 8034W        W81102  29.841  44.984  14.886
 8035W        W81103  44.992   9.439   3.570
 8036W        W81104   5.985   8.742  11.669
 8037W        W81105  24.696  41.454   2.368
 8038W        W81106  13.424  44.344   2.283
 8039W        W81107   3.333  28.078   0.131
 8040W        W81108  19.386  23.602  10.403
 8041W        W81109  42.742  23.605   2.454
 8042W        W81110  35.112  25.753  11.195
 8043W        W81111  14.816  28.049  14.736
 8044W        W81112  43.491  28.522   2.192
 8045W        W81113  33.804  31.916   1.410
 8046W        W81114  39.304  21.125   0.903
 8047W        W81115   5.008  13.506  11.020
 8048W        W81116  21.793  27.108   0.065
 8049W        W81117  12.678  43.719   3.314
 8050W        W81118   1.587   4.281   0.602
 8051W        W81119  31.927  35.332   2.371
 8052W        W81120  42.676  39.368  14.703
 8053W        W81121   7.430  34.559   0.475
 8054W        W81122  18.231  24.810  11.144
 8055W        W81123  30.913  33.050  10.761
 8056W        W81124   1.638  32.826   4.561
 8057W        W81125  39.383  20.524   1.795
 8058W        W81126  33.290  11.301  10.743
 8059W        W81127   8.255  16.772  13.118
 8060W        W81128   1.986   7.173  13.459
 8061W        W81129  37.136  35.516   1.652
 8062W        W81130  24.022   7.716  11.189
 8063W        W81131  37.362  41.082  10.770
 8064W        W81132  42.813  18.149  14.767
 8065W        W81133  32.209  37.465   0.915
 8066W        W81134  12.465  32.285   1.311
 8067W        W81135  39.133  42.900   0.751
 8068W        W81136  30.694   5.268   2.317
 8069W        W81137  16.154   4.859   4.567
 8070W        W81138   7.875  14.345  11.482
 8071W        W81139   6.313   1.489  11.123
 8072W        W81140  15.546   6.466  12.021
 8073W        W81141  11.540  33.427   4.284
 8074W        W81142  12.781  16.319  11.968
 8075W        W81143  12.849  12.422   3.122
 8076W        W81144  32.984  28.555  11.142
 8077W        W81145  28.369   2.573  11.118
 8078W        W81146  24.436  21.587  13.342
 8079W        W81147  42.045  38.738  12.610
 8080W        W81148  18.578  26.025   1.546
 8081W        W81149  34.719  29.122  10.699
 8082W        W81150  41.709  26.541   0.276
 8083W        W81151  44.980  31.858  11.266
 8084W        W81152  14.149   8.684   0.958
 8085W        W81153  18.754  41.923   2.599
 8086W        W81154  35.473  33.714  11.934
 8087W        W81155  17.543  16.246  10.978
 8088W        W81156  41.354  26.524   2.222
 8089W        W81157  28.891  44.626   0.785
 8090W        W81158  10.861  34.451   2.215
 8091W        W81159  35.376  35.802  13.068
 8092W        W81160  40.429  32.110   3.812
 8093W        W81161  20.627  22.248  14.930
 8094W        W81162   3.831  31.968   0.201
 8095W        W81163   9.525  26.295  10.714
 8096W        W81164  15.246   2.947   1.256
 8097W        W81165   8.716  14.524   3.065
 8098W        W81166  40.090  41.850   2.770
 8099W        W81167   7.128  18.712   2.488
 8100W        W81168  35.415  43.755   1.806
 8101W        W81169   8.801  22.898   4.366
 8102W        W81170   1.695   1.526  13.486
 8103W        W81171  39.910  31.533  14.425
 8104W        W81172  38.396   1.347  12.891
 8105W        W81173  10.794  20.058  10.333
 8106W        W81174  42.035  33.671  10.279
 8107W        W81175   3.788  44.475   4.391
 8108W        W81176  27.165   8.801  12.497
 8109W        W81177   8.348  29.226   3.292
 8110W        W81178  15.085  29.465  13.271
 8111W        W81179  18.179  26.452  14.982
 8112W        W81180  13.532  14.703  11.998
 8113W        W81181  20.519  28.028   2.095
 8114W        W81182  39.736  44.969   4.543
 8115W        W81183  12.735  24.998  11.502
 8116W        W81184  18.983   2.885   1.668
 8117W        W81185  15.163   6.168   1.671
 8118W        W81186  17.708  34.767  12.892
 8119W        W81187  17.012   8.103   4.057
 8120W        W81188  34.529  11.133  10.552
 8121W        W81189   6.138  27.013   3.655
 8122W        W81190  17.046  39.730  12.572
 8123W        W81191  26.386  21.117   5.123
 8124W        W81192   2.509  35.594  14.601
 8125W        W81193  15.893  17.141  14.569
 8126W        W81194  11.669  28.369  14.454
 8127W        W81195  16.687  23.298  12.422
 8128W        W81196  10.325  37.960  13.493
 8129W        W81197   7.464  28.868   2.971
 8130W        W81198  39.025  39.582   2.178
 8131W        W81199  31.522  19.984  14.216
 8132W        W81200  22.583  17.020  13.054
 8133W        W81201  11.997   2.117   4.187
 8134W        W81202  30.161  26.226   0.432
 8135W        W81203  43.519  39.863   0.620
 8136W        W81204  38.613  32.492   2.210
 8137W        W81205  23.009  32.435   3.640
 8138W        W81206   2.817   8.327   1.926
 8139W        W81207   9.392  18.600  10.478
 8140W        W81208  34.060   9.773   4.133
 8141W        W81209  37.387  31.005   3.514
 8142W        W81210  31.773  10.302   0.314
 8143W        W81211  18.549  14.056   2.027
 8144W        W81212  41.207   6.885  13.550
 8145W        W81213  31.395  10.901   2.210
 8146W        W81214   8.360  22.081   4.199
 8147W        W81215  37.515  12.283   2.833
 8148W        W81216  34.486  10.097  13.039
 8149W        W81217  26.409  28.022  12.944
 8150W        W81218  40.959  43.591   4.917
 8151W        W81219  10.040  36.992  11.424
 8152W        W81220  10.251  36.507  11.653
 8153W        W81221  34.983  15.026   0.884
 8154W        W81222   1.136  20.224   3.236
 8155W        W81223   4.383  26.693   0.810
 8156W        W81224  11.123  42.020   1.675
 8157W        W81225   0.021  44.935  12.502
 8158W        W81226  18.637  32.855  12.366
 8159W        W81227   0.234  13.727   4.754
 8160W        W81228  20.773  19.332  13.532
 8161W        W81229  26.198  25.067  12.545
 8162W        W81230  37.475  33.868   3.735
 8163W        W81231  31.370  44.670  11.091
 8164W        W81232   1.407  27.377  12.451
 8165W        W81233  29.917   4.034   0.663
 8166W        W81234  25.302  33.079   2.690
 8167W        W81235   9.714   4.735   4.528
 8168W        W81236  22.217   7.283  14.443
 8169W        W81237  23.979   4.752  14.342
 8170W        W81238   6.431  11.138  13.902
 8171W        W81239  31.640   6.800   4.656
 8172W        W81240   0.522   7.304   2.644
 8173W        W81241   3.673   6.010   0.859
 8174W        W81242   3.227  16.174  14.791
 8175W        W81243  27.445  35.304  14.008
 8176W        W81244   9.456  19.174   2.412
 8177W        W81245  11.255  16.541   3.663
 8178W        W81246  15.821  31.613  10.672
 8179W        W81247  27.131  32.558  13.951
 8180W        W81248  17.712   1.462   2.259
 8181W        W81249   9.328  18.110  12.444
 8182W        W81250   3.389  33.830  14.906
 8183W        W81251  33.641  13.032  12.603
 8184W        W81252  13.828   0.287   3.230
 8185W        W81253  38.384  32.118  13.019
 8186W        W81254  28.604  44.677   0.367
 8187W        W81255  34.063  13.131   0.395
 8188W        W81256  14.815  20.275   1.506
 8189W        W81257  40.976  19.805  14.543
 8190W        W81258   5.310  28.423   3.760
 8191W        W81259  13.324  27.575  14.208
 8192W        W81260  32.706  40.075  13.662
 8193W        W81261  14.235   3.662  10.749
 8194W        W81262  22.034  23.498   1.736
 8195W        W81263  23.049  19.526  13.018
 8196W        W81264  26.882   3.433   1.327
 8197W        W81265  29.119  20.263   4.602
 8198W        W81266   7.522  33.490  10.219
 8199W        W81267  10.203  28.008   1.486
 8200W        W81268  32.583  37.156  11.556
 8201W        W81269   7.392   0.891  10.592
 8202W        W81270  30.179  16.312  12.925
 8203W        W81271   3.164   5.817   4.543
 8204W        W81272  20.162  22.528  13.762
 8205W        W81273  35.962   6.917  13.412
 8206W        W81274   2.975  38.893   4.809
 8207W        W81275  14.292  17.282   4.340
 8208W        W81276  31.096  41.063  14.592
 8209W        W81277  29.725  38.403  13.660
 8210W        W81278   6.300   9.068   2.232
 8211W        W81279  39.448  38.556   3.691
 8212W        W81280  14.248  24.720   0.903
 8213W        W81281   6.047  41.005  11.666
 8214W        W81282  21.463  29.153  12.528
 8215W        W81283  19.345   7.718   1.882
 8216W        W81284  17.030  13.641   1.221
 8217W        W81285  10.063   0.029   2.686
 8218W        W81286  20.023  21.675  13.329
 8219W        W81287  19.785  39.492  10.209
 8220W        W81288  17.635   7.645  14.897
 8221W        W81289  36.271  33.151  13.091
 8222W        W81290  11.435  29.507   4.521
 8223W        W81291  25.451  20.700   3.193
 8224W        W81292  30.394  34.284  12.447
 8225W        W81293  41.865  36.858   0.943
 8226W        W81294  23.119  36.303   1.494
 8227W        W81295  12.813  10.751   4.538
 8228W        W81296  37.783  19.708   1.797
 8229W        W81297  29.906   2.469   1.216
 8230W        W81298  41.527   3.926   0.881
 8231W        W81299  12.795  27.266  13.477
 8232W        W81300  21.753   9.653   3.588
 8233W        W81301  42.421  21.969  10.993
 8234W        W81302  23.976  13.882   0.316
 8235W        W81303  17.979  33.578   3.795
 8236W        W81304   0.828  28.170  14.780
 8237W        W81305  29.122  29.138   1.410
 8238W        W81306  33.023   3.211   3.961
 8239W        W81307   1.870  26.511  12.479
 8240W        W81308  33.026   3.196   4.466
 8241W        W81309  31.817  42.166   2.825
 8242W        W81310  15.071   7.866   4.911
 8243W        W81311  12.730  12.632  12.656
 8244W        W81312  39.404  35.566   4.553
 8245W        W81313  21.604  41.174  14.783
 8246W        W81314  29.529  10.135   0.468
 8247W        W81315  24.749  38.898  10.070
 8248W        W81316   7.300   9.071   2.220
 8249W        W81317  41.818  30.323  11.917
 8250W        W81318  13.734  13.662  11.120
 8251W        W81319  16.815  39.182   0.729
 8252W        W81320  12.269  40.352  13.523
 8253W        W81321  13.631   0.552  14.610
 8254W        W81322  35.459  38.599   3.703
 8255W        W81323  15.803  18.425  11.200
 8256W        W81324  10.612  38.011   3.795
 8257W        W81325   1.294  43.552   0.065
 8258W        W81326  31.620   7.820   4.513
 8259W        W81327   1.420  24.640   4.380
 8260W        W81328  21.101  41.281   2.837
 8261W        W81329  25.007   2.700   4.131
 8262W        W81330  21.357  29.713  10.734
 8263W        W81331  25.121   6.132   1.196
 8264W        W81332  13.170  32.462  12.213
 8265W        W81333   4.805   7.205   9.834
 8266W        W81334  26.568  16.547  11.192
 8267W        W81335  44.004   0.088   4.682
 8268W        W81336  12.790  30.362   4.624
 8269W        W81337   0.040  22.451  13.372
 8270W        W81338  26.682  14.037   2.375
 8271W        W81339  36.764  37.362  12.215
 8272W        W81340  18.365  13.685  10.805
 8273W        W81341  18.068  18.055   1.472
 8274W        W81342  14.182  23.036   4.811
 8275W        W81343   7.944  27.610   3.589
 8276W        W81344  39.409  18.507  13.317
 8277W        W81345  26.483  26.288   4.059
 8278W        W81346  14.730  37.551   0.762
 8279W        W81347   2.730  15.817  11.197
 8280W        W81348  25.694  36.898  13.466
 8281W        W81349  42.285  15.164   2.320
 8282W        W81350  19.123  19.342   2.147
 8283W        W81351  31.291  35.153  14.438
 8284W        W81352  38.643   4.715   4.064
 8285W        W81353  39.133   4.232   2.876
 8286W        W81354  43.793  36.053  10.643
 8287W        W81355  12.229   0.074  13.820
 8288W        W81356  15.148  11.799  13.011
 8289W        W81357  44.776  24.316   2.899
 8290W        W81358  21.139   6.315  12.878
 8291W        W81359  28.969  42.770  12.930
 8292W        W81360  20.040  20.021  12.022
 8293W        W81361   3.478   6.400   4.062
 8294W        W81362  28.121  28.882  11.180
 8295W        W81363  10.393  36.968   3.351
 8296W        W81364  12.179  36.455  14.557
 8297W        W81365  23.970  24.511   1.940
 8298W        W81366   0.863   0.079  14.554
 8299W        W81367  25.934  17.209   2.126
 8300W        W81368  19.213  16.953   1.978
 8301W        W81369   7.689  11.551   2.786
 8302W        W81370  33.790   8.122  13.059
 8303W        W81371   3.748  24.629   0.012
 8304W        W81372  30.272  24.966  14.539
 8305W        W81373  29.293  41.678   0.996
 8306W        W81374   8.170  13.745   2.005
 8307W        W81375  42.520  28.671  13.259
 8308W        W81376  25.546  12.800  10.922
 8309W        W81377  42.411  41.866  12.566
 8310W        W81378  23.230  34.626  11.885
 8311W        W81379  41.567  26.307   2.639
 8312W        W81380  32.628  14.177   2.686
 8313W        W81381  36.331  22.054  10.681
 8314W        W81382  29.548  20.333   0.818
 8315W        W81383  18.823   9.123  14.452
 8316W        W81384   5.304   3.193  13.501
 8317W        W81385   9.846  24.178  12.976
 8318W        W81386  31.188  35.922   4.797
 8319W        W81387  10.923   4.394   2.321
 8320W        W81388  28.414  40.376  14.793
 8321W        W81389   6.445  23.568  12.878
 8322W        W81390  12.121  36.898   3.773
 8323W        W81391   5.211  39.921  13.362
 8324W        W81392  27.107   8.418   4.387
 8325W        W81393  21.646  34.795   0.395
 8326W        W81394   9.081  32.520   4.630
 8327W        W81395  29.834  22.903   2.190
 8328W        W81396  44.388  41.411   2.050
 8329W        W81397  23.472   1.522  12.101
 8330W        W81398   9.765   6.423   1.016
 8331W        W81399  30.911  33.378   1.976
 8332W        W81400  25.516  28.998  11.400
 8333W        W81401  14.603  19.177  12.154
 8334W        W81402  44.783  17.807   2.163
 8335W        W81403  15.350  21.254   0.694
 8336W        W81404   5.337  14.822   0.903
 8337W        W81405  14.380  10.707  11.226
 8338W        W81406  26.695   3.969   2.217
 8339W        W81407  10.649  23.161  12.870
 8340W        W81408  34.771  33.519  12.991
 8341W        W81409  31.430  29.077   0.995
 8342W        W81410  15.745  21.103  10.671
 8343W        W81411  14.713  27.692  13.862
 8344W        W81412  30.167   1.238   4.552
 8345W        W81413  10.586  35.706  12.607
 8346W        W81414  34.345   1.990  10.710
 8347W        W81415   0.208   0.851  11.438
 8348W        W81416   6.641  10.730   2.737
 8349W        W81417   2.473   2.897   1.794
 8350W        W81418  28.512  22.222   2.167
 8351W        W81419  33.007   3.381  13.901
 8352W        W81420  32.405  16.321   4.691
 8353W        W81421  32.985  14.056  12.995
 8354W        W81422   4.321  36.369  13.772
 8355W        W81423   7.937  42.478   3.803
 8356W        W81424  13.294  24.579   1.804
 8357W        W81425   6.936  25.081   0.853
 8358W        W81426  13.913  10.511  11.288
 8359W        W81427  40.675  40.461   1.756
 8360W        W81428  40.039  15.446   3.609
 8361W        W81429  40.143  18.202  10.299
 8362W        W81430  31.185  13.140   4.722
 8363W        W81431  21.695  15.756   1.922
 8364W        W81432  40.974  22.543   4.663
 8365W        W81433  17.779  32.825  11.130
 8366W        W81434  36.874  39.344   3.742
 8367W        W81435  18.697  36.776  12.385
 8368W        W81436  13.080   5.876   1.413
 8369W        W81437   6.308   0.999   0.894
 8370W        W81438  23.804  31.948   2.723
 8371W        W81439  36.816  20.353  10.787
 8372W        W81440   1.883   1.828  14.014
 8373W        W81441   6.253  43.922   0.927
 8374W        W81442  17.752  15.270   3.207
 8375W        W81443   0.345   1.322   3.975
 8376W        W81444  16.056  23.127   2.884
 8377W        W81445  40.707   8.281  13.290
 8378W        W81446  41.894   2.623   5.115
 8379W        W81447  40.537   2.424  12.887
 8380W        W81448   6.934  22.507  12.098
 8381W        W81449  15.879  41.714   2.359
 8382W        W81450  15.628  11.905  13.855
 8383W        W81451  13.440  30.164   2.485
 8384W        W81452  26.527  20.306  13.952
 8385W        W81453  35.511   6.810  11.162
 8386W        W81454   0.477  16.338  13.823
 8387W        W81455  32.365  35.608   4.211
 8388W        W81456  39.074  10.237   1.708
 8389W        W81457  28.466  39.522   0.428
 8390W        W81458  30.767  11.611  11.969
 8391W        W81459  10.949   7.246  14.837
 8392W        W81460  14.064  40.891   4.267
 8393W        W81461  35.388  31.421   4.969
 8394W        W81462  24.762  31.422   2.422
 8395W        W81463   7.696  42.803  14.337
 8396W        W81464   9.674  21.502   3.805
 8397W        W81465  35.403  36.927  11.845
 8398W        W81466  44.091  42.770   2.712
 8399W        W81467  43.311  18.212  12.869
 8400W        W81468  34.461  44.490  13.519
 8401W        W81469  12.261  35.513   2.856
 8402W        W81470  32.385  12.588   2.222
 8403W        W81471  39.586  36.462  11.893
 8404W        W81472  30.471  37.047   1.475
 8405W        W81473  32.377  36.540   3.220
 8406W        W81474   7.604  11.933  13.982
 8407W        W81475  10.234  44.891  11.699
 8408W        W81476  16.281  28.557   4.660
 8409W        W81477  18.678  12.780  12.574
 8410W        W81478   5.424  24.104   1.838
 8411W        W81479  32.872   5.799   1.703
 8412W        W81480  12.103  44.844   1.764
 8413W        W81481   0.548  40.388   1.907
 8414W        W81482  37.082  41.332   0.063
 8415W        W81483  34.651  12.054  12.941
 8416W        W81484  42.354  36.177  12.016
 8417W        W81485  40.819  24.106   4.604
 8418W        W81486  18.651   3.785  10.734
 8419W        W81487  29.079  12.722  13.994
 8420W        W81488  39.935  12.010  14.769
 8421W        W81489  42.900  25.638  13.525
 8422W        W81490  33.440  36.981  11.134
 8423W        W81491  16.024  39.401  14.230
 8424W        W81492  30.327   9.410  11.410
 8425W        W81493   5.135  13.551  13.886
 8426W        W81494  26.092  41.832  13.085
 8427W        W81495  12.053   2.450  10.724
 8428W        W81496  36.356  31.925  11.997
 8429W        W81497  21.785  20.789   4.415
 8430W        W81498  21.010  29.449   1.385
 8431W        W81499   2.432  19.648  13.014
 8432W        W81500  15.659  15.199  11.226
 8433W        W81501  18.812   7.086  10.273
 8434W        W81502  33.059   0.153   1.524
 8435W        W81503  40.336  40.258  14.380
 8436W        W81504   2.724   1.827   4.933
 8437W        W81505  28.641  31.970   4.365
 8438W        W81506  36.813  37.973  10.704
 8439W        W81507  22.557  30.286   4.126
 8440W        W81508   4.327  16.614   2.408
 8441W        W81509  25.890   8.695  10.352
 8442W        W81510  21.634  29.000   2.683
 8443W        W81511  40.010  23.531   4.350
 8444W        W81512   5.359   1.513   2.688
 8445W        W81513  26.989  33.249  13.000
 8446W        W81514   6.339  43.720  13.575
 8447W        W81515  40.384  14.691   3.568
 8448W        W81516  28.784  25.686  13.964
 8449W        W81517  42.281   1.496  11.167
 8450W        W81518   2.941  19.643  13.114
 8451W        W81519   4.279  30.948   1.796
 8452W        W81520  39.815   3.039  13.445
 8453W        W81521  19.818  41.605   5.011
 8454W        W81522   1.727  28.305  12.852
 8455W        W81523  20.783  32.606   3.352
 8456W        W81524  17.511  42.911  11.638
 8457W        W81525   3.398  34.052   3.202
 8458W        W81526  16.356  32.483  14.908
 8459W        W81527  16.828  28.462   3.545
 8460W        W81528   4.977  42.786   0.947
 8461W        W81529  31.627  23.258   4.232
 8462W        W81530  21.783   2.224  14.779
 8463W        W81531  34.114  37.973   2.979
 8464W        W81532   3.643  15.123  12.949
 8465W        W81533   7.186  29.210   0.692
 8466W        W81534  12.589   5.490  14.533
 8467W        W81535  28.806  28.526  13.912
 8468W        W81536  22.427  40.472  11.591
 8469W        W81537  42.320  42.939   4.060
 8470W        W81538   3.713  24.390  14.368
 8471W        W81539   1.458  15.616  10.627
 8472W        W81540   5.306  26.509   3.660
 8473W        W81541  20.624  12.114   2.410
 8474W        W81542  31.978  26.051  12.172
 8475W        W81543   2.186  36.437   0.464
 8476W        W81544  30.678   8.310   1.263
 8477W        W81545  17.159  40.794   3.318
 8478W        W81546  38.491  27.884  11.616
 8479W        W81547  19.149  27.224   4.562
 8480W        W81548  16.488  11.735   4.624
 8481W        W81549  28.554  20.047  14.001
 8482W        W81550  28.411  21.196   5.054
 8483W        W81551  35.618   6.949   1.472
 8484W        W81552   9.626  29.038  10.928
 8485W        W81553  39.070  13.963   4.939
 8486W        W81554   8.039  35.079  12.622
 8487W        W81555  27.101   2.355   3.786
 8488W        W81556  24.628  28.093  12.515
 8489W        W81557   8.981  34.578  10.838
 8490W        W81558  44.768  15.085   0.956
 8491W        W81559  25.741  22.146   4.288
 8492W        W81560  16.367  41.650   1.673
 8493W        W81561   5.765   0.774  14.025
 8494W        W81562  23.887  26.529   4.263
 8495W        W81563   2.873  36.416  13.358
 8496W        W81564  16.761  15.537  13.526
 8497W        W81565   8.651  21.719   3.280
 8498W        W81566  38.882   6.364  13.777
 8499W        W81567  36.991  43.347   1.739
 8500W        W81568  41.160  12.746   0.500
 8501W        W81569  38.779  25.987   3.243
 8502W        W81570  23.230  37.045   0.722
 8503W        W81571  43.977  31.194   1.005
 8504W        W81572  41.305  22.708   0.971
 8505W        W81573   5.605  26.665  11.529
 8506W        W81574  42.959  30.417   0.366
 8507W        W81575   3.182  43.909  13.360
 8508W        W81576  28.393   4.445   0.835
 8509W        W81577  15.140  24.980  11.628
 8510W        W81578   3.303  28.383   1.498
 8511W        W81579   1.791  41.583   4.054
 8512W        W81580   5.244   1.527   1.672
 8513W        W81581  29.456  43.027   2.852
 8514W        W81582  13.304  43.422  13.020
 8515W        W81583  39.879  18.072  14.102
 8516W        W81584  41.328  12.550   4.776
 8517W        W81585  41.437   1.681   4.145
 8518W        W81586  33.787  43.900   1.791
 8519W        W81587  30.467   2.944   1.883
 8520W        W81588  30.285  29.527   3.817
 8521W        W81589   5.885  32.459   0.959
 8522W        W81590  19.075  41.927   0.010
 8523W        W81591  32.406   9.693  10.725
 8524W        W81592  25.796  32.358   1.443
 8525W        W81593   5.673  20.073  12.822
 8526W        W81594  11.752  40.304   1.788
 8527W        W81595  41.233  42.506   1.313
 8528W        W81596  19.242  18.028   1.660
 8529W        W81597  13.309  32.326  14.237
 8530W        W81598  27.663   3.815   3.911
 8531W        W81599  39.219  34.155  11.128
 8532W        W81600   2.968  24.180  14.897
 8533W        W81601  20.599   6.154  11.560
 8534W        W81602   9.660  11.372   0.730
 8535W        W81603  25.934   5.955  13.495
 8536W        W81604  14.565   4.787  10.748
 8537W        W81605  40.225  43.886  11.225
 8538W        W81606  12.378  32.806   1.455
 8539W        W81607  22.144   2.164   4.149
 8540W        W81608  30.261  31.892   0.398
 8541W        W81609  26.987  29.702  10.677
 8542W        W81610  30.637  43.191   4.295
 8543W        W81611  24.144   2.209   3.851
 8544W        W81612  12.345   0.884   1.044
 8545W        W81613  12.647  20.473   4.471
 8546W        W81614  44.927  12.165  12.545
 8547W        W81615  12.461  17.839   1.923
 8548W        W81616  34.079  12.628   0.210
 8549W        W81617   7.235  15.027   0.876
 8550W        W81618  20.003  28.333   0.232
 8551W        W81619  27.656   8.855  10.703
 8552W        W81620   2.176  27.977   3.207
 8553W        W81621  35.566   2.339   0.999
 8554W        W81622  35.555  31.516   2.877
 8555W        W81623  24.120  38.393  14.237
 8556W        W81624  17.077  43.966   2.926
 8557W        W81625  16.016  14.823  11.193
 8558W        W81626  35.798  24.534  13.533
 8559W        W81627  28.232  34.454   1.750
 8560W        W81628  23.247  16.670   9.854
 8561W        W81629  33.476  14.782  10.483
 8562W        W81630   8.124   3.837   1.917
 8563W        W81631  18.712  16.209  10.905
 8564W        W81632  21.632  14.826  11.554
 8565W        W81633  12.728  25.803  11.175
 8566W        W81634  19.689  13.195   1.285
 8567W        W81635  40.290  16.885   0.301
 8568W        W81636  23.875  20.904  11.554
 8569W        W81637  44.203  22.362   4.213
 8570W        W81638  22.676  31.505   4.613
 8571W        W81639  43.695   2.301   4.265
 8572W        W81640  11.284  38.436   2.900
 8573W        W81641   4.106  41.111  12.609
 8574W        W81642   0.001   1.271  12.085
 8575W        W81643  35.989   4.441   3.141
 8576W        W81644   3.958  19.783  11.654
 8577W        W81645  14.806  34.598  10.711
 8578W        W81646  39.212  43.910   4.284
 8579W        W81647   9.574  26.221   3.644
 8580W        W81648   0.166  11.113  11.115
 8581W        W81649  32.983  23.010   1.767
 8582W        W81650  39.325  23.299   2.815
 8583W        W81651  43.583  33.578   4.307
 8584W        W81652   0.954  37.618  13.962
 8585W        W81653  11.436  17.311   2.629
 8586W        W81654   1.934  11.696   3.236
 8587W        W81655  14.515   0.429  11.181
 8588W        W81656  42.712  23.605  11.467
 8589W        W81657  15.896  38.309   1.033
 8590W        W81658  24.488  44.342   4.944
 8591W        W81659  13.822  12.556  11.693
 8592W        W81660  29.625  31.973  13.858
 8593W        W81661  25.201   6.215   4.984
 8594W        W81662   1.914  18.695  14.877
 8595W        W81663   4.848  10.204   3.700
 8596W        W81664   7.156  43.925   2.253
 8597W        W81665  23.176  19.032  12.087
 8598W        W81666  35.207  38.642  13.694
 8599W        W81667  13.885  22.016  12.125
 8600W        W81668  10.708  28.172   9.949
 8601W        W81669  29.971   8.607   2.335
 8602W        W81670   9.441   0.768  12.491
 8603W        W81671  28.565   1.683  11.926
 8604W        W81672  40.269  41.291  13.577
 8605W        W81673   8.655  39.829   4.582
 8606W        W81674   8.600  18.332   2.311
 8607W        W81675  33.853   1.549   0.676
 8608W        W81676  34.029  42.384   2.081
 8609W        W81677   6.821  29.397  10.570
 8610W        W81678   2.427  29.662   0.975
 8611W        W81679  13.269  22.556   1.906
 8612W        W81680  32.047  21.271  12.277
 8613W        W81681  14.716   1.012   0.421
 8614W        W81682   1.426   5.437   0.463
 8615W        W81683  20.090  11.543   1.459
 8616W        W81684  28.404  32.918  13.905
 8617W        W81685   3.410   3.310  13.146
 8618W        W81686  22.965  14.471  12.597
 8619W        W81687  23.220  11.368   1.419
 8620W        W81688  43.782  13.229  14.835
 8621W        W81689  30.559  18.714   4.937
 8622W        W81690  23.102  27.289   1.751
 8623W        W81691  20.854   1.414  12.579
 8624W        W81692  28.581  23.222   2.427
 8625W        W81693   2.009  40.795  14.832
 8626W        W81694  35.666  23.398   4.986
 8627W        W81695  36.133  13.460   3.223
 8628W        W81696  20.605  23.727   3.373
 8629W        W81697  43.433  20.251  10.661
 8630W        W81698  41.841   2.109   2.516
 8631W        W81699  11.332   1.024  14.754
 8632W        W81700   5.387  33.101  13.338
 8633W        W81701  38.061   9.811   0.036
 8634W        W81702  17.616  26.362  11.671
 8635W        W81703   2.214  14.364  13.791
 8636W        W81704  26.487  13.753   0.187
 8637W        W81705  23.581  33.333  11.835
 8638W        W81706  29.986  30.463  14.983
 8639W        W81707  35.865  40.843  13.415
 8640W        W81708   7.250  39.033  12.163
 8641W        W81709  28.384  42.276   2.379
 8642W        W81710  23.662  28.713  12.457
 8643W        W81711  35.132  39.326  12.942
 8644W        W81712   9.873  39.405   3.595
 8645W        W81713  13.176  22.225   2.812
 8646W        W81714  11.398  24.078   1.263
 8647W        W81715  13.572  35.058  11.956
 8648W        W81716  13.695  17.045   0.889
 8649W        W81717  22.027   3.178   4.222
 8650W        W81718  41.740  32.972  12.949
 8651W        W81719  17.063   2.642   4.547
 8652W        W81720   8.261  22.930   3.091
 8653W        W81721  35.000  34.868   4.119
 8654W        W81722  16.070  30.083   1.766
 8655W        W81723  30.525   8.132   3.675
 8656W        W81724  44.462   8.220   4.688
 8657W        W81725   9.384  12.393   3.654
 8658W        W81726  23.381  14.599  14.999
 8659W        W81727   3.649   7.988  12.955
 8660W        W81728  18.308  28.357   4.718
 8661W        W81729  23.736  12.120   1.644
 8662W        W81730  34.050  23.232   3.064
 8663W        W81731  44.650  21.221   5.079
 8664W        W81732   1.807  27.274  13.064
 8665W        W81733  19.512  38.191   4.120
 8666W        W81734  34.172   6.768  10.714
 8667W        W81735  43.772  12.670   3.635
 8668W        W81736   9.629  42.483   0.381
 8669W        W81737  22.539  39.927  14.008
 8670W        W81738  16.309  40.232   1.272
 8671W        W81739  35.297   9.745  11.269
 8672W        W81740  14.334  41.852  14.567
 8673W        W81741  24.240  17.346  12.940
 8674W        W81742  36.934   8.152  11.102
 8675W        W81743  23.052  28.612  12.011
 8676W        W81744  43.321   0.320   3.177
 8677W        W81745  20.761  37.782   1.435
 8678W        W81746  38.831  44.835  10.724
 8679W        W81747  18.634  22.478   5.177
 8680W        W81748  44.308  23.681  10.166
 8681W        W81749  27.684  32.447  11.546
 8682W        W81750  42.794  27.946  12.041
 8683W        W81751   8.197   5.453   2.663
 8684W        W81752  23.685  31.071   3.770
 8685W        W81753  39.848   1.793  13.944
 8686W        W81754  42.034   6.684  13.361
 8687W        W81755  41.216   8.715   5.408
 8688W        W81756   3.936  36.935   4.141
 8689W        W81757   9.887   6.213  13.080
 8690W        W81758   6.186  23.696   0.076
 8691W        W81759  39.591  41.909   2.709
 8692W        W81760  40.534  25.711   2.889
 8693W        W81761  34.118  11.882  13.874
 8694W        W81762  31.564  36.394  14.228
 8695W        W81763  18.349  43.268   2.637
 8696W        W81764  41.261  32.611  13.930
 8697W        W81765  42.992  18.744   1.251
 8698W        W81766   8.172  33.896   4.238
 8699W        W81767  22.166  21.721  13.855
 8700W        W81768  21.518  20.518   3.710
 8701W        W81769   1.342  42.116  12.862
 8702W        W81770   5.146  36.325  14.240
 8703W        W81771  18.699  39.524   1.855
 8704W        W81772  42.328   2.256   0.047
 8705W        W81773  41.102  40.109  14.436
 8706W        W81774  29.267  17.670   4.726
 8707W        W81775  19.373  41.469   0.716
 8708W        W81776  34.105   9.987   2.369
 8709W        W81777  42.050  23.590   1.243
 8710W        W81778   2.576  29.347   3.360
 8711W        W81779  37.592  27.036   0.441
 8712W        W81780  12.541  38.922   4.314
 8713W        W81781  37.734  21.157   2.981
 8714W        W81782  13.934  41.972  12.477
 8715W        W81783  24.605  36.024  12.504
 8716W        W81784  39.056   9.206   1.569
 8717W        W81785  31.524   3.898   1.818
 8718W        W81786  40.980   7.605  11.963
 8719W        W81787  20.287  15.682   4.026
 8720W        W81788   5.711   0.722   2.419
 8721W        W81789  14.237  24.523  11.613
 8722W        W81790  40.400  31.805  11.469
 8723W        W81791  20.240  14.545   4.259
 8724W        W81792  26.405  36.494   4.174
 8725W        W81793  14.274  43.563   3.705
 8726W        W81794  34.111  35.463   3.316
 8727W        W81795  14.718  15.618  10.748
 8728W        W81796  40.290  30.859  14.214
 8729W        W81797  17.227  35.819  10.594
 8730W        W81798  14.679  41.065  10.653
 8731W        W81799  32.830  42.927   3.804
 8732W        W81800  31.647  17.660  14.795
 8733W        W81801   7.308   9.796   4.475
 8734W        W81802  35.836  14.141  12.909
 8735W        W81803  40.362   1.317  13.443
 8736W        W81804  17.651   7.242   3.429
 8737W        W81805  41.830  26.110  10.779
 8738W        W81806  40.680   5.880  12.453
 8739W        W81807   8.339  39.006   4.600
 8740W        W81808  39.273  16.331  11.628
 8741W        W81809  34.901  15.553  11.108
 8742W        W81810  18.471  40.711   2.787
 8743W        W81811  29.473  14.730  11.487
 8744W        W81812  42.489  19.703   1.959
 8745W        W81813   9.767  34.903  13.134
 8746W        W81814  21.250  44.096   4.153
 8747W        W81815   0.986  36.617   4.563
 8748W        W81816   3.288   5.319  12.968
 8749W        W81817   4.271  11.004  13.885
 8750W        W81818  29.737  44.068   1.237
 8751W        W81819  19.128  29.905   4.638
 8752W        W81820  22.962   5.528   1.008
 8753W        W81821  34.441  16.024   1.431
 8754W        W81822  12.938  38.146   4.531
 8755W        W81823  27.935  27.983   2.653
 8756W        W81824  23.539   3.663   1.360
 8757W        W81825  19.726   7.150   4.156
 8758W        W81826  33.329  31.968  13.586
 8759W        W81827   0.029  13.999  14.387
 8760W        W81828  25.881  25.998  12.087
 8761W        W81829  18.488  19.767   2.920
 8762W        W81830  12.392  39.983   1.434
 8763W        W81831  12.631  17.648  14.400
 8764W        W81832  42.470  30.508   3.230
 8765W        W81833  28.929  24.210   2.795
 8766W        W81834  29.318  13.664   1.676
 8767W        W81835  31.613  33.163   2.246
 8768W        W81836   1.014  17.619   1.218
 8769W        W81837  30.182   5.653  13.613
 8770W        W81838  18.078  15.570  11.411
 8771W        W81839  42.410   3.453   0.854
 8772W        W81840  34.177   2.938  14.556
 8773W        W81841  26.195  41.993   1.979
 8774W        W81842  27.684  39.565  14.470
 8775W        W81843  20.586   0.813   1.737
 8776W        W81844  10.423  10.848   3.209
 8777W        W81845   3.959   5.150   2.118
 8778W        W81846   1.737  11.292  14.732
 8779W        W81847  28.279  37.604  14.333
 8780W        W81848   3.467   0.463   4.042
 8781W        W81849  32.981   1.391  11.572
 8782W        W81850  16.487  43.399   3.275
 8783W        W81851  40.523   9.767  11.543
 8784W        W81852  28.996   3.731  10.663
 8785W        W81853  12.142   9.229   3.162
 8786W        W81854  17.672  39.439   4.353
 8787W        W81855   7.141  26.194  12.519
 8788W        W81856   1.379  37.914  13.906
 8789W        W81857   6.871  26.012  12.926
 8790W        W81858  23.551  28.260   2.256
 8791W        W81859  26.213  40.188  10.925
 8792W        W81860  27.616  29.478  13.446
 8793W        W81861  34.673   2.469  14.227
 8794W        W81862  30.000  21.258  10.580
 8795W        W81863  38.627  27.418   0.170
 8796W        W81864  23.140   1.708   1.863
 8797W        W81865   1.381   5.453   1.378
 8798W        W81866  17.118  28.188  14.280
 8799W        W81867  14.532  23.604  11.187
 8800W        W81868  20.181  32.948   2.862
 8801W        W81869  39.876  29.059   1.609
 8802W        W81870   3.967   0.548  14.985
 8803W        W81871  28.062   8.530   0.706
 8804W        W81872  39.488  29.335  13.072
 8805W        W81873  29.748  44.453  14.265
 8806W        W81874  39.600  26.467  11.020
 8807W        W81875  24.699  29.429  11.206
 8808W        W81876  17.842  32.764  11.831
 8809W        W81877  15.166  43.872   1.496
 8810W        W81878   0.252  35.410  12.929
 8811W        W81879  21.608  39.481  11.353
 8812W        W81880  36.235  12.290   4.385
 8813W        W81881  19.045  13.847   3.218
 8814W        W81882   0.016  31.795   0.230
 8815W        W81883  36.383  26.666  10.930
 8816W        W81884  12.391  33.465   3.176
 8817W        W81885  17.262  31.637  13.323
 8818W        W81886  23.716  40.365   4.372
 8819W        W81887  29.135  39.997   2.607
 8820W        W81888  38.575  38.606  13.834
 8821W        W81889  25.205  44.640   2.385
 8822W        W81890  24.493  11.840  10.397
 8823W        W81891  43.730  36.378   4.132
 8824W        W81892  16.134  22.535  10.330
 8825W        W81893  43.037  28.568   0.938
 8826W        W81894  28.546   3.150   3.488
 8827W        W81895  12.290   9.181   2.306
 8828W        W81896  15.237  39.548   2.188
 8829W        W81897  19.700  39.792  11.521
 8830W        W81898  43.516  32.472   1.747
 8831W        W81899  25.153  24.064   4.928
 8832W        W81900  38.583  41.033   3.345
 8833W        W81901   2.940  26.025  10.796
 8834W        W81902  30.648  44.957   2.455
 8835W        W81903  22.750   7.950   3.147
 8836W        W81904   9.560  39.437  12.000
 8837W        W81905   4.282  29.843   3.441
 8838W        W81906  33.515   1.900   0.519
 8839W        W81907  16.059  41.286   2.113
 8840W        W81908   7.424  14.724   4.273
 8841W        W81909   5.481  33.906   2.885
 8842W        W81910  29.865  37.070  13.117
 8843W        W81911  33.824   9.355   1.865
 8844W        W81912  38.475  36.168  12.920
 8845W        W81913  11.815  22.638  10.814
 8846W        W81914  29.502  11.775   1.470
 8847W        W81915  30.788  30.168   1.897
 8848W        W81916  17.659  41.113  11.626
 8849W        W81917  34.069  40.352  11.641
 8850W        W81918   3.181  42.312  13.858
 8851W        W81919  25.168  44.608  11.154
 8852W        W81920  43.330  15.300  11.870
 8853W        W81921  13.580   6.645   3.791
 8854W        W81922  29.627  39.555  12.827
 8855W        W81923  43.273  35.676  12.088
 8856W        W81924  26.602  11.696   4.083
 8857W        W81925  36.972   5.249  11.467
 8858W        W81926  38.092  38.003  12.056
 8859W        W81927  11.005  22.087   1.722
 8860W        W81928  42.474   0.942   4.382
 8861W        W81929  38.150  24.233   2.351
 8862W        W81930  17.429   2.494   3.318
 8863W        W81931  38.147  35.623  13.439
 8864W        W81932  23.146  26.584  13.865
 8865W        W81933  28.658  19.978   1.721
 8866W        W81934  20.596  29.679  14.592
 8867W        W81935  25.255  20.809  10.516
 8868W        W81936  38.782  36.983   0.514
 8869W        W81937   2.775  25.447   1.906
 8870W        W81938  31.133  28.881  11.552
 8871W        W81939   0.756  38.144   4.385
 8872W        W81940   7.417  32.159  14.441
 8873W        W81941  34.484  10.664   2.317
 8874W        W81942  21.987  41.248   4.651
 8875W        W81943  38.190  28.638  14.935
 8876W        W81944  12.300  12.733  10.744
 8877W        W81945  44.043   5.301  13.157
 8878W        W81946  32.019  10.408  14.828
 8879W        W81947   7.039  18.794   1.255
 8880W        W81948   7.016  31.922  14.242
 8881W        W81949  24.092   2.051   3.005
 8882W        W81950   7.376  33.912   3.814
 8883W        W81951   4.925  35.052   2.853
 8884W        W81952  23.359  43.451   0.864
 8885W        W81953  35.922  38.909  12.499
 8886W        W81954  17.145  23.449  11.593
 8887W        W81955   4.377  12.855  10.956
 8888W        W81956  38.578  31.012  11.363
 8889W        W81957  21.287   7.341   4.877
 8890W        W81958  21.553  26.246   2.239
 8891W        W81959   8.074  40.437   1.911
 8892W        W81960  28.900  25.489   1.023
 8893W        W81961  15.868  15.857   4.358
 8894W        W81962  27.716  11.011  14.253
 8895W        W81963  27.020  15.455   2.305
 8896W        W81964  31.666  15.669  13.466
 8897W        W81965  37.409  10.981   0.420
 8898W        W81966   6.804  13.884  13.035
 8899W        W81967   6.230  32.242  10.716
 8900W        W81968  37.348   8.052   5.111
 8901W        W81969  14.586  14.780  13.847
 8902W        W81970  10.135  31.009   4.075
 8903W        W81971  21.168  40.764   4.746
 8904W        W81972  30.797  13.584  14.506
 8905W        W81973  16.373  21.748   2.772
 8906W        W81974  13.711  37.496  14.382
 8907W        W81975   6.405  38.986  14.246
 8908W        W81976   2.489  18.257   2.451
 8909W        W81977   5.917  11.168  13.869
 8910W        W81978  17.304   0.452  12.278
 8911W        W81979  14.830   1.863   0.963
 8912W        W81980  31.617  35.619   0.845
 8913W        W81981  19.082  18.075   1.157
 8914W        W81982   6.129  30.940  12.512
 8915W        W81983  14.677  17.850   3.153
 8916W        W81984  17.992  25.046  14.850
 8917W        W81985  30.482  19.556   3.188
 8918W        W81986  37.181  25.261  12.995
 8919W        W81987  19.513  32.467  10.601
 8920W        W81988  27.936  23.535   3.592
 8921W        W81989  34.912  21.627  12.975
 8922W        W81990   7.258  24.190   2.781
 8923W        W81991   0.891   6.698   1.518
 8924W        W81992   7.772   0.539  11.201
 8925W        W81993  31.221  15.390   1.033
 8926W        W81994  29.190  32.066   0.546
 8927W        W81995  25.039  43.846   0.500
 8928W        W81996  41.956  36.558  12.180
 8929W        W81997  25.602  28.889   2.818
 8930W        W81998  31.445   9.302   1.049
 8931W        W81999  36.629  15.171  11.123
 8932W        W82000  41.979  39.066  14.416
 8933W        W82001  12.847  10.033   0.437
 8934W        W82002  13.831   0.083  13.485
 8935W        W82003  38.955   5.475  12.093
 8936W        W82004  35.824   1.310   3.885
 8937W        W82005  42.065  14.226   3.687
 8938W        W82006  11.719  13.557   2.660
 8939W        W82007   7.598  13.767   3.228
 8940W        W82008  34.177  27.941  13.038
 8941W        W82009  39.031  25.672   1.248
 8942W        W82010  27.732   2.907   3.141
 8943W        W82011  11.569  22.101  13.499
 8944W        W82012  29.305   5.971  13.327
 8945W        W82013  21.624  14.285   0.419
 8946W        W82014  10.195  41.275  12.987
 8947W        W82015  34.281  18.100   4.745
 8948W        W82016  42.206  10.324   9.841
 8949W        W82017   3.514   2.802   1.754
 8950W        W82018  36.288  13.764   1.900
 8951W        W82019   8.954  20.324  10.730
 8952W        W82020  12.183  43.993  10.416
 8953W        W82021  18.469  28.559   2.853
 8954W        W82022  43.915  37.880   1.467
 8955W        W82023  38.717  23.995  14.886
 8956W        W82024  22.662  25.443   0.812
 8957W        W82025  12.809   8.732   1.711
 8958W        W82026  26.736  10.813  13.045
 8959W        W82027  35.912  37.099   0.413
 8960W        W82028  33.719  28.334   2.894
 8961W        W82029   9.852  29.557  14.856
 8962W        W82030   5.678  25.564  12.073
 8963W        W82031  11.435  14.703   2.261
 8964W        W82032  22.621   1.954   4.112
 8965W        W82033  39.116   5.933  13.963
 8966W        W82034   2.749  17.868   4.081
 8967W        W82035  16.572  10.254   4.528
 8968W        W82036   1.984  14.833  13.602
 8969W        W82037   2.974  44.405  13.660
 8970W        W82038  33.517  36.211   2.980
 8971W        W82039  34.766   5.755   0.473
 8972W        W82040  25.938  10.750  10.338
 8973W        W82041   1.407   7.992  12.462
 8974W        W82042  29.027  13.992  13.272
 8975W        W82043   1.875   1.021  11.015
 8976W        W82044   0.157  25.475  12.379
 8977W        W82045   7.269  14.420  13.567
 8978W        W82046  10.555  29.656   0.943
 8979W        W82047   4.755  27.677  13.817
 8980W        W82048  32.121   1.703   2.874
 8981W        W82049   3.278  39.914  10.989
 8982W        W82050  30.139  27.438  11.988
 8983W        W82051   3.462  43.973  14.861
 8984W        W82052  10.882  36.474  11.553
 8985W        W82053  18.628  39.072   3.346
 8986W        W82054  32.553  23.793  14.990
 8987W        W82055  40.519  13.830   1.321
 8988W        W82056  14.608   1.934   3.718
 8989W        W82057   2.071  17.051  11.287
 8990W        W82058  11.358  10.333   1.421
 8991W        W82059  21.210  17.025  14.429
 8992W        W82060  39.564  10.422  13.286
 8993W        W82061  17.067  11.254   0.515
 8994W        W82062  37.542   7.115   3.091
 8995W        W82063   7.226  26.976   2.906
 8996W        W82064  32.504  25.469  14.189
 8997W        W82065   9.064   6.967   0.461
 8998W        W82066  26.666   1.507  10.609
 8999W        W82067  26.989  36.400   0.709
 9000W        W82068  30.219   6.099  13.339
 9001W        W82069  14.144  13.286  13.918
 9002W        W82070  19.253   9.207   4.601
 9003W        W82071  20.784  35.449  14.964
 9004W        W82072  13.301  32.046   2.241
 9005W        W82073  25.139  37.381  11.545
 9006W        W82074  15.096  30.465  14.908
 9007W        W82075  30.698  10.195   3.300
 9008W        W82076   0.046  38.860   3.724
 9009W        W82077  41.393  20.541   2.321
 9010W        W82078   6.189  24.625  10.385
 9011W        W82079  35.934  26.718  10.693
 9012W        W82080  28.979   4.615   2.529
 9013W        W82081  41.861   0.677  12.094
 9014W        W82082  11.083  11.369  13.579
 9015W        W82083  39.984  37.876   3.927
 9016W        W82084   5.659  12.745   4.704
 9017W        W82085   3.304   7.477  12.158
 9018W        W82086  17.345   1.365   4.761
 9019W        W82087  18.169  44.700   4.015
 9020W        W82088  18.664  19.157   4.579
 9021W        W82089  30.706   7.462   0.530
 9022W        W82090  11.056  41.256  10.190
 9023W        W82091  30.832  30.119   1.000
 9024W        W82092  24.575  30.163   0.539
 9025W        W82093   3.419  43.688   4.821
 9026W        W82094  25.973  44.362   2.650
 9027W        W82095  14.093  43.490  14.960
 9028W        W82096  23.026  27.479  12.415
 9029W        W82097   1.779  39.139   0.407
 9030W        W82098  10.183  28.639   1.784
 9031W        W82099   0.215  33.843  11.150
 9032W        W82100  27.604  20.474  10.710
 9033W        W82101   5.972   7.394   2.151
 9034W        W82102  15.790  43.267   0.338
 9035W        W82103   9.079   3.848   4.554
 9036W        W82104  12.806  13.854   4.982
 9037W        W82105  40.474  15.379   1.260
 9038W        W82106  42.416  28.571  12.419
 9039W        W82107   3.733  13.420  13.362
 9040W        W82108   6.547  40.852  11.111
 9041W        W82109  16.696   3.059  10.739
 9042W        W82110  26.658  19.017  13.451
 9043W        W82111  24.141   7.396   0.371
 9044W        W82112  18.598  16.515  14.492
 9045W        W82113  44.256  30.982  14.403
 9046W        W82114  30.187  25.819   4.055
 9047W        W82115  13.792  25.412   2.291
 9048W        W82116   1.455  40.260  14.729
 9049W        W82117  29.030  25.224   3.705
 9050W        W82118   9.254  12.922  12.477
 9051W        W82119  31.583  35.603   2.881
 9052W        W82120  16.136   5.876  11.121
 9053W        W82121   4.476  19.164  11.967
 9054W        W82122  23.160  24.687   4.576
 9055W        W82123  35.442  17.034   3.647
 9056W        W82124  35.696  41.417   0.462
 9057W        W82125  29.538  44.996   0.297
 9058W        W82126  21.622  44.806   2.270
 9059W        W82127  44.529  24.852  11.857
 9060W        W82128  36.306  13.101  11.237
 9061W        W82129  33.033  35.569  10.628
 9062W        W82130  42.430  24.564  11.166
 9063W        W82131  18.671  28.868   1.810
 9064W        W82132   8.159  38.259  10.298
 9065W        W82133  39.553   2.820  11.865
 9066W        W82134  33.339  13.675   4.545
 9067W        W82135  28.172  29.770   0.162
 9068W        W82136  31.144  18.325   3.193
 9069W        W82137  34.998  39.519   3.149
 9070W        W82138  26.465  43.531   2.650
 9071W        W82139  41.485   6.379   0.345
 9072W        W82140  43.270  28.787   1.821
 9073W        W82141  16.891  41.396  14.046
 9074W        W82142  18.283  32.392  10.412
 9075W        W82143  10.941  23.012  12.469
 9076W        W82144  18.373  28.819   4.963
 9077W        W82145  37.817   1.897  12.482
 9078W        W82146  40.526  19.682  12.556
 9079W        W82147   9.775   2.915  12.813
 9080W        W82148  13.130  29.100  14.793
 9081W        W82149  26.100  35.139   1.436
 9082W        W82150  30.886  30.381  14.768
 9083W        W82151  33.591  25.513   1.172
 9084W        W82152  39.318  34.971  11.689
 9085W        W82153   8.142  24.195  13.420
 9086W        W82154  14.753  12.848   0.271
 9087W        W82155   9.211   9.103  11.158
 9088W        W82156  29.157  14.604  11.886
 9089W        W82157  29.149   3.770   2.228
 9090W        W82158   0.732   4.229  10.248
 9091W        W82159  34.869   7.297   4.390
 9092W        W82160  13.702  28.583   2.058
 9093W        W82161  17.710  25.958  11.966
 9094W        W82162  27.009  31.697   3.696
 9095W        W82163  44.912  38.396  10.868
 9096W        W82164  20.941   4.153  14.881
 9097W        W82165  22.143  42.842  10.906
 9098W        W82166  40.186  40.303   1.826
 9099W        W82167  29.043  21.892  14.444
 9100W        W82168  30.067  21.960   0.228
 9101W        W82169  34.923  29.544   1.514
 9102W        W82170  10.719  43.844  13.337
 9103W        W82171   8.321  28.123   1.532
 9104W        W82172  24.401  17.680   1.160
 9105W        W82173  33.540   8.413   3.648
 9106W        W82174  29.952  23.365   1.390
 9107W        W82175   5.500  29.968   2.658
 9108W        W82176  33.452  13.712   3.697
 9109W        W82177   1.381  39.437   2.417
 9110W        W82178   1.232   5.220   2.677
 9111W        W82179   8.791  21.652   2.278
 9112W        W82180  36.858  41.955   3.191
 9113W        W82181  31.156   9.361   3.183
 9114W        W82182  10.149   6.805  11.546
 9115W        W82183  13.683  25.993   4.574
 9116W        W82184  10.747   6.350   1.331
 9117W        W82185  24.474   3.309  12.088
 9118W        W82186  44.989  17.364  10.978
 9119W        W82187  15.354   6.786  12.955
 9120W        W82188  38.829   7.845  13.225
 9121W        W82189  26.459  31.067  11.897
 9122W        W82190  33.357  22.054  10.613
 9123W        W82191  16.150  22.910  14.885
 9124W        W82192  25.728   9.245   1.846
 9125W        W82193  10.634   2.493   1.468
 9126W        W82194  38.189   1.528   1.812
 9127W        W82195  37.902  29.615  10.603
 9128W        W82196   7.201   5.249   4.142
 9129W        W82197   9.832  41.232   1.408
 9130W        W82198  20.208   0.308  13.165
 9131W        W82199  19.283  23.574   2.310
 9132W        W82200  40.980  43.869  11.436
 9133W        W82201  24.940   4.712  11.552
 9134W        W82202  35.381  29.485   1.274
 9135W        W82203  43.343  12.698  14.484
 9136W        W82204  36.351   8.403   3.125
 9137W        W82205  36.274   6.063   1.857
 9138W        W82206  30.917  40.091  11.409
 9139W        W82207  24.129   4.385  12.957
 9140W        W82208  15.358  26.283  14.835
 9141W        W82209  32.127  30.562   0.759
 9142W        W82210  11.776   2.974  14.613
 9143W        W82211   5.523  33.886   1.633
 9144W        W82212  25.599  37.008   3.955
 9145W        W82213  17.183  18.548  12.360
 9146W        W82214  24.889   7.776  13.768
 9147W        W82215   4.860  23.166  13.360
 9148W        W82216  11.104  12.068  13.824
 9149W        W82217   8.468   0.205   4.662
 9150W        W82218   6.931   3.263   3.017
 9151W        W82219  14.287  23.091  12.906
 9152W        W82220   8.383  11.283   2.722
 9153W        W82221  10.395  15.210  11.159
 9154W        W82222  33.565   9.671   3.207
 9155W        W82223  26.956  32.122   0.503
 9156W        W82224  10.211  15.314   1.267
 9157W        W82225  31.633  18.806  11.135
 9158W        W82226   0.867  16.913  12.771
 9159W        W82227  17.921  14.356  11.064
 9160W        W82228  25.701  28.853   4.644
 9161W        W82229   2.816  41.878   3.298
 9162W        W82230  33.903  17.298  11.178
 9163W        W82231  39.514  24.503   2.253
 9164W        W82232  30.947  16.842   1.762
 9165W        W82233  20.755  28.466   1.939
 9166W        W82234  39.589  31.114   1.484
 9167W        W82235  29.457   3.542   0.448
 9168W        W82236  40.552  42.396  13.895
 9169W        W82237  32.509   0.054   4.178
 9170W        W82238  14.305  14.823  13.404
 9171W        W82239   1.393  29.085  10.391
 9172W        W82240  13.556  14.099   0.789
 9173W        W82241  41.841  12.665   1.817
 9174W        W82242  29.347   2.839  10.992
 9175W        W82243  39.935  41.242   1.750
 9176W        W82244   4.903   2.672  14.072
 9177W        W82245  25.481  19.971   4.539
 9178W        W82246  37.984   5.707   5.064
 9179W        W82247   2.866   1.565  12.288
 9180W        W82248  20.732  41.745  11.106
 9181W        W82249  21.487   0.534   1.628
 9182W        W82250  34.812  11.676   4.999
 9183W        W82251   1.020  28.981   0.261
 9184W        W82252  23.273  31.989  11.620
 9185W        W82253   6.798  31.508  10.738
 9186W        W82254  36.509  22.759  12.745
 9187W        W82255   0.814   2.585  13.285
 9188W        W82256  31.106  20.706   2.303
 9189W        W82257  12.209   7.989   1.785
 9190W        W82258  39.898   4.972  10.621
 9191W        W82259  30.061  12.401   4.631
 9192W        W82260   2.939  21.370  13.819
 9193W        W82261  44.369  13.072  10.760
 9194W        W82262  22.121  37.548  14.635
 9195W        W82263  22.570  21.455   1.531
 9196W        W82264  18.029   5.370  10.536
 9197W        W82265   4.179  26.999  12.894
 9198W        W82266  33.425  31.173  12.625
 9199W        W82267  31.857   9.965   4.943
 9200W        W82268   1.554  33.661   3.386
 9201W        W82269  39.590  28.538  14.367
 9202W        W82270   6.704  26.896  12.962
 9203W        W82271  41.615   7.346  10.300
 9204W        W82272  27.760  36.534   0.431
 9205W        W82273  24.416  39.763   4.782
 9206W        W82274  44.254  42.977   3.712
 9207W        W82275  18.513  19.041  14.140
 9208W        W82276  27.491  25.995   1.875
 9209W        W82277  29.461  29.469  11.558
 9210W        W82278   2.681  34.999   2.051
 9211W        W82279  37.489  33.889   2.435
 9212W        W82280  36.427  27.621   0.179
 9213W        W82281  11.435  14.608   1.334
 9214W        W82282  30.411  43.266  12.965
 9215W        W82283  44.673   8.287   5.153
 9216W        W82284  33.556  15.022  10.950
 9217W        W82285   7.730   7.089  11.654
 9218W        W82286  17.280   0.479   3.716
 9219W        W82287  28.360  44.876  12.900
 9220W        W82288  40.464  21.705   0.847
 9221W        W82289  27.730   6.674  11.308
 9222W        W82290  38.397  40.629  12.421
 9223W        W82291  31.475  34.654  14.433
 9224W        W82292   6.721  43.369   3.768
 9225W        W82293  29.522  23.521  13.399
 9226W        W82294   3.327  21.690  14.588
 9227W        W82295  30.077   2.221   3.706
 9228W        W82296  11.266  37.898  14.977
 9229W        W82297  10.087  34.360  11.458
 9230W        W82298  21.222  17.169   1.918
 9231W        W82299  38.493  41.505  14.998
 9232W        W82300  36.563   5.180   0.327
 9233W        W82301  17.648  33.321  11.151
 9234W        W82302  24.395  27.307  12.993
 9235W        W82303  12.761  33.384   0.942
 9236W        W82304  33.992   5.708   4.170
 9237W        W82305  36.611   1.357   3.320
 9238W        W82306  21.325  32.631   3.340
 9239W        W82307   6.274  26.693  10.379
 9240W        W82308  13.973  22.498   3.244
 9241W        W82309   0.986  15.170  12.658
 9242W        W82310  43.320  41.091  14.776
 9243W        W82311  24.674  41.216   3.864
 9244W        W82312  39.791  38.355  14.365
 9245W        W82313  27.044  36.304   1.216
 9246W        W82314   9.203   5.457  13.926
 9247W        W82315  20.584  44.588  12.760
 9248W        W82316  15.654  31.396  11.591
 9249W        W82317   9.708  10.818  14.033
 9250W        W82318  34.668  12.225   1.762
 9251W        W82319   2.235  37.291  13.524
 9252W        W82320  43.274  39.045   1.449
 9253W        W82321  10.604  43.930  12.036
 9254W        W82322  13.619  16.693  13.419
 9255W        W82323  40.433  40.038  12.446
 9256W        W82324  33.917   0.347   1.365
 9257W        W82325  33.635   6.137  12.934
 9258W        W82326  10.751   9.702   4.355
 9259W        W82327  33.075   5.467  11.575
 9260W        W82328  27.317  36.945  14.908
 9261W        W82329   7.283   6.697  12.906
 9262W        W82330  13.145  40.819   0.396
 9263W        W82331  27.869  29.825   5.033
 9264W        W82332  29.188  29.620  13.378
 9265W        W82333  36.320  25.084   4.503
 9266W        W82334  18.733  20.117  10.438
 9267W        W82335  10.763  20.529  11.159
 9268W        W82336  17.654  42.042   1.962
 9269W        W82337  26.973   2.227   4.273
 9270W        W82338   2.846   5.987   3.614
 9271W        W82339   4.646  21.301  13.821
 9272W        W82340  41.996  42.039  11.846
 9273W        W82341   1.886   1.886   3.360
 9274W        W82342  10.919  22.950   1.255
 9275W        W82343   2.277  20.262   0.989
 9276W        W82344  34.131  43.397   3.674
 9277W        W82345  27.419   7.808  11.553
 9278W        W82346   3.597  11.874   2.544
 9279W        W82347  19.465  15.657  14.249
 9280W        W82348  40.910  43.539  13.008
 9281W        W82349  40.551   1.569   1.757
 9282W        W82350   1.618  26.546   1.335
 9283W        W82351  12.823  33.501  11.688
 9284W        W82352  31.901   3.195  12.510
 9285W        W82353  11.304   0.983   2.149
 9286W        W82354   5.290  43.204   0.874
 9287W        W82355  42.418  37.535   2.765
 9288W        W82356  14.996  18.467   1.008
 9289W        W82357  28.454  43.822   0.269
 9290W        W82358   4.973  35.531   1.401
 9291W        W82359  19.319  32.484  13.952
 9292W        W82360  25.476  29.866   3.602
 9293W        W82361  28.170  41.292   2.175
 9294W        W82362  30.513  28.289   0.287
 9295W        W82363   7.730  21.180   3.102
 9296W        W82364  27.645  26.185  11.991
 9297W        W82365  35.958  40.462   1.890
 9298W        W82366  31.554  33.890   4.089
 9299W        W82367  19.759  13.860   0.451
 9300W        W82368   8.311  10.475  12.371
 9301W        W82369   6.305   8.743  14.367
 9302W        W82370  31.958  42.068  10.734
 9303W        W82371  25.449  28.471   2.439
 9304W        W82372  44.172  19.434  13.163
 9305W        W82373  29.507  36.614  11.855
 9306W        W82374  15.149  37.079   2.455
 9307W        W82375   9.072  15.728  12.489
 9308W        W82376  41.435  32.376  13.516
 9309W        W82377  34.061  21.460   2.171
 9310W        W82378  19.616  38.950  12.329
 9311W        W82379  19.377  27.918   3.068
 9312W        W82380  19.181  42.049  10.618
 9313W        W82381  31.356  37.024  12.040
 9314W        W82382  33.822   4.964   3.666
 9315W        W82383  16.629  14.160   0.900
 9316W        W82384  37.076  28.710  10.568
 9317W        W82385  16.458   4.357  14.898
 9318W        W82386  39.376   3.713  11.935
 9319W        W82387  34.837  19.252   2.428
 9320W        W82388  27.611   4.500  12.601
 9321W        W82389  37.162  21.328  11.396
 9322W        W82390  30.918  11.365  11.542
 9323W        W82391  38.064  40.293   3.661
 9324W        W82392  23.661  14.301  11.496
 9325W        W82393  34.625  43.497   3.523
 9326W        W82394  13.055  27.371   3.200
 9327W        W82395  30.107   6.762   3.690
 9328W        W82396  17.632  23.938   1.411
 9329W        W82397  14.126  28.764   1.755
 9330W        W82398  18.620   5.872  12.499
 9331W        W82399  40.726  32.620  10.559
 9332W        W82400  19.169   6.612  12.169
 9333W        W82401   7.236  12.158   1.171
 9334W        W82402   2.492  41.499   2.336
 9335W        W82403  27.452  35.400   0.799
 9336W        W82404  33.585  38.037   4.339
 9337W        W82405  20.119  42.545  13.986
 9338W        W82406  42.495  33.729   1.345
 9339W        W82407  34.457  42.503  13.953
 9340W        W82408  37.356  31.172  10.765
 9341W        W82409  14.068   3.894   1.247
 9342W        W82410  22.157  21.732   4.048
 9343W        W82411  22.540  12.092  14.019
 9344W        W82412  13.985   1.173   0.128
 9345W        W82413  11.184  41.024  11.058
 9346W        W82414  40.643   7.275   4.709
 9347W        W82415  26.612  35.905  13.624
 9348W        W82416  30.073  33.750  14.296
 9349W        W82417  18.527  29.656  14.838
 9350W        W82418  34.005  41.239  13.871
 9351W        W82419  29.941   0.752   4.645
 9352W        W82420  39.814  39.932  11.925
 9353W        W82421  25.732  34.358  13.866
 9354W        W82422   1.002  41.328   1.105
 9355W        W82423   3.957  44.535  11.163
 9356W        W82424  31.346  27.619   3.374
 9357W        W82425  14.191  33.165  14.892
 9358W        W82426  19.271  34.962   3.301
 9359W        W82427  44.247  41.815  13.882
 9360W        W82428   8.138  18.891   4.090
 9361W        W82429  15.643   4.336  13.081
 9362W        W82430  36.657   1.329  14.843
 9363W        W82431   4.432  16.184  14.330
 9364W        W82432  40.418  17.092  11.899
 9365W        W82433   8.277  17.195  12.808
 9366W        W82434   0.216  27.134   3.164
 9367W        W82435  15.868  44.755  13.543
 9368W        W82436  25.933  14.423  13.035
 9369W        W82437  22.234  39.412   0.293
 9370W        W82438  39.410  16.534  10.418
 9371W        W82439  30.448   6.580  12.527
 9372W        W82440  41.105   7.479   4.808
 9373W        W82441  40.899  15.410  12.169
 9374W        W82442  30.682  40.892  12.326
 9375W        W82443  12.607  14.258   0.369
 9376W        W82444   9.241   6.969  13.885
 9377W        W82445  23.193  11.864   2.166
 9378W        W82446   2.346  32.610  13.747
 9379W        W82447   0.709  12.351  10.679
 9380W        W82448  18.034  30.724   1.696
 9381W        W82449  19.515  18.102  12.478
 9382W        W82450   2.678  15.303   3.963
 9383W        W82451  35.723  30.562  12.661
 9384W        W82452  44.656  17.774  14.341
 9385W        W82453  20.651  34.696   4.589
 9386W        W82454  40.030  28.915   1.127
 9387W        W82455   1.981  22.641  13.016
 9388W        W82456  27.405   2.334  11.368
 9389W        W82457   7.249   7.217  11.572
 9390W        W82458  41.937   5.347  13.510
 9391W        W82459  40.452  30.331  10.921
 9392W        W82460   1.515   0.987  13.777
 9393W        W82461  15.377  19.678  13.576
 9394W        W82462  15.761   5.765   4.230
 9395W        W82463   1.245  37.881   3.502
 9396W        W82464  33.945  38.875  11.274
 9397W        W82465  39.480   6.223  14.934
 9398W        W82466  23.922  24.550  14.027
 9399W        W82467   9.383  37.849  14.306
 9400W        W82468  43.286  13.396   1.145
 9401W        W82469  24.627  27.589   3.693
 9402W        W82470  34.681  38.824  13.367
 9403W        W82471  41.116  33.949   4.676
 9404W        W82472  26.638  31.920  12.472
 9405W        W82473  31.545  19.157  14.792
 9406W        W82474   9.292  24.248   0.898
 9407W        W82475   0.748  10.604   0.486
 9408W        W82476   0.091  19.092   1.713
 9409W        W82477  44.213   4.055   3.653
 9410W        W82478   0.428  30.360   1.078
 9411W        W82479   9.734  22.721  13.092
 9412W        W82480  37.531  32.507   9.838
 9413W        W82481  37.036  34.925   3.705
 9414W        W82482  17.085   9.477  13.052
 9415W        W82483  29.082  22.832  11.118
 9416W        W82484  39.532  12.173  11.033
 9417W        W82485  12.047  23.522   2.312
 9418W        W82486  28.327  29.208  13.494
 9419W        W82487  15.256  15.586   0.795
 9420W        W82488  22.177  11.616  10.741
 9421W        W82489  36.479   7.314   1.445
 9422W        W82490  21.301  27.602  14.356
 9423W        W82491  21.225   3.846  14.330
 9424W        W82492  24.094  43.754  10.642
 9425W        W82493  40.549  35.996   4.232
 9426W        W82494  18.179  32.863  14.139
 9427W        W82495  26.246   1.279   2.706
 9428W        W82496   2.396   6.442   0.479
 9429W        W82497  38.087  12.613  11.486
 9430W        W82498  36.467  31.479   5.489
 9431W        W82499  42.259  39.117   2.711
 9432W        W82500  35.292   7.278  11.024
 9433W        W82501   2.937  29.458  12.217
 9434W        W82502  39.392  17.793   1.357
 9435W        W82503  44.194  42.240  12.999
 9436W        W82504  42.813  38.504  11.443
 9437W        W82505  20.441  28.319  11.538
 9438W        W82506   8.644  39.418   1.189
 9439W        W82507  22.996  37.088  14.782
 9440W        W82508  36.119   5.800   0.786
 9441W        W82509  43.523  32.065  13.996
 9442W        W82510  32.960  38.949  14.114
 9443W        W82511   6.685  43.854  11.490
 9444W        W82512  13.504  32.005   4.210
 9445W        W82513   3.688  19.660   2.741
 9446W        W82514   6.664  38.050   0.016
 9447W        W82515   9.576  26.982   0.912
 9448W        W82516  16.507  31.790  12.942
 9449W        W82517  39.825   1.722   1.336
 9450W        W82518  40.049  22.528   0.300
 9451W        W82519  14.777   1.420   1.788
 9452W        W82520  36.080  30.875   4.319
 9453W        W82521  20.822  37.447  13.984
 9454W        W82522  38.018  22.175  14.502
 9455W        W82523  14.685   7.381   3.394
 9456W        W82524   0.385  24.075   3.254
 9457W        W82525  21.670  23.559  10.969
 9458W        W82526  36.428  20.101   0.545
 9459W        W82527  29.677  38.301   1.047
 9460W        W82528  39.436  26.929  13.546
 9461W        W82529  24.686   8.830  12.440
 9462W        W82530  23.727  13.197  11.149
 9463W        W82531   0.043  30.029   0.128
 9464W        W82532  38.028  15.417   0.711
 9465W        W82533  22.014  27.283   4.786
 9466W        W82534  11.110  13.695   3.719
 9467W        W82535  15.141  41.284  14.009
 9468W        W82536  29.586  43.227  13.501
 9469W        W82537   9.295  30.538  14.899
 9470W        W82538  26.566  31.851  11.143
 9471W        W82539  36.600  32.180  12.449
 9472W        W82540  14.367  17.772   3.599
 9473W        W82541  16.677  11.832   2.092
 9474W        W82542  12.678  34.129   4.945
 9475W        W82543  24.194  35.083  10.268
 9476W        W82544  13.883  29.617  12.575
 9477W        W82545   0.850  39.412   3.613
 9478W        W82546  13.313   1.788   4.964
 9479W        W82547   6.130  21.551   4.442
 9480W        W82548  43.079  19.810  12.079
 9481W        W82549  23.492  10.334   2.427
 9482W        W82550  21.190  38.408  13.093
 9483W        W82551   6.752   6.291  13.845
 9484W        W82552  27.596  25.439  12.511
 9485W        W82553  15.632  22.079   0.299
 9486W        W82554  19.712  24.038   5.231
 9487W        W82555  31.100  36.300   0.767
 9488W        W82556  23.436  38.835  13.045
 9489W        W82557  10.842  15.636  10.676
 9490W        W82558  21.600   5.492  14.017
 9491W        W82559  19.178   7.224   1.664
 9492W        W82560   9.243  16.770   2.002
 9493W        W82561  16.138  16.307  11.602
 9494W        W82562  25.557   6.772  12.214
 9495W        W82563  19.485  37.996  11.443
 9496W        W82564  24.414  25.115   4.415
 9497W        W82565  34.155  33.359  14.383
 9498W        W82566  37.503  10.834  13.919
 9499W        W82567  24.967  25.643   0.034
 9500W        W82568  16.579  26.558   3.781
 9501W        W82569   3.994  39.319   1.228
 9502W        W82570  11.896  24.735  11.780
 9503W        W82571   2.440  12.854  14.110
 9504W        W82572  14.397   8.555  12.569
 9505W        W82573  32.457  15.267  11.758
 9506W        W82574  12.370  11.336   0.504
 9507W        W82575  13.690  38.506  14.278
 9508W        W82576  17.295  24.639   3.252
 9509W        W82577  15.171  23.476   4.111
 9510W        W82578   2.236  38.922   1.570
 9511W        W82579   8.952  32.410   0.053
 9512W        W82580   2.953  38.630   0.210
 9513W        W82581   1.782  38.668  11.380
 9514W        W82582  33.052   2.378   0.921
 9515W        W82583   5.166  32.876  13.790
 9516W        W82584  34.461   5.774   4.388
 9517W        W82585  25.904  17.153  13.361
 9518W        W82586  40.042  29.441   1.266
 9519W        W82587  21.156   9.239  11.917
 9520W        W82588   8.106  18.102  13.038
 9521W        W82589  42.956  13.535  14.000
 9522W        W82590  19.770  12.642  10.891
 9523W        W82591   0.324  24.372   2.808
 9524W        W82592  17.150  21.519  10.661
 9525W        W82593  10.850   3.765  11.827
 9526W        W82594  43.239   7.676  11.281
 9527W        W82595  41.326  11.453  14.994
 9528W        W82596  41.440  42.487   2.786
 9529W        W82597  35.921  35.076   4.434
 9530W        W82598   6.317  29.493   3.633
 9531W        W82599  26.309  18.609   3.547
 9532W        W82600  15.094  16.550  13.041
 9533W        W82601   4.267  36.350   1.878
 9534W        W82602  35.643  37.696  13.466
 9535W        W82603  12.638   2.724   0.710
 9536W        W82604  44.557  31.617   0.056
 9537W        W82605  23.111  35.262   3.199
 9538W        W82606  40.954  38.628  12.877
 9539W        W82607  29.363  36.892  14.035
 9540W        W82608  22.304   9.573   3.584
 9541W        W82609  42.924   3.777  11.149
 9542W        W82610  26.855  21.595   0.478
 9543W        W82611  23.475   5.187  13.986
 9544W        W82612  37.744   7.646  10.779
 9545W        W82613   8.183  36.470   3.152
 9546W        W82614  39.597  10.641  11.114
 9547W        W82615  34.122   3.311   2.806
 9548W        W82616  21.260   6.228   1.908
 9549W        W82617  22.956  33.656  14.437
 9550W        W82618   8.430  28.296  14.830
 9551W        W82619  43.378   1.839   0.287
 9552W        W82620  23.024   5.466  10.568
 9553W        W82621  25.077  35.438  14.872
 9554W        W82622  20.627  16.690   1.723
 9555W        W82623  30.009  15.606   1.690
 9556W        W82624   6.258  37.473  10.270
 9557W        W82625   4.751  30.014   3.359
 9558W        W82626   9.571   9.364  12.302
 9559W        W82627  22.190   9.789   4.282
 9560W        W82628  34.615  44.297   2.774
 9561W        W82629  13.562  21.603  12.090
 9562W        W82630  33.516   8.034   4.008
 9563W        W82631  18.072  14.322  11.972
 9564W        W82632  15.729   7.281  10.326
 9565W        W82633  24.099  15.128   0.605
 9566W        W82634  26.710  35.143  11.180
 9567W        W82635  38.312  43.667   4.173
 9568W        W82636  35.574   6.390  14.265
 9569W        W82637  22.791  43.717   4.238
 9570W        W82638  12.850  39.507   3.145
 9571W        W82639  31.814  37.118   3.882
 9572W        W82640  28.365  26.998   4.539
 9573W        W82641  21.981  27.698  11.659
 9574W        W82642  13.608  44.910  12.092
 9575W        W82643  25.800  26.319  11.019
 9576W        W82644   8.170  42.344   1.941
 9577W        W82645  24.604  18.207   3.246
 9578W        W82646   8.895  21.022  11.289
 9579W        W82647  38.793  19.505  11.650
 9580W        W82648   4.416   5.588  12.303
 9581W        W82649  23.688  35.351   1.039
 9582W        W82650  27.544  41.889   1.431
 9583W        W82651  21.640   1.033  10.664
 9584W        W82652  11.658  37.496   5.044
 9585W        W82653  15.427  35.552  12.103
 9586W        W82654   1.799  13.704  10.646
 9587W        W82655   4.765   5.743   3.717
 9588W        W82656  14.786  12.085  13.968
 9589W        W82657  31.694  13.263  14.465
 9590W        W82658  44.831   0.537   1.746
 9591W        W82659  10.424  44.542   4.158
 9592W        W82660  31.925  31.160   2.827
 9593W        W82661  43.360  18.707   0.719
 9594W        W82662  23.480  43.059  10.645
 9595W        W82663   2.902  39.360   2.211
 9596W        W82664  33.363   1.356  14.841
 9597W        W82665  17.260  15.087  12.141
 9598W        W82666  18.997   4.615  12.471
 9599W        W82667  40.085   4.479   0.261
 9600W        W82668  41.721  38.021   4.126
 9601W        W82669  19.083  25.618   4.812
 9602W        W82670  13.125   7.124  12.387
 9603W        W82671  15.800  40.426   4.072
 9604W        W82672  35.005   9.779   1.483
 9605W        W82673  32.821   8.327  14.387
 9606W        W82674  36.059  14.374   0.284
 9607W        W82675   2.263  29.558  11.459
 9608W        W82676  12.502   2.304   4.192
 9609W        W82677   6.774   7.668   0.373
 9610W        W82678  14.809  29.682  11.154
 9611W        W82679  39.817  16.556   0.123
 9612W        W82680  19.187   4.784   3.686
 9613W        W82681  13.708  41.533   1.690
 9614W        W82682  29.576  35.012  11.611
 9615W        W82683   0.501  11.227  13.435
 9616W        W82684   7.663  18.488  12.250
 9617W        W82685  34.099  18.516   1.689
 9618W        W82686  17.689  24.738  13.768
 9619W        W82687  20.757  23.534   2.653
 9620W        W82688  29.886  37.118  10.679
 9621W        W82689  22.499  40.160   1.791
 9622W        W82690   5.048  23.598   2.555
 9623W        W82691  16.112  37.957  13.318
 9624W        W82692  26.182  38.334   1.811
 9625W        W82693  39.966  35.051  12.036
 9626W        W82694  15.230  35.472   4.356
 9627W        W82695  29.175  39.827   3.112
 9628W        W82696  24.673  38.406   1.850
 9629W        W82697  33.199  30.998   0.865
 9630W        W82698  30.150  35.126   4.577
 9631W        W82699  13.287  21.799   2.223
 9632W        W82700  41.289  13.171   1.343
 9633W        W82701  18.664  22.710   2.214
 9634W        W82702  21.193   9.684   4.189
 9635W        W82703  24.285  33.453   4.616
 9636W        W82704  14.969  17.144  11.368
 9637W        W82705  23.628  42.285   3.612
 9638W        W82706  15.176   7.401   4.683
 9639W        W82707  18.817  35.046   2.399
 9640W        W82708   9.708  34.841  13.663
 9641W        W82709   8.659  36.171   2.776
 9642W        W82710  19.775  22.968  11.129
 9643W        W82711  35.276   5.640  11.996
 9644W        W82712   0.368  23.635  11.205
 9645W        W82713  21.523  11.643  11.339
 9646W        W82714  17.616  23.090   0.796
 9647W        W82715   8.410  34.368   1.142
 9648W        W82716  20.679  33.919   2.839
 9649W        W82717  32.922   8.911  13.044
 9650W        W82718  18.042  19.711   4.888
 9651W        W82719  20.916  41.218  10.603
 9652W        W82720  19.440   6.025  10.945
 9653W        W82721  22.758   4.111  10.560
 9654W        W82722  34.606  24.588   1.782
 9655W        W82723   2.060  42.565   1.938
 9656W        W82724  31.164  38.027   4.024
 9657W        W82725  22.926  32.418   1.226
 9658W        W82726  16.123  36.411   1.226
 9659W        W82727  13.781  23.159   0.665
 9660W        W82728  28.064  20.288  12.037
 9661W        W82729  24.031  24.539  11.263
 9662W        W82730  34.522  35.607  14.923
 9663W        W82731   8.837  12.578  12.516
 9664W        W82732   5.862  21.366  13.082
 9665W        W82733  38.823  25.126   4.113
 9666W        W82734   3.708  10.736   4.638
 9667W        W82735   7.759  43.298   1.646
 9668W        W82736  26.791   9.657   4.128
 9669W        W82737  17.108  18.658  11.875
 9670W        W82738  19.194  28.639   0.316
 9671W        W82739  25.674   5.735   1.305
 9672W        W82740  19.802   0.972   2.253
 9673W        W82741   0.296  38.902  13.102
 9674W        W82742  23.553  36.575  12.788
 9675W        W82743   6.266  20.135  13.019
 9676W        W82744  27.130   0.406  13.119
 9677W        W82745  14.500  39.543   3.386
 9678W        W82746  30.316   1.306  11.544
 9679W        W82747  14.137   7.732  14.849
 9680W        W82748  19.549  30.736  10.385
 9681W        W82749  33.390   7.818  12.434
 9682W        W82750   8.506  34.435  10.658
 9683W        W82751  15.037  14.698  14.089
 9684W        W82752   4.305  28.439  12.665
 9685W        W82753   1.712  42.237   3.361
 9686W        W82754  35.417  36.961   2.596
 9687W        W82755  28.063  17.477  12.195
 9688W        W82756  35.002  43.044  14.458
 9689W        W82757  10.716   9.181   0.774
 9690W        W82758   5.226  35.970   1.223
 9691W        W82759   7.294  37.891  14.384
 9692W        W82760  30.143   2.292  14.772
 9693W        W82761  26.858  14.162  11.165
 9694W        W82762  21.217  37.912   1.684
 9695W        W82763  18.113  11.377   4.324
 9696W        W82764  31.969  40.387  12.598
 9697W        W82765  30.538  34.761   4.578
 9698W        W82766   0.143  29.771  13.366
 9699W        W82767  11.889  30.848  10.789
 9700W        W82768  32.640   0.993   4.294
 9701W        W82769  38.529  41.810  10.972
 9702W        W82770  16.452  22.828  12.564
 9703W        W82771  38.992  42.709   1.254
 9704W        W82772  42.853  44.763  14.944
 9705W        W82773  15.563  39.049   4.533
 9706W        W82774  16.052  42.050  10.773
 9707W        W82775   5.317  29.634   2.234
 9708W        W82776  14.196  26.493   0.218
 9709W        W82777  25.104   3.776  11.233
 9710W        W82778  33.667  25.423   0.661
 9711W        W82779  39.005  31.834   4.120
 9712W        W82780  42.629  41.380  11.237
 9713W        W82781  32.199   2.843  12.882
 9714W        W82782  36.037  16.556   2.268
 9715W        W82783   2.412  21.575   4.649
 9716W        W82784   0.986  29.910   2.928
 9717W        W82785   3.935  33.307   2.333
 9718W        W82786  43.323  18.237   4.634
 9719W        W82787  20.577  14.101  11.159
 9720W        W82788   9.496  26.863  13.296
 9721W        W82789  12.448  22.797   4.050
 9722W        W82790  28.710  32.421  13.230
 9723W        W82791  33.946  24.680   4.937
 9724W        W82792  15.512  39.820  11.491
 9725W        W82793   9.264   1.067   3.517
 9726W        W82794   2.225  26.677  10.645
 9727W        W82795  31.381  25.976  13.488
 9728W        W82796  36.471  37.627   1.644
 9729W        W82797  29.176  34.567   0.439
 9730W        W82798   2.310  31.939  12.508
 9731W        W82799  43.371   5.238  12.585
 9732W        W82800   8.650   4.782   2.263
 9733W        W82801   0.411  24.517  10.665
 9734W        W82802  21.583  20.609   3.203
 9735W        W82803  31.429  39.208  11.030
 9736W        W82804   0.499  36.193   3.790
 9737W        W82805  41.267  12.184   4.409
 9738W        W82806   2.444  43.713  14.030
 9739W        W82807  43.974  29.899   1.362
 9740W        W82808  29.454  23.740  12.698
 9741W        W82809  15.198   2.266   3.672
 9742W        W82810   5.856  34.421   3.729
 9743W        W82811   9.863   2.840   4.124
 9744W        W82812   4.499  31.591   4.586
 9745W        W82813  37.138  40.701   1.507
 9746W        W82814  11.659  28.021  10.033
 9747W        W82815  18.128  13.846   2.213
 9748W        W82816  26.920  43.363   3.366
 9749W        W82817  42.760  24.277  10.917
 9750W        W82818  24.403   2.542  10.836
 9751W        W82819  31.934  36.300   2.278
 9752W        W82820   0.964   6.752  12.897
 9753W        W82821  39.022  35.160   2.907
 9754W        W82822  30.302  38.311  14.423
 9755W        W82823  23.499  17.983   2.722
 9756W        W82824  13.330   8.142   3.291
 9757W        W82825  44.703  38.839   1.913
 9758W        W82826   8.467  30.622  13.040
 9759W        W82827   0.942   3.630  13.601
 9760W        W82828   5.364  39.023   2.927
 9761W        W82829  41.034  40.993  11.219
 9762W        W82830  18.634  25.047   1.513
 9763W        W82831  36.866  39.458   3.248
 9764W        W82832   6.747   9.785  13.808
 9765W        W82833  22.149  43.089   4.014
 9766W        W82834   3.917  43.283   2.956
 9767W        W82835  23.536  25.735  14.402
 9768W        W82836  34.154   9.400  11.495
 9769W        W82837   8.767  12.213   0.370
 9770W        W82838  34.332  21.711  11.968
 9771W        W82839  12.588  31.353   1.639
 9772W        W82840  34.686  26.586  12.060
 9773W        W82841  33.650   1.798  12.938
 9774W        W82842  26.765   8.791   4.224
 9775W        W82843  38.459  11.311   2.459
 9776W        W82844   6.382   2.194   1.828
 9777W        W82845  14.210  44.953   3.058
 9778W        W82846  34.356  27.021  12.766
 9779W        W82847   3.853   8.673   2.831
 9780W        W82848  24.081  11.334   1.240
 9781W        W82849  15.716   6.632  11.097
 9782W        W82850  19.645  22.105  10.725
 9783W        W82851  32.047  11.637   4.545
 9784W        W82852  35.387  29.494   4.011
 9785W        W82853  16.849  26.291  12.486
 9786W        W82854   1.356  18.878  12.915
 9787W        W82855  15.424  33.130   4.133
 9788W        W82856   4.767   0.838  13.441
 9789W        W82857   2.860   2.525   1.778
 9790W        W82858  27.232   0.509  12.266
 9791W        W82859  21.941  28.633  14.708
 9792W        W82860  29.476  38.529   4.274
 9793W        W82861  19.660   6.643  10.927
 9794W        W82862  41.248  15.131   3.405
 9795W        W82863  11.182  41.893   3.659
 9796W        W82864  19.115  19.844   1.803
 9797W        W82865  29.979   0.995   4.148
 9798W        W82866  41.726  12.980  12.940
 9799W        W82867  24.530  35.010   1.223
 9800W        W82868   4.184  11.790  12.479
 9801W        W82869  30.555  33.660  10.822
 9802W        W82870  30.636  16.799   2.709
 9803W        W82871  16.185  27.176  12.628
 9804W        W82872   7.806  24.279  14.487
 9805W        W82873  41.278  35.490   3.295
 9806W        W82874   6.976  19.096  10.970
 9807W        W82875  19.649   4.474   1.897
 9808W        W82876  15.733   3.421   5.232
 9809W        W82877  34.978  41.410  10.315
 9810W        W82878  20.179  18.365  14.589
 9811W        W82879  35.342  19.099   0.823
 9812W        W82880   7.400  30.179   4.107
 9813W        W82881  23.630  39.897   1.943
 9814W        W82882   0.706  10.110  12.344
 9815W        W82883  29.688  14.616  13.572
 9816W        W82884  22.428  17.268  12.046
 9817W        W82885  37.134  34.033   5.167
 9818W        W82886  36.466   9.327  14.710
 9819W        W82887   4.212  44.023   1.280
 9820W        W82888   3.290  30.016  14.543
 9821W        W82889  22.569  37.877   0.961
 9822W        W82890  41.604  16.532  11.509
 9823W        W82891   1.247  44.442  12.451
 9824W        W82892  28.110   4.682  12.060
 9825W        W82893  43.818  20.997  14.936
 9826W        W82894  24.405  26.959   0.224
 9827W        W82895   4.279  36.617   3.895
 9828W        W82896  29.197  30.251   2.230
 9829W        W82897  40.773  42.344  10.765
 9830W        W82898  31.308   0.842  12.344
 9831W        W82899   4.965  37.625  14.494
 9832W        W82900   5.355  25.549  11.309
 9833W        W82901  23.353  41.466  11.616
 9834W        W82902  42.550   3.665  10.813
 9835W        W82903   2.954  13.523  12.510
 9836W        W82904  20.141   9.082  13.925
 9837W        W82905  11.386   2.303  11.979
 9838W        W82906  16.717  20.784   1.632
 9839W        W82907  29.874  32.257  14.798
 9840W        W82908  38.363   8.648   0.831
 9841W        W82909  35.885   0.477   1.009
 9842W        W82910  23.041  28.375  13.317
 9843W        W82911  12.828   2.318   1.011
 9844W        W82912   8.633  28.192  11.126
 9845W        W82913  16.636  19.159   2.401
 9846W        W82914  40.778   6.854   0.162
 9847W        W82915  44.129   1.313  13.523
 9848W        W82916  24.665  32.261   3.272
 9849W        W82917   2.024  11.146   1.166
 9850W        W82918  43.503  18.676   2.127
 9851W        W82919   3.837  18.299  10.625
 9852W        W82920   1.187  44.267  14.324
 9853W        W82921   4.650  17.561  12.528
 9854W        W82922   2.868  35.560   4.352
 9855W        W82923  28.061  34.646  13.525
 9856W        W82924  25.491  29.897   2.709
 9857W        W82925  33.546  30.433   0.614
 9858W        W82926   2.689  20.964   1.800
 9859W        W82927  19.342  23.263   1.789
 9860W        W82928  23.132  24.435  11.691
 9861W        W82929  30.697   9.713   0.460
 9862W        W82930   0.729  38.958  14.776
 9863W        W82931  23.746  37.572  13.373
 9864W        W82932   3.527  22.508  14.547
 9865W        W82933  35.404  32.609  12.352
 9866W        W82934  21.348  42.345  12.964
 9867W        W82935   4.341  27.949  11.757
 9868W        W82936  34.866   6.780   3.586
 9869W        W82937  17.115  25.607  10.716
 9870W        W82938  28.734  20.117   0.342
 9871W        W82939  39.020  32.572  14.491
 9872W        W82940  20.471   4.211  11.368
 9873W        W82941  20.219  24.490  12.119
 9874W        W82942  27.684  28.044   3.333
 9875W        W82943  37.929   6.721  13.265
 9876W        W82944  41.926   6.215  11.563
 9877W        W82945  19.177  25.420   3.797
 9878W        W82946  19.984  33.562  13.371
 9879W        W82947  42.467  22.312   1.535
 9880W        W82948  22.659  23.577  14.586
 9881W        W82949  12.668  40.579  10.920
 9882W        W82950  34.993  42.839  12.451
 9883W        W82951   1.533  44.490  11.063
 9884W        W82952   4.957  21.591  11.872
 9885W        W82953  39.080  40.313  14.948
 9886W        W82954  18.988  30.006  11.463
 9887W        W82955  24.675  11.282   0.922
 9888W        W82956  43.085  12.830   0.215
 9889W        W82957  42.064  28.824  13.086
 9890W        W82958  41.095  24.317  13.025
 9891W        W82959  22.458  11.231  14.081
 9892W        W82960  23.350  10.333   4.121
 9893W        W82961  10.773  36.943   4.292
 9894W        W82962   6.321  42.074   1.872
 9895W        W82963  14.752  24.710   4.018
 9896W        W82964  28.054   4.796   3.493
 9897W        W82965   7.217  27.086  12.972
 9898W        W82966  22.077   3.571  12.670
 9899W        W82967  39.782  19.762   2.286
 9900W        W82968  36.630   0.111   3.956
 9901W        W82969  42.262  33.851  11.514
 9902W        W82970  17.073  35.106   2.973
 9903W        W82971   6.340  34.055  14.832
 9904W        W82972  38.873  10.398  12.060
 9905W        W82973  18.838   1.387  12.024
 9906W        W82974   1.944   6.903   3.634
 9907W        W82975   4.461  14.819   3.702
 9908W        W82976  31.743   5.980  11.620
 9909W        W82977  26.016  44.056   1.426
 9910W        W82978  10.312   2.821   3.862
 9911W        W82979  11.079   0.736  14.356
 9912W        W82980  41.777  44.799   1.191
 9913W        W82981  17.544  15.653  10.647
 9914W        W82982   6.730  13.659   2.155
 9915W        W82983   2.718  14.100  12.929
 9916W        W82984  23.127  43.416   3.624
 9917W        W82985   7.192  36.274   4.878
 9918W        W82986   7.160   9.293   0.955
 9919W        W82987  23.089   5.682  14.005
 9920W        W82988  35.348  33.515  12.414
 9921W        W82989  19.710  35.136  11.123
 9922W        W82990  18.125  13.099   1.018
 9923W        W82991  12.824  44.972   2.931
 9924W        W82992   4.918   5.180  14.877
 9925W        W82993  38.896  14.587  12.975
 9926W        W82994   3.030  42.237   2.040
 9927W        W82995  27.999  13.364  14.814
 9928W        W82996   5.708  44.226   3.230
 9929W        W82997  41.052  44.290  14.307
 9930W        W82998  31.637   5.264   4.729
 9931W        W82999  32.176   8.191   1.674
 9932W        W83000  12.663  22.211  10.616
 9933W        W83001  20.826  38.278  11.242
 9934W        W83002  27.556  19.513   4.228
 9935W        W83003   4.302  44.319  13.929
 9936W        W83004  21.025  15.510  12.717
 9937W        W83005   3.437  19.788   4.160
 9938W        W83006   0.579  17.608   1.635
 9939W        W83007  37.564  40.729   1.217
 9940W        W83008  44.396   3.103  10.567
 9941W        W83009   3.792  27.225  12.572
 9942W        W83010  17.441   3.146  11.883
 9943W        W83011  13.320  18.489  13.495
 9944W        W83012  33.498   6.812   0.847
 9945W        W83013   7.132  39.866   3.487
 9946W        W83014   6.060  28.566  14.424
 9947W        W83015  43.833   7.340   3.558
 9948W        W83016  12.585  12.350  11.590
 9949W        W83017  10.157  31.041  13.852
 9950W        W83018  19.089  28.549   1.257
 9951W        W83019  11.103  17.016  11.939
 9952W        W83020   8.426  21.562   2.645
 9953W        W83021  18.081   0.227  13.954
 9954W        W83022  17.498  15.701  13.037
 9955W        W83023  34.071  22.529  14.960
 9956W        W83024   5.000  11.851   1.942
 9957W        W83025  38.080  25.264  12.974
 9958W        W83026  41.500   6.223   5.046
 9959W        W83027  30.892  20.528  12.139
 9960W        W83028  41.824   1.411  11.627
 9961W        W83029   4.244  14.404   1.177
 9962W        W83030  17.267  10.764   3.184
 9963W        W83031  23.198  34.315  11.495
 9964W        W83032   9.290  40.464  12.893
 9965W        W83033  39.452  28.112   1.398
 9966W        W83034  20.712  35.780  13.131
 9967W        W83035  13.622   4.170  12.971
 9968W        W83036  41.360   9.360   1.488
 9969W        W83037  24.012  19.566  14.208
 9970W        W83038  30.411  10.877   1.786
 9971W        W83039  36.584   5.836  13.041
 9972W        W83040  22.528   6.944   3.361
 9973W        W83041  17.594  30.127   2.787
 9974W        W83042   4.665  37.033  10.605
 9975W        W83043  29.911  16.052  12.529
 9976W        W83044  31.192   2.100  13.374
 9977W        W83045   9.262  10.167  13.923
 9978W        W83046  23.768  40.993   0.924
 9979W        W83047  26.928  18.773  12.026
 9980W        W83048  23.510   4.862  13.420
 9981W        W83049  18.922   9.013   3.772
 9982W        W83050  29.047  42.563  10.435
 9983W        W83051  30.917  20.952   1.854
 9984W        W83052  16.676  44.452   0.758
 9985W        W83053  16.308   0.414  14.354
 9986W        W83054  43.903   4.512  14.377
 9987W        W83055   3.434   8.414   3.215
 9988W        W83056  30.525  13.105  14.565
 9989W        W83057   2.274   9.261   0.246
 9990W        W83058  25.550   2.749   2.376
 9991W        W83059  20.073  18.294   1.431
 9992W        W83060  26.858  42.331   2.354
 9993W        W83061  38.902  29.458  10.782
 9994W        W83062   2.751  11.457   2.193
 9995W        W83063  28.853  29.206  13.361
 9996W        W83064  39.557  36.971  12.839
 9997W        W83065  10.262  28.650  13.822
 9998W        W83066   6.462  24.148   0.021
 9999W        W83067   4.437   6.161   3.640
10000W        W83068   9.282   1.458   4.515
10001W        W83069   9.457   6.664   2.013
10002W        W83070  23.077   4.931  10.581
10003W        W83071  28.150  40.277   2.200
10004W        W83072  26.505  41.559   3.706
10005W        W83073  21.658  33.595  10.669
10006W        W83074  16.826  17.012   3.731
10007W        W83075  43.534  44.857  14.418
10008W        W83076  33.470   6.975  10.233
10009W        W83077  27.526  17.149   4.566
10010W        W83078  17.814   8.865  14.491
10011W        W83079  13.610  34.590   2.340
10012W        W83080   5.515  39.489   4.787
10013W        W83081   3.038  29.481  10.790
10014W        W83082  34.932  22.105  13.244
10015W        W83083  42.277   2.636   1.271
10016W        W83084  36.358  39.982  14.747
10017W        W83085  11.221   6.785  12.968
10018W        W83086  13.699  29.630   4.095
10019W        W83087   1.563  20.101   1.838
10020W        W83088   7.395  32.657  14.313
10021W        W83089  36.199  24.802  11.560
10022W        W83090  26.440  39.362   0.244
10023W        W83091  36.657  14.713  13.811
10024W        W83092  41.455   3.470   0.411
10025W        W83093  31.449  43.374   4.904
10026W        W83094   1.557  30.909  11.096
10027W        W83095   1.839  12.363   4.738
10028W        W83096  21.596  38.643  11.535
10029W        W83097   7.318  26.694  10.202
10030W        W83098  10.676  11.185   4.649
10031W        W83099  20.035  36.069   3.661
10032W        W83100  10.396  16.553   5.774
10033W        W83101  19.692  19.277   4.341
10034W        W83102  32.657  35.019  10.695
10035W        W83103  18.068  30.369   3.419
10036W        W83104  35.314  28.364   0.186
10037W        W83105   7.731  32.444   0.919
10038W        W83106  35.945   8.663   3.745
10039W        W83107  38.350  10.588   0.331
10040W        W83108  39.388  34.453   2.399
10041W        W83109  34.920  10.949  14.855
10042W        W83110  25.614  13.571  10.469
10043W        W83111   2.219  24.642  12.557
10044W        W83112   7.256  40.537   5.051
10045W        W83113  26.695   3.974   4.544
10046W        W83114  41.755  37.380  11.501
10047W        W83115  33.049  36.901  10.353
10048W        W83116  42.230   1.911   2.208
10049W        W83117  43.830  37.823  14.937
10050W        W83118  21.203  41.843  14.962
10051W        W83119  12.316  28.786  13.997
10052W        W83120  39.029  27.673   1.881
10053W        W83121   3.215  41.974  10.780
10054W        W83122  34.565  18.167   4.289
10055W        W83123   2.085  30.737  14.356
10056W        W83124  20.301   4.202  12.429
10057W        W83125  14.206  11.171   2.798
10058W        W83126  17.817  13.151   0.202
10059W        W83127  11.604  11.212  14.076
10060W        W83128  11.865  35.470  11.919
10061W        W83129   7.708  35.046  10.737
10062W        W83130  12.788  21.088  14.820
10063W        W83131  31.904  39.337   0.210
10064W        W83132  31.497  23.524   4.719
10065W        W83133   6.402   6.982  12.792
10066W        W83134  33.113  20.338   0.295
10067W        W83135  13.248   6.224   0.420
10068W        W83136   9.664  21.999   3.193
10069W        W83137  31.042  23.814   4.557
10070W        W83138  34.975  16.815   4.900
10071W        W83139  15.005  44.598   3.173
10072W        W83140   2.839  39.983   3.342
10073W        W83141  13.645  30.458   4.605
10074W        W83142  20.522  30.263  14.575
10075W        W83143  35.900  29.553   1.329
10076W        W83144  28.172  31.522  13.538
10077W        W83145  16.155  40.552  13.434
10078W        W83146  22.722  16.156  13.886
10079W        W83147   4.941  30.059  13.862
10080W        W83148  33.784   5.201   4.157
10081W        W83149  19.985  21.760   3.708
10082W        W83150  19.914  19.355   2.862
10083W        W83151  19.284   9.672   1.704
10084W        W83152  26.677  26.213  12.790
10085W        W83153  23.360  11.868  11.668
10086W        W83154   9.895   9.831  10.454
10087W        W83155  20.224   4.964   1.259
10088W        W83156  33.694  23.305   2.284
10089W        W83157   5.782  12.636   1.370
10090W        W83158  20.630  11.052   3.387
10091W        W83159  31.183  10.627  11.121
10092W        W83160  20.033  29.555   5.029
10093W        W83161  17.264   6.679   2.892
10094W        W83162   9.783  31.935   2.170
10095W        W83163   0.981   4.779   2.748
10096W        W83164  43.503  31.186   1.251
10097W        W83165  12.660  41.904  11.875
10098W        W83166   6.816  38.935   4.757
10099W        W83167  27.422  34.825  14.275
10100W        W83168   5.346   4.282   2.877
10101W        W83169  30.008   6.381  12.844
10102W        W83170   2.887  17.538   1.374
10103W        W83171  39.196  26.774  11.103
10104W        W83172   2.509   4.831   1.955
10105W        W83173  36.369  11.316   4.461
10106W        W83174  39.273  43.515  11.980
10107W        W83175  24.942  41.363  13.540
10108W        W83176   6.646  28.467  14.377
10109W        W83177  34.827  12.639  13.923
10110W        W83178  42.640  31.334  13.076
10111W        W83179  29.021   2.955  11.611
10112W        W83180  34.617   1.951   2.919
10113W        W83181  33.133  24.695  12.646
10114W        W83182  32.943  13.712  13.384
10115W        W83183  12.335  30.001   0.453
10116W        W83184  32.458  44.503  11.209
10117W        W83185   6.368  43.876  11.070
10118W        W83186  24.346  17.073  11.291
10119W        W83187  24.969  15.234  12.454
10120W        W83188  38.216   0.421  10.207
10121W        W83189   9.078  23.701  12.037
10122W        W83190  30.502   6.229  12.908
10123W        W83191  37.299  12.272   1.769
10124W        W83192   5.699  13.911   0.174
10125W        W83193  38.971  20.648  11.114
10126W        W83194  41.548  24.509   0.294
10127W        W83195  15.668   4.453  13.613
10128W        W83196  21.584  35.323   2.684
10129W        W83197  13.162  12.631   1.516
10130W        W83198  32.126  36.980  12.457
10131W        W83199  27.398  12.157  13.753
10132W        W83200  19.737   0.944   0.370
10133W        W83201  33.710  24.458   0.502
10134W        W83202  43.764   9.106  12.532
10135W        W83203  19.577   3.472  14.448
10136W        W83204  24.182  41.860  11.662
10137W        W83205   8.725  15.521  12.818
10138W        W83206  27.423  23.722  11.363
10139W        W83207  15.216  27.727  14.100
10140W        W83208  35.819  39.220  11.904
10141W        W83209  19.145  20.093  13.398
10142W        W83210  42.352  37.621   0.886
10143W        W83211  18.673   0.405  13.903
10144W        W83212  16.245  38.891   3.792
10145W        W83213   9.536  40.081   5.431
10146W        W83214  12.131  13.254  13.815
10147W        W83215  44.278  43.933   0.696
10148W        W83216  35.279  10.867   2.619
10149W        W83217  26.347  11.955  14.036
10150W        W83218   8.854   0.276  13.594
10151W        W83219   8.053   0.967   1.095
10152W        W83220  27.071  40.248  11.236
10153W        W83221  32.869  19.711  12.037
10154W        W83222   4.501   1.208   2.627
10155W        W83223  13.867  28.694  12.610
10156W        W83224   6.921  34.841  11.187
10157W        W83225  11.408  26.480  14.391
10158W        W83226  28.148  10.326   1.442
10159W        W83227  42.109  16.545  12.078
10160W        W83228  18.578  31.099  14.382
10161W        W83229  10.416  41.825   0.407
10162W        W83230  28.670  29.080  13.934
10163W        W83231  27.520  37.817   3.480
10164W        W83232   6.199  24.441  12.417
10165W        W83233  33.444  39.483  11.465
10166W        W83234  34.818  20.156   1.353
10167W        W83235  20.877  30.572   1.920
10168W        W83236  33.942  15.783   1.280
10169W        W83237  20.717  13.262   4.203
10170W        W83238  43.781  25.738  11.958
10171W        W83239  18.585  22.283   3.401
10172W        W83240  24.024   6.411   4.178
10173W        W83241  35.283  32.634   1.580
10174W        W83242  12.616  25.122   3.638
10175W        W83243  20.803   1.924   3.817
10176W        W83244  26.972   0.028  11.569
10177W        W83245  43.797  38.912  14.258
10178W        W83246  21.109   2.708  14.644
10179W        W83247  38.741  37.429   2.328
10180W        W83248  14.386  19.753  14.898
10181W        W83249  28.570  36.082   1.330
10182W        W83250  20.429  16.568   0.757
10183W        W83251  41.242  13.776  10.430
10184W        W83252  44.933  22.066   3.954
10185W        W83253  28.670  41.359  11.078
10186W        W83254   0.601  28.641   3.829
10187W        W83255  21.604  30.598   4.372
10188W        W83256  28.665  30.843   3.663
10189W        W83257  39.767  26.433  12.850
10190W        W83258  26.282  10.241  14.369
10191W        W83259   1.034   0.275   2.426
10192W        W83260  43.420  42.062  10.393
10193W        W83261  40.372  28.656  13.931
10194W        W83262  18.999   9.086  12.032
10195W        W83263   2.981  26.942   2.278
10196W        W83264  25.727  22.588   0.484
10197W        W83265   3.486  30.536  10.736
10198W        W83266   6.803  18.002  13.392
10199W        W83267  25.676   6.815  14.795
10200W        W83268  33.979   6.134  14.759
10201W        W83269  14.088   8.215   1.826
10202W        W83270  17.994  43.930  13.920
10203W        W83271  13.850  11.902   0.686
10204W        W83272  24.556  32.767   3.310
10205W        W83273  14.780   8.190   3.698
10206W        W83274   7.453  13.780  14.772
10207W        W83275  19.193  34.764   0.982
10208W        W83276   9.163  11.191   1.462
10209W        W83277   4.076  15.678   1.144
10210W        W83278   9.483  24.487   1.330
10211W        W83279   6.861  44.368  14.524
10212W        W83280   2.437  44.144  14.850
10213W        W83281   9.745  14.113  13.516
10214W        W83282  22.058   1.227   0.342
10215W        W83283  20.697  26.945   2.800
10216W        W83284  42.756  34.845  10.745
10217W        W83285  34.646  19.406   1.956
10218W        W83286   6.243  13.748   0.957
10219W        W83287  13.165  16.355  12.325
10220W        W83288  31.461  30.035   3.119
10221W        W83289  40.727  32.928  10.990
10222W        W83290  16.333  42.487  11.531
10223W        W83291  42.495  22.792   1.334
10224W        W83292  23.708  15.182   0.960
10225W        W83293  16.817  19.046  14.880
10226W        W83294   7.838  17.811   3.622
10227W        W83295  20.565  36.334   3.971
10228W        W83296  17.794   2.252   0.513
10229W        W83297  37.745  27.516   1.794
10230W        W83298  12.565  16.445   3.270
10231W        W83299  19.328  34.838  14.433
10232W        W83300   5.703  41.052   0.291
10233W        W83301  14.749  28.615  13.043
10234W        W83302   0.226   9.897   3.201
10235W        W83303   2.632   9.079   3.602
10236W        W83304   5.361  25.689  10.815
10237W        W83305  18.272  10.913   4.528
10238W        W83306  17.603  28.038  13.398
10239W        W83307   8.385   9.416   2.255
10240W        W83308  36.466  44.008  14.491
10241W        W83309  27.744  36.049  11.601
10242W        W83310  42.724  40.024  13.012
10243W        W83311  39.030  41.322  13.048
10244W        W83312  43.873   2.730  14.326
10245W        W83313  41.187  36.944   3.257
10246W        W83314  24.536  19.850  12.010
10247W        W83315  20.251  17.972  14.910
10248W        W83316  37.354   0.739  11.372
10249W        W83317  32.070  29.166   4.494
10250W        W83318   6.741  26.065   0.512
10251W        W83319  24.588  42.282   2.891
10252W        W83320  25.773  31.877  11.203
10253W        W83321   6.695   9.593  11.920
10254W        W83322  10.228   8.257  11.663
10255W        W83323  36.642  42.817  10.700
10256W        W83324   3.361  40.648   3.206
10257W        W83325  14.728  12.918  14.382
10258W        W83326   4.054   3.559  11.579
10259W        W83327  35.891  11.084  13.882
10260W        W83328   5.930  20.967  14.771
10261W        W83329   4.279  43.130   1.370
10262W        W83330  34.117  16.638  10.343
10263W        W83331  43.536  23.930   2.549
10264W        W83332  38.323   8.430   1.303
10265W        W83333   6.185  39.060  14.718
10266W        W83334   9.147   1.932   2.797
10267W        W83335  43.732   5.685  12.982
10268W        W83336  22.394   9.067   3.766
10269W        W83337  31.899  23.803   1.304
10270W        W83338   4.641  26.463  14.351
10271W        W83339  44.060  16.202   2.740
10272W        W83340   3.899  12.638   1.327
10273W        W83341   7.871  27.669   0.899
10274W        W83342  14.069  18.708  13.003
10275W        W83343   4.979  37.105  11.980
10276W        W83344   2.214  21.146  14.014
10277W        W83345   0.151  32.041   1.295
10278W        W83346   0.498  26.323   2.620
10279W        W83347  23.462  37.357  14.770
10280W        W83348   1.263  20.924   1.795
10281W        W83349  24.565  36.561  11.289
10282W        W83350  16.590  16.543  11.494
10283W        W83351   6.834  32.618  13.831
10284W        W83352  42.827  20.504  12.574
10285W        W83353  21.816  14.310  10.704
10286W        W83354  14.275  38.913  12.664
10287W        W83355  23.681  19.647   0.990
10288W        W83356   5.310   5.167   2.209
10289W        W83357   0.833  23.365  13.957
10290W        W83358  10.891   2.557   0.618
10291W        W83359  26.906  22.932   2.351
10292W        W83360  27.050  34.509   4.790
10293W        W83361  17.626  18.605  12.108
10294W        W83362  36.953  12.206   3.209
10295W        W83363   0.253  13.233  13.168
10296W        W83364  15.401   1.228   2.676
10297W        W83365  36.944   1.467   2.218
10298W        W83366  31.967  17.711   1.652
10299W        W83367   8.367  44.095  12.138
10300W        W83368   4.386  16.772  13.615
10301W        W83369  37.102   8.762  13.867
10302W        W83370  32.669  30.934   3.116
10303W        W83371  27.335  41.358   2.584
10304W        W83372  18.491  23.397   0.676
10305W        W83373  23.720  18.093   1.885
10306W        W83374  16.230  34.428  11.611
10307W        W83375  37.000  23.446  13.027
10308W        W83376   2.489  21.016   3.747
10309W        W83377  43.863   7.166  12.778
10310W        W83378  39.501  42.925   1.252
10311W        W83379  19.501   7.007   3.706
10312W        W83380  41.446   3.366  13.491
10313W        W83381   0.359  24.294  14.897
10314W        W83382  16.493  24.105   4.475
10315W        W83383  11.298  12.344  12.925
10316W        W83384  26.586   5.682   0.653
10317W        W83385  36.365   7.746  10.550
10318W        W83386  43.338  24.696  12.043
10319W        W83387   7.994  25.080  10.785
10320W        W83388  12.666   9.414  14.210
10321W        W83389  28.008   2.517  12.590
10322W        W83390  34.825   3.773  11.143
10323W        W83391   7.394  19.115  14.907
10324W        W83392   4.639  43.956  14.468
10325W        W83393  34.440   1.770   0.963
10326W        W83394  40.818   0.243   1.174
10327W        W83395  28.107  30.875   1.367
10328W        W83396  27.052  11.724   3.817
10329W        W83397   0.891  41.762  14.713
10330W        W83398   9.731  29.170  13.042
10331W        W83399  20.088   3.929   4.174
10332W        W83400  38.585  17.792   0.417
10333W        W83401   7.919  13.216  12.371
10334W        W83402  39.263   0.806  14.894
10335W        W83403  27.839  26.417  11.577
10336W        W83404  17.540  22.413   0.464
10337W        W83405  39.927   4.701  11.603
10338W        W83406  24.026  35.996   1.481
10339W        W83407  42.115  31.510  14.769
10340W        W83408   5.768  27.417  10.497
10341W        W83409  41.943  33.893   3.552
10342W        W83410  26.591   7.623   2.927
10343W        W83411  21.519  43.502  12.340
10344W        W83412  37.243  21.346   5.102
10345W        W83413   0.540  31.090   2.388
10346W        W83414  13.076  30.936   2.875
10347W        W83415  37.520  37.949   1.136
10348W        W83416  27.637  42.250  11.563
10349W        W83417   8.619  10.611   4.100
10350W        W83418  21.137  31.635  11.927
10351W        W83419  14.320  25.236   2.686
10352W        W83420  13.641  16.640  14.295
10353W        W83421  31.839  26.933  10.089
10354W        W83422  23.550  13.098  13.915
10355W        W83423  12.897  26.731  11.450
10356W        W83424  12.390  42.360  10.762
10357W        W83425  23.510  31.579   3.636
10358W        W83426  30.040  10.322  14.289
10359W        W83427  29.570   8.135   1.862
10360W        W83428  24.638  30.739  12.478
10361W        W83429  35.907  32.999   4.083
10362W        W83430  40.674  40.029  11.074
10363W        W83431  30.537   3.356  12.979
10364W        W83432  12.089  31.010  12.159
10365W        W83433  24.016   9.856  12.931
10366W        W83434  30.527  36.352   3.835
10367W        W83435   2.778  11.569   0.549
10368W        W83436  24.180  24.980   1.809
10369W        W83437  29.633   0.225   4.049
10370W        W83438  29.511  25.017   0.473
10371W        W83439  33.954  33.958  12.648
10372W        W83440  32.352  42.460   0.927
10373W        W83441  35.590  13.718  10.996
10374W        W83442  25.125  43.880  10.761
10375W        W83443  41.317  42.928   3.666
10376W        W83444  14.060  15.726   4.229
10377W        W83445   0.117  20.608  14.445
10378W        W83446  16.651  40.086   3.263
10379W        W83447  10.184  18.993   2.835
10380W        W83448  37.020  18.635   1.141
10381W        W83449  18.897  20.382   4.069
10382W        W83450  35.919  23.176   3.744
10383W        W83451   5.835  33.879   3.770
10384W        W83452   3.815  31.901  11.683
10385W        W83453  42.458  18.586  14.433
10386W        W83454  40.517  18.353   3.737
10387W        W83455  37.886  35.686  10.117
10388W        W83456  18.795  28.015  13.962
10389W        W83457   1.288   8.678   0.710
10390W        W83458   4.371   6.373  14.461
10391W        W83459  43.412   1.866  13.362
10392W        W83460  16.938  14.617   2.271
10393W        W83461   6.493   2.413  13.062
10394W        W83462  44.582  21.974  12.199
10395W        W83463  35.455  13.581   4.301
10396W        W83464  10.704  18.043  13.690
10397W        W83465  41.852  28.101   4.092
10398W        W83466  32.073  12.618   3.439
10399W        W83467  40.875  24.152   3.276
10400W        W83468  28.215  24.292   3.295
10401W        W83469  30.072  27.967  12.087
10402W        W83470   0.826  39.081  12.935
10403W        W83471  44.292  19.301  14.849
10404W        W83472   8.209   4.460   0.829
10405W        W83473  34.660   3.481   5.012
10406W        W83474  14.686   0.995  13.030
10407W        W83475  12.619  20.515  13.024
10408W        W83476  30.127  16.262   0.822
10409W        W83477   8.706  34.901   1.707
10410W        W83478  13.141  21.661   4.676
10411W        W83479  27.646  28.535   1.659
10412W        W83480  22.032  18.934   5.409
10413W        W83481  16.606   6.670   2.174
10414W        W83482   2.490   7.065  10.117
10415W        W83483   6.333  14.104  13.095
10416W        W83484  10.741   4.162  14.795
10417W        W83485  37.807  22.571  13.574
10418W        W83486  17.695   3.786  13.149
10419W        W83487  29.058  39.151   0.688
10420W        W83488  28.643  30.623   1.249
10421W        W83489   2.641  41.805   2.810
10422W        W83490  29.623  18.354  13.340
10423W        W83491  26.201  38.115   3.169
10424W        W83492  29.738  40.461  13.068
10425W        W83493  28.318  27.948   5.033
10426W        W83494   0.245  19.937  11.278
10427W        W83495   2.956  40.739  14.843
10428W        W83496   8.251  33.589   4.704
10429W        W83497  38.105  12.352   1.343
10430W        W83498  41.720  25.033  11.676
10431W        W83499  41.998   7.499  11.948
10432W        W83500   6.290  36.839   2.549
10433W        W83501  40.797  35.128  14.927
10434W        W83502  15.606   9.409   0.793
10435W        W83503  37.026  28.130   2.753
10436W        W83504  27.062   5.835   4.527
10437W        W83505  11.097  42.356   0.282
10438W        W83506  42.349  35.664   2.198
10439W        W83507   7.853   3.770   2.444
10440W        W83508  42.436  15.205  13.847
10441W        W83509   7.717  38.674  11.123
10442W        W83510  24.744   0.374   2.200
10443W        W83511   0.661  22.739   1.406
10444W        W83512  10.178   1.834   2.725
10445W        W83513  22.809  12.271   1.418
10446W        W83514  16.832  16.689  12.494
10447W        W83515  33.655  30.428  12.111
10448W        W83516  16.654  33.441   3.138
10449W        W83517  22.210  23.620   2.461
10450W        W83518  27.667  25.148  12.020
10451W        W83519  24.217   2.075  11.527
10452W        W83520  44.385   2.912   2.643
10453W        W83521  42.346   1.670   2.647
10454W        W83522  18.346  40.318   2.191
10455W        W83523   1.890  25.994  11.821
10456W        W83524  19.276  34.971   4.592
10457W        W83525  35.861  34.942  10.999
10458W        W83526  41.756   1.216   4.265
10459W        W83527   8.724  44.173   3.586
10460W        W83528  34.149  29.107  14.817
10461W        W83529  41.884  35.968  11.024
10462W        W83530  39.126  24.964   5.046
10463W        W83531  29.959  24.607  12.919
10464W        W83532  14.348  22.572   3.583
10465W        W83533  40.005  28.700  12.093
10466W        W83534   2.918  21.016  12.309
10467W        W83535  42.968  19.983   4.580
10468W        W83536   3.727  44.770  14.891
10469W        W83537  26.682  21.651   2.798
10470W        W83538  26.615  35.562  10.857
10471W        W83539  43.503   8.055   0.066
10472W        W83540  37.994   4.326  11.510
10473W        W83541  32.170   5.322   1.296
10474W        W83542  19.153   7.463  11.132
10475W        W83543  41.528   9.521   3.119
10476W        W83544   5.973  26.649   1.730
10477W        W83545  40.968  37.105  13.108
10478W        W83546  10.318   3.578   4.163
10479W        W83547  15.135   6.273  13.779
10480W        W83548  11.576  42.067   2.860
10481W        W83549  26.981  33.612  13.944
10482W        W83550  38.803   7.203  13.990
10483W        W83551  25.996  34.663   4.469
10484W        W83552  35.651  21.780   3.299
10485W        W83553  34.435  18.565  12.557
10486W        W83554  35.700   5.033   2.736
10487W        W83555  34.053  43.299  13.877
10488W        W83556   8.100  25.487   4.156
10489W        W83557  18.126  43.265  13.392
10490W        W83558  30.579  43.039   3.337
10491W        W83559  18.995   2.947   2.871
10492W        W83560  36.850  34.018   3.183
10493W        W83561   4.166   2.792  12.055
10494W        W83562  33.178  40.606   3.225
10495W        W83563  39.073  20.660   0.776
10496W        W83564  37.444  44.736   4.085
10497W        W83565  33.391  21.722   2.373
10498W        W83566  33.078  21.402  11.126
10499W        W83567  19.113  28.374   3.138
10500W        W83568  40.812  20.738  14.402
10501W        W83569  25.151  43.222   4.095
10502W        W83570  17.507  16.125  14.603
10503W        W83571   8.707  43.984  10.125
10504W        W83572  30.474  32.537  12.972
10505W        W83573  12.677   7.213  12.622
10506W        W83574   8.754  41.831   3.716
10507W        W83575  28.024  29.427  12.508
10508W        W83576  23.512  22.492  10.784
10509W        W83577  24.918   9.680   3.701
10510W        W83578  36.658  24.222   1.405
10511W        W83579  33.860  29.587  13.916
10512W        W83580  42.796   7.366  13.538
10513W        W83581  18.477  14.645   0.822
10514W        W83582  28.488   0.855  12.934
10515W        W83583   9.291  25.125   2.782
10516W        W83584   2.416   6.669   2.784
10517W        W83585   5.980  27.119   4.130
10518W        W83586  16.346  21.159   5.166
10519W        W83587   5.921  20.784  12.429
10520W        W83588   2.514  40.764  11.094
10521W        W83589  43.509  17.526  13.782
10522W        W83590  40.593  37.821   0.968
10523W        W83591  20.635  11.391   1.554
10524W        W83592  31.627  12.211   4.608
10525W        W83593  28.237  38.555  14.340
10526W        W83594  31.147  27.623  12.530
10527W        W83595   3.343  13.885   4.160
10528W        W83596  41.245   9.467   2.709
10529W        W83597  25.688  22.557  12.031
10530W        W83598  11.857   7.789   2.812
10531W        W83599  17.655  10.149   3.265
10532W        W83600  25.720  27.241  11.170
10533W        W83601  28.017  26.730  11.216
10534W        W83602   8.794  15.843   2.834
10535W        W83603  35.404  24.180   1.892
10536W        W83604  32.786   0.763   3.832
10537W        W83605  34.749  25.467   3.204
10538W        W83606  40.428  31.863   3.214
10539W        W83607  29.764  42.513  14.786
10540W        W83608  28.426  33.387  11.108
10541W        W83609   4.433  23.815   9.983
10542W        W83610   5.217  33.696   3.292
10543W        W83611  15.304  19.231   3.200
10544W        W83612  34.794  27.167   1.717
10545W        W83613   8.275   8.689   4.633
10546W        W83614  10.669  33.144  11.615
10547W        W83615  33.040  28.970   3.432
10548W        W83616  41.326  42.950  11.485
10549W        W83617  16.089  33.470  10.674
10550W        W83618  14.791  25.491   4.977
10551W        W83619  23.530  19.014   2.853
10552W        W83620  11.095   7.168   4.851
10553W        W83621  38.280  44.857  14.731
10554W        W83622  16.585   5.039  10.384
10555W        W83623  24.243  27.261   2.257
10556W        W83624  17.613  27.184   1.881
10557W        W83625   7.868  33.988  13.438
10558W        W83626  27.247  38.027   4.730
10559W        W83627   2.220   1.223  12.854
10560W        W83628  18.155   5.759   2.264
10561W        W83629  21.582  21.495   0.018
10562W        W83630  37.778  34.091   4.403
10563W        W83631  24.528  34.350  11.607
10564W        W83632  39.537  19.521  11.904
10565W        W83633   8.569  23.239  10.826
10566W        W83634  39.050  30.573   3.787
10567W        W83635  13.110  16.246   3.986
10568W        W83636  24.636  33.386   1.335
10569W        W83637  24.579   7.107   0.264
10570W        W83638  28.235  42.235  14.882
10571W        W83639  18.106  30.289  10.933
10572W        W83640  22.593  26.426   4.621
10573W        W83641  29.366   3.329  11.664
10574W        W83642  11.370  38.577  14.410
10575W        W83643  41.031  20.638   2.798
10576W        W83644   6.126  32.578  14.871
10577W        W83645  18.905   4.734  11.052
10578W        W83646  21.511  44.672  10.945
10579W        W83647  30.616  23.772   3.338
10580W        W83648  40.506  35.162  12.088
10581W        W83649  27.001  21.500  11.609
10582W        W83650  44.227   8.434  10.673
10583W        W83651  36.983   0.496   3.888
10584W        W83652  19.108  16.181  14.377
10585W        W83653   3.279   3.301   4.120
10586W        W83654  40.283  38.078   4.289
10587W        W83655   3.833  33.002  13.454
10588W        W83656  22.638  11.978   9.728
10589W        W83657  41.427  27.692   1.019
10590W        W83658   2.837  23.441   4.834
10591W        W83659  25.716  20.657  12.074
10592W        W83660  24.035  14.404  13.997
10593W        W83661  22.644  15.093   0.181
10594W        W83662  31.378   0.421  11.570
10595W        W83663  15.142  37.339   4.661
10596W        W83664   0.111  11.392   1.310
10597W        W83665  30.524  17.111  12.931
10598W        W83666  35.005  20.537   4.548
10599W        W83667  19.126  33.951  14.974
10600W        W83668  21.030  30.688  11.020
10601W        W83669  41.328  34.341   1.926
10602W        W83670  39.773  20.570  14.789
10603W        W83671  15.890  12.741  14.966
10604W        W83672  30.293  19.332   0.371
10605W        W83673   1.836  11.808  10.819
10606W        W83674  24.736   5.696   2.740
10607W        W83675  15.437   8.946   1.724
10608W        W83676   3.547  38.645  10.303
10609W        W83677  13.573  25.695   0.424
10610W        W83678   7.656  27.668  12.309
10611W        W83679  24.245   6.723   1.656
10612W        W83680   6.952  29.546   1.433
10613W        W83681   3.681  26.079  14.361
10614W        W83682   8.381   1.052   1.530
10615W        W83683  18.587  28.525   1.432
10616W        W83684  42.804  25.653   1.285
10617W        W83685  38.711  34.381  13.358
10618W        W83686   2.178  16.283   3.852
10619W        W83687  41.278   4.226  13.034
10620W        W83688  24.590   8.139   3.367
10621W        W83689  26.043  22.286   1.666
10622W        W83690  34.867  39.134   2.256
10623W        W83691  16.971  24.128  12.064
10624W        W83692  23.673  16.705   0.130
10625W        W83693  21.963  27.736  10.301
10626W        W83694  38.070  33.560   3.584
10627W        W83695  18.711  26.730  11.303
10628W        W83696  26.963  26.708   3.204
10629W        W83697  24.777  33.036  13.474
10630W        W83698  20.985  10.122  12.822
10631W        W83699  13.231  27.212   2.691
10632W        W83700  11.197  13.151  14.538
10633W        W83701   0.737  12.416   0.382
10634W        W83702  28.001   8.836  13.297
10635W        W83703  16.575   7.581   2.808
10636W        W83704  34.396  28.146  13.475
10637W        W83705  39.418  43.502  14.917
10638W        W83706  37.875  44.571  10.664
10639W        W83707   5.187  10.913   0.283
10640W        W83708  33.072  21.193   1.271
10641W        W83709  34.940  33.074  13.181
10642W        W83710  34.468  12.596  14.294
10643W        W83711  29.393  12.111  14.979
10644W        W83712  18.628  41.248  14.610
10645W        W83713  32.020  25.929   1.896
10646W        W83714  11.416   5.241   1.512
10647W        W83715  10.478  41.543  12.661
10648W        W83716  41.187  33.656  14.823
10649W        W83717  36.884  18.661   4.702
10650W        W83718   9.373   4.436   3.419
10651W        W83719  10.449  16.329  13.968
10652W        W83720  26.072  20.028   3.853
10653W        W83721  42.929  31.932  12.037
10654W        W83722  18.213  15.426  10.935
10655W        W83723  37.678  17.712   4.224
10656W        W83724  12.537   3.589  13.800
10657W        W83725  44.546  15.045   2.817
10658W        W83726  15.617  39.006   1.356
10659W        W83727  41.751   4.345   0.171
10660W        W83728  27.933   6.347   4.534
10661W        W83729  17.260  40.291  11.856
10662W        W83730  24.613   8.732   1.213
10663W        W83731  38.111  10.670  12.799
10664W        W83732  15.093  30.586  10.824
10665W        W83733  26.746  31.026  12.586
10666W        W83734  17.608  40.325   2.724
10667W        W83735  29.970  31.209   2.484
10668W        W83736   2.799  11.140  12.352
10669W        W83737  25.240   2.446  12.391
10670W        W83738  18.816  31.417  11.655
10671W        W83739  18.687  41.816  13.994
10672W        W83740   4.743   8.936   1.356
10673W        W83741  24.917  16.644   3.887
10674W        W83742  15.752  43.804  13.828
10675W        W83743  25.995  28.393  10.682
10676W        W83744  25.177  36.003  13.754
10677W        W83745  28.354  27.943   1.306
10678W        W83746   8.817  37.170  10.820
10679W        W83747  41.047  35.849  12.592
10680W        W83748  43.743  35.523   2.366
10681W        W83749  26.202  19.278  12.377
10682W        W83750  33.011  32.896  11.571
10683W        W83751  25.084   3.015  13.316
10684W        W83752  27.216  43.484  13.115
10685W        W83753  18.092   7.308  10.693
10686W        W83754   8.144  36.468  12.331
10687W        W83755  43.170  34.062  11.613
10688W        W83756   2.971  44.065  14.038
10689W        W83757  26.375  37.533  10.488
10690W        W83758  29.821  18.298   4.972
10691W        W83759  19.123  10.402  12.471
10692W        W83760  41.077  38.584   4.197
10693W        W83761  18.976  39.038  14.800
10694W        W83762  10.427  26.051   0.867
10695W        W83763  27.499  12.381   0.924
10696W        W83764  25.439  16.828  11.808
10697W        W83765  19.753  19.118  10.995
10698W        W83766  24.275  12.819   0.087
10699W        W83767  11.754  27.156   3.293
10700W        W83768   3.693  15.714   0.763
10701W        W83769   2.932  12.132   4.581
10702W        W83770  31.084   3.713  13.080
10703W        W83771  12.138  14.158  13.961
10704W        W83772   1.936  27.002   2.265
10705W        W83773   5.644   8.930   1.469
10706W        W83774  44.009  27.423  14.875
10707W        W83775  17.640  37.731  13.118
10708W        W83776  32.420  29.244  14.332
10709W        W83777  26.530  29.623  13.834
10710W        W83778  12.761  35.833  13.034
10711W        W83779  13.708  23.080   4.632
10712W        W83780  25.071  10.797   5.090
10713W        W83781  14.555   5.048   3.363
10714W        W83782   8.417  10.730   3.586
10715W        W83783   7.765  19.670  12.286
10716W        W83784  37.596   2.023   4.147
10717W        W83785  14.127  34.495   0.540
10718W        W83786  15.673   0.036  11.455
10719W        W83787  34.433  21.436  12.903
10720W        W83788  27.434  24.565   3.255
10721W        W83789  41.394   3.896  12.635
10722W        W83790  33.225  34.570   4.293
10723W        W83791  32.935  15.038   2.757
10724W        W83792  16.200  29.499   2.144
10725W        W83793  19.237  37.529   4.590
10726W        W83794  20.180  35.366  11.124
10727W        W83795   4.604  13.666  12.028
10728W        W83796  14.311   4.448  14.786
10729W        W83797  25.115   4.403   0.235
10730W        W83798  19.479  40.284  10.622
10731W        W83799  24.357  21.672   3.295
10732W        W83800  44.048  24.091  11.616
10733W        W83801  24.722  37.946  12.600
10734W        W83802  19.166  31.625   3.180
10735W        W83803  33.651   4.059  13.851
10736W        W83804  21.801  19.583  11.137
10737W        W83805  41.044  12.196   3.123
10738W        W83806  14.800  15.563   1.707
10739W        W83807  35.913  11.375  11.895
10740W        W83808  33.629  39.559   0.191
10741W        W83809  12.765  37.090   3.479
10742W        W83810   7.877   9.789  11.453
10743W        W83811  21.259  23.927  14.883
10744W        W83812  39.017   0.716   0.977
10745W        W83813  42.494  20.939  11.125
10746W        W83814  14.344  31.274   0.694
10747W        W83815  23.542  12.608   1.780
10748W        W83816   9.591  20.077  14.679
10749W        W83817  41.977  44.712   1.703
10750W        W83818  27.859  27.170   4.545
10751W        W83819  16.409  37.200  13.150
10752W        W83820  36.920   4.365   3.016
10753W        W83821  20.826  21.504  14.491
10754W        W83822  14.135   0.989   4.535
10755W        W83823  19.512  16.061   3.280
10756W        W83824   0.844  36.085  13.890
10757W        W83825  33.072   3.714   4.042
10758W        W83826  36.475  43.959  12.578
10759W        W83827   6.951   1.033  12.892
10760W        W83828  24.141  43.052  11.171
10761W        W83829  33.156  34.631  12.082
10762W        W83830  20.801  26.711  14.495
10763W        W83831   5.862  44.041  14.121
10764W        W83832  13.613  23.706   3.310
10765W        W83833  33.445  29.720   4.055
10766W        W83834  43.029  19.064  11.633
10767W        W83835  44.964   2.421  12.051
10768W        W83836  31.324  24.895  12.641
10769W        W83837  41.590  11.126  11.933
10770W        W83838  41.768   6.095  11.109
10771W        W83839   0.218  41.330   1.524
10772W        W83840  16.117  30.692  13.949
10773W        W83841   1.780   8.943  13.871
10774W        W83842  41.639  24.445  12.969
10775W        W83843  27.864  17.503  14.888
10776W        W83844  25.789   3.578   2.787
10777W        W83845  27.110  37.517   4.873
10778W        W83846  27.936   7.882  12.862
10779W        W83847  40.264  24.445  13.035
10780W        W83848  13.819   0.887   1.050
10781W        W83849   9.805  30.060   4.304
10782W        W83850   9.796  13.252   4.028
10783W        W83851  19.939  12.951  11.287
10784W        W83852  19.670  14.595   2.466
10785W        W83853  25.930  10.744   0.811
10786W        W83854   4.644  26.581   4.149
10787W        W83855  43.812  40.871  10.786
10788W        W83856  21.524  19.761   1.353
10789W        W83857  19.761   6.320  12.961
10790W        W83858  15.464  11.054   3.399
10791W        W83859  14.730  34.178   1.384
10792W        W83860   1.498  23.575  10.652
10793W        W83861  22.290  20.698  13.067
10794W        W83862   2.523   2.387   0.012
10795W        W83863   1.003  34.346  12.426
10796W        W83864   9.225  27.651   2.887
10797W        W83865  24.551   8.907  14.880
10798W        W83866  20.760   6.888   0.422
10799W        W83867  39.844   2.654  12.509
10800W        W83868  31.634  29.972  13.958
10801W        W83869  33.030  11.836   3.722
10802W        W83870  10.891  41.022   2.628
10803W        W83871   7.278  36.409   0.157
10804W        W83872  11.895  40.327   3.075
10805W        W83873  33.582  40.786   5.199
10806W        W83874  24.348  19.572   0.199
10807W        W83875   5.842   1.305   4.643
10808W        W83876  41.408  30.075   1.314
10809W        W83877  11.299  39.083   3.706
10810W        W83878   5.797  32.672  10.698
10811W        W83879  29.797  20.750   4.265
10812W        W83880  19.139  30.200   1.227
10813W        W83881  34.884   1.039   2.756
10814W        W83882   3.824  11.152  10.951
10815W        W83883  17.215  30.725   0.450
10816W        W83884   7.313   6.308  13.244
10817W        W83885  10.803   8.770  14.552
10818W        W83886  43.276  14.717  10.601
10819W        W83887  16.768  31.124   4.254
10820W        W83888  42.887   6.105  12.794
10821W        W83889  20.497  43.475  12.053
10822W        W83890  18.186  12.757   0.204
10823W        W83891  25.653   9.971   1.412
10824W        W83892  34.627  15.302   2.970
10825W        W83893  23.962  17.740  14.362
10826W        W83894  30.610  28.676   4.291
10827W        W83895  13.408  28.221  10.611
10828W        W83896  21.568  23.724  11.990
10829W        W83897  26.278   7.958  13.398
10830W        W83898  35.117   5.286  12.360
10831W        W83899  33.908   8.592   5.238
10832W        W83900  43.030   1.424   4.866
10833W        W83901  18.707   4.873   2.372
10834W        W83902  17.788  38.897  14.518
10835W        W83903  21.521   1.001   5.491
10836W        W83904  16.262   9.393  12.030
10837W        W83905  38.968  26.033  11.540
10838W        W83906  28.114   0.547  11.026
10839W        W83907  30.195  18.725   4.017
10840W        W83908  36.830  32.402   3.836
10841W        W83909   9.227  11.149   0.942
10842W        W83910  10.414  44.911   4.517
10843W        W83911  24.826   4.989   4.951
10844W        W83912   3.982   5.286   0.943
10845W        W83913  16.625  42.477  12.509
10846W        W83914  12.252   8.897  12.769
10847W        W83915  29.606  15.981  13.957
10848W        W83916  30.056  35.925  11.128
10849W        W83917   5.137  22.615  11.921
10850W        W83918  29.410  41.973   2.816
10851W        W83919  17.908  28.893   2.147
10852W        W83920  21.086  18.321  11.156
10853W        W83921  20.148  29.870   4.615
10854W        W83922  18.621   8.390   0.284
10855W        W83923  35.999  40.538   4.804
10856W        W83924  30.181   8.254  10.404
10857W        W83925  28.351  24.125   2.050
10858W        W83926   1.764  20.632  14.226
10859W        W83927   9.773  40.176   0.489
10860W        W83928   0.339  29.977  12.153
10861W        W83929  34.480  33.489  12.132
10862W        W83930  16.815  30.788  12.906
10863W        W83931  34.263   1.003  11.428
10864W        W83932  20.856  16.635  11.221
10865W        W83933  32.626  15.109  10.855
10866W        W83934  12.887  37.321   4.355
10867W        W83935   4.212  44.790   0.850
10868W        W83936   7.406  37.057   3.241
10869W        W83937  16.168  40.892   3.288
10870W        W83938  18.573  20.288  10.911
10871W        W83939  42.979  40.428   0.526
10872W        W83940   9.186   3.665   1.807
10873W        W83941  17.237  21.586   3.350
10874W        W83942   0.782   0.843  12.366
10875W        W83943  32.893  43.393   0.179
10876W        W83944  36.227  32.937   3.647
10877W        W83945   4.245   1.938  14.764
10878W        W83946  25.707  21.536  14.919
10879W        W83947   2.842  39.702  12.072
10880W        W83948  12.316  23.544   3.815
10881W        W83949  14.617  20.431   4.452
10882W        W83950   3.474  19.916  10.548
10883W        W83951  19.750   9.778  10.690
10884W        W83952  37.373  12.051   3.737
10885W        W83953  44.943  21.171   3.052
10886W        W83954  10.775  38.118  11.516
10887W        W83955  15.855   8.235   1.466
10888W        W83956  29.848  19.960  10.956
10889W        W83957  38.249   5.004  12.126
10890W        W83958  30.612   4.986   4.165
10891W        W83959  39.809  38.988  13.065
10892W        W83960   8.201  15.333   0.592
10893W        W83961  17.031  30.066  11.798
10894W        W83962  11.563  24.787  11.375
10895W        W83963  44.741  29.495   3.543
10896W        W83964  23.496  44.509   2.211
10897W        W83965   2.541  14.739  13.547
10898W        W83966  11.836  39.288  12.476
10899W        W83967   6.884   2.257   0.042
10900W        W83968  44.514  43.907  14.420
10901W        W83969   7.843  14.207   2.407
10902W        W83970   6.758  41.334  14.257
10903W        W83971  14.582  32.511  14.473
10904W        W83972   0.971  21.314  11.094
10905W        W83973  15.127   1.954  11.895
10906W        W83974  42.551  42.826  13.001
10907W        W83975  33.739  37.574   2.257
10908W        W83976   6.245  11.409   4.125
10909W        W83977  11.667  15.618  14.433
10910W        W83978  31.294  31.760  10.761
10911W        W83979  21.615  11.803   3.703
10912W        W83980  26.737   9.702  12.803
10913W        W83981   2.767  35.058   3.996
10914W        W83982  25.536   4.230   0.481
10915W        W83983  13.351  28.730  10.464
10916W        W83984  36.512  19.721  11.657
10917W        W83985  23.734  29.227  12.365
10918W        W83986  17.043  41.243  11.003
10919W        W83987  18.812  25.512   1.686
10920W        W83988   1.947   9.225   1.831
10921W        W83989  19.595  39.596  13.369
10922W        W83990  30.896  23.440  11.754
10923W        W83991  10.779   2.938   0.284
10924W        W83992  18.454  37.493  13.493
10925W        W83993   1.691  10.764  13.915
10926W        W83994  10.471  15.819  14.048
10927W        W83995  39.990  23.758   1.289
10928W        W83996  21.962   2.999   2.443
10929W        W83997  21.988  37.307   4.105
10930W        W83998  29.303  37.856  13.383
10931W        W83999  30.576  26.256   3.697
10932W        W84000  41.017  26.684   4.261
10933W        W84001  21.911  14.445  11.789
10934W        W84002  17.838  28.992   1.373
10935W        W84003   7.108   7.419   1.308
10936W        W84004  30.123  20.785   2.362
10937W        W84005  21.306  13.788   2.657
10938W        W84006   1.541  31.083  12.404
10939W        W84007   5.164  20.804   1.723
10940W        W84008   9.696  39.012   2.361
10941W        W84009   9.902  10.791   4.603
10942W        W84010  30.013   5.362  12.639
10943W        W84011  36.971  19.456   4.137
10944W        W84012   3.986   2.435   3.590
10945W        W84013   3.746  43.746   1.259
10946W        W84014  25.208  22.488   0.859
10947W        W84015  30.046  32.842   3.542
10948W        W84016  28.845  37.825   2.440
10949W        W84017  17.563   4.225  12.907
10950W        W84018  13.060  12.893  12.972
10951W        W84019  40.901  26.242  13.734
10952W        W84020   6.281  20.528   0.005
10953W        W84021  23.844  21.271   4.516
10954W        W84022   2.666  19.696  14.517
10955W        W84023  30.328  29.548  14.900
10956W        W84024  32.165  16.597   1.351
10957W        W84025  24.152  38.557   4.727
10958W        W84026   9.667  23.591   2.735
10959W        W84027   8.905  30.257   1.377
10960W        W84028  30.031  39.993   0.470
10961W        W84029  19.905  23.596  12.998
10962W        W84030  41.368  16.717   0.059
10963W        W84031  29.162  18.433   2.923
10964W        W84032   8.262   5.812   0.330
10965W        W84033   4.481  13.786  13.253
10966W        W84034   8.134  13.286  11.547
10967W        W84035  21.999  16.833   2.849
10968W        W84036  40.213  21.113   2.705
10969W        W84037  29.960  18.783   1.508
10970W        W84038   0.257  22.696   0.141
10971W        W84039  33.972  13.377  13.524
10972W        W84040   5.188  38.378   3.657
10973W        W84041   4.701  26.968  14.507
10974W        W84042   1.493  19.482   0.246
10975W        W84043  32.526  33.862  10.927
10976W        W84044   3.417  39.064   0.847
10977W        W84045  27.529  41.748  11.630
10978W        W84046  30.549  24.035   3.783
10979W        W84047  38.847  15.185  11.277
10980W        W84048  42.570   3.816  13.039
10981W        W84049   8.256  33.526  10.726
10982W        W84050  27.196  30.980   1.003
10983W        W84051  18.257  23.472  14.293
10984W        W84052   0.564  41.598  12.446
10985W        W84053  37.620   9.984  14.819
10986W        W84054  16.999  31.338  11.599
10987W        W84055  25.121   2.136   3.660
10988W        W84056  26.161  15.287  13.116
10989W        W84057  26.206  17.269  11.511
10990W        W84058  23.934  38.832   1.901
10991W        W84059   1.236  14.184  11.155
10992W        W84060   8.156  37.463   2.147
10993W        W84061  14.672  35.964  11.055
10994W        W84062  15.556   8.887  10.329
10995W        W84063  26.944  11.410  11.105
10996W        W84064  29.837   2.444  12.867
10997W        W84065  36.982  10.912  10.672
10998W        W84066   9.543   1.248   2.298
10999W        W84067  29.719   7.953  11.047
11000W        W84068  19.301  44.573  14.948
11001W        W84069  32.507  23.085  14.443
11002W        W84070   7.855  14.149   1.898
11003W        W84071  42.924  20.513   4.584
11004W        W84072  13.138  40.466   1.787
11005W        W84073  28.225   1.239  12.638
11006W        W84074   9.175   7.831   2.182
11007W        W84075  18.135   1.047  11.790
11008W        W84076  30.247  15.186   0.880
11009W        W84077  18.686  43.517   4.163
11010W        W84078  41.912   7.170  13.460
11011W        W84079  12.410  34.072   0.477
11012W        W84080  19.587  10.679   4.446
11013W        W84081   5.766   3.956  13.348
11014W        W84082  10.626  28.137   3.738
11015W        W84083  34.141   7.850  13.337
11016W        W84084  30.957  27.390   1.898
11017W        W84085   8.864  26.128  14.670
11018W        W84086  30.595  27.494  11.627
11019W        W84087  37.469   5.686   2.460
11020W        W84088  40.316  24.789  14.977
11021W        W84089  40.420  16.162   1.780
11022W        W84090  20.445   6.230   0.148
11023W        W84091  13.535   0.021   1.321
11024W        W84092  12.352  38.866  10.583
11025W        W84093  42.246   6.910   0.816
11026W        W84094  37.629  38.949  14.876
11027W        W84095  38.934  23.326  13.996
11028W        W84096  26.570  35.834  14.519
11029W        W84097  29.071  11.019   4.692
11030W        W84098   9.448  25.038   4.223
11031W        W84099  42.064   6.281  13.921
11032W        W84100  26.069  13.416  12.983
11033W        W84101  43.715  18.051  14.474
11034W        W84102  22.800  20.206   2.756
11035W        W84103  22.182  43.753   1.330
11036W        W84104   0.072  40.979   3.224
11037W        W84105  15.821  26.156   4.053
11038W        W84106  42.345  31.907   1.686
11039W        W84107  42.231  30.967  12.998
11040W        W84108  40.558  22.408   0.303
11041W        W84109  44.270  28.435  12.998
11042W        W84110   9.809  12.229  11.451
11043W        W84111  17.165  15.306   0.413
11044W        W84112  39.015  13.767  11.969
11045W        W84113   7.147  25.973   1.461
11046W        W84114  43.039  35.444   3.430
11047W        W84115  39.809  26.287  12.255
11048W        W84116  41.020  18.746   0.018
11049W        W84117  11.385  26.950  12.576
11050W        W84118   8.792  21.501   1.705
11051W        W84119  43.398  10.910   4.031
11052W        W84120  43.925  11.453  12.057
11053W        W84121  16.463  30.188  13.443
11054W        W84122  31.674  40.426  13.082
11055W        W84123  26.610  36.406  13.503
11056W        W84124   1.955  32.405   4.686
11057W        W84125  34.135  15.346   3.152
11058W        W84126  32.417  42.350  12.832
11059W        W84127  36.495  38.442   2.631
11060W        W84128  40.283  26.581   2.394
11061W        W84129  39.013   5.764  14.448
11062W        W84130   5.968  25.045  12.106
11063W        W84131  42.923  31.491  14.032
11064W        W84132  29.317  33.991   1.202
11065W        W84133   3.431  25.595   4.203
11066W        W84134  29.868  31.659   0.641
11067W        W84135  43.371  40.822  11.578
11068W        W84136  12.031  32.081  11.347
11069W        W84137  42.089  29.933   4.087
11070W        W84138  29.438  40.803   1.879
11071W        W84139  20.301  17.032  14.872
11072W        W84140  33.061   2.709   4.053
11073W        W84141  28.519  34.851  12.093
11074W        W84142  29.119  38.385  10.430
11075W        W84143   0.964  31.958   2.518
11076W        W84144   2.422  35.943   1.662
11077W        W84145  36.822  27.898   1.413
11078W        W84146  24.149  13.841  10.782
11079W        W84147  34.805   5.886  13.304
11080W        W84148  14.264  30.507  10.189
11081W        W84149  20.164  19.351   1.463
11082W        W84150  38.053  11.851   1.296
11083W        W84151  35.836  29.956   1.690
11084W        W84152  22.205  11.229   4.917
11085W        W84153  44.825  39.402   1.018
11086W        W84154   4.142  16.842   1.188
11087W        W84155  32.112  40.392   0.343
11088W        W84156   0.859  39.648  13.017
11089W        W84157  11.155  11.165  12.022
11090W        W84158  29.976  17.229   1.404
11091W        W84159  37.678   9.434  12.615
11092W        W84160  43.941  25.094  12.616
11093W        W84161  37.067  29.206   1.019
11094W        W84162   6.330  19.553  10.522
11095W        W84163   7.502   4.907  11.390
11096W        W84164  38.994  26.770   1.243
11097W        W84165  37.299  37.478   1.062
11098W        W84166  44.337   2.930   1.679
11099W        W84167  35.654  14.311  11.200
11100W        W84168  43.527  33.027   2.744
11101W        W84169  11.282  29.757  11.137
11102W        W84170  17.804  25.637  13.321
11103W        W84171  11.304  20.107  13.914
11104W        W84172  27.987  44.314   1.248
11105W        W84173   1.728  37.476   5.206
11106W        W84174   0.670  34.890  10.950
11107W        W84175  40.456  36.302   4.742
11108W        W84176   8.283  20.340  11.289
11109W        W84177  16.711  31.152   2.347
11110W        W84178  27.119  43.965  12.121
11111W        W84179  31.965  24.987  13.017
11112W        W84180  23.920  36.664  14.671
11113W        W84181  29.078  40.057  13.856
11114W        W84182  27.192   0.717   3.301
11115W        W84183  34.074  22.225   3.633
11116W        W84184  31.609  16.708   2.882
11117W        W84185  20.016  30.938  12.142
11118W        W84186  16.132  11.637   2.273
11119W        W84187  35.346  44.386  11.829
11120W        W84188  13.269  44.194   4.978
11121W        W84189  10.751   7.007  12.964
11122W        W84190  23.740  20.570   0.493
11123W        W84191  40.813  25.612  12.696
11124W        W84192   3.695  21.103   4.091
11125W        W84193  24.591  37.864   4.770
11126W        W84194   0.353   7.766  11.975
11127W        W84195  42.799  31.601  12.429
11128W        W84196  12.350  40.812  13.793
11129W        W84197  40.352  36.029   0.150
11130W        W84198  26.525  19.802   4.269
11131W        W84199  43.766  28.215  11.127
11132W        W84200   1.360  12.921  12.756
11133W        W84201   4.228  20.745  14.915
11134W        W84202  15.151  14.588   2.068
11135W        W84203  41.589   3.976   1.771
11136W        W84204  11.860  34.389  13.307
11137W        W84205   3.177   3.495  13.579
11138W        W84206   0.952  36.057   5.171
11139W        W84207   4.501  21.622  11.601
11140W        W84208   7.121  19.531   1.979
11141W        W84209  43.570   2.440   2.488
11142W        W84210  25.698  26.849  12.020
11143W        W84211  43.373  15.388  13.777
11144W        W84212  38.032  12.292   4.627
11145W        W84213  33.468  18.327   4.526
11146W        W84214   3.183  34.874  11.866
11147W        W84215  23.123   9.680  10.733
11148W        W84216  43.341  29.902  13.547
11149W        W84217   6.248  13.336   0.158
11150W        W84218  33.668  23.821  13.387
11151W        W84219  27.946   0.885   2.509
11152W        W84220  32.380   6.568   4.257
11153W        W84221  15.757   0.838  14.010
11154W        W84222  44.411   6.595  12.043
11155W        W84223  19.271   4.919  13.383
11156W        W84224  33.502  39.364  12.845
11157W        W84225  15.311  16.772   4.439
11158W        W84226  44.297   4.649   1.444
11159W        W84227  29.331   2.677  12.530
11160W        W84228  42.675  44.329   1.864
11161W        W84229  25.889  10.635  10.832
11162W        W84230  14.365  17.080   2.844
11163W        W84231   7.306  30.086  14.276
11164W        W84232   8.252   6.687   1.391
11165W        W84233  34.827  34.571   2.191
11166W        W84234  11.137  33.144   3.389
11167W        W84235  43.400  29.982   3.166
11168W        W84236  37.079   9.721   2.767
11169W        W84237  44.228   9.127  12.864
11170W        W84238  34.836  25.193  13.917
11171W        W84239   6.722  16.548  14.012
11172W        W84240  21.790  36.022   4.050
11173W        W84241   7.261  39.870  10.188
11174W        W84242  33.132  10.240  12.643
11175W        W84243  30.610  20.427   2.336
11176W        W84244  30.365  13.157  11.428
11177W        W84245  43.312  15.703  14.383
11178W        W84246  40.112  44.265  14.330
11179W        W84247  30.582  27.762   2.730
11180W        W84248  21.567   5.979   0.251
11181W        W84249  23.625  33.831  11.931
11182W        W84250  13.210  32.558   0.379
11183W        W84251   5.637  22.731  14.906
11184W        W84252  27.062  12.610   9.949
11185W        W84253  11.467  16.329  14.021
11186W        W84254  23.233  32.085   0.376
11187W        W84255  35.827  27.801  13.339
11188W        W84256  18.054  42.898   1.357
11189W        W84257  13.156  38.987   1.328
11190W        W84258   3.733  43.727   1.769
11191W        W84259  21.501  11.575   2.594
11192W        W84260  36.403   5.802   2.401
11193W        W84261  30.803  22.167   2.206
11194W        W84262  43.521   5.473   3.867
11195W        W84263  14.640   4.218   2.698
11196W        W84264   9.893  11.353   3.304
11197W        W84265  10.084  41.465  13.456
11198W        W84266  23.922  27.059   2.697
11199W        W84267  25.060  22.804  14.843
11200W        W84268  39.335   5.815   4.522
11201W        W84269  11.726  36.864   1.409
11202W        W84270   8.150  42.426   3.303
11203W        W84271  44.595   9.685  11.175
11204W        W84272  39.881  15.413  11.190
11205W        W84273  21.287  29.458   4.201
11206W        W84274  24.185  36.798  13.478
11207W        W84275  35.114  16.555  13.912
11208W        W84276  17.917  34.027   1.811
11209W        W84277   0.172   3.215   0.812
11210W        W84278  41.855  15.203   1.388
11211W        W84279  40.033  38.152   1.634
11212W        W84280  13.114  39.872  13.410
11213W        W84281  31.146  35.352   3.016
11214W        W84282  34.479  43.242  12.067
11215W        W84283  38.978   7.845   2.316
11216W        W84284  25.170  15.084  11.058
11217W        W84285   2.013   9.680  13.199
11218W        W84286  36.054  41.783   0.675
11219W        W84287   9.360  20.287   1.902
11220W        W84288  22.981  16.146   3.559
11221W        W84289   0.956   2.345  11.967
11222W        W84290  23.997  25.641  12.040
11223W        W84291   9.247  32.834  11.124
11224W        W84292   2.915  30.655  12.412
11225W        W84293  37.555  40.259   4.249
11226W        W84294  17.626   8.894  11.924
11227W        W84295  29.958  37.352  11.148
11228W        W84296  19.747  18.602   4.168
11229W        W84297  16.495  41.288   2.525
11230W        W84298  16.731  34.832   3.311
11231W        W84299   2.297  17.318  11.697
11232W        W84300  37.538  26.924   4.191
11233W        W84301  19.603   6.789  13.658
11234W        W84302  39.802  18.220  12.028
11235W        W84303  15.480  22.610   2.289
11236W        W84304  32.405  19.064  12.520
11237W        W84305  12.982  23.152  13.088
11238W        W84306  36.143   5.858   1.309
11239W        W84307   8.545  25.298  12.187
11240W        W84308  15.341  26.001   4.215
11241W        W84309  35.296  32.987   0.044
11242W        W84310  40.966  27.695   2.716
11243W        W84311   2.767  38.964   1.451
11244W        W84312  31.453  38.376  10.751
11245W        W84313  27.136   0.880  14.409
11246W        W84314   8.772   6.678   3.680
11247W        W84315  23.422  12.708  13.270
11248W        W84316   1.746   0.539   0.383
11249W        W84317  15.682  28.310   3.671
11250W        W84318  19.739  35.538   3.131
11251W        W84319   2.480  23.467  14.370
11252W        W84320  42.848  38.843   1.835
11253W        W84321   8.383  22.236  14.930
11254W        W84322  21.327  26.973  14.028
11255W        W84323  44.202  24.633  12.594
11256W        W84324  22.979  11.388   2.931
11257W        W84325  33.074  27.779   4.153
11258W        W84326  23.970  14.114  13.531
11259W        W84327   3.636   1.748   0.989
11260W        W84328  44.830  15.390   3.447
11261W        W84329   8.873  27.915  11.555
11262W        W84330  35.076   6.175   3.646
11263W        W84331  41.080  29.162  13.888
11264W        W84332  42.371  35.669  11.974
11265W        W84333   5.470   7.704   2.913
11266W        W84334  10.663  16.573  11.119
11267W        W84335  26.772   9.863  12.314
11268W        W84336  26.142   9.379   2.182
11269W        W84337  14.826  39.341   1.944
11270W        W84338  28.268  39.166   4.648
11271W        W84339  22.293  25.990  14.987
11272W        W84340  30.903  44.513  13.380
11273W        W84341   1.314  43.991  11.788
11274W        W84342  31.199  15.698  12.503
11275W        W84343  18.593  21.679  10.753
11276W        W84344  18.232  11.585  13.443
11277W        W84345  31.876  26.859  12.210
11278W        W84346  23.689  15.071   1.804
11279W        W84347   7.708  31.916  13.519
11280W        W84348  38.998  29.384  12.867
11281W        W84349  35.577  43.912  13.134
11282W        W84350  39.229  41.775   3.628
11283W        W84351  32.888  32.064  12.008
11284W        W84352  17.234  14.073   1.397
11285W        W84353  32.158  17.199   4.416
11286W        W84354   3.613  29.593  13.377
11287W        W84355  18.668  13.700  14.496
11288W        W84356  35.591  22.989   0.490
11289W        W84357  41.596   3.456  14.491
11290W        W84358   6.287  13.180  13.399
11291W        W84359  17.403  12.454  13.404
11292W        W84360  27.981  41.105   1.712
11293W        W84361  33.858   3.928   0.532
11294W        W84362   2.856  24.299  12.433
11295W        W84363  36.413  24.011   4.035
11296W        W84364  40.726   1.340  13.802
11297W        W84365  20.185  24.478  11.250
11298W        W84366  31.627  22.443   2.868
11299W        W84367  32.153  33.050  14.481
11300W        W84368  33.850  26.291  12.240
11301W        W84369  24.474  13.642   0.369
11302W        W84370  24.088  21.699   1.518
11303W        W84371  11.222  24.611  14.013
11304W        W84372   2.060   0.297  12.822
11305W        W84373  14.602  18.356   2.167
11306W        W84374  20.638  42.084   4.120
11307W        W84375   7.362   5.627  13.944
11308W        W84376  21.679  16.562  10.709
11309W        W84377  35.963  38.238  11.304
11310W        W84378  11.704   0.687  11.918
11311W        W84379   1.138  30.361  11.973
11312W        W84380  21.193  19.806   4.893
11313W        W84381  31.993  28.786  11.170
11314W        W84382   3.478  14.657   4.839
11315W        W84383  41.018  10.769   2.902
11316W        W84384   2.741  16.546   1.393
11317W        W84385  36.910  14.567  12.452
11318W        W84386  35.949   1.694  14.375
11319W        W84387  35.391   2.107   3.503
11320W        W84388  14.240   1.936   0.110
11321W        W84389  43.062  12.136  11.017
11322W        W84390  11.291  41.423   0.445
11323W        W84391   5.251  21.248   2.824
11324W        W84392  33.592  39.228   3.262
11325W        W84393  18.123  25.008  13.935
11326W        W84394   8.816  43.282   3.380
11327W        W84395  15.585   7.259   2.891
11328W        W84396  40.723  14.394  11.197
11329W        W84397  12.611  42.715  12.490
11330W        W84398  31.875   3.712  12.666
11331W        W84399  26.572  19.289   0.441
11332W        W84400  26.192  15.774   2.383
11333W        W84401  33.592   5.421  11.629
11334W        W84402  30.186  34.921   2.157
11335W        W84403  35.955  16.396  14.364
11336W        W84404  27.595  32.314  14.004
11337W        W84405  39.581  26.264   2.928
11338W        W84406  11.638   8.433   2.214
11339W        W84407  22.017  22.953  11.526
11340W        W84408  36.872  33.128   1.332
11341W        W84409   1.888  12.693   0.434
11342W        W84410  19.674  11.357   1.151
11343W        W84411  19.137  44.105  12.965
11344W        W84412  20.709  14.354   4.365
11345W        W84413   0.703  17.041   0.876
11346W        W84414  40.360  14.742  11.876
11347W        W84415  31.666  27.533  12.672
11348W        W84416  44.319  23.927  12.050
11349W        W84417  21.450  18.682  11.137
11350W        W84418  19.781   3.656  11.110
11351W        W84419   8.327  28.647  12.863
11352W        W84420  28.121  26.702  10.720
11353W        W84421  18.807  43.525  11.649
11354W        W84422  13.001  25.935  14.902
11355W        W84423  15.532  29.646   1.332
11356W        W84424  32.326  11.728   0.890
11357W        W84425  35.789  18.841   4.050
11358W        W84426  32.097   3.532   3.538
11359W        W84427  44.182  27.495   2.760
11360W        W84428  41.995  17.183   2.270
11361W        W84429  19.600  41.841   0.985
11362W        W84430  27.618  26.298  12.870
11363W        W84431  17.792  36.625  13.860
11364W        W84432   3.874  35.408   2.266
11365W        W84433  25.083  28.940   0.181
11366W        W84434  16.497   5.682   3.235
11367W        W84435   0.989  37.174   1.868
11368W        W84436  44.218  44.941  10.286
11369W        W84437   5.169  39.228   1.536
11370W        W84438   3.747   0.022   1.197
11371W        W84439  30.584  29.790  12.994
11372W        W84440  25.004  13.198   4.130
11373W        W84441   8.404   6.708   3.190
11374W        W84442   2.648   3.953   3.970
11375W        W84443  11.808  13.700  12.593
11376W        W84444  30.396  43.392   0.737
11377W        W84445  32.463  15.740  12.979
11378W        W84446  21.226   3.266   4.628
11379W        W84447  44.900   9.226   1.827
11380W        W84448  34.959  21.229  12.588
11381W        W84449   5.643   3.911   1.187
11382W        W84450  39.821  40.766  12.150
11383W        W84451  27.036  11.700   4.351
11384W        W84452   3.254   8.559  13.664
11385W        W84453  30.219   1.879   2.287
11386W        W84454  38.624   0.624  11.756
11387W        W84455  32.045  25.476   2.609
11388W        W84456  16.882  13.041   0.361
11389W        W84457   2.218  43.296   0.916
11390W        W84458   9.420   3.385   4.595
11391W        W84459   7.746   9.357  11.175
11392W        W84460  11.627  18.564  12.046
11393W        W84461  29.041   0.257  11.854
11394W        W84462   9.173  31.964   2.089
11395W        W84463  11.323  18.104  12.358
11396W        W84464   1.005   0.767  11.914
11397W        W84465  34.609   7.951   1.517
11398W        W84466  40.010  20.189  10.436
11399W        W84467  16.491  32.407   0.432
11400W        W84468  37.486  41.073   4.965
11401W        W84469  41.850  10.680  11.362
11402W        W84470   9.251  40.889  10.767
11403W        W84471   1.356   0.032  14.863
11404W        W84472  19.308  33.890   3.986
11405W        W84473   6.162  22.077  14.339
11406W        W84474  28.162  12.609  11.606
11407W        W84475  15.276   2.951  11.944
11408W        W84476   6.732  20.252  14.941
11409W        W84477  22.071   7.527  11.700
11410W        W84478  29.099  37.589  13.799
11411W        W84479  11.370  19.524  14.448
11412W        W84480  28.396   1.262   0.555
11413W        W84481  11.886  18.659  13.425
11414W        W84482  11.512   5.018   4.012
11415W        W84483  43.729   9.632   3.108
11416W        W84484   5.463  20.681   1.185
11417W        W84485  36.796  37.933   3.157
11418W        W84486  25.624  24.010  12.538
11419W        W84487   5.036  21.492  13.264
11420W        W84488  38.358  11.170  12.992
11421W        W84489  10.745   0.838  13.415
11422W        W84490  27.356  21.039   2.801
11423W        W84491   9.585  16.641  11.064
11424W        W84492  30.219  41.893  11.580
11425W        W84493   3.833  34.931   4.172
11426W        W84494  34.565  19.758  11.952
11427W        W84495  34.668   9.426  11.493
11428W        W84496  28.483  41.082   0.291
11429W        W84497  18.591   4.588   0.903
11430W        W84498  31.560  31.821  12.408
11431W        W84499  12.379  17.746  12.930
11432W        W84500  10.756   9.663   4.930
11433W        W84501  10.072  23.153   0.577
11434W        W84502  21.566  42.817   0.321
11435W        W84503  44.859  16.815   0.475
11436W        W84504  14.937   2.977   4.550
11437W        W84505  20.008  23.017   2.360
11438W        W84506  21.807  20.968   2.480
11439W        W84507  24.423  31.462  12.447
11440W        W84508   9.690   6.884  14.850
11441W        W84509  27.566   2.318   0.443
11442W        W84510   5.962  40.382  14.512
11443W        W84511  17.253  33.676   2.242
11444W        W84512   3.352  27.727  10.814
11445W        W84513  28.743  20.052   3.720
11446W        W84514   4.680  17.049   1.726
11447W        W84515  20.656  19.782   3.238
11448W        W84516   6.758  43.202   0.709
11449W        W84517   8.305  32.365   2.223
11450W        W84518   4.379  20.565  12.784
11451W        W84519   0.497  43.563  11.998
11452W        W84520   2.967  33.543  14.808
11453W        W84521  15.853  31.202   1.415
11454W        W84522  43.504   0.362  13.835
11455W        W84523  25.175  37.245   4.197
11456W        W84524   5.917  16.601  11.287
11457W        W84525   3.722   9.522  14.690
11458W        W84526  14.077  31.512   1.063
11459W        W84527  35.445   1.367   2.210
11460W        W84528   4.381   7.735   4.560
11461W        W84529   5.715  29.951  11.876
11462W        W84530  29.101  14.394   1.244
11463W        W84531   9.373   8.221   0.850
11464W        W84532   0.720  43.493   0.882
11465W        W84533   3.716  20.664  11.969
11466W        W84534  20.707  29.581   0.971
11467W        W84535  11.202  40.882   3.064
11468W        W84536   0.449  38.348  13.795
11469W        W84537  15.099  19.916  10.384
11470W        W84538  22.639  19.939   0.474
11471W        W84539  32.077   3.183   1.618
11472W        W84540  31.455  37.602   2.041
11473W        W84541  21.921  31.937   3.592
11474W        W84542   5.485  24.594   4.332
11475W        W84543   3.815   1.709  13.449
11476W        W84544   3.554  41.844   0.064
11477W        W84545  21.601  13.874   0.727
11478W        W84546  22.150   0.191  12.500
11479W        W84547  29.641   1.011   2.834
11480W        W84548   8.597  36.153  13.526
11481W        W84549   7.434  38.574   3.169
11482W        W84550  22.719  38.438   2.242
11483W        W84551   0.912   9.176  11.881
11484W        W84552  18.929  30.395  14.447
11485W        W84553   4.831  30.686  12.434
11486W        W84554   7.986  42.418  13.818
11487W        W84555  37.440  19.336   4.991
11488W        W84556  42.269   0.685  10.480
11489W        W84557  26.676   6.813   4.194
11490W        W84558  39.537  19.223   4.508
11491W        W84559  34.624  10.197   0.789
11492W        W84560  41.262  11.875  11.524
11493W        W84561  18.002  22.506   2.250
11494W        W84562   0.244   1.501   3.495
11495W        W84563  19.671  18.327   5.102
11496W        W84564  36.123   0.038   4.183
11497W        W84565   4.776   5.797  14.089
11498W        W84566  21.137  21.249  14.849
11499W        W84567  39.558  17.827  10.659
11500W        W84568  24.668  25.111  10.990
11501W        W84569  36.284  31.975   2.296
11502W        W84570   0.695  17.009  11.978
11503W        W84571  22.129  36.125   1.341
11504W        W84572  36.284  37.938  11.570
11505W        W84573  12.750  36.025   3.419
11506W        W84574  23.528  37.992  11.028
11507W        W84575  10.876  25.180   3.336
11508W        W84576  27.728  21.656  12.825
11509W        W84577  40.214  36.957  13.299
11510W        W84578  29.667  23.454   3.233
11511W        W84579   0.376  43.494  14.711
11512W        W84580  39.796  29.477  13.886
11513W        W84581  38.373  36.036  14.514
11514W        W84582  33.852  27.035  12.964
11515W        W84583  40.205  10.173  11.644
11516W        W84584   4.547   0.286   3.179
11517W        W84585  29.341  24.477   4.069
11518W        W84586  22.296  12.379   9.826
11519W        W84587  28.382   0.815   3.415
11520W        W84588  16.576  25.817  12.426
11521W        W84589  41.324  19.614   4.445
11522W        W84590   2.387   4.741  14.626
11523W        W84591   3.005  10.139   4.598
11524W        W84592  41.312  35.600  13.958
11525W        W84593  33.422   3.834   1.827
11526W        W84594  31.515  14.500   1.674
11527W        W84595  20.711  14.582  11.164
11528W        W84596   4.822  37.733   2.539
11529W        W84597  34.617  31.817   0.344
11530W        W84598  24.482  22.149  11.627
11531W        W84599  20.270  39.965   1.815
11532W        W84600  21.704   3.566  14.839
11533W        W84601  35.098  11.708  13.625
11534W        W84602  17.239   3.893   3.255
11535W        W84603   2.899  34.662   3.659
11536W        W84604   6.819  36.930   0.447
11537W        W84605  17.627  29.128   0.938
11538W        W84606  33.546  33.558  10.992
11539W        W84607   5.801  27.227   1.332
11540W        W84608  21.564   9.060   4.811
11541W        W84609  36.190  38.841  14.505
11542W        W84610  22.456   3.511  13.036
11543W        W84611  35.165  11.685   4.626
11544W        W84612  10.858  30.986  10.703
11545W        W84613  13.035   0.314   2.168
11546W        W84614  21.637   9.665  11.194
11547W        W84615  39.522   6.880   1.818
11548W        W84616  32.459  36.890   4.677
11549W        W84617   3.733  30.483  12.054
11550W        W84618   5.736  13.216  10.415
11551W        W84619   0.671  12.201  11.539
11552W        W84620  19.763  35.037  11.971
11553W        W84621  23.217  40.274  11.082
11554W        W84622  42.592  18.837   4.983
11555W        W84623  34.404  32.677   1.705
11556W        W84624   1.259  28.412  12.648
11557W        W84625  25.953  43.873   0.540
11558W        W84626  35.992  21.773   1.689
11559W        W84627  25.661  39.915  11.165
11560W        W84628  22.544   2.487  13.006
11561W        W84629  14.677  42.400   4.129
11562W        W84630  21.006   6.287   5.080
11563W        W84631   4.791  29.625  14.873
11564W        W84632  19.600  24.771   0.763
11565W        W84633  29.096  14.339  12.391
11566W        W84634   9.852   3.024  11.342
11567W        W84635  40.422  40.656  10.751
11568W        W84636   1.430  28.466  14.945
11569W        W84637   9.817   3.173   2.696
11570W        W84638  13.937  15.232   1.717
11571W        W84639  40.721  12.747   0.786
11572W        W84640  14.781  37.947  11.957
11573W        W84641  23.529  17.537  13.417
11574W        W84642  37.948  25.519  12.547
11575W        W84643   5.735  39.899   1.770
11576W        W84644  10.855  34.542   5.052
11577W        W84645   1.962  41.428   4.617
11578W        W84646  27.722  21.757   4.784
11579W        W84647  10.618   3.398   0.482
11580W        W84648  30.613  25.617   3.642
11581W        W84649  23.201  38.982  14.436
11582W        W84650  41.402  40.407  13.263
11583W        W84651  27.209   1.656   3.733
11584W        W84652  29.014  32.907  12.023
11585W        W84653  37.015  39.411  10.649
11586W        W84654  23.771  40.122  11.136
11587W        W84655  34.501   6.959   1.199
11588W        W84656  23.893  30.663  10.238
11589W        W84657   1.557  39.983   1.329
11590W        W84658  18.570  36.809   3.330
11591W        W84659   9.816   6.659  11.185
11592W        W84660  40.441  33.859   0.840
11593W        W84661  39.826  36.870   4.131
11594W        W84662  14.743  26.460  11.008
11595W        W84663  21.477  44.157  11.098
11596W        W84664  17.991   8.393   1.665
11597W        W84665  23.704  27.580  11.616
11598W        W84666   7.254  34.905   4.203
11599W        W84667   7.813  40.510  13.879
11600W        W84668   7.949  41.552   1.479
11601W        W84669  16.256  38.026   2.344
11602W        W84670  24.481  13.875   0.853
11603W        W84671  20.073  28.209   1.263
11604W        W84672  43.372   1.325  11.630
11605W        W84673  21.804  18.918   3.696
11606W        W84674  27.128  13.730  11.749
11607W        W84675  17.360   4.736  14.718
11608W        W84676  44.982   2.409   0.702
11609W        W84677  32.356   9.305  14.261
11610W        W84678   5.262  34.234   2.552
11611W        W84679  30.609  29.366   1.336
11612W        W84680  44.508   0.917   1.936
11613W        W84681  25.627  24.658   0.335
11614W        W84682  20.543  22.242  13.958
11615W        W84683  19.658  17.381  13.453
11616W        W84684  42.530  32.108  11.042
11617W        W84685  29.956  34.159  10.675
11618W        W84686  13.751   9.316  14.224
11619W        W84687  37.139  35.556  12.583
11620W        W84688  42.770   4.861   0.704
11621W        W84689  31.181  38.058   2.741
11622W        W84690  31.593  13.810  10.793
11623W        W84691   3.887  35.624   1.327
11624W        W84692  23.766  23.981   3.719
11625W        W84693  26.713  14.634   1.497
11626W        W84694  21.108  31.620  11.408
11627W        W84695  17.390  29.022   2.153
11628W        W84696  42.900  32.142  14.375
11629W        W84697  27.985  21.804   0.639
11630W        W84698  42.278  21.902   1.791
11631W        W84699  35.916  31.022  12.498
11632W        W84700   2.136  18.956   5.243
11633W        W84701   6.714  33.411  14.985
11634W        W84702  32.933  22.727   4.540
11635W        W84703  26.531   5.396  13.597
11636W        W84704   2.255  21.511   0.502
11637W        W84705  33.568  17.297   4.585
11638W        W84706  28.393   2.386  14.347
11639W        W84707  40.338  24.604   0.928
11640W        W84708  37.952  43.984  14.447
11641W        W84709   5.130  12.827  10.441
11642W        W84710  44.887   7.585  11.445
11643W        W84711  21.078  14.122  11.256
11644W        W84712  35.520  15.199  12.944
11645W        W84713   1.586  24.638  11.259
11646W        W84714   6.477   0.733   1.846
11647W        W84715  40.539  14.173  10.759
11648W        W84716  36.408  22.476   3.050
11649W        W84717   9.676  10.253   3.368
11650W        W84718  12.664   4.445   4.737
11651W        W84719  44.346   4.884  13.096
11652W        W84720  21.449  30.962   0.413
11653W        W84721   5.436  26.905   2.705
11654W        W84722  40.385  26.151  11.545
11655W        W84723  31.348  34.624   0.878
11656W        W84724  28.366   2.665   2.202
11657W        W84725   0.400  10.875   2.277
11658W        W84726  37.431  36.945  11.492
11659W        W84727  23.436  38.534   0.265
11660W        W84728  36.352  30.983  10.692
11661W        W84729   6.302   6.120   2.329
11662W        W84730   5.930   7.134  12.291
11663W        W84731  20.471  12.310  11.637
11664W        W84732  30.180  26.411  14.882
11665W        W84733  42.514  29.548   4.559
11666W        W84734  12.470  12.723  11.254
11667W        W84735  13.428  25.648  11.945
11668W        W84736  15.078  33.076   0.148
11669W        W84737  28.086  18.832  14.516
11670W        W84738  16.809   1.335  10.400
11671W        W84739   3.966  21.697  14.959
11672W        W84740   1.069  23.447   1.029
11673W        W84741  14.121  32.809  11.989
11674W        W84742  42.838  33.331   2.337
11675W        W84743  40.296   1.534  14.001
11676W        W84744   5.348  41.489   2.831
11677W        W84745  41.978  19.799   2.130
11678W        W84746  24.027  17.717  11.665
11679W        W84747   9.340  10.158  12.903
11680W        W84748  43.363  44.976  14.897
11681W        W84749  27.508  30.130   4.857
11682W        W84750   2.318  16.083   3.389
11683W        W84751  15.916  14.379   3.261
11684W        W84752  25.598  43.811  13.291
11685W        W84753  27.637  20.548   1.941
11686W        W84754  10.334  34.890  12.492
11687W        W84755  36.997  29.079  14.822
11688W        W84756  44.834   6.701   3.085
11689W        W84757  30.684   4.433  12.246
11690W        W84758  27.430   6.939  14.962
11691W        W84759   5.114   8.685  11.220
11692W        W84760  42.637  34.885  13.829
11693W        W84761  17.316  22.979  12.533
11694W        W84762   4.274  17.569   3.837
11695W        W84763  35.016   4.872   3.266
11696W        W84764  30.878   6.398   1.876
11697W        W84765  44.497  43.978  11.894
11698W        W84766  13.421  32.065   5.268
11699W        W84767  43.562   6.340   2.855
11700W        W84768  10.232  31.172  12.446
11701W        W84769  31.659   8.915   3.666
11702W        W84770  38.182  40.435  10.546
11703W        W84771  21.768  26.094   0.007
11704W        W84772   8.801  26.558  14.965
11705W        W84773  28.467  20.443   1.926
11706W        W84774  13.401  13.238  12.837
11707W        W84775  38.083  16.853   0.710
11708W        W84776  14.853  27.715   2.883
11709W        W84777   5.476   9.434  13.587
11710W        W84778  38.444  42.530  13.011
11711W        W84779  26.179  38.202   0.054
11712W        W84780  19.026  36.800  14.893
11713W        W84781  21.500  18.543   1.751
11714W        W84782  19.777   5.749  11.221
11715W        W84783  27.192  12.053   0.646
11716W        W84784  34.346  22.716  11.563
11717W        W84785  19.676  20.261   3.863
11718W        W84786   9.112  26.393   1.324
11719W        W84787  14.056  24.985  12.905
11720W        W84788  22.516   6.364  12.983
11721W        W84789  38.934  12.571   2.178
11722W        W84790   3.398  14.195   0.861
11723W        W84791  37.892  30.474  13.740
11724W        W84792   5.307   2.210  10.756
11725W        W84793   1.097  32.915   0.986
11726W        W84794  23.030   6.906   0.956
11727W        W84795  25.481  29.353   0.039
11728W        W84796  32.880   3.331   1.322
11729W        W84797  28.174   1.618  14.866
11730W        W84798  10.017  32.856  10.863
11731W        W84799  15.913  32.484  13.956
11732W        W84800  10.561  20.712  14.245
11733W        W84801  27.813   1.971   1.847
11734W        W84802  42.724  27.611   0.332
11735W        W84803  13.756  40.637   3.183
11736W        W84804  29.948   1.936   1.296
11737W        W84805   0.033  11.830  13.827
11738W        W84806  29.377  37.123   0.553
11739W        W84807  21.792  13.955   5.097
11740W        W84808   9.640  30.689  10.563
11741W        W84809  15.331  23.519  12.480
11742W        W84810  21.227  11.246   1.464
11743W        W84811   1.230  28.521   0.466
11744W        W84812  31.877  32.523  11.406
11745W        W84813  20.220  41.451  11.313
11746W        W84814  39.030  43.365  11.567
11747W        W84815  18.333   1.436   0.152
11748W        W84816  18.188  42.499   2.267
11749W        W84817  18.183  13.288  13.989
11750W        W84818  11.125   6.342   0.326
11751W        W84819   2.374  41.061   1.938
11752W        W84820  36.084  30.551  12.290
11753W        W84821  25.643  13.644   4.787
11754W        W84822  32.738  38.482  12.496
11755W        W84823  12.706  33.856   1.839
11756W        W84824  33.553  39.781  13.190
11757W        W84825  42.809  36.382   3.252
11758W        W84826  41.888  22.421   3.202
11759W        W84827  25.481  27.350   2.693
11760W        W84828  16.719  11.586  12.356
11761W        W84829  26.518  12.702   4.106
11762W        W84830  13.163   0.786  11.852
11763W        W84831  14.237  29.464   0.363
11764W        W84832  27.197  20.349  14.228
11765W        W84833  17.069  12.841  13.493
11766W        W84834  32.911  34.326  11.113
11767W        W84835  30.537   4.621  11.687
11768W        W84836  31.894  39.870   1.967
11769W        W84837   8.972  13.230   3.406
11770W        W84838  16.771   6.006   4.755
11771W        W84839   0.415  40.313  13.972
11772W        W84840  41.294  38.451   1.858
11773W        W84841   7.969  25.623   1.366
11774W        W84842  35.549  11.920  13.844
11775W        W84843  22.721  16.325  12.577
11776W        W84844   8.453  32.226   3.391
11777W        W84845  26.543  25.446  11.135
11778W        W84846  37.954  36.173  10.855
11779W        W84847  10.428  33.165   1.936
11780W        W84848  20.861  36.406   2.670
11781W        W84849  21.728  23.370   0.481
11782W        W84850  24.642  28.850   4.955
11783W        W84851  17.009  18.560  14.643
11784W        W84852  17.842  20.219   3.221
11785W        W84853   4.126  35.471   3.760
11786W        W84854  28.367  10.185   5.137
11787W        W84855   9.226  42.842   2.480
11788W        W84856  34.411  40.249   1.819
11789W        W84857   3.403  17.066  12.924
11790W        W84858   0.340   1.658   4.372
11791W        W84859  24.550  28.134  11.592
11792W        W84860  25.091  10.282  11.292
11793W        W84861  35.721  38.569  13.792
11794W        W84862  33.770  11.454   3.973
11795W        W84863   9.851  25.082   0.183
11796W        W84864  37.869   3.970  12.552
11797W        W84865  18.714  22.246   4.405
11798W        W84866  30.469  30.977  12.618
11799W        W84867  38.535   3.182   4.069
11800W        W84868  13.592   3.311  12.967
11801W        W84869  36.860  34.575   2.344
11802W        W84870  26.612  42.057   4.558
11803W        W84871  28.528  26.168   0.845
11804W        W84872  33.838  10.657  14.284
11805W        W84873  38.438  22.105   1.677
11806W        W84874   1.221   8.767  12.377
11807W        W84875  38.944  43.975   1.844
11808W        W84876  36.412  22.114   3.423
11809W        W84877  26.259  18.342   1.873
11810W        W84878   1.671  22.084   4.730
11811W        W84879  32.055  40.932  10.641
11812W        W84880   5.334  33.215   3.204
11813W        W84881  30.747   4.343   0.406
11814W        W84882  23.486  44.923  13.972
11815W        W84883   7.271  38.946   3.920
11816W        W84884  17.310   7.455  11.193
11817W        W84885  43.585  31.990  11.249
11818W        W84886  36.630   9.863  11.282
11819W        W84887  20.763  42.422   3.435
11820W        W84888  42.972  14.328  10.423
11821W        W84889   4.899  36.924   4.960
11822W        W84890  13.343   0.022  13.038
11823W        W84891  29.792  26.629  11.543
11824W        W84892  31.521  26.443  13.747
11825W        W84893   7.516  32.137  12.948
11826W        W84894   7.296  21.526   1.943
11827W        W84895  11.945  29.735  12.244
11828W        W84896  36.829   6.283   1.172
11829W        W84897   1.044   8.828   1.452
11830W        W84898  24.233  22.059  11.203
11831W        W84899  43.026  19.694  14.386
11832W        W84900  19.764   2.979  13.355
11833W        W84901  26.729  27.400  11.036
11834W        W84902  36.698  19.203  13.744
11835W        W84903  17.744   0.880  14.006
11836W        W84904  37.657  16.497  10.033
11837W        W84905   7.368  17.710   1.869
11838W        W84906  35.178   4.420  11.056
11839W        W84907  41.235  33.327   1.694
11840W        W84908  39.890   5.453  14.707
11841W        W84909  33.853  30.092   3.220
11842W        W84910  15.730  37.577  13.843
11843W        W84911   1.308  27.411   1.182
11844W        W84912  23.807   5.882   1.757
11845W        W84913  40.453   4.581  10.913
11846W        W84914  22.281   0.764   4.726
11847W        W84915  33.501  38.518   0.302
11848W        W84916  22.160  23.437  14.861
11849W        W84917  20.655   9.839  13.361
11850W        W84918  17.612  34.723   4.384
11851W        W84919  38.471  19.620   2.907
11852W        W84920   7.881  44.762   0.710
11853W        W84921  29.987  36.827  11.116
11854W        W84922  27.615  31.594  10.545
11855W        W84923   0.529  24.959   1.840
11856W        W84924  14.289  32.961   2.495
11857W        W84925  10.783   5.472   4.234
11858W        W84926  29.949  25.023  13.806
11859W        W84927   2.124  24.551   2.805
11860W        W84928   0.833  31.379   3.687
11861W        W84929  11.557  18.576   4.403
11862W        W84930  17.685  17.774   2.139
11863W        W84931  28.513  25.519  12.132
11864W        W84932  34.095   5.406   4.567
11865W        W84933   7.256  41.790   4.593
11866W        W84934   8.248  36.081   2.134
11867W        W84935  38.142  19.157  11.972
11868W        W84936  15.253  34.169   2.743
11869W        W84937  24.973  40.269  13.768
11870W        W84938  27.984  16.261   1.217
11871W        W84939   7.882   6.714   2.294
11872W        W84940  42.144  33.330  14.939
11873W        W84941  24.905   3.226   2.866
11874W        W84942  31.330   5.570  13.857
11875W        W84943   5.459  44.363  11.592
11876W        W84944  20.813  15.677  13.304
11877W        W84945  38.857  32.029  13.219
11878W        W84946  41.064   7.013   4.485
11879W        W84947  10.396  10.669  14.323
11880W        W84948  36.314   9.052  14.303
11881W        W84949   2.281   1.753  12.853
11882W        W84950   3.611   2.782  10.620
11883W        W84951  42.895  33.584   2.807
11884W        W84952   6.192  15.195  11.912
11885W        W84953  44.488  36.537   4.708
11886W        W84954  40.457  16.099  12.198
11887W        W84955   3.798  24.200   1.313
11888W        W84956  10.979   0.811   3.768
11889W        W84957  19.954  43.674  10.787
11890W        W84958  37.905  33.837  12.902
11891W        W84959   7.882  37.061  14.046
11892W        W84960  35.755  21.428   1.378
11893W        W84961  43.581  22.180   0.668
11894W        W84962  44.148  39.852   0.722
11895W        W84963  38.612  12.285   2.652
11896W        W84964  30.261  16.076   1.770
11897W        W84965  39.579  16.029   5.816
11898W        W84966   8.639  21.201   3.077
11899W        W84967  22.488  15.142  13.710
11900W        W84968   0.424  39.367  12.895
11901W        W84969  10.285   4.941   3.768
11902W        W84970   8.936   1.790  11.220
11903W        W84971  35.798   9.875   2.345
11904W        W84972  20.795  37.009  13.488
11905W        W84973  21.098  35.698   0.376
11906W        W84974  18.132  18.231   3.412
11907W        W84975  19.748  12.271   4.346
11908W        W84976  37.937  23.690  14.387
11909W        W84977  15.196  21.007   1.668
11910W        W84978  36.947  32.445  10.441
11911W        W84979  37.477  30.906   1.163
11912W        W84980  37.565  21.069   1.982
11913W        W84981  42.356  12.139  12.057
11914W        W84982   5.595   1.787  10.729
11915W        W84983  35.584  23.997   0.409
11916W        W84984  25.440  35.861  12.769
11917W        W84985  15.611   3.077   1.968
11918W        W84986  21.120  42.765  13.190
11919W        W84987  15.367   7.295  14.761
11920W        W84988  10.235   1.698   1.305
11921W        W84989  26.048   1.774  13.680
11922W        W84990  36.891  43.240   3.723
11923W        W84991  14.330  12.335  10.906
11924W        W84992  18.269  32.414  12.903
11925W        W84993  31.450   1.909   1.683
11926W        W84994  20.598  42.707  13.293
11927W        W84995   1.001  30.362   3.187
11928W        W84996  13.702  34.693  14.468
11929W        W84997  25.029  34.017  12.975
11930W        W84998   5.755  11.825   3.138
11931W        W84999   2.940  27.779   0.373
11932W        W85000  36.450  41.940   4.821
11933W        W85001  32.201  26.497  11.994
11934W        W85002   5.187  30.014   4.317
11935W        W85003  25.124  37.481  13.048
11936W        W85004   8.705  31.531   0.506
11937W        W85005  43.285  29.052  13.544
11938W        W85006  13.766  31.467  10.401
11939W        W85007  38.550   6.336   2.903
11940W        W85008  39.218  33.701  13.808
11941W        W85009  27.507  25.772  12.916
11942W        W85010  41.944   7.307   4.602
11943W        W85011  13.369  31.093  13.971
11944W        W85012   0.369  24.162  11.094
11945W        W85013  41.742  28.536  12.827
11946W        W85014  44.013  39.880   3.898
11947W        W85015  10.659  24.626  14.267
11948W        W85016  35.452  31.070   2.634
11949W        W85017  36.934   4.720   4.631
11950W        W85018  37.865  44.555  12.486
11951W        W85019  26.244  29.874   3.318
11952W        W85020   8.403  15.731   4.171
11953W        W85021  23.428  20.588  12.431
11954W        W85022  37.515  26.460  12.653
11955W        W85023  14.116  39.745  12.178
11956W        W85024  41.495  19.568  14.772
11957W        W85025  40.546   0.419  11.180
11958W        W85026  38.771  39.896  11.853
11959W        W85027   4.740  34.578  10.222
11960W        W85028  42.992  18.211   2.828
11961W        W85029  18.781   9.094   3.284
11962W        W85030  15.117  22.176   0.294
11963W        W85031   8.306  16.509   1.649
11964W        W85032  20.703  15.746   3.474
11965W        W85033  23.297  31.712  13.979
11966W        W85034  34.533   9.247  10.576
11967W        W85035  17.563  39.404  12.893
11968W        W85036  13.080  33.713   4.179
11969W        W85037  28.561  36.494   4.336
11970W        W85038  28.969  16.245   1.295
11971W        W85039  13.181  15.069   1.963
11972W        W85040  13.192   6.818  12.807
11973W        W85041  22.311   1.918  14.459
11974W        W85042  12.221   6.946  10.689
11975W        W85043  28.843  38.747   4.978
11976W        W85044  12.036  43.153   3.097
11977W        W85045   8.825  34.277  13.387
11978W        W85046  11.606  32.341   2.265
11979W        W85047  37.429  28.471   0.967
11980W        W85048  27.459  37.275   3.701
11981W        W85049  24.747  32.044   3.722
11982W        W85050  32.987  27.028   1.753
11983W        W85051   3.514   8.827  11.968
11984W        W85052  12.235   9.740  11.221
11985W        W85053   4.958  29.256   5.353
11986W        W85054  26.113  15.656  13.589
11987W        W85055  39.488  28.443   1.780
11988W        W85056  18.122  28.791  10.564
11989W        W85057  28.534   4.394  12.094
11990W        W85058  19.562  28.365   2.858
11991W        W85059  15.577  40.840   0.256
11992W        W85060  24.591  16.306  11.974
11993W        W85061  44.673  29.563  11.249
11994W        W85062  12.138  37.547   2.830
11995W        W85063  36.242  35.969  14.577
11996W        W85064  14.662  20.509   3.270
11997W        W85065   9.865  27.951  12.479
11998W        W85066  11.578  12.233  10.321
11999W        W85067   3.401   4.654  12.387
12000W        W85068  42.955  44.425   4.628
12001W        W85069  26.472   3.709   4.125
12002W        W85070  26.275   9.820  12.417
12003W        W85071  42.946  40.065   1.396
12004W        W85072  23.503  35.530   4.666
12005W        W85073  37.548  14.220  14.837
12006W        W85074  38.302  35.837  11.207
12007W        W85075  34.222  16.909  14.641
12008W        W85076  36.221  40.959  12.183
12009W        W85077  29.079  32.269  11.477
12010W        W85078   5.377  33.114  11.963
12011W        W85079   1.070   9.667  13.411
12012W        W85080  12.819   0.754   0.336
12013W        W85081  12.795  18.108  11.341
12014W        W85082  35.012  43.454   1.703
12015W        W85083   3.463  16.779   3.269
12016W        W85084  42.792  39.453  11.663
12017W        W85085   2.842  16.140   3.351
12018W        W85086  26.765  25.931  14.789
12019W        W85087  27.404  27.883  14.615
12020W        W85088  42.825   4.170   3.755
12021W        W85089   5.720  19.459   4.926
12022W        W85090   9.812  26.025  11.091
12023W        W85091   8.904  18.895  13.861
12024W        W85092  13.807  12.830   0.819
12025W        W85093  39.909  33.923   3.567
12026W        W85094   2.355  12.562  10.803
12027W        W85095   3.668  40.027  14.374
12028W        W85096  36.367  33.687  11.687
12029W        W85097  32.404  28.062   0.664
12030W        W85098   7.154  13.732   2.927
12031W        W85099  14.066  30.643  11.106
12032W        W85100   5.267  42.512   2.711
12033W        W85101  10.252  19.920  10.997
12034W        W85102   7.822  15.802  11.832
12035W        W85103  24.502  22.520   1.391
12036W        W85104  30.471   9.135  12.300
12037W        W85105  10.300  39.452   4.389
12038W        W85106  37.406  31.889   3.675
12039W        W85107  17.106   2.824   3.105
12040W        W85108  30.015   7.316  10.780
12041W        W85109  30.562  28.769   0.457
12042W        W85110   4.985   5.202   2.895
12043W        W85111  22.704  24.549  14.754
12044W        W85112   0.392  36.018   4.306
12045W        W85113  18.474  30.161  14.785
12046W        W85114  35.194  25.261   2.919
12047W        W85115  14.620  42.467  11.396
12048W        W85116  21.817  41.255   3.254
12049W        W85117  41.801  28.311  11.159
12050W        W85118  43.683  12.146  11.504
12051W        W85119   8.153  20.303  14.488
12052W        W85120  13.316  36.915   0.700
12053W        W85121  29.822   0.468  10.712
12054W        W85122  24.869  13.165   4.634
12055W        W85123  40.511  31.363  13.558
12056W        W85124   9.670  40.024   3.351
12057W        W85125  42.689  25.636   4.112
12058W        W85126   1.835  42.117   1.847
12059W        W85127  14.845  26.487   2.905
12060W        W85128   4.002  13.263  12.589
12061W        W85129  30.880  25.971  13.282
12062W        W85130  37.000  30.753   3.299
12063W        W85131  27.811  41.339  13.464
12064W        W85132   1.878  17.652   2.887
12065W        W85133  34.439  14.713   4.499
12066W        W85134  15.773  37.395  11.994
12067W        W85135  43.369  12.938   1.388
12068W        W85136   7.746   6.272  13.863
12069W        W85137  39.285  24.509   0.795
12070W        W85138   1.300  36.381  14.064
12071W        W85139   0.493  35.413   2.541
12072W        W85140  16.006  40.504  12.576
12073W        W85141  34.567   1.235  11.088
12074W        W85142  13.687  44.371  12.636
12075W        W85143   8.661   6.033  10.904
12076W        W85144  20.352  15.894  11.099
12077W        W85145  44.221  36.636   2.760
12078W        W85146  41.977  30.071   1.323
12079W        W85147  18.130   4.686  12.133
12080W        W85148  24.113  15.956   3.446
12081W        W85149  25.076  40.836  14.450
12082W        W85150   7.873  31.913  14.536
12083W        W85151  21.118  25.049   4.068
12084W        W85152   4.211  20.994   0.941
12085W        W85153  44.015  41.551   3.758
12086W        W85154  15.932  19.049   0.906
12087W        W85155  18.976  44.973  14.967
12088W        W85156  24.512   2.352  14.471
12089W        W85157   4.028  28.654  14.868
12090W        W85158  27.684  31.458  13.381
12091W        W85159  12.840  22.885  14.767
12092W        W85160  28.548  28.346   3.402
12093W        W85161  26.208  40.595   1.910
12094W        W85162  43.937  13.136  11.564
12095W        W85163  38.931  16.272   0.888
12096W        W85164  19.251   2.489   3.703
12097W        W85165  27.146  26.403  13.951
12098W        W85166  20.051  19.545   1.910
12099W        W85167  28.164  28.036   4.532
12100W        W85168  43.427   8.848   2.067
12101W        W85169  36.879  34.210  10.141
12102W        W85170   8.304  10.177  13.787
12103W        W85171   6.411  22.287  11.180
12104W        W85172  43.995  28.311   4.592
12105W        W85173   6.027   4.486  12.913
12106W        W85174  34.926   4.167  11.459
12107W        W85175  29.540  29.692   0.824
12108W        W85176  11.167  25.498  11.510
12109W        W85177  40.421   0.806   4.060
12110W        W85178   1.726  30.150   1.826
12111W        W85179   8.177  19.307  13.367
12112W        W85180  34.887   3.899   0.744
12113W        W85181   4.770  40.396   3.643
12114W        W85182  43.146  30.801   1.915
12115W        W85183  19.267   7.583  11.919
12116W        W85184  28.993   4.169  12.005
12117W        W85185  35.449   0.264   4.732
12118W        W85186  15.369  31.816   2.782
12119W        W85187  13.383  14.746   4.476
12120W        W85188  34.636  33.384   2.404
12121W        W85189   6.666  24.735   1.728
12122W        W85190  31.460  19.775   1.499
12123W        W85191  37.368  16.150  14.005
12124W        W85192  35.167  28.112  12.919
12125W        W85193  11.692  28.771   0.375
12126W        W85194  25.460   7.315   9.869
12127W        W85195  15.194  32.169   1.203
12128W        W85196  20.485  32.930   0.361
12129W        W85197  10.472  43.056   4.260
12130W        W85198  18.998  23.987  10.517
12131W        W85199  31.134  18.064  11.532
12132W        W85200  43.766  26.422   2.428
12133W        W85201  21.099  10.227  14.370
12134W        W85202   8.167  40.395  13.513
12135W        W85203  39.602  13.182  10.679
12136W        W85204  15.817  24.495   2.711
12137W        W85205  13.069  42.802  11.094
12138W        W85206  13.609  26.968   4.871
12139W        W85207  26.606  18.251   2.748
12140W        W85208  26.128   0.306  14.810
12141W        W85209  38.017  11.966  14.943
12142W        W85210  42.966  23.757  11.976
12143W        W85211   0.208  15.077   1.897
12144W        W85212  14.401  17.647  13.975
12145W        W85213   6.286  15.781  11.543
12146W        W85214   9.253   8.643  11.592
12147W        W85215   4.334  32.954  11.864
12148W        W85216  24.789  27.164  13.953
12149W        W85217  22.124  32.076  13.409
12150W        W85218   0.875  42.272  13.054
12151W        W85219  23.666  40.591  11.908
12152W        W85220  43.679  33.221  11.410
12153W        W85221  29.545  37.342  13.856
12154W        W85222  16.254   7.032   2.006
12155W        W85223   3.982  20.442  14.508
12156W        W85224   0.822  36.370  14.331
12157W        W85225  36.433   8.349  14.976
12158W        W85226  24.029  14.762   4.822
12159W        W85227  41.043  41.815  12.490
12160W        W85228  41.503  26.021   2.170
12161W        W85229  13.259  25.610   1.377
12162W        W85230  41.882  39.112   0.334
12163W        W85231  35.888   8.344  14.351
12164W        W85232   4.666   8.209   4.611
12165W        W85233  42.959  44.466  13.865
12166W        W85234  15.543  42.250  11.598
12167W        W85235   3.860  22.532   2.882
12168W        W85236   8.068  33.528  14.534
12169W        W85237  23.788  44.892  11.935
12170W        W85238   1.488  23.239   0.741
12171W        W85239  32.668  18.262  12.816
12172W        W85240  26.925  37.417  12.077
12173W        W85241  29.876  39.482   4.095
12174W        W85242  21.783  23.787  11.434
12175W        W85243  41.403  28.228  13.124
12176W        W85244  25.291  32.962  13.358
12177W        W85245  20.297  10.818  14.092
12178W        W85246  43.402   6.663   4.726
12179W        W85247  23.729  43.412  11.180
12180W        W85248  20.102  43.740  11.577
12181W        W85249  32.562  42.904  10.678
12182W        W85250  13.938  36.744   3.199
12183W        W85251   3.279  17.878   1.442
12184W        W85252  16.267   5.491   1.930
12185W        W85253  23.533  37.812   1.883
12186W        W85254   3.088   8.069  10.968
12187W        W85255   6.825  28.083   2.398
12188W        W85256  41.349  29.161   0.229
12189W        W85257  16.122   4.401  13.380
12190W        W85258  43.220  16.645   4.677
12191W        W85259  16.766   4.368  10.978
12192W        W85260  30.992  14.706   2.815
12193W        W85261  16.220   1.358  12.597
12194W        W85262  28.683  14.652  12.072
12195W        W85263  44.025  26.077   4.255
12196W        W85264  26.135  26.983   1.350
12197W        W85265  35.478  42.310   3.116
12198W        W85266  11.366  35.984   4.736
12199W        W85267   6.760  41.487   5.139
12200W        W85268  41.806  24.920  13.083
12201W        W85269  34.889  30.998  10.414
12202W        W85270  38.857  27.074  11.430
12203W        W85271   9.831  20.696  14.719
12204W        W85272  43.268  21.741  12.010
12205W        W85273   0.196  36.328   2.777
12206W        W85274  30.261  17.455  12.635
12207W        W85275   4.221   4.979  10.071
12208W        W85276  24.786  26.495  13.295
12209W        W85277  19.087   4.775   2.733
12210W        W85278  34.022  15.529   2.670
12211W        W85279  32.529  33.818   1.745
12212W        W85280  37.443  30.180  11.679
12213W        W85281  13.817  33.062  12.615
12214W        W85282   4.358   4.312   4.527
12215W        W85283  11.628  39.758  10.351
12216W        W85284  18.004  27.067  14.308
12217W        W85285   4.603  22.014  10.626
12218W        W85286  43.526  24.147  14.506
12219W        W85287  22.298   0.814  11.919
12220W        W85288  14.780  35.041  12.449
12221W        W85289  22.355  29.092  13.590
12222W        W85290  16.606  21.872   0.911
12223W        W85291  42.635   8.110  12.962
12224W        W85292  41.758  28.016  10.744
12225W        W85293   2.908  41.376   2.663
12226W        W85294  37.437   3.981  14.347
12227W        W85295  17.747  23.003   2.247
12228W        W85296  41.073  11.621  14.553
12229W        W85297  34.920  16.711  14.369
12230W        W85298  42.822  12.249   3.618
12231W        W85299  21.591  19.421  12.910
12232W        W85300   3.636  43.504  14.954
12233W        W85301  13.280  25.212  14.001
12234W        W85302   1.514  23.268  11.068
12235W        W85303   1.252  33.466  12.104
12236W        W85304  27.305   7.070   2.716
12237W        W85305  10.248  29.891   4.551
12238W        W85306  10.640  27.302  11.400
12239W        W85307  43.429  32.204   0.580
12240W        W85308  35.886  38.306  13.360
12241W        W85309  37.962  28.673   4.148
12242W        W85310  25.582  29.971  12.477
12243W        W85311  36.022  19.137   3.700
12244W        W85312  21.007   9.747  14.594
12245W        W85313   7.114  33.618  14.729
12246W        W85314  11.766  13.106  10.350
12247W        W85315  37.699  12.180  13.619
12248W        W85316   7.110  19.312   4.086
12249W        W85317   3.979  14.301  10.724
12250W        W85318   4.812  30.207   4.642
12251W        W85319  24.046   9.352  13.038
12252W        W85320  10.762  13.129   2.675
12253W        W85321  42.220  33.918   1.777
12254W        W85322  25.231  22.284  11.346
12255W        W85323  21.305  37.401  11.545
12256W        W85324  34.053  30.030   4.278
12257W        W85325  22.722   6.631  13.406
12258W        W85326   2.324   6.870  14.258
12259W        W85327  38.086  32.588  14.729
12260W        W85328   0.025  24.703  11.892
12261W        W85329  12.548   4.143  11.887
12262W        W85330  41.473  17.647  12.638
12263W        W85331   8.121   9.356  11.542
12264W        W85332  24.101  31.151   4.586
12265W        W85333   6.124  31.176   2.234
12266W        W85334  22.650   1.538   1.732
12267W        W85335  13.243  35.921   3.245
12268W        W85336  32.531   5.715   3.380
12269W        W85337   6.763  11.815   1.797
12270W        W85338  24.984   6.479   4.172
12271W        W85339  29.179  17.467   0.611
12272W        W85340  37.267  16.724   3.534
12273W        W85341  23.653  24.547  14.883
12274W        W85342  18.738   3.742   1.705
12275W        W85343  11.572  20.749   4.401
12276W        W85344  40.810  13.234   3.580
12277W        W85345   8.595  40.600  13.302
12278W        W85346  19.166  22.534   1.432
12279W        W85347  36.471  12.767   4.219
12280W        W85348   5.588  15.814   1.864
12281W        W85349  10.241  33.154   2.409
12282W        W85350  23.794   1.288   1.774
12283W        W85351   0.963  17.622  10.711
12284W        W85352  12.015  33.477  14.887
12285W        W85353  15.331  35.482  14.546
12286W        W85354  38.742  12.747   4.374
12287W        W85355  32.856  14.476   1.311
12288W        W85356  42.791  29.988  11.219
12289W        W85357  29.560  10.482  14.175
12290W        W85358  32.655  30.446   0.695
12291W        W85359  26.684  32.098   3.760
12292W        W85360  29.976  34.102   3.693
12293W        W85361  36.380  27.384   2.703
12294W        W85362  29.990  39.105  14.476
12295W        W85363  42.026  12.203  12.448
12296W        W85364  34.613  30.041  12.966
12297W        W85365  14.895  30.913  14.368
12298W        W85366  25.017  37.749  10.555
12299W        W85367  33.050   0.692  10.784
12300W        W85368  20.291  28.350  14.210
12301W        W85369   0.376  36.671  12.679
12302W        W85370  41.740  15.484   2.714
12303W        W85371  29.191   7.030   2.151
12304W        W85372  27.157  10.723   4.957
12305W        W85373  36.408   0.902   1.856
12306W        W85374   5.852  21.023  10.660
12307W        W85375  21.473   0.226  13.586
12308W        W85376  11.314  19.691   5.613
12309W        W85377  41.766  10.281   4.154
12310W        W85378  32.830  34.957   0.811
12311W        W85379   7.954  29.203  11.926
12312W        W85380  40.418  39.912   0.757
12313W        W85381   9.657  21.538   2.119
12314W        W85382  44.516   5.910  14.439
12315W        W85383  36.063  16.133  11.915
12316W        W85384   1.010  33.587  10.780
12317W        W85385  34.546  36.414  12.880
12318W        W85386  24.994  34.560  11.611
12319W        W85387  34.017  22.657   0.480
12320W        W85388   0.470  21.095  13.797
12321W        W85389   0.798  38.256   3.262
12322W        W85390  13.369  34.211  11.113
12323W        W85391  29.950  34.848  12.534
12324W        W85392  13.816  33.993  11.071
12325W        W85393  25.269  36.414  14.032
12326W        W85394   1.218  14.750  14.569
12327W        W85395   3.303  29.377   1.845
12328W        W85396  44.716  21.007   4.112
12329W        W85397  28.447  12.859   3.757
12330W        W85398  41.475  34.430  11.312
12331W        W85399  15.911   0.337   1.372
12332W        W85400  18.174  10.573   2.799
12333W        W85401  13.358  33.183  14.246
12334W        W85402   9.307   5.297   3.370
12335W        W85403  40.500  38.881  14.372
12336W        W85404  41.616  11.852  10.966
12337W        W85405  13.027  10.745   2.271
12338W        W85406  36.883  23.271  14.263
12339W        W85407  42.787   6.357   1.653
12340W        W85408  19.569  31.556   4.605
12341W        W85409  27.759  41.096   2.404
12342W        W85410  32.336  19.175   3.578
12343W        W85411  19.306  30.741   4.013
12344W        W85412   1.999  25.698   2.322
12345W        W85413  24.606   8.123   2.834
12346W        W85414  31.480  11.532   1.280
12347W        W85415   4.360  13.317  14.059
12348W        W85416  33.885  44.740  10.669
12349W        W85417   3.269   5.246   1.752
12350W        W85418   2.185   3.425  14.224
12351W        W85419  29.124   3.248  11.212
12352W        W85420  11.725   6.182  10.647
12353W        W85421  12.878  31.052  10.693
12354W        W85422  38.986  11.860   2.753
12355W        W85423   9.665  31.177  10.959
12356W        W85424   9.656  21.208   1.704
12357W        W85425  28.857  31.835   0.889
12358W        W85426  19.735  24.067  12.900
12359W        W85427  36.952  19.310  10.761
12360W        W85428  19.147   3.505  10.662
12361W        W85429  16.811  18.467   0.646
12362W        W85430  37.060  44.934   0.960
12363W        W85431  27.648  40.904  10.423
12364W        W85432  37.819  13.616  13.050
12365W        W85433  18.745  17.563   3.266
12366W        W85434   5.331   3.810   3.133
12367W        W85435   2.291  36.608   0.916
12368W        W85436  12.454   8.895  11.422
12369W        W85437  42.086  32.453   4.766
12370W        W85438  28.055   3.276  11.765
12371W        W85439  15.238   7.606   1.576
12372W        W85440  25.454  21.760  10.695
12373W        W85441  34.060  16.017  12.527
12374W        W85442  16.663  19.769   1.783
12375W        W85443  29.010   4.811   4.933
12376W        W85444  21.738  34.117  10.674
12377W        W85445  28.123  31.171   2.843
12378W        W85446   0.891  19.793   0.452
12379W        W85447   9.728  17.265  14.452
12380W        W85448  16.820  15.281   4.209
12381W        W85449  34.026  40.811  12.966
12382W        W85450  31.325  12.754  14.330
12383W        W85451  32.150  24.528   1.553
12384W        W85452  17.328  39.926  12.970
12385W        W85453  24.763  25.414   0.870
12386W        W85454  38.538  24.133   1.028
12387W        W85455  14.019   9.337   0.454
12388W        W85456  20.808  15.767   3.981
12389W        W85457   3.367  38.599   4.979
12390W        W85458  16.891  14.097   3.266
12391W        W85459  35.470  11.291   1.812
12392W        W85460   2.510  18.621  13.821
12393W        W85461  39.065  23.223   2.382
12394W        W85462  40.845  15.248   3.079
12395W        W85463  43.550  37.028  12.569
12396W        W85464  12.264  11.383   2.346
12397W        W85465   8.388  37.620  12.088
12398W        W85466   6.092  22.672  11.937
12399W        W85467   3.633  21.622   1.972
12400W        W85468   5.831   6.671   1.447
12401W        W85469  32.097  32.494  12.314
12402W        W85470  39.096  40.389   0.799
12403W        W85471  14.395  27.689   0.870
12404W        W85472   9.855  34.162   4.631
12405W        W85473   1.738  20.176   0.903
12406W        W85474  11.853  20.797  13.961
12407W        W85475  11.538   3.783  14.993
12408W        W85476  35.137  30.984   4.842
12409W        W85477  18.626  36.396   2.955
12410W        W85478  19.582  28.180   4.065
12411W        W85479  34.768  25.898   1.005
12412W        W85480  20.542   8.702  11.652
12413W        W85481   6.052  23.431   4.639
12414W        W85482  13.154  17.940  11.995
12415W        W85483   8.597  21.585  13.842
12416W        W85484  16.818   9.935   2.337
12417W        W85485   3.645   4.631  12.840
12418W        W85486  44.296  18.194  10.733
12419W        W85487  33.067  37.965  11.991
12420W        W85488   1.473  44.906   3.565
12421W        W85489  15.127  36.083  14.239
12422W        W85490   2.442  16.965  14.298
12423W        W85491   3.016   9.231   1.991
12424W        W85492  20.723   2.454   3.640
12425W        W85493  30.437  23.026   2.295
12426W        W85494  25.482   0.043   0.767
12427W        W85495   2.173  11.908   3.670
12428W        W85496  10.030   0.232   4.681
12429W        W85497   8.622  39.531   9.876
12430W        W85498  29.500   6.210   3.330
12431W        W85499   6.340  17.860  10.996
12432W        W85500  12.928  18.110  14.279
12433W        W85501  14.149   4.472   2.708
12434W        W85502  13.439   7.006   2.339
12435W        W85503  32.971  21.746  12.993
12436W        W85504  24.719  42.285  11.118
12437W        W85505  11.143  35.579  10.557
12438W        W85506  32.584  17.791  14.816
12439W        W85507  14.175  39.999  12.605
12440W        W85508  13.765  27.373  13.333
12441W        W85509  30.058  29.504  12.180
12442W        W85510  44.766  30.479   3.579
12443W        W85511   4.517  39.599  10.767
12444W        W85512   8.966   4.620   0.424
12445W        W85513   0.829   5.005  10.734
12446W        W85514  29.469  18.073  13.798
12447W        W85515  37.741  40.836   2.161
12448W        W85516  14.304  26.866  13.857
12449W        W85517   7.475  25.957  14.733
12450W        W85518   6.846  27.840  14.808
12451W        W85519  41.063  35.707   2.834
12452W        W85520  14.280  40.720  13.856
12453W        W85521  43.845  40.999   4.463
12454W        W85522  12.256   7.180  14.555
12455W        W85523  14.225  35.430  13.975
12456W        W85524  44.101  27.975   0.489
12457W        W85525  26.312   6.751  11.142
12458W        W85526  29.285  18.439   1.013
12459W        W85527  44.256  18.099  12.489
12460W        W85528  29.656  24.974  13.202
12461W        W85529   8.250  33.757  12.194
12462W        W85530  38.381  32.932   2.352
12463W        W85531  21.463  40.548   2.772
12464W        W85532   1.216  27.430  14.801
12465W        W85533  13.950   7.624   1.206
12466W        W85534  32.839   2.112  11.882
12467W        W85535  13.765  42.383  14.075
12468W        W85536   4.124   0.442   1.231
12469W        W85537  13.969  18.659   0.456
12470W        W85538   9.412  36.902  12.946
12471W        W85539  30.633   7.398  13.465
12472W        W85540  34.139  11.824   1.379
12473W        W85541   1.855  16.293  14.946
12474W        W85542  10.849  24.763  10.654
12475W        W85543  16.534   5.215   1.360
12476W        W85544  31.473  27.171   4.615
12477W        W85545  24.075  19.375   5.061
12478W        W85546  35.983  37.522   2.237
12479W        W85547   5.909  15.476   2.072
12480W        W85548  13.713  25.509  12.882
12481W        W85549  29.931  40.539  11.087
12482W        W85550  14.529  26.360  10.210
12483W        W85551   0.463   9.232  12.137
12484W        W85552  32.226  24.594  14.757
12485W        W85553  32.464   0.913   1.392
12486W        W85554  40.062   7.670  11.975
12487W        W85555  44.235  20.229   2.604
12488W        W85556  27.117  27.635  14.253
12489W        W85557  40.937  43.282   2.809
12490W        W85558  34.032  37.819   4.741
12491W        W85559  27.781  25.158  10.502
12492W        W85560   7.616   7.466   1.296
12493W        W85561  22.234  39.529   3.105
12494W        W85562  32.871  32.097  13.837
12495W        W85563  26.259  27.586   4.035
12496W        W85564  41.802  35.179   1.841
12497W        W85565  43.847   6.593  13.374
12498W        W85566  41.847  15.616   0.582
12499W        W85567  15.908  21.588   2.090
12500W        W85568  42.890   0.856   1.779
12501W        W85569  39.361  41.035   2.882
12502W        W85570  27.596  21.656   0.954
12503W        W85571  39.645  13.526  14.353
12504W        W85572  37.414  33.849   1.156
12505W        W85573  25.082  22.008  12.765
12506W        W85574  37.123   1.250   3.967
12507W        W85575   8.148  11.680   0.941
12508W        W85576   1.807  26.702   1.781
12509W        W85577  26.997   0.406   2.332
12510W        W85578  25.637  33.445   0.405
12511W        W85579  21.203  38.324  14.950
12512W        W85580  17.603   8.185   3.344
12513W        W85581  29.880  11.620  12.376
12514W        W85582  19.914  34.301   0.608
12515W        W85583  12.661   1.496  14.327
12516W        W85584  39.331  32.076  13.474
12517W        W85585  39.224   8.042   1.635
12518W        W85586  27.380  27.598   1.268
12519W        W85587  27.332   6.333  11.136
12520W        W85588  30.658  37.425  10.647
12521W        W85589  12.644  31.567   1.163
12522W        W85590  21.504  11.394   4.554
12523W        W85591   1.033   8.812   4.679
12524W        W85592  28.543  20.439   0.779
12525W        W85593  43.333   2.756   0.487
12526W        W85594  37.882   2.663  12.129
12527W        W85595   7.320   2.778  13.490
12528W        W85596   4.762   1.675   1.860
12529W        W85597  19.325  39.041  14.422
12530W        W85598  16.585  21.842  12.389
12531W        W85599   1.826  31.636   1.594
12532W        W85600  26.564  37.327   0.770
12533W        W85601  22.943   1.341  10.693
12534W        W85602  31.061  43.503  12.480
12535W        W85603   4.799   0.291  12.371
12536W        W85604   1.034  10.789  14.807
12537W        W85605  12.806   3.111  12.525
12538W        W85606  18.541   3.822   3.874
12539W        W85607  33.539   0.771   2.809
12540W        W85608  37.315  25.719  14.325
12541W        W85609  27.720  30.009   0.313
12542W        W85610  43.329   0.825  14.037
12543W        W85611  22.595  34.868   4.126
12544W        W85612  41.672  24.571   3.124
12545W        W85613  33.380  38.329  13.926
12546W        W85614   0.365  12.623  12.445
12547W        W85615  21.058  26.437   2.244
12548W        W85616   6.340   7.438  13.031
12549W        W85617  19.531  24.043   4.728
12550W        W85618  25.189  35.458  12.053
12551W        W85619  13.062   4.327   1.860
12552W        W85620   2.261  29.973  11.127
12553W        W85621  43.946   4.261  11.552
12554W        W85622  37.126   3.886  13.940
12555W        W85623  43.918  24.890   3.791
12556W        W85624  23.028  23.278  10.725
12557W        W85625  11.262  17.237   0.813
12558W        W85626  24.621  37.337   1.761
12559W        W85627  41.328  15.805  14.498
12560W        W85628   1.710  17.367   3.799
12561W        W85629  26.936  43.882   0.755
12562W        W85630   8.399   7.248   3.080
12563W        W85631   4.806  41.818   3.824
12564W        W85632   6.719   2.814  13.525
12565W        W85633  30.257  42.827   4.382
12566W        W85634  25.111  23.214   0.189
12567W        W85635   2.914  37.621   1.141
12568W        W85636  19.403  28.919  11.473
12569W        W85637  29.613   8.885  13.884
12570W        W85638  19.823  29.994   1.945
12571W        W85639   5.415   1.756  14.852
12572W        W85640  26.928   3.549   4.305
12573W        W85641  13.351  25.120   1.870
12574W        W85642  32.316  31.429  12.818
12575W        W85643  42.798   4.292  12.085
12576W        W85644  20.290  41.575   0.505
12577W        W85645  21.756  22.732   1.191
12578W        W85646  14.598  38.131  13.525
12579W        W85647  12.666  41.337  12.596
12580W        W85648  22.688  41.371  13.571
12581W        W85649  31.127  36.868  13.454
12582W        W85650  39.109  43.822  13.161
12583W        W85651   5.920  23.962   0.886
12584W        W85652   6.203  30.382  11.177
12585W        W85653  33.047  17.149   3.958
12586W        W85654  34.036  42.811  10.635
12587W        W85655  25.687  37.548   3.549
12588W        W85656  37.921  14.552  11.992
12589W        W85657  39.003  10.262   0.688
12590W        W85658  41.463  24.057  14.297
12591W        W85659   0.479  31.875  10.417
12592W        W85660   9.944  28.160  14.733
12593W        W85661  33.096  36.661  13.581
12594W        W85662   1.456  32.081  11.861
12595W        W85663   7.174  42.965  14.440
12596W        W85664  10.914  10.801   3.699
12597W        W85665  11.128  42.001  10.526
12598W        W85666  25.190  33.569   1.886
12599W        W85667  23.049  39.949   1.029
12600W        W85668  44.376  44.155  14.868
12601W        W85669  34.490  20.347   3.816
12602W        W85670  36.392  10.597   0.964
12603W        W85671  19.540  44.763   4.567
12604W        W85672   0.793   4.863   4.607
12605W        W85673  25.331  24.431  12.056
12606W        W85674  10.425  41.889   4.559
12607W        W85675  41.348  36.230  11.193
12608W        W85676  40.704  44.284  11.500
12609W        W85677  44.256  36.142   2.422
12610W        W85678  20.867   2.918  13.292
12611W        W85679  40.968   5.956   0.116
12612W        W85680  27.147  40.960  10.651
12613W        W85681  20.923  16.195   3.686
12614W        W85682  36.420  44.891  12.851
12615W        W85683   0.438  10.685  11.063
12616W        W85684  21.114   3.694  11.802
12617W        W85685  28.803   4.089  11.509
12618W        W85686  30.372   9.024   3.863
12619W        W85687   3.738  19.181   3.366
12620W        W85688   7.643   4.994   3.969
12621W        W85689  18.251  21.833  11.770
12622W        W85690  28.022  37.137  13.800
12623W        W85691  37.094   6.813   4.570
12624W        W85692   1.883   1.206  11.491
12625W        W85693  40.483  43.983  12.647
12626W        W85694  25.592  14.487   3.272
12627W        W85695  38.377  44.886   4.124
12628W        W85696  27.910   6.655  14.480
12629W        W85697   2.458  14.625  14.950
12630W        W85698   4.162  22.649  10.651
12631W        W85699  31.629  42.354  12.400
12632W        W85700  34.042  43.112   2.811
12633W        W85701  23.529  30.586  10.599
12634W        W85702  17.233  36.988  11.167
12635W        W85703  23.695   3.046  13.977
12636W        W85704  17.717  23.518  14.400
12637W        W85705   5.380  40.308   2.245
12638W        W85706   3.502   4.838  11.082
12639W        W85707  20.047  38.125   2.509
12640W        W85708  28.207   5.939  10.991
12641W        W85709  44.444   6.280  10.967
12642W        W85710  35.374  39.874   0.957
12643W        W85711  15.408  41.793  13.926
12644W        W85712  31.957  24.492  13.004
12645W        W85713  13.885   4.434   4.086
12646W        W85714  14.559  20.697   0.880
12647W        W85715  43.354  33.150   4.541
12648W        W85716  34.062  26.023  13.479
12649W        W85717  20.608  37.076   0.690
12650W        W85718  31.035  28.132  14.260
12651W        W85719  20.711  15.489   1.425
12652W        W85720  40.379  18.347   4.582
12653W        W85721   7.773  32.395  13.839
12654W        W85722  42.746  20.793  12.097
12655W        W85723  34.046   8.912  13.803
12656W        W85724  36.548  39.790   0.213
12657W        W85725   8.258  42.598  10.224
12658W        W85726  28.761  15.118   2.354
12659W        W85727  16.315  28.688  12.332
12660W        W85728   2.315   3.804   4.984
12661W        W85729  14.867  36.638  12.459
12662W        W85730  23.457   3.299  11.367
12663W        W85731   3.252   9.582  11.085
12664W        W85732   0.552  24.796  11.095
12665W        W85733  22.147  12.410  13.840
12666W        W85734  19.252  20.659  11.885
12667W        W85735  40.943  41.581   2.306
12668W        W85736  31.511  19.615   5.042
12669W        W85737  15.526   4.234   3.572
12670W        W85738  33.874   1.493  14.884
12671W        W85739  36.337  21.760  11.571
12672W        W85740  41.169   2.934  10.393
12673W        W85741  38.367   0.958  10.155
12674W        W85742  31.866  31.212   4.885
12675W        W85743  32.933  10.843   0.983
12676W        W85744   6.644  35.073   3.700
12677W        W85745  41.170  14.287   1.751
12678W        W85746  33.856  20.827   2.197
12679W        W85747  22.738  44.464   0.020
12680W        W85748   0.205  36.959  11.048
12681W        W85749  26.452  37.985  11.426
12682W        W85750   2.658  22.370  13.951
12683W        W85751   7.909  24.877   3.193
12684W        W85752  16.208  11.847   0.014
12685W        W85753  12.489   6.100  13.058
12686W        W85754  36.892  34.785  11.241
12687W        W85755  27.664  13.323  14.399
12688W        W85756  13.363  24.059  11.241
12689W        W85757  44.469   3.902   5.132
12690W        W85758   4.506  32.599   0.925
12691W        W85759   8.341  17.696  14.954
12692W        W85760  30.921  40.029  10.897
12693W        W85761   7.888  30.625   2.301
12694W        W85762  24.219  26.724   2.372
12695W        W85763  19.000  30.492  10.708
12696W        W85764  32.866  23.367   1.300
12697W        W85765  22.703  39.535   0.729
12698W        W85766   8.092  37.577   0.244
12699W        W85767   1.521  20.015   0.337
12700W        W85768  17.174  36.367   4.315
12701W        W85769  13.085  25.165  13.099
12702W        W85770  38.937  44.935   4.957
12703W        W85771  31.829  14.030  12.962
12704W        W85772   1.800  21.643   0.235
12705W        W85773  41.865  14.849  11.232
12706W        W85774  41.734   0.865   0.016
12707W        W85775  36.411  32.866   1.247
12708W        W85776  18.033  44.451   1.620
12709W        W85777  24.512   9.705   0.767
12710W        W85778  33.567   6.431  14.073
12711W        W85779  12.237   7.791   0.367
12712W        W85780  24.272   4.733  13.917
12713W        W85781  32.531  29.535   1.903
12714W        W85782  17.101  28.768  13.018
12715W        W85783   2.555  25.640   1.461
12716W        W85784  32.167   4.401   2.270
12717W        W85785   6.398  29.111  10.736
12718W        W85786  13.738  21.662  14.610
12719W        W85787  27.510  16.064   1.309
12720W        W85788   0.885  37.498   1.434
12721W        W85789  42.015  38.179  10.698
12722W        W85790  20.061  14.286  10.349
12723W        W85791  13.852   1.448   2.743
12724W        W85792  42.997  42.988  10.096
12725W        W85793  32.947  25.986   1.675
12726W        W85794  11.576  24.092  12.491
12727W        W85795  34.989   6.351  10.795
12728W        W85796  29.183  40.418   0.428
12729W        W85797   4.717  15.765  14.366
12730W        W85798  10.302  33.053  11.237
12731W        W85799  32.709  29.018  14.670
12732W        W85800  33.698  36.133  14.020
12733W        W85801   2.014  13.672  14.532
12734W        W85802   0.966  27.598  13.861
12735W        W85803   3.754  43.196  14.565
12736W        W85804  38.864  31.509   1.473
12737W        W85805   3.833  26.645  11.323
12738W        W85806  15.348   7.840  10.588
12739W        W85807  29.233  25.224   2.827
12740W        W85808  40.351  40.789  14.428
12741W        W85809  35.835   2.319  11.206
12742W        W85810  44.040  32.124  13.821
12743W        W85811  35.865  40.035   1.177
12744W        W85812   7.428  35.578   2.864
12745W        W85813  25.662  15.717  13.371
12746W        W85814  32.459  26.397   1.344
12747W        W85815   3.970  16.708  14.794
12748W        W85816  41.091  43.773  14.370
12749W        W85817  17.799  23.705  11.996
12750W        W85818  17.742  27.422  13.562
12751W        W85819  13.320  26.491   1.167
12752W        W85820  16.696  12.874  14.275
12753W        W85821  22.635  12.143  11.436
12754W        W85822  25.056  41.929   0.289
12755W        W85823  39.285  18.821  12.737
12756W        W85824  24.468  23.602   1.953
12757W        W85825   5.468  32.513  11.096
12758W        W85826   8.687  16.589   0.396
12759W        W85827  23.123  39.376  11.421
12760W        W85828  32.612  21.788  14.973
12761W        W85829  15.795  15.035  10.768
12762W        W85830  24.218  33.385   0.455
12763W        W85831  32.368  15.271  13.075
12764W        W85832   7.956  44.636   3.376
12765W        W85833  29.579  39.703  13.348
12766W        W85834  16.375   1.625  11.159
12767W        W85835  42.847   9.208   1.295
12768W        W85836   1.543  13.453   2.903
12769W        W85837  15.526  22.425   1.243
12770W        W85838  15.884  15.722  12.091
12771W        W85839  38.368  37.642   1.081
12772W        W85840  30.297  19.565  14.884
12773W        W85841  37.450  19.862   0.804
12774W        W85842  14.623   8.992   5.009
12775W        W85843   5.143  27.095  10.994
12776W        W85844  40.014   7.919   5.106
12777W        W85845  42.991   5.027  14.393
12778W        W85846  34.677  12.361   3.342
12779W        W85847  19.586  10.584  12.645
12780W        W85848  23.230  31.532   3.188
12781W        W85849  27.940  14.202   4.578
12782W        W85850  36.046  26.010  12.958
12783W        W85851  18.118  36.779   0.858
12784W        W85852  44.559  43.372   3.811
12785W        W85853  33.669  22.546  13.311
12786W        W85854  15.535  23.647  11.606
12787W        W85855  37.552  20.075  14.389
12788W        W85856  31.636  25.442  11.118
12789W        W85857  43.346  20.428   2.273
12790W        W85858  36.461  18.960   0.258
12791W        W85859  10.604  18.032  11.638
12792W        W85860  29.262   0.266   3.163
12793W        W85861  22.344  44.484  13.693
12794W        W85862  15.686  35.639  13.275
12795W        W85863  42.739   0.700  11.025
12796W        W85864  16.564  13.154   0.749
12797W        W85865  35.651  13.240  13.893
12798W        W85866   5.929  29.617   4.538
12799W        W85867  40.955   7.863   5.085
12800W        W85868  38.485   4.287  11.638
12801W        W85869  11.645   7.691   1.306
12802W        W85870  14.222  42.319  14.338
12803W        W85871  20.175  33.078   2.367
12804W        W85872  37.854  11.814   3.807
12805W        W85873  37.893   2.481   2.479
12806W        W85874  42.473  42.212  11.724
12807W        W85875  16.340  11.435  13.354
12808W        W85876  43.765  31.157   3.648
12809W        W85877   7.137   7.605  12.543
12810W        W85878  26.035  43.369  14.220
12811W        W85879  14.652  22.404   3.966
12812W        W85880   4.912  24.934  11.918
12813W        W85881  29.293  26.534  11.692
12814W        W85882  14.333  38.815  13.453
12815W        W85883  25.745  26.888  14.780
12816W        W85884  22.620  10.161  12.587
12817W        W85885  32.870  39.854  12.594
12818W        W85886  34.091   3.963   4.972
12819W        W85887   3.417  27.100   4.568
12820W        W85888  10.149  18.494   1.188
12821W        W85889  30.429   7.843  11.506
12822W        W85890  43.092  10.894   1.657
12823W        W85891  23.536   7.872  13.333
12824W        W85892   3.715  22.558   2.334
12825W        W85893  31.005  14.444  13.483
12826W        W85894   9.315  38.961   3.381
12827W        W85895  13.851  14.791   0.954
12828W        W85896  25.141  14.424  14.190
12829W        W85897  21.350  19.796  11.083
12830W        W85898  14.675   6.639   2.253
12831W        W85899  26.410   1.673  12.025
12832W        W85900  30.685   1.337   1.992
12833W        W85901   3.491  19.024   2.920
12834W        W85902  18.364   8.063  13.508
12835W        W85903  26.690   7.532   2.377
12836W        W85904  34.843  13.569   2.757
12837W        W85905  39.608  44.517   0.457
12838W        W85906  15.663  28.006  14.915
12839W        W85907   4.243  12.280  14.807
12840W        W85908  18.608  40.821  14.313
12841W        W85909  39.572  41.468   2.397
12842W        W85910  10.864  32.031  11.616
12843W        W85911  19.810  22.702  11.577
12844W        W85912  25.546  27.477   1.726
12845W        W85913  21.771  44.273   3.720
12846W        W85914  22.478  36.691  11.629
12847W        W85915  40.785  10.276  14.533
12848W        W85916  23.130  43.806  12.547
12849W        W85917   2.866  25.507   0.561
12850W        W85918  10.346   9.154   3.776
12851W        W85919  25.621  14.176  13.972
12852W        W85920  32.063  30.377   1.303
12853W        W85921  13.729  29.581  14.056
12854W        W85922   8.397  25.048   4.065
12855W        W85923  13.635  19.183   3.415
12856W        W85924  14.996  23.661   3.549
12857W        W85925  41.861  23.013  11.607
12858W        W85926   1.986  12.324  14.384
12859W        W85927   9.331  16.568  14.104
12860W        W85928  26.074  43.342  13.706
12861W        W85929   2.864   4.949  10.545
12862W        W85930  10.701  16.332   4.610
12863W        W85931  36.501   2.616  13.956
12864W        W85932  20.154   9.307   4.007
12865W        W85933   9.626  35.634  13.970
12866W        W85934  22.540  10.421   0.374
12867W        W85935  36.480   5.496  10.609
12868W        W85936  38.002  19.263  13.464
12869W        W85937  26.492  44.898  11.523
12870W        W85938   1.425   7.294   0.174
12871W        W85939   7.891  18.811  14.742
12872W        W85940   9.557  39.606   2.350
12873W        W85941  19.941  41.257   3.724
12874W        W85942  20.707  41.125   1.083
12875W        W85943  10.873  34.869   2.757
12876W        W85944  20.635  35.728   0.941
12877W        W85945  39.564  34.347   4.352
12878W        W85946   7.291  36.360   4.335
12879W        W85947  16.805  34.863  13.548
12880W        W85948   2.171  43.149  14.960
12881W        W85949  14.549  16.354   3.958
12882W        W85950  17.532  39.992   2.310
12883W        W85951  35.540  27.999   4.285
12884W        W85952  41.239  39.249   2.826
12885W        W85953  29.454  29.917   1.917
12886W        W85954  36.344  36.818  13.003
12887W        W85955  22.689  13.725   1.334
12888W        W85956  23.570  19.774  13.974
12889W        W85957   0.980  31.797   3.407
12890W        W85958  34.485  20.534   0.369
12891W        W85959  14.732   1.773   2.200
12892W        W85960  20.099   6.646  13.546
12893W        W85961  36.208  28.351   3.658
12894W        W85962  37.389  30.492   1.457
12895W        W85963  21.736   6.348  10.139
12896W        W85964  33.537  10.795   0.269
12897W        W85965   1.264  24.575   0.842
12898W        W85966  33.607  23.504   3.756
12899W        W85967  23.288  29.570   0.403
12900W        W85968   5.716  21.298  11.503
12901W        W85969  20.189   9.731   3.689
12902W        W85970  38.759   6.474  13.282
12903W        W85971   9.603  33.865  14.990
12904W        W85972   1.946   7.986  14.720
12905W        W85973  41.931   3.148   4.877
12906W        W85974  38.626  39.121  13.764
12907W        W85975   4.308  22.251  10.967
12908W        W85976  44.901  41.948  10.612
12909W        W85977  14.321   4.217   3.144
12910W        W85978  19.320  31.125   0.811
12911W        W85979   0.338  40.599   0.342
12912W        W85980  26.889  25.284  11.483
12913W        W85981  25.912  20.786   0.990
12914W        W85982  34.938  16.506  11.975
12915W        W85983  17.163  27.786   1.000
12916W        W85984  42.260  11.791  13.406
12917W        W85985  14.400  21.140   9.971
12918W        W85986  12.231  37.351   3.316
12919W        W85987  19.780  27.723   2.279
12920W        W85988  17.267  23.235  14.476
12921W        W85989  42.906   2.439   0.943
12922W        W85990  44.145   8.785  13.451
12923W        W85991   4.496  34.056   0.874
12924W        W85992  39.800  20.079  14.050
12925W        W85993   4.988  28.597   3.365
12926W        W85994  43.342  24.254   1.091
12927W        W85995  17.518  41.934  14.428
12928W        W85996  27.239  25.736  13.744
12929W        W85997  31.078  36.091   3.192
12930W        W85998  40.373  21.765  11.587
12931W        W85999  44.477  24.472  11.060
12932W        W86000  27.473  20.684  13.870
12933W        W86001  35.113  33.745   2.809
12934W        W86002  11.854  21.532   4.163
12935W        W86003  24.802  32.228  11.673
12936W        W86004  42.335  11.995   1.348
12937W        W86005  13.351  44.819  12.558
12938W        W86006   2.872  21.457   1.667
12939W        W86007  21.632  35.041   1.318
12940W        W86008  27.025  25.476  14.761
12941W        W86009  18.054   7.094   2.710
12942W        W86010   8.744   6.865   0.056
12943W        W86011  24.961  36.484  13.047
12944W        W86012   7.173  33.791  11.549
12945W        W86013  33.242  34.883   1.129
12946W        W86014  15.314  41.904  14.851
12947W        W86015  30.968  10.097  13.563
12948W        W86016   6.978  10.253  13.771
12949W        W86017   8.812  31.681   2.352
12950W        W86018   8.854  19.269   4.922
12951W        W86019  24.917  10.242   2.802
12952W        W86020  31.560  29.466  12.481
12953W        W86021  40.537  17.201  13.063
12954W        W86022   4.808   4.546   4.650
12955W        W86023   4.306  42.366  12.995
12956W        W86024  24.750   5.303  11.548
12957W        W86025   9.684  35.483  14.865
12958W        W86026  43.247  43.389   3.244
12959W        W86027  15.268   6.039   4.833
12960W        W86028  11.256  25.828   4.948
12961W        W86029  41.084  23.573  11.871
12962W        W86030  23.546  19.288  12.367
12963W        W86031   5.380  14.881  12.049
12964W        W86032   9.182  30.613   0.766
12965W        W86033  10.750  12.302  11.846
12966W        W86034   2.369  18.505  14.687
12967W        W86035   2.346  13.183  14.910
12968W        W86036  31.384  36.916   4.793
12969W        W86037  28.140  14.773   2.674
12970W        W86038  27.555  20.685   4.913
12971W        W86039  18.347   6.432   0.903
12972W        W86040  38.791   7.035   3.736
12973W        W86041   0.965  13.848   2.803
12974W        W86042  40.463  37.440  11.024
12975W        W86043  26.878   2.315  11.566
12976W        W86044  11.900   3.296   1.757
12977W        W86045  10.279  22.838   5.089
12978W        W86046   5.179   8.928   0.743
12979W        W86047  11.183  12.519   0.866
12980W        W86048  39.258  35.623   4.071
12981W        W86049  39.862  35.901   0.008
12982W        W86050  22.054  13.665  12.076
12983W        W86051  39.280  36.280   3.075
12984W        W86052  32.037  15.190   0.010
12985W        W86053   8.103  11.900  11.451
12986W        W86054  10.827  33.548  12.449
12987W        W86055  38.382  16.612   1.473
12988W        W86056   9.936  11.942   4.623
12989W        W86057  41.312   0.006   2.262
12990W        W86058  26.612  14.025  10.248
12991W        W86059  20.034  25.597   0.428
12992W        W86060  21.365  40.520   3.593
12993W        W86061   3.107   2.518  14.433
12994W        W86062  37.973  29.004   4.576
12995W        W86063  32.818   6.230   3.471
12996W        W86064  18.715  31.837   4.528
12997W        W86065  10.915  16.636  10.664
12998W        W86066   0.265  30.950  10.837
12999W        W86067  33.700  38.684   3.228
13000W        W86068   9.911  19.694  13.423
13001W        W86069  43.879  44.464  11.558
13002W        W86070  15.478  20.947   4.260
13003W        W86071  38.461  13.141   4.152
13004W        W86072   9.497   4.648  11.150
13005W        W86073  14.779  43.702  11.969
13006W        W86074  17.271  14.212  14.762
13007W        W86075   4.136   6.973   3.895
13008W        W86076  36.885  28.588  12.677
13009W        W86077  28.404  24.153   2.739
13010W        W86078  32.077  27.670  11.591
13011W        W86079  19.694  35.419  13.082
13012W        W86080  16.196  42.179   2.692
13013W        W86081  33.475   1.203   4.698
13014W        W86082  20.929   1.132  10.253
13015W        W86083   2.253  16.521   3.103
13016W        W86084  13.651  26.571   2.309
13017W        W86085  11.603  13.631  11.125
13018W        W86086   5.809   5.666  11.605
13019W        W86087  42.095   2.780   3.694
13020W        W86088  21.489  11.782  13.295
13021W        W86089  19.361   5.460  13.359
13022W        W86090  23.449  22.006  14.895
13023W        W86091  29.311  27.731  12.933
13024W        W86092   7.481  44.824   4.699
13025W        W86093   5.621  32.651  11.939
13026W        W86094   8.729  25.260  13.687
13027W        W86095  17.640  16.134   0.882
13028W        W86096   7.886  40.223  14.317
13029W        W86097  34.422  33.033   2.767
13030W        W86098  43.624  37.046   2.420
13031W        W86099   2.253  10.206  14.869
13032W        W86100  27.696  13.371   2.900
13033W        W86101  29.191  32.004   4.107
13034W        W86102  30.630   3.112  12.036
13035W        W86103  28.139  21.475   4.662
13036W        W86104  39.351   2.533  12.691
13037W        W86105  22.974  12.812   4.850
13038W        W86106  40.598  41.234  13.171
13039W        W86107  33.878  41.007  13.419
13040W        W86108  24.547  31.936   2.701
13041W        W86109  32.669  37.557   1.236
13042W        W86110  36.463  21.025   0.994
13043W        W86111   1.016   3.731  14.678
13044W        W86112  29.965  16.381   3.688
13045W        W86113  36.689  26.681  12.870
13046W        W86114   4.094  21.784  10.666
13047W        W86115  34.032   0.798   2.305
13048W        W86116   0.990   7.894  13.199
13049W        W86117  16.792  11.249  10.581
13050W        W86118  33.839  30.500   3.643
13051W        W86119   8.607  25.075  13.186
13052W        W86120  16.514  28.611   2.672
13053W        W86121  24.724  42.817  12.159
13054W        W86122   9.487   5.305   2.656
13055W        W86123  41.097  34.409   3.795
13056W        W86124  19.508  12.659   4.577
13057W        W86125  30.731  18.621  11.581
13058W        W86126  31.145  43.579   2.792
13059W        W86127  10.958  23.842   1.247
13060W        W86128  29.645   2.445  14.850
13061W        W86129  31.007  22.142  13.060
13062W        W86130  29.042  35.938  14.535
13063W        W86131  44.784  29.749  14.783
13064W        W86132  18.458  11.819   4.994
13065W        W86133   0.740  14.588  14.642
13066W        W86134  21.249  22.518  11.192
13067W        W86135  34.012  32.094  13.762
13068W        W86136   5.904  35.314   0.064
13069W        W86137  19.254   2.166  12.004
13070W        W86138   2.387  29.552   4.612
13071W        W86139  16.934  34.109   2.091
13072W        W86140   2.665   8.332  13.381
13073W        W86141  26.693  30.442  12.049
13074W        W86142  14.333   8.253   0.681
13075W        W86143  32.850  13.526   1.299
13076W        W86144  12.013   4.867   4.129
13077W        W86145  16.157   8.189  10.555
13078W        W86146   8.485   2.063   1.354
13079W        W86147  24.890   9.624   1.721
13080W        W86148  21.201   8.301   3.542
13081W        W86149   1.911   3.971  13.419
13082W        W86150  34.918  27.569  14.014
13083W        W86151   2.541  16.963  11.127
13084W        W86152  24.559  27.553   4.207
13085W        W86153  43.537  28.435   0.827
13086W        W86154  37.332  11.853   0.197
13087W        W86155  39.934  39.177  12.156
13088W        W86156   3.981  35.613  12.641
13089W        W86157  38.620  12.191  11.184
13090W        W86158  24.336  44.043  11.038
13091W        W86159  31.358  39.771  14.457
13092W        W86160  20.763   2.846   1.797
13093W        W86161   1.698  43.460   1.929
13094W        W86162  38.598   8.584  13.825
13095W        W86163  19.540  22.171  11.963
13096W        W86164  19.736  11.378   3.689
13097W        W86165  39.549  39.546  12.117
13098W        W86166  44.103   5.855  12.680
13099W        W86167  31.516  25.664  12.024
13100W        W86168   0.942  13.641  14.981
13101W        W86169  39.057  36.530   0.390
13102W        W86170  13.090  44.744  11.245
13103W        W86171  34.795   3.417   1.031
13104W        W86172  25.969  14.796  13.862
13105W        W86173  38.922   4.390  10.721
13106W        W86174  12.360   0.543   4.893
13107W        W86175   2.031  35.589   0.939
13108W        W86176   4.262  43.092  13.483
13109W        W86177  20.167  17.235  13.457
13110W        W86178  20.593  14.873  11.578
13111W        W86179  26.419  32.879   4.278
13112W        W86180  37.490  21.800  12.949
13113W        W86181  21.254   3.228   2.778
13114W        W86182  19.303  44.044  11.454
13115W        W86183  28.958  13.805  13.777
13116W        W86184   8.129  34.625  11.994
13117W        W86185  36.394  43.541  14.814
13118W        W86186  12.784   9.133   1.382
13119W        W86187   0.210   6.701  10.657
13120W        W86188   7.784   0.649  12.573
13121W        W86189  40.851   2.869   0.438
13122W        W86190  42.809   7.612  13.080
13123W        W86191  38.859  17.417   3.879
13124W        W86192  44.531  33.863   2.516
13125W        W86193  36.775  28.302   2.310
13126W        W86194  34.097  19.824  13.152
13127W        W86195  31.628   1.354  13.062
13128W        W86196  35.622  27.015  12.607
13129W        W86197  33.455  38.588  14.371
13130W        W86198  40.005  34.979  14.559
13131W        W86199  17.233   3.656  14.858
13132W        W86200  37.062  35.757  11.099
13133W        W86201  26.606   2.101   1.281
13134W        W86202  39.815  26.906   0.475
13135W        W86203  15.623   8.810   3.909
13136W        W86204  11.682  25.941   1.787
13137W        W86205  22.543  43.753   1.688
13138W        W86206  41.224   8.287  13.320
13139W        W86207   2.930  26.975  11.157
13140W        W86208  11.145  28.165   3.674
13141W        W86209  19.414   4.355  10.425
13142W        W86210  42.643  19.703   4.930
13143W        W86211  11.765  18.735  10.939
13144W        W86212  44.526  11.826   4.827
13145W        W86213   8.634  25.845  12.219
13146W        W86214  17.597  38.470  12.361
13147W        W86215   4.238  14.599  13.943
13148W        W86216  22.018  43.526   5.493
13149W        W86217  31.252  42.947   2.716
13150W        W86218   2.389  25.151  12.543
13151W        W86219  33.125  29.694   2.638
13152W        W86220  43.899   2.366  10.621
13153W        W86221  13.857   6.727   4.237
13154W        W86222  33.488  23.155   1.832
13155W        W86223   7.971  31.511   0.755
13156W        W86224   3.885  17.282  13.002
13157W        W86225  10.672  36.744   0.063
13158W        W86226  17.385  34.076  10.291
13159W        W86227  41.711  33.974  13.112
13160W        W86228  27.595  27.466   3.249
13161W        W86229  19.190  19.094   4.496
13162W        W86230  18.860  21.343   9.789
13163W        W86231  16.079  14.242  13.384
13164W        W86232  23.967  28.828  12.049
13165W        W86233  22.899  42.575   5.130
13166W        W86234   3.198  34.530  14.493
13167W        W86235   9.328  21.551  12.483
13168W        W86236   7.429  35.484  13.929
13169W        W86237  27.902  24.427  11.170
13170W        W86238  28.910  31.006   1.536
13171W        W86239  41.850  12.345   2.662
13172W        W86240   4.723  43.421   1.707
13173W        W86241  28.616  24.270  14.416
13174W        W86242   5.815  19.361   1.843
13175W        W86243   3.662  32.368   2.479
13176W        W86244  36.662   9.649  12.751
13177W        W86245  22.214  17.670  13.838
13178W        W86246  40.592  14.623   1.149
13179W        W86247  17.364  16.206   1.331
13180W        W86248  10.373  11.749   1.233
13181W        W86249  10.604  32.146   1.417
13182W        W86250  35.024   5.922   3.190
13183W        W86251  27.437  32.715  11.918
13184W        W86252  19.647  26.789   0.390
13185W        W86253  15.610  22.677   3.262
13186W        W86254  26.387  12.762   1.756
13187W        W86255  43.166  33.668  12.047
13188W        W86256  22.094  25.624  14.330
13189W        W86257  39.709  37.058  13.318
13190W        W86258   2.853  12.790  11.475
13191W        W86259  23.611  30.045   4.202
13192W        W86260  42.900  11.906   1.784
13193W        W86261  33.386   7.873  10.514
13194W        W86262   7.790  33.789   0.850
13195W        W86263  25.430  23.669  12.154
13196W        W86264  22.673  19.623   4.122
13197W        W86265  41.803  22.695   4.347
13198W        W86266  12.219   3.826  11.621
13199W        W86267  16.753   5.378   1.940
13200W        W86268  21.727  27.969  13.762
13201W        W86269  10.621  16.283   1.224
13202W        W86270  25.780   6.164   4.424
13203W        W86271  42.494  42.755   2.649
13204W        W86272  22.848  11.743   0.197
13205W        W86273  33.892   8.673   4.607
13206W        W86274  40.459  33.500  13.026
13207W        W86275   6.848  40.042   3.105
13208W        W86276   3.799  17.845  13.856
13209W        W86277  21.616  37.605   1.367
13210W        W86278  37.370  19.809   4.059
13211W        W86279  23.150   3.887  13.901
13212W        W86280  18.532   4.375   0.379
13213W        W86281   6.246  31.252  12.116
13214W        W86282  24.879  38.925  12.932
13215W        W86283  11.629  10.198   1.882
13216W        W86284  16.557  32.163   4.298
13217W        W86285  16.111   0.725  12.651
13218W        W86286  20.473  36.841   1.694
13219W        W86287  37.369  28.521  14.344
13220W        W86288  36.361  11.254  13.139
13221W        W86289  22.617  25.714   1.248
13222W        W86290  23.498   7.624  13.800
13223W        W86291  12.587  35.373  14.369
13224W        W86292  32.555   0.279   1.678
13225W        W86293   8.564  34.658  11.118
13226W        W86294   4.159   3.816  11.156
13227W        W86295   5.189  30.396   0.451
13228W        W86296   2.765  31.961  13.771
13229W        W86297  38.379   3.936  14.400
13230W        W86298  11.832  27.531   0.901
13231W        W86299  22.753  33.406   3.378
13232W        W86300  44.376   5.528   4.902
13233W        W86301  17.731  12.597  13.033
13234W        W86302  27.472  42.903  14.316
13235W        W86303  14.567  39.474  11.096
13236W        W86304   3.382  36.363   3.391
13237W        W86305  26.628  38.122  14.786
13238W        W86306   5.521  29.053   2.827
13239W        W86307  33.072  44.676  14.215
13240W        W86308   1.038  44.470   1.851
13241W        W86309  43.557  37.440  13.977
13242W        W86310   0.748  35.241   1.852
13243W        W86311  18.704  11.406  13.325
13244W        W86312  15.219  37.842  14.898
13245W        W86313   2.458  23.183  11.138
13246W        W86314  28.214  39.768   4.238
13247W        W86315  13.005  42.903   4.686
13248W        W86316  37.025   1.972   2.316
13249W        W86317   1.762  44.092  13.377
13250W        W86318  39.932   8.972   3.190
13251W        W86319  25.561  10.103  14.865
13252W        W86320  24.792  40.503  11.982
13253W        W86321  39.398  15.601   2.548
13254W        W86322  24.540  20.656   2.571
13255W        W86323  33.818  11.256  12.438
13256W        W86324   6.066  42.875  11.068
13257W        W86325  16.324   6.497  12.937
13258W        W86326  12.819   8.187   0.936
13259W        W86327  34.552  21.677  14.769
13260W        W86328  43.269  20.223   0.951
13261W        W86329  43.487   8.215  11.978
13262W        W86330  33.678  39.983   2.271
13263W        W86331  34.650  27.425   3.440
13264W        W86332   4.546   4.858  11.096
13265W        W86333   1.456  11.881  12.924
13266W        W86334  41.937  23.100   1.942
13267W        W86335  34.132  22.742  11.101
13268W        W86336  19.308   7.453   4.084
13269W        W86337  11.847  30.913   1.298
13270W        W86338  22.214  30.653  13.869
13271W        W86339  43.674  20.288   3.769
13272W        W86340  16.354  38.433   4.567
13273W        W86341  32.239  43.906  14.426
13274W        W86342  22.965   8.306   0.968
13275W        W86343   8.822  38.464   3.317
13276W        W86344  26.009  14.960  11.914
13277W        W86345   9.763  12.428  14.838
13278W        W86346  31.449  37.541   2.548
13279W        W86347   2.364  14.151   0.702
13280W        W86348  44.366  38.595   1.642
13281W        W86349  42.335  24.054   4.829
13282W        W86350  14.526  29.916   3.267
13283W        W86351   6.656  11.842   3.188
13284W        W86352  10.989   8.915  14.085
13285W        W86353  39.825   2.257  12.160
13286W        W86354  19.962  44.494   3.138
13287W        W86355  18.423   5.257   1.241
13288W        W86356   3.286   3.757  12.045
13289W        W86357  38.615   3.082  11.220
13290W        W86358  28.600  16.255   0.938
13291W        W86359   6.960  17.972   0.892
13292W        W86360  26.633   3.211   3.160
13293W        W86361  26.189  16.668  13.975
13294W        W86362   2.384  10.378  11.995
13295W        W86363  35.137  33.240   2.605
13296W        W86364  33.653  13.533  12.626
13297W        W86365   4.903  30.809   2.460
13298W        W86366  30.913  25.888  14.354
13299W        W86367  20.524   9.728  14.771
13300W        W86368  26.535  17.810  13.013
13301W        W86369  35.248  38.800  14.216
13302W        W86370   1.435  36.241  10.699
13303W        W86371  33.943  23.453  13.619
13304W        W86372   1.862  40.097  14.476
13305W        W86373  17.477  13.129   3.281
13306W        W86374   9.556  44.302   2.416
13307W        W86375  37.016  38.699  11.689
13308W        W86376   1.298  13.114  11.060
13309W        W86377  17.671  15.241   1.228
13310W        W86378  36.319  38.949  10.920
13311W        W86379  14.908   8.262  14.971
13312W        W86380   4.783  43.020   0.495
13313W        W86381   1.413  31.331   0.814
13314W        W86382  38.513   6.849   4.781
13315W        W86383  44.889  41.070   4.985
13316W        W86384  26.770  17.602   2.214
13317W        W86385  13.326  39.772  13.893
13318W        W86386  20.635  27.478   2.398
13319W        W86387  19.313  41.629  12.749
13320W        W86388  37.837  41.367   2.909
13321W        W86389  21.265  41.315  13.320
13322W        W86390  12.785   9.636   2.893
13323W        W86391  16.378  16.972  14.532
13324W        W86392  37.338  18.509   2.766
13325W        W86393  10.471   3.200  12.418
13326W        W86394  28.096  41.737  14.860
13327W        W86395  42.618   8.125   3.305
13328W        W86396  43.011  25.417   2.730
13329W        W86397  32.167   5.218   3.408
13330W        W86398   3.601   4.128  14.427
13331W        W86399  26.143  40.666  13.433
13332W        W86400  19.801  34.316  13.716
13333W        W86401  11.469   5.392  11.137
13334W        W86402  25.897  28.200   4.893
13335W        W86403  14.317  31.834  14.322
13336W        W86404  27.144  29.165  14.823
13337W        W86405  27.218   4.869  12.015
13338W        W86406   7.192   3.675   1.431
13339W        W86407  18.574   9.948   1.360
13340W        W86408  36.185  41.313   1.349
13341W        W86409  18.978  38.891   2.216
13342W        W86410  31.318  34.688   2.527
13343W        W86411  15.736  39.920   4.246
13344W        W86412  25.829  41.825   1.042
13345W        W86413   7.942  41.402  12.822
13346W        W86414  24.333  42.736   2.744
13347W        W86415  31.025   8.214   3.793
13348W        W86416   7.213   0.019  10.703
13349W        W86417  14.810   3.950  13.348
13350W        W86418  37.290   3.660   0.465
13351W        W86419  38.492   7.277   1.257
13352W        W86420  33.524   8.466   0.934
13353W        W86421  43.446  41.325  11.635
13354W        W86422  12.230  27.498  12.547
13355W        W86423   7.846  27.673  14.807
13356W        W86424  25.520  13.401  14.623
13357W        W86425  21.151   6.153  10.667
13358W        W86426  17.527  16.199  13.340
13359W        W86427  22.130   7.312  10.758
13360W        W86428   2.845  38.337  10.681
13361W        W86429   8.900  37.335   4.638
13362W        W86430  26.212   1.364   1.663
13363W        W86431   2.820   8.444  10.664
13364W        W86432  42.883  19.516   3.206
13365W        W86433  11.908   0.497  12.966
13366W        W86434  20.055  16.804  12.328
13367W        W86435  36.359   4.105  14.946
13368W        W86436   4.171  16.557   2.912
13369W        W86437  42.300  20.677  14.355
13370W        W86438   1.462  14.051   3.517
13371W        W86439  41.884  22.260   2.380
13372W        W86440  35.865  25.406  13.410
13373W        W86441  42.796   8.698  14.361
13374W        W86442   3.980  22.148   1.277
13375W        W86443   4.179  29.715  13.022
13376W        W86444  11.627  42.123  11.627
13377W        W86445  16.138  40.019  14.412
13378W        W86446  12.870  32.038   3.763
13379W        W86447  20.260  19.651  12.650
13380W        W86448  17.044  16.118   2.598
13381W        W86449  22.809  20.974   2.478
13382W        W86450  16.876  23.693   2.791
13383W        W86451  17.964  25.227   1.721
13384W        W86452  32.043   1.992   0.774
13385W        W86453  33.622  40.503   2.274
13386W        W86454  19.410  16.765  11.390
13387W        W86455  19.713   8.593  13.398
13388W        W86456  39.372   7.324  11.552
13389W        W86457  16.276   9.853   3.641
13390W        W86458  12.781  31.956  13.509
13391W        W86459   8.635  28.581  13.515
13392W        W86460  27.566  27.518  11.980
13393W        W86461  20.689   9.059   4.601
13394W        W86462  14.322   2.343   3.122
13395W        W86463   9.361  20.783   0.776
13396W        W86464  31.830  22.856  12.104
13397W        W86465   1.408  38.156   2.725
13398W        W86466  18.003  43.785   3.762
13399W        W86467  42.531  27.485  10.715
13400W        W86468  24.900  14.243   1.679
13401W        W86469  39.882  29.998  11.580
13402W        W86470  13.379   0.980  14.401
13403W        W86471  27.230  17.558  12.040
13404W        W86472  16.907   4.863   3.174
13405W        W86473  25.273  33.164  12.449
13406W        W86474   7.754  12.898  14.241
13407W        W86475  30.188  37.940   2.927
13408W        W86476  34.503  12.737   1.237
13409W        W86477  36.605  30.647  12.388
13410W        W86478  34.640   9.763  13.496
13411W        W86479  10.046  32.526  12.040
13412W        W86480   4.817  13.707   3.193
13413W        W86481  31.911  24.461   0.168
13414W        W86482  28.519  27.894   3.165
13415W        W86483  10.155   4.476  14.919
13416W        W86484  43.176  26.527   4.143
13417W        W86485   4.300  17.485   1.802
13418W        W86486   5.119   4.342  12.081
13419W        W86487   7.405  23.943   1.809
13420W        W86488  30.916   6.145   4.703
13421W        W86489   6.963   4.490  12.063
13422W        W86490  44.355  23.964  13.387
13423W        W86491  15.297   7.992  14.434
13424W        W86492  38.549  36.849  10.690
13425W        W86493  41.066  30.342  11.080
13426W        W86494  38.398  10.127  13.910
13427W        W86495  32.194  20.493   3.205
13428W        W86496  43.688  34.840  12.539
13429W        W86497  11.585  19.658  11.379
13430W        W86498  41.449  35.959   1.756
13431W        W86499   6.819  36.437  10.760
13432W        W86500  30.666  13.055   2.348
13433W        W86501  32.115  35.550   2.810
13434W        W86502  43.877  29.379  13.842
13435W        W86503  36.407  44.421   0.811
13436W        W86504  12.263  40.744   3.077
13437W        W86505  14.844  12.330   1.201
13438W        W86506  13.681  12.223  13.007
13439W        W86507  11.825  28.703  10.649
13440W        W86508   1.236  29.551   1.632
13441W        W86509   8.579  24.025   4.480
13442W        W86510  21.061   7.206  14.448
13443W        W86511  17.776  30.045   2.280
13444W        W86512   4.970   1.175   1.950
13445W        W86513  25.725  32.105  12.513
13446W        W86514  10.136  40.570  13.481
13447W        W86515  12.772  35.091  14.768
13448W        W86516  31.178   9.657  11.038
13449W        W86517  41.549  33.061  13.860
13450W        W86518  34.266  14.076   1.871
13451W        W86519   2.387  31.089  12.067
13452W        W86520  13.902  20.987  13.972
13453W        W86521  40.869  23.054   4.702
13454W        W86522  22.089  38.429  12.093
13455W        W86523  23.697   3.879  13.838
13456W        W86524  20.330  27.923   0.653
13457W        W86525  33.377  38.922   1.966
13458W        W86526  39.929  40.940   2.841
13459W        W86527   3.362  18.083  13.921
13460W        W86528  20.116  15.108  10.720
13461W        W86529  29.036  43.253   0.651
13462W        W86530   9.176  40.955   3.243
13463W        W86531   0.460  22.477  13.052
13464W        W86532  17.096   1.792   4.936
13465W        W86533   5.926  35.629  14.136
13466W        W86534  30.718  36.038  11.402
13467W        W86535  31.899   5.229   0.723
13468W        W86536  38.142   5.697   1.327
13469W        W86537   9.880   0.496   2.819
13470W        W86538  17.747  20.210  10.762
13471W        W86539  33.283  26.362   0.780
13472W        W86540  34.554  44.571   1.218
13473W        W86541   6.399  18.012  14.650
13474W        W86542  29.139  31.402  14.969
13475W        W86543  35.807  38.343  12.029
13476W        W86544  30.086  25.082   3.060
13477W        W86545  21.741  10.698   2.614
13478W        W86546  19.622  24.469  14.056
13479W        W86547   0.961  27.187   1.859
13480W        W86548  44.918   4.906   0.757
13481W        W86549  31.211  27.031   1.318
13482W        W86550   1.417  35.965  11.439
13483W        W86551   8.755   1.427   4.552
13484W        W86552  36.886  22.117   2.661
13485W        W86553  28.495  21.533   1.380
13486W        W86554   8.745  16.073  13.013
13487W        W86555  34.586  29.150   2.782
13488W        W86556  28.197   8.275  10.381
13489W        W86557   3.969  10.849   4.073
13490W        W86558  10.895  43.363  14.255
13491W        W86559   8.709  25.768  13.967
13492W        W86560   6.639  37.842   5.193
13493W        W86561  24.185  21.235   0.275
13494W        W86562  12.505   7.807  12.083
13495W        W86563  14.603  12.697  13.046
13496W        W86564  23.744  10.699   3.102
13497W        W86565   4.200  18.770  11.054
13498W        W86566   1.935  15.197   5.092
13499W        W86567  36.892  25.921  12.399
13500W        W86568   1.039  29.634   4.649
13501W        W86569  11.279  32.080  14.807
13502W        W86570   9.655   3.191   0.011
13503W        W86571  22.271  11.978   2.448
13504W        W86572  36.984   1.185   0.244
13505W        W86573  19.113  33.414  11.850
13506W        W86574  25.533   2.438   1.268
13507W        W86575   4.395  29.446  12.650
13508W        W86576  20.803  26.415   2.742
13509W        W86577   3.696   5.344   3.980
13510W        W86578   1.641  15.091  10.995
13511W        W86579  10.260  11.140  12.002
13512W        W86580  37.798   3.958   4.522
13513W        W86581   3.947   0.812   0.836
13514W        W86582  20.860  29.941   4.158
13515W        W86583   2.903  21.740  13.436
13516W        W86584  43.126  25.460   3.241
13517W        W86585  11.203   1.232   4.569
13518W        W86586  34.336  31.062  12.115
13519W        W86587  28.621  43.341   1.769
13520W        W86588   0.426  10.320  13.313
13521W        W86589   5.234  22.000  12.595
13522W        W86590  40.481  11.684   4.646
13523W        W86591  42.582  14.144   2.822
13524W        W86592  16.733  30.275  12.950
13525W        W86593  28.944   5.791   0.781
13526W        W86594   4.367  35.544   2.344
13527W        W86595  25.638  43.693  14.312
13528W        W86596  13.394  28.046  12.039
13529W        W86597  31.905  31.698  11.995
13530W        W86598  12.267   8.692   3.778
13531W        W86599  40.128  32.029  10.922
13532W        W86600  10.414   6.897  13.341
13533W        W86601  38.542  15.558   1.946
13534W        W86602  38.765  40.044  14.471
13535W        W86603  39.743  21.852   1.990
13536W        W86604  15.097  13.469  12.099
13537W        W86605  13.583  13.347   4.599
13538W        W86606  10.835  37.439   1.350
13539W        W86607  27.422  43.804   0.294
13540W        W86608  20.047   3.406  13.284
13541W        W86609  22.158  10.519   3.686
13542W        W86610   1.317  11.599  11.017
13543W        W86611   2.918  26.594   1.874
13544W        W86612   3.575  30.221   1.465
13545W        W86613   7.871   3.816   3.874
13546W        W86614  14.640  38.900  13.030
13547W        W86615   9.809  37.247  10.113
13548W        W86616  42.272  36.546  13.452
13549W        W86617  20.177  28.964   2.388
13550W        W86618   1.045  32.731  10.652
13551W        W86619  33.165  33.660   0.323
13552W        W86620  34.536  29.389   0.765
13553W        W86621   6.855  22.781  14.134
13554W        W86622  20.081  13.415   3.192
13555W        W86623  37.849   1.219  11.991
13556W        W86624  24.409   2.754  11.412
13557W        W86625  26.509   6.452  10.711
13558W        W86626   3.660  40.884  14.379
13559W        W86627  34.766   1.350   0.662
13560W        W86628  39.429  42.029  11.405
13561W        W86629  41.457   3.894  13.574
13562W        W86630  10.217   7.982   4.626
13563W        W86631  20.591  25.101   1.681
13564W        W86632   7.322  28.637  11.546
13565W        W86633  24.026  44.263   0.937
13566W        W86634  21.010  39.056  11.967
13567W        W86635  16.136  21.640  14.507
13568W        W86636   6.717  23.019   0.452
13569W        W86637   8.649  14.465  12.043
13570W        W86638   1.822  44.816  14.881
13571W        W86639  37.781   0.327   4.502
13572W        W86640  34.106   3.326  12.945
13573W        W86641  19.552   0.157   4.226
13574W        W86642  18.803   3.939  14.408
13575W        W86643  44.314   9.800  10.738
13576W        W86644  25.617  35.552  10.770
13577W        W86645  37.474   4.909  13.368
13578W        W86646   2.760  32.012   2.261
13579W        W86647  32.674   5.099  10.672
13580W        W86648   4.035  23.973  14.309
13581W        W86649  27.730  14.266  12.977
13582W        W86650  38.911  31.445  14.997
13583W        W86651   2.812  23.135   3.739
13584W        W86652  35.885   1.955   0.649
13585W        W86653   8.258   5.875  12.376
13586W        W86654  19.998  21.181  14.475
13587W        W86655  26.682  37.423  13.493
13588W        W86656  14.374  21.672   1.277
13589W        W86657   2.847  25.493   4.349
13590W        W86658  38.941  39.159  14.581
13591W        W86659  23.211  23.287  11.211
13592W        W86660  33.486  17.224  10.387
13593W        W86661  33.062  36.437  13.125
13594W        W86662  41.128  14.606   0.352
13595W        W86663   6.632  30.828  12.984
13596W        W86664   4.408  37.943   3.729
13597W        W86665  32.494  15.732   0.539
13598W        W86666   3.959  13.852   4.964
13599W        W86667  23.993   5.705   1.148
13600W        W86668  34.435  21.235  11.196
13601W        W86669  29.489  35.974  13.625
13602W        W86670  40.764  24.687  12.903
13603W        W86671  39.387   6.811  10.637
13604W        W86672   1.407  42.910  13.994
13605W        W86673  11.830  18.600   1.444
13606W        W86674  40.988  23.130  14.897
13607W        W86675  17.756  29.957  11.191
13608W        W86676  14.587   9.378   1.855
13609W        W86677  18.620  28.179   3.192
13610W        W86678  40.011   8.813  14.962
13611W        W86679  41.535  18.565   0.047
13612W        W86680   8.961  30.136  12.494
13613W        W86681   7.081   3.691   3.593
13614W        W86682  24.490  34.058  14.216
13615W        W86683  34.136  33.075   3.694
13616W        W86684  10.826  28.456   4.107
13617W        W86685  32.387  27.995   1.232
13618W        W86686  37.828   3.333   3.859
13619W        W86687  21.028  13.906  12.595
13620W        W86688  32.554  20.089  14.502
13621W        W86689  41.947  25.087   4.867
13622W        W86690  33.505   9.163   2.237
13623W        W86691  16.779  42.472  13.008
13624W        W86692  20.798  17.311   3.345
13625W        W86693  20.964  39.786   3.065
13626W        W86694  15.571  33.415  10.665
13627W        W86695  27.245  17.357  11.210
13628W        W86696  14.085   7.756   4.198
13629W        W86697  37.638  11.571  12.456
13630W        W86698  13.139  17.591  14.360
13631W        W86699  26.487   4.130  10.072
13632W        W86700  15.633  35.029   3.459
13633W        W86701  19.035  10.297  10.719
13634W        W86702  42.504  21.303  13.733
13635W        W86703  15.194  31.005  13.423
13636W        W86704  22.633  22.292   3.654
13637W        W86705  13.728  35.986  11.076
13638W        W86706  17.146  20.341   9.863
13639W        W86707  40.902  18.994   0.675
13640W        W86708  21.679  39.555  13.273
13641W        W86709  44.681  39.874   0.783
13642W        W86710   5.755  41.858   2.735
13643W        W86711  39.295   5.105  12.172
13644W        W86712  23.959  35.080  11.762
13645W        W86713  21.815  43.768  14.322
13646W        W86714   7.852  38.058   5.072
13647W        W86715  40.631  26.090   1.672
13648W        W86716  27.205  16.425   2.828
13649W        W86717  13.027  29.509   0.722
13650W        W86718   1.224  34.610  12.048
13651W        W86719   5.478  10.758   2.380
13652W        W86720  21.469  26.094  13.077
13653W        W86721   4.448  30.417  11.669
13654W        W86722  13.715  31.038  10.662
13655W        W86723  40.816  43.533   0.725
13656W        W86724   0.800  19.613   3.422
13657W        W86725  17.922   5.860   1.755
13658W        W86726  26.077  36.457   4.558
13659W        W86727  27.140  41.434  11.572
13660W        W86728   5.534  38.252   3.165
13661W        W86729  19.301  13.710  13.115
13662W        W86730  33.174   0.249  11.028
13663W        W86731  18.623  31.123  12.073
13664W        W86732   3.897  39.819  14.879
13665W        W86733  16.617  38.494  10.686
13666W        W86734   0.030  11.914  12.987
13667W        W86735  14.436  42.134  12.550
13668W        W86736  37.423  28.663  11.966
13669W        W86737   3.402  17.374  11.565
13670W        W86738  29.501  21.160  13.542
13671W        W86739   9.949  42.034   0.333
13672W        W86740  23.254  20.073   2.065
13673W        W86741  39.943  15.302   5.383
13674W        W86742  39.560  30.620   2.196
13675W        W86743  18.262  26.919   0.212
13676W        W86744  40.465   6.664   2.480
13677W        W86745  19.814  16.348   4.519
13678W        W86746  22.644  11.993   1.028
13679W        W86747  19.819  44.403  12.518
13680W        W86748  12.701  43.955  10.573
13681W        W86749  11.833  20.542  13.453
13682W        W86750  18.653  20.771   3.321
13683W        W86751  19.981  15.082   3.665
13684W        W86752  23.572  23.572   4.109
13685W        W86753  12.380  36.727   0.448
13686W        W86754  42.976  12.725   3.737
13687W        W86755   1.980  23.049   1.276
13688W        W86756  31.360  12.278  13.057
13689W        W86757  38.998   0.266  11.645
13690W        W86758  21.653  31.089  14.890
13691W        W86759  19.693  32.061   4.589
13692W        W86760  27.300   1.874   1.815
13693W        W86761  15.758  21.310   3.391
13694W        W86762  30.565  39.420  12.621
13695W        W86763  24.183   0.874   0.958
13696W        W86764  37.700  25.982  11.928
13697W        W86765  44.750  44.303   2.249
13698W        W86766  12.153  32.497  12.120
13699W        W86767   4.996   2.154  11.209
13700W        W86768  21.182  15.182   3.606
13701W        W86769  31.326  35.912  12.590
13702W        W86770  14.247  39.901  11.178
13703W        W86771  16.325  23.741   0.418
13704W        W86772   6.250  40.545  11.521
13705W        W86773  12.027   7.271   0.063
13706W        W86774  43.548   5.983   0.593
13707W        W86775  41.546  18.330   3.723
13708W        W86776  33.590   1.549  10.906
13709W        W86777  18.546  11.525   2.153
13710W        W86778  23.415   4.227   2.626
13711W        W86779  32.859  28.490  12.174
13712W        W86780  16.577  33.699  13.027
13713W        W86781   9.790  16.617   1.353
13714W        W86782  37.489   6.687  13.983
13715W        W86783  12.822  40.042   3.738
13716W        W86784  44.305  20.216  10.467
13717W        W86785  18.109  10.132  13.017
13718W        W86786   8.898  37.566  12.372
13719W        W86787  38.039  11.602   2.439
13720W        W86788  12.122  24.497  14.387
13721W        W86789   1.700  33.354   3.807
13722W        W86790  36.031  21.974  11.122
13723W        W86791  16.698   5.921  10.384
13724W        W86792  32.628  26.646  13.507
13725W        W86793   5.789  25.091   3.765
13726W        W86794  20.980  29.172  12.730
13727W        W86795  16.811   1.725   3.613
13728W        W86796  36.415  16.834  14.340
13729W        W86797  25.048   3.498   2.458
13730W        W86798  17.598   7.266   1.703
13731W        W86799  36.801  19.700  13.162
13732W        W86800  31.424  17.891  13.438
13733W        W86801  19.852  30.156   4.265
13734W        W86802  20.373  39.482   3.652
13735W        W86803  40.840  19.002  10.700
13736W        W86804  17.256  39.398   4.677
13737W        W86805   6.335  13.655   4.481
13738W        W86806   8.934  15.052  12.994
13739W        W86807  25.806  14.710   1.393
13740W        W86808  44.953  10.731  11.918
13741W        W86809  42.782  25.148  13.306
13742W        W86810  19.092  12.756  11.662
13743W        W86811   3.652  28.154  14.391
13744W        W86812  22.611   5.759  13.796
13745W        W86813  15.342  12.292  12.874
13746W        W86814  19.275  13.259   4.770
13747W        W86815   2.408  30.436  12.430
13748W        W86816  31.189   0.123   1.253
13749W        W86817   5.243  41.830  12.077
13750W        W86818  34.847  19.299  11.553
13751W        W86819   5.455  42.288  11.970
13752W        W86820   3.999  19.153   4.423
13753W        W86821  17.576   9.629   3.271
13754W        W86822  12.621   8.694  13.516
13755W        W86823  38.540  36.581  11.569
13756W        W86824  24.182   6.305  13.904
13757W        W86825   4.811  14.033  14.536
13758W        W86826  19.596  23.468   3.809
13759W        W86827  17.035  23.354  14.913
13760W        W86828  23.233   8.261  13.504
13761W        W86829   9.750  13.210  13.011
13762W        W86830   0.575  18.661   3.831
13763W        W86831  33.339  26.455  14.499
13764W        W86832  25.985  29.646   1.467
13765W        W86833  44.421  42.367  11.720
13766W        W86834   0.237   3.018   1.348
13767W        W86835  36.540  14.430   0.551
13768W        W86836  17.655  15.728   2.344
13769W        W86837  14.510  40.529  10.699
13770W        W86838   7.287  14.528   0.795
13771W        W86839  25.936  30.107  11.182
13772W        W86840  13.114  15.250   2.830
13773W        W86841   3.276  28.519  14.320
13774W        W86842  42.979   7.174  13.976
13775W        W86843   4.672   0.048   3.690
13776W        W86844   8.529  17.807   1.983
13777W        W86845   5.467  34.183   1.218
13778W        W86846  34.811  11.273  13.521
13779W        W86847  30.674  38.102  13.415
13780W        W86848  27.134  19.837   2.417
13781W        W86849  21.562  27.277   2.361
13782W        W86850   3.400  39.605   4.829
13783W        W86851  41.319  22.149   3.902
13784W        W86852   6.383  33.977  12.148
13785W        W86853  29.888   7.512  13.087
13786W        W86854  16.997  17.308   9.745
13787W        W86855  31.138   5.775   1.003
13788W        W86856  17.869  23.034   1.308
13789W        W86857  13.628   5.230   3.875
13790W        W86858  29.161  40.047   1.211
13791W        W86859  10.906  28.038  13.621
13792W        W86860  31.279  32.479  11.193
13793W        W86861  28.637  21.120  14.768
13794W        W86862   6.872  38.061   4.720
13795W        W86863  11.795   5.309   0.026
13796W        W86864  17.749   5.449  12.441
13797W        W86865  36.928  12.072   4.690
13798W        W86866   3.970  42.859   3.676
13799W        W86867  27.405  31.505  11.361
13800W        W86868   9.288  34.590  14.843
13801W        W86869   8.240   8.814   3.616
13802W        W86870  35.507  10.382  10.865
13803W        W86871  41.574  13.365   1.741
13804W        W86872  40.759  23.640   3.752
13805W        W86873  43.710   6.954  13.752
13806W        W86874   1.354   9.167   0.527
13807W        W86875  39.756  18.754  12.901
13808W        W86876  40.870  13.141   4.079
13809W        W86877  35.896  16.893  14.406
13810W        W86878  14.547  11.948  13.531
13811W        W86879   2.245  28.611   0.351
13812W        W86880   6.348   0.100  14.855
13813W        W86881  42.657  26.439   5.302
13814W        W86882  20.096  36.151  10.145
13815W        W86883  23.628  32.707  10.546
13816W        W86884  25.048  11.311  13.196
13817W        W86885  23.040  42.848  12.850
13818W        W86886  23.618  11.102   1.158
13819W        W86887  10.948  31.111  12.928
13820W        W86888  36.055  39.257  12.844
13821W        W86889  28.943  24.417  14.047
13822W        W86890  19.592  36.483  14.347
13823W        W86891  32.912  20.717   3.814
13824W        W86892  27.057  14.563   1.900
13825W        W86893   2.984  14.272   2.255
13826W        W86894  10.436   9.383   1.183
13827W        W86895  20.680  30.631   4.672
13828W        W86896  28.175  27.020   3.578
13829W        W86897  37.009  41.674  13.331
13830W        W86898  12.346  29.359  11.120
13831W        W86899   8.275  35.602   3.854
13832W        W86900  24.721  31.746   3.288
13833W        W86901  43.078  14.740   2.350
13834W        W86902  42.073   6.557  10.290
13835W        W86903  16.204  37.640  12.945
13836W        W86904   4.930  44.805  11.159
13837W        W86905  41.485  17.671  14.534
13838W        W86906  28.919  42.026   4.075
13839W        W86907  14.362  27.444   3.409
13840W        W86908  37.640  42.421   0.420
13841W        W86909  27.894  22.769  13.484
13842W        W86910  40.496  24.048  14.002
13843W        W86911  31.367  13.872   3.748
13844W        W86912  15.705  21.178   2.897
13845W        W86913   0.899  16.200  14.567
13846W        W86914  16.777  15.212   3.305
13847W        W86915  22.075  16.201   2.134
13848W        W86916  43.693   8.686  10.897
13849W        W86917  38.995  15.033  12.069
13850W        W86918  21.601  32.352  14.385
13851W        W86919  28.547  33.124  10.686
13852W        W86920  38.557  26.636  13.936
13853W        W86921   8.720   7.692   2.953
13854W        W86922  25.614  26.444   0.830
13855W        W86923   7.262  34.700  13.570
13856W        W86924  13.671  39.479  12.802
13857W        W86925  13.036  42.132   1.821
13858W        W86926  38.098  26.573   4.235
13859W        W86927  35.116  17.588  12.970
13860W        W86928   0.876  12.067   2.311
13861W        W86929  23.649  13.168  11.965
13862W        W86930  22.848  43.198   4.380
13863W        W86931   7.189  23.681  11.546
13864W        W86932   1.096  17.791  11.576
13865W        W86933  22.040  29.692   4.738
13866W        W86934  18.164   1.270   4.239
13867W        W86935   4.854  44.102  14.023
13868W        W86936  27.961  22.680  14.993
13869W        W86937  12.666  43.457   1.778
13870W        W86938  26.954   8.275  14.749
13871W        W86939  23.706  35.925  10.366
13872W        W86940  29.094  35.257  12.284
13873W        W86941   4.392  33.660  11.162
13874W        W86942   1.982  15.670   1.618
13875W        W86943  43.434  39.972  10.685
13876W        W86944  25.946   1.315   0.154
13877W        W86945  38.598  12.133   1.283
13878W        W86946  19.235  24.546  14.935
13879W        W86947   8.133  39.378   1.055
13880W        W86948   1.713  32.933  14.137
13881W        W86949   9.337  43.402   3.322
13882W        W86950  23.354  34.775   2.469
13883W        W86951   2.665  36.079   3.623
13884W        W86952  10.347   1.595  10.249
13885W        W86953   8.459  39.612   0.714
13886W        W86954   9.753   5.426  14.276
13887W        W86955   2.315  42.212   2.922
13888W        W86956  29.996  18.745   4.786
13889W        W86957  28.669  36.949   1.926
13890W        W86958  27.424  12.879  14.213
13891W        W86959  38.602  24.527  14.971
13892W        W86960  18.053  36.062   1.774
13893W        W86961  11.806  43.301   0.405
13894W        W86962  42.081  35.267  11.020
13895W        W86963  20.063  25.319  10.317
13896W        W86964  27.266   3.486   0.300
13897W        W86965   9.285  15.019   5.049
13898W        W86966  13.100  20.802  14.500
13899W        W86967   1.220  16.632  12.450
13900W        W86968  26.511  11.722   1.415
13901W        W86969  27.655   4.964   2.263
13902W        W86970  10.285  40.244   4.980
13903W        W86971  38.404  27.659  11.171
13904W        W86972  24.555  23.545   0.550
13905W        W86973  18.614  13.214   1.267
13906W        W86974  25.511  42.736   0.265
13907W        W86975   1.221  23.465  11.514
13908W        W86976   1.111   9.388  13.970
13909W        W86977  32.024  17.730   3.725
13910W        W86978  29.420  41.970  12.230
13911W        W86979  40.580  39.444  11.936
13912W        W86980  33.471  34.336  13.378
13913W        W86981  20.985  25.615  14.021
13914W        W86982   0.348  28.187   3.692
13915W        W86983  24.307   9.552   3.837
13916W        W86984  31.215  19.360   1.688
13917W        W86985   1.394  35.590  12.709
13918W        W86986  36.553   5.408  13.572
13919W        W86987  20.242  18.609  13.602
13920W        W86988  14.887   4.511   0.313
13921W        W86989  31.094  38.775   1.276
13922W        W86990   6.924  31.292   1.403
13923W        W86991  40.564  39.692  10.703
13924W        W86992  19.084  17.254  14.385
13925W        W86993   1.438  19.059   0.526
13926W        W86994  18.608  11.949  13.415
13927W        W86995  28.683  11.170   3.587
13928W        W86996   5.717  12.130  11.168
13929W        W86997  14.824  12.178   4.117
13930W        W86998  35.402  28.600  13.022
13931W        W86999  36.641  34.172  14.005
13932W        W87000  23.591  35.345  12.007
13933W        W87001  15.289  11.647   3.357
13934W        W87002  36.506  22.605  14.032
13935W        W87003  34.041   1.267   2.548
13936W        W87004   8.702  36.923   4.386
13937W        W87005   8.991  12.106  12.387
13938W        W87006   1.785  37.439   4.679
13939W        W87007   4.845  44.342  12.625
13940W        W87008  31.755   0.176   4.811
13941W        W87009   9.116  33.375   0.305
13942W        W87010  38.637  33.484  12.942
13943W        W87011  25.581  17.255  12.101
13944W        W87012  37.919  43.611  11.009
13945W        W87013  19.761   0.999  13.517
13946W        W87014  26.056   8.818  12.165
13947W        W87015  37.962  15.603   3.177
13948W        W87016  25.163  24.369  13.318
13949W        W87017  42.587  38.311   0.467
13950W        W87018  13.711  28.007  13.080
13951W        W87019  15.281  21.494   2.718
13952W        W87020   0.226   2.934  14.494
13953W        W87021  21.631  43.283  11.046
13954W        W87022  11.387   9.828  10.628
13955W        W87023  18.417   5.940   1.826
13956W        W87024  34.085   4.792  13.228
13957W        W87025  28.511  12.795   0.912
13958W        W87026  13.373  14.854  14.676
13959W        W87027  33.434   1.403  11.819
13960W        W87028  18.104   7.207  12.509
13961W        W87029   9.644   6.325  10.614
13962W        W87030  14.366  28.037  10.523
13963W        W87031   5.413  35.816  10.522
13964W        W87032   1.286  28.949   3.239
13965W        W87033  40.392  30.219   3.657
13966W        W87034  30.624  41.047  14.384
13967W        W87035  38.627   2.498   2.192
13968W        W87036   2.266  44.339  13.403
13969W        W87037  15.505  36.945  12.127
13970W        W87038  23.259   9.243   2.677
13971W        W87039  16.619  15.118  14.452
13972W        W87040   7.723  27.217   0.016
13973W        W87041  34.518  38.071   0.336
13974W        W87042  28.132   2.421  10.673
13975W        W87043  33.475   5.600  14.198
13976W        W87044  25.183   7.967   0.704
13977W        W87045  42.012  10.856  10.595
13978W        W87046  29.254  30.070  10.772
13979W        W87047   6.877  44.238   4.102
13980W        W87048   1.798  34.129   3.264
13981W        W87049  19.035  42.358  11.100
13982W        W87050  27.121  37.129  13.297
13983W        W87051  35.359  30.529  13.013
13984W        W87052  19.205  14.256  10.682
13985W        W87053  42.354  41.442  14.837
13986W        W87054  15.150   6.714  11.106
13987W        W87055  36.090   2.464  11.617
13988W        W87056  32.138  13.471   0.399
13989W        W87057  29.669  44.471  13.750
13990W        W87058  16.203   5.796  10.601
13991W        W87059  43.283  13.213  12.943
13992W        W87060  16.605   0.179   1.874
13993W        W87061   6.539   5.381   1.197
13994W        W87062   9.828  28.063   2.380
13995W        W87063  41.548   7.751  10.627
13996W        W87064  18.006   9.423  10.630
13997W        W87065  40.404  33.369   3.274
13998W        W87066  35.887  27.393  11.987
13999W        W87067  33.027  41.010  13.685
14000W        W87068  22.963  28.361  10.687
14001W        W87069  21.995  34.697  14.162
14002W        W87070   0.439  30.015  11.616
14003W        W87071  12.578  24.943   2.632
14004W        W87072  13.069  10.162   3.719
14005W        W87073  10.400   9.690   3.879
14006W        W87074  26.135  22.850   0.792
14007W        W87075  15.218  28.722  12.872
14008W        W87076  11.956  34.019   1.363
14009W        W87077  25.200   7.424  12.989
14010W        W87078  30.239  42.400  14.635
14011W        W87079   7.849  35.397  14.309
14012W        W87080  23.603  32.857   2.363
14013W        W87081  12.256  18.232   5.104
14014W        W87082  12.775   1.642  12.182
14015W        W87083  27.904   5.889   0.558
14016W        W87084  12.465   0.539  10.999
14017W        W87085  14.532  33.597   2.190
14018W        W87086  43.458  24.892  12.510
14019W        W87087  29.466  40.870   0.340
14020W        W87088  14.348   3.219  12.477
14021W        W87089  36.029  34.649   3.347
14022W        W87090  20.167  29.444   2.131
14023W        W87091  12.241  26.936  14.240
14024W        W87092  32.451   3.094  12.482
14025W        W87093   5.726   3.952   3.615
14026W        W87094  13.856  31.534   0.201
14027W        W87095  28.108   2.463   2.994
14028W        W87096  12.793  39.920  11.579
14029W        W87097  44.808  28.482  12.935
14030W        W87098  16.186  37.340   0.971
14031W        W87099   9.256  30.065  11.542
14032W        W87100  35.587   5.314   0.323
14033W        W87101  36.645  14.544   3.697
14034W        W87102  36.345  42.020  14.892
14035W        W87103  17.673  37.029   4.528
14036W        W87104  23.276  15.631   5.146
14037W        W87105  39.547  16.034   9.521
14038W        W87106  24.642  17.339  14.741
14039W        W87107  42.484  11.725   0.934
14040W        W87108  32.424  22.417  13.930
14041W        W87109  13.881  39.405   2.333
14042W        W87110  35.053  21.550  14.739
14043W        W87111  18.324  16.373   2.276
14044W        W87112  21.703  37.896   4.626
14045W        W87113  14.073  19.946   3.927
14046W        W87114   1.428  31.769   4.322
14047W        W87115  25.843  16.193  12.776
14048W        W87116  42.482  33.969  14.372
14049W        W87117   2.047  44.524  11.123
14050W        W87118  43.778  24.448   2.380
14051W        W87119  17.959  39.950   0.943
14052W        W87120  32.658  25.573   1.571
14053W        W87121  30.602  44.122   3.201
14054W        W87122  39.031  28.186   1.707
14055W        W87123  36.984  38.751   2.728
14056W        W87124  41.121  12.710   1.143
14057W        W87125  19.920  28.315   3.667
14058W        W87126   1.400  31.642  11.609
14059W        W87127  37.449   4.169   0.283
14060W        W87128  43.389  39.765  12.458
14061W        W87129   1.754  41.371   3.570
14062W        W87130  23.346  17.503   4.795
14063W        W87131  44.586   2.798   2.112
14064W        W87132   0.808  19.036   4.735
14065W        W87133  39.485  18.326  12.832
14066W        W87134   0.579  22.675  12.161
14067W        W87135  13.666  39.868  12.445
14068W        W87136  26.194  27.156  14.407
14069W        W87137  27.873  20.003  14.901
14070W        W87138   3.715   0.471  14.067
14071W        W87139  34.539   8.783  12.991
14072W        W87140  28.873   6.745  13.968
14073W        W87141  39.055  14.531  12.093
14074W        W87142  30.931  13.099   1.378
14075W        W87143  22.795  24.994   2.363
14076W        W87144  16.715  14.866  10.704
14077W        W87145  16.261  23.539  13.608
14078W        W87146  14.578  42.247   1.347
14079W        W87147  29.405   7.813   3.970
14080W        W87148  26.083  18.061   0.528
14081W        W87149  37.076  30.933  13.893
14082W        W87150  42.163  24.859   5.322
14083W        W87151  18.011  26.914  12.094
14084W        W87152  13.706   8.755  13.144
14085W        W87153  16.402   9.536   4.015
14086W        W87154  40.942   0.030   3.242
14087W        W87155   9.282  39.265  14.088
14088W        W87156   5.820   4.272  14.040
14089W        W87157  37.542  10.655  11.951
14090W        W87158  33.488  35.867  14.413
14091W        W87159  37.957  29.427  13.725
14092W        W87160   7.171   0.335   0.416
14093W        W87161  28.721  19.460   1.631
14094W        W87162  35.442  12.603   2.778
14095W        W87163  32.820  32.439  14.957
14096W        W87164  11.738  28.669   4.287
14097W        W87165   9.683  20.664   4.141
14098W        W87166   1.431  11.907  12.033
14099W        W87167  42.409   8.253  11.408
14100W        W87168   5.948  43.283  10.718
14101W        W87169  39.721  36.096  14.558
14102W        W87170  34.855  35.970  13.929
14103W        W87171  12.701  23.806   4.100
14104W        W87172  31.121   1.393   4.187
14105W        W87173  38.039  22.243   0.449
14106W        W87174  14.919  16.310  11.060
14107W        W87175   6.451  14.310   0.328
14108W        W87176   4.246  35.195  12.524
14109W        W87177   1.359  21.864   0.877
14110W        W87178  42.549   0.832   1.349
14111W        W87179  23.980  36.000  11.712
14112W        W87180   9.661   7.905   2.894
14113W        W87181  20.322  35.444   1.295
14114W        W87182  43.230  25.135   0.286
14115W        W87183  35.953  24.158  11.865
14116W        W87184   9.818  31.352  13.365
14117W        W87185   8.339  35.812   4.318
14118W        W87186   2.758   3.625  13.319
14119W        W87187  41.482  16.218  13.004
14120W        W87188  16.903   6.346  10.169
14121W        W87189  10.030  30.718   4.967
14122W        W87190  42.725  16.214  12.560
14123W        W87191   2.151   0.794  11.610
14124W        W87192  10.130  10.627   0.007
14125W        W87193   6.230  39.863   3.737
14126W        W87194  30.989  10.246   3.722
14127W        W87195  16.310  39.424   0.733
14128W        W87196   7.239  33.887   0.694
14129W        W87197  26.531  19.739  13.907
14130W        W87198   5.752  43.793  11.858
14131W        W87199   4.459  40.808  12.430
14132W        W87200  39.469  30.238   2.817
14133W        W87201  17.404  10.492   5.049
14134W        W87202  27.112   9.993  13.836
14135W        W87203   2.932  43.559  14.021
14136W        W87204  26.190  14.640  14.303
14137W        W87205  20.246  17.492   0.079
14138W        W87206  36.090  21.032  14.009
14139W        W87207  43.855  31.537   1.954
14140W        W87208  30.232  13.254   3.332
14141W        W87209  19.601  37.484  12.149
14142W        W87210  35.448   0.484   1.304
14143W        W87211  28.374   1.908  13.443
14144W        W87212  14.790  18.018   4.503
14145W        W87213  27.646   6.329   0.809
14146W        W87214  25.149  20.462   4.164
14147W        W87215   4.414   1.890   1.290
14148W        W87216   4.486  24.151   1.709
14149W        W87217  20.728   3.049  13.820
14150W        W87218  29.606  42.737  13.902
14151W        W87219  12.132  31.021   4.825
14152W        W87220  32.171  18.144  14.473
14153W        W87221  33.352  21.535  13.629
14154W        W87222  31.180  14.177  10.700
14155W        W87223   1.063  30.490  12.816
14156W        W87224  10.451  44.859   3.623
14157W        W87225  12.652  24.402  14.805
14158W        W87226  28.952  38.285   4.775
14159W        W87227   6.022  29.501   4.041
14160W        W87228   1.407  25.763  14.834
14161W        W87229  36.935  27.843  12.154
14162W        W87230   4.673   7.923   1.383
14163W        W87231  14.120  40.810   0.281
14164W        W87232  36.619  31.671   3.373
14165W        W87233  29.992  44.698   3.791
14166W        W87234  40.211   4.440  13.465
14167W        W87235  17.284  43.472  12.126
14168W        W87236  32.869   2.262  13.975
14169W        W87237  38.810   6.238   5.444
14170W        W87238  14.883   3.281  14.356
14171W        W87239   8.825  23.667  10.695
14172W        W87240  11.186   8.187   2.332
14173W        W87241  24.626  22.130  12.541
14174W        W87242   3.524  32.171   1.998
14175W        W87243   1.905   2.269   1.641
14176W        W87244   4.295  41.300   1.046
14177W        W87245   2.839   2.823  11.604
14178W        W87246  36.841  28.646  13.193
14179W        W87247  37.418  22.670  12.439
14180W        W87248   2.331   2.932   0.012
14181W        W87249  21.693  31.545   4.457
14182W        W87250  40.785  33.381   0.744
14183W        W87251   8.725  38.474  12.322
14184W        W87252  41.555  36.459   2.823
14185W        W87253   5.551  13.372  11.713
14186W        W87254  27.276   8.920   0.109
14187W        W87255  10.464   4.933  12.476
14188W        W87256   1.877  19.569  14.750
14189W        W87257  20.708  28.783  11.798
14190W        W87258   7.804   7.837   1.928
14191W        W87259  36.616   5.936  14.873
14192W        W87260  37.376   5.708  10.749
14193W        W87261  16.605  37.623   4.054
14194W        W87262  26.282  31.050   0.260
14195W        W87263  20.292  26.554   2.732
14196W        W87264  34.231  37.442  13.910
14197W        W87265  26.489   2.704   3.272
14198W        W87266   7.645   3.961  12.332
14199W        W87267   2.370  37.340   4.011
14200W        W87268  20.078   1.990   2.302
14201W        W87269  21.937   3.247  13.082
14202W        W87270  16.234   5.733   4.535
14203W        W87271  27.554  34.339   4.121
14204W        W87272  37.070  43.791   2.459
14205W        W87273  28.145  28.944   1.758
14206W        W87274  25.161  25.268  11.023
14207W        W87275  37.422  42.032   2.479
14208W        W87276  26.283   6.399   5.036
14209W        W87277  26.224  34.564  13.100
14210W        W87278  31.936  43.289  14.981
14211W        W87279  34.519  10.692   3.214
14212W        W87280   5.050  17.846   1.985
14213W        W87281  18.101  31.031  12.069
14214W        W87282   7.154  32.878   2.571
14215W        W87283  44.771   3.668   2.270
14216W        W87284  44.366   3.633  10.652
14217W        W87285  25.284  38.408   5.042
14218W        W87286  35.851  15.073  10.709
14219W        W87287  30.548  22.538  11.456
14220W        W87288  20.577  22.459  10.753
14221W        W87289  32.630  21.667   3.662
14222W        W87290  28.707   3.146  12.430
14223W        W87291  13.278  13.035   2.375
14224W        W87292  10.672  11.827   0.027
14225W        W87293  23.217  10.855   0.678
14226W        W87294  22.257  28.206  14.447
14227W        W87295  11.727   5.317  12.925
14228W        W87296  25.687  39.147   1.485
14229W        W87297  42.646  23.935   0.789
14230W        W87298  10.370  41.900  13.497
14231W        W87299  22.974  25.211   1.903
14232W        W87300  24.753   1.755  13.386
14233W        W87301  35.416  42.717  11.553
14234W        W87302  11.213  37.230  11.957
14235W        W87303  43.991  10.036  14.231
14236W        W87304  39.818   8.256   2.671
14237W        W87305  33.964   3.415   2.249
14238W        W87306  41.926  24.757   2.153
14239W        W87307  26.674  34.642  10.971
14240W        W87308  14.756  25.580   2.775
14241W        W87309  31.896  24.671   3.622
14242W        W87310  39.257   4.237  11.918
14243W        W87311  13.686  13.079  14.044
14244W        W87312  12.567   2.279  11.605
14245W        W87313  41.958  26.591  13.492
14246W        W87314  44.496   1.357   1.292
14247W        W87315   2.161  33.824   1.443
14248W        W87316   6.321  42.986   3.102
14249W        W87317  12.734   9.813   2.405
14250W        W87318  18.982  35.421  13.319
14251W        W87319  41.033  36.979  12.164
14252W        W87320  13.466  20.557  11.561
14253W        W87321  32.974  38.473  12.039
14254W        W87322  37.600   7.413   0.394
14255W        W87323  42.933  23.507   0.021
14256W        W87324  33.575  31.331   0.753
14257W        W87325  39.670  14.103  11.611
14258W        W87326  27.395  28.995  10.699
14259W        W87327  18.210  43.321   4.164
14260W        W87328  18.046   0.759   4.227
14261W        W87329  30.611   3.850   1.494
14262W        W87330  32.126  44.876  13.582
14263W        W87331  13.814  27.149   0.379
14264W        W87332  44.769  17.097   4.555
14265W        W87333  24.994  14.464   4.582
14266W        W87334  17.217  14.161   2.396
14267W        W87335  33.366   8.207  13.377
14268W        W87336   5.622   1.329   3.264
14269W        W87337  13.615  35.364  13.133
14270W        W87338  30.930   5.493   3.512
14271W        W87339  24.995   7.934  14.248
14272W        W87340  10.115  16.601  12.543
14273W        W87341   7.189  21.856  14.922
14274W        W87342  41.218  42.499   0.588
14275W        W87343  27.225  15.103   0.786
14276W        W87344  12.183  21.504   3.737
14277W        W87345   9.369  11.397   2.767
14278W        W87346  17.257  33.044  10.444
14279W        W87347  31.701  28.932  12.445
14280W        W87348  27.455  15.755  13.533
14281W        W87349  20.641  21.869   1.754
14282W        W87350  12.302  30.389   1.416
14283W        W87351  37.456  18.038  10.696
14284W        W87352  23.333   2.865   1.077
14285W        W87353  31.480   2.189  11.923
14286W        W87354  21.544  10.958  11.831
14287W        W87355  44.239  35.333   1.046
14288W        W87356  40.258   0.957  12.526
14289W        W87357  37.053  30.137  11.195
14290W        W87358   0.818   3.719  12.682
14291W        W87359  27.522   4.234   3.088
14292W        W87360   6.286  35.858  13.270
14293W        W87361  13.287  36.387  13.455
14294W        W87362  23.091  36.105   1.019
14295W        W87363  25.015  37.289  13.880
14296W        W87364  29.162   2.429   0.787
14297W        W87365   0.388  24.120  13.542
14298W        W87366  20.663   5.311  14.044
14299W        W87367  43.516  33.914  11.228
14300W        W87368  10.297   2.788  11.074
14301W        W87369  25.495   0.228  10.698
14302W        W87370  18.780  43.230  12.113
14303W        W87371  35.960   8.334  12.703
14304W        W87372  40.172  29.599  14.872
14305W        W87373   0.043  30.963   3.665
14306W        W87374  35.580  42.267   2.548
14307W        W87375  29.731  23.634   0.850
14308W        W87376  19.829  34.628   1.728
14309W        W87377  30.197  28.954   4.459
14310W        W87378  12.774   5.133   3.311
14311W        W87379  34.733  14.253   1.896
14312W        W87380   5.718  12.622  12.056
14313W        W87381  39.701  29.250   0.322
14314W        W87382  24.094  42.730   0.014
14315W        W87383  26.165  38.340  10.090
14316W        W87384  13.524  17.657   4.091
14317W        W87385  25.391  23.184  14.266
14318W        W87386  27.574  37.605   1.129
14319W        W87387  16.834  43.000  13.074
14320W        W87388  26.015  12.090   1.799
14321W        W87389  41.914   2.626   2.733
14322W        W87390   6.903  34.806   1.745
14323W        W87391  13.292   7.222   2.878
14324W        W87392   1.720  10.332   0.773
14325W        W87393  34.388  12.727   2.765
14326W        W87394  22.353   2.532   0.345
14327W        W87395   2.348  36.932   0.012
14328W        W87396  16.192  28.717  14.862
14329W        W87397  22.059  31.211  12.831
14330W        W87398  16.920  15.672   4.541
14331W        W87399   7.949  41.469   4.584
14332W        W87400  44.320   7.180  13.037
14333W        W87401   0.330  38.409  14.290
14334W        W87402  24.497  22.684   4.399
14335W        W87403  17.851  28.965  11.484
14336W        W87404  10.660  36.670   0.893
14337W        W87405  16.921  30.508   3.577
14338W        W87406  15.556  21.517  10.946
14339W        W87407  11.572  10.846  12.026
14340W        W87408  25.654  30.485   4.536
14341W        W87409  12.094   7.741  11.153
14342W        W87410  29.122   0.740  12.009
14343W        W87411  28.209  16.339  10.571
14344W        W87412   8.913  19.253   2.476
14345W        W87413  15.679  43.232  12.654
14346W        W87414  38.375  35.001  12.382
14347W        W87415   7.923  33.889   2.821
14348W        W87416  17.258   8.247   0.249
14349W        W87417   9.232  20.541   0.335
14350W        W87418  15.574   0.066   1.896
14351W        W87419  16.522  18.113   2.233
14352W        W87420   5.694  27.895  13.012
14353W        W87421  14.843   6.151   2.386
14354W        W87422  31.106  20.890   4.170
14355W        W87423   4.029  11.720   4.102
14356W        W87424  36.923   7.380   4.266
14357W        W87425  17.672  22.100  14.408
14358W        W87426  20.647  27.936   2.604
14359W        W87427  44.100  15.891  10.868
14360W        W87428   9.372  33.812   0.482
14361W        W87429  37.688  33.214   1.675
14362W        W87430  16.734   3.717  13.355
14363W        W87431  26.059   4.686   1.614
14364W        W87432  41.396   6.993   0.847
14365W        W87433  17.122  11.994  10.581
14366W        W87434   2.888  39.409  13.002
14367W        W87435  31.488   5.455  12.998
14368W        W87436  34.573  43.538   2.049
14369W        W87437   3.395  17.082  14.267
14370W        W87438  13.854  42.932   3.153
14371W        W87439  31.986  30.439  11.421
14372W        W87440  25.629  25.981   3.280
14373W        W87441  16.221  18.118  11.254
14374W        W87442  16.097  22.722  11.273
14375W        W87443  26.175  12.816  13.852
14376W        W87444  35.848   8.882  10.724
14377W        W87445  23.069   6.420   4.297
14378W        W87446  37.189   8.713   0.350
14379W        W87447  14.867   5.630  11.586
14380W        W87448  44.386  38.602  11.108
14381W        W87449  21.807   8.379   4.230
14382W        W87450  37.279   3.953  10.907
14383W        W87451  35.072  27.475  11.690
14384W        W87452  14.165   1.229   1.254
14385W        W87453  25.061   5.710  11.943
14386W        W87454  17.517   2.737   2.801
14387W        W87455  40.340  34.635  10.829
14388W        W87456   5.916  41.414   2.341
14389W        W87457   7.854  34.609   4.635
14390W        W87458  21.660  21.024  14.822
14391W        W87459   7.156   1.908   3.930
14392W        W87460   5.338  22.075  11.205
14393W        W87461  25.008  42.587  13.783
14394W        W87462  38.924  18.514   0.918
14395W        W87463  14.265  20.470  13.299
14396W        W87464   5.789  17.437  14.386
14397W        W87465  43.480  12.590   4.482
14398W        W87466   9.342   2.799   0.458
14399W        W87467  43.509  29.481   3.309
14400W        W87468   5.997  31.308  13.451
14401W        W87469  15.692  30.491   0.870
14402W        W87470  18.667  18.988   0.352
14403W        W87471  43.275  40.737   1.971
14404W        W87472  43.912  23.625  11.031
14405W        W87473   3.822  28.143   4.499
14406W        W87474  19.065  32.303   0.411
14407W        W87475  31.729  20.506   4.560
14408W        W87476  13.360   9.167  14.567
14409W        W87477  12.779  39.050  12.372
14410W        W87478  24.254  10.421   3.592
14411W        W87479   1.269  14.130  12.026
14412W        W87480  25.039   1.968  11.081
14413W        W87481  38.937   9.274  10.624
14414W        W87482   5.908  28.357  13.122
14415W        W87483  30.004  21.952  13.358
14416W        W87484   5.931  13.334  11.354
14417W        W87485  16.630  24.972   1.443
14418W        W87486  39.771   9.265  14.985
14419W        W87487  34.703   0.474   5.023
14420W        W87488  40.834  36.326  11.429
14421W        W87489  27.215  25.625   2.697
14422W        W87490  23.470   3.241   3.049
14423W        W87491  21.234  32.576  11.114
14424W        W87492  28.163  28.019   3.539
14425W        W87493  36.131  16.739  10.724
14426W        W87494   0.420   0.966  13.285
14427W        W87495  38.963  19.678   1.679
14428W        W87496  23.712  28.978   3.642
14429W        W87497   9.153   4.691  13.108
14430W        W87498   0.368  43.951  14.956
14431W        W87499  18.367  24.917  14.407
14432W        W87500  19.048  25.448   1.225
14433W        W87501   6.846  13.090  12.132
14434W        W87502  33.966   0.411  11.950
14435W        W87503  39.875  36.938   1.325
14436W        W87504  30.292  33.613  12.104
14437W        W87505  36.476  12.639   2.698
14438W        W87506  43.340  28.077   4.722
14439W        W87507   3.500  31.650  10.909
14440W        W87508  26.698   7.574   1.876
14441W        W87509  40.192  22.606   1.679
14442W        W87510  35.906  23.160  14.346
14443W        W87511  19.495  35.324   1.606
14444W        W87512  26.075  15.251   4.213
14445W        W87513  14.030   0.021  14.825
14446W        W87514   9.343  43.635   2.851
14447W        W87515  13.537  36.918   1.458
14448W        W87516  19.573  25.176   4.308
14449W        W87517  33.103   4.231  13.983
14450W        W87518  12.265  19.077   4.836
14451W        W87519  21.899  37.933   2.573
14452W        W87520  26.762  21.582   2.271
14453W        W87521  41.503  15.156   4.382
14454W        W87522   3.313  13.091  13.404
14455W        W87523   7.988  20.299  13.022
14456W        W87524  42.383  41.096   1.818
14457W        W87525  14.344  22.719  12.525
14458W        W87526  29.531  38.864   1.880
14459W        W87527  24.625  42.309   4.715
14460W        W87528  22.584   7.898   4.028
14461W        W87529  18.732  29.158   4.139
14462W        W87530   5.870   0.808  14.547
14463W        W87531  44.853   9.106  12.939
14464W        W87532  26.557  12.692   0.054
14465W        W87533  31.084  31.937   2.223
14466W        W87534  28.899   2.789  13.649
14467W        W87535   7.169  37.803  12.791
14468W        W87536  18.048  34.343   2.807
14469W        W87537   9.208  34.372  13.047
14470W        W87538  38.025   2.053  12.943
14471W        W87539  36.015   1.839  11.011
14472W        W87540   7.740  33.889  12.930
14473W        W87541  27.067  28.092   1.213
14474W        W87542  14.738  18.306  11.129
14475W        W87543  16.109  25.447   1.779
14476W        W87544  31.581  37.489  12.026
14477W        W87545  29.973  33.422  13.908
14478W        W87546   6.403  37.599  14.886
14479W        W87547  14.840   2.985   0.921
14480W        W87548  31.316  26.666  12.754
14481W        W87549   3.713  38.080   4.050
14482W        W87550   7.489  40.767   1.021
14483W        W87551  18.178  32.852  12.626
14484W        W87552  21.734  27.939   0.702
14485W        W87553  39.021  21.085  14.097
14486W        W87554  43.057   3.792  11.991
14487W        W87555  11.573  21.555  11.539
14488W        W87556   1.554   1.639   3.691
14489W        W87557  16.395  20.725  13.792
14490W        W87558  26.887  12.170   5.546
14491W        W87559  31.918   9.499   1.088
14492W        W87560  43.021  25.408   1.796
14493W        W87561  28.543  28.137  12.403
14494W        W87562  27.077   9.224  14.745
14495W        W87563   6.750  34.157  14.041
14496W        W87564  12.355  14.854   1.497
14497W        W87565  12.646  11.584  10.944
14498W        W87566   8.070  17.678  13.359
14499W        W87567  37.818  44.874   1.401
14500W        W87568  17.367  15.144  12.981
14501W        W87569  18.753  20.231   0.729
14502W        W87570  44.846  43.468   2.047
14503W        W87571  41.468  40.794   3.536
14504W        W87572  35.625  26.795   0.935
14505W        W87573  41.285   3.429  10.285
14506W        W87574  10.867  42.012   2.147
14507W        W87575  14.198  20.893   4.343
14508W        W87576  32.134  43.361   1.001
14509W        W87577  10.399  34.007   2.877
14510W        W87578   2.340  35.051  12.296
14511W        W87579  14.755  23.955   2.665
14512W        W87580  28.582  18.277  11.202
14513W        W87581  43.337  34.160  14.011
14514W        W87582   4.282  29.630   1.643
14515W        W87583  21.969  35.556   4.577
14516W        W87584  27.345  20.291   0.859
14517W        W87585  21.392  44.395  13.163
14518W        W87586  19.263  11.799  12.069
14519W        W87587  26.440  17.876   4.733
14520W        W87588  17.897  20.283  11.601
14521W        W87589   1.999  22.115  13.509
14522W        W87590   5.277  37.902   1.838
14523W        W87591  25.032  13.816  13.938
14524W        W87592   3.942  19.979  10.764
14525W        W87593  31.123   5.187   3.123
14526W        W87594  25.074   0.358   4.176
14527W        W87595   6.651   3.728  13.789
14528W        W87596  25.800   0.448  12.090
14529W        W87597  17.428  28.370  13.039
14530W        W87598  32.861   7.469   1.012
14531W        W87599  40.046  25.010   0.882
14532W        W87600  44.850  39.502  13.894
14533W        W87601  21.626  28.785   2.202
14534W        W87602  26.252  37.131  14.303
14535W        W87603  15.023  38.409   4.100
14536W        W87604  42.543  26.320  11.125
14537W        W87605  33.193  14.820   3.744
14538W        W87606  41.048  35.855   4.032
14539W        W87607  14.343  24.986   0.171
14540W        W87608  17.504  14.841  11.074
14541W        W87609   1.491  22.050   0.394
14542W        W87610   1.322  40.931   4.263
14543W        W87611  27.910  14.759  13.087
14544W        W87612  13.755   5.844  10.638
14545W        W87613  23.557  35.254   0.513
14546W        W87614  35.577  26.996   2.285
14547W        W87615   9.922  35.452   1.772
14548W        W87616  29.828  41.801   4.237
14549W        W87617  41.487  22.161   0.731
14550W        W87618  16.345   3.371   2.839
14551W        W87619  39.620   4.659  14.868
14552W        W87620  25.190  39.644   0.816
14553W        W87621  31.242  23.524  14.495
14554W        W87622  32.393  38.610  11.541
14555W        W87623  12.820  33.002  12.511
14556W        W87624  28.862  38.748  13.363
14557W        W87625  21.333  43.853   4.593
14558W        W87626  38.141  40.908  11.018
14559W        W87627  33.293   8.510   4.089
14560W        W87628  30.559   5.931  11.216
14561W        W87629   8.940  24.694  13.040
14562W        W87630   8.870  18.782   4.661
14563W        W87631  24.005  36.442  11.458
14564W        W87632  44.495   7.279   1.760
14565W        W87633  24.960   8.753   1.811
14566W        W87634  26.231  43.771  13.959
14567W        W87635  23.189  17.821   3.964
14568W        W87636   7.889  38.954  13.773
14569W        W87637  29.904   1.233   3.672
14570W        W87638  24.969  39.270   0.477
14571W        W87639  34.629  35.620   3.248
14572W        W87640  21.064  20.178  11.978
14573W        W87641  24.407  35.914   2.060
14574W        W87642  24.641   4.831   4.436
14575W        W87643   4.393  41.364   2.000
14576W        W87644   3.947  19.220   2.884
14577W        W87645   1.788   2.424   2.629
14578W        W87646  22.267  17.841  10.799
14579W        W87647  29.936  42.726  10.949
14580W        W87648  38.414  27.405  12.519
14581W        W87649   5.761  19.058  13.765
14582W        W87650  30.456  35.930  14.249
14583W        W87651  44.017  34.417   1.729
14584W        W87652  24.203  19.534   3.258
14585W        W87653  24.700  25.417   1.918
14586W        W87654  27.906  34.571   0.848
14587W        W87655  33.481  42.972   2.214
14588W        W87656   3.966  43.538  13.611
14589W        W87657  28.182   1.140   1.650
14590W        W87658  10.370   9.816  10.688
14591W        W87659  30.061  28.191  14.511
14592W        W87660  23.617  26.550   3.802
14593W        W87661  16.689  39.872  13.884
14594W        W87662  13.121  42.857  13.538
14595W        W87663   0.567  39.970  11.533
14596W        W87664  30.003  24.959   3.591
14597W        W87665  25.181  19.844   1.852
14598W        W87666  32.960  44.935   0.593
14599W        W87667  38.531  16.282   0.174
14600W        W87668   4.661   7.237   0.725
14601W        W87669   6.995   0.047   0.011
14602W        W87670  26.438  23.536  11.238
14603W        W87671  44.893  10.120  14.436
14604W        W87672   2.905  28.677   3.861
14605W        W87673  24.619   2.702  13.318
14606W        W87674  32.052  43.049  10.700
14607W        W87675  14.535  16.003   1.775
14608W        W87676  32.010  13.891   4.108
14609W        W87677   3.786  34.387   4.771
14610W        W87678  14.143   5.271  12.243
14611W        W87679   6.138  19.844   1.676
14612W        W87680   6.843  16.030  12.756
14613W        W87681  21.038  15.603   4.524
14614W        W87682  25.390  27.946   1.615
14615W        W87683   8.286   3.343   0.292
14616W        W87684  24.870  15.184  13.446
14617W        W87685   8.021   7.042  14.742
14618W        W87686  21.823  13.656  14.830
14619W        W87687  39.325  35.473  11.052
14620W        W87688  23.755  18.200  12.057
14621W        W87689  15.853  18.254   1.812
14622W        W87690   6.831  19.998   4.060
14623W        W87691  35.559  27.448  11.572
14624W        W87692  26.548  21.904  14.497
14625W        W87693  40.337   8.075   0.775
14626W        W87694  25.843  34.123  14.344
14627W        W87695  12.562  16.328   5.869
14628W        W87696  31.223  43.873  14.689
14629W        W87697   4.278   1.032  13.444
14630W        W87698   6.315  21.289   4.019
14631W        W87699  14.251  15.781   3.263
14632W        W87700  33.406  15.304   2.842
14633W        W87701  32.203  26.560  12.506
14634W        W87702  35.641  32.968  14.063
14635W        W87703  22.543   5.168   2.175
14636W        W87704   6.763  20.497   1.309
14637W        W87705   8.649  10.580   5.060
14638W        W87706  39.080   5.260  13.498
14639W        W87707  22.392   8.175  14.080
14640W        W87708  12.265  42.785  14.891
14641W        W87709  37.024   2.278   3.776
14642W        W87710  10.339  36.858  13.970
14643W        W87711   6.498   2.641   4.142
14644W        W87712  36.535  34.465  12.519
14645W        W87713   6.133  28.050  12.761
14646W        W87714  18.060   1.461  14.402
14647W        W87715  38.557  24.076   0.524
14648W        W87716  13.822  12.296   2.228
14649W        W87717  40.411  36.197  11.872
14650W        W87718  25.478  32.970   3.157
14651W        W87719  39.572   1.453  14.379
14652W        W87720  21.545   2.219  11.641
14653W        W87721  27.155  22.147  14.869
14654W        W87722  12.881  36.676  13.292
14655W        W87723  27.042   2.832   2.412
14656W        W87724  11.201   1.744  12.516
14657W        W87725  44.018  22.393   3.735
14658W        W87726  36.166  12.143  11.715
14659W        W87727  40.018  28.655   4.440
14660W        W87728   1.361  38.812  11.120
14661W        W87729   1.485  22.468  14.652
14662W        W87730  39.270  43.504   3.822
14663W        W87731  10.258  36.343  14.039
14664W        W87732  16.547   6.103  14.279
14665W        W87733   0.435  38.429  13.278
14666W        W87734   1.713  33.354  11.127
14667W        W87735  28.954  22.943   3.269
14668W        W87736  14.621  25.639  12.933
14669W        W87737   7.219   0.488  10.910
14670W        W87738  30.928  19.716   1.343
14671W        W87739  29.985  40.882  12.879
14672W        W87740  43.889  22.251  11.615
14673W        W87741  24.680  26.024  13.039
14674W        W87742   7.311  10.763   0.704
14675W        W87743   6.186   4.693  14.523
14676W        W87744  14.767  15.289   0.383
14677W        W87745  30.485   3.627  11.980
14678W        W87746  33.900  20.777  14.232
14679W        W87747  39.352  29.157  13.555
14680W        W87748  34.210  12.308   1.547
14681W        W87749  39.581   3.420  11.081
14682W        W87750  28.941   9.309  12.649
14683W        W87751  19.550  40.902  14.560
14684W        W87752  29.613  28.406   0.388
14685W        W87753   9.949   7.763  11.195
14686W        W87754   2.147  36.928  11.463
14687W        W87755  38.979  32.167   3.719
14688W        W87756  32.414  31.656   2.133
14689W        W87757  29.317   2.739  14.507
14690W        W87758  33.385  42.537  14.829
14691W        W87759  18.448  18.722  10.068
14692W        W87760  26.760  20.729  12.872
14693W        W87761  42.088  29.574  10.959
14694W        W87762  28.135  18.495  13.534
14695W        W87763   7.166  22.171  10.740
14696W        W87764  11.247  11.600  11.093
14697W        W87765  38.892  37.681   3.144
14698W        W87766  42.271   2.671  12.495
14699W        W87767  21.132  13.626   0.819
14700W        W87768  27.528  17.545   0.327
14701W        W87769  32.108   8.592  12.099
14702W        W87770  17.272  14.295  13.238
14703W        W87771  11.177   9.433  13.048
14704W        W87772  39.768  30.397  13.783
14705W        W87773  16.306   2.666  12.162
14706W        W87774   8.218  15.092   1.720
14707W        W87775  30.060  17.274   0.349
14708W        W87776  30.979  35.433   1.614
14709W        W87777  17.792   2.285   3.000
14710W        W87778  33.878  30.037   0.762
14711W        W87779  34.628  38.721   4.537
14712W        W87780  41.014  29.574  14.477
14713W        W87781  25.099  18.195  13.664
14714W        W87782  22.775  24.448   1.186
14715W        W87783  10.424  32.085   0.424
14716W        W87784  23.690  42.439  14.825
14717W        W87785  40.108   3.101   0.885
14718W        W87786   3.056  44.600  14.129
14719W        W87787  24.472  36.837  13.039
14720W        W87788  31.382  17.218   4.243
14721W        W87789  26.997   5.181  13.466
14722W        W87790  14.629  39.135   0.685
14723W        W87791  13.268  40.395   3.190
14724W        W87792  25.269  17.894  14.044
14725W        W87793   0.696  16.725  14.534
14726W        W87794  22.961  43.741   0.731
14727W        W87795  25.242  24.503  14.420
14728W        W87796  16.701  44.732   2.782
14729W        W87797  40.368  39.094  12.461
14730W        W87798  20.990  32.419  13.860
14731W        W87799   8.151  34.363  11.038
14732W        W87800  38.262  22.873   3.308
14733W        W87801   7.694  18.657  14.260
14734W        W87802  19.759  38.571   1.750
14735W        W87803  28.721  30.048   2.159
14736W        W87804  44.001  44.329  13.873
14737W        W87805  28.038  38.510   4.622
14738W        W87806  14.179  11.170   3.674
14739W        W87807   2.754  21.901   1.928
14740W        W87808  15.658  44.396  14.483
14741W        W87809  25.012  28.162   1.339
14742W        W87810   9.454  15.727  11.940
14743W        W87811  30.025  38.793   0.471
14744W        W87812  22.968  20.682   2.910
14745W        W87813  14.933   4.455   1.829
14746W        W87814   5.876  31.243   3.755
14747W        W87815   7.582  26.680   3.143
14748W        W87816  35.437  10.000   0.335
14749W        W87817  12.237  10.842   1.707
14750W        W87818  22.568  37.842   1.474
14751W        W87819   3.833  44.762  10.489
14752W        W87820  24.456   4.233  10.968
14753W        W87821  38.498  19.067  13.310
14754W        W87822  10.086  17.832  10.600
14755W        W87823  14.623  33.419  12.982
14756W        W87824  22.942  23.265  11.661
14757W        W87825   6.138  33.510  12.144
14758W        W87826  25.105  37.002   3.730
14759W        W87827  39.814   3.892   3.344
14760W        W87828  19.831  38.175  13.633
14761W        W87829  37.871  31.081  12.460
14762W        W87830  24.686   5.199   2.880
14763W        W87831   4.369  40.987   4.697
14764W        W87832  36.780   1.223  11.101
14765W        W87833  19.841  19.550  12.367
14766W        W87834  40.005  22.618   3.282
14767W        W87835  24.918  23.104   3.609
14768W        W87836  27.451   0.451  14.271
14769W        W87837   9.707  24.587   0.279
14770W        W87838  40.048  19.485  12.490
14771W        W87839  20.445   3.446  13.987
14772W        W87840  37.095  37.327  11.602
14773W        W87841  24.652  21.299  12.079
14774W        W87842  10.850  26.975   0.318
14775W        W87843  29.657  16.991   1.807
14776W        W87844   5.159  12.316   4.335
14777W        W87845   6.931  27.380   3.578
14778W        W87846  17.991  29.822  10.736
14779W        W87847  18.503  26.973   2.276
14780W        W87848   6.949  16.273  13.196
14781W        W87849  27.027  44.089  14.439
14782W        W87850   2.787  14.702   4.167
14783W        W87851  11.924  19.657  13.331
14784W        W87852  42.437  38.830  11.560
14785W        W87853   5.419  36.468  11.674
14786W        W87854  20.461  13.772   3.322
14787W        W87855  15.948  31.822   2.736
14788W        W87856  29.236   7.652   4.457
14789W        W87857  10.472   0.499   1.874
14790W        W87858  24.404  33.016  10.616
14791W        W87859  18.160   9.589  11.602
14792W        W87860  24.556  31.542   0.411
14793W        W87861  34.459  25.716  13.423
14794W        W87862  37.464  38.984   2.655
14795W        W87863  17.235  33.098   9.873
14796W        W87864  28.373  37.969  10.720
14797W        W87865   3.780   9.106  11.006
14798W        W87866   3.195  19.431   2.845
14799W        W87867   2.835  12.031  14.645
14800W        W87868  35.405  32.821  11.626
14801W        W87869  30.930  42.041  14.046
14802W        W87870  44.617   3.463  14.356
14803W        W87871   0.946  24.620  12.941
14804W        W87872  18.153  38.587   1.192
14805W        W87873   9.180  42.337  13.024
14806W        W87874   9.985  21.561  13.541
14807W        W87875  37.498   6.959   1.334
14808W        W87876  41.813   8.436   0.887
14809W        W87877  33.866  16.704   3.141
14810W        W87878  20.849   3.090   1.354
14811W        W87879   4.965   0.483   0.966
14812W        W87880  34.541   2.800  13.532
14813W        W87881  27.679  16.137   4.406
14814W        W87882  39.796  36.604  13.562
14815W        W87883   0.009  12.583   2.394
14816W        W87884   7.949   2.708   3.383
14817W        W87885   7.848  12.203  14.960
14818W        W87886  42.039  24.520  13.330
14819W        W87887  11.296  20.521   2.320
14820W        W87888   3.764   2.380   1.237
14821W        W87889  33.987  24.432  12.620
14822W        W87890  11.770  16.629   2.844
14823W        W87891   2.020  17.761   3.595
14824W        W87892  36.958  12.358  10.566
14825W        W87893   5.798  17.805   3.824
14826W        W87894  17.684   8.657  11.472
14827W        W87895  18.241   7.387   1.875
14828W        W87896  42.565  10.794   0.829
14829W        W87897  32.194  15.840  11.204
14830W        W87898   1.018  30.899   0.412
14831W        W87899  21.558  44.074  14.865
14832W        W87900  35.627  32.604   2.004
14833W        W87901  24.536  10.051  12.848
14834W        W87902  24.329  37.794   0.817
14835W        W87903  12.705  16.105   4.270
14836W        W87904   6.464   9.988   3.122
14837W        W87905  23.705  12.806  10.463
14838W        W87906  42.532  14.652   4.780
14839W        W87907   9.851  12.153  13.894
14840W        W87908  13.836  41.848   1.298
14841W        W87909  29.764  14.754  14.503
14842W        W87910  42.834  44.446   0.429
14843W        W87911  21.389  23.369   2.691
14844W        W87912   2.741   1.760   1.316
14845W        W87913  32.835   8.767  10.478
14846W        W87914   5.354  44.002  14.894
14847W        W87915   3.196  18.703  11.200
14848W        W87916  41.134   0.200   4.612
14849W        W87917  38.962  24.137   1.892
14850W        W87918  36.133  21.621   3.169
14851W        W87919  33.505  15.046   2.409
14852W        W87920   5.755  36.827  14.031
14853W        W87921  24.405  11.266  11.092
14854W        W87922  19.137   6.808   0.874
14855W        W87923  42.047   7.641   1.771
14856W        W87924  40.774  36.862   4.170
14857W        W87925  24.853  18.042   2.837
14858W        W87926  39.984  19.570  11.617
14859W        W87927  13.159  37.564  10.798
14860W        W87928  31.515  40.839  13.851
14861W        W87929  28.733   4.403  14.411
14862W        W87930  26.407  39.981   2.823
14863W        W87931  11.658  43.250  14.259
14864W        W87932  24.682  15.160   1.394
14865W        W87933   5.640  26.517  10.663
14866W        W87934  11.949  44.235   2.254
14867W        W87935  34.484  17.331   1.009
14868W        W87936   8.201  11.262  13.108
14869W        W87937   0.260  34.094  10.701
14870W        W87938  36.409  15.912   0.946
14871W        W87939  26.631  24.251   0.672
14872W        W87940  43.850  15.306  12.526
14873W        W87941  22.656  27.617   0.384
14874W        W87942  30.879   0.960  12.587
14875W        W87943   4.981  32.334   0.981
14876W        W87944  25.082  13.432   0.214
14877W        W87945  18.068  10.175  12.510
14878W        W87946  39.944  32.522  11.059
14879W        W87947   9.527   9.728   3.119
14880W        W87948  26.128   0.853   2.412
14881W        W87949  12.141  35.002   4.179
14882W        W87950  41.931   1.309   3.778
14883W        W87951  14.578  11.716   4.087
14884W        W87952  26.143   6.935   4.328
14885W        W87953  22.160  30.398  11.484
14886W        W87954  19.146  22.721   0.918
14887W        W87955  35.614  42.151   4.640
14888W        W87956  37.512  22.733  11.482
14889W        W87957  27.071  28.259   0.711
14890W        W87958   4.656  25.647  13.708
14891W        W87959  37.024  11.389  10.443
14892W        W87960   8.085  39.067  14.786
14893W        W87961   3.973  23.925   4.216
14894W        W87962   2.076   9.704   0.400
14895W        W87963  42.950  29.067   0.799
14896W        W87964   8.719  25.116  12.699
14897W        W87965  14.111  18.375   0.865
14898W        W87966  40.667  12.439   1.200
14899W        W87967  42.788  23.125   3.694
14900W        W87968  27.924  22.829  11.874
14901W        W87969  23.199  38.922  13.522
14902W        W87970  34.493  15.999   2.357
14903W        W87971  40.141  29.980   4.084
14904W        W87972   0.433  14.624   4.368
14905W        W87973  38.699  34.064  11.028
14906W        W87974  41.440  19.315   2.888
14907W        W87975  23.037  16.076   2.438
14908W        W87976  44.958   9.034   2.704
14909W        W87977   9.724  31.796  14.284
14910W        W87978  24.463  43.222  13.461
14911W        W87979   3.701  39.575  12.589
14912W        W87980  29.744  27.212   4.323
14913W        W87981  21.072  37.523  13.526
14914W        W87982  38.123   1.725   2.733
14915W        W87983   7.613  21.257  11.480
14916W        W87984   8.514   5.020   2.733
14917W        W87985  29.105  17.768  11.689
14918W        W87986  26.655  18.187  11.471
14919W        W87987   4.286  21.047  12.593
14920W        W87988  40.801   8.185  10.147
14921W        W87989  28.904  18.566  12.038
14922W        W87990  28.895   9.739   1.059
14923W        W87991  41.353  41.285  14.886
14924W        W87992  32.789   4.430   4.554
14925W        W87993   8.360  22.216   4.704
14926W        W87994  40.253  19.833   3.872
14927W        W87995   4.890  36.061   3.043
14928W        W87996  26.221  19.376   1.684
14929W        W87997  34.878   1.964   0.293
14930W        W87998  23.264  12.450  12.591
14931W        W87999  37.151  39.605  11.698
14932W        W88000  22.462  27.717  14.910
14933W        W88001   2.345  13.979   4.593
14934W        W88002  14.184  25.269   1.664
14935W        W88003  24.693  30.452   2.725
14936W        W88004  41.996  14.282   1.354
14937W        W88005  28.505  23.147  11.742
14938W        W88006  19.230  25.069   2.330
14939W        W88007  25.152  44.821   1.889
14940W        W88008  36.726  38.900  11.269
14941W        W88009  17.682  27.971  13.921
14942W        W88010   3.984  29.461   3.214
14943W        W88011   9.688  29.688  11.938
14944W        W88012  18.083   9.172   1.775
14945W        W88013   5.405  14.411  10.799
14946W        W88014   4.158  19.352   1.261
14947W        W88015   4.499  32.124   1.757
14948W        W88016  21.599  24.217  11.679
14949W        W88017  13.395  40.886   2.911
14950W        W88018  39.566  16.066   0.830
14951W        W88019  30.724   7.124   3.737
14952W        W88020  38.904  12.343   0.899
14953W        W88021  16.141  21.128  14.427
14954W        W88022  16.138  28.130   3.847
14955W        W88023   5.523  32.109   0.802
14956W        W88024  36.127   7.928   3.220
14957W        W88025  43.038  31.679  12.900
14958W        W88026  42.492  32.626  10.980
14959W        W88027   5.707  29.914  12.885
14960W        W88028  31.421  10.885  14.052
14961W        W88029   6.223  13.614   1.446
14962W        W88030   6.846  41.386   3.375
14963W        W88031  18.991  20.516  10.650
14964W        W88032  40.390  16.549  12.502
14965W        W88033  21.087  44.803  14.547
14966W        W88034  28.143   7.847   3.346
14967W        W88035  39.830  11.059  13.079
14968W        W88036   1.704  18.531   2.361
14969W        W88037  43.882   5.226  10.526
14970W        W88038   4.419  37.035   4.675
14971W        W88039  12.710  30.703   3.337
14972W        W88040   5.876  11.822  13.479
14973W        W88041  34.089  14.257  10.449
14974W        W88042  27.063  19.221   4.643
14975W        W88043   3.720  38.597   4.078
14976W        W88044  27.693  42.046  14.772
14977W        W88045   6.458   6.956   2.723
14978W        W88046  24.908  24.471   1.001
14979W        W88047  41.329  30.196   1.830
14980W        W88048  24.247  41.031  11.493
14981W        W88049  12.862   5.495   2.924
14982W        W88050  37.858  33.122   4.558
14983W        W88051   3.483   8.634  14.405
14984W        W88052  16.793  26.692  11.680
14985W        W88053  25.530  12.333   4.291
14986W        W88054  31.604  25.553  14.415
14987W        W88055  38.832  39.038  13.278
14988W        W88056  22.640  29.159  11.152
14989W        W88057  44.358  28.397  10.666
14990W        W88058  27.739  24.979   0.910
14991W        W88059   0.191  31.891  14.761
14992W        W88060   7.167  26.142  14.355
14993W        W88061  12.032  15.228   0.242
14994W        W88062  19.525  37.568  11.170
14995W        W88063   6.723  42.021  13.864
14996W        W88064   3.368  11.262  13.160
14997W        W88065  34.648  11.392   0.532
14998W        W88066  24.431  38.274   0.453
14999W        W88067  38.948   9.763   1.004
15000W        W88068  18.144  28.104  13.346
15001W        W88069  20.021  11.238  13.937
15002W        W88070  26.243  39.604  14.838
15003W        W88071  19.562   2.297   3.305
15004W        W88072  32.843  43.291  12.135
15005W        W88073  27.740  12.172  12.477
15006W        W88074  35.363  18.636   4.257
15007W        W88075  38.137  25.935   1.203
15008W        W88076   4.840   5.982   1.381
15009W        W88077  38.521   9.604  12.979
15010W        W88078  19.323  14.511  11.116
15011W        W88079  37.280  27.186   3.363
15012W        W88080  19.823   3.675   3.148
15013W        W88081  12.656  36.886  12.316
15014W        W88082  24.974  10.066   4.682
15015W        W88083  44.287  40.891  11.429
15016W        W88084  36.818   9.985   2.411
15017W        W88085  29.540  13.076  14.923
15018W        W88086  36.037  33.811   3.687
15019W        W88087  23.198  42.927   3.213
15020W        W88088  35.486  21.777   4.334
15021W        W88089  43.760   3.693   3.867
15022W        W88090   3.851  10.548  12.960
15023W        W88091  35.253  32.040   2.209
15024W        W88092  40.620  10.120   4.499
15025W        W88093   9.386   4.289   1.221
15026W        W88094  10.849  16.708   5.513
15027W        W88095  10.031   9.426   1.571
15028W        W88096  34.650  14.114  14.668
15029W        W88097   7.981  39.794  12.482
15030W        W88098  34.968  15.734   3.550
15031W        W88099  18.474  37.302   4.990
15032W        W88100  28.136  10.933  11.107
15033W        W88101  44.863   7.764  12.159
15034W        W88102  42.322   8.682  11.690
15035W        W88103   7.751  39.330  12.521
15036W        W88104   4.923  19.512   1.430
15037W        W88105  32.583  18.076   4.161
15038W        W88106  33.416  31.964  12.112
15039W        W88107  23.072  22.530   3.770
15040W        W88108  22.249   2.727  12.153
15041W        W88109  35.140   3.376  11.317
15042W        W88110  41.515  43.398   3.616
15043W        W88111   0.332  18.626   2.940
15044W        W88112  29.664  36.841   2.074
15045W        W88113  20.042  14.147  11.713
15046W        W88114   0.213  29.248  11.019
15047W        W88115   3.907  40.012   4.198
15048W        W88116  38.957  25.628  12.501
15049W        W88117   9.825  36.607   3.980
15050W        W88118  16.225  22.112  12.636
15051W        W88119   9.989  40.724   1.426
15052W        W88120  15.227  20.658  13.713
15053W        W88121  28.218  16.060  11.370
15054W        W88122  32.596  42.968   1.890
15055W        W88123  41.751  32.627   1.681
15056W        W88124  11.877  24.963   0.256
15057W        W88125  16.696  17.082  12.824
15058W        W88126  29.592  22.018  12.438
15059W        W88127   1.848  43.347   4.158
15060W        W88128  10.944  20.177  11.837
15061W        W88129  11.074   6.862   3.122
15062W        W88130  32.622   2.247  14.493
15063W        W88131  33.891  42.398  12.008
15064W        W88132  31.637  40.442   3.694
15065W        W88133  42.273  20.202  11.521
15066W        W88134  17.115   9.803  12.627
15067W        W88135  29.481  35.653  12.788
15068W        W88136  24.966  34.932  14.992
15069W        W88137  16.609  31.188  14.520
15070W        W88138  14.888   7.624  12.921
15071W        W88139   7.200  29.139  12.452
15072W        W88140  42.554  16.489   3.005
15073W        W88141  28.419  12.112  12.048
15074W        W88142  16.157  37.396  11.571
15075W        W88143   4.458  20.657   4.444
15076W        W88144  37.975  13.298   3.945
15077W        W88145  22.758  15.975  12.942
15078W        W88146  39.782   7.099   0.365
15079W        W88147  20.768  22.823   0.743
15080W        W88148  32.193   3.309   3.992
15081W        W88149  36.788  40.907  13.027
15082W        W88150  27.613  12.659  13.772
15083W        W88151  11.532   8.738  13.349
15084W        W88152  44.562  34.394  12.548
15085W        W88153  29.707   6.503  11.114
15086W        W88154  32.603  40.386   1.532
15087W        W88155  18.114  43.129  10.877
15088W        W88156  25.653  16.192  14.628
15089W        W88157   5.319  13.509  13.107
15090W        W88158  37.844   9.445   4.027
15091W        W88159  36.350   0.427  10.936
15092W        W88160   2.757  36.637  11.895
15093W        W88161  23.005  22.910  13.947
15094W        W88162  12.064  27.984   4.678
15095W        W88163   4.135  29.146   0.018
15096W        W88164   2.917   4.728   3.713
15097W        W88165  30.370  19.423   2.179
15098W        W88166  23.485   7.072   1.254
15099W        W88167  32.403  43.808  13.917
15100W        W88168  36.159   7.847   4.054
15101W        W88169  38.965  30.318  12.476
15102W        W88170  21.138  12.043  14.913
15103W        W88171  23.534  18.004   1.327
15104W        W88172  32.569  10.754   4.329
15105W        W88173  36.685  18.653   3.742
15106W        W88174  29.484  29.093   0.492
15107W        W88175  13.115  11.460  10.690
15108W        W88176   9.700  30.926   1.291
15109W        W88177  35.423  21.606  12.892
15110W        W88178  44.987   9.068  14.331
15111W        W88179  26.472  21.505  12.532
15112W        W88180  32.307   6.673  14.930
15113W        W88181  33.398  28.556  14.388
15114W        W88182   2.411  44.880  12.010
15115W        W88183   2.991  43.503   2.186
15116W        W88184  19.744  33.361  14.666
15117W        W88185  33.173  32.966   0.812
15118W        W88186  33.500  42.430   2.141
15119W        W88187  25.675   4.823   2.353
15120W        W88188   7.155  38.101  14.864
15121W        W88189  19.223   4.224   4.857
15122W        W88190   5.609  31.068   4.673
15123W        W88191   7.671   5.882  11.142
15124W        W88192  18.283   2.479   4.653
15125W        W88193  25.637   2.465  13.963
15126W        W88194   5.809  12.873   3.175
15127W        W88195  29.920  17.800   3.682
15128W        W88196   6.142  27.869   4.534
15129W        W88197   0.676   1.383   1.129
15130W        W88198  29.268  42.374  14.796
15131W        W88199  16.852  20.126   4.064
15132W        W88200   6.424  22.224   1.220
15133W        W88201   7.723  16.322  12.547
15134W        W88202  35.432  23.269   3.217
15135W        W88203  24.806  21.089   2.609
15136W        W88204  33.537  32.588   3.183
15137W        W88205  43.379   9.426  12.448
15138W        W88206  42.753  31.313  13.580
15139W        W88207  22.516  30.963  12.955
15140W        W88208  44.401  15.376   3.187
15141W        W88209  39.254   3.726  11.381
15142W        W88210   5.890  41.833  12.809
15143W        W88211  22.351   6.650   1.164
15144W        W88212  40.036  32.571   2.166
15145W        W88213  38.832   9.311   2.878
15146W        W88214  18.139  28.994   0.888
15147W        W88215  15.117  24.858   2.356
15148W        W88216  36.906  11.210  12.936
15149W        W88217  12.293   6.615   0.810
15150W        W88218  43.011  39.426  14.296
15151W        W88219  21.746   2.319  12.990
15152W        W88220  33.821  32.566  13.033
15153W        W88221  27.749  31.050   4.886
15154W        W88222   5.962  18.550  10.689
15155W        W88223  16.221  15.267   2.468
15156W        W88224  16.252  29.618  13.839
15157W        W88225  30.588  23.465   4.423
15158W        W88226  25.633  37.151   0.561
15159W        W88227   4.719  25.470   3.007
15160W        W88228   7.961   6.859   4.848
15161W        W88229  23.215  41.834   3.271
15162W        W88230   6.345  10.079  12.410
15163W        W88231  19.616  21.322  13.539
15164W        W88232  39.134   4.758   3.164
15165W        W88233   7.214  27.284   4.762
15166W        W88234   6.182  43.222  12.613
15167W        W88235  19.057  24.486  11.713
15168W        W88236   1.374   5.241  11.020
15169W        W88237  19.579   4.290   0.809
15170W        W88238  18.480  18.672  11.589
15171W        W88239  40.250  39.540   2.727
15172W        W88240  44.765  43.450  10.745
15173W        W88241  14.258  17.562   3.112
15174W        W88242   3.128  30.979   4.483
15175W        W88243  40.939  25.091  13.372
15176W        W88244  26.442   4.142   0.958
15177W        W88245  20.979  38.579   3.227
15178W        W88246   8.561  39.802   3.700
15179W        W88247  25.307  25.132   5.023
15180W        W88248  28.016  39.141  13.742
15181W        W88249  15.092  21.020  13.374
15182W        W88250  13.491  40.549  11.293
15183W        W88251  40.496   4.920   5.081
15184W        W88252  36.646  24.720   0.935
15185W        W88253   4.791  25.588  13.200
15186W        W88254   9.219  17.369   3.147
15187W        W88255   1.434  18.049   2.386
15188W        W88256  37.606  27.226   3.745
15189W        W88257  27.425  10.214   4.558
15190W        W88258  19.272  43.929   1.983
15191W        W88259  15.516  24.692  11.868
15192W        W88260  39.286  22.023  10.538
15193W        W88261   0.666   2.645   2.124
15194W        W88262  11.625  26.483   4.510
15195W        W88263  38.109  15.556  13.359
15196W        W88264  22.577   0.572   2.705
15197W        W88265  15.593  32.964   1.859
15198W        W88266   7.854  14.067   4.757
15199W        W88267  20.830   0.883   2.189
15200W        W88268  39.428  32.618  11.349
15201W        W88269   0.379   8.024   1.284
15202W        W88270  16.801  34.578  13.106
15203W        W88271   7.656  37.055  13.572
15204W        W88272  31.131  31.193  13.002
15205W        W88273  33.215  42.237   3.375
15206W        W88274   5.015   1.051   2.899
15207W        W88275   1.423  37.522  14.242
15208W        W88276   7.793  27.093   3.636
15209W        W88277  24.552  29.484  12.992
15210W        W88278   4.497  36.236   4.169
15211W        W88279  31.281   1.436  11.907
15212W        W88280  34.546  30.657  10.588
15213W        W88281   0.640  22.259  12.531
15214W        W88282  12.569  36.112  13.849
15215W        W88283  40.536  19.910   4.649
15216W        W88284  14.660  35.161   2.288
15217W        W88285  37.056  15.377   1.495
15218W        W88286  43.921  10.421  12.008
15219W        W88287  21.445  43.060  11.480
15220W        W88288   0.452  32.982  11.410
15221W        W88289  38.553  20.575   3.859
15222W        W88290  12.600   6.102  10.985
15223W        W88291  44.710  43.861   4.718
15224W        W88292   6.347  30.141  10.733
15225W        W88293  37.996  27.128  11.507
15226W        W88294   8.198  26.165   2.776
15227W        W88295   9.842  23.646   1.285
15228W        W88296  38.599  29.941  14.001
15229W        W88297   5.957   5.808   0.437
15230W        W88298  18.064   3.433   1.179
15231W        W88299  13.645  30.421  12.460
15232W        W88300  11.798  37.835  13.526
15233W        W88301  38.962   0.340   1.733
15234W        W88302  44.897  20.215   2.655
15235W        W88303  17.998  12.301   0.484
15236W        W88304  11.162  18.324   1.771
15237W        W88305   7.382  33.413   3.667
15238W        W88306  16.108  40.075   1.741
15239W        W88307  37.766  37.486   4.520
15240W        W88308  23.920  22.866  11.676
15241W        W88309  16.654   5.600  14.278
15242W        W88310  25.517  28.746   1.998
15243W        W88311   6.355  33.408   4.098
15244W        W88312  11.278   8.945   3.655
15245W        W88313   0.949  32.196   3.742
15246W        W88314  15.768  38.082  14.812
15247W        W88315  11.254  30.589  12.457
15248W        W88316  14.538  40.147   2.216
15249W        W88317   8.694   3.359  10.259
15250W        W88318  26.613  23.783   1.510
15251W        W88319  13.064  29.296   0.271
15252W        W88320  27.037  10.718   3.191
15253W        W88321   0.858   4.763  12.040
15254W        W88322   1.136   9.892  12.064
15255W        W88323  20.184   5.837  12.932
15256W        W88324  41.005  39.140  13.517
15257W        W88325   0.787  18.156  14.922
15258W        W88326  40.064  11.292   0.278
15259W        W88327  25.026  26.891  13.552
15260W        W88328  13.138   3.909  13.515
15261W        W88329  29.478  22.756  12.929
15262W        W88330  20.558   8.434   0.334
15263W        W88331  21.137  19.025   2.288
15264W        W88332  33.761  13.177   1.388
15265W        W88333  29.202  33.379  12.169
15266W        W88334  19.045  43.290  14.351
15267W        W88335  12.193  29.391  14.312
15268W        W88336  11.379  11.279   3.251
15269W        W88337  40.417  33.157   3.755
15270W        W88338  43.061   5.522  14.491
15271W        W88339  44.005   6.227  10.678
15272W        W88340  18.745  21.132  11.937
15273W        W88341  35.857   0.295  12.626
15274W        W88342  17.105  23.312   1.958
15275W        W88343  22.096  26.481  14.949
15276W        W88344   9.580  32.894   2.271
15277W        W88345  21.107  33.222  14.880
15278W        W88346  37.960  25.128   2.863
15279W        W88347  14.318  25.192   0.653
15280W        W88348  27.114   0.873   4.605
15281W        W88349  25.414   6.746  13.636
15282W        W88350  22.152   5.960   1.883
15283W        W88351  30.042  24.224  13.305
15284W        W88352   6.966  38.549   4.442
15285W        W88353  39.045   7.671   0.308
15286W        W88354  11.808  23.532  11.940
15287W        W88355  22.809  36.394   3.249
15288W        W88356   2.212   4.503  11.148
15289W        W88357   0.769  44.975   1.819
15290W        W88358  15.614  40.260  13.483
15291W        W88359   3.210  36.399  12.842
15292W        W88360   6.884  40.084   1.424
15293W        W88361   3.427  19.495   5.047
15294W        W88362  11.814  36.334   1.347
15295W        W88363  27.819  24.940  11.182
15296W        W88364   1.460  25.428   0.788
15297W        W88365  15.951  12.433   1.772
15298W        W88366  29.565  42.041   3.303
15299W        W88367  36.130  21.230   2.366
15300W        W88368   1.052  41.781  13.117
15301W        W88369  15.733  34.581  11.553
15302W        W88370  44.307  34.154   2.897
15303W        W88371  19.992  19.688  13.589
15304W        W88372  26.808  12.397   3.779
15305W        W88373  23.156  31.573   1.637
15306W        W88374  23.066  29.650   2.128
15307W        W88375  14.267  36.207  14.933
15308W        W88376   8.883  29.029   1.031
15309W        W88377  42.361  41.768  11.009
15310W        W88378  34.025  32.975   0.229
15311W        W88379  40.931   6.398  11.618
15312W        W88380  12.265   1.739  10.412
15313W        W88381  28.000  40.215   0.069
15314W        W88382  41.477   8.507   0.482
15315W        W88383  40.061  21.310  12.010
15316W        W88384  12.397  16.704  11.084
15317W        W88385  44.348  31.693   1.353
15318W        W88386  28.059  44.352   4.556
15319W        W88387  29.608  31.524  11.628
15320W        W88388  33.046  23.084  14.450
15321W        W88389   0.289  42.623   2.494
15322W        W88390  35.140  40.458   1.343
15323W        W88391   5.419  17.273  11.397
15324W        W88392  23.489  40.364   1.718
15325W        W88393  43.172  36.142   0.496
15326W        W88394  14.246  12.570   2.341
15327W        W88395  19.201  39.594  11.548
15328W        W88396  42.976  36.167  13.386
15329W        W88397  11.769   9.762   4.648
15330W        W88398  18.778  31.161  10.523
15331W        W88399  35.954  35.554   3.678
15332W        W88400   5.980   7.797  13.920
15333W        W88401  30.034   8.887  12.034
15334W        W88402   4.170  28.970   3.346
15335W        W88403  34.661  23.727  13.391
15336W        W88404  25.373  40.748   2.767
15337W        W88405  43.580  36.876   4.725
15338W        W88406  25.280   9.352   2.768
15339W        W88407   9.567   2.837  14.437
15340W        W88408  37.657  19.045   1.289
15341W        W88409  29.901   7.508   0.037
15342W        W88410  16.082  14.160  11.551
15343W        W88411  20.722  23.524   2.119
15344W        W88412  20.089  35.686  12.541
15345W        W88413  39.143  23.825  12.011
15346W        W88414  44.498  32.587   4.975
15347W        W88415  34.840   2.754   3.191
15348W        W88416  33.038   3.984   3.599
15349W        W88417  27.608   0.222   0.736
15350W        W88418  27.092   3.939   1.873
15351W        W88419  29.531  14.994  14.071
15352W        W88420  27.920  23.643  14.708
15353W        W88421  30.650  12.461   3.171
15354W        W88422  38.855  20.097  13.887
15355W        W88423   9.271  15.309   3.863
15356W        W88424  29.703  26.706   2.854
15357W        W88425  33.609   6.230   4.915
15358W        W88426  20.664   0.106   0.148
15359W        W88427  39.944   9.303  10.538
15360W        W88428  38.521  17.783  13.400
15361W        W88429  27.960  27.568   3.636
15362W        W88430  17.780  10.913  12.142
15363W        W88431  38.979   0.888   0.477
15364W        W88432   8.919  26.655  14.461
15365W        W88433  30.427  20.652  14.050
15366W        W88434  10.682   5.712  11.435
15367W        W88435  35.806  17.479  12.025
15368W        W88436  29.002  23.189  10.727
15369W        W88437  31.916   7.674   4.119
15370W        W88438  12.083  17.504   5.095
15371W        W88439  37.355  19.782  14.010
15372W        W88440  40.862  44.775   1.385
15373W        W88441  34.858  16.461  11.060
15374W        W88442  22.241  28.756   0.421
15375W        W88443   3.205  37.233  14.768
15376W        W88444  40.009  28.559   3.398
15377W        W88445  34.567   5.294   3.606
15378W        W88446  43.506  34.464  11.664
15379W        W88447  37.093  16.880  11.149
15380W        W88448  37.351  35.597  12.085
15381W        W88449  19.194  35.864  14.383
15382W        W88450  36.803  13.645   4.157
15383W        W88451  42.337   7.706   1.333
15384W        W88452  27.431  30.035   3.976
15385W        W88453  23.600  16.714  14.610
15386W        W88454  28.266  13.164  13.807
15387W        W88455  41.596  29.575  10.871
15388W        W88456  40.109   3.491   4.150
15389W        W88457  22.607  10.287   3.680
15390W        W88458  40.124  26.485  14.757
15391W        W88459  37.104  39.795   3.698
15392W        W88460  30.166  23.542   3.128
15393W        W88461  32.551   0.790   4.869
15394W        W88462  29.103  29.543   4.682
15395W        W88463   3.466  34.523   2.939
15396W        W88464  34.389  18.631   2.662
15397W        W88465  27.451  16.007   3.924
15398W        W88466   9.343  41.318   2.769
15399W        W88467  11.839   1.278   2.676
15400W        W88468   4.641   2.449   1.202
15401W        W88469  36.491   5.005  12.010
15402W        W88470  13.358  14.321  12.602
15403W        W88471  35.007   1.013  14.822
15404W        W88472  20.661   1.242  11.370
15405W        W88473  26.958   5.568  11.560
15406W        W88474  32.715   5.808  14.826
15407W        W88475  12.292  37.632  14.902
15408W        W88476   0.793   6.314   1.187
15409W        W88477   4.885   9.816  14.870
15410W        W88478  38.088  20.891   1.357
15411W        W88479  14.325   0.002  12.278
15412W        W88480  35.999   3.504  11.524
15413W        W88481  37.149  29.944   2.913
15414W        W88482  40.812   6.202  14.022
15415W        W88483   7.772  22.946  11.923
15416W        W88484  38.319  33.608  12.515
15417W        W88485  39.945   2.349   3.349
15418W        W88486  13.071  39.357   0.930
15419W        W88487  17.072  25.239   1.313
15420W        W88488  35.600  38.407   2.171
15421W        W88489  22.646  39.447  11.757
15422W        W88490  16.087  34.166  14.590
15423W        W88491  31.331   0.053   2.598
15424W        W88492  30.456  42.112   3.106
15425W        W88493   5.291   6.875  10.953
15426W        W88494  20.010  25.450   4.299
15427W        W88495   5.264  26.974  13.256
15428W        W88496  29.423   2.801  13.566
15429W        W88497  17.194  26.750  13.858
15430W        W88498  38.441  18.221  11.513
15431W        W88499   1.696  18.005   4.467
15432W        W88500  17.215  32.701   4.572
15433W        W88501  41.407  17.358   1.009
15434W        W88502  15.132  17.000   2.241
15435W        W88503   9.235  26.938  14.132
15436W        W88504  36.900  20.590  11.986
15437W        W88505  33.224  18.125   4.947
15438W        W88506  19.032  25.586   0.327
15439W        W88507  24.938  29.990  13.861
15440W        W88508  25.729  10.110   3.752
15441W        W88509  38.546  20.095  12.500
15442W        W88510  25.646  10.855  11.226
15443W        W88511  20.613   6.751  10.611
15444W        W88512  16.069   7.505  11.536
15445W        W88513  44.973  36.798   2.863
15446W        W88514   2.500  33.982  14.614
15447W        W88515  23.212  25.192   0.223
15448W        W88516  15.721  23.534   4.152
15449W        W88517  32.769   4.859  11.857
15450W        W88518   6.239   5.185   3.696
15451W        W88519  20.084   9.817   0.034
15452W        W88520  36.420  21.201  13.575
15453W        W88521  38.969  43.571  11.081
15454W        W88522   1.776   8.842   2.805
15455W        W88523  14.150  18.254  13.264
15456W        W88524  12.579   1.002   4.640
15457W        W88525  44.212  26.678  12.900
15458W        W88526  12.640  39.267  13.923
15459W        W88527  35.521  30.688   2.273
15460W        W88528  36.424  14.372   3.242
15461W        W88529  43.055  22.601   3.775
15462W        W88530  39.076   0.792  11.978
15463W        W88531  10.589   6.380   4.786
15464W        W88532  12.273  10.997  14.684
15465W        W88533  13.828  26.460  10.790
15466W        W88534  32.482  21.207   4.350
15467W        W88535  17.266   2.489  13.054
15468W        W88536   0.668  27.438  12.903
15469W        W88537  39.026  11.186  12.673
15470W        W88538  32.373   9.827  12.439
15471W        W88539  36.226   2.714   1.279
15472W        W88540   4.702  20.521  11.869
15473W        W88541  27.159  28.054   2.426
15474W        W88542  30.124  43.355   4.258
15475W        W88543  31.013   5.167  11.948
15476W        W88544  37.534  22.190   0.347
15477W        W88545  42.893  26.662  14.358
15478W        W88546  37.611  34.919   2.695
15479W        W88547   4.633  34.276   4.185
15480W        W88548   1.833  23.675  11.091
15481W        W88549  29.727  19.857   0.704
15482W        W88550  19.348   8.636   1.812
15483W        W88551  23.118  39.123   2.862
15484W        W88552  26.677  10.753   1.653
15485W        W88553  35.513   4.965   1.286
15486W        W88554  29.141  18.024   2.605
15487W        W88555  34.656  20.334  13.915
15488W        W88556  37.749  11.809  11.994
15489W        W88557  44.808  27.597   2.460
15490W        W88558  22.791   8.927   4.079
15491W        W88559  22.646   8.656   2.829
15492W        W88560  42.624  27.679   0.855
15493W        W88561  39.915  24.977   2.883
15494W        W88562  30.394  39.457  13.555
15495W        W88563  35.550   3.948  12.087
15496W        W88564  24.425  19.810   4.095
15497W        W88565   1.704  33.394   0.238
15498W        W88566  40.596  32.101   1.845
15499W        W88567  39.089  42.458  12.086
15500W        W88568   5.263  11.440   0.252
15501W        W88569  35.651  34.654   3.702
15502W        W88570   0.186   7.220  13.336
15503W        W88571  23.001  20.281  12.445
15504W        W88572  36.804  22.529   3.413
15505W        W88573  23.405  18.258   5.204
15506W        W88574  20.221   7.415  11.901
15507W        W88575  17.760  11.634   2.813
15508W        W88576  10.736  33.469   1.268
15509W        W88577  13.581  24.436  10.970
15510W        W88578   2.326  20.492   1.860
15511W        W88579  28.477  29.690  12.512
15512W        W88580  39.781  34.782  13.032
15513W        W88581   1.359  23.840  14.656
15514W        W88582   0.641   4.895  12.955
15515W        W88583  32.909   8.709  11.587
15516W        W88584  39.516  23.477  14.461
15517W        W88585  41.236  37.972   3.174
15518W        W88586  41.954  40.014   2.207
15519W        W88587  10.251  31.388   1.846
15520W        W88588   8.925  13.589  11.132
15521W        W88589  26.476  43.538   4.684
15522W        W88590  37.536  26.482  11.918
15523W        W88591  44.234  44.399   1.275
15524W        W88592  10.101  13.877   3.788
15525W        W88593  13.792  25.776  13.333
15526W        W88594  35.159  22.653   2.224
15527W        W88595  27.684  42.769  11.504
15528W        W88596   7.970  11.904   3.222
15529W        W88597  13.136   5.187   3.694
15530W        W88598  13.251  35.887  13.346
15531W        W88599  43.426  42.488   2.385
15532W        W88600  39.594   3.997  12.406
15533W        W88601   6.047  33.821   9.853
15534W        W88602  42.239  25.027  11.690
15535W        W88603  36.833  35.891  13.740
15536W        W88604  32.502  27.115   4.306
15537W        W88605   1.491  40.420  11.932
15538W        W88606  14.747  38.013  12.491
15539W        W88607  33.264  29.119  12.370
15540W        W88608  15.688   4.798   3.623
15541W        W88609  35.019  27.563   3.833
15542W        W88610  32.903  39.748   0.957
15543W        W88611  16.377  29.931   4.149
15544W        W88612  17.209  31.832  10.371
15545W        W88613   1.411  13.207   2.459
15546W        W88614  28.860  22.609   4.143
15547W        W88615   8.531  43.515  10.755
15548W        W88616  22.606  44.517  12.682
15549W        W88617   0.442  13.638  14.928
15550W        W88618  15.834  38.015   4.233
15551W        W88619  20.452  19.356   0.766
15552W        W88620   7.375  33.422   4.194
15553W        W88621  36.491  21.451   2.805
15554W        W88622  29.737  27.426  12.852
15555W        W88623  25.652  39.838  13.916
15556W        W88624  16.744   4.247   0.321
15557W        W88625  24.657   8.252  14.001
15558W        W88626  14.546  12.603   4.172
15559W        W88627  39.519  37.578   3.624
15560W        W88628  27.145  44.329   3.343
15561W        W88629  11.803  32.910   1.578
15562W        W88630  25.413   1.892   2.780
15563W        W88631  17.242  13.156  11.961
15564W        W88632   6.967  21.341   4.459
15565W        W88633  42.376  36.988   2.754
15566W        W88634  16.766   2.282  10.630
15567W        W88635   1.418  13.998  13.933
15568W        W88636  22.544  21.624  13.052
15569W        W88637  44.464  17.685   1.219
15570W        W88638  41.962  28.723  10.897
15571W        W88639  28.940  36.919   2.954
15572W        W88640  21.804  37.568   0.457
15573W        W88641  28.504  11.687   2.003
15574W        W88642   8.116  31.155  13.870
15575W        W88643   5.997   3.591   3.852
15576W        W88644  21.260  11.749   0.782
15577W        W88645  21.553   5.897  10.911
15578W        W88646  32.585  39.925  14.156
15579W        W88647  30.482  18.488   0.249
15580W        W88648  29.862  44.083   2.658
15581W        W88649  39.434  28.529   2.292
15582W        W88650  22.491  32.232   2.789
15583W        W88651  31.620  13.821   0.493
15584W        W88652  41.111  28.579  13.424
15585W        W88653   9.121  16.897  11.063
15586W        W88654  35.102  28.954   2.576
15587W        W88655  35.379   0.324   2.417
15588W        W88656  41.856   5.217  10.663
15589W        W88657   9.597  29.459  13.963
15590W        W88658  34.874  39.870  11.649
15591W        W88659   8.616  44.251   2.352
15592W        W88660  40.288  15.848  10.532
15593W        W88661  26.541   3.393  12.106
15594W        W88662  26.593   0.931   0.179
15595W        W88663  37.110   2.605   2.696
15596W        W88664  19.572  19.735  14.828
15597W        W88665  15.802  24.551  14.383
15598W        W88666  30.565  36.965   0.380
15599W        W88667  31.546  23.502  10.394
15600W        W88668  14.358  24.742  13.287
15601W        W88669  33.948  18.006  13.254
15602W        W88670   9.838  19.965   4.895
15603W        W88671  22.337  31.730   1.299
15604W        W88672  24.232  10.605   4.099
15605W        W88673   0.422  19.861   3.726
15606W        W88674  37.922  24.653   0.517
15607W        W88675  22.370  44.227   1.479
15608W        W88676  36.641  27.409  12.231
15609W        W88677  23.927   7.628  14.096
15610W        W88678  37.780  40.821  12.968
15611W        W88679   5.529  27.312   0.817
15612W        W88680  31.660  34.988  14.803
15613W        W88681  28.958  42.471   4.327
15614W        W88682   7.903  30.144   9.858
15615W        W88683  22.537  27.356  10.857
15616W        W88684  21.524  29.613   4.661
15617W        W88685   5.976  27.480  12.879
15618W        W88686  14.101  37.761   4.807
15619W        W88687   9.344  22.231   1.914
15620W        W88688   8.166  34.969  14.375
15621W        W88689  25.994  32.242  11.961
15622W        W88690  24.552   0.381   3.989
15623W        W88691   5.952  23.033  14.272
15624W        W88692  30.608  18.123   0.906
15625W        W88693   4.737  29.864  12.944
15626W        W88694  10.735  43.777   2.622
15627W        W88695  30.323  42.923  14.622
15628W        W88696  36.367  33.894   9.524
15629W        W88697   2.517  33.842   3.115
15630W        W88698   3.542  33.402  13.247
15631W        W88699   1.861   8.445  13.813
15632W        W88700  44.702   6.690  12.455
15633W        W88701  31.420   4.863   1.392
15634W        W88702   1.970  20.336  13.582
15635W        W88703  40.479  41.430  10.205
15636W        W88704   3.356   0.285  11.095
15637W        W88705   6.271   0.781   1.363
15638W        W88706  16.587  13.809   3.542
15639W        W88707  38.108  30.036  14.010
15640W        W88708  19.193  34.913  13.345
15641W        W88709  42.652  16.630  11.959
15642W        W88710  35.054  33.519  14.463
15643W        W88711  25.000  38.327  14.115
15644W        W88712   5.472  25.140   2.183
15645W        W88713  20.494   7.952  13.058
15646W        W88714  14.988  36.974  12.084
15647W        W88715  20.476  42.758  12.564
15648W        W88716  30.577  31.521   3.881
15649W        W88717  31.043  41.873  14.999
15650W        W88718  18.693   1.809  13.383
15651W        W88719  20.118  11.827  10.419
15652W        W88720  10.969  11.730   0.436
15653W        W88721  27.476   2.065   3.138
15654W        W88722  21.230   9.655   3.640
15655W        W88723  29.583   7.153  10.543
15656W        W88724  44.642  19.654  12.408
15657W        W88725  41.052  12.311   0.827
15658W        W88726   2.378  39.299  13.479
15659W        W88727  42.615  33.792  12.860
15660W        W88728  13.773  11.732  12.738
15661W        W88729  31.448  25.060   2.405
15662W        W88730   8.671  23.465   2.473
15663W        W88731  35.517  44.350  13.382
15664W        W88732  15.185   4.104  14.269
15665W        W88733   9.326   8.716   0.718
15666W        W88734  38.993  33.594  14.753
15667W        W88735  36.965   8.644  11.842
15668W        W88736  42.450  31.686   2.166
15669W        W88737  26.840   4.200  13.363
15670W        W88738  19.807   9.859   2.286
15671W        W88739  12.435  42.958   1.812
15672W        W88740  10.313  20.016   3.636
15673W        W88741   3.409   8.676   1.398
15674W        W88742  44.506   9.761  14.393
15675W        W88743  28.450  43.473  10.642
15676W        W88744  15.339  17.387   0.414
15677W        W88745  17.595  27.933   3.443
15678W        W88746  38.203   8.916   4.629
15679W        W88747  16.170   3.454  14.459
15680W        W88748  10.759   6.130  11.108
15681W        W88749  28.509   5.821   4.678
15682W        W88750  43.031  37.615  11.474
15683W        W88751   1.237  26.907   4.936
15684W        W88752  12.086  33.966  14.196
15685W        W88753  11.376   9.210  13.477
15686W        W88754   3.764   9.007  14.781
15687W        W88755  38.288  31.349   4.526
15688W        W88756  15.932   5.761  13.235
15689W        W88757  39.826  15.732  14.208
15690W        W88758  16.240  18.580  10.990
15691W        W88759  17.215  33.764  14.824
15692W        W88760  15.866  29.054   4.102
15693W        W88761  11.709  40.485   2.288
15694W        W88762  41.363  10.186  12.929
15695W        W88763  23.618  38.989   2.295
15696W        W88764   9.642  36.418  12.911
15697W        W88765  19.978   2.893  10.660
15698W        W88766   7.286  34.612  12.464
15699W        W88767  17.350  15.659   1.897
15700W        W88768   1.026  15.288   1.238
15701W        W88769  14.342  20.083  12.483
15702W        W88770   9.773   2.733  12.282
15703W        W88771  42.972  19.731  13.017
15704W        W88772  34.333  41.441  14.550
15705W        W88773  37.259   8.243  11.962
15706W        W88774   0.266  11.171  12.549
15707W        W88775  42.114  15.730  11.421
15708W        W88776  21.504  22.745  10.338
15709W        W88777  35.885  19.128   0.823
15710W        W88778  25.414  33.093  10.730
15711W        W88779  36.832  13.553  13.313
15712W        W88780  11.608  29.752  12.633
15713W        W88781   8.729  32.571   1.333
15714W        W88782   3.795  16.315  11.809
15715W        W88783  28.761  35.156  13.857
15716W        W88784   6.227  23.059   0.654
15717W        W88785   4.449  21.943   2.229
15718W        W88786   2.233  40.730   2.915
15719W        W88787  28.909  19.694  12.496
15720W        W88788  25.257  18.070  13.187
15721W        W88789  39.851  14.909  11.895
15722W        W88790  40.414  13.120   4.334
15723W        W88791  18.954  39.864  11.051
15724W        W88792   0.358   8.320  10.577
15725W        W88793  23.222  13.163   2.801
15726W        W88794  35.536   7.686  12.456
15727W        W88795   6.365  22.705   5.071
15728W        W88796  20.915  38.749  14.860
15729W        W88797  22.364   2.810  13.489
15730W        W88798   7.919   0.782  10.751
15731W        W88799   4.744  28.911  14.475
15732W        W88800  31.882  29.821   5.137
15733W        W88801  19.589  38.920   2.383
15734W        W88802  43.578   6.622   0.455
15735W        W88803  10.303  22.680   4.228
15736W        W88804  42.743   8.629   3.319
15737W        W88805  20.246  30.902   4.535
15738W        W88806   2.179  14.066  12.900
15739W        W88807   2.975  30.675   1.644
15740W        W88808  44.575  19.241   2.764
15741W        W88809   9.234   3.833   2.698
15742W        W88810  19.752  11.090   4.161
15743W        W88811  29.907   9.697  11.515
15744W        W88812  13.549   5.893   1.216
15745W        W88813  31.520  25.728  13.002
15746W        W88814  17.528  11.386   0.309
15747W        W88815  26.180  25.051   0.035
15748W        W88816  17.677  35.621   1.718
15749W        W88817  40.419  28.096  13.395
15750W        W88818  20.598   1.444   3.686
15751W        W88819  24.115  18.216   1.051
15752W        W88820  39.754  42.771   1.805
15753W        W88821  20.933  19.349  14.949
15754W        W88822  20.661  43.426   3.660
15755W        W88823  38.875  38.832  12.701
15756W        W88824  25.654  44.411  12.094
15757W        W88825  27.565  26.647  10.654
15758W        W88826   0.638  35.946  11.871
15759W        W88827  44.216   8.705  11.113
15760W        W88828  38.849  35.658  11.133
15761W        W88829  40.732  23.027  13.501
15762W        W88830   7.803   2.768  11.676
15763W        W88831   4.777  37.922  10.719
15764W        W88832  38.056  27.100  10.632
15765W        W88833  39.155  15.753   5.130
15766W        W88834  32.257  17.000  14.800
15767W        W88835  22.154  44.719   2.290
15768W        W88836  30.034   7.771   1.417
15769W        W88837   5.010  21.994   1.238
15770W        W88838  39.791  14.793  13.231
15771W        W88839  34.781  19.891  11.457
15772W        W88840  36.361   7.817   2.328
15773W        W88841   2.307  13.732  10.706
15774W        W88842   8.912  18.312  14.057
15775W        W88843  11.141  25.077  14.792
15776W        W88844  25.439  15.132  12.671
15777W        W88845  18.678  37.572  13.950
15778W        W88846   0.936  33.902  13.374
15779W        W88847  10.524   2.351  11.394
15780W        W88848  40.450  38.938  11.987
15781W        W88849  32.667  16.578   1.952
15782W        W88850   8.379   2.404  11.720
15783W        W88851  32.568  23.543   0.871
15784W        W88852   9.726  13.577   3.599
15785W        W88853   8.816  25.952   1.808
15786W        W88854  33.539   8.881   2.677
15787W        W88855   0.629   5.156  11.660
15788W        W88856   6.620   1.734   1.858
15789W        W88857  40.546   2.868  12.043
15790W        W88858  12.138  20.741  12.971
15791W        W88859   8.400  38.000   0.909
15792W        W88860  15.209   8.011  13.372
15793W        W88861   6.805  17.328  12.872
15794W        W88862  30.898  27.359   2.622
15795W        W88863  33.345  22.552  12.361
15796W        W88864  20.932  34.590   1.405
15797W        W88865  30.765  32.924   2.790
15798W        W88866  10.980  10.382  12.649
15799W        W88867  38.395  37.848   3.181
15800W        W88868   0.883  18.341   4.079
15801W        W88869  44.683  30.181   4.029
15802W        W88870  22.498  31.947   2.310
15803W        W88871   9.373  35.174   2.905
15804W        W88872  41.961   0.046   0.271
15805W        W88873  22.496  15.538  12.757
15806W        W88874  43.349  26.943  14.379
15807W        W88875  14.362  39.284   1.617
15808W        W88876  20.163  17.210  10.310
15809W        W88877   2.619  17.608  10.529
15810W        W88878   2.441  26.076  13.949
15811W        W88879  40.412  41.727   2.346
15812W        W88880  23.704   6.089  14.005
15813W        W88881  29.002  16.142  11.558
15814W        W88882   7.582  37.262   3.987
15815W        W88883   2.801  32.130  10.289
15816W        W88884  32.067  32.146   2.729
15817W        W88885  29.067  29.489   0.986
15818W        W88886  19.039   7.711   0.904
15819W        W88887  12.092  41.292   0.956
15820W        W88888  17.556  24.611   2.229
15821W        W88889  30.021  19.300   1.758
15822W        W88890   1.753  33.638  13.456
15823W        W88891  34.622   9.285  12.416
15824W        W88892  34.053  44.978   2.727
15825W        W88893  12.176  41.265  14.913
15826W        W88894  12.730  37.763   2.649
15827W        W88895  14.183  28.501   2.228
15828W        W88896  16.048   2.459   0.022
15829W        W88897   5.541  37.497  14.496
15830W        W88898  40.720  10.215   1.147
15831W        W88899  36.573  10.349   3.859
15832W        W88900  17.762  10.014  13.366
15833W        W88901  32.159  24.092  14.864
15834W        W88902  41.377  43.886  11.121
15835W        W88903  24.379   7.894   1.801
15836W        W88904  21.516   5.834  11.461
15837W        W88905   4.748  14.374   4.514
15838W        W88906  35.934  13.670   4.525
15839W        W88907   3.383  29.807   5.031
15840W        W88908  40.170  19.016   4.507
15841W        W88909   4.395  30.852   2.299
15842W        W88910   7.548   0.885   1.227
15843W        W88911   8.956  30.472  12.891
15844W        W88912   7.234  27.296  14.823
15845W        W88913  41.470  22.500  11.956
15846W        W88914  36.781  21.095  12.579
15847W        W88915  43.752   9.894   2.643
15848W        W88916  36.317  31.261   1.630
15849W        W88917  39.379  31.312  14.387
15850W        W88918  11.667  40.080  11.236
15851W        W88919   0.755   0.912   0.892
15852W        W88920  35.947  11.626  12.996
15853W        W88921  35.052  29.348   2.925
15854W        W88922  15.692  34.858  13.890
15855W        W88923  30.185   0.848  12.823
15856W        W88924  18.616  33.949  14.811
15857W        W88925  38.437  13.169   2.597
15858W        W88926  15.622   4.218  14.534
15859W        W88927   7.243  11.176  10.629
15860W        W88928  30.316   0.286  10.679
15861W        W88929  18.343  36.578  12.063
15862W        W88930   0.429  44.920  14.831
15863W        W88931  27.607  32.937   3.915
15864W        W88932  37.009  15.746   4.610
15865W        W88933  35.486  26.633  13.332
15866W        W88934  15.293  24.629   1.492
15867W        W88935   6.111  23.089   4.235
15868W        W88936  34.003  20.328   0.421
15869W        W88937   9.156  42.767  14.456
15870W        W88938  14.473  18.981  11.688
15871W        W88939   4.412   6.822   4.953
15872W        W88940  43.966  43.931   1.164
15873W        W88941   5.623   4.155   0.451
15874W        W88942  19.959  10.920  14.477
15875W        W88943   2.241  15.443   1.219
15876W        W88944  36.376  38.674   1.728
15877W        W88945   8.446  13.863  12.005
15878W        W88946  19.565   1.806  14.000
15879W        W88947  26.573  22.167  14.009
15880W        W88948  11.415  20.332   4.073
15881W        W88949  34.547  32.062  13.079
15882W        W88950  21.214  36.296  12.037
15883W        W88951  20.806   5.868   2.007
15884W        W88952   8.679  36.613   1.084
15885W        W88953   3.029  29.650   3.454
15886W        W88954  13.112  17.317  14.922
15887W        W88955  26.026  38.455  14.111
15888W        W88956  20.477  14.275  12.622
15889W        W88957   6.397  24.236  13.578
15890W        W88958  23.195  44.381   0.363
15891W        W88959  13.914  44.666   1.349
15892W        W88960  38.728  42.972   1.880
15893W        W88961  32.837   6.656   3.041
15894W        W88962  18.515  19.097  13.639
15895W        W88963  43.236  17.624   4.187
15896W        W88964  12.066  16.772   0.740
15897W        W88965   5.306  10.485   1.974
15898W        W88966  41.561   9.821   1.367
15899W        W88967   2.201  27.606  12.995
15900W        W88968   9.608  31.038   3.187
15901W        W88969  40.083   1.486  10.268
15902W        W88970  44.443   5.136   0.798
15903W        W88971  28.079  25.129   4.590
15904W        W88972  32.834  18.699  14.472
15905W        W88973  38.125   5.880  11.121
15906W        W88974   3.780  16.661  14.291
15907W        W88975  29.586  11.203   1.325
15908W        W88976  39.437  37.631  12.401
15909W        W88977  43.051  33.038  11.021
15910W        W88978  21.160   5.686  12.035
15911W        W88979  15.595   3.762  14.768
15912W        W88980  39.806  28.322  11.159
15913W        W88981   0.831  14.901   1.548
15914W        W88982  41.465  37.281  12.071
15915W        W88983  43.254  10.455  12.424
15916W        W88984  44.493  10.721   2.410
15917W        W88985  44.952  23.279  12.007
15918W        W88986  36.910  21.031   1.274
15919W        W88987  37.408   4.728  10.491
15920W        W88988  44.738  17.512   0.832
15921W        W88989   4.506   6.650  12.903
15922W        W88990  41.040  33.029  10.575
15923W        W88991  24.446   9.204   4.237
15924W        W88992  24.722  26.493  12.795
15925W        W88993  13.336   1.552   1.574
15926W        W88994  40.039  31.463  11.581
15927W        W88995  13.591  32.556   0.747
15928W        W88996  19.136   3.102  12.992
15929W        W88997  33.596   4.152  12.053
15930W        W88998  33.982  14.563  12.037
15931W        W88999  26.062  23.615  11.608
15932W        W89000  14.953  23.052  13.329
15933W        W89001  12.794  30.433  12.461
15934W        W89002  44.424  11.632  12.028
15935W        W89003  43.867  40.547   2.746
15936W        W89004  18.652  15.135   1.017
15937W        W89005  33.539  27.523  12.357
15938W        W89006  33.532  32.393   3.669
15939W        W89007  43.451  43.903   1.944
15940W        W89008  35.139  14.410  10.237
15941W        W89009  10.359  24.084  13.782
15942W        W89010  22.676  33.579  13.032
15943W        W89011  36.870  21.090  12.065
15944W        W89012  26.099  27.972  11.628
15945W        W89013  41.499  15.588   1.402
15946W        W89014   4.990  21.451  14.646
15947W        W89015  26.660  21.505   0.942
15948W        W89016  22.064  27.843   3.767
15949W        W89017  37.498   7.647   4.783
15950W        W89018  42.399   4.858   4.630
15951W        W89019  11.383  43.202  11.593
15952W        W89020  30.928  22.464   1.798
15953W        W89021   8.503  27.476   0.430
15954W        W89022  26.131  14.458   5.035
15955W        W89023  44.486  15.757  14.282
15956W        W89024  39.309   8.253   2.485
15957W        W89025   1.760   0.309   3.300
15958W        W89026  10.813  38.551  14.418
15959W        W89027  20.690   3.803  11.114
15960W        W89028  36.950   3.960   1.324
15961W        W89029   6.066  42.862   5.140
15962W        W89030  33.395  29.995  13.264
15963W        W89031  18.721  43.591   0.213
15964W        W89032  28.023  19.192   3.197
15965W        W89033   4.017  29.282   0.517
15966W        W89034  30.585   6.401  13.567
15967W        W89035  18.266  33.670  13.641
15968W        W89036   1.934  44.847   1.378
15969W        W89037  34.217  23.376  14.285
15970W        W89038   9.468   4.986  12.177
15971W        W89039  25.541   7.915   0.263
15972W        W89040  43.871  38.876   2.105
15973W        W89041  42.997  22.782  11.153
15974W        W89042  17.541  24.170   3.151
15975W        W89043  22.252   2.348   1.911
15976W        W89044  42.140  40.415  13.928
15977W        W89045  44.395  12.685  13.007
15978W        W89046  37.530   6.873  11.156
15979W        W89047  22.420  23.905  13.401
15980W        W89048   4.943  26.030  13.431
15981W        W89049  23.299  37.319  13.552
15982W        W89050   6.596  19.028   1.404
15983W        W89051   6.773  32.400   0.976
15984W        W89052   1.049  17.823   3.348
15985W        W89053  23.160   7.062   1.749
15986W        W89054  27.205   6.992   1.370
15987W        W89055  43.875  33.989   1.343
15988W        W89056  27.656  39.293   0.064
15989W        W89057  38.832  30.848  12.356
15990W        W89058  30.925  27.520   3.102
15991W        W89059  15.011  20.849  12.871
15992W        W89060  31.404  31.934  13.935
15993W        W89061   4.716  22.632   4.653
15994W        W89062   4.817  16.307   3.084
15995W        W89063  28.201  18.296  10.844
15996W        W89064  33.267  27.216  11.110
15997W        W89065  38.826   1.532   2.231
15998W        W89066  39.428  22.247  14.001
15999W        W89067  10.635  27.162   1.346
16000W        W89068  28.525  30.290   1.635
16001W        W89069  40.451  17.458   4.977
16002W        W89070  35.968   0.993  11.368
16003W        W89071  21.704   5.728  12.956
16004W        W89072  42.783  37.128  10.381
16005W        W89073  11.224   1.758  11.629
16006W        W89074   8.751  15.103   1.718
16007W        W89075  21.712  21.756   2.805
16008W        W89076  23.521   2.450   2.370
16009W        W89077  11.860   4.427   4.890
16010W        W89078  35.105  10.351  10.549
16011W        W89079   8.674  28.134  14.364
16012W        W89080  37.113  32.323  12.422
16013W        W89081  36.721  39.821  11.960
16014W        W89082   4.382  15.111  10.583
16015W        W89083  10.452  21.692   2.738
16016W        W89084  40.013  36.344  11.584
16017W        W89085  15.720  34.434  10.713
16018W        W89086  36.649   4.939  11.190
16019W        W89087  19.128  12.496   3.173
16020W        W89088  40.084  22.013   4.530
16021W        W89089  35.563   5.883  14.856
16022W        W89090   7.675  30.441  14.396
16023W        W89091   9.034   5.189  12.453
16024W        W89092   3.917   4.229   2.630
16025W        W89093  36.419  26.133   3.198
16026W        W89094  13.615   7.714   3.429
16027W        W89095  24.167  40.110  13.898
16028W        W89096   5.287  10.154   4.130
16029W        W89097  25.764   1.360  13.861
16030W        W89098   6.259   0.413   4.308
16031W        W89099  42.032  31.644  10.518
16032W        W89100   8.672  18.589  12.088
16033W        W89101   9.768  12.490  11.035
16034W        W89102   9.061  26.188   4.507
16035W        W89103   5.608  18.665   2.314
16036W        W89104   1.320  18.513   1.333
16037W        W89105  33.072  31.347  13.071
16038W        W89106  37.834  25.956   0.779
16039W        W89107  16.004   5.200  11.952
16040W        W89108   5.541  15.352   2.825
16041W        W89109  43.683  37.362   0.694
16042W        W89110  34.544   3.429   3.696
16043W        W89111  29.644  40.045   2.639
16044W        W89112   6.402  38.862   4.090
16045W        W89113  42.984   9.656  14.307
16046W        W89114   4.811  21.960   0.087
16047W        W89115  32.825  44.583   0.950
16048W        W89116  27.438  39.947  11.505
16049W        W89117   4.787   8.781  14.874
16050W        W89118  17.140  20.633  14.975
16051W        W89119  30.087  41.593   3.825
16052W        W89120  29.007  28.523  13.447
16053W        W89121  33.491  43.862  14.755
16054W        W89122   4.733  19.094  11.527
16055W        W89123  41.780  12.286  10.711
16056W        W89124  10.982  28.964   1.361
16057W        W89125  19.183   6.913  11.129
16058W        W89126  14.665  13.776  12.118
16059W        W89127   8.942   7.253  12.228
16060W        W89128  10.717   0.552   2.361
16061W        W89129  42.898  42.883   0.772
16062W        W89130  44.888   4.673   3.195
16063W        W89131  23.008  34.071  11.048
16064W        W89132   2.824  15.072  13.884
16065W        W89133   8.812  24.761  13.536
16066W        W89134   3.883  10.311   3.764
16067W        W89135  21.504  19.022   2.791
16068W        W89136  31.058  21.452   4.184
16069W        W89137  18.653  41.295  10.264
16070W        W89138  27.019  23.728   1.207
16071W        W89139  14.567  42.556   2.661
16072W        W89140  16.738  34.098   2.573
16073W        W89141  32.925  25.341  11.631
16074W        W89142  20.666  17.177  13.358
16075W        W89143  38.422  34.118   2.149
16076W        W89144  40.910  22.755   2.333
16077W        W89145  29.674  30.398   3.717
16078W        W89146  20.107  17.876   0.419
16079W        W89147  20.714  42.236   1.903
16080W        W89148  29.199  13.218  10.751
16081W        W89149  42.050   3.241   3.439
16082W        W89150  26.669  36.082  11.617
16083W        W89151  41.421  27.041   2.166
16084W        W89152  31.682  16.162  14.889
16085W        W89153   1.879  39.624   0.447
16086W        W89154  17.435  12.169  12.900
16087W        W89155  28.211   1.637   1.844
16088W        W89156  43.765  38.432  11.600
16089W        W89157   2.083   1.327  11.954
16090W        W89158   0.530  37.376   0.510
16091W        W89159  38.751  43.819  11.467
16092W        W89160  41.346  18.564   3.303
16093W        W89161   3.443  42.532  13.443
16094W        W89162   7.171  27.919   1.290
16095W        W89163  40.507  10.377  13.487
16096W        W89164  13.928  33.565  12.416
16097W        W89165  15.495   6.793  13.783
16098W        W89166  10.875  31.385   1.375
16099W        W89167  26.017  25.224  13.396
16100W        W89168  24.438  22.148  14.799
16101W        W89169  21.176   8.971   0.012
16102W        W89170   0.917  26.036  12.121
16103W        W89171  31.027  13.332   3.364
16104W        W89172  20.666  27.598   5.043
16105W        W89173   2.176  32.974   2.849
16106W        W89174   0.233   8.882   0.957
16107W        W89175  13.495  26.419   1.811
16108W        W89176  23.933  34.028  11.192
16109W        W89177  28.843  44.217  11.054
16110W        W89178  37.358  31.450  11.321
16111W        W89179  22.700  31.394   1.432
16112W        W89180   9.371  41.079  13.781
16113W        W89181  30.012   7.300   1.611
16114W        W89182  21.478  27.540  10.246
16115W        W89183  13.371  37.420  13.958
16116W        W89184  35.002  25.495   1.344
16117W        W89185   8.389  19.987   1.823
16118W        W89186  38.511   8.265  14.241
16119W        W89187  35.547  23.498   0.486
16120W        W89188   4.135  34.105  11.205
16121W        W89189  25.124   3.488   3.235
16122W        W89190  28.500   3.933  10.592
16123W        W89191  31.571  42.214   3.779
16124W        W89192  38.517  27.027   0.503
16125W        W89193  23.576  31.066  10.421
16126W        W89194  36.304  18.810  11.899
16127W        W89195  39.857  35.160   0.886
16128W        W89196  31.147  39.502   3.768
16129W        W89197  22.699  26.314  13.904
16130W        W89198  37.756  42.924   0.761
16131W        W89199   6.911  24.168   0.914
16132W        W89200  25.447  29.913  11.163
16133W        W89201  13.654  40.749   0.524
16134W        W89202   0.720  23.605  13.450
16135W        W89203  27.079  20.645   0.187
16136W        W89204   4.997   3.466   2.340
16137W        W89205   3.866  15.904   3.354
16138W        W89206  17.472  43.856  13.929
16139W        W89207  10.242   0.767  13.472
16140W        W89208  18.615  20.934  13.220
16141W        W89209   2.869  28.166   3.746
16142W        W89210  18.369   0.711  14.808
16143W        W89211  12.397  28.027  13.337
16144W        W89212  15.334  32.589  14.937
16145W        W89213  27.460   2.519   2.304
16146W        W89214  42.403  32.727   1.295
16147W        W89215  29.366  19.226  11.642
16148W        W89216  13.120  16.320   2.627
16149W        W89217  34.650  38.921   3.746
16150W        W89218  42.814  24.089   2.222
16151W        W89219  20.804  31.719   3.662
16152W        W89220   4.134  34.194   3.880
16153W        W89221  29.976  16.854   0.001
16154W        W89222  29.551  37.031   0.067
16155W        W89223  33.973  27.591  14.793
16156W        W89224  38.041   1.495  11.598
16157W        W89225   8.878  30.515  11.034
16158W        W89226  31.861  39.416  13.436
16159W        W89227   5.142  40.491   4.626
16160W        W89228  10.753   0.078   3.254
16161W        W89229  32.044  34.638   1.370
16162W        W89230  16.793  17.202   0.359
16163W        W89231  12.190   1.984  10.886
16164W        W89232  23.079  21.655   1.490
16165W        W89233  29.432  26.821   4.148
16166W        W89234  42.024   9.589   1.431
16167W        W89235   2.350   2.236  12.520
16168W        W89236  30.105  32.558  14.408
16169W        W89237  17.373  42.876   5.039
16170W        W89238  14.822  22.622  14.467
16171W        W89239  44.699  10.203  12.610
16172W        W89240   0.054  31.918   4.476
16173W        W89241   5.700  30.422   2.788
16174W        W89242  28.647  44.796  14.518
16175W        W89243  33.831  33.106  11.019
16176W        W89244  35.468  21.803   1.156
16177W        W89245  24.492  24.565  14.062
16178W        W89246   5.600  10.856   1.791
16179W        W89247  18.186  13.324   2.904
16180W        W89248   6.314  43.354   0.926
16181W        W89249  38.981   1.789  13.122
16182W        W89250  38.890   1.209   0.878
16183W        W89251   6.683  40.770   4.611
16184W        W89252  27.325   6.018  13.453
16185W        W89253  35.500   3.774  13.923
16186W        W89254   9.655   3.500  11.140
16187W        W89255  28.148  17.782   4.144
16188W        W89256  18.101  23.009  10.631
16189W        W89257  26.702  34.565   4.208
16190W        W89258   2.998  25.666   3.855
16191W        W89259   3.453  26.720   2.337
16192W        W89260  19.061   4.408  13.539
16193W        W89261  41.781   7.809  11.604
16194W        W89262  38.312  26.621   3.788
16195W        W89263   3.286  35.616  11.402
16196W        W89264  29.334  11.725   4.073
16197W        W89265  34.360  39.335   1.919
16198W        W89266  18.103  39.036   4.007
16199W        W89267  10.363  17.929   4.640
16200W        W89268   7.934  31.914   0.413
16201W        W89269   7.890  25.914   1.827
16202W        W89270  42.039  11.143   0.386
16203W        W89271  25.579  27.656   0.287
16204W        W89272  38.078   7.954  12.130
16205W        W89273  40.483  14.639  10.390
16206W        W89274   1.878  26.841  14.280
16207W        W89275   7.238   1.077  11.736
16208W        W89276  38.069  29.189  11.579
16209W        W89277  17.319  28.500  11.585
16210W        W89278  21.459  11.127  11.335
16211W        W89279   9.425  39.533   3.306
16212W        W89280  28.972  37.375   3.268
16213W        W89281  13.612  16.635   0.387
16214W        W89282  30.033  25.385  14.803
16215W        W89283  20.786  14.660  14.297
16216W        W89284  16.759  41.275   0.378
16217W        W89285  25.176  10.581  12.539
16218W        W89286  17.875   1.982  12.899
16219W        W89287  23.494  17.801   2.239
16220W        W89288  16.503   3.351   0.433
16221W        W89289  27.636  31.173  12.813
16222W        W89290   5.572  40.881  11.748
16223W        W89291  32.063   3.233   3.104
16224W        W89292  41.863  43.059   3.278
16225W        W89293  16.108  20.986  13.449
16226W        W89294  44.828   9.154  10.384
16227W        W89295  35.161  16.176   3.184
16228W        W89296  44.261  38.047  14.755
16229W        W89297   5.021  35.439  14.476
16230W        W89298  35.104   6.886   0.085
16231W        W89299  11.130   4.943   0.715
16232W        W89300  37.358  11.713   2.736
16233W        W89301  23.153  13.168  13.271
16234W        W89302  10.651  37.903   4.746
16235W        W89303  39.639   2.785   0.068
16236W        W89304   6.230  19.038   1.843
16237W        W89305  29.648   3.865  13.343
16238W        W89306  28.277   9.354   3.363
16239W        W89307  24.952  28.630   2.266
16240W        W89308  11.869  41.356   1.830
16241W        W89309  28.941  44.761   4.591
16242W        W89310  34.489  39.429  10.755
16243W        W89311  43.118  29.474   1.098
16244W        W89312  27.647   1.006   4.302
16245W        W89313  29.402  25.733   2.354
16246W        W89314  43.450  27.480   1.268
16247W        W89315  15.481  25.162   1.449
16248W        W89316  16.974   3.684   3.645
16249W        W89317  10.291   9.714  11.633
16250W        W89318  30.739  28.506  10.702
16251W        W89319  32.050  16.759  11.997
16252W        W89320  22.241   6.792   3.770
16253W        W89321   7.232  19.629  12.942
16254W        W89322  29.596  36.902  13.561
16255W        W89323  22.682  17.139   5.054
16256W        W89324  43.148  37.254   3.580
16257W        W89325  30.926  32.468  11.599
16258W        W89326   2.036  43.795   2.174
16259W        W89327  30.609  13.512  11.129
16260W        W89328  39.679  30.608  11.184
16261W        W89329  15.329   6.263  12.870
16262W        W89330  21.260   7.540  11.977
16263W        W89331  15.656  18.621  11.709
16264W        W89332  18.374   7.930  12.493
16265W        W89333  18.451  31.404  14.956
16266W        W89334   4.410  28.096   0.869
16267W        W89335  28.203   1.049  13.575
16268W        W89336  39.401  28.337   4.702
16269W        W89337  28.746   6.898  11.197
16270W        W89338  20.864   1.186   1.486
16271W        W89339  30.594  15.707   3.418
16272W        W89340   5.960  41.700   3.224
16273W        W89341  26.837  30.606   1.095
16274W        W89342   4.364  38.814   0.517
16275W        W89343  22.649  15.769   4.696
16276W        W89344  22.571   8.429  11.902
16277W        W89345  43.925  25.106  13.516
16278W        W89346  11.083   3.982  13.849
16279W        W89347  10.594  13.629   3.798
16280W        W89348  31.396  24.770   2.836
16281W        W89349  11.536   7.658  12.972
16282W        W89350   0.699  17.257   2.768
16283W        W89351  40.936  44.067  12.910
16284W        W89352  20.385  35.609  13.556
16285W        W89353  16.819   2.459   3.288
16286W        W89354  14.796   6.148  11.562
16287W        W89355  39.174  21.004   2.732
16288W        W89356  16.103  14.708  12.897
16289W        W89357  20.640  41.779  11.613
16290W        W89358  25.947  17.379   1.656
16291W        W89359  44.479  25.237   3.800
16292W        W89360   5.460  38.458  13.486
16293W        W89361  11.227  25.644   0.833
16294W        W89362  21.999   5.248   4.572
16295W        W89363  10.628  34.624  13.469
16296W        W89364  44.449  24.952  14.482
16297W        W89365  19.674  15.573   2.404
16298W        W89366  39.531   6.212  13.457
16299W        W89367  19.303   1.749   4.333
16300W        W89368  21.692  37.609  14.944
16301W        W89369  39.422  18.190  11.481
16302W        W89370  22.835   1.863  14.434
16303W        W89371  35.292  12.849  13.854
16304W        W89372  23.197  12.756   3.160
16305W        W89373   8.765  38.494  13.352
16306W        W89374  34.465  13.475   0.240
16307W        W89375  36.842  42.806  11.622
16308W        W89376   4.239  40.524   4.912
16309W        W89377   2.885  36.889  14.974
16310W        W89378  18.877   8.406  13.615
16311W        W89379  39.447  24.874   2.671
16312W        W89380  44.459  19.760  14.589
16313W        W89381   0.979  11.960  10.862
16314W        W89382   5.416  14.550  13.034
16315W        W89383  37.527   5.665   0.837
16316W        W89384  13.579  21.942   2.643
16317W        W89385   8.009  44.250  13.442
16318W        W89386  23.692  11.221  12.893
16319W        W89387  12.765  18.473   1.317
16320W        W89388  42.606  26.924  13.957
16321W        W89389  36.611   8.951   4.263
16322W        W89390  40.923   8.467  14.216
16323W        W89391  10.160  42.934  13.577
16324W        W89392   7.393  23.066   4.437
16325W        W89393   3.839  15.198  13.421
16326W        W89394  39.658  26.729   2.704
16327W        W89395   0.730  26.651  14.955
16328W        W89396  20.699  13.879   0.789
16329W        W89397  44.856   6.479   3.561
16330W        W89398  32.692  23.644   3.277
16331W        W89399  13.942  31.528  11.938
16332W        W89400  12.994  16.216  11.511
16333W        W89401  32.469   6.882   0.377
16334W        W89402  14.344  20.704  11.842
16335W        W89403  28.222   3.033   0.409
16336W        W89404   5.383  12.463   0.454
16337W        W89405  16.937  25.098   2.602
16338W        W89406  15.699  23.391  14.334
16339W        W89407  32.475  22.024  12.310
16340W        W89408  26.167   0.816   1.899
16341W        W89409  24.111   8.833  13.261
16342W        W89410  32.406  29.101   0.658
16343W        W89411  12.228   0.479  14.184
16344W        W89412  20.617  37.344   4.109
16345W        W89413  16.043  25.953   1.842
16346W        W89414  38.813  10.590   1.380
16347W        W89415   2.898  21.548  14.343
16348W        W89416  22.193  17.769  12.935
16349W        W89417  13.239  37.382   3.481
16350W        W89418   8.260  18.421  11.461
16351W        W89419  29.758  28.166  10.347
16352W        W89420   5.135  20.623  13.397
16353W        W89421  38.909  38.866  10.678
16354W        W89422  11.384  30.413  11.978
16355W        W89423  12.655  35.661  11.713
16356W        W89424  44.249  32.707  12.029
16357W        W89425  23.548  31.164   2.355
16358W        W89426  17.800  33.049  14.568
16359W        W89427  25.142  35.244   4.312
16360W        W89428   3.864  31.723   3.721
16361W        W89429  37.584  17.960  12.984
16362W        W89430  17.657  40.935   0.411
16363W        W89431  24.524   8.843   4.624
16364W        W89432   6.730  12.313   1.283
16365W        W89433  38.665   1.517  14.180
16366W        W89434  18.322  21.956   1.065
16367W        W89435   9.774   8.930  13.736
16368W        W89436  35.450  14.773  11.917
16369W        W89437   6.382   8.231   1.394
16370W        W89438  21.354   8.369  12.795
16371W        W89439  26.052   6.522   3.715
16372W        W89440  12.592  27.960  11.663
16373W        W89441  13.303  28.451   4.226
16374W        W89442  29.425  44.849   4.397
16375W        W89443  18.109  12.250   1.012
16376W        W89444  28.959   5.123   2.391
16377W        W89445  31.324  33.120  11.076
16378W        W89446   8.150  24.666  10.466
16379W        W89447  33.917  12.254   3.679
16380W        W89448  11.544  29.699  11.561
16381W        W89449  32.042  10.988  12.818
16382W        W89450  15.660  15.745  11.171
16383W        W89451  31.628  31.117  13.071
16384W        W89452  17.925   2.415  14.491
16385W        W89453  22.574  42.418   3.826
16386W        W89454  41.382  28.445   4.036
16387W        W89455   6.506  10.828   1.423
16388W        W89456  43.299  16.867   0.796
16389W        W89457  29.058  43.225   3.147
16390W        W89458   7.229  16.076   4.604
16391W        W89459  44.563  34.922   0.437
16392W        W89460  38.007  29.117  10.731
16393W        W89461  15.415   4.947   3.192
16394W        W89462   7.331   8.496   4.900
16395W        W89463  38.018  13.465  13.981
16396W        W89464  24.019   4.307  14.890
16397W        W89465  27.216  26.737  14.795
16398W        W89466  19.048  43.787  13.391
16399W        W89467  33.467  37.414  11.921
16400W        W89468  26.031  11.004  14.936
16401W        W89469  24.084  16.080   5.286
16402W        W89470  28.398  33.001  12.542
16403W        W89471  17.004  25.134  11.995
16404W        W89472  24.202   0.713   2.852
16405W        W89473  27.324  15.820   1.732
16406W        W89474  35.606  29.547   4.926
16407W        W89475  34.015   5.802   3.081
16408W        W89476  10.276  27.626  12.378
16409W        W89477   8.949   9.737  11.734
16410W        W89478   3.180  20.919  14.032
16411W        W89479  29.409   4.360  12.290
16412W        W89480   7.115  37.916   0.374
16413W        W89481  38.329  29.166  12.028
16414W        W89482  35.083  28.118   2.863
16415W        W89483  35.949  20.801  11.524
16416W        W89484   5.929  23.496   2.841
16417W        W89485   4.773  26.757  13.508
16418W        W89486   7.807  40.438  14.776
16419W        W89487  24.122  29.170  14.274
16420W        W89488   5.425  21.789  12.071
16421W        W89489  33.621  35.154  14.753
16422W        W89490  23.305   7.474  13.073
16423W        W89491  12.716  30.275   2.318
16424W        W89492  24.216   5.384   2.845
16425W        W89493  38.934  26.952   2.336
16426W        W89494  18.254  30.170  11.999
16427W        W89495   4.678  18.155  14.297
16428W        W89496  24.079  10.813  11.054
16429W        W89497  43.111   2.766  11.937
16430W        W89498  42.892   7.843  10.957
16431W        W89499   9.746  27.020  12.878
16432W        W89500  18.470   2.698   0.697
16433W        W89501  13.044   3.775  11.064
16434W        W89502  10.009  38.610   4.093
16435W        W89503   1.987  14.739   1.823
16436W        W89504  15.124  22.052   4.295
16437W        W89505  28.976  32.539   0.393
16438W        W89506  14.417  24.559   3.660
16439W        W89507   5.729  42.706  14.434
16440W        W89508  16.393  24.584   3.615
16441W        W89509  40.326  38.475   1.891
16442W        W89510  12.131  25.436  13.340
16443W        W89511   8.744  17.608   0.288
16444W        W89512  14.711   6.194   4.338
16445W        W89513   1.421  19.939  12.115
16446W        W89514  23.995   3.211  14.928
16447W        W89515  40.866   0.266   2.216
16448W        W89516  18.598   1.197  11.607
16449W        W89517  24.713  15.541   3.751
16450W        W89518  41.760   0.819   3.647
16451W        W89519   7.235   4.693  11.000
16452W        W89520  18.995  28.471  14.040
16453W        W89521  26.614   7.694  11.200
16454W        W89522  10.987   2.050   0.734
16455W        W89523   6.932   1.158   4.261
16456W        W89524   6.205  33.534  14.834
16457W        W89525   0.070  43.313   3.650
16458W        W89526  39.733  34.044   2.243
16459W        W89527  27.210  11.207   1.243
16460W        W89528  41.232  18.656  10.655
16461W        W89529  42.841  11.625   3.021
16462W        W89530  20.089   8.930  13.421
16463W        W89531  39.896  33.841   2.690
16464W        W89532  18.364  13.386   2.011
16465W        W89533  29.013  22.040  13.482
16466W        W89534  22.984  37.371   4.515
16467W        W89535  16.652   6.922   1.714
16468W        W89536  15.289  24.061   1.668
16469W        W89537   5.649  34.967   0.327
16470W        W89538  44.837  36.719  13.033
16471W        W89539   0.872   4.236  12.757
16472W        W89540  26.105   0.802   0.020
16473W        W89541  44.773   2.453   3.698
16474W        W89542  15.531  33.874  11.429
16475W        W89543  29.361  15.848   4.728
16476W        W89544   8.062  37.422   3.718
16477W        W89545   9.604  38.001  13.797
16478W        W89546  17.374  28.938   0.514
16479W        W89547  30.031  37.607   4.451
16480W        W89548  40.618  22.709  14.836
16481W        W89549  15.768  31.103   2.271
16482W        W89550  11.711  38.309   4.129
16483W        W89551  11.482  34.955  10.711
16484W        W89552   6.734  40.027   3.827
16485W        W89553  21.291  14.525   3.177
16486W        W89554  21.331  23.033   1.829
16487W        W89555  20.484  30.658  11.018
16488W        W89556  33.852  28.284  14.217
16489W        W89557   9.031  13.084  11.204
16490W        W89558  36.370  17.738   4.391
16491W        W89559  42.103  12.881   1.436
16492W        W89560   9.156  21.597  10.692
16493W        W89561   9.611  18.163  12.861
16494W        W89562  39.984  23.097  11.968
16495W        W89563  24.402   9.743   2.656
16496W        W89564  12.143  43.054  12.396
16497W        W89565  42.565   3.318   1.787
16498W        W89566  37.983  33.464   9.925
16499W        W89567  44.787  21.679   2.703
16500W        W89568  14.309   9.600  12.445
16501W        W89569   9.320  24.613  14.872
16502W        W89570   6.988  41.527   2.895
16503W        W89571  13.757  13.605   5.003
16504W        W89572  17.647  27.778   0.790
16505W        W89573   6.778  18.945  12.259
16506W        W89574  19.623  38.792  11.341
16507W        W89575  38.840  28.529   0.747
16508W        W89576  17.437  14.362  10.239
16509W        W89577  19.177  40.295  11.906
16510W        W89578  22.490  39.421   3.628
16511W        W89579  32.605   1.291   4.714
16512W        W89580  42.991  37.871   0.077
16513W        W89581  37.537   2.217   1.385
16514W        W89582  26.112  39.915  12.756
16515W        W89583  29.320  41.774   4.257
16516W        W89584  22.328  32.964   0.928
16517W        W89585  25.358  42.976   1.447
16518W        W89586   9.757  35.020  10.665
16519W        W89587  40.148  11.737  14.335
16520W        W89588  21.171  43.369  13.953
16521W        W89589  31.788   6.565  14.867
16522W        W89590  11.372  41.065  10.572
16523W        W89591  33.458  40.588  10.949
16524W        W89592  15.243  23.049  12.675
16525W        W89593  44.772  38.271  11.345
16526W        W89594  19.996   3.780  10.588
16527W        W89595   2.352  20.947  14.982
16528W        W89596  35.342  36.490   3.926
16529W        W89597  24.437  31.108   2.128
16530W        W89598   1.923  14.384  13.343
16531W        W89599  20.565  28.882  12.898
16532W        W89600   7.658  11.587  11.415
16533W        W89601  14.701  26.315   4.015
16534W        W89602  12.776   8.620   3.827
16535W        W89603  30.588  22.794  13.504
16536W        W89604  14.304  10.213  14.958
16537W        W89605  14.309  18.319   3.632
16538W        W89606  10.645  29.465  12.476
16539W        W89607  27.573   4.812   1.711
16540W        W89608  24.694  21.103   1.685
16541W        W89609  31.416  42.249  14.016
16542W        W89610  18.208   5.372   0.787
16543W        W89611  18.886   7.257   2.502
16544W        W89612  32.460  30.860  10.762
16545W        W89613  32.463  31.310   0.224
16546W        W89614  42.749  29.546   0.771
16547W        W89615   0.227  41.493   0.554
16548W        W89616  10.944  29.589   1.818
16549W        W89617  29.514   1.197   4.180
16550W        W89618   1.323  21.243   3.192
16551W        W89619  11.699  15.268   3.562
16552W        W89620  22.226  35.150  11.079
16553W        W89621  28.763  40.128   3.760
16554W        W89622  28.563  14.242  12.365
16555W        W89623  33.564  28.828   2.739
16556W        W89624  11.264  34.961   3.638
16557W        W89625  19.442   2.992  10.469
16558W        W89626   8.869  42.048   1.517
16559W        W89627  16.178  39.809  13.935
16560W        W89628  42.554  16.530   2.003
16561W        W89629   0.758  13.557   4.036
16562W        W89630  11.903  23.021   0.354
16563W        W89631  22.736   3.406   5.161
16564W        W89632   1.536  39.065  12.489
16565W        W89633  29.844  19.265   2.266
16566W        W89634  12.296   3.313   0.005
16567W        W89635  42.533  17.017   3.163
16568W        W89636  12.749  44.194   0.946
16569W        W89637  19.172  38.768  12.098
16570W        W89638  32.839  40.755   0.703
16571W        W89639   5.408  38.972   2.423
16572W        W89640  21.593  35.330  14.529
16573W        W89641  26.631  15.167   1.550
16574W        W89642  15.783  34.582   1.803
16575W        W89643  36.617  26.618   3.274
16576W        W89644  13.327  42.667   9.970
16577W        W89645  40.387  21.386   5.051
16578W        W89646   2.025  29.633  12.577
16579W        W89647  39.399   0.580   0.430
16580W        W89648  33.634  16.867   1.693
16581W        W89649  32.400  36.522  12.972
16582W        W89650  40.519   8.371  12.843
16583W        W89651  30.651   0.252  14.128
16584W        W89652  28.581  10.548   1.247
16585W        W89653  17.563  39.673   0.728
16586W        W89654  31.581  23.708   2.932
16587W        W89655   2.428  32.613  12.314
16588W        W89656  15.184  27.431   0.527
16589W        W89657  28.090  44.101  13.825
16590W        W89658  44.811  13.141  13.445
16591W        W89659  14.783  33.416   0.499
16592W        W89660  28.958  16.782   0.071
16593W        W89661  42.049  33.849  14.934
16594W        W89662  21.604  17.032  13.724
16595W        W89663  41.844  14.205  12.512
16596W        W89664   2.410  31.601  14.876
16597W        W89665  26.580  24.070  13.340
16598W        W89666  17.241  29.669  14.987
16599W        W89667  15.244  30.110  14.500
16600W        W89668  37.294   1.224  11.154
16601W        W89669  33.692   8.307   1.750
16602W        W89670   2.685  33.234  11.114
16603W        W89671  16.577  20.808  14.303
16604W        W89672  10.309  44.500  13.129
16605W        W89673   2.227  42.337   2.400
16606W        W89674  34.118  22.988  14.607
16607W        W89675  28.640   0.961  13.819
16608W        W89676  36.311  34.120  11.358
16609W        W89677  37.649  38.390   3.324
16610W        W89678   6.432  15.481   2.834
16611W        W89679  32.376  34.548  12.470
16612W        W89680  33.910  14.789   0.003
16613W        W89681   0.202  12.293   1.704
16614W        W89682  41.471  42.850   4.157
16615W        W89683  16.573  17.250   4.185
16616W        W89684   9.931  22.754  13.873
16617W        W89685  14.844   6.303   0.455
16618W        W89686  16.150   4.228  12.880
16619W        W89687  33.729  44.785  11.197
16620W        W89688  34.320  29.888   1.712
16621W        W89689  29.513  20.947  14.829
16622W        W89690  39.100  38.312   1.349
16623W        W89691   1.855  28.256   0.824
16624W        W89692  44.035  37.440  11.566
16625W        W89693   3.821  41.375   3.698
16626W        W89694  38.894  27.604  10.624
16627W        W89695  17.113  16.655   1.234
16628W        W89696  31.187   2.806   1.425
16629W        W89697  25.068  20.147   1.421
16630W        W89698  17.838   2.973  13.661
16631W        W89699   1.182   1.665  11.251
16632W        W89700  43.359  26.659  11.086
16633W        W89701  29.677  38.586   1.470
16634W        W89702  38.552  42.988  13.865
16635W        W89703  41.568  22.754  13.314
16636W        W89704  30.919  35.876  13.413
16637W        W89705   7.822  15.562  13.572
16638W        W89706   4.684   2.287   0.404
16639W        W89707  27.719  41.835  12.539
16640W        W89708  16.571  32.618  12.513
16641W        W89709  27.893  37.301   2.554
16642W        W89710  38.087   2.423  13.291
16643W        W89711  39.372   0.532  13.893
16644W        W89712  30.533   0.683   0.863
16645W        W89713   0.167  41.045  11.680
16646W        W89714   8.871  18.611   0.780
16647W        W89715  18.208   1.283  10.777
16648W        W89716  18.236  14.638   1.777
16649W        W89717  28.161  18.131  13.993
16650W        W89718  16.560  27.478  14.355
16651W        W89719  40.319  39.075  13.908
16652W        W89720  32.880  29.485  14.805
16653W        W89721  19.619  27.622  14.653
16654W        W89722  17.480  22.513  11.064
16655W        W89723   8.820  37.387  11.851
16656W        W89724  30.751  29.989  12.519
16657W        W89725   4.829  11.357  14.926
16658W        W89726  43.834  20.072   1.825
16659W        W89727  11.936   7.252   1.205
16660W        W89728   5.471  13.147   1.743
16661W        W89729  23.490  25.121  10.525
16662W        W89730  24.489   9.532  12.874
16663W        W89731  27.643  27.474  14.380
16664W        W89732  39.016  24.138   0.294
16665W        W89733  34.526  36.016  13.525
16666W        W89734  37.394   3.349   3.229
16667W        W89735  40.486   7.420   5.561
16668W        W89736  10.074  17.882   9.814
16669W        W89737   0.753  25.180  14.961
16670W        W89738   6.880  28.042   4.121
16671W        W89739  29.895  24.604   3.225
16672W        W89740  44.298  38.980  12.011
16673W        W89741  32.496  22.185   3.335
16674W        W89742  37.110  24.645   3.576
16675W        W89743  44.732  22.123   4.980
16676W        W89744  32.957  40.909  12.676
16677W        W89745  35.566  28.379   3.195
16678W        W89746  16.593  38.061   3.274
16679W        W89747  33.663  34.675  12.131
16680W        W89748  35.899  25.734  14.274
16681W        W89749  31.890   5.166  14.848
16682W        W89750  29.031  21.731   4.702
16683W        W89751  15.252  42.936   0.467
16684W        W89752  25.703  32.934   0.443
16685W        W89753  30.894   8.794  12.338
16686W        W89754  39.458  12.682  10.870
16687W        W89755   1.682  21.471   2.280
16688W        W89756   1.936  35.150  14.261
16689W        W89757  28.483  28.580   2.942
16690W        W89758  20.322  15.037   4.044
16691W        W89759   8.179  11.874  12.482
16692W        W89760  36.064   2.267  13.373
16693W        W89761   6.200  34.725  14.269
16694W        W89762  17.130  22.802   1.840
16695W        W89763   0.877  15.255  11.613
16696W        W89764   6.273  29.835   0.887
16697W        W89765  21.760  28.989  13.466
16698W        W89766  33.049  22.156  13.850
16699W        W89767  15.216  24.491   3.202
16700W        W89768   5.941  10.118  11.349
16701W        W89769   9.104   9.897   0.274
16702W        W89770  30.183   9.940  11.999
16703W        W89771  15.952  35.994  12.992
16704W        W89772  41.819  19.808  11.595
16705W        W89773  14.157  37.017  12.865
16706W        W89774  42.383  44.337  10.650
16707W        W89775  14.862  26.157   1.884
16708W        W89776  22.522  42.878   1.729
16709W        W89777   0.764  20.809  13.021
16710W        W89778  37.519  11.430   5.009
16711W        W89779  34.020  19.844   1.399
16712W        W89780  34.905  31.048   3.345
16713W        W89781  21.284   8.286   4.077
16714W        W89782  18.090  22.872   1.874
16715W        W89783  21.310   1.673   4.370
16716W        W89784  17.540  20.961   4.558
16717W        W89785  41.757   0.324   1.284
16718W        W89786  37.914  43.461  14.527
16719W        W89787   5.018   6.307  14.090
16720W        W89788   4.638  25.147  12.903
16721W        W89789  38.834  18.826   0.467
16722W        W89790  39.504  15.890  11.852
16723W        W89791  36.188   2.118  11.986
16724W        W89792   4.453  16.067  12.518
16725W        W89793   5.122  42.441   4.821
16726W        W89794  34.594  25.656  13.913
16727W        W89795   5.838  34.499  10.698
16728W        W89796  33.431  10.115   1.396
16729W        W89797  34.569   0.467  14.058
16730W        W89798  24.441  39.774   3.761
16731W        W89799  39.362   4.866  13.270
16732W        W89800   7.163  34.858   2.218
16733W        W89801  33.565  26.047   1.345
16734W        W89802  37.014  37.514   5.025
16735W        W89803   5.938   0.433   1.753
16736W        W89804  33.558  16.247  14.302
16737W        W89805   2.548  34.175   2.732
16738W        W89806  11.664   7.241   4.072
16739W        W89807  10.876  28.641   2.122
16740W        W89808  43.222  40.048  12.900
16741W        W89809  28.152   4.511   0.376
16742W        W89810  30.263  12.591   4.155
16743W        W89811  29.070  30.605   0.396
16744W        W89812   0.992   7.266   0.816
16745W        W89813  16.193  33.500   3.392
16746W        W89814  13.288  10.350  12.893
16747W        W89815   2.162  27.953   4.059
16748W        W89816   3.832  30.505   4.573
16749W        W89817  12.871   0.224   0.426
16750W        W89818  17.427  40.586  12.276
16751W        W89819  14.701   3.787   3.977
16752W        W89820  24.577  17.343  13.845
16753W        W89821  16.511  21.033   2.027
16754W        W89822  42.374  44.488  12.192
16755W        W89823  30.551   8.154  14.896
16756W        W89824  17.843  23.535  12.978
16757W        W89825  16.911  26.553  10.752
16758W        W89826   8.144   1.451  11.366
16759W        W89827  24.803  41.714  12.831
16760W        W89828  22.666  29.954  13.924
16761W        W89829  20.301  21.086   1.958
16762W        W89830  40.426  38.750   0.346
16763W        W89831  17.642   0.435  13.149
16764W        W89832  13.652   8.480   0.017
16765W        W89833  35.877  28.469   1.428
16766W        W89834  21.451  41.354  11.938
16767W        W89835   6.169   2.680   3.529
16768W        W89836  29.231  44.393   4.166
16769W        W89837  38.207  38.094   1.261
16770W        W89838  35.380   5.783   2.167
16771W        W89839  39.743  43.379  14.251
16772W        W89840   7.909  26.589   2.750
16773W        W89841  24.714  34.088  13.367
16774W        W89842  44.784  41.500   3.016
16775W        W89843  31.906   3.890  14.502
16776W        W89844  30.706   8.805   0.036
16777W        W89845  42.749  25.677  12.022
16778W        W89846  20.033  17.519  14.142
16779W        W89847  19.517  38.902   3.445
16780W        W89848   4.739  12.203   3.293
16781W        W89849   1.808   0.203   3.796
16782W        W89850  20.787  34.097   4.555
16783W        W89851  42.033  13.286   2.708
16784W        W89852  13.567   4.185   1.902
16785W        W89853  19.782  27.021  10.673
16786W        W89854   7.860  21.273  12.771
16787W        W89855  33.838   0.685  11.512
16788W        W89856  15.085  19.383  10.473
16789W        W89857   9.600   3.867   4.536
16790W        W89858  41.021  24.169  12.146
16791W        W89859  38.470  10.164   3.552
16792W        W89860  37.512  32.097   4.515
16793W        W89861  37.725   3.094   4.728
16794W        W89862   2.365  13.701  14.930
16795W        W89863  15.794   3.782  12.365
16796W        W89864  33.943  38.615  14.551
16797W        W89865   3.744  18.463  11.120
16798W        W89866   8.742  44.291  13.083
16799W        W89867  16.174  28.736   0.766
16800W        W89868  13.649  20.583  11.087
16801W        W89869   4.442  24.693  10.627
16802W        W89870   4.705  41.051  12.805
16803W        W89871  37.363  41.936   4.647
16804W        W89872  21.923  10.637  14.319
16805W        W89873  27.142  33.542   0.318
16806W        W89874  18.281   9.809   2.300
16807W        W89875  32.503  12.378   1.749
16808W        W89876  21.118   1.965  13.096
16809W        W89877  25.090  17.332   5.035
16810W        W89878  13.676  30.640  14.002
16811W        W89879  28.960  26.408  14.296
16812W        W89880  23.674   2.962  13.472
16813W        W89881  23.362  43.936   3.364
16814W        W89882  10.811  19.463  14.938
16815W        W89883  39.558  11.840  11.422
16816W        W89884  17.889  21.625  13.731
16817W        W89885  15.825  30.166   4.999
16818W        W89886  21.288  13.598  14.800
16819W        W89887  16.186  17.342  11.591
16820W        W89888  32.547  25.516  13.671
16821W        W89889  24.571  20.492   3.733
16822W        W89890  17.327  33.074   0.468
16823W        W89891  30.027  28.743   2.071
16824W        W89892  40.518  34.166  14.960
16825W        W89893  40.867  14.918  11.155
16826W        W89894  16.189  32.403   3.058
16827W        W89895  15.863  23.152  12.899
16828W        W89896  16.783   4.652  13.369
16829W        W89897   2.952  29.060  12.520
16830W        W89898  39.616  42.789   0.598
16831W        W89899  29.860  35.398  11.178
16832W        W89900  19.205  41.762   2.862
16833W        W89901  41.549  16.302   2.697
16834W        W89902  38.480  22.117  12.765
16835W        W89903  20.981  44.771   2.815
16836W        W89904  21.396  13.713   4.860
16837W        W89905  28.080  19.203   4.277
16838W        W89906  31.592  32.875  13.437
16839W        W89907  28.667  14.157   2.303
16840W        W89908  32.029  44.277   2.224
16841W        W89909  43.221   4.226  12.759
16842W        W89910  19.550  25.448  12.038
16843W        W89911  42.183  37.896   2.336
16844W        W89912   8.104  22.018  12.582
16845W        W89913  42.916   7.358  10.772
16846W        W89914   2.738  41.429   4.034
16847W        W89915  23.515  18.638  12.001
16848W        W89916  35.072  13.271   1.743
16849W        W89917  24.032   6.493  12.367
16850W        W89918  19.897  22.490   0.248
16851W        W89919  27.838   5.921  13.531
16852W        W89920  21.136  14.348   0.253
16853W        W89921   8.688   2.416  14.638
16854W        W89922  43.248  43.048   3.634
16855W        W89923  30.996   1.769  14.928
16856W        W89924  23.048  36.774   2.286
16857W        W89925  44.381   1.054   3.821
16858W        W89926  43.545   4.245   4.874
16859W        W89927  33.389  38.869   0.799
16860W        W89928  27.052  16.554  10.517
16861W        W89929  27.205  18.609   3.302
16862W        W89930  29.467   3.908  12.058
16863W        W89931  30.843   0.304  11.542
16864W        W89932  21.103  12.136   4.385
16865W        W89933  33.822  20.547   4.421
16866W        W89934  20.878   9.451   1.420
16867W        W89935  42.445  15.538  12.370
16868W        W89936  26.229  43.776   1.904
16869W        W89937  31.450   8.379   0.308
16870W        W89938   3.754   5.431   1.695
16871W        W89939  41.970  34.204  13.505
16872W        W89940   0.796   1.505   4.175
16873W        W89941  42.391   5.305  11.487
16874W        W89942  17.126   3.274  11.507
16875W        W89943  34.204  30.975   2.389
16876W        W89944  10.599  17.226  13.880
16877W        W89945  22.595  20.078  10.135
16878W        W89946  40.940  19.493  10.752
16879W        W89947  33.609  39.425   1.266
16880W        W89948  35.014  42.826   1.870
16881W        W89949  42.672   8.614  13.869
16882W        W89950   4.118  29.481  13.477
16883W        W89951   0.207  12.755   2.857
16884W        W89952   8.168  20.621   3.573
16885W        W89953  13.822  21.305   4.161
16886W        W89954   1.457  12.429  11.942
16887W        W89955  25.622  14.764  13.295
16888W        W89956  25.914  25.217  14.351
16889W        W89957  42.124  12.654  12.892
16890W        W89958   1.368  44.915  11.915
16891W        W89959  15.766  11.277  10.664
16892W        W89960  26.740   2.278  14.822
16893W        W89961   9.781  25.467   0.977
16894W        W89962  28.641  15.630  14.260
16895W        W89963   3.218  34.591   0.451
16896W        W89964  41.511  20.048   2.146
16897W        W89965  39.799  21.593   0.172
16898W        W89966  31.411  24.306   0.214
16899W        W89967   8.230   6.740  11.896
16900W        W89968  43.995  10.602   3.296
16901W        W89969  23.079   8.308  11.973
16902W        W89970   9.654  41.260   3.771
16903W        W89971  42.896  35.233   2.729
16904W        W89972  29.392  33.859  11.479
16905W        W89973  26.384   4.747   3.318
16906W        W89974  24.519  13.584   4.542
16907W        W89975  28.135   4.825   3.989
16908W        W89976  11.600   8.226   2.681
16909W        W89977  32.486   9.521  12.026
16910W        W89978  39.948  11.235  10.341
16911W        W89979  13.559  11.288  12.925
16912W        W89980  25.485   2.281  11.913
16913W        W89981  20.509  37.800  11.520
16914W        W89982  19.652  22.715  10.695
16915W        W89983  21.287  23.351  11.687
16916W        W89984  20.068  24.742   3.706
16917W        W89985   8.309  21.739   1.760
16918W        W89986  44.614  15.861  10.986
16919W        W89987  35.997  19.506   4.084
16920W        W89988  37.367   4.997   4.614
16921W        W89989  17.045  37.972   2.664
16922W        W89990   7.760   6.081  13.376
16923W        W89991  34.492   5.368  11.661
16924W        W89992  44.668  43.325  13.518
16925W        W89993  10.570   2.012   3.043
16926W        W89994   4.631  12.103   4.264
16927W        W89995  26.388  41.511  13.831
16928W        W89996  23.774  34.575  10.719
16929W        W89997  42.463  30.141  12.553
16930W        W89998  31.481  30.877   1.354
16931W        W89999  28.630   1.837  13.937
16932W        W90000  36.763  15.666   2.597
16933W        W90001  41.020  39.543   0.236
16934W        W90002   7.568  25.028  10.222
16935W        W90003   0.488  14.632   1.926
16936W        W90004  18.610  22.125  11.567
16937W        W90005  35.042   5.948  14.943
16938W        W90006   1.450  10.902   2.656
16939W        W90007  17.536  24.933   0.604
16940W        W90008  32.146  18.791  11.136
16941W        W90009  12.171  35.088   3.165
16942W        W90010  24.230   4.507  11.344
16943W        W90011  30.877  10.914   4.206
16944W        W90012  25.131  11.575   3.824
16945W        W90013  22.031   6.986   0.919
16946W        W90014  23.103  36.618   0.081
16947W        W90015  40.604  43.037   2.297
16948W        W90016  44.011  13.508   3.377
16949W        W90017  33.007   5.991  11.597
16950W        W90018  14.076  19.349   2.744
16951W        W90019  35.233  18.814   1.252
16952W        W90020  30.165   1.472  13.561
16953W        W90021  20.671  38.564   0.308
16954W        W90022  22.144  24.794   3.192
16955W        W90023  44.826   6.799  14.823
16956W        W90024  13.287  12.926  11.062
16957W        W90025  34.066  12.165  14.289
16958W        W90026  21.576  39.770   1.761
16959W        W90027  43.234  39.369   1.845
16960W        W90028  33.499  10.431   4.907
16961W        W90029  28.957  26.132   1.740
16962W        W90030  33.109  15.111   3.239
16963W        W90031  35.893  17.581   4.514
16964W        W90032  44.776  42.882   3.776
16965W        W90033  32.234  10.821   3.921
16966W        W90034  28.165   3.161   1.801
16967W        W90035  38.010   4.896  12.571
16968W        W90036  32.542   8.782  14.316
16969W        W90037  40.085   1.808   0.004
16970W        W90038  22.081  43.241  14.550
16971W        W90039  11.374  40.710  11.424
16972W        W90040  22.663   4.819   0.691
16973W        W90041  40.503   7.137   2.762
16974W        W90042  31.457  30.469  11.456
16975W        W90043  15.771  35.659  13.782
16976W        W90044   5.711  43.982  11.374
16977W        W90045   9.173  31.709   3.243
16978W        W90046   8.663  42.431   3.238
16979W        W90047   1.799  28.078  14.875
16980W        W90048  15.690  43.955   0.797
16981W        W90049   6.307  35.812  12.353
16982W        W90050  27.929  35.137   0.884
16983W        W90051  42.007  38.481   1.164
16984W        W90052   2.038  25.675   4.824
16985W        W90053  34.556  28.983  13.840
16986W        W90054   8.172  18.655  11.923
16987W        W90055  38.977  15.795   4.614
16988W        W90056   1.015   0.803   3.817
16989W        W90057  27.959  28.915  12.432
16990W        W90058  23.203  31.978   3.476
16991W        W90059   1.173  15.713  12.346
16992W        W90060  35.115  35.410  10.468
16993W        W90061  26.514  21.240  11.570
16994W        W90062  29.230  14.098  14.106
16995W        W90063  17.111  36.593  13.275
16996W        W90064  17.059   1.802   2.809
16997W        W90065  12.437  37.372  12.450
16998W        W90066  16.858  14.261  14.027
16999W        W90067  26.509  15.347   2.229
17000W        W90068   3.373   9.126   1.632
17001W        W90069   4.540  21.522  10.682
17002W        W90070  43.787  21.672   2.605
17003W        W90071  25.452  35.176   0.804
17004W        W90072  37.496  23.532  13.247
17005W        W90073   0.201   2.314  12.510
17006W        W90074   8.731  36.112   0.952
17007W        W90075  41.730  10.309   1.290
17008W        W90076   6.461  15.283   0.286
17009W        W90077  28.231   7.133  14.388
17010W        W90078  44.032  37.941  12.592
17011W        W90079  17.318  36.099   0.320
17012W        W90080  42.244  20.055   0.877
17013W        W90081  12.104  43.752   2.336
17014W        W90082  26.661  31.595   2.452
17015W        W90083  17.541  10.078  12.484
17016W        W90084  10.263  29.282   4.519
17017W        W90085  42.029  37.860   2.846
17018W        W90086  26.409  17.031  14.290
17019W        W90087  41.134  41.498  12.090
17020W        W90088  37.306  19.507   3.642
17021W        W90089  18.756  36.097   0.692
17022W        W90090  21.811  36.830  14.530
17023W        W90091   5.815  10.789   4.574
17024W        W90092  34.051  30.067  13.809
17025W        W90093  12.064  26.176  14.780
17026W        W90094  19.057   4.377  14.557
17027W        W90095   7.335   7.230   3.575
17028W        W90096  23.519  19.265   1.320
17029W        W90097  28.892  22.692  14.870
17030W        W90098  21.988  44.029  13.633
17031W        W90099  19.769  27.311   4.157
17032W        W90100  35.039  43.106  10.623
17033W        W90101   7.274   2.358   3.250
17034W        W90102  29.415  34.913  14.376
17035W        W90103   9.556   3.261   4.076
17036W        W90104  38.306  12.073   1.718
17037W        W90105  29.684  31.488  12.552
17038W        W90106  30.404  31.922   4.758
17039W        W90107   2.846   1.274  13.455
17040W        W90108  39.542  24.793  11.586
17041W        W90109  11.297   6.821  11.628
17042W        W90110  24.735  42.459   1.413
17043W        W90111   4.822  42.884   3.652
17044W        W90112   0.387  36.971   4.106
17045W        W90113  31.819  42.926   3.545
17046W        W90114  10.309  44.391  11.503
17047W        W90115  18.842  22.124   4.889
17048W        W90116   4.756  32.565  12.639
17049W        W90117  18.884  17.228   2.346
17050W        W90118  40.748  15.563  13.062
17051W        W90119  12.560  38.817   1.870
17052W        W90120  17.633  25.165  14.053
17053W        W90121  23.187  34.291   3.401
17054W        W90122  42.619  25.702  14.294
17055W        W90123  41.282  25.395  11.005
17056W        W90124  29.381  33.355   3.793
17057W        W90125   9.852   3.236  13.447
17058W        W90126   4.527  24.586  12.841
17059W        W90127  37.516  39.528   2.708
17060W        W90128  25.937  39.554   1.165
17061W        W90129  21.513  11.851   0.316
17062W        W90130  31.423  17.051   1.662
17063W        W90131   5.839   3.284   4.825
17064W        W90132  19.675   8.783   0.985
17065W        W90133  38.428  35.640   1.958
17066W        W90134   9.491  17.586   1.973
17067W        W90135  12.093   5.314   0.425
17068W        W90136  19.933  36.012   1.824
17069W        W90137  24.154  24.756   1.311
17070W        W90138  30.658   1.970   0.253
17071W        W90139  21.098  27.923  11.132
17072W        W90140  28.474  43.875  10.957
17073W        W90141  30.939  36.069  12.916
17074W        W90142  38.967  44.532  11.113
17075W        W90143   6.947  31.564  12.637
17076W        W90144  10.242  12.809  11.559
17077W        W90145  28.058   6.860   2.927
17078W        W90146  12.804   3.903   4.756
17079W        W90147  35.508   4.825  11.140
17080W        W90148  26.112  27.778   0.057
17081W        W90149  34.579  28.321   0.720
17082W        W90150  36.604  18.848  13.336
17083W        W90151   2.690  41.913  12.983
17084W        W90152  43.490  12.856  10.684
17085W        W90153  29.029   8.135  13.898
17086W        W90154  40.204   5.647  13.935
17087W        W90155  24.488  27.441   0.848
17088W        W90156  42.396  36.864   4.047
17089W        W90157   8.622  40.284  11.266
17090W        W90158  31.795  43.761   0.925
17091W        W90159   8.821  33.394  11.597
17092W        W90160  13.365  37.935  14.405
17093W        W90161  19.267  28.630   1.743
17094W        W90162   5.461   5.936   2.616
17095W        W90163   2.977  35.133   1.651
17096W        W90164  20.357  23.621   0.176
17097W        W90165  42.857  39.150  12.079
17098W        W90166  40.438   6.129  10.543
17099W        W90167  32.432   0.967  12.893
17100W        W90168  41.782  40.853  12.028
17101W        W90169  29.092  28.407   0.978
17102W        W90170   0.388  42.372  12.157
17103W        W90171  41.067  14.622   2.109
17104W        W90172  27.512  35.083   1.203
17105W        W90173  16.438  35.366  13.640
17106W        W90174  12.041  10.713  12.229
17107W        W90175   9.904  16.801   5.470
17108W        W90176  20.528  33.680   0.745
17109W        W90177  34.482  12.065  10.592
17110W        W90178  38.266  22.771  14.552
17111W        W90179   2.841  21.420  11.990
17112W        W90180  20.586  11.391   4.732
17113W        W90181  29.124  41.298   4.177
17114W        W90182   4.725  32.348  10.117
17115W        W90183  40.089   0.363  14.874
17116W        W90184   0.878  36.301   0.792
17117W        W90185  13.728   6.271   3.480
17118W        W90186   1.000  17.460  12.847
17119W        W90187  20.262  31.795  12.465
17120W        W90188  28.438  14.352  11.103
17121W        W90189   2.287   5.323  13.261
17122W        W90190  42.329  31.769   3.533
17123W        W90191   2.314  17.607  12.160
17124W        W90192   2.321  13.400  11.122
17125W        W90193  26.288  15.054   2.843
17126W        W90194   8.623   9.320  10.575
17127W        W90195  42.976  36.903   3.232
17128W        W90196  31.421  20.606  10.754
17129W        W90197  42.508  11.191  12.243
17130W        W90198  21.674   0.772   5.052
17131W        W90199  19.088  34.482   3.177
17132W        W90200  22.978  42.858   1.377
17133W        W90201  25.291   9.883  11.036
17134W        W90202  22.056  40.197   0.941
17135W        W90203  33.053  17.478  13.974
17136W        W90204  39.848  31.572   0.018
17137W        W90205  42.416  15.781   0.875
17138W        W90206  32.989  14.582   1.796
17139W        W90207  23.553   0.449  10.651
17140W        W90208  17.745  31.016  13.881
17141W        W90209  15.705  38.699  13.453
17142W        W90210  25.709  35.939   0.944
17143W        W90211  27.386   6.856  12.524
17144W        W90212   2.792  27.336  14.286
17145W        W90213  34.295  13.825  10.716
17146W        W90214   0.581  29.693  14.286
17147W        W90215   7.890  29.143  12.825
17148W        W90216  13.727   2.658   4.139
17149W        W90217  10.669  10.652   4.125
17150W        W90218  29.121  28.346  11.026
17151W        W90219  19.170  28.890   2.204
17152W        W90220  31.944  26.428   1.339
17153W        W90221  35.354  32.120  14.045
17154W        W90222  23.054  31.562   3.821
17155W        W90223  37.510  12.456   0.433
17156W        W90224  34.905  28.551  12.888
17157W        W90225   7.395   1.343  13.901
17158W        W90226   5.217  20.259   4.060
17159W        W90227  41.055   5.603  11.368
17160W        W90228   1.026   2.923   4.253
17161W        W90229   1.718   9.181  12.316
17162W        W90230   7.812  37.281   0.546
17163W        W90231  34.623   8.462   1.653
17164W        W90232   0.824  38.160  12.963
17165W        W90233  23.564  10.206  12.050
17166W        W90234  18.328  42.663  10.718
17167W        W90235   9.262  29.114   3.343
17168W        W90236  43.255   2.405  12.660
17169W        W90237  27.422  30.919  11.979
17170W        W90238   2.975  21.123   1.291
17171W        W90239  26.689  15.127  11.858
17172W        W90240  16.265  35.386  11.502
17173W        W90241  24.910   0.536   0.352
17174W        W90242  41.990  15.385  13.309
17175W        W90243  37.187   0.208  11.967
17176W        W90244   6.402  18.378  10.967
17177W        W90245  10.665   1.323   0.715
17178W        W90246  17.101  14.713  12.997
17179W        W90247   2.457  33.959   1.875
17180W        W90248  19.156  42.006   2.228
17181W        W90249  39.567  42.146  14.278
17182W        W90250   9.749  22.993  12.140
17183W        W90251  18.401  19.483  11.178
17184W        W90252   9.089  21.676  11.563
17185W        W90253  35.546   0.849  11.092
17186W        W90254  16.593  43.472  11.559
17187W        W90255  24.104  39.054   4.580
17188W        W90256   3.440  27.646  14.460
17189W        W90257  35.751  17.120  10.714
17190W        W90258  27.224   0.287   1.873
17191W        W90259  10.243  36.373   0.969
17192W        W90260  24.214  32.037   3.096
17193W        W90261  25.138  16.780   2.349
17194W        W90262  11.292  40.997  13.844
17195W        W90263  11.646  36.999  13.616
17196W        W90264  34.982  37.641   4.995
17197W        W90265  38.799   3.511   3.731
17198W        W90266  13.830  19.538  11.433
17199W        W90267  14.249  13.066   2.242
17200W        W90268  32.083  26.456   1.840
17201W        W90269  17.021   6.635   4.210
17202W        W90270  31.884  41.368   2.198
17203W        W90271   0.984  35.284  10.744
17204W        W90272   9.542   5.854  10.844
17205W        W90273  19.515   0.265  12.852
17206W        W90274  25.284  42.010   1.411
17207W        W90275   1.882  36.306  11.007
17208W        W90276   6.712  20.701   0.836
17209W        W90277  32.454  20.611   2.513
17210W        W90278  13.548  18.796  12.971
17211W        W90279  28.227  36.159   4.111
17212W        W90280  38.293   0.051  12.945
17213W        W90281  27.213  27.435   4.052
17214W        W90282   2.261  36.329  12.655
17215W        W90283   8.851  37.961   0.530
17216W        W90284  35.867  31.039   4.793
17217W        W90285  24.494  24.181  10.651
17218W        W90286  23.434  35.179   2.791
17219W        W90287   2.378  18.113   1.956
17220W        W90288  14.648  15.814  12.638
17221W        W90289  17.874  15.132  13.023
17222W        W90290  39.028  42.832   3.139
17223W        W90291  41.748  26.617   1.919
17224W        W90292  26.109  29.052  12.057
17225W        W90293   1.263  19.306   3.568
17226W        W90294   9.865  37.839   0.195
17227W        W90295  38.966  24.495  12.511
17228W        W90296  17.463  28.068   1.428
17229W        W90297  15.873  40.845   3.741
17230W        W90298  15.895  38.814   0.902
17231W        W90299  29.941  16.668   4.123
17232W        W90300   0.667  10.811  12.498
17233W        W90301  36.766  43.407   4.828
17234W        W90302   7.812  16.627  13.945
17235W        W90303  30.162  12.718  13.378
17236W        W90304   0.949  44.277   3.168
17237W        W90305  43.845  12.216   4.396
17238W        W90306  22.572  23.746  11.673
17239W        W90307  28.476  11.589   0.999
17240W        W90308  24.923  42.159   5.110
17241W        W90309  16.802  31.135  10.756
17242W        W90310  13.808  22.980  13.859
17243W        W90311  31.016  43.313  14.036
17244W        W90312  36.479  19.547  10.797
17245W        W90313  36.624  15.500  12.454
17246W        W90314  40.609   8.401  11.048
17247W        W90315  29.526  43.464   4.102
17248W        W90316   4.135  10.310   2.341
17249W        W90317  15.318   1.493   0.647
17250W        W90318  18.248  25.061  11.609
17251W        W90319  16.281  43.156   2.840
17252W        W90320  35.426   1.844   0.898
17253W        W90321  14.090  10.827  11.657
17254W        W90322   3.964  14.075   3.632
17255W        W90323  32.935   4.475   3.681
17256W        W90324   3.659   3.409  13.854
17257W        W90325  10.407  14.850   3.842
17258W        W90326  14.252  22.976  11.977
17259W        W90327  31.818  31.279   1.461
17260W        W90328  11.421  29.367  13.485
17261W        W90329  24.517  43.693   1.397
17262W        W90330  19.386  24.700   3.269
17263W        W90331  30.104  24.751  13.386
17264W        W90332  22.936   8.825  13.879
17265W        W90333  41.021  42.329   1.949
17266W        W90334  17.808  34.325  11.165
17267W        W90335  20.834  25.139   0.395
17268W        W90336  20.348  26.417  12.617
17269W        W90337  35.134  33.440  10.215
17270W        W90338  16.105  29.088   3.525
17271W        W90339  30.648  24.043  10.512
17272W        W90340   7.909  30.385   5.254
17273W        W90341   3.770  34.309   2.397
17274W        W90342  39.329   2.089  12.383
17275W        W90343  10.511   2.359  10.854
17276W        W90344  29.962  26.596  13.035
17277W        W90345  36.449  25.931  14.600
17278W        W90346  37.420  13.887  11.071
17279W        W90347  41.972  33.928   4.572
17280W        W90348   5.017  24.621   4.066
17281W        W90349  10.325   7.956   1.780
17282W        W90350   2.762  19.360  12.209
17283W        W90351  43.772  13.181   0.873
17284W        W90352   1.240  19.013  12.011
17285W        W90353  29.355   0.929  11.586
17286W        W90354   3.836  29.993  14.304
17287W        W90355  12.619  37.793   1.756
17288W        W90356  31.554  30.363   1.407
17289W        W90357  37.351  29.538   1.263
17290W        W90358  14.561  35.339   0.650
17291W        W90359  41.788  16.010   1.422
17292W        W90360  16.520  14.324   1.933
17293W        W90361  44.529  15.856   4.308
17294W        W90362  44.792  41.811   0.686
17295W        W90363   0.909  31.561   1.585
17296W        W90364   4.283   2.831  14.782
17297W        W90365   4.837  17.149   0.697
17298W        W90366  34.947  32.389  14.416
17299W        W90367   6.355  21.322   1.343
17300W        W90368  26.990  26.989   4.241
17301W        W90369  15.082  38.817   0.622
17302W        W90370  14.322  15.788   4.700
17303W        W90371  42.700   4.753   2.642
17304W        W90372  34.626  37.040   4.304
17305W        W90373  44.404   6.420   3.256
17306W        W90374   4.026  43.446   0.359
17307W        W90375  33.495  35.687   0.753
17308W        W90376  33.424  12.523   4.750
17309W        W90377  10.594  18.316   2.440
17310W        W90378  29.961   7.623   4.170
17311W        W90379  19.505  35.998  13.847
17312W        W90380  36.911  30.529  11.948
17313W        W90381  36.409   3.896   3.554
17314W        W90382  26.439   4.805   0.894
17315W        W90383  38.830  38.498   0.957
17316W        W90384   2.315  21.321   3.279
17317W        W90385  23.412  38.813   1.853
17318W        W90386  16.654   9.670  12.826
17319W        W90387  39.324  44.449   2.363
17320W        W90388  44.997  15.071   3.089
17321W        W90389   1.048  38.426   4.051
17322W        W90390  18.830  43.453   2.674
17323W        W90391  13.874  21.222  13.466
17324W        W90392  40.816  28.631  12.031
17325W        W90393   8.798   5.990   0.335
17326W        W90394  37.813  30.071   0.405
17327W        W90395   4.906  25.696  14.381
17328W        W90396  42.331  41.908  13.524
17329W        W90397  24.015  27.519  14.883
17330W        W90398  21.410  20.049   1.766
17331W        W90399   3.398  44.319  12.863
17332W        W90400  36.939   9.365  12.203
17333W        W90401   6.217  37.417  12.056
17334W        W90402  28.229   8.580  11.505
17335W        W90403  15.302  38.869   4.108
17336W        W90404  24.208  14.697   3.835
17337W        W90405   8.726  20.983   0.821
17338W        W90406  42.342  11.796  12.898
17339W        W90407  15.390   1.510  11.997
17340W        W90408  15.618  35.039   1.994
17341W        W90409  40.883  37.757  13.727
17342W        W90410  18.137  30.633  13.731
17343W        W90411  38.016  43.741   2.848
17344W        W90412  12.843  16.125   0.721
17345W        W90413   7.938  24.049  12.442
17346W        W90414  36.721  37.851   2.476
17347W        W90415  15.316  23.750  14.384
17348W        W90416  27.703  12.185  13.325
17349W        W90417  34.057  28.728   2.946
17350W        W90418  43.434  14.819   0.192
17351W        W90419   9.689  17.217   2.427
17352W        W90420  13.148  24.621   2.319
17353W        W90421   2.147   9.291   4.352
17354W        W90422   5.179  28.072  12.584
17355W        W90423  36.927  29.449   4.584
17356W        W90424  19.822  25.323  11.168
17357W        W90425   4.766  34.114  13.954
17358W        W90426  25.521   2.084  10.890
17359W        W90427  38.054  21.305  10.273
17360W        W90428  40.522  14.713  12.378
17361W        W90429  18.346   3.417   0.333
17362W        W90430  21.027  16.167  13.414
17363W        W90431   1.858  20.020  13.168
17364W        W90432  28.382  30.171  12.432
17365W        W90433   5.405  21.096   0.818
17366W        W90434  28.424  18.328  12.056
17367W        W90435  38.658  20.139   0.275
17368W        W90436  40.421   0.287  13.335
17369W        W90437   1.216  22.520   2.650
17370W        W90438  40.036  22.239  12.894
17371W        W90439  31.190  14.246  12.407
17372W        W90440  43.003  44.312   0.927
17373W        W90441  14.733  10.137  13.067
17374W        W90442  28.903   9.848  14.595
17375W        W90443  17.994   4.745   4.324
17376W        W90444  20.023  41.906  13.682
17377W        W90445   6.163  34.979   0.386
17378W        W90446  17.333  32.126   0.896
17379W        W90447  15.219   4.481  12.527
17380W        W90448  42.167  35.028  14.012
17381W        W90449  44.450   9.001   1.185
17382W        W90450  24.257  35.250  12.820
17383W        W90451   5.576   3.367   0.986
17384W        W90452  29.063  24.439   0.100
17385W        W90453  44.613  33.873  14.712
17386W        W90454  13.174  13.795  11.051
17387W        W90455  12.265  30.593   2.283
17388W        W90456  42.505   8.139  13.927
17389W        W90457  27.855  33.131   1.845
17390W        W90458  14.089  20.137  14.750
17391W        W90459  14.057  10.059   1.035
17392W        W90460  37.337   4.263  12.265
17393W        W90461  33.971   8.952   2.171
17394W        W90462  32.891  17.576   2.798
17395W        W90463  40.393  30.360   3.155
17396W        W90464  41.970  12.389   1.364
17397W        W90465   1.921   2.388   0.624
17398W        W90466  31.044  12.666   0.320
17399W        W90467   6.061   2.875  10.688
17400W        W90468  31.595  35.526  14.264
17401W        W90469  10.567  19.770   2.374
17402W        W90470  23.102  20.997  14.289
17403W        W90471  18.345  25.083   4.620
17404W        W90472  11.961  27.710  13.046
17405W        W90473  38.417  21.589   1.737
17406W        W90474  24.534  19.234  14.852
17407W        W90475   2.477   5.320   3.202
17408W        W90476  21.462  13.098  13.417
17409W        W90477  32.964   3.502  11.855
17410W        W90478  13.149  21.639  14.686
17411W        W90479  25.588  29.250   1.851
17412W        W90480  14.814  29.052  14.880
17413W        W90481  24.193   1.774  10.562
17414W        W90482  31.818   4.838  12.124
17415W        W90483  23.210  40.404   1.279
17416W        W90484   1.002  21.579  10.644
17417W        W90485  39.992  23.560  12.263
17418W        W90486  13.265  32.212  13.560
17419W        W90487  27.882  19.991  10.701
17420W        W90488  20.574   1.609  12.182
17421W        W90489  40.048  12.418   3.174
17422W        W90490  17.133  34.068  11.574
17423W        W90491  21.106  41.400  11.057
17424W        W90492   8.894  10.443  11.153
17425W        W90493  40.539  23.957   0.211
17426W        W90494  33.728  24.556   3.388
17427W        W90495  24.653  10.381  14.585
17428W        W90496  35.300   1.169   3.043
17429W        W90497  27.756  23.995   4.967
17430W        W90498  37.749   7.921   1.742
17431W        W90499   0.390  27.154   2.646
17432W        W90500  22.560   4.898   0.203
17433W        W90501   4.282   5.460   1.719
17434W        W90502  14.832  31.700   2.723
17435W        W90503   8.933  28.090  13.310
17436W        W90504   9.648  42.010   0.864
17437W        W90505  13.858   9.941   4.881
17438W        W90506  41.731  33.033   3.071
17439W        W90507  20.083  31.854   1.965
17440W        W90508  15.390   6.173   3.553
17441W        W90509  13.105   5.877   3.240
17442W        W90510  40.961   2.494   2.654
17443W        W90511  31.500  29.588   0.881
17444W        W90512   1.946  25.056  11.884
17445W        W90513  12.839  39.572  14.573
17446W        W90514  16.094  21.752   3.613
17447W        W90515  13.872  14.041  14.953
17448W        W90516  38.069  31.713  13.000
17449W        W90517   4.926  11.372   0.786
17450W        W90518  13.735  26.169   0.482
17451W        W90519  29.558   8.871   0.898
17452W        W90520  40.556  18.693  12.460
17453W        W90521   4.003   7.499  13.942
17454W        W90522  37.616  17.785  14.320
17455W        W90523  14.886  24.505   2.737
17456W        W90524   7.023  10.803  13.368
17457W        W90525  11.763   2.819   4.074
17458W        W90526  34.690   2.944  14.488
17459W        W90527  20.223  44.224   1.191
17460W        W90528   4.174  35.798   0.418
17461W        W90529   6.984  38.091   0.843
17462W        W90530   1.362  10.860  12.033
17463W        W90531   1.973  23.685  12.345
17464W        W90532  30.677  44.490   2.695
17465W        W90533  39.084  43.322   3.269
17466W        W90534  11.588  31.811   4.183
17467W        W90535  28.034   0.322   1.361
17468W        W90536  41.547  18.686  11.073
17469W        W90537  22.253  31.998  11.587
17470W        W90538  38.298  24.562   0.889
17471W        W90539  31.016   0.956   0.771
17472W        W90540  31.218  40.672   4.259
17473W        W90541   8.826  30.430  13.409
17474W        W90542  34.854  23.712   2.112
17475W        W90543  28.076   9.834  12.897
17476W        W90544  43.701  25.960  14.094
17477W        W90545  29.404  20.605   1.791
17478W        W90546  15.721  28.809   3.689
17479W        W90547  43.431  12.976  11.663
17480W        W90548  22.441   3.543   1.926
17481W        W90549  18.346  13.392  11.890
17482W        W90550   4.064  34.933   3.175
17483W        W90551  31.098  30.054  14.397
17484W        W90552  12.324  18.269   2.636
17485W        W90553  14.797  10.806   0.242
17486W        W90554  44.483  13.622  11.992
17487W        W90555  39.788  42.245   1.785
17488W        W90556  16.673  21.948   2.369
17489W        W90557   9.396  23.699   1.753
17490W        W90558  38.448  24.963   1.732
17491W        W90559  27.785  14.094   1.577
17492W        W90560  37.179  20.004  13.348
17493W        W90561  18.216  43.864   0.441
17494W        W90562   5.956   6.758   2.756
17495W        W90563   2.263  16.065   1.866
17496W        W90564   1.333  10.667  14.379
17497W        W90565   0.466   7.345   0.802
17498W        W90566   0.368   2.363  13.830
17499W        W90567  19.524  17.136   0.776
17500W        W90568  38.473  28.652  12.049
17501W        W90569  34.928   2.782   1.697
17502W        W90570  29.504  38.774   0.930
17503W        W90571  44.282  12.945   1.746
17504W        W90572  11.140  30.076  12.302
17505W        W90573   2.824  21.929  12.057
17506W        W90574  24.790  30.923   0.395
17507W        W90575   5.847  12.399   0.911
17508W        W90576  26.582  38.416   0.300
17509W        W90577   7.204  44.858   1.300
17510W        W90578  41.106   5.720  14.031
17511W        W90579   2.776  29.334   0.706
17512W        W90580   8.516  15.906  12.558
17513W        W90581   7.439  23.976  11.173
17514W        W90582  33.536  41.943   1.871
17515W        W90583  29.569  22.510   3.900
17516W        W90584   6.421  13.161  14.200
17517W        W90585  33.537  12.802  12.138
17518W        W90586  34.114   9.766  12.149
17519W        W90587  28.694  38.451  14.109
17520W        W90588  29.534  40.311  13.991
17521W        W90589  36.006  23.048  12.046
17522W        W90590  39.415   6.772   4.519
17523W        W90591  15.366  41.243  13.230
17524W        W90592  23.598  40.999  14.427
17525W        W90593   9.876   8.681   4.313
17526W        W90594  11.730  19.969   3.179
17527W        W90595  26.617   2.749  11.422
17528W        W90596  18.785  19.650   2.419
17529W        W90597  24.075  32.553   3.427
17530W        W90598   2.780  27.422   0.707
17531W        W90599  16.780   1.386  12.423
17532W        W90600  14.556  30.473   4.424
17533W        W90601  44.871  38.337   1.895
17534W        W90602  37.825  12.713  12.066
17535W        W90603  23.873  32.690   0.326
17536W        W90604   7.806  10.760   0.346
17537W        W90605  22.220  23.618   0.438
17538W        W90606  38.595  17.092   1.492
17539W        W90607  19.166  21.681   2.273
17540W        W90608  15.793  41.855   3.716
17541W        W90609   1.466  24.125   4.156
17542W        W90610  12.794  25.940   4.862
17543W        W90611  10.939  16.076  14.895
17544W        W90612  40.347  15.869   0.433
17545W        W90613   3.999   5.703  12.010
17546W        W90614  17.251  26.612  11.449
17547W        W90615  42.755   7.726   4.199
17548W        W90616  10.710  13.182  13.299
17549W        W90617   9.355  18.305   4.170
17550W        W90618  40.817  29.582   1.723
17551W        W90619   4.195  35.823   1.917
17552W        W90620  17.680  40.989   3.359
17553W        W90621  34.263   5.713   0.300
17554W        W90622  23.371  40.562   5.100
17555W        W90623  29.522  21.750  14.216
17556W        W90624   1.949  18.045  12.494
17557W        W90625  22.570  16.437  10.699
17558W        W90626  15.790   8.789  11.070
17559W        W90627  42.490   6.175  12.000
17560W        W90628  44.398  18.082  14.026
17561W        W90629  23.170  41.028   0.820
17562W        W90630  24.751  22.252   4.558
17563W        W90631  29.425  13.031   3.735
17564W        W90632  14.647   2.980   1.730
17565W        W90633  17.083   5.765   2.135
17566W        W90634   5.779  25.702   4.532
17567W        W90635  19.429  24.060  13.759
17568W        W90636  40.866  11.174   3.707
17569W        W90637   9.308  34.280   4.557
17570W        W90638  23.277  16.036  11.788
17571W        W90639  34.223   2.711   1.330
17572W        W90640  15.389   4.283  12.099
17573W        W90641  35.620  26.498  13.816
17574W        W90642   2.465  11.839  12.130
17575W        W90643  29.336  40.112   3.616
17576W        W90644  18.373  26.566   1.746
17577W        W90645  37.455  32.063   0.187
17578W        W90646  16.738  43.967  12.316
17579W        W90647   8.864  34.564   3.779
17580W        W90648  13.838  22.147   4.708
17581W        W90649  43.524  19.907  13.774
17582W        W90650   0.517  42.778  10.545
17583W        W90651  15.640   6.574  13.333
17584W        W90652  24.517   5.012  10.601
17585W        W90653  22.887  44.745   0.968
17586W        W90654   3.876  24.370   2.370
17587W        W90655  38.618  23.527  13.513
17588W        W90656  18.742   9.342   2.842
17589W        W90657  23.466   4.783   0.923
17590W        W90658  19.749   2.291  13.021
17591W        W90659   4.829  30.160  12.445
17592W        W90660  22.561  28.103   1.719
17593W        W90661  16.727   3.347  11.167
17594W        W90662  28.028  15.377  10.637
17595W        W90663  18.830  37.130   3.668
17596W        W90664  25.055  32.616  13.654
17597W        W90665   6.152  34.953  10.646
17598W        W90666  41.214   0.882   5.140
17599W        W90667  32.461  31.130  11.600
17600W        W90668  31.915  40.228   2.776
17601W        W90669  39.401  38.786   2.390
17602W        W90670  35.823  43.476  11.865
17603W        W90671  13.570  24.593   0.217
17604W        W90672   3.743  30.834  13.938
17605W        W90673  14.725  19.928   4.493
17606W        W90674  18.773  39.959  13.495
17607W        W90675  28.286  19.741  14.757
17608W        W90676  37.442  11.294   1.045
17609W        W90677  38.259  41.537   2.675
17610W        W90678  15.714  43.023   1.749
17611W        W90679  36.804  17.440   4.127
17612W        W90680  17.761  18.220   1.882
17613W        W90681  10.818   4.175   3.823
17614W        W90682  13.591  23.489  11.470
17615W        W90683  25.057  28.106   2.230
17616W        W90684   4.390   4.759   2.190
17617W        W90685   7.427  25.056   0.947
17618W        W90686   3.510  30.750   4.235
17619W        W90687  31.611  10.897   4.574
17620W        W90688  10.681  13.874  13.902
17621W        W90689   7.359  44.018  12.118
17622W        W90690  12.817  22.561   3.724
17623W        W90691  32.460  16.218  11.497
17624W        W90692  11.123  28.023   0.358
17625W        W90693  24.570  44.047  13.808
17626W        W90694  44.854  32.517  13.280
17627W        W90695  36.190   4.803  14.240
17628W        W90696  31.596  29.893  10.634
17629W        W90697  11.138  31.124   2.614
17630W        W90698  30.827  14.334  13.013
17631W        W90699  14.800  39.482   4.585
17632W        W90700  27.426  12.324   0.126
17633W        W90701  34.359  31.984  14.933
17634W        W90702  38.571   3.987   1.682
17635W        W90703  28.630  27.446  12.061
17636W        W90704  18.269  12.301   3.851
17637W        W90705   4.437  38.039  11.106
17638W        W90706  32.929  16.127  13.613
17639W        W90707  32.766  22.244  12.793
17640W        W90708  38.959   1.934   3.600
17641W        W90709  31.935   2.479   4.996
17642W        W90710  36.510  34.079   5.147
17643W        W90711  33.139  40.409   5.253
17644W        W90712  40.456  26.214   3.751
17645W        W90713   9.159  43.127  10.181
17646W        W90714  32.530   2.930   3.223
17647W        W90715  40.834  31.488   3.210
17648W        W90716   1.840  17.112  12.643
17649W        W90717  38.595   9.423  12.485
17650W        W90718  15.331  40.275  12.983
17651W        W90719  43.933  30.509   4.135
17652W        W90720  27.861  42.138   1.786
17653W        W90721   9.253   3.779   0.256
17654W        W90722  17.652  36.577  10.511
17655W        W90723  42.762  17.819   4.147
17656W        W90724   0.770   2.424   2.927
17657W        W90725  10.192   0.921  12.035
17658W        W90726   5.911   7.148  12.797
17659W        W90727  16.296  29.074   1.475
17660W        W90728  24.598  44.941  14.787
17661W        W90729  31.916  44.702   3.136
17662W        W90730  43.235  31.357  12.497
17663W        W90731   9.731  12.723  11.542
17664W        W90732  26.387   0.721  12.879
17665W        W90733   1.885  18.697  13.011
17666W        W90734  43.798  30.094  13.423
17667W        W90735   3.996   2.383  14.829
17668W        W90736  17.877  24.413  11.107
17669W        W90737  41.977  29.584   4.491
17670W        W90738  26.022  31.976  14.581
17671W        W90739  23.136  18.536  12.911
17672W        W90740  12.605   1.383  13.824
17673W        W90741  42.859  38.005  11.188
17674W        W90742  36.373  26.415  13.817
17675W        W90743  17.210  27.621   0.009
17676W        W90744  15.181  40.270   1.794
17677W        W90745   5.649  13.676  13.802
17678W        W90746  30.938  13.779   1.922
17679W        W90747  10.219   2.858  13.055
17680W        W90748   7.996  26.700  12.888
17681W        W90749   7.334  23.717   0.255
17682W        W90750  26.009  18.358  13.519
17683W        W90751  15.855  16.521  12.551
17684W        W90752  26.536  35.530   0.943
17685W        W90753  40.485   7.821  14.505
17686W        W90754  35.601  24.392   4.058
17687W        W90755  37.095  10.921  13.609
17688W        W90756  10.491  41.331   3.363
17689W        W90757  32.293  39.473   2.581
17690W        W90758  24.142  16.598   5.014
17691W        W90759  17.850  39.480  13.855
17692W        W90760  42.900   3.082  14.298
17693W        W90761   2.008   0.970   4.195
17694W        W90762  44.208  18.587   3.666
17695W        W90763  35.528  22.107  13.008
17696W        W90764  14.850   2.468  11.152
17697W        W90765  22.947  34.531  13.362
17698W        W90766  16.084   5.792   2.319
17699W        W90767  15.607   2.361  14.723
17700W        W90768  18.353   7.131  12.027
17701W        W90769   5.555  20.925  13.823
17702W        W90770  15.105  41.334   2.662
17703W        W90771  23.483  40.389  10.663
17704W        W90772   2.189  24.164  10.524
17705W        W90773   6.228  34.711   2.391
17706W        W90774   5.434  16.785  11.204
17707W        W90775  15.974   2.369  11.054
17708W        W90776  41.624   2.982   3.705
17709W        W90777  22.488  32.428   4.073
17710W        W90778   1.371  18.257  10.650
17711W        W90779  21.780  13.120   4.317
17712W        W90780   5.199  24.152   2.776
17713W        W90781  15.871  23.233  13.841
17714W        W90782  27.721  15.663   4.188
17715W        W90783  33.870  25.185  13.953
17716W        W90784   8.357  29.144   0.241
17717W        W90785  36.793  42.438   2.165
17718W        W90786   7.299  31.163  10.641
17719W        W90787  26.438  20.080  14.917
17720W        W90788  32.672  27.970  12.050
17721W        W90789  42.756  42.714   4.220
17722W        W90790  38.489  32.022  11.641
17723W        W90791  40.591  44.864   1.985
17724W        W90792  40.394  39.892   4.248
17725W        W90793   2.424   1.031  13.277
17726W        W90794  43.276  15.218   3.237
17727W        W90795  20.901  20.040   1.832
17728W        W90796   5.379  29.603  14.541
17729W        W90797   7.191   4.704   3.813
17730W        W90798  21.177  16.771  13.086
17731W        W90799   1.485  37.332  12.921
17732W        W90800   7.403   1.458   0.509
17733W        W90801  18.827  29.511  14.440
17734W        W90802   4.174  44.892  13.479
17735W        W90803  27.057  22.555  10.257
17736W        W90804   5.414   8.727   2.124
17737W        W90805  38.579  24.973   0.914
17738W        W90806  33.949  15.055  12.177
17739W        W90807  27.155   9.033  12.038
17740W        W90808   4.775  20.708  11.028
17741W        W90809  41.590  35.224  11.158
17742W        W90810  35.694  35.813   0.378
17743W        W90811  32.784  23.881   1.340
17744W        W90812  40.330  29.799  11.455
17745W        W90813  42.832   1.568   2.830
17746W        W90814  39.645   1.778  12.055
17747W        W90815  35.408  32.614   0.813
17748W        W90816   7.899  11.833   4.958
17749W        W90817  15.638  39.205  13.460
17750W        W90818  44.382  40.412   4.470
17751W        W90819  39.032  35.732   0.798
17752W        W90820  17.052  34.635   2.656
17753W        W90821   0.286  18.069   3.343
17754W        W90822   8.423  28.060   2.887
17755W        W90823  28.957  31.769   5.329
17756W        W90824  24.588  35.293  14.842
17757W        W90825  28.982   9.112  11.442
17758W        W90826  22.775  33.681   1.281
17759W        W90827  33.880  22.456  11.503
17760W        W90828  37.447  31.532   0.043
17761W        W90829  26.861  43.082   1.862
17762W        W90830  31.634  36.974   0.248
17763W        W90831  22.268  44.640   4.106
17764W        W90832   8.986   6.805  11.021
17765W        W90833  12.463  18.198   3.124
17766W        W90834   5.650  19.841   2.771
17767W        W90835  16.165   6.756  13.361
17768W        W90836  40.430  44.793  13.470
17769W        W90837  41.050  27.227  10.692
17770W        W90838  17.524  37.673   1.331
17771W        W90839  34.592  22.049  12.476
17772W        W90840  27.404  26.468   3.098
17773W        W90841  21.597   6.206   1.139
17774W        W90842  23.827  23.615   1.209
17775W        W90843  14.622  20.320   2.503
17776W        W90844  20.647  37.581  12.161
17777W        W90845  28.493  30.463  14.579
17778W        W90846  28.961   5.844   2.670
17779W        W90847   9.318  33.268  10.339
17780W        W90848  37.739  32.060  10.611
17781W        W90849  10.738   4.229   1.702
17782W        W90850  12.026   8.759   3.349
17783W        W90851  21.534  18.461   3.654
17784W        W90852  17.839  20.167  12.099
17785W        W90853  34.922  24.083   3.942
17786W        W90854  24.454   2.447   2.768
17787W        W90855  35.911   9.342  12.032
17788W        W90856  14.755  31.139  11.692
17789W        W90857  17.898  16.065   3.752
17790W        W90858  23.157  28.734  12.955
17791W        W90859  30.565  43.997  10.632
17792W        W90860  41.960   3.770  13.448
17793W        W90861  44.820  19.158  12.523
17794W        W90862  16.952   2.895  13.034
17795W        W90863  21.149  14.164   1.290
17796W        W90864   4.089  39.450  11.678
17797W        W90865  37.199  32.530  14.863
17798W        W90866  10.718   9.167   3.126
17799W        W90867  14.366   7.332   1.864
17800W        W90868   0.226   6.218   1.883
17801W        W90869  26.127   3.729   0.958
17802W        W90870   1.133  35.955  11.897
17803W        W90871  36.081  24.094  13.554
17804W        W90872  20.734  27.737   0.394
17805W        W90873  12.620  16.528  12.419
17806W        W90874  15.785  19.290  13.879
17807W        W90875   2.017   4.821  13.903
17808W        W90876  13.067  39.036  12.802
17809W        W90877   9.630  32.514  11.179
17810W        W90878  25.620   6.275   3.588
17811W        W90879  13.726  18.137  13.611
17812W        W90880   8.529  32.767   0.901
17813W        W90881   1.561  29.386   3.225
17814W        W90882   6.812  43.279  11.998
17815W        W90883  40.905  12.709  13.518
17816W        W90884  22.715  17.718   3.742
17817W        W90885  43.425  17.166   4.067
17818W        W90886   3.969  11.967  13.218
17819W        W90887  13.065  18.646  13.032
17820W        W90888  24.067   7.179   1.877
17821W        W90889  10.412  17.552   0.906
17822W        W90890  28.546  16.994  11.608
17823W        W90891   7.537  42.369  14.101
17824W        W90892  29.476   4.813   4.693
17825W        W90893  28.227  31.690   4.166
17826W        W90894  40.394  18.503  14.444
17827W        W90895  22.417  12.758  10.178
17828W        W90896   1.868   2.355  12.818
17829W        W90897  31.479  10.089   1.728
17830W        W90898  38.430  14.732  11.236
17831W        W90899  34.107  42.195  11.570
17832W        W90900  30.692  38.141   4.185
17833W        W90901  30.049   9.847  13.941
17834W        W90902  14.561  23.013   2.671
17835W        W90903  19.263  11.648   3.737
17836W        W90904   9.883  34.534  11.895
17837W        W90905  38.717  28.994   0.334
17838W        W90906  16.365   8.921  13.472
17839W        W90907   9.731  21.733   1.641
17840W        W90908  24.094  24.546   4.144
17841W        W90909  22.442  17.808  13.398
17842W        W90910  21.218  28.934   0.133
17843W        W90911   9.086  12.789  14.217
17844W        W90912   2.014  39.072  11.588
17845W        W90913   7.300  28.562   0.442
17846W        W90914  18.832  43.932   3.276
17847W        W90915   0.378  16.989  12.597
17848W        W90916  12.408  44.964  12.883
17849W        W90917   8.595  40.571   1.909
17850W        W90918  24.002   1.139   0.496
17851W        W90919  31.675  40.826  12.408
17852W        W90920  15.365  22.453   1.764
17853W        W90921  25.516  37.395   4.565
17854W        W90922  25.697   3.280   4.050
17855W        W90923  41.621  44.219  10.397
17856W        W90924  10.366   4.400   2.358
17857W        W90925  23.514  38.003   0.322
17858W        W90926  37.165  21.594  11.882
17859W        W90927  40.386  42.581   9.809
17860W        W90928  14.635  11.539   0.736
17861W        W90929  27.174  26.234  14.898
17862W        W90930  17.241  11.302   1.526
17863W        W90931  22.871  16.761   3.747
17864W        W90932  24.660  17.107  14.280
17865W        W90933  22.669  17.840  12.582
17866W        W90934  14.772  43.472  12.448
17867W        W90935  24.117  33.354   3.653
17868W        W90936  33.617  38.411   0.800
17869W        W90937  16.299  42.256   2.204
17870W        W90938  26.242  14.650   1.685
17871W        W90939   7.876  13.568  11.934
17872W        W90940  38.576  28.100  13.004
17873W        W90941  24.128  15.108  11.662
17874W        W90942  16.086  29.111  11.531
17875W        W90943  12.234  21.236  14.784
17876W        W90944  27.257   0.075  14.568
17877W        W90945  23.180  26.630   2.915
17878W        W90946  32.441   2.553  11.929
17879W        W90947   5.771  29.084   4.215
17880W        W90948  21.027  37.806   3.634
17881W        W90949  12.499  13.483  13.477
17882W        W90950  36.936  14.704  14.498
17883W        W90951   7.713   3.818  12.823
17884W        W90952  26.006  31.016   1.246
17885W        W90953  39.447  16.637   1.784
17886W        W90954   9.624  29.650   4.012
17887W        W90955   0.822   2.578  10.943
17888W        W90956  30.523  23.874   0.366
17889W        W90957  16.846  30.099   4.158
17890W        W90958  17.314  16.536   1.743
17891W        W90959  19.575   7.547   2.332
17892W        W90960   2.350  20.976   0.497
17893W        W90961   8.736  14.127  11.658
17894W        W90962  22.126  37.321  11.193
17895W        W90963  24.175   0.171  10.454
17896W        W90964   7.395  13.887   4.947
17897W        W90965  22.234  28.105  12.045
17898W        W90966  38.437   3.331  11.635
17899W        W90967  14.639  13.542  11.655
17900W        W90968  41.374  36.122  13.996
17901W        W90969   5.968  36.260   1.731
17902W        W90970  12.460  21.002   2.791
17903W        W90971  14.829  43.202   0.281
17904W        W90972  11.356   1.936  14.873
17905W        W90973  32.342  11.423  13.703
17906W        W90974  25.603  41.580   1.444
17907W        W90975   8.097  26.122   1.388
17908W        W90976   5.258  32.485  12.555
17909W        W90977  22.879  26.377   4.188
17910W        W90978   5.916  42.732   3.335
17911W        W90979  17.449  24.257  13.006
17912W        W90980  25.572  33.787   2.128
17913W        W90981  19.099  23.614   3.581
17914W        W90982  37.994   3.469  12.573
17915W        W90983  13.370  21.075  11.594
17916W        W90984  11.740  25.707  12.120
17917W        W90985   3.299  38.737  12.675
17918W        W90986   6.604  28.160   4.555
17919W        W90987  32.055  32.887   2.426
17920W        W90988  28.174  36.626   2.409
17921W        W90989  23.422   4.731   1.839
17922W        W90990  39.459   6.928  14.332
17923W        W90991   4.705  16.246   0.892
17924W        W90992  10.779   4.757  13.812
17925W        W90993  27.427  11.336   1.697
17926W        W90994  36.451  24.752  12.026
17927W        W90995  27.516  35.756   4.793
17928W        W90996  38.945  37.478   1.869
17929W        W90997  42.561  40.108  13.801
17930W        W90998  43.226  28.691   2.921
17931W        W90999  43.917   5.752   2.918
17932W        W91000  28.030  27.442   1.803
17933W        W91001  16.147  44.261   0.775
17934W        W91002  22.716  40.279   3.271
17935W        W91003  39.452  21.545   4.048
17936W        W91004  41.986   7.823   4.693
17937W        W91005  10.058  18.402   9.754
17938W        W91006  34.727  12.188   0.744
17939W        W91007  33.561  34.021   1.642
17940W        W91008  20.482  13.761  12.634
17941W        W91009  18.782  30.639  12.018
17942W        W91010  18.504  40.418  13.620
17943W        W91011  21.975  41.023  11.084
17944W        W91012   4.017  37.621  14.399
17945W        W91013  41.329   4.286   3.134
17946W        W91014   8.314  40.385  14.559
17947W        W91015  37.345  13.908   4.266
17948W        W91016  42.562  25.201  12.040
17949W        W91017  30.857  16.609   4.156
17950W        W91018  22.000  10.887  14.783
17951W        W91019   9.881  34.021   2.840
17952W        W91020  30.162  20.872  11.837
17953W        W91021  37.270   4.818   0.988
17954W        W91022  42.905  42.960   1.289
17955W        W91023   5.938  24.867   0.803
17956W        W91024  17.830  12.231   2.131
17957W        W91025  38.349   9.375  12.024
17958W        W91026  24.284  17.766  13.816
17959W        W91027  30.425  35.250   0.933
17960W        W91028  43.957   3.662   3.399
17961W        W91029  28.234  16.599  13.999
17962W        W91030  29.473  36.972  12.612
17963W        W91031  12.863  30.920  13.384
17964W        W91032  41.222  14.726  13.297
17965W        W91033   8.275  11.156   0.947
17966W        W91034  11.646  30.619   3.763
17967W        W91035  31.912  35.040  11.000
17968W        W91036  41.260  14.314   4.067
17969W        W91037  41.947  22.147   0.506
17970W        W91038  35.363  41.300   0.896
17971W        W91039  14.281  17.105  12.948
17972W        W91040  44.978   9.035   3.218
17973W        W91041  17.145   2.355   3.710
17974W        W91042  36.520  41.569   5.176
17975W        W91043  35.802  34.611  10.619
17976W        W91044  32.454  21.748   1.847
17977W        W91045   7.335  40.260   3.214
17978W        W91046   6.516  35.955  12.802
17979W        W91047   8.118   4.185   4.177
17980W        W91048  36.837   6.421  14.763
17981W        W91049  26.116  10.736   4.153
17982W        W91050  32.993  27.628  13.545
17983W        W91051  31.898   8.800  10.606
17984W        W91052  44.146   1.974  11.469
17985W        W91053  32.538  14.613   2.410
17986W        W91054  30.427   5.677   2.158
17987W        W91055  31.969  26.018   3.280
17988W        W91056  42.011  40.078  11.564
17989W        W91057  30.258  21.571  12.977
17990W        W91058  15.784  27.649   3.215
17991W        W91059  19.573  30.097   2.901
17992W        W91060  23.983  42.992   3.656
17993W        W91061   9.258   2.411   4.405
17994W        W91062   0.273  44.505  12.390
17995W        W91063   7.198   5.751   0.013
17996W        W91064  19.616  24.636   0.272
17997W        W91065  35.473  22.597   1.481
17998W        W91066  19.691  18.447  13.302
17999W        W91067  22.031  12.364  12.469
18000W        W91068  21.940  30.321   2.141
18001W        W91069   3.125   2.748  13.975
18002W        W91070  40.807  42.215   4.203
18003W        W91071   8.866  27.747   2.273
18004W        W91072  10.165  35.381  10.829
18005W        W91073  44.056  17.621  12.943
18006W        W91074  29.027  17.848   0.241
18007W        W91075  26.489  19.763  13.013
18008W        W91076  15.284  11.549   0.317
18009W        W91077  34.377   2.162   0.123
18010W        W91078  28.997  35.893   2.637
18011W        W91079  35.371  26.973   3.347
18012W        W91080  44.904  30.630  13.371
18013W        W91081  43.159  32.815   0.715
18014W        W91082   4.742   2.050   0.900
18015W        W91083  22.206  38.152   1.718
18016W        W91084  37.090  44.752  12.194
18017W        W91085  30.503  40.348  14.868
18018W        W91086  36.446   1.964  14.236
18019W        W91087  23.702  27.216   2.243
18020W        W91088  16.041   3.943   0.662
18021W        W91089   0.926  16.866   3.287
18022W        W91090  21.465  32.009   4.575
18023W        W91091  42.072  23.993   1.797
18024W        W91092   6.260  10.310  10.928
18025W        W91093  37.855  36.051  11.358
18026W        W91094  23.145   5.146  14.499
18027W        W91095  19.666  27.585   3.329
18028W        W91096  42.993  27.440  10.235
18029W        W91097   6.674  16.796   2.731
18030W        W91098  27.605  16.152   3.452
18031W        W91099   3.563  36.869  14.932
18032W        W91100  21.768  42.292  14.322
18033W        W91101  32.143  17.516  14.753
18034W        W91102  41.259   2.477  11.193
18035W        W91103  43.022   5.185  13.648
18036W        W91104  44.219  34.609   3.383
18037W        W91105   1.187  35.947  14.310
18038W        W91106  22.543  41.478  10.464
18039W        W91107  18.079  44.244  10.226
18040W        W91108  14.779  28.665   2.969
18041W        W91109   7.839   0.215   4.056
18042W        W91110  10.309  20.482  14.629
18043W        W91111  41.837  38.371  14.810
18044W        W91112  34.967  12.063  12.058
18045W        W91113  26.079  31.900   3.345
18046W        W91114  20.943  18.474  10.286
18047W        W91115  40.368  37.231   4.942
18048W        W91116  43.048  24.006  10.592
18049W        W91117  26.109   2.231  13.921
18050W        W91118   1.395  28.679   2.824
18051W        W91119  41.754  22.123   3.595
18052W        W91120  27.728  30.119   4.383
18053W        W91121  38.498  41.785  11.887
18054W        W91122  28.757  27.091  10.365
18055W        W91123  31.145   8.782   3.660
18056W        W91124  22.058  30.643   4.778
18057W        W91125   5.380  19.025   0.789
18058W        W91126  16.360   5.987  13.004
18059W        W91127  42.319  17.110  11.828
18060W        W91128  20.546  26.444   1.314
18061W        W91129  23.305  27.609  13.828
18062W        W91130  17.839   8.644  13.548
18063W        W91131  18.015  13.411   2.440
18064W        W91132  21.247  14.704  11.923
18065W        W91133   3.710  17.006   1.440
18066W        W91134   9.815  15.923   2.855
18067W        W91135   1.537  36.269   3.739
18068W        W91136  26.381  10.899   3.715
18069W        W91137  37.336  29.923  12.679
18070W        W91138  37.442   2.547  11.895
18071W        W91139   9.886  35.584   2.805
18072W        W91140  15.226  11.395   1.912
18073W        W91141  10.801  43.595  13.793
18074W        W91142  19.294  30.081  10.503
18075W        W91143   3.822  34.095  13.838
18076W        W91144  41.843  26.599   4.136
18077W        W91145   2.743   1.207  14.472
18078W        W91146  32.549  41.466  12.745
18079W        W91147   9.120  30.502   1.783
18080W        W91148  17.885  20.164   2.361
18081W        W91149  35.993   8.452   0.341
18082W        W91150   5.309  12.365   1.332
18083W        W91151  20.317  13.397  13.122
18084W        W91152  16.022  20.092  13.379
18085W        W91153  15.598  19.845  13.078
18086W        W91154  31.651  20.608  11.225
18087W        W91155  16.974  19.788  14.445
18088W        W91156  37.306  20.941  14.956
18089W        W91157  25.132  21.207   1.412
18090W        W91158   2.680  19.880   2.465
18091W        W91159  15.823   8.015   0.078
18092W        W91160  21.095  42.977   2.413
18093W        W91161  33.816  26.149  13.940
18094W        W91162  23.448  23.259   1.022
18095W        W91163  11.276  34.667   1.872
18096W        W91164   1.082   0.235   3.616
18097W        W91165  38.546  34.430  11.536
18098W        W91166  25.810  22.562   3.589
18099W        W91167   3.960  24.262   1.813
18100W        W91168  40.831  11.535   1.407
18101W        W91169  40.381  43.705  10.742
18102W        W91170   9.436  41.987   0.381
18103W        W91171   4.861  15.308   4.991
18104W        W91172  19.731  30.399  13.992
18105W        W91173   9.604  37.001   0.717
18106W        W91174  24.997  33.008  14.805
18107W        W91175  33.284  10.524  13.501
18108W        W91176  30.464  42.735  12.926
18109W        W91177   4.844   0.233   1.799
18110W        W91178  17.033  24.747   2.224
18111W        W91179  21.655  38.638   0.028
18112W        W91180  35.220  28.034   3.748
18113W        W91181  39.974   6.508  11.673
18114W        W91182  42.988  14.720  13.306
18115W        W91183  34.608  31.651  11.548
18116W        W91184   6.969  37.303  11.731
18117W        W91185   1.353  21.065  13.724
18118W        W91186   3.844  13.880   0.916
18119W        W91187  13.524  39.571   4.195
18120W        W91188   7.406  42.454   3.822
18121W        W91189  32.944  25.617   2.244
18122W        W91190  44.778  41.374  12.904
18123W        W91191  41.349  35.924  10.773
18124W        W91192  20.584  22.749  14.856
18125W        W91193  22.981  28.136  11.139
18126W        W91194  25.818  44.921  12.094
18127W        W91195   3.930  13.550   3.390
18128W        W91196  24.980   8.413  12.803
18129W        W91197  21.748   9.765  12.538
18130W        W91198  28.331   0.757   1.289
18131W        W91199  26.995  17.170   0.899
18132W        W91200  18.691  33.563  12.888
18133W        W91201  16.558  29.340   3.557
18134W        W91202   4.308  40.593  10.728
18135W        W91203  23.216  29.941  11.591
18136W        W91204  26.106  21.298   3.248
18137W        W91205  14.860  27.986  10.353
18138W        W91206   6.863   3.250  13.847
18139W        W91207  34.152   4.172   0.190
18140W        W91208  44.366  30.922   0.841
18141W        W91209  41.264  35.336   1.248
18142W        W91210  39.329  32.757  12.814
18143W        W91211  32.435   3.936   1.767
18144W        W91212  34.855   4.610  13.265
18145W        W91213  20.329  26.166  11.249
18146W        W91214  28.975  28.088  10.591
18147W        W91215  30.907  32.430   0.759
18148W        W91216  12.807  12.810  10.896
18149W        W91217  24.256   1.329   3.585
18150W        W91218   6.636  11.601  13.846
18151W        W91219  19.512   4.185  13.808
18152W        W91220  17.753   1.903  14.251
18153W        W91221  18.265  41.609   4.959
18154W        W91222  31.720  31.313   0.422
18155W        W91223   6.795  26.677  13.546
18156W        W91224  40.648   4.985  14.836
18157W        W91225   6.213  35.711   4.517
18158W        W91226  19.084   8.600   0.324
18159W        W91227  12.667  21.857  13.781
18160W        W91228  11.710  34.818  13.892
18161W        W91229  32.511  41.493  11.433
18162W        W91230   4.651  17.612   2.925
18163W        W91231   4.310  34.437   4.552
18164W        W91232  21.825   6.854   2.335
18165W        W91233  26.222   3.467  14.169
18166W        W91234  32.628   3.661   0.879
18167W        W91235  15.115  21.535  12.559
18168W        W91236   2.761   5.230   2.767
18169W        W91237  41.874  41.284   4.395
18170W        W91238   2.969  39.846   2.380
18171W        W91239  25.628  22.976   3.325
18172W        W91240   9.703  25.642  11.421
18173W        W91241  19.660   4.395   4.548
18174W        W91242  18.530  41.325  12.139
18175W        W91243  36.301  37.062   2.961
18176W        W91244  15.427  35.435   0.616
18177W        W91245   8.707  31.544  12.591
18178W        W91246  25.010  20.109  14.049
18179W        W91247  32.624  34.148  12.832
18180W        W91248  21.995  40.945  14.460
18181W        W91249  24.740  22.379  14.446
18182W        W91250   0.470  25.092  14.534
18183W        W91251  26.098   2.805  10.749
18184W        W91252  44.965   9.487   2.992
18185W        W91253  36.019  30.625  10.618
18186W        W91254  10.700  42.042   3.742
18187W        W91255  35.004  44.954  12.441
18188W        W91256  17.811  41.789  12.582
18189W        W91257  22.192  13.322   4.545
18190W        W91258  24.175   0.326   0.968
18191W        W91259  41.968   5.947  12.001
18192W        W91260  30.255  18.917  11.519
18193W        W91261  36.349  17.599  14.808
18194W        W91262   8.692  17.213  13.086
18195W        W91263   4.320  38.963  14.878
18196W        W91264  13.769  12.008   0.035
18197W        W91265  27.682  14.102   4.141
18198W        W91266   8.259  25.192   1.457
18199W        W91267  12.684  30.989   3.774
18200W        W91268  42.233  18.072   2.348
18201W        W91269   9.154  38.945   3.883
18202W        W91270   4.630  13.263  11.694
18203W        W91271  32.594  44.062  11.435
18204W        W91272  34.440  40.296  10.699
18205W        W91273  31.582   0.704  12.747
18206W        W91274  16.048  43.142  14.879
18207W        W91275   6.239  41.900  11.092
18208W        W91276   1.609  13.564   0.524
18209W        W91277   7.160  14.314  12.558
18210W        W91278  31.424  39.896   2.191
18211W        W91279  23.035   4.379  11.921
18212W        W91280   7.258  34.092  12.401
18213W        W91281  27.479  30.007  12.003
18214W        W91282  40.657  37.408   1.397
18215W        W91283  24.445  11.919  14.765
18216W        W91284  35.801  13.208   4.222
18217W        W91285  12.560  21.980  13.283
18218W        W91286  17.241  44.440  12.066
18219W        W91287  25.964   2.853   1.701
18220W        W91288  31.890   7.432  13.841
18221W        W91289  41.847  38.975  12.207
18222W        W91290  42.566  14.937  12.396
18223W        W91291  15.799  14.143   3.714
18224W        W91292   2.468  29.768   5.060
18225W        W91293  11.755  37.559   3.223
18226W        W91294  28.882  40.964   2.783
18227W        W91295  13.129  29.699  11.352
18228W        W91296  43.367  33.245   1.416
18229W        W91297   8.743  41.321   1.135
18230W        W91298  10.471  33.678  14.902
18231W        W91299  17.594  39.545  11.044
18232W        W91300   4.016  39.795   2.337
18233W        W91301   3.777  29.864   2.302
18234W        W91302  32.632  41.392   2.611
18235W        W91303   8.109  19.794  13.137
18236W        W91304   4.033   2.731   4.284
18237W        W91305  14.179   2.116  10.863
18238W        W91306  37.691  26.017   0.273
18239W        W91307  11.932  16.709   1.241
18240W        W91308  22.379   3.455  13.985
18241W        W91309  18.160  31.929   4.577
18242W        W91310   7.223  15.586   4.789
18243W        W91311  43.373  15.235   4.476
18244W        W91312  11.750  38.919   2.782
18245W        W91313  20.038  43.498   0.439
18246W        W91314  12.921  43.874  14.309
18247W        W91315   3.745  42.513   0.809
18248W        W91316  10.205   1.247   4.574
18249W        W91317  34.917  16.947  11.146
18250W        W91318  34.738  37.554   1.656
18251W        W91319  14.744   5.431   1.051
18252W        W91320  14.787  34.147  11.932
18253W        W91321  15.863  26.469  13.116
18254W        W91322  31.519  42.526  14.448
18255W        W91323  42.388  22.467   3.245
18256W        W91324  30.875  22.073  10.185
18257W        W91325   6.529  41.980  10.658
18258W        W91326  11.430  21.225   4.154
18259W        W91327  16.655  31.892   4.785
18260W        W91328  24.681   4.249  12.893
18261W        W91329  41.466  17.768   2.888
18262W        W91330  40.844  37.935  14.210
18263W        W91331  40.895  24.065  11.649
18264W        W91332  44.961  31.391  14.818
18265W        W91333  27.476  32.154  13.472
18266W        W91334  24.229  12.655   3.223
18267W        W91335  24.050  30.572  12.514
18268W        W91336  30.537  26.501  13.854
18269W        W91337  43.895  39.042   0.262
18270W        W91338  35.654  11.733   4.813
18271W        W91339   4.297  43.425   4.190
18272W        W91340   1.288  25.946   2.386
18273W        W91341   7.075  19.197  11.903
18274W        W91342   5.311  17.268  14.538
18275W        W91343  29.541  36.737  11.355
18276W        W91344  32.371  32.929   4.015
18277W        W91345  27.915  44.858   4.616
18278W        W91346  32.600  22.161   4.879
18279W        W91347  41.791  23.542   1.723
18280W        W91348  44.558  20.069   4.152
18281W        W91349  29.063  23.470  14.467
18282W        W91350  35.072   5.326  10.526
18283W        W91351   5.851  14.367   1.429
18284W        W91352  19.015   9.846   4.195
18285W        W91353  29.380  41.907  14.041
18286W        W91354  32.539  29.923  11.060
18287W        W91355  27.719  24.032   3.374
18288W        W91356  11.572  32.273   4.380
18289W        W91357   0.893   0.348  11.640
18290W        W91358   1.546  18.030  13.456
18291W        W91359  33.874  36.286  11.128
18292W        W91360   2.740   6.794  11.880
18293W        W91361  37.750  37.870  12.401
18294W        W91362  11.847  33.033   0.596
18295W        W91363   4.138  20.989   1.897
18296W        W91364  13.593  22.818   2.216
18297W        W91365  22.135   4.394   2.183
18298W        W91366  36.486  29.117  14.835
18299W        W91367   3.016  34.006  14.534
18300W        W91368  17.896  15.932   0.454
18301W        W91369  13.356  24.091   4.950
18302W        W91370  23.657  12.722  10.978
18303W        W91371  39.367  40.168   2.840
18304W        W91372  16.747  21.627   4.617
18305W        W91373  30.172  21.959  11.131
18306W        W91374  20.540  17.563  12.001
18307W        W91375  24.731  26.906  12.101
18308W        W91376  23.623  41.338  12.342
18309W        W91377  26.672  11.511   3.289
18310W        W91378  16.256  19.874   0.006
18311W        W91379  24.633  43.909  14.697
18312W        W91380  26.489   1.969  11.635
18313W        W91381   0.654  31.868   5.274
18314W        W91382  25.319  27.141  13.988
18315W        W91383  36.827  24.620  13.576
18316W        W91384  25.006   8.239   4.702
18317W        W91385   9.997  23.935  14.595
18318W        W91386  24.071  25.974   4.988
18319W        W91387  33.841  13.669   1.377
18320W        W91388  44.963  36.483  10.962
18321W        W91389  39.372  34.026  12.810
18322W        W91390  37.531   5.907   4.178
18323W        W91391  35.855   5.212  14.167
18324W        W91392  37.553  13.188  13.008
18325W        W91393  39.904  28.421  12.521
18326W        W91394  26.669  26.398  11.010
18327W        W91395  22.836  11.728  13.374
18328W        W91396  44.293  38.333  12.408
18329W        W91397  15.298  42.279  10.677
18330W        W91398   8.392  16.369  14.639
18331W        W91399  36.911  13.037  13.391
18332W        W91400  23.991  36.378   4.729
18333W        W91401   7.827  34.579  12.518
18334W        W91402  20.087  39.866   2.342
18335W        W91403  40.956  40.944  12.591
18336W        W91404  44.759  19.510  14.944
18337W        W91405  14.698  16.828  12.859
18338W        W91406  38.352  12.747   2.887
18339W        W91407  38.074  42.257   3.461
18340W        W91408  33.942  11.642  14.307
18341W        W91409  10.328  17.795   1.915
18342W        W91410   0.368  32.079   3.292
18343W        W91411   2.156  12.827  14.542
18344W        W91412  38.337  36.865  11.952
18345W        W91413   3.836  18.723   4.709
18346W        W91414  31.842  10.479   4.839
18347W        W91415  30.931  10.866   0.031
18348W        W91416  24.995   9.202  11.533
18349W        W91417  36.828  35.635   1.261
18350W        W91418  44.368  11.093   2.736
18351W        W91419  19.235   8.128   1.125
18352W        W91420  34.428  26.630   4.893
18353W        W91421  18.075  10.586   1.893
18354W        W91422   6.395  12.531   0.926
18355W        W91423  20.496  41.341   3.595
18356W        W91424  14.566  14.845   2.123
18357W        W91425  20.647   2.702  14.395
18358W        W91426  16.374   0.064   4.955
18359W        W91427  23.663  33.365   2.363
18360W        W91428  42.748   1.728   2.303
18361W        W91429   8.785  35.332  13.880
18362W        W91430  25.195  16.848  10.948
18363W        W91431  39.096  31.872  12.396
18364W        W91432  25.144  41.620   1.728
18365W        W91433   5.902  23.505  12.898
18366W        W91434  18.201   2.462  12.015
18367W        W91435  37.122  22.497   1.893
18368W        W91436  35.012  35.035  12.794
18369W        W91437  37.686  41.444  12.381
18370W        W91438  41.748   3.916  14.838
18371W        W91439   0.410   8.943  14.643
18372W        W91440  40.945  22.248   2.338
18373W        W91441  34.362   8.646   2.277
18374W        W91442   4.355  30.754   0.400
18375W        W91443  30.508  26.008   1.920
18376W        W91444  22.385  38.646   1.643
18377W        W91445  34.062  39.461  14.894
18378W        W91446  44.843  41.527  13.861
18379W        W91447  21.390   6.023  13.232
18380W        W91448  36.444  23.177   3.664
18381W        W91449  33.560   0.250  11.367
18382W        W91450  15.644  11.812  12.110
18383W        W91451  42.561   0.464   2.647
18384W        W91452  20.719  44.235   1.435
18385W        W91453  31.088  14.926   4.158
18386W        W91454  23.443   5.737  10.414
18387W        W91455  33.657   6.845  10.711
18388W        W91456   7.279  17.179  14.876
18389W        W91457  38.297  11.883   0.686
18390W        W91458   4.345  22.129  11.479
18391W        W91459  30.063  43.086   0.992
18392W        W91460  16.816  32.129   0.954
18393W        W91461  30.637  43.480  11.319
18394W        W91462   1.469  38.948  10.623
18395W        W91463  37.010  10.262   0.389
18396W        W91464   5.242  13.871   2.913
18397W        W91465  26.541   6.472   3.835
18398W        W91466  43.535   5.877  10.154
18399W        W91467  42.962  35.813  14.680
18400W        W91468  27.208   4.811   2.902
18401W        W91469  16.944  26.393   0.882
18402W        W91470  37.585   9.200   3.425
18403W        W91471  43.754   3.259  14.316
18404W        W91472  15.709  35.093  11.526
18405W        W91473  40.755  25.547   0.744
18406W        W91474  10.141  10.278  10.616
18407W        W91475  16.510  35.120   3.675
18408W        W91476  12.891   3.259   4.234
18409W        W91477  16.096   9.589   0.825
18410W        W91478  37.719  33.839  14.214
18411W        W91479  41.942  31.843   3.210
18412W        W91480  24.596   2.236   2.266
18413W        W91481  11.613  20.440   0.924
18414W        W91482  25.013  23.634  11.512
18415W        W91483  11.806  34.732   3.763
18416W        W91484  32.913  44.697  12.874
18417W        W91485   7.797  18.312  11.715
18418W        W91486  18.851  43.122   3.827
18419W        W91487  44.968   8.780   4.495
18420W        W91488   4.542  16.988  11.560
18421W        W91489  10.314  15.116  13.507
18422W        W91490  15.253  18.802  12.478
18423W        W91491  29.491  15.823   2.166
18424W        W91492  15.556  44.822  10.532
18425W        W91493   7.789   2.867   1.215
18426W        W91494  13.686  27.829  13.565
18427W        W91495  38.636  14.016   3.931
18428W        W91496   2.242   7.116  12.804
18429W        W91497   1.377  34.547   0.304
18430W        W91498   9.808  25.264   2.920
18431W        W91499   2.195  39.361   4.584
18432W        W91500   4.568  15.271   2.740
18433W        W91501  36.006  27.983   1.196
18434W        W91502  18.993  34.132  13.057
18435W        W91503  34.866  30.011   1.751
18436W        W91504   2.847  18.083  10.551
18437W        W91505  20.004  12.047  11.674
18438W        W91506  40.476  18.657  11.945
18439W        W91507  18.678  28.555   0.326
18440W        W91508   9.061  43.511   0.544
18441W        W91509   2.827  17.617   4.524
18442W        W91510  27.566  15.576  11.384
18443W        W91511  28.050  18.798   0.404
18444W        W91512  12.069  24.615   3.045
18445W        W91513   4.361   5.704  13.743
18446W        W91514   8.481  38.890  14.480
18447W        W91515  29.946  22.688   3.144
18448W        W91516   6.210  44.180  13.782
18449W        W91517   1.775  16.223  11.766
18450W        W91518  19.651  30.065  14.399
18451W        W91519  31.102  23.732  13.003
18452W        W91520   5.042   6.381   3.179
18453W        W91521  42.442  25.047   4.688
18454W        W91522  23.822  31.973  11.652
18455W        W91523  27.647   2.823   1.129
18456W        W91524  33.798  31.382   3.645
18457W        W91525   9.272   9.647  13.986
18458W        W91526  36.889  40.941   2.340
18459W        W91527  43.220  43.807   2.902
18460W        W91528  15.355  22.719  14.428
18461W        W91529  28.230   3.022   3.876
18462W        W91530   6.277  27.746  11.237
18463W        W91531  15.643  33.570  12.992
18464W        W91532  26.875  10.703  11.506
18465W        W91533  40.671  28.222   0.656
18466W        W91534  43.313  34.080   0.301
18467W        W91535  14.696  10.679   1.179
18468W        W91536  41.808  15.843  11.041
18469W        W91537   7.848  32.995   3.201
18470W        W91538  32.711   7.602  13.839
18471W        W91539  43.993  41.356   3.282
18472W        W91540  35.361   3.095   1.768
18473W        W91541  33.582  20.158   2.966
18474W        W91542  39.384  21.264  13.754
18475W        W91543  29.879   9.807   0.977
18476W        W91544  24.786  32.965  12.481
18477W        W91545  36.954  44.539   4.154
18478W        W91546  27.906   0.416  10.193
18479W        W91547  43.341  17.179  12.992
18480W        W91548   7.879  39.816   2.818
18481W        W91549  33.443  15.994   0.407
18482W        W91550  23.652  36.785   0.902
18483W        W91551  17.289  43.954  12.298
18484W        W91552  26.118  15.174   0.805
18485W        W91553   8.762   3.777  12.845
18486W        W91554  21.655  26.663  12.307
18487W        W91555  20.572  37.035   5.063
18488W        W91556  19.456  26.663  12.484
18489W        W91557   8.101   1.851   2.632
18490W        W91558  25.056  10.056   3.320
18491W        W91559  24.823   2.511   0.331
18492W        W91560  37.638  39.313   4.285
18493W        W91561   6.235  41.924  11.981
18494W        W91562  42.697  28.190   0.898
18495W        W91563  38.584   8.989   2.559
18496W        W91564  26.083  32.061  14.062
18497W        W91565  35.321  44.450   4.597
18498W        W91566   0.810  10.297  10.840
18499W        W91567  25.924   3.755   4.151
18500W        W91568  34.129  28.084  14.939
18501W        W91569  15.999  19.013   4.467
18502W        W91570  33.438  34.930   1.851
18503W        W91571  14.149  13.826   3.284
18504W        W91572  42.738  22.229   2.590
18505W        W91573  37.277  36.470  13.521
18506W        W91574  34.165  27.032   0.258
18507W        W91575  25.632  16.800  13.083
18508W        W91576  27.648  26.112   4.367
18509W        W91577  27.279  35.190   4.248
18510W        W91578  27.722  30.907   1.755
18511W        W91579   0.378  32.655  12.617
18512W        W91580  18.105  44.860  13.350
18513W        W91581  10.326   2.003   1.719
18514W        W91582  25.933   9.807  14.577
18515W        W91583  34.935  40.973  10.629
18516W        W91584  35.550  18.291   2.393
18517W        W91585  42.564  24.304   5.209
18518W        W91586  29.988  37.526  12.899
18519W        W91587  34.520  12.829  10.509
18520W        W91588  41.338  10.612  12.660
18521W        W91589  20.797  37.010  12.554
18522W        W91590  33.190   7.319   1.827
18523W        W91591   6.540  20.623  13.752
18524W        W91592  42.922  36.480  12.974
18525W        W91593  26.473  20.735  11.530
18526W        W91594  29.137   7.431  10.586
18527W        W91595   5.695   5.477  13.392
18528W        W91596   6.149  24.751   1.719
18529W        W91597   0.274  16.743  12.083
18530W        W91598  23.538  37.347   4.381
18531W        W91599  18.683   0.997   3.516
18532W        W91600  18.943  24.014  11.906
18533W        W91601  36.881  26.453   0.439
18534W        W91602  23.527  36.623   2.441
18535W        W91603  13.216  34.457  14.677
18536W        W91604  29.517   7.780   3.449
18537W        W91605  44.004  43.440   1.435
18538W        W91606  37.296  12.785  14.869
18539W        W91607  33.399  11.549  12.537
18540W        W91608  40.336  32.293  10.530
18541W        W91609  42.864  37.490   2.244
18542W        W91610  19.580  37.565  14.407
18543W        W91611  33.510   3.748  11.741
18544W        W91612   2.355  22.836   4.851
18545W        W91613  37.927   7.855   0.398
18546W        W91614  29.439  38.795  12.430
18547W        W91615  36.901  28.559  14.091
18548W        W91616  33.028   5.931   0.834
18549W        W91617  28.321  44.380  14.409
18550W        W91618  24.312  27.492  11.669
18551W        W91619   6.264   7.487   5.177
18552W        W91620   7.712  26.712  14.867
18553W        W91621  29.018  15.318  12.539
18554W        W91622  16.099  29.610   3.615
18555W        W91623   6.182  18.730   4.157
18556W        W91624  25.220  18.278  14.430
18557W        W91625  16.237  17.107  13.045
18558W        W91626  35.965  36.553  13.787
18559W        W91627  33.119  18.547  14.928
18560W        W91628  41.079  26.139   2.434
18561W        W91629  24.688  34.302   4.165
18562W        W91630  25.186  26.132   0.897
18563W        W91631  32.607   5.684   2.367
18564W        W91632  15.183  33.899  12.141
18565W        W91633  25.106  43.379  10.633
18566W        W91634  34.361  43.460   2.561
18567W        W91635  13.332  15.761   1.353
18568W        W91636  10.884  22.494   4.313
18569W        W91637  18.540  31.174   2.865
18570W        W91638  22.136  32.373  10.787
18571W        W91639  15.723  30.217   1.396
18572W        W91640  19.827   2.810  13.871
18573W        W91641   7.378   0.490  14.801
18574W        W91642  30.555  24.726   4.692
18575W        W91643   7.846  29.386  10.555
18576W        W91644  12.048  22.666   2.347
18577W        W91645  44.617  16.628   3.823
18578W        W91646  25.838  17.796  14.717
18579W        W91647  37.478  11.806   1.137
18580W        W91648  37.383   6.933   2.650
18581W        W91649  21.072  11.088   3.707
18582W        W91650  34.680  24.508   3.766
18583W        W91651  12.703  29.844   4.627
18584W        W91652  22.305   5.330   3.160
18585W        W91653  20.223   8.842  14.797
18586W        W91654  10.930   9.752  13.414
18587W        W91655  16.822   0.865  14.034
18588W        W91656  44.537  34.367   1.903
18589W        W91657  36.455  25.271   1.989
18590W        W91658  13.169  33.823  11.893
18591W        W91659  27.536  31.572   2.742
18592W        W91660   6.226  24.158  14.082
18593W        W91661   3.566  31.749  14.085
18594W        W91662  20.001   3.158   3.365
18595W        W91663  17.664  15.123  10.640
18596W        W91664  37.428  21.293   4.577
18597W        W91665  33.803  36.520   2.221
18598W        W91666  13.267  17.818   1.142
18599W        W91667  24.568  30.711  11.487
18600W        W91668  17.040  34.664   3.678
18601W        W91669  25.183  28.380   1.801
18602W        W91670   0.526  13.261  11.661
18603W        W91671  33.397  17.343  13.576
18604W        W91672  19.533  25.562   0.360
18605W        W91673  24.139   8.176   2.595
18606W        W91674   7.704  43.326  13.610
18607W        W91675   1.390  35.493   4.433
18608W        W91676  31.963  31.856   2.322
18609W        W91677  40.923   0.935   2.697
18610W        W91678   8.142   9.427   1.793
18611W        W91679  33.134  22.461   0.813
18612W        W91680   3.271  34.829  13.375
18613W        W91681  19.845  13.295   4.034
18614W        W91682  44.756  28.028  10.624
18615W        W91683  28.498  21.986  10.428
18616W        W91684  32.139  18.145   0.992
18617W        W91685  20.256   8.441   4.128
18618W        W91686  25.213  12.135  14.312
18619W        W91687  34.960  29.898   2.274
18620W        W91688  35.356  10.837   2.122
18621W        W91689  23.794  21.478   0.731
18622W        W91690  26.260  30.139   0.240
18623W        W91691  18.628  26.186  14.092
18624W        W91692  13.590  14.726  13.880
18625W        W91693  16.001  25.024  14.462
18626W        W91694  40.009  27.576   3.608
18627W        W91695  29.140  31.237   0.714
18628W        W91696  20.030  30.254   3.105
18629W        W91697  38.577  16.125  12.008
18630W        W91698  38.216  32.484  13.825
18631W        W91699  34.952  23.632   4.217
18632W        W91700  37.914  41.270   0.812
18633W        W91701   1.109  13.368   0.390
18634W        W91702  37.959  27.648   4.301
18635W        W91703  39.366  24.507   4.035
18636W        W91704  38.721  38.023  11.264
18637W        W91705  23.541  30.755  12.440
18638W        W91706  28.862  34.931   3.259
18639W        W91707   3.334  39.180   4.517
18640W        W91708  41.419  14.209   1.323
18641W        W91709  16.118  12.712  13.826
18642W        W91710  28.538  13.110  12.797
18643W        W91711  16.268  27.044   0.868
18644W        W91712  36.760  25.115   1.269
18645W        W91713  11.669  38.040  12.083
18646W        W91714  10.154  28.976  13.381
18647W        W91715   7.674   7.443  13.881
18648W        W91716   2.339  33.646   0.986
18649W        W91717  36.401  17.423   1.161
18650W        W91718  15.780  18.112   4.552
18651W        W91719   6.827   7.802   2.482
18652W        W91720   8.940  42.533  11.371
18653W        W91721   5.798  24.171   2.356
18654W        W91722   8.605   4.222  11.601
18655W        W91723  30.595  26.409   2.772
18656W        W91724  26.426  41.473  14.819
18657W        W91725   5.941  24.791   3.032
18658W        W91726  29.370  19.127   3.831
18659W        W91727  16.241  29.028   4.438
18660W        W91728  12.806  31.488   4.909
18661W        W91729  38.016   3.532   4.683
18662W        W91730  34.866  41.025   4.453
18663W        W91731   7.809  41.463  10.861
18664W        W91732   3.438  41.952  11.248
18665W        W91733  12.161  16.839  14.205
18666W        W91734   3.088   0.113   4.090
18667W        W91735  44.243  22.656   1.203
18668W        W91736  17.471  40.146  14.904
18669W        W91737  43.292  26.262   3.697
18670W        W91738  41.037   2.477   4.154
18671W        W91739  24.404  31.099  13.124
18672W        W91740  15.233  24.966   1.869
18673W        W91741  10.170  15.572   1.727
18674W        W91742   7.202  28.890  13.348
18675W        W91743   6.400  35.085  14.933
18676W        W91744  41.354  15.643   4.330
18677W        W91745  37.384  14.272   3.302
18678W        W91746   3.571  24.201   0.770
18679W        W91747  41.530  39.873  12.121
18680W        W91748  35.910  41.522  10.749
18681W        W91749  13.061  10.720  13.439
18682W        W91750  22.698  13.236   0.312
18683W        W91751  38.505   3.401   4.543
18684W        W91752  16.151  33.088   4.677
18685W        W91753  23.530   4.486  11.794
18686W        W91754  35.887  23.136  13.322
18687W        W91755  21.702  23.456  12.557
18688W        W91756  42.542  10.695   4.220
18689W        W91757  35.938  35.087   4.974
18690W        W91758   7.175  30.632   2.955
18691W        W91759  35.614  23.589   3.651
18692W        W91760  12.841  17.946   4.610
18693W        W91761  33.309  26.443  13.048
18694W        W91762  20.567  23.326  13.211
18695W        W91763  42.366  30.419  13.101
18696W        W91764  39.878   6.405   4.612
18697W        W91765   5.705  22.590   3.645
18698W        W91766   7.356  16.839  13.746
18699W        W91767  21.710  22.439   3.598
18700W        W91768   6.923  15.207   2.812
18701W        W91769  27.202  17.256   2.297
18702W        W91770   8.854  17.822  14.237
18703W        W91771   9.464  43.087  14.754
18704W        W91772  40.249  13.702  13.296
18705W        W91773  26.886   6.257  12.119
18706W        W91774   6.169   9.731  11.974
18707W        W91775  22.634  36.169  11.680
18708W        W91776  32.133   7.346   0.377
18709W        W91777   3.020  27.581  10.450
18710W        W91778  37.994   2.172   2.966
18711W        W91779  44.311  35.771  14.235
18712W        W91780  27.679  10.685   0.188
18713W        W91781  30.140  31.418   3.638
18714W        W91782   1.591   9.688  13.507
18715W        W91783   6.464  14.100   4.742
18716W        W91784  20.019  41.484   1.933
18717W        W91785  35.995  29.861  11.125
18718W        W91786  38.516  35.960  12.459
18719W        W91787   5.583  35.617   2.275
18720W        W91788  15.225  25.539   0.611
18721W        W91789  36.956  34.046  10.642
18722W        W91790  38.484   4.398  13.431
18723W        W91791   2.978   3.697  11.648
18724W        W91792  22.959  21.891  13.216
18725W        W91793  26.725  27.974  14.405
18726W        W91794  36.849  33.375   0.853
18727W        W91795   0.445  23.663   0.446
18728W        W91796  10.376  44.081  11.051
18729W        W91797  18.299  19.190   4.161
18730W        W91798  30.473  17.568  14.244
18731W        W91799  40.378   9.143  12.294
18732W        W91800   9.327  30.769  10.957
18733W        W91801  15.873   8.968   2.051
18734W        W91802  39.018   6.646   4.043
18735W        W91803  20.733  12.088  12.974
18736W        W91804  18.094  38.842  11.522
18737W        W91805   4.733  30.121  14.764
18738W        W91806  28.698   7.102   2.300
18739W        W91807   4.908  29.186  13.580
18740W        W91808  26.935   4.436   0.316
18741W        W91809  42.593  22.697  13.383
18742W        W91810  16.228  28.082  12.514
18743W        W91811   9.816  36.266   0.359
18744W        W91812  27.661   6.671   2.647
18745W        W91813   8.200   6.188   3.305
18746W        W91814   7.413  20.181   1.344
18747W        W91815   7.876  32.397  14.347
18748W        W91816  44.532  26.577  14.318
18749W        W91817   7.925   0.301  14.905
18750W        W91818  33.106  15.841   3.733
18751W        W91819  28.352   7.097  12.888
18752W        W91820  44.687  24.549   4.545
18753W        W91821  40.854  18.755   1.922
18754W        W91822   2.926   2.036   4.204
18755W        W91823   9.067   4.714  10.891
18756W        W91824  37.904  17.670   3.421
18757W        W91825   9.350  30.210  11.019
18758W        W91826  40.063   3.642  10.920
18759W        W91827  16.552   2.321  14.709
18760W        W91828  16.644  13.788  11.191
18761W        W91829  27.013  21.577  12.509
18762W        W91830  31.229   7.296  14.415
18763W        W91831   5.684  10.491  14.235
18764W        W91832  26.222  24.100   1.301
18765W        W91833  12.620  11.834   0.493
18766W        W91834  37.116  32.431  11.886
18767W        W91835  44.942   2.866   4.647
18768W        W91836  28.556   8.160  11.520
18769W        W91837  12.822  29.561  13.569
18770W        W91838  28.033  15.207   2.941
18771W        W91839  43.099  18.220  13.920
18772W        W91840  17.080  16.251  12.393
18773W        W91841  11.070  25.927   2.287
18774W        W91842  41.911  34.937   2.295
18775W        W91843  26.512   4.754   4.099
18776W        W91844  15.098  29.382   1.393
18777W        W91845  35.922  41.421  14.765
18778W        W91846  25.941   1.171   4.139
18779W        W91847   3.207  38.294  11.667
18780W        W91848  35.007   1.658  11.460
18781W        W91849  33.381  38.340  13.389
18782W        W91850  23.095  16.201   5.434
18783W        W91851  13.311  29.800  11.918
18784W        W91852  18.855  25.797  12.387
18785W        W91853  12.635  40.685   1.304
18786W        W91854   2.345  32.353   3.430
18787W        W91855  12.510   4.896  12.579
18788W        W91856  37.026  41.981   2.180
18789W        W91857  14.081  26.512  14.257
18790W        W91858   6.449  22.704   4.194
18791W        W91859  17.164   3.239  14.563
18792W        W91860   2.225  20.578   3.682
18793W        W91861  16.755   8.304   2.299
18794W        W91862  29.233   4.505  14.532
18795W        W91863  39.003  41.321   3.208
18796W        W91864  21.447  17.358   4.553
18797W        W91865   6.022  26.245  14.206
18798W        W91866   8.575  25.603  11.355
18799W        W91867  12.207  29.094  13.041
18800W        W91868  17.753   5.931   2.669
18801W        W91869  29.589   0.847   3.799
18802W        W91870  30.857  13.808  11.854
18803W        W91871  34.308  35.812   1.410
18804W        W91872  41.531   3.803  10.989
18805W        W91873   6.499  42.313  14.271
18806W        W91874  35.522  35.449   3.150
18807W        W91875  40.877   8.338  10.628
18808W        W91876  25.093  14.921  13.988
18809W        W91877  21.400  31.628   1.248
18810W        W91878  13.468   4.545  11.624
18811W        W91879  43.399  41.018   3.271
18812W        W91880  35.634  17.124   4.138
18813W        W91881  20.610  29.979  11.328
18814W        W91882   5.637   9.740  11.896
18815W        W91883  20.240   9.235  14.430
18816W        W91884  14.010   7.891   3.715
18817W        W91885  31.103   7.174   0.350
18818W        W91886  22.112  15.188  10.702
18819W        W91887  37.566  11.784  14.748
18820W        W91888  23.020  14.089  13.547
18821W        W91889  43.965  42.496  11.507
18822W        W91890   6.665  32.921  12.488
18823W        W91891  13.888   5.527  11.041
18824W        W91892  29.529   7.675  11.417
18825W        W91893  31.133  19.125  10.669
18826W        W91894   8.815  28.927   0.393
18827W        W91895  34.950  12.375  14.445
18828W        W91896  30.109  41.831  13.299
18829W        W91897  20.148   1.961  10.946
18830W        W91898  34.644  10.219  10.767
18831W        W91899  18.780  18.487   0.281
18832W        W91900  38.127  33.170   1.405
18833W        W91901   6.151  14.728   0.267
18834W        W91902  12.100  14.633   3.356
18835W        W91903  11.263  29.250   2.166
18836W        W91904  31.092  16.623  12.871
18837W        W91905  22.325  11.052   0.848
18838W        W91906  11.322  23.661  11.859
18839W        W91907  34.598  33.343   4.160
18840W        W91908  41.394  14.788  12.802
18841W        W91909  38.914  26.815   1.774
18842W        W91910  20.012  22.536   3.205
18843W        W91911  35.639  32.861  11.176
18844W        W91912  28.111  20.457  10.791
18845W        W91913   9.147  33.645   5.191
18846W        W91914  19.749  29.676   2.354
18847W        W91915  14.493   0.249  14.785
18848W        W91916  43.463  44.034   1.031
18849W        W91917   7.389  37.070  14.844
18850W        W91918   1.837   6.247  13.532
18851W        W91919   2.986  30.025   2.758
18852W        W91920  31.534  14.665   0.685
18853W        W91921  39.815  11.067  14.857
18854W        W91922   4.899  28.483  10.658
18855W        W91923  25.568  13.972  11.409
18856W        W91924  25.411  25.149   0.383
18857W        W91925  36.274  28.300  12.551
18858W        W91926  40.175  22.008   0.346
18859W        W91927   8.177  21.075   3.351
18860W        W91928  23.568  39.305   5.095
18861W        W91929  39.752  30.840   2.941
18862W        W91930  21.729   8.212  12.423
18863W        W91931  25.158  15.226   1.731
18864W        W91932  34.053  44.301  12.361
18865W        W91933  43.777  23.393   3.762
18866W        W91934  17.726  25.098  12.571
18867W        W91935  34.866   3.425   0.533
18868W        W91936   1.330  22.057  10.597
18869W        W91937   7.295  41.409  11.009
18870W        W91938  33.602  20.947   3.720
18871W        W91939   2.891  36.924  14.418
18872W        W91940  25.742  26.078   4.194
18873W        W91941  17.930  12.197  14.978
18874W        W91942   2.975   6.180   1.971
18875W        W91943   4.479  38.899   4.990
18876W        W91944  12.503  25.617  14.048
18877W        W91945  28.225  37.039  11.645
18878W        W91946  27.011  17.467   2.761
18879W        W91947  41.767  36.031   2.203
18880W        W91948  41.428  16.623   4.238
18881W        W91949  32.472  32.645   0.793
18882W        W91950  11.302  31.694   1.299
18883W        W91951  11.525   8.392   1.357
18884W        W91952  15.635  22.671  13.041
18885W        W91953  37.451  29.409  14.293
18886W        W91954  12.762   3.534   1.908
18887W        W91955  28.414  37.025   0.897
18888W        W91956  20.439  12.027  13.416
18889W        W91957   4.667   8.886   4.151
18890W        W91958  35.860  35.367  13.885
18891W        W91959  11.277  25.514   4.095
18892W        W91960  28.794  14.091  12.805
18893W        W91961   7.675   7.172  14.322
18894W        W91962   4.066   3.064  13.798
18895W        W91963   1.350  43.510   3.298
18896W        W91964   1.318  15.668  12.841
18897W        W91965  20.357  43.233  13.421
18898W        W91966   2.104  42.795   0.334
18899W        W91967  41.738  30.849   4.118
18900W        W91968   8.822  34.772  14.867
18901W        W91969  38.802  38.464  11.028
18902W        W91970   0.226  25.241  14.983
18903W        W91971   0.596  21.529   4.154
18904W        W91972   0.829   0.006   0.979
18905W        W91973   4.316  18.144   0.046
18906W        W91974  10.818  28.659  11.816
18907W        W91975  11.669   0.238   3.927
18908W        W91976   6.429  33.035   0.777
18909W        W91977  44.350  36.069   4.991
18910W        W91978  17.013  12.239  14.944
18911W        W91979  44.453  34.599   0.049
18912W        W91980  27.728  20.222  11.622
18913W        W91981  30.056  20.243  11.716
18914W        W91982  25.626   7.242  11.994
18915W        W91983  25.988  13.096   1.818
18916W        W91984  35.889   4.326  11.951
18917W        W91985  33.819  41.792   1.357
18918W        W91986  18.484   1.482   4.618
18919W        W91987  37.562   0.711   2.363
18920W        W91988  27.993  32.499  11.945
18921W        W91989  32.092   3.399   2.087
18922W        W91990   2.462  15.054   0.238
18923W        W91991  29.931  16.808  14.024
18924W        W91992   3.290  22.281   4.083
18925W        W91993  10.260   2.972   0.037
18926W        W91994   9.096  24.208  13.454
18927W        W91995  30.257  39.344   1.193
18928W        W91996  22.211  27.625  13.031
18929W        W91997  41.020  13.895  12.925
18930W        W91998   4.173  30.166  11.277
18931W        W91999  29.167   5.460   3.150
18932W        W92000  42.802  16.860   4.400
18933W        W92001   3.256   1.905  10.345
18934W        W92002  25.594  41.835   1.916
18935W        W92003  26.978  35.216   1.040
18936W        W92004  33.266  29.045   1.956
18937W        W92005  28.332   7.635   0.924
18938W        W92006   9.858  26.533  13.028
18939W        W92007  34.177  10.371   4.112
18940W        W92008  14.110   6.816  10.792
18941W        W92009  12.588  32.916  14.007
18942W        W92010  22.475  39.877   0.367
18943W        W92011  10.420   5.817  10.457
18944W        W92012  38.654  26.579   4.341
18945W        W92013  12.702  30.239  11.950
18946W        W92014   5.292   9.358   0.472
18947W        W92015   5.438  24.152  14.907
18948W        W92016  24.321  35.030   3.681
18949W        W92017   8.567   1.474  10.618
18950W        W92018  33.366  39.386   1.751
18951W        W92019  26.409  25.256   1.847
18952W        W92020  33.312   7.855   1.766
18953W        W92021  42.918  21.254   0.945
18954W        W92022  18.010  27.203  10.734
18955W        W92023   8.163  19.729  14.889
18956W        W92024  27.195  43.080   2.739
18957W        W92025  29.673  15.423  11.609
18958W        W92026  26.280  44.686  11.101
18959W        W92027   7.291  10.709   1.644
18960W        W92028  32.857  33.065  13.895
18961W        W92029  18.628  42.546  14.397
18962W        W92030  26.506  16.054   1.648
18963W        W92031  21.485  28.977   3.186
18964W        W92032  19.089  34.378   0.243
18965W        W92033   4.255  20.314  13.441
18966W        W92034  27.940  34.024  11.978
18967W        W92035  31.935  35.272   1.051
18968W        W92036  31.358  15.773  14.820
18969W        W92037   3.638  35.858  11.102
18970W        W92038  35.717   4.909   4.061
18971W        W92039   5.485  32.827   0.309
18972W        W92040  34.599  38.284  11.030
18973W        W92041  37.426   9.440   1.281
18974W        W92042  21.366  25.219   0.395
18975W        W92043  35.279  37.028  11.351
18976W        W92044   3.466  22.278  10.353
18977W        W92045  28.719  20.927  14.317
18978W        W92046  37.308  24.473   4.328
18979W        W92047  29.011  24.682   2.065
18980W        W92048   9.413  11.121   4.093
18981W        W92049  18.710  18.312   3.679
18982W        W92050  12.378  16.796   1.667
18983W        W92051  30.109  16.789  10.686
18984W        W92052  11.413  28.652  12.968
18985W        W92053  21.039  11.136   4.637
18986W        W92054   8.472  42.391   2.377
18987W        W92055  33.502   2.800  10.192
18988W        W92056  40.373  18.024  13.426
18989W        W92057  27.726  13.832  14.363
18990W        W92058  31.854  36.641   4.075
18991W        W92059  15.037  11.466   4.693
18992W        W92060  42.847  28.114   4.481
18993W        W92061  44.528   3.423   4.243
18994W        W92062  37.350  35.048   1.717
18995W        W92063  38.813  42.333   3.257
18996W        W92064  42.217   2.316  11.492
18997W        W92065  44.399   9.706   2.350
18998W        W92066  22.164  38.472  13.903
18999W        W92067  16.475  17.549  13.982
19000W        W92068  19.456  15.771   3.716
19001W        W92069  26.989  37.355   1.899
19002W        W92070  16.368  16.472  12.575
19003W        W92071  44.296  18.607   1.710
19004W        W92072   8.975  40.836  13.547
19005W        W92073   0.814   1.736  10.586
19006W        W92074  20.801  41.362   5.000
19007W        W92075   6.774  30.078   0.813
19008W        W92076  30.431  35.025   5.031
19009W        W92077   2.337   4.159  11.497
19010W        W92078  13.780   2.469   1.362
19011W        W92079   5.728   9.141  10.899
19012W        W92080  40.925  44.987   5.041
19013W        W92081  28.441  12.232  12.986
19014W        W92082  25.665   2.181   2.390
19015W        W92083  28.050   1.241  11.410
19016W        W92084  34.494   8.935   1.855
19017W        W92085   6.539  15.013   4.259
19018W        W92086   3.420  14.107   3.682
19019W        W92087   2.554  34.370  11.916
19020W        W92088  16.638  32.944  12.133
19021W        W92089  28.693  18.295   2.772
19022W        W92090  38.830  41.378  11.914
19023W        W92091   6.890  39.815   0.430
19024W        W92092  39.278   6.123  11.126
19025W        W92093   4.381  38.512  11.902
19026W        W92094  21.149  41.673  11.500
19027W        W92095  19.525  30.609  14.413
19028W        W92096   8.701  17.716   0.809
19029W        W92097  37.234  37.825   2.321
19030W        W92098  15.244  14.592  11.484
19031W        W92099  38.576  35.353   4.578
19032W        W92100  41.777  12.657  12.520
19033W        W92101  44.335  36.247  14.473
19034W        W92102  34.087  39.104  12.133
19035W        W92103  21.519  28.788  14.409
19036W        W92104  32.788   8.559  13.897
19037W        W92105  32.758  35.145   1.268
19038W        W92106  36.999  19.042   0.795
19039W        W92107  20.511  14.351  11.622
19040W        W92108  41.326   1.435   2.220
19041W        W92109  42.502  29.010  11.496
19042W        W92110   2.994   1.807  13.099
19043W        W92111   9.668   7.702   2.188
19044W        W92112  30.647  36.951   3.294
19045W        W92113   3.796  22.632  13.310
19046W        W92114  38.262   6.302   1.518
19047W        W92115  26.504  27.136  12.367
19048W        W92116  27.610  11.864   0.913
19049W        W92117  23.668   1.931   0.225
19050W        W92118  28.484  10.199  11.187
19051W        W92119  12.789  39.580   2.266
19052W        W92120  33.050  37.346  10.658
19053W        W92121  26.712  30.073   1.632
19054W        W92122   3.550  39.208   0.345
19055W        W92123  24.647  37.943  12.093
19056W        W92124   9.284  21.770   3.610
19057W        W92125  17.805  31.439  12.491
19058W        W92126   3.938   6.263  12.026
19059W        W92127  29.576  19.574   3.653
19060W        W92128  12.265  16.249  11.912
19061W        W92129  22.614  27.236   1.361
19062W        W92130   4.728  44.816   0.494
19063W        W92131  44.935  10.921   1.434
19064W        W92132  22.212  41.400  14.368
19065W        W92133  16.442  16.562   3.053
19066W        W92134  40.462   0.219   3.271
19067W        W92135  13.304   2.466   3.190
19068W        W92136  20.080  22.618   0.732
19069W        W92137  35.162   6.349   0.959
19070W        W92138  24.067  16.819  13.293
19071W        W92139   0.685  41.972   4.608
19072W        W92140  10.311  42.000   1.372
19073W        W92141  23.427  23.028   4.091
19074W        W92142  44.014  35.613  12.470
19075W        W92143  38.330  44.366  14.857
19076W        W92144   9.662  25.452  14.904
19077W        W92145  38.374   6.539   9.703
19078W        W92146  27.539  38.673  12.870
19079W        W92147  12.694  21.592  10.691
19080W        W92148  11.109  33.679   4.241
19081W        W92149  13.775  39.996  14.004
19082W        W92150  24.781  28.040   1.789
19083W        W92151   1.934  10.181   0.307
19084W        W92152   5.771   2.518   2.114
19085W        W92153  21.262  17.129   0.087
19086W        W92154  11.248  12.915   1.852
19087W        W92155  27.720   9.267  11.039
19088W        W92156  22.754  32.482   3.173
19089W        W92157  34.037  27.626   4.060
19090W        W92158  27.559  20.298  12.555
19091W        W92159  34.378  16.321   2.762
19092W        W92160   1.259  44.347   2.323
19093W        W92161  15.025  36.035   3.532
19094W        W92162  11.683  25.756   3.270
19095W        W92163  12.592  27.133  14.816
19096W        W92164  21.140  12.807   2.937
19097W        W92165  41.003  25.665   2.637
19098W        W92166  24.659   4.893   2.438
19099W        W92167  32.112   5.042   3.911
19100W        W92168  16.748  11.585  11.507
19101W        W92169  32.032  19.822  13.799
19102W        W92170  30.069  44.878  14.166
19103W        W92171  37.074  37.499   0.539
19104W        W92172  35.304  28.878   0.246
19105W        W92173   2.227  23.233  12.599
19106W        W92174  38.010  28.911   2.696
19107W        W92175  40.646  25.755  13.680
19108W        W92176  22.113  41.479  11.285
19109W        W92177  38.779  35.950  11.587
19110W        W92178  36.983  39.484   0.399
19111W        W92179  26.608   6.258  11.676
19112W        W92180  41.918  29.871   3.179
19113W        W92181  42.482   9.112  10.990
19114W        W92182  18.214  12.404  13.132
19115W        W92183   2.341  10.815   2.378
19116W        W92184  32.035  17.688   2.143
19117W        W92185   5.786  11.831   2.627
19118W        W92186  19.820  40.757   3.707
19119W        W92187  24.049  29.556  12.897
19120W        W92188  41.814   7.912  12.868
19121W        W92189  32.434   5.496   1.690
19122W        W92190  14.038  15.087  13.068
19123W        W92191  30.514  42.088  14.334
19124W        W92192  26.354  17.786  14.762
19125W        W92193   8.657  41.891   5.043
19126W        W92194  33.861  14.660   0.521
19127W        W92195  14.799   5.775   1.815
19128W        W92196  20.435  42.514  12.091
19129W        W92197  15.132  17.041  13.119
19130W        W92198  18.547   2.197   1.870
19131W        W92199  13.633  14.792  12.881
19132W        W92200  27.258   1.486  12.420
19133W        W92201  22.141  14.314   1.677
19134W        W92202  13.305  26.134  11.589
19135W        W92203  36.792  17.777  11.189
19136W        W92204  18.756  41.442  13.585
19137W        W92205  19.724  24.260  13.390
19138W        W92206   9.989  38.886  12.194
19139W        W92207  18.644  36.947   2.843
19140W        W92208  11.417  31.510  10.932
19141W        W92209  12.179  13.054   0.830
19142W        W92210  22.607  41.263   0.275
19143W        W92211  17.770  44.471   1.132
19144W        W92212  26.610   3.133   4.285
19145W        W92213  21.021  33.872   0.590
19146W        W92214  11.293   5.178   3.025
19147W        W92215  19.666   7.504   3.707
19148W        W92216  17.087  38.695   4.129
19149W        W92217  33.339  33.517   2.741
19150W        W92218  13.046  10.553   1.345
19151W        W92219   1.753  37.842  14.864
19152W        W92220  21.234  44.814  10.535
19153W        W92221   4.455   2.650   0.727
19154W        W92222  16.171  12.403   0.926
19155W        W92223   0.999  24.982  14.481
19156W        W92224  44.870  13.854   3.909
19157W        W92225  27.582   3.864  14.287
19158W        W92226  33.915  34.358   0.044
19159W        W92227   1.832  10.281  13.573
19160W        W92228  10.944  21.756   2.613
19161W        W92229   7.899  24.786  14.581
19162W        W92230  14.625   0.382  12.511
19163W        W92231  36.454   6.950  10.656
19164W        W92232  12.195  40.912  10.569
19165W        W92233  41.139  21.219   4.747
19166W        W92234  22.148  30.121   0.235
19167W        W92235   2.200  29.050  14.868
19168W        W92236  43.669  36.059   0.384
19169W        W92237  11.388  21.034  14.052
19170W        W92238  27.205  25.547   1.719
19171W        W92239   8.729   5.200  14.432
19172W        W92240  10.194   5.909  12.667
19173W        W92241  22.944  24.885  14.025
19174W        W92242   8.897  32.372  10.583
19175W        W92243  33.361  25.429  14.301
19176W        W92244   0.875  13.308   1.850
19177W        W92245   2.866  22.040   2.868
19178W        W92246  37.921  39.523   1.968
19179W        W92247   8.299  24.988  13.824
19180W        W92248  31.461  37.763  11.147
19181W        W92249   7.171  42.766  13.879
19182W        W92250  10.699  16.317  11.895
19183W        W92251  16.170   0.477   4.631
19184W        W92252  41.514  37.968  13.554
19185W        W92253  15.182  27.963  11.225
19186W        W92254  25.223  32.325  11.391
19187W        W92255  18.688  24.318  10.793
19188W        W92256  15.883   5.917  13.736
19189W        W92257   4.985   7.826  12.076
19190W        W92258  41.914  17.925   3.629
19191W        W92259  29.567   0.749   0.781
19192W        W92260  42.870  36.223  11.107
19193W        W92261  27.954  27.628   4.833
19194W        W92262  33.626  24.429  10.642
19195W        W92263  22.192  19.671   4.279
19196W        W92264  32.875  10.669   3.803
19197W        W92265  17.797  39.718  14.897
19198W        W92266  43.940  26.407  14.052
19199W        W92267  43.404   8.253   0.891
19200W        W92268  10.637   0.009  13.788
19201W        W92269  11.108  38.876  11.827
19202W        W92270  44.297   5.175   1.337
19203W        W92271  44.649  26.713   0.323
19204W        W92272  37.104  29.072   2.776
19205W        W92273  18.626  41.092   0.735
19206W        W92274  31.838  26.456   4.576
19207W        W92275   9.881   9.401  12.726
19208W        W92276  41.126  25.569  13.566
19209W        W92277  40.367   5.105  10.762
19210W        W92278  41.990   8.159   2.853
19211W        W92279   3.878   4.721   1.035
19212W        W92280  17.174  21.561  12.895
19213W        W92281   3.223  20.820  13.062
19214W        W92282   0.523  40.919  13.081
19215W        W92283  38.787  44.767  11.587
19216W        W92284  34.117  29.537   2.926
19217W        W92285  22.749  28.417  14.359
19218W        W92286   3.787  12.877   4.592
19219W        W92287  29.589   5.190   3.261
19220W        W92288  31.913   2.965   4.809
19221W        W92289  19.257   2.186   0.280
19222W        W92290  34.427   4.413  10.581
19223W        W92291  27.498  39.210   3.686
19224W        W92292  13.763  29.642   0.284
19225W        W92293  22.207  23.204  11.939
19226W        W92294  20.590  30.979  12.208
19227W        W92295  17.618  44.982  13.430
19228W        W92296  30.435  23.542   2.139
19229W        W92297  39.227  44.191   4.726
19230W        W92298   3.401  30.449  13.763
19231W        W92299  23.641  15.702   0.892
19232W        W92300  21.769  38.379   2.821
19233W        W92301  31.880  40.141  14.958
19234W        W92302  28.667  38.400  10.726
19235W        W92303  10.104  20.755  13.946
19236W        W92304  32.520  37.543  12.894
19237W        W92305  35.089   5.183   1.460
19238W        W92306  43.254  43.495  14.515
19239W        W92307  38.933  35.806   3.691
19240W        W92308  13.711   5.982  12.093
19241W        W92309  17.766   2.396  13.179
19242W        W92310   3.498  37.447  10.232
19243W        W92311   7.846  38.542  12.893
19244W        W92312  17.253  21.092   1.406
19245W        W92313  33.873   4.420  12.393
19246W        W92314   1.802  44.960   2.360
19247W        W92315  35.074   8.797  13.820
19248W        W92316  25.462  43.588  12.447
19249W        W92317   9.582  28.344  13.419
19250W        W92318   4.842  28.461   1.332
19251W        W92319  23.132  23.161   3.021
19252W        W92320   1.497   6.338   2.330
19253W        W92321  38.445  23.245   0.855
19254W        W92322  32.077  39.388   2.107
19255W        W92323  18.415  25.579   2.604
19256W        W92324  20.740  25.502  10.738
19257W        W92325  33.529  11.129   1.210
19258W        W92326  16.091   2.551  14.018
19259W        W92327  37.130   6.981  12.374
19260W        W92328  21.581   5.365   0.520
19261W        W92329  38.346  38.041   2.303
19262W        W92330  34.266  24.962  11.172
19263W        W92331  19.481  35.197   4.054
19264W        W92332  24.792  36.184  12.052
19265W        W92333  23.685   5.184  14.478
19266W        W92334   6.800   1.636   4.192
19267W        W92335  34.938   4.276  14.927
19268W        W92336  44.747  31.523  12.352
19269W        W92337  43.237  16.664  14.337
19270W        W92338  33.918  25.078   4.624
19271W        W92339   8.717   2.456  13.506
19272W        W92340  11.554  44.782  14.468
19273W        W92341  32.284  19.306  13.701
19274W        W92342  18.383   2.993   1.573
19275W        W92343  10.486  16.965   3.664
19276W        W92344   6.419  15.671  12.019
19277W        W92345  20.911  20.040   3.645
19278W        W92346  43.928   1.375   3.335
19279W        W92347  40.760  18.823   3.916
19280W        W92348  10.318   6.437  11.111
19281W        W92349  10.258   1.553   4.990
19282W        W92350   1.877   9.664   4.087
19283W        W92351  18.019   2.962   4.877
19284W        W92352  18.445   2.363  12.528
19285W        W92353  26.457   9.369  10.108
19286W        W92354  34.280  19.063   0.672
19287W        W92355  12.179  15.255  11.021
19288W        W92356  23.507  16.246  12.253
19289W        W92357  27.344  43.940  12.900
19290W        W92358  13.131  10.672   0.320
19291W        W92359   9.469  38.859  12.066
19292W        W92360  18.708  21.197   0.223
19293W        W92361   8.169  34.991  11.639
19294W        W92362   3.720  21.899   4.630
19295W        W92363  15.339  25.359  13.946
19296W        W92364  37.411  38.016  12.068
19297W        W92365  29.315  10.720  11.451
19298W        W92366   1.985   4.795   1.880
19299W        W92367   9.239  32.600   3.708
19300W        W92368  14.002   3.978  13.851
19301W        W92369  26.182  30.435  12.024
19302W        W92370  39.587  42.819   2.825
19303W        W92371  28.896  15.535  13.006
19304W        W92372  14.815  14.965  13.411
19305W        W92373   8.670  34.971  11.542
19306W        W92374  14.606  38.282  11.494
19307W        W92375  33.319   9.353   1.784
19308W        W92376  38.546  10.954  11.165
19309W        W92377   0.534  37.939  12.583
19310W        W92378  40.244   5.107  12.870
19311W        W92379  10.754  10.432  13.492
19312W        W92380   8.027  25.229  12.080
19313W        W92381   7.341  26.682  11.515
19314W        W92382  16.361  12.743  10.619
19315W        W92383  25.168   5.764   0.299
19316W        W92384   3.951  41.107  11.074
19317W        W92385  42.282   9.324  14.865
19318W        W92386   3.061   6.436   3.771
19319W        W92387   3.960  33.603   5.031
19320W        W92388  27.415   1.333   0.225
19321W        W92389  37.513  28.991  10.740
19322W        W92390  42.894  24.108  13.438
19323W        W92391   5.771   0.257   4.643
19324W        W92392  42.555   3.340   2.308
19325W        W92393   3.450  26.524   1.846
19326W        W92394  43.825  10.112   1.723
19327W        W92395  40.725  12.280  14.939
19328W        W92396   3.899   1.649   4.970
19329W        W92397  14.489  12.653   5.066
19330W        W92398  25.955  36.075   1.381
19331W        W92399  34.999  37.332   2.544
19332W        W92400  44.427  25.356  11.896
19333W        W92401   0.323  35.996  13.478
19334W        W92402  43.340  33.370  14.551
19335W        W92403  10.673   7.885   0.584
19336W        W92404  33.815  34.000   4.230
19337W        W92405  41.552  14.251  12.965
19338W        W92406   7.205  35.812  11.984
19339W        W92407  17.938  26.499   0.464
19340W        W92408  21.793   8.519  13.061
19341W        W92409  37.872   8.874   0.961
19342W        W92410   5.388   5.803  11.244
19343W        W92411  23.259  25.588  10.539
19344W        W92412  12.350  28.530  10.747
19345W        W92413   4.229  40.848   1.306
19346W        W92414  39.924  14.606   4.329
19347W        W92415  29.130  22.785   3.744
19348W        W92416  37.042  36.534  11.700
19349W        W92417  26.561  39.488   2.255
19350W        W92418  34.505   4.936  13.472
19351W        W92419  42.618   8.121   0.452
19352W        W92420   8.479  17.467  11.531
19353W        W92421   4.555  22.222   0.450
19354W        W92422  21.748  22.163   1.822
19355W        W92423  33.509  33.081   4.430
19356W        W92424  29.342  23.620  13.940
19357W        W92425   3.787  15.606   3.773
19358W        W92426  30.992  25.624   3.246
19359W        W92427  24.232   5.722  12.050
19360W        W92428   5.624  27.128   3.139
19361W        W92429  16.390  23.606   4.576
19362W        W92430  31.664  40.141  11.896
19363W        W92431  36.230  30.684  12.760
19364W        W92432   6.196  27.468  14.989
19365W        W92433  33.194   6.680  12.009
19366W        W92434  37.469  21.968  10.996
19367W        W92435  39.846  16.031   0.402
19368W        W92436  38.523   0.440   1.451
19369W        W92437  38.004  30.532   3.853
19370W        W92438  29.989  43.621  12.907
19371W        W92439  22.480  33.865   4.203
19372W        W92440  18.727   4.891   4.627
19373W        W92441  42.771   2.739   1.764
19374W        W92442  11.823  41.225  10.375
19375W        W92443   1.916  36.925  14.664
19376W        W92444   6.818   5.307   3.290
19377W        W92445   9.906  26.645  10.618
19378W        W92446  19.378  30.075   1.694
19379W        W92447   9.697  24.770   2.708
19380W        W92448   3.018   9.725   1.243
19381W        W92449  31.886  38.838   0.020
19382W        W92450  38.006  34.106  14.825
19383W        W92451  37.922  33.880   0.876
19384W        W92452   5.196   2.345   4.337
19385W        W92453  34.349  13.697  13.318
19386W        W92454  27.053   0.934   3.745
19387W        W92455  21.677  17.115  14.210
19388W        W92456  25.464  25.657   2.499
19389W        W92457  15.550   0.280   2.838
19390W        W92458  26.815   9.747   3.219
19391W        W92459   2.750  11.606   4.582
19392W        W92460  29.425  16.203  12.411
19393W        W92461  12.842  29.114   3.900
19394W        W92462  20.271  31.649  13.422
19395W        W92463   3.889  17.226  14.974
19396W        W92464  33.558  24.658  11.100
19397W        W92465  42.257  40.105   2.615
19398W        W92466   6.261  43.251   4.819
19399W        W92467  12.284  41.471  14.431
19400W        W92468   9.993  17.323   5.373
19401W        W92469  34.014  20.811  13.487
19402W        W92470   3.038  15.744   2.360
19403W        W92471   1.902  36.420   1.690
19404W        W92472  40.609   6.245   1.836
19405W        W92473  39.888   6.738   3.159
19406W        W92474  22.111  25.142   3.603
19407W        W92475  27.170  33.587   1.710
19408W        W92476  35.924  40.496  10.715
19409W        W92477  26.800   3.103  11.745
19410W        W92478  39.737  44.490  13.787
19411W        W92479   9.241  30.554  11.398
19412W        W92480  16.060  12.898   2.447
19413W        W92481   8.076  40.029   3.736
19414W        W92482  23.736  16.425   9.778
19415W        W92483  39.524  14.701  12.223
19416W        W92484   1.255  24.204   4.627
19417W        W92485  44.306   9.694  13.902
19418W        W92486   9.128   7.612   4.584
19419W        W92487  22.727  18.240  14.323
19420W        W92488   7.187  29.650  12.433
19421W        W92489   3.042  39.248  10.848
19422W        W92490  43.646  13.257  11.169
19423W        W92491  38.480  43.034  10.713
19424W        W92492  23.431  37.875  14.798
19425W        W92493  16.030  32.449  14.460
19426W        W92494  36.118  33.058   0.401
19427W        W92495   5.916  12.865   2.679
19428W        W92496  25.920  19.698  12.999
19429W        W92497   6.731  21.408  13.504
19430W        W92498  11.687   4.531   3.895
19431W        W92499  16.758  11.626   0.164
19432W        W92500  18.218  12.903   4.613
19433W        W92501   5.446  23.340   2.896
19434W        W92502  35.811  31.137  14.910
19435W        W92503  13.526  22.006  11.744
19436W        W92504   5.537  30.920   2.878
19437W        W92505  32.959  32.789  10.729
19438W        W92506  17.196  24.594  14.885
19439W        W92507   4.753  13.135   2.242
19440W        W92508  14.305   4.326  12.395
19441W        W92509   5.410  25.045  10.580
19442W        W92510   4.658  12.851   4.614
19443W        W92511  44.649   3.205   0.890
19444W        W92512   4.351   0.741  11.153
19445W        W92513  15.225   4.900  14.966
19446W        W92514  29.343  33.886   4.447
19447W        W92515  17.828   5.213  10.983
19448W        W92516  12.705  16.650   2.773
19449W        W92517  29.478  27.608   4.025
19450W        W92518  13.717   7.051  14.529
19451W        W92519  41.530  39.426   4.004
19452W        W92520  34.224   8.211   4.693
19453W        W92521  42.474  33.231   1.175
19454W        W92522  43.655  25.114  14.891
19455W        W92523  30.940  23.584   0.336
19456W        W92524  37.049   9.231   0.368
19457W        W92525   9.874  42.777  14.984
19458W        W92526   6.840  34.623  14.950
19459W        W92527  33.450  16.656  12.119
19460W        W92528   1.433  24.868   4.857
19461W        W92529  20.136  11.659   2.479
19462W        W92530  28.986   1.374  10.986
19463W        W92531  38.499   1.012   0.303
19464W        W92532  33.630  12.594  11.680
19465W        W92533  34.909   1.364   3.682
19466W        W92534   2.650  18.692   4.580
19467W        W92535   6.238  39.820  13.804
19468W        W92536   5.021  15.333  14.280
19469W        W92537   8.873   2.925  13.707
19470W        W92538   8.759  15.263   2.378
19471W        W92539  11.172  21.715   4.776
19472W        W92540   1.349  11.378   4.077
19473W        W92541  33.302  40.612   0.918
19474W        W92542  33.807  42.822   0.437
19475W        W92543  39.644  39.920   3.720
19476W        W92544  21.651  41.953  13.918
19477W        W92545  22.534   1.668  14.056
19478W        W92546   9.248  43.014   1.989
19479W        W92547  10.351  12.820   4.782
19480W        W92548  26.230  35.980   1.835
19481W        W92549  18.427  41.458   4.487
19482W        W92550  42.832  14.604   2.785
19483W        W92551  13.252  44.260  13.424
19484W        W92552  33.074  34.907   2.227
19485W        W92553   0.328  28.019   2.652
19486W        W92554   5.778  37.780   1.726
19487W        W92555  29.826  15.640  12.863
19488W        W92556  17.277  16.642  11.213
19489W        W92557  25.662  38.314   1.831
19490W        W92558   1.603  31.975   4.779
19491W        W92559  32.240  26.598   5.145
19492W        W92560  22.019  31.478  11.432
19493W        W92561  20.534  32.582  14.766
19494W        W92562  41.910   8.947  14.872
19495W        W92563  13.190   3.288   1.643
19496W        W92564  44.332  44.710  13.993
19497W        W92565  13.929  44.160   1.217
19498W        W92566  43.284  16.253  14.798
19499W        W92567  40.519   2.819   0.049
19500W        W92568  43.818  11.085  10.625
19501W        W92569  40.086   1.772   0.880
19502W        W92570  14.632  15.332   1.247
19503W        W92571   0.782  43.158  14.751
19504W        W92572  30.705  10.119  11.882
19505W        W92573  33.969  33.813  14.948
19506W        W92574  40.912  11.655   3.878
19507W        W92575  33.967  14.293  11.552
19508W        W92576   9.449   3.720  11.552
19509W        W92577  38.066  16.301   1.865
19510W        W92578  41.922  13.215   0.690
19511W        W92579  43.688  27.518  13.161
19512W        W92580   1.278  20.705   2.509
19513W        W92581  44.047  14.686  10.999
19514W        W92582  14.184  30.863  10.652
19515W        W92583  23.810  19.607   4.675
19516W        W92584  21.711  24.203   3.676
19517W        W92585  41.448  29.857   3.982
19518W        W92586  41.745  28.591   4.846
19519W        W92587   0.998  37.639   0.485
19520W        W92588  38.935  29.584  14.257
19521W        W92589   7.317   7.431   4.069
19522W        W92590  15.279   8.357   2.870
19523W        W92591  37.718  11.174  12.108
19524W        W92592  39.518  20.766   3.174
19525W        W92593  35.044  44.659  10.815
19526W        W92594   5.347   5.282  14.523
19527W        W92595  19.067   6.244   1.473
19528W        W92596  11.970  16.468   2.371
19529W        W92597  37.423  40.021   2.811
19530W        W92598   2.813  22.622  11.494
19531W        W92599  33.906  39.764   2.717
19532W        W92600  42.014  33.032   4.551
19533W        W92601  25.614   8.722   2.201
19534W        W92602  17.404   0.398  11.784
19535W        W92603   5.261  12.899   3.294
19536W        W92604  38.853  39.978  12.606
19537W        W92605   2.614  14.902  12.995
19538W        W92606  10.672  28.290   0.283
19539W        W92607   9.179  15.607  14.875
19540W        W92608   7.910  23.380  14.361
19541W        W92609  30.552  36.534  10.622
19542W        W92610   4.483   6.466   4.067
19543W        W92611   1.273  24.465   2.590
19544W        W92612  42.147  22.793   2.930
19545W        W92613  41.933  44.909   3.716
19546W        W92614   9.653  40.849   5.006
19547W        W92615  32.374   0.325  11.549
19548W        W92616  11.349  27.746   1.855
19549W        W92617  17.191  28.232   3.217
19550W        W92618   3.477   2.291  10.624
19551W        W92619  39.883   8.225   4.703
19552W        W92620  14.729  14.579   0.816
19553W        W92621  26.048  21.163  10.878
19554W        W92622  17.510  37.053  14.729
19555W        W92623  10.046  40.276  13.891
19556W        W92624  25.017   7.029  13.489
19557W        W92625  21.725  43.946   4.149
19558W        W92626  30.883  34.458   2.371
19559W        W92627  37.830  35.331   3.775
19560W        W92628  21.885  31.139   2.647
19561W        W92629  34.102  38.448  11.593
19562W        W92630  35.539  18.791   2.579
19563W        W92631  37.919  43.288  12.904
19564W        W92632  31.122  26.462   3.501
19565W        W92633   2.005  27.353  11.500
19566W        W92634   0.828  22.111  11.644
19567W        W92635  15.010  25.235  14.459
19568W        W92636   9.853  25.505  10.963
19569W        W92637  14.748  33.848   1.789
19570W        W92638  11.618  42.407   0.295
19571W        W92639  37.363  33.453   2.718
19572W        W92640  43.431  40.292   0.295
19573W        W92641  23.569   2.954  11.770
19574W        W92642   5.890  42.055   1.225
19575W        W92643  10.844  27.692   2.517
19576W        W92644  36.846  17.727   4.573
19577W        W92645  39.063   8.417  11.560
19578W        W92646   2.539  15.788   2.213
19579W        W92647   8.869  25.198  10.566
19580W        W92648  39.325  32.039   3.172
19581W        W92649  17.528  16.850  11.646
19582W        W92650  40.738  13.377   2.201
19583W        W92651  20.682   1.914  12.616
19584W        W92652   2.898  21.120  12.818
19585W        W92653  23.042   4.473   4.339
19586W        W92654   8.207  43.838   1.028
19587W        W92655  15.208  37.911  12.257
19588W        W92656  44.735  44.013   2.716
19589W        W92657  28.423   9.749   0.833
19590W        W92658   3.844  10.978  14.231
19591W        W92659   3.372   2.462  12.171
19592W        W92660  10.532   0.680  14.352
19593W        W92661  24.306  15.702   4.021
19594W        W92662   7.787   3.896   0.236
19595W        W92663  40.232  40.764   0.190
19596W        W92664  23.743   7.402   0.692
19597W        W92665   3.682  36.988   2.670
19598W        W92666   7.279  14.079  10.567
19599W        W92667   6.192  43.800   4.876
19600W        W92668  19.648   3.429   0.970
19601W        W92669  20.634  14.570  13.004
19602W        W92670  11.543  31.170  14.844
19603W        W92671  28.396   6.655  14.837
19604W        W92672  28.494  38.582  10.278
19605W        W92673  30.366   7.334  13.018
19606W        W92674  31.689   8.313   1.883
19607W        W92675  31.458   7.458  11.575
19608W        W92676  39.715  39.550   0.834
19609W        W92677   6.684   3.425   2.182
19610W        W92678  27.690  25.010   5.018
19611W        W92679  26.170  13.551   4.096
19612W        W92680  14.037  39.040   4.586
19613W        W92681  23.168  23.988   3.851
19614W        W92682  43.844  30.895   4.614
19615W        W92683  19.496  20.559  13.839
19616W        W92684  41.934  25.416  13.118
19617W        W92685  25.508  29.556   2.280
19618W        W92686  32.799   1.796   3.688
19619W        W92687  24.609  16.398   5.089
19620W        W92688  21.661  35.747  10.745
19621W        W92689   7.412   2.734   2.259
19622W        W92690  20.103   8.411  12.067
19623W        W92691   8.253  43.541   3.829
19624W        W92692  23.454  34.557  13.459
19625W        W92693  29.243  33.804  13.625
19626W        W92694  23.643  17.109   0.435
19627W        W92695   1.563  23.235   3.374
19628W        W92696  17.678  14.582  10.655
19629W        W92697   3.469   7.762   1.789
19630W        W92698  30.215  30.508  14.498
19631W        W92699  25.406   0.171  14.370
19632W        W92700  34.856  42.348  12.550
19633W        W92701  35.059  34.495   1.710
19634W        W92702  18.634  35.626  11.100
19635W        W92703   4.304   6.180  12.830
19636W        W92704  22.133  12.735   1.788
19637W        W92705  13.408  11.199  13.433
19638W        W92706  19.300  35.706  12.920
19639W        W92707  37.194  23.890   0.986
19640W        W92708  35.064  44.891   1.285
19641W        W92709   2.284  44.470   4.373
19642W        W92710  12.703  42.348   1.197
19643W        W92711  11.736  38.607  11.212
19644W        W92712  27.092  24.970  12.479
19645W        W92713  35.796  34.583   4.900
19646W        W92714  34.615  42.004   1.873
19647W        W92715  32.345  30.543  13.051
19648W        W92716  37.886  35.852  14.592
19649W        W92717  20.618  20.004   1.394
19650W        W92718  24.225  22.586  11.092
19651W        W92719  30.908  31.865   3.270
19652W        W92720  44.012  21.170  14.020
19653W        W92721  17.203  25.549  13.406
19654W        W92722  16.722  36.063  14.832
19655W        W92723  37.066  13.370   1.408
19656W        W92724   5.135  36.814  12.409
19657W        W92725  29.683  30.457   2.306
19658W        W92726  37.305  35.588   3.064
19659W        W92727   4.682  39.050   2.364
19660W        W92728  34.040  25.032  14.487
19661W        W92729  15.197   5.254   1.231
19662W        W92730  13.887  16.258  13.361
19663W        W92731  40.889   0.665   4.657
19664W        W92732  24.068  37.013   3.801
19665W        W92733  25.646   7.735   4.959
19666W        W92734   8.388  25.583   4.621
19667W        W92735   6.384  12.201  14.553
19668W        W92736  16.709  35.600  11.662
19669W        W92737  35.857   5.339   1.462
19670W        W92738  35.987  23.675  14.324
19671W        W92739  43.386   7.826  10.795
19672W        W92740  10.530  18.995   4.250
19673W        W92741  30.149  14.385  11.091
19674W        W92742   2.749   5.671   1.402
19675W        W92743   7.320  33.968   2.193
19676W        W92744  15.116  23.116  10.794
19677W        W92745   6.714  39.202   2.742
19678W        W92746  43.388  17.572  11.460
19679W        W92747  13.565  20.227  14.771
19680W        W92748  13.657   7.777   2.929
19681W        W92749   0.956  14.562  12.050
19682W        W92750  14.080   5.294   2.278
19683W        W92751  33.903  41.523  13.440
19684W        W92752  21.825  11.488   0.076
19685W        W92753  43.332  13.858   1.417
19686W        W92754  14.047   0.431  10.237
19687W        W92755  10.460  11.901   4.605
19688W        W92756  26.518   7.669  12.991
19689W        W92757  22.479   1.267   3.538
19690W        W92758  32.409  22.614   4.672
19691W        W92759   8.251  25.038  12.517
19692W        W92760  32.770  20.799  14.547
19693W        W92761  28.719  16.028   4.638
19694W        W92762  25.595  32.122  14.297
19695W        W92763  13.871   1.574   1.494
19696W        W92764  21.156  30.466  13.341
19697W        W92765  40.437  29.479   4.215
19698W        W92766   7.824  20.202  11.468
19699W        W92767  23.143  28.055  14.052
19700W        W92768  13.636  28.984   1.720
19701W        W92769  37.593   5.753  13.126
19702W        W92770  38.358  17.088  12.666
19703W        W92771  13.266   7.665  13.416
19704W        W92772  30.345   0.787   1.313
19705W        W92773  10.839  10.901   1.676
19706W        W92774  43.190  44.899  11.135
19707W        W92775  42.969  18.113  12.012
19708W        W92776   0.571  21.627   1.420
19709W        W92777  26.489   5.291   3.214
19710W        W92778  22.775  29.612  11.580
19711W        W92779  17.350   4.700  11.971
19712W        W92780  34.880  24.224  11.981
19713W        W92781  32.522  37.283  13.359
19714W        W92782  16.662  31.385   3.760
19715W        W92783  27.702   5.127   1.301
19716W        W92784  27.185  18.170   4.413
19717W        W92785  12.001   1.758   2.897
19718W        W92786  19.123  38.559   4.235
19719W        W92787  11.898  15.316  12.592
19720W        W92788   1.264   7.560  11.158
19721W        W92789  18.854  13.230  12.369
19722W        W92790  20.340  19.117  13.378
19723W        W92791  27.567  21.225   2.345
19724W        W92792  37.585  10.153  13.536
19725W        W92793  23.214  30.424   0.036
19726W        W92794  10.946  24.535   3.916
19727W        W92795  41.278  23.880   4.657
19728W        W92796  26.202  30.347   2.428
19729W        W92797  32.451  31.670  14.810
19730W        W92798  34.154  22.570  13.548
19731W        W92799  43.506  44.401  11.996
19732W        W92800  30.126  44.374   3.420
19733W        W92801   9.637  21.235   0.695
19734W        W92802  30.920  39.149  11.482
19735W        W92803  36.518  42.010   2.386
19736W        W92804  31.757  30.402   0.409
19737W        W92805  19.781  19.668   3.277
19738W        W92806  26.662  33.439  12.508
19739W        W92807  27.250  25.642   4.046
19740W        W92808  15.658   8.251   3.196
19741W        W92809   7.332  38.591  11.558
19742W        W92810   8.780  34.492   0.759
19743W        W92811   5.846  41.364  11.030
19744W        W92812   0.973  24.786  13.865
19745W        W92813  10.580  43.491  12.961
19746W        W92814  28.411  27.461   3.903
19747W        W92815  21.002  15.065   1.508
19748W        W92816  19.789  11.511  10.114
19749W        W92817  11.170  31.227  12.473
19750W        W92818  42.856  19.127   0.084
19751W        W92819  36.714  22.415  10.689
19752W        W92820  30.481  23.023   1.243
19753W        W92821   7.209  32.542  14.802
19754W        W92822  44.483  16.536  12.451
19755W        W92823  13.792  16.898  10.824
19756W        W92824  18.182  11.121   0.945
19757W        W92825   2.320   5.938   3.754
19758W        W92826   4.875  42.920  12.800
19759W        W92827   3.345  10.065   0.381
19760W        W92828  18.281   6.546  13.633
19761W        W92829  13.258  32.129  12.597
19762W        W92830  11.018  14.588   4.910
19763W        W92831   8.823  39.050  14.115
19764W        W92832  24.371   6.000  10.863
19765W        W92833  17.601  11.888   1.790
19766W        W92834  41.867   8.747  13.038
19767W        W92835  20.578  24.686  10.989
19768W        W92836   9.186  10.621   0.977
19769W        W92837  37.413  29.515  10.752
19770W        W92838   6.235   8.568   2.293
19771W        W92839  18.629  26.471   3.966
19772W        W92840  30.062  40.226   3.288
19773W        W92841  29.892  33.286   3.760
19774W        W92842   1.963  21.024   3.013
19775W        W92843  19.558  23.974  14.239
19776W        W92844  20.579  16.769   4.692
19777W        W92845  27.824  42.769  13.962
19778W        W92846  44.869  37.862   2.862
19779W        W92847  38.788   4.366  14.838
19780W        W92848  22.652  14.533  11.131
19781W        W92849   1.317  39.485  12.305
19782W        W92850  15.168  40.342  14.904
19783W        W92851  31.936  38.524  13.600
19784W        W92852  41.795   7.699   1.305
19785W        W92853  14.009  12.096  12.434
19786W        W92854   3.412   2.242   4.899
19787W        W92855   9.267  38.520   3.064
19788W        W92856  12.207   5.208  13.082
19789W        W92857  28.733  29.606  14.472
19790W        W92858  43.408   3.634   2.832
19791W        W92859  34.351  27.156   2.031
19792W        W92860  21.066  30.873   3.633
19793W        W92861  33.012  18.564   2.831
19794W        W92862  34.161   1.258  14.004
19795W        W92863   5.287   5.344  12.578
19796W        W92864  13.140  38.073  10.755
19797W        W92865  35.588  41.002  14.907
19798W        W92866  23.458  22.280   3.139
19799W        W92867  32.705   9.993  13.881
19800W        W92868  28.038  19.035   4.810
19801W        W92869  18.582  32.491  11.093
19802W        W92870  31.050   6.770  11.015
19803W        W92871  10.746  35.978   3.296
19804W        W92872  32.450  19.158   2.223
19805W        W92873  29.937  30.998   3.885
19806W        W92874  16.194  30.311   3.109
19807W        W92875  11.785  21.020  14.986
19808W        W92876  32.864  38.039  10.555
19809W        W92877   6.489  31.953  11.488
19810W        W92878  41.706  39.901  11.185
19811W        W92879  23.468  16.358   2.261
19812W        W92880  13.411  13.025  13.338
19813W        W92881   4.912  31.107   3.729
19814W        W92882   7.681  40.495  11.170
19815W        W92883  32.361  23.740   4.153
19816W        W92884  30.976  35.092  11.313
19817W        W92885  33.785  36.426  14.467
19818W        W92886  25.157  27.489   1.403
19819W        W92887  23.253  41.710  14.851
19820W        W92888   2.808   5.028  14.437
19821W        W92889  32.368  28.782   4.221
19822W        W92890  30.611  16.575  12.642
19823W        W92891   2.738  42.434  11.004
19824W        W92892  13.278  29.344  11.668
19825W        W92893   2.302  23.719   3.269
19826W        W92894  27.701   7.919  12.407
19827W        W92895   9.372  24.930  12.931
19828W        W92896   1.752  30.910   4.504
19829W        W92897  28.491  12.607  12.133
19830W        W92898   5.808   9.148   3.717
19831W        W92899  40.344  31.703   1.665
19832W        W92900  10.294   7.409  11.183
19833W        W92901   6.328   6.003  12.487
19834W        W92902   6.634  33.320  14.487
19835W        W92903  26.999   1.334  12.869
19836W        W92904  33.328  22.592  12.884
19837W        W92905   6.219  23.149  12.648
19838W        W92906  14.104  30.764   3.757
19839W        W92907  42.054  34.023   1.288
19840W        W92908  21.212  10.319   0.969
19841W        W92909  29.142   0.036   3.601
19842W        W92910  36.966  43.807  12.637
19843W        W92911  32.460  36.055   2.142
19844W        W92912  43.960   0.786   0.402
19845W        W92913  34.964  31.887  14.423
19846W        W92914  39.495   9.185  12.491
19847W        W92915  21.149  13.174  12.034
19848W        W92916  20.194  16.792   1.349
19849W        W92917   6.661  38.762  10.657
19850W        W92918  33.524   3.774   4.823
19851W        W92919  36.562  17.233   2.767
19852W        W92920  33.951   3.444   0.732
19853W        W92921  20.579  29.754   0.486
19854W        W92922  16.022  42.852  14.420
19855W        W92923  20.661  16.381  11.606
19856W        W92924  14.286  15.576   1.529
19857W        W92925   8.758  21.285  11.709
19858W        W92926  27.446  27.685  12.918
19859W        W92927  13.721   1.676  10.668
19860W        W92928  43.278  25.838  13.202
19861W        W92929  43.773  12.678  13.509
19862W        W92930  24.582  13.295   3.834
19863W        W92931  37.408   4.470   4.636
19864W        W92932  27.283   9.336   1.718
19865W        W92933  31.587  13.204  13.491
19866W        W92934  43.524  15.130  10.865
19867W        W92935  23.460  24.710   4.147
19868W        W92936  20.688   3.011  11.966
19869W        W92937  25.908  29.570   2.591
19870W        W92938  25.219  32.604  10.974
19871W        W92939   0.885  18.783   1.412
19872W        W92940  39.116  19.283  12.880
19873W        W92941  28.217  38.796   4.237
19874W        W92942   7.645   0.535   0.282
19875W        W92943  26.122   9.821  14.096
19876W        W92944  42.622   3.824   1.709
19877W        W92945  42.015   1.322   4.724
19878W        W92946  29.888  15.812  14.911
19879W        W92947  19.788  28.567   1.799
19880W        W92948  23.114  19.545  13.821
19881W        W92949  19.280   0.036  13.258
19882W        W92950   3.222  43.725  11.726
19883W        W92951  33.535   3.273   3.566
19884W        W92952  23.436  18.127  14.886
19885W        W92953  11.442  34.379  14.076
19886W        W92954  25.471   6.415   0.875
19887W        W92955  40.477  10.103  11.177
19888W        W92956  22.515  12.671  13.021
19889W        W92957   7.702   7.568   3.283
19890W        W92958  24.417  40.296   4.937
19891W        W92959  14.854  41.785   2.227
19892W        W92960  15.480  34.091   2.277
19893W        W92961   6.497  16.745   1.739
19894W        W92962  10.129  26.935   4.308
19895W        W92963   2.041  40.317   2.281
19896W        W92964   5.818  26.712  13.993
19897W        W92965  28.466  32.448   3.593
19898W        W92966  33.635  27.228  10.710
19899W        W92967  26.483  12.227   2.955
19900W        W92968   1.001  28.528  14.461
19901W        W92969  10.782  22.757   0.744
19902W        W92970  35.475  33.321   1.289
19903W        W92971  32.997  35.591   0.539
19904W        W92972   8.104  25.334  11.256
19905W        W92973  25.455   8.500   3.023
19906W        W92974  14.586  40.860   0.545
19907W        W92975  16.825  29.532  14.670
19908W        W92976  39.294  13.236  14.110
19909W        W92977  28.605  11.792  13.247
19910W        W92978   2.503  27.063  14.787
19911W        W92979  38.348  39.337   3.552
19912W        W92980   9.200  22.131   0.392
19913W        W92981  10.709  28.383   4.611
19914W        W92982  35.615  11.700   2.648
19915W        W92983  39.274  15.136   3.780
19916W        W92984  33.217  27.645   1.419
19917W        W92985  18.657  40.874  12.400
19918W        W92986  39.502  41.564  13.075
19919W        W92987  30.991  31.504  11.110
19920W        W92988  10.066   3.785   1.423
19921W        W92989  21.281   3.782  13.816
19922W        W92990  29.623  28.150  12.976
19923W        W92991  21.024  44.806   3.683
19924W        W92992  16.831  12.738   2.651
19925W        W92993  36.819   4.109  14.629
19926W        W92994  42.211  17.012   3.651
19927W        W92995  42.043  43.164   1.403
19928W        W92996  11.730   5.692   0.383
19929W        W92997  26.021  10.358   2.846
19930W        W92998  33.310  19.264   3.262
19931W        W92999  32.155   2.211  12.426
19932W        W93000  42.484  41.422  14.227
19933W        W93001   1.996  21.030   3.544
19934W        W93002  21.495  31.489  12.924
19935W        W93003   0.984   6.685  14.274
19936W        W93004  22.687  39.347  13.052
19937W        W93005  38.811  30.651  12.864
19938W        W93006  13.725  42.830  13.766
19939W        W93007  28.466   0.359   0.416
19940W        W93008  41.719  28.258  14.873
19941W        W93009  12.768   4.954   2.150
19942W        W93010   5.849   9.645   4.785
19943W        W93011  31.533  35.961   2.244
19944W        W93012  20.568   7.245   4.267
19945W        W93013   7.387  42.333  10.759
19946W        W93014  34.563  16.354  13.544
19947W        W93015  24.410   1.924   0.905
19948W        W93016   5.920  20.584   4.853
19949W        W93017  18.643  18.258   0.969
19950W        W93018  30.486   9.275   2.464
19951W        W93019   1.253  42.474   0.724
19952W        W93020   8.274  15.411   0.072
19953W        W93021  27.642  24.475   4.753
19954W        W93022   0.857  32.355   4.244
19955W        W93023   0.302  17.253   4.521
19956W        W93024   6.732  42.423   1.195
19957W        W93025  16.345  27.871   0.539
19958W        W93026  37.478  12.876   0.829
19959W        W93027   9.220  23.785   2.870
19960W        W93028   1.658  17.817   0.006
19961W        W93029   8.882  15.234  13.474
19962W        W93030  24.954   9.753   2.635
19963W        W93031  35.542  36.120  13.503
19964W        W93032  36.399  16.272  10.708
19965W        W93033  37.463   2.884  14.848
19966W        W93034  15.529  37.414   2.284
19967W        W93035  36.601  21.603  13.835
19968W        W93036   6.687  26.983  12.457
19969W        W93037  34.096  17.093   1.778
19970W        W93038   4.427   7.509   0.244
19971W        W93039  24.599  30.008   0.057
19972W        W93040  21.567  43.237   5.515
19973W        W93041   7.560   9.287  14.489
19974W        W93042  42.264  18.824   2.863
19975W        W93043   3.218  10.603   4.496
19976W        W93044  30.078   1.451  14.525
19977W        W93045   4.455   0.774   2.912
19978W        W93046  31.671  42.451  10.502
19979W        W93047  18.494  24.129  12.104
19980W        W93048  26.864  20.100   0.792
19981W        W93049  38.499  12.270  13.110
19982W        W93050  19.128  33.947   1.023
19983W        W93051   6.658  17.151   4.552
19984W        W93052  30.272  11.578  12.030
19985W        W93053   2.976  40.439  11.558
19986W        W93054   7.641  29.146  13.279
19987W        W93055  15.647  39.944  14.572
19988W        W93056  10.375  23.162  12.427
19989W        W93057  44.743   3.459  13.453
19990W        W93058  27.158  37.490  14.732
19991W        W93059   4.084   1.307   4.097
19992W        W93060  16.732   0.928  11.605
19993W        W93061  12.586  33.491  13.943
19994W        W93062  39.929  24.142   0.306
19995W        W93063  22.481   4.385   0.885
19996W        W93064  39.463   6.407   0.775
19997W        W93065  26.906   1.941  11.913
19998W        W93066   6.097  18.080   3.160
19999W        W93067  19.776  41.326  14.788
20000W        W93068   9.205   8.319  13.635
20001W        W93069   3.063  13.322   3.660
20002W        W93070  41.634  35.464   4.580
20003W        W93071  13.168  23.414  13.485
20004W        W93072  17.049  11.638  14.254
20005W        W93073   5.514   7.249   3.530
20006W        W93074  21.305  30.264  11.419
20007W        W93075   4.947  23.298   3.769
20008W        W93076  10.936   7.702  11.713
20009W        W93077  13.850  25.371  12.041
20010W        W93078  34.283   1.511  11.992
20011W        W93079  40.998  21.732   2.187
20012W        W93080  25.742  43.295   1.226
20013W        W93081   0.612  11.184  11.404
20014W        W93082  10.555  21.556  10.595
20015W        W93083  37.751  30.019   3.686
20016W        W93084  22.541  24.459   3.235
20017W        W93085  31.991  22.254   4.076
20018W        W93086  39.331  43.467   1.315
20019W        W93087   2.998  17.423   2.371
20020W        W93088  26.132  35.570  10.672
20021W        W93089  25.986  41.423  11.652
20022W        W93090  19.995  28.076   1.898
20023W        W93091  41.906   7.410  12.880
20024W        W93092  10.505  44.185   3.330
20025W        W93093  34.654  34.349  12.097
20026W        W93094  44.764   5.869   1.257
20027W        W93095  27.062  18.818   1.882
20028W        W93096  11.115  40.384   1.370
20029W        W93097   5.181  39.147   3.388
20030W        W93098  28.461  12.989  11.755
20031W        W93099  41.649  41.054   2.231
20032W        W93100  10.302  20.941  11.684
20033W        W93101  33.491  11.160  14.852
20034W        W93102   6.924   1.784  11.236
20035W        W93103   7.702  27.668   3.026
20036W        W93104  33.752   2.842   1.486
20037W        W93105  16.083   7.526  12.495
20038W        W93106  26.935  23.638  14.939
20039W        W93107  32.141  14.080  10.791
20040W        W93108   9.814  18.613   4.886
20041W        W93109  43.036  28.770  12.367
20042W        W93110  15.818  39.625   3.069
20043W        W93111  44.749  35.140  14.956
20044W        W93112  13.226  35.605   0.002
20045W        W93113  37.254  14.008  12.431
20046W        W93114  36.344  20.573  10.807
20047W        W93115   5.352   1.237  14.805
20048W        W93116  11.201  19.203   0.799
20049W        W93117   4.844  44.298  11.160
20050W        W93118  43.209   7.389   0.645
20051W        W93119  29.714  13.907   0.343
20052W        W93120  39.588   6.832  13.826
20053W        W93121  30.985  15.492  13.510
20054W        W93122  41.542  25.830   5.134
20055W        W93123  38.272  32.492   5.045
20056W        W93124  31.387  14.732  13.324
20057W        W93125  24.560  11.274  13.440
20058W        W93126  17.546   5.523   1.267
20059W        W93127  12.803   7.767   4.434
20060W        W93128  35.468  19.821  12.081
20061W        W93129  22.995   3.252   3.233
20062W        W93130   8.701  42.492   4.399
20063W        W93131  38.913  29.145   4.764
20064W        W93132  31.115  42.345  12.458
20065W        W93133  36.069  32.062   4.967
20066W        W93134  30.031  33.872  12.485
20067W        W93135  27.742  38.601  12.400
20068W        W93136  40.031  30.982  10.464
20069W        W93137   1.313  26.824   0.556
20070W        W93138  29.628  28.665   4.542
20071W        W93139  14.580  20.105  11.065
20072W        W93140  17.074  15.214   1.878
20073W        W93141   4.290  33.830  13.947
20074W        W93142  28.105   3.186  13.114
20075W        W93143   5.377  37.003   4.171
20076W        W93144  38.434  13.781   2.251
20077W        W93145  25.475  34.633   2.304
20078W        W93146  40.425  11.274  14.518
20079W        W93147  30.929  36.666  12.171
20080W        W93148  27.166   4.936   2.389
20081W        W93149  21.518  39.964  12.025
20082W        W93150  14.483  38.593   3.290
20083W        W93151  18.470  34.809  12.557
20084W        W93152   0.451  14.397   0.675
20085W        W93153  37.980  14.460  12.978
20086W        W93154  36.291  16.533  11.188
20087W        W93155  34.854   6.795  14.044
20088W        W93156  14.249  35.446   2.996
20089W        W93157  22.972  31.143  14.304
20090W        W93158  28.923   5.235   1.893
20091W        W93159  34.622  25.976  14.360
20092W        W93160   9.433  44.240  14.508
20093W        W93161  10.174   6.243  10.626
20094W        W93162  42.289  13.141   1.044
20095W        W93163  36.364   4.774   2.259
20096W        W93164  29.613  24.488  13.293
20097W        W93165  28.482   9.323   2.899
20098W        W93166   5.627  31.607  14.881
20099W        W93167  44.716  32.488  11.855
20100W        W93168  12.807  35.451   1.666
20101W        W93169   9.184  40.019   3.219
20102W        W93170   7.839  15.104  11.071
20103W        W93171  31.873  13.777  14.489
20104W        W93172  37.768  18.794  11.957
20105W        W93173   1.475  42.506  13.680
20106W        W93174  18.634  27.318   4.504
20107W        W93175  36.003  44.967   3.213
20108W        W93176  16.519  41.615  14.992
20109W        W93177  30.557  41.852  14.808
20110W        W93178  10.249  21.181   2.743
20111W        W93179  20.439  33.517   1.859
20112W        W93180  11.344  36.254  11.977
20113W        W93181  42.965   6.307  13.779
20114W        W93182  18.824  36.368  11.969
20115W        W93183  16.362   6.258  13.823
20116W        W93184  14.616  22.343   0.325
20117W        W93185  12.730  14.027   4.472
20118W        W93186   3.727  42.287  13.897
20119W        W93187  42.934  43.436   1.515
20120W        W93188  28.225   3.472   2.742
20121W        W93189   0.971  28.521   3.063
20122W        W93190  13.486  20.176   3.283
20123W        W93191   4.264  20.856  14.369
20124W        W93192  35.694  36.438   4.304
20125W        W93193  24.971   5.978   4.255
20126W        W93194  36.891  39.798  12.643
20127W        W93195  36.206  24.442   1.816
20128W        W93196  23.657  29.427  14.280
20129W        W93197  32.916  29.206   0.508
20130W        W93198  24.839   9.914  14.844
20131W        W93199   8.936  39.379  12.972
20132W        W93200  33.192  35.097  10.794
20133W        W93201  16.873   5.191   3.928
20134W        W93202   1.433  33.865   1.938
20135W        W93203  34.388   7.088   0.676
20136W        W93204   5.850  18.061  12.166
20137W        W93205  42.071  25.153  10.450
20138W        W93206  42.594   9.785  13.312
20139W        W93207  33.870  22.104  14.719
20140W        W93208  20.851  21.217   0.493
20141W        W93209  24.792  18.338  14.801
20142W        W93210  17.907  18.183  11.142
20143W        W93211  24.935  43.006   3.626
20144W        W93212   2.332  22.042  11.877
20145W        W93213   5.411  20.506  12.976
20146W        W93214  16.814   1.839  13.045
20147W        W93215  39.862   8.229   3.754
20148W        W93216   0.949   7.270  12.481
20149W        W93217   5.798   3.165  13.888
20150W        W93218  35.664  27.986  12.867
20151W        W93219  42.876   0.301   1.768
20152W        W93220  41.364  43.264  13.131
20153W        W93221   1.407  31.529   3.287
20154W        W93222  26.490  18.044   2.291
20155W        W93223  20.656   3.924   4.228
20156W        W93224  44.872   0.025   1.758
20157W        W93225   2.132   7.492   2.825
20158W        W93226  31.684  20.473  12.462
20159W        W93227  11.435   5.285  13.508
20160W        W93228   7.980  25.631  14.533
20161W        W93229  44.413  17.068  14.073
20162W        W93230  43.984  22.821  14.230
20163W        W93231  19.216  18.115  14.672
20164W        W93232  31.256   4.557   0.224
20165W        W93233  14.571  26.011   0.906
20166W        W93234   5.891  10.906  10.731
20167W        W93235  14.864  28.261   4.069
20168W        W93236   4.454  29.922  13.424
20169W        W93237  10.404  16.982   2.805
20170W        W93238   5.341  19.800   4.283
20171W        W93239  30.044  35.772   0.316
20172W        W93240  15.633  21.758   0.724
20173W        W93241  19.632  16.403   1.373
20174W        W93242  42.982  34.621  11.582
20175W        W93243  30.022  44.658  10.331
20176W        W93244  40.592  34.298  11.101
20177W        W93245  29.772  21.443   2.791
20178W        W93246  21.593  39.608   0.716
20179W        W93247  36.472  31.497   2.477
20180W        W93248  12.836   3.233   1.248
20181W        W93249  12.928  37.277   2.582
20182W        W93250   0.901  14.872   0.029
20183W        W93251  21.861  43.801   4.652
20184W        W93252   1.831  38.619   0.360
20185W        W93253  43.273  25.137  13.372
20186W        W93254  39.629  34.763   2.064
20187W        W93255  19.075  33.507   2.343
20188W        W93256   6.934   1.468   4.673
20189W        W93257  39.758  18.207   1.372
20190W        W93258  27.011   8.512  12.052
20191W        W93259  31.501   3.136  11.477
20192W        W93260  43.986  44.510  14.847
20193W        W93261  15.058  16.141  12.504
20194W        W93262  18.554  26.128  13.077
20195W        W93263   4.104  34.309  12.321
20196W        W93264  22.706   4.775  13.812
20197W        W93265  11.112  13.623  11.298
20198W        W93266  22.060   6.396  14.776
20199W        W93267   6.414  18.988  14.993
20200W        W93268  21.293  26.692   0.807
20201W        W93269  16.755  18.281   1.796
20202W        W93270   8.646  30.701   3.691
20203W        W93271   7.439  41.460   1.454
20204W        W93272   3.691  26.148  12.045
20205W        W93273  41.194  27.982  12.318
20206W        W93274  28.727  12.268   3.576
20207W        W93275  13.290  35.711   5.056
20208W        W93276  43.833   6.472  13.858
20209W        W93277   5.591  17.582  14.855
20210W        W93278  42.356  23.889   2.189
20211W        W93279  38.024  41.724  12.098
20212W        W93280   8.663  41.789   5.558
20213W        W93281  17.863  24.694   0.962
20214W        W93282  12.215  43.652   4.802
20215W        W93283  33.423  43.455   3.004
20216W        W93284  39.215  23.694   3.699
20217W        W93285  31.625  23.594  13.674
20218W        W93286  12.481  14.337  14.367
20219W        W93287   1.024   6.238  12.991
20220W        W93288  35.405  31.024  12.408
20221W        W93289  24.527  38.330  11.131
20222W        W93290   9.519  32.569   1.873
20223W        W93291  15.293  25.871   1.985
20224W        W93292  33.489   0.664  11.079
20225W        W93293  18.112  43.260  12.520
20226W        W93294  30.208   5.330   4.707
20227W        W93295  24.002  23.574   4.387
20228W        W93296  27.690  15.951   4.964
20229W        W93297  16.644  20.290   1.686
20230W        W93298   6.014  19.519   0.781
20231W        W93299  19.728   6.993   2.349
20232W        W93300  25.132  27.659   1.960
20233W        W93301   9.588  15.788  13.278
20234W        W93302   3.440  29.975  12.496
20235W        W93303  35.450  13.674  11.477
20236W        W93304  12.551   4.107  13.839
20237W        W93305  12.124  28.470  13.341
20238W        W93306  13.277  26.682   2.674
20239W        W93307  11.946  30.669   4.262
20240W        W93308   9.091  36.410  12.231
20241W        W93309  25.703  38.915   0.232
20242W        W93310  28.823  16.109  14.303
20243W        W93311  40.436  32.654  13.927
20244W        W93312  26.472  43.108  14.002
20245W        W93313  15.226  24.485  12.805
20246W        W93314  26.519  14.870   3.263
20247W        W93315   4.531  23.072  10.674
20248W        W93316  33.101  43.775   1.168
20249W        W93317   5.990  21.128   1.644
20250W        W93318   8.025  19.498   0.330
20251W        W93319   6.412   7.669   2.220
20252W        W93320  26.669  28.730  10.728
20253W        W93321  23.679  34.153   2.835
20254W        W93322  33.418  34.061   2.173
20255W        W93323  32.015  37.456  12.282
20256W        W93324   1.379   0.348  10.600
20257W        W93325  35.874  30.094   4.320
20258W        W93326  26.469   4.462   4.554
20259W        W93327  16.713   3.836  13.861
20260W        W93328  24.497  15.051   2.939
20261W        W93329  42.969   1.268   2.165
20262W        W93330  14.748  32.097  12.379
20263W        W93331  15.731  30.106   3.227
20264W        W93332  25.379   3.447   1.569
20265W        W93333  37.809  20.986  13.025
20266W        W93334  22.816   9.825   4.893
20267W        W93335  37.347  18.210  14.510
20268W        W93336  44.975   3.314  13.896
20269W        W93337  25.725  17.760   0.724
20270W        W93338  16.748  15.795  11.114
20271W        W93339  37.174   9.731  12.548
20272W        W93340  18.637  42.047   3.097
20273W        W93341  34.097  21.491   3.140
20274W        W93342  38.603   2.359  13.311
20275W        W93343  18.768  27.033  10.594
20276W        W93344  41.429  44.924  12.512
20277W        W93345  21.606   0.084   0.767
20278W        W93346  10.645  25.164   1.194
20279W        W93347  15.258   7.505  14.281
20280W        W93348  35.191  36.431   4.437
20281W        W93349  18.391  10.245   0.937
20282W        W93350  13.038  14.562  11.882
20283W        W93351  37.438  17.044   1.818
20284W        W93352  21.257  19.652  14.197
20285W        W93353  19.622  15.242   1.961
20286W        W93354  16.071  10.279   4.643
20287W        W93355  14.271  31.690   4.793
20288W        W93356   4.491  20.389  14.459
20289W        W93357  25.716  11.700   3.111
20290W        W93358  41.418  15.024  10.196
20291W        W93359  19.171  19.033   3.980
20292W        W93360  36.368   2.744  12.851
20293W        W93361  26.290  19.572  14.947
20294W        W93362   1.952  41.040  11.105
20295W        W93363  28.764   5.475   4.377
20296W        W93364  34.730  31.241   2.372
20297W        W93365  29.192  37.192   3.755
20298W        W93366  21.258  14.231  12.189
20299W        W93367  15.577  38.776   4.963
20300W        W93368  40.059   1.889  14.435
20301W        W93369  36.473  25.176  10.621
20302W        W93370  20.670  43.919  14.216
20303W        W93371  33.181  28.999  13.980
20304W        W93372  35.902  35.553   4.192
20305W        W93373   5.208   0.450   3.554
20306W        W93374  44.941   3.928   4.926
20307W        W93375  22.507   5.415   0.188
20308W        W93376  24.138  43.756  14.838
20309W        W93377  32.746  20.384   0.677
20310W        W93378  23.619   9.900  10.723
20311W        W93379  23.615  22.981  14.609
20312W        W93380   8.453  24.685  12.875
20313W        W93381  40.787  35.458   0.802
20314W        W93382   2.414   5.340   0.381
20315W        W93383  26.787  18.708  13.865
20316W        W93384  20.114  35.877   0.402
20317W        W93385  14.537   7.930   0.132
20318W        W93386  11.579   6.170  13.237
20319W        W93387  44.024   6.486   0.228
20320W        W93388  30.237  14.344  12.035
20321W        W93389  40.782  35.428   3.179
20322W        W93390  14.690   4.940  13.557
20323W        W93391   4.406  31.877   2.237
20324W        W93392  11.908  26.108   0.784
20325W        W93393  18.232  20.128  10.566
20326W        W93394  30.400  13.877  14.331
20327W        W93395  40.661  29.686   2.858
20328W        W93396   4.973  24.428  12.069
20329W        W93397  28.418  22.562  10.314
20330W        W93398  30.133  12.156  12.144
20331W        W93399  24.851   6.227  11.810
20332W        W93400  37.118  33.579   2.220
20333W        W93401  13.043  20.595   0.875
20334W        W93402  17.255  14.805   0.606
20335W        W93403   1.783  31.551   0.514
20336W        W93404  37.127  27.564   3.054
20337W        W93405  43.933   3.437  12.895
20338W        W93406   7.273   2.769   4.565
20339W        W93407  37.418  44.948  13.024
20340W        W93408  44.055  27.104   1.851
20341W        W93409   6.228  12.350  13.613
20342W        W93410  23.698  17.669  14.817
20343W        W93411   3.264  43.409   2.619
20344W        W93412   3.499  36.305  10.353
20345W        W93413  13.156  42.286   0.897
20346W        W93414  25.116   2.984  14.489
20347W        W93415   5.231  19.478   2.836
20348W        W93416  42.526   5.518  11.039
20349W        W93417  17.823  31.458   1.206
20350W        W93418  41.118   1.873   0.081
20351W        W93419  27.535   1.812  12.094
20352W        W93420  32.933  31.457  14.977
20353W        W93421   9.337  10.620   3.213
20354W        W93422  34.135  13.322   2.239
20355W        W93423   4.747   6.882   3.260
20356W        W93424  31.048  14.813   1.889
20357W        W93425  44.163   3.727  14.009
20358W        W93426  17.276  34.056   4.082
20359W        W93427  20.579  37.989   2.343
20360W        W93428   7.324   3.468  11.808
20361W        W93429   4.028   7.833  13.528
20362W        W93430   6.220  28.732   3.203
20363W        W93431   8.873  30.417   3.260
20364W        W93432  19.619  15.341   2.864
20365W        W93433  24.087   7.589   1.447
20366W        W93434  22.733   7.931  12.016
20367W        W93435  35.426  30.137   3.535
20368W        W93436  44.393  31.129  12.936
20369W        W93437  35.129  24.623   1.742
20370W        W93438  21.220  20.762  12.998
20371W        W93439   2.016  38.876   2.045
20372W        W93440   3.659   6.785  13.455
20373W        W93441  27.275   9.520   3.305
20374W        W93442   4.906  30.857  14.335
20375W        W93443   9.592  14.552  13.327
20376W        W93444  35.382  35.111  10.881
20377W        W93445  12.814  33.974  13.865
20378W        W93446  21.234   4.902   1.253
20379W        W93447  11.431   6.755   4.487
20380W        W93448  15.139   3.445  12.771
20381W        W93449  14.530  40.808   3.431
20382W        W93450  39.403  24.999   2.132
20383W        W93451  33.023  29.976  12.877
20384W        W93452  17.777   9.394  14.683
20385W        W93453   9.876  37.302  11.013
20386W        W93454   1.390  22.039   2.636
20387W        W93455  38.293  11.562   3.593
20388W        W93456  30.506   7.341  12.142
20389W        W93457   9.176  35.674  12.275
20390W        W93458  38.570   7.237   3.085
20391W        W93459  44.510  14.725  13.318
20392W        W93460  40.311  27.860   9.844
20393W        W93461  13.698  37.354  11.607
20394W        W93462  41.572  12.691   3.829
20395W        W93463   2.282  38.580  14.445
20396W        W93464  24.971  42.268   2.367
20397W        W93465  22.186  22.876  14.875
20398W        W93466   6.005   2.692   3.039
20399W        W93467  44.815  43.948  11.485
20400W        W93468  35.998   0.880   4.128
20401W        W93469  22.157  14.281   3.111
20402W        W93470  20.681  26.987   0.930
20403W        W93471   3.683   8.860   3.338
20404W        W93472  21.943   8.758   4.999
20405W        W93473  36.629  11.716  11.107
20406W        W93474  38.026  38.329   4.765
20407W        W93475  36.818  14.594  13.323
20408W        W93476  41.431  35.890   4.799
20409W        W93477   8.183   3.349  12.156
20410W        W93478   8.072  12.062  12.979
20411W        W93479   2.694  44.771  14.453
20412W        W93480  20.151  11.245   3.337
20413W        W93481   6.267  15.175  12.925
20414W        W93482  36.612  19.188   4.477
20415W        W93483  38.512  11.358  12.521
20416W        W93484  31.684  31.831   0.322
20417W        W93485  30.687  11.843   1.776
20418W        W93486   4.556  29.460   4.404
20419W        W93487  15.751   8.683  11.650
20420W        W93488  16.864  25.703   0.959
20421W        W93489  30.496  44.859  10.935
20422W        W93490  38.367   0.681  14.887
20423W        W93491  14.876  25.584   4.500
20424W        W93492  43.427  40.582  12.024
20425W        W93493  33.814  44.996   3.198
20426W        W93494  26.297   5.631   4.469
20427W        W93495  19.673  18.154   0.340
20428W        W93496   6.520  40.979   0.713
20429W        W93497  29.092  15.096   2.762
20430W        W93498  19.339   8.246  14.619
20431W        W93499  42.901  27.849   3.012
20432W        W93500  37.273  15.852   0.611
20433W        W93501   8.383  30.241  13.882
20434W        W93502  39.314   3.454   5.053
20435W        W93503  30.922   0.991  12.058
20436W        W93504   1.383  35.412  13.580
20437W        W93505  16.780  21.492   2.595
20438W        W93506  40.083  43.659  12.525
20439W        W93507  27.504   7.631   2.553
20440W        W93508   9.961  29.367   3.747
20441W        W93509  18.680  35.400  14.031
20442W        W93510  12.876  38.090  14.330
20443W        W93511   4.175  43.310  14.860
20444W        W93512  42.872  22.987   4.605
20445W        W93513  20.903  29.516  13.597
20446W        W93514  18.926  38.843   1.189
20447W        W93515  29.682   6.774  12.086
20448W        W93516  12.012  12.110  10.046
20449W        W93517   9.567  29.604   0.745
20450W        W93518  11.793  23.687   4.066
20451W        W93519   6.128  18.477  12.343
20452W        W93520  20.404  27.136  12.937
20453W        W93521   5.644  22.097   0.935
20454W        W93522  32.941  38.711   2.641
20455W        W93523  30.026  34.073   1.837
20456W        W93524  12.507  29.071  11.525
20457W        W93525  27.757  20.648  12.858
20458W        W93526   0.821  40.607   0.587
20459W        W93527  29.605  34.650  14.786
20460W        W93528  15.697  32.952  13.990
20461W        W93529  16.114  18.617   2.402
20462W        W93530  18.694   9.136   2.342
20463W        W93531  17.495   5.412  11.969
20464W        W93532  20.107  12.011   4.067
20465W        W93533  30.562  23.260   3.311
20466W        W93534  36.371  27.026   3.091
20467W        W93535  31.598  36.542   4.509
20468W        W93536   7.961  11.558  13.886
20469W        W93537  38.909  11.911  14.951
20470W        W93538  15.733   8.491  10.641
20471W        W93539  32.042  36.163   4.047
20472W        W93540  30.484  33.190   1.764
20473W        W93541  12.110  21.673   0.059
20474W        W93542  12.743   5.194  13.077
20475W        W93543  43.394  32.714   1.293
20476W        W93544  27.562  33.062   1.015
20477W        W93545  34.880   4.024  12.064
20478W        W93546   0.712  39.343   0.657
20479W        W93547  25.359  19.434   3.274
20480W        W93548  26.302  14.796   1.184
20481W        W93549   4.250  24.198  13.058
20482W        W93550  19.768  10.290   4.148
20483W        W93551  31.454   3.541  14.467
20484W        W93552  17.060   6.811  14.950
20485W        W93553   9.011  24.449  13.902
20486W        W93554  22.084  37.834  11.177
20487W        W93555  39.546   0.342  14.949
20488W        W93556  30.915   7.854  12.448
20489W        W93557  31.057   9.624   0.860
20490W        W93558   3.910  17.302   2.434
20491W        W93559  21.195  25.100  10.297
20492W        W93560  44.825  37.487   1.207
20493W        W93561  39.042   9.465  11.718
20494W        W93562   5.908  17.141  14.782
20495W        W93563  20.774  27.464  11.699
20496W        W93564   2.486  20.776   0.957
20497W        W93565   5.698   6.879  14.846
20498W        W93566  34.441  36.653  14.937
20499W        W93567  31.485  41.312  14.391
20500W        W93568  28.832  13.984   0.825
20501W        W93569  29.833  19.938  13.974
20502W        W93570  19.067  44.804   0.899
20503W        W93571  24.105  34.174  10.730
20504W        W93572  31.129   1.924  11.136
20505W        W93573   9.375  26.765   0.020
20506W        W93574   1.949  14.911  12.005
20507W        W93575   5.361  33.326  12.823
20508W        W93576  31.354  12.003   0.955
20509W        W93577  35.779  40.778  14.473
20510W        W93578   8.143  40.870  12.452
20511W        W93579  20.110  16.585   4.870
20512W        W93580  18.052  29.128  14.254
20513W        W93581  14.167   6.438   1.849
20514W        W93582  18.826  15.098  13.871
20515W        W93583   6.239   1.593  13.498
20516W        W93584  19.032  27.121  13.599
20517W        W93585  20.043   2.834   0.630
20518W        W93586  19.645  14.200   0.020
20519W        W93587  16.025  35.024   3.776
20520W        W93588  19.317  42.530   1.829
20521W        W93589  32.814  13.729   2.867
20522W        W93590   6.733  34.588   1.330
20523W        W93591  17.547  34.287   0.521
20524W        W93592  19.919  15.977   3.639
20525W        W93593  17.286  43.493  10.990
20526W        W93594   7.369  44.250  12.995
20527W        W93595   3.907  27.159  13.461
20528W        W93596  16.580   7.439   1.943
20529W        W93597  21.819  34.302   0.342
20530W        W93598  34.015  21.717  11.050
20531W        W93599  29.376  26.425   0.309
20532W        W93600  31.464   2.659   4.784
20533W        W93601  35.597  39.891  11.216
20534W        W93602   1.866  41.295  14.950
20535W        W93603  27.996   5.418  12.556
20536W        W93604  40.940  13.402   9.784
20537W        W93605   4.024  12.046   0.713
20538W        W93606  32.851  41.074  14.454
20539W        W93607  18.503  22.456  11.044
20540W        W93608  16.755  42.521   2.188
20541W        W93609  32.323  44.889   2.809
20542W        W93610   2.030  42.023   1.262
20543W        W93611  26.582   8.096   4.938
20544W        W93612   1.028   8.745   0.271
20545W        W93613  24.252  33.428  11.729
20546W        W93614   2.699   7.120   0.309
20547W        W93615  30.050  12.572   1.204
20548W        W93616   8.108  19.186   1.055
20549W        W93617  41.384  43.451   2.578
20550W        W93618   3.932  43.460  14.127
20551W        W93619  11.698   7.275  10.369
20552W        W93620  33.592  14.306  10.308
20553W        W93621  30.522  33.145  14.815
20554W        W93622  25.609  39.910   0.971
20555W        W93623   9.230  23.824   5.046
20556W        W93624  24.622  44.748   1.322
20557W        W93625   5.231   7.330   2.648
20558W        W93626  42.284  12.217  10.601
20559W        W93627   8.669  40.001   2.353
20560W        W93628   2.983  13.400   5.060
20561W        W93629  16.216  28.113   4.358
20562W        W93630  12.832  43.185   4.196
20563W        W93631   9.194  38.395  12.018
20564W        W93632  21.757  21.811  13.530
20565W        W93633  33.902  37.711  10.551
20566W        W93634  32.493  37.834  14.777
20567W        W93635  16.167  20.488   0.866
20568W        W93636   4.138  42.814  10.574
20569W        W93637  14.155   7.802  11.051
20570W        W93638  12.339  19.265  10.488
20571W        W93639   2.301  21.227  14.519
20572W        W93640  17.354  29.384  11.203
20573W        W93641  16.393  27.990   2.704
20574W        W93642  22.201   7.696  12.168
20575W        W93643  37.429  32.519  10.703
20576W        W93644  15.469  25.150   4.517
20577W        W93645  35.555  21.226  14.058
20578W        W93646   0.891   5.237   4.247
20579W        W93647  14.760  24.021  11.060
20580W        W93648  24.962   2.199  12.009
20581W        W93649  36.520   7.471   3.659
20582W        W93650  41.191  42.308   0.096
20583W        W93651  41.376  23.748  11.492
20584W        W93652  34.399  41.302   4.540
20585W        W93653  20.042  20.641   4.908
20586W        W93654   6.399  19.106   4.764
20587W        W93655  18.314  42.019  10.747
20588W        W93656  14.155  34.129  14.814
20589W        W93657  38.109   8.759   0.394
20590W        W93658  25.563  37.895  13.951
20591W        W93659   3.072  36.353   0.645
20592W        W93660  22.120   1.199  13.060
20593W        W93661   9.623  44.987  14.304
20594W        W93662  42.428  25.283   1.415
20595W        W93663  29.912  15.985   0.415
20596W        W93664  39.470  26.505   1.232
20597W        W93665  31.958  19.612   0.604
20598W        W93666   7.076   1.965   2.475
20599W        W93667   5.720   5.258   0.307
20600W        W93668   8.356   5.313   3.634
20601W        W93669  32.295  10.289   5.035
20602W        W93670  30.021  29.939   0.722
20603W        W93671  33.980  43.973  11.968
20604W        W93672   2.459   2.961   3.131
20605W        W93673  41.590  43.807   1.730
20606W        W93674  42.515  21.346   2.770
20607W        W93675   7.579  30.863   0.293
20608W        W93676  34.090   1.527  13.038
20609W        W93677  27.410   8.488  14.832
20610W        W93678  43.241  32.942   3.184
20611W        W93679   2.655  35.912  13.442
20612W        W93680  12.875  14.592  10.652
20613W        W93681  41.921  41.117  11.621
20614W        W93682  33.977   1.559   3.638
20615W        W93683  38.038   8.138   4.284
20616W        W93684  20.637   3.939   4.931
20617W        W93685  15.263  16.249   1.468
20618W        W93686  44.709  10.686  12.380
20619W        W93687  18.430  27.209  12.033
20620W        W93688  32.406   3.051  11.115
20621W        W93689   7.877  22.049   0.802
20622W        W93690  13.732  40.951   3.886
20623W        W93691  15.636  26.057   1.230
20624W        W93692  10.112  13.766  13.624
20625W        W93693  41.550   8.007   0.974
20626W        W93694   0.999  28.373  11.347
20627W        W93695   8.873  43.271  11.070
20628W        W93696  37.188  14.141  11.688
20629W        W93697   0.368  39.481  11.575
20630W        W93698  37.537   1.421  14.368
20631W        W93699  42.034  15.261   1.876
20632W        W93700  41.713  38.420   1.593
20633W        W93701   4.869  17.271   2.605
20634W        W93702  29.921  30.505  14.070
20635W        W93703   3.819   6.160  12.967
20636W        W93704   6.655  29.092   1.232
20637W        W93705  23.128  37.489  14.006
20638W        W93706  20.513  31.858   1.637
20639W        W93707  17.213  12.371  10.222
20640W        W93708   0.672  35.863  14.333
20641W        W93709  24.345  30.392  12.118
20642W        W93710  25.489  25.697   1.214
20643W        W93711   8.276  29.115   4.854
20644W        W93712  34.049   0.149  11.502
20645W        W93713  28.484  37.098   3.181
20646W        W93714  37.195  43.041  13.956
20647W        W93715   6.211   0.568   2.423
20648W        W93716  44.503   3.714   4.664
20649W        W93717   1.553  38.918   2.278
20650W        W93718  16.342  36.910  11.504
20651W        W93719   8.312   8.665  12.059
20652W        W93720  26.107  37.808  12.656
20653W        W93721  37.540   1.955   0.923
20654W        W93722  42.071  44.751  11.843
20655W        W93723  10.723  14.499   3.248
20656W        W93724  37.581  36.345   2.444
20657W        W93725  34.184  30.963   1.035
20658W        W93726  33.362  14.499   5.105
20659W        W93727  38.430  21.607   2.898
20660W        W93728  26.227  40.021   5.086
20661W        W93729   1.979  41.305   3.120
20662W        W93730   2.537  33.479  10.632
20663W        W93731   5.251  31.765  13.066
20664W        W93732   7.102   3.693  14.042
20665W        W93733  10.298  14.884  10.562
20666W        W93734  24.049  36.526  12.984
20667W        W93735  19.705   6.619  10.397
20668W        W93736  37.768   3.811  11.109
20669W        W93737  15.143  19.866  11.749
20670W        W93738  26.933  24.214  12.986
20671W        W93739  19.285  26.689  14.470
20672W        W93740  44.181   7.833   1.948
20673W        W93741  33.187  40.534  12.959
20674W        W93742  19.615  43.736  11.734
20675W        W93743  11.550   2.277  10.746
20676W        W93744  12.970  29.184   2.398
20677W        W93745  12.589  22.136   3.874
20678W        W93746  43.523  27.616   0.764
20679W        W93747   9.713  11.930   1.956
20680W        W93748  28.649  18.099   3.676
20681W        W93749  43.359  29.288   1.770
20682W        W93750  26.501  31.088   4.014
20683W        W93751   8.529  43.472  12.985
20684W        W93752  22.775  36.447  11.276
20685W        W93753  13.764  28.904  12.141
20686W        W93754  26.486   4.723  11.472
20687W        W93755  33.061   7.872   2.349
20688W        W93756  44.860  37.791  13.095
20689W        W93757  40.804  30.550   0.839
20690W        W93758   5.929  24.510   0.383
20691W        W93759  26.472   0.355   4.368
20692W        W93760  25.917  22.057   0.462
20693W        W93761   7.679   9.812  10.970
20694W        W93762  37.009  32.886  10.749
20695W        W93763   9.638  21.688  13.894
20696W        W93764  14.811  40.473  12.940
20697W        W93765  11.667  38.065  10.786
20698W        W93766  40.326  40.289  13.022
20699W        W93767  14.909  18.790  11.088
20700W        W93768  23.692  31.542  13.053
20701W        W93769  11.446  35.078  12.339
20702W        W93770  13.131   5.761   2.235
20703W        W93771  42.352  39.767  12.528
20704W        W93772  28.896  21.547  11.194
20705W        W93773  39.264  35.422   3.406
20706W        W93774   6.430  36.962   2.045
20707W        W93775   9.893  13.834   4.650
20708W        W93776  13.360  42.274   2.229
20709W        W93777  29.161  26.661  13.881
20710W        W93778   2.788  39.585   0.328
20711W        W93779  29.507   8.922   4.267
20712W        W93780   6.178  35.066  13.630
20713W        W93781  37.189   9.288   4.808
20714W        W93782  40.832  38.843   2.744
20715W        W93783   2.250  40.402  10.304
20716W        W93784  21.037  12.548  14.908
20717W        W93785  15.575  25.515  13.114
20718W        W93786  13.746  28.163   0.433
20719W        W93787  15.182  10.528   0.532
20720W        W93788  26.524  41.344   0.790
20721W        W93789  23.649  38.557   3.212
20722W        W93790   1.101  26.570   1.298
20723W        W93791  43.016   8.382   3.684
20724W        W93792   0.045  21.195   3.561
20725W        W93793  36.940  25.398   3.218
20726W        W93794  42.040   0.849  10.038
20727W        W93795  36.546  30.754   4.512
20728W        W93796   9.464   6.007   2.719
20729W        W93797   7.146  24.240  13.062
20730W        W93798  33.993  29.301  11.512
20731W        W93799  43.794  20.441   0.823
20732W        W93800  39.075   6.510  10.252
20733W        W93801   8.176   5.759  11.866
20734W        W93802  25.081  42.330  11.478
20735W        W93803   0.653  10.493   2.722
20736W        W93804  15.328   4.916   5.049
20737W        W93805  26.430   0.427   0.227
20738W        W93806  20.543  26.989  13.584
20739W        W93807   9.874   9.821   2.761
20740W        W93808  38.797   5.205  11.016
20741W        W93809  41.781   5.958  10.607
20742W        W93810  38.004  40.926  14.913
20743W        W93811  40.967  43.914  11.949
20744W        W93812   5.197  36.298   2.033
20745W        W93813   5.679  15.896  12.430
20746W        W93814  37.966  29.371   2.933
20747W        W93815   4.927   4.751   0.504
20748W        W93816  40.985  43.540   4.374
20749W        W93817  32.572  18.584  12.417
20750W        W93818  34.378  43.233   1.196
20751W        W93819   1.454  12.707  11.460
20752W        W93820  28.181  28.526  10.797
20753W        W93821   1.301  35.128  12.005
20754W        W93822  22.042   0.986  11.508
20755W        W93823  38.896   4.415   2.436
20756W        W93824   3.462  41.283   5.076
20757W        W93825   0.934  35.512   2.920
20758W        W93826  27.132  32.103  12.577
20759W        W93827  39.846  21.944   2.785
20760W        W93828  38.120   5.734  11.968
20761W        W93829  12.224   5.673   1.799
20762W        W93830  43.476   7.788  11.706
20763W        W93831  22.268  11.055  11.050
20764W        W93832  12.918  37.433   3.871
20765W        W93833   4.553   5.936   2.719
20766W        W93834  24.176  29.173  14.803
20767W        W93835  42.302  14.331   3.231
20768W        W93836  22.086  37.822   2.117
20769W        W93837  12.648   4.877  10.641
20770W        W93838   4.424  24.206   4.220
20771W        W93839  27.536   8.240   4.141
20772W        W93840  36.791  19.749  12.615
20773W        W93841  24.730   9.796   5.042
20774W        W93842  28.847  14.184  11.920
20775W        W93843  33.685  13.628   3.251
20776W        W93844  41.358   2.957   0.406
20777W        W93845  18.286  24.602  12.034
20778W        W93846  14.363  25.456  12.071
20779W        W93847  43.387  32.370  10.929
20780W        W93848  22.946  44.262  12.419
20781W        W93849  24.507  14.178  14.761
20782W        W93850  22.460  38.046  13.887
20783W        W93851  36.529  19.170  14.782
20784W        W93852  38.308  24.001  11.654
20785W        W93853  43.357   9.146  13.820
20786W        W93854  31.877  25.569   5.054
20787W        W93855  33.386   2.313   3.149
20788W        W93856  16.191  39.031  12.249
20789W        W93857  39.762  17.898   0.959
20790W        W93858  18.629  33.640  14.260
20791W        W93859  35.443  25.013  11.547
20792W        W93860  33.557  18.275   1.721
20793W        W93861  16.328  10.240  14.858
20794W        W93862  34.596  30.085   1.315
20795W        W93863  21.973  16.365  14.705
20796W        W93864  18.908  11.736   4.089
20797W        W93865  28.506  32.593   0.643
20798W        W93866   5.215   1.143  13.421
20799W        W93867   0.713  19.558  14.806
20800W        W93868  19.605  12.510  12.413
20801W        W93869  16.798   0.268   3.694
20802W        W93870  31.484  42.822   0.698
20803W        W93871  14.634   9.661   2.312
20804W        W93872   3.451  20.694   2.200
20805W        W93873  30.539  31.550   4.393
20806W        W93874  28.151  15.757   1.327
20807W        W93875   5.674   2.832   2.579
20808W        W93876  29.928  36.422  11.472
20809W        W93877  32.566  44.308  14.707
20810W        W93878   3.407  40.388   5.052
20811W        W93879   0.255  29.497  11.969
20812W        W93880   7.942  43.219  14.078
20813W        W93881  37.305  33.575   1.735
20814W        W93882  32.939  26.698   4.039
20815W        W93883  10.253  37.586   2.919
20816W        W93884   4.667  37.514  11.923
20817W        W93885  40.359  14.863   0.227
20818W        W93886  14.568  15.892   1.229
20819W        W93887  33.549  31.444   1.770
20820W        W93888  10.158  24.322   0.324
20821W        W93889  16.036  25.882   3.568
20822W        W93890   0.303  43.776   1.887
20823W        W93891  39.296  25.232  14.784
20824W        W93892  44.575  27.586  13.978
20825W        W93893   0.105   5.791   0.809
20826W        W93894  28.007  32.268   4.975
20827W        W93895  31.032  16.595  10.560
20828W        W93896   2.492   8.613   0.855
20829W        W93897  34.045  34.417  14.524
20830W        W93898  25.598  15.365   0.692
20831W        W93899  13.276  34.822   1.054
20832W        W93900   0.920  26.683   0.849
20833W        W93901  26.072  32.029   1.079
20834W        W93902   1.256  25.267  14.851
20835W        W93903  19.092  13.721   4.631
20836W        W93904  16.223  22.381   1.942
20837W        W93905  43.896  36.704  12.035
20838W        W93906  29.160   1.190   1.387
20839W        W93907  23.656  32.411   1.721
20840W        W93908   9.369  26.972   2.303
20841W        W93909  32.193  40.955   2.300
20842W        W93910   3.414  20.010   0.203
20843W        W93911  35.231  37.408  11.990
20844W        W93912  38.277  24.017   4.258
20845W        W93913  31.915   9.692  14.301
20846W        W93914  31.391  33.796   2.757
20847W        W93915  16.089  41.739   4.659
20848W        W93916   6.776  13.734   4.210
20849W        W93917  14.604  32.429   0.987
20850W        W93918  13.686   0.712   4.553
20851W        W93919   4.729  14.911   4.649
20852W        W93920  16.277  27.273   1.359
20853W        W93921  42.101  38.773   2.340
20854W        W93922  13.282   4.456  10.852
20855W        W93923  16.339  22.285  13.927
20856W        W93924  28.952  10.044   4.522
20857W        W93925  23.199  28.295   2.843
20858W        W93926  17.584  40.616  11.544
20859W        W93927   3.773   9.806   3.682
20860W        W93928  11.608   7.858   2.316
20861W        W93929  20.262  42.393   0.010
20862W        W93930  34.383  31.068   1.505
20863W        W93931  25.051  22.274   2.280
20864W        W93932  33.496  37.022  10.082
20865W        W93933   9.765  12.619   3.897
20866W        W93934  17.212  40.497   4.225
20867W        W93935  23.770  13.842   1.197
20868W        W93936  33.165  29.502   3.638
20869W        W93937  16.802  32.723  12.962
20870W        W93938  23.813   6.616   1.189
20871W        W93939  17.854  28.070  12.906
20872W        W93940  14.394   4.158  10.746
20873W        W93941   3.966  11.323  14.949
20874W        W93942  41.230  40.520  12.759
20875W        W93943   9.307  20.285  11.098
20876W        W93944  20.034  34.025  13.102
20877W        W93945   7.423  39.621  14.158
20878W        W93946  20.249  43.587   3.418
20879W        W93947  15.132  13.308  13.811
20880W        W93948   2.822  10.082   3.657
20881W        W93949  24.967  43.828  11.628
20882W        W93950   7.394  34.043   1.656
20883W        W93951  25.848  19.836  14.881
20884W        W93952  28.321  15.244  13.875
20885W        W93953  11.655  41.948  13.932
20886W        W93954  18.757  33.767   1.992
20887W        W93955  28.692   6.859  12.072
20888W        W93956  31.361   4.839   3.403
20889W        W93957   5.859  11.173   0.961
20890W        W93958  35.584  16.317   0.022
20891W        W93959  33.547  31.792   0.968
20892W        W93960   6.241  23.388  14.664
20893W        W93961   9.428  38.964   2.840
20894W        W93962  15.762  22.982   2.475
20895W        W93963   6.349  34.576  14.749
20896W        W93964  36.566  22.928  10.707
20897W        W93965  44.761   0.785  10.116
20898W        W93966  30.531  21.488  13.794
20899W        W93967  30.160   6.785   0.260
20900W        W93968  31.130  15.586  10.417
20901W        W93969  32.574  10.654  14.929
20902W        W93970  16.139  34.887  11.354
20903W        W93971  19.466  28.098   3.553
20904W        W93972  21.098  11.149  14.671
20905W        W93973  28.392  17.606  14.875
20906W        W93974   5.657  16.137  11.402
20907W        W93975  34.216   4.691  13.847
20908W        W93976  18.965   2.830   0.706
20909W        W93977  41.677  14.258   1.794
20910W        W93978  38.820  12.276   1.746
20911W        W93979  23.786  33.872   3.279
20912W        W93980  12.584  15.184  14.681
20913W        W93981  18.947  10.745  13.596
20914W        W93982   6.781  20.149  13.823
20915W        W93983  15.560   5.819   2.251
20916W        W93984   9.341  10.127  14.880
20917W        W93985   9.563  41.790   2.789
20918W        W93986   1.934  21.343  12.032
20919W        W93987  41.717  23.081   2.972
20920W        W93988  24.118  27.912  11.404
20921W        W93989  24.193  17.913   4.083
20922W        W93990  11.038  30.935   1.631
20923W        W93991  28.065   0.786  14.576
20924W        W93992  36.808  33.955   4.187
20925W        W93993   8.237  15.567   1.966
20926W        W93994   0.432  44.667   2.459
20927W        W93995  26.931  16.872  14.383
20928W        W93996  26.342  40.842   0.193
20929W        W93997  32.444  39.910   3.656
20930W        W93998  17.087  15.771   1.202
20931W        W93999  33.644  27.040   0.302
20932W        W94000  33.110  36.051   0.317
20933W        W94001  23.484  25.210  11.656
20934W        W94002  22.998  28.876  10.741
20935W        W94003  28.439  32.854   3.254
20936W        W94004  27.887  24.154   2.892
20937W        W94005  30.100  41.321   3.237
20938W        W94006  33.424  14.788   2.876
20939W        W94007   4.261   2.378   4.006
20940W        W94008  12.385  14.049  11.208
20941W        W94009   1.461   7.413  12.427
20942W        W94010  23.036  14.732   3.470
20943W        W94011  15.069  25.182  12.141
20944W        W94012  28.774  39.058   1.999
20945W        W94013  23.037  37.894  11.280
20946W        W94014  26.220  41.326   5.021
20947W        W94015  27.918  18.949  12.114
20948W        W94016  35.368  41.941  13.871
20949W        W94017  23.117  29.574   4.908
20950W        W94018  34.123   2.961   2.423
20951W        W94019  36.689  21.330  11.156
20952W        W94020  11.684  21.318   3.726
20953W        W94021  17.083   4.230   4.928
20954W        W94022  24.106  17.953   3.220
20955W        W94023   3.420   0.217   0.724
20956W        W94024  36.170  39.052  11.415
20957W        W94025   3.215  18.329  13.085
20958W        W94026   3.784  23.914   2.167
20959W        W94027  44.771  22.802   0.985
20960W        W94028  25.976  34.014   2.399
20961W        W94029  23.438   5.237   2.356
20962W        W94030  14.195  30.190   1.669
20963W        W94031  42.020  11.081  11.060
20964W        W94032   7.262  26.267   4.782
20965W        W94033   7.618  23.682   1.215
20966W        W94034  38.016  12.363   2.260
20967W        W94035   0.373  31.916  14.293
20968W        W94036  21.980  38.780   0.862
20969W        W94037  15.005   7.738   0.280
20970W        W94038  42.288  38.982   3.687
20971W        W94039  15.341  26.949  10.524
20972W        W94040  34.836  37.089  13.081
20973W        W94041  12.158  44.774  10.909
20974W        W94042  25.488  17.566  14.392
20975W        W94043  34.844  30.512  12.915
20976W        W94044  15.156  30.740  13.953
20977W        W94045  27.532  29.251  12.425
20978W        W94046   1.359   1.385  12.512
20979W        W94047   2.086  21.510   1.418
20980W        W94048  20.697  22.619  12.561
20981W        W94049  25.638  10.354  12.023
20982W        W94050  12.903  35.528   3.239
20983W        W94051  35.181   4.687  14.660
20984W        W94052  24.727   4.759  12.023
20985W        W94053  40.543  41.839  12.637
20986W        W94054  26.760   4.619  11.063
20987W        W94055  33.950  26.417   2.643
20988W        W94056   1.356  43.986   3.640
20989W        W94057  30.665   5.362   0.303
20990W        W94058  26.184   2.390  12.525
20991W        W94059  34.057  30.544   0.737
20992W        W94060  14.299  38.833   0.980
20993W        W94061   4.975  21.246   1.864
20994W        W94062  13.277  33.582  14.575
20995W        W94063  33.642  26.652  13.851
20996W        W94064   2.053   1.360   0.757
20997W        W94065  44.760  14.849  13.923
20998W        W94066   0.485  40.534  12.085
20999W        W94067  42.499  10.730  11.976
21000W        W94068   0.874   9.635   4.405
21001W        W94069  33.497   0.491   4.089
21002W        W94070  27.016  12.890   3.338
21003W        W94071   2.774  32.150  14.329
21004W        W94072  24.989   1.076   1.334
21005W        W94073  12.964   5.248  13.561
21006W        W94074   4.138  25.493  13.810
21007W        W94075  27.232  12.885  13.019
21008W        W94076   2.652   8.761  14.791
21009W        W94077  24.957  22.724  11.551
21010W        W94078  27.451  27.121  11.637
21011W        W94079  44.274   1.708  11.053
21012W        W94080  27.616  25.745   1.436
21013W        W94081  24.206  18.585   0.289
21014W        W94082  21.635  40.668  14.744
21015W        W94083  25.210  21.332   4.634
21016W        W94084  11.089  30.879  12.026
21017W        W94085  13.065  35.066   1.448
21018W        W94086  40.989   8.088  12.880
21019W        W94087  31.917  18.116  14.030
21020W        W94088  31.195  32.076  13.120
21021W        W94089   9.840  28.597  14.969
21022W        W94090  11.887  33.466  12.120
21023W        W94091  23.097  37.964  10.766
21024W        W94092  26.343  17.665   3.542
21025W        W94093  26.752  33.309   4.398
21026W        W94094  41.340   3.833  11.478
21027W        W94095  15.723   5.781   4.744
21028W        W94096  40.411  31.321  10.312
21029W        W94097  39.320   9.954   0.395
21030W        W94098  29.635   8.584   4.631
21031W        W94099  34.933  43.054  11.942
21032W        W94100  25.097  14.338  12.084
21033W        W94101  41.185   6.927  12.403
21034W        W94102  22.199  35.703   4.124
21035W        W94103  21.804  21.696  11.923
21036W        W94104   4.206  11.159   2.303
21037W        W94105  21.804   1.225   2.183
21038W        W94106  34.438  24.482  11.287
21039W        W94107  16.582   7.791   2.341
21040W        W94108  37.344   0.034   4.666
21041W        W94109  21.842  28.775  12.992
21042W        W94110  39.288  39.945  11.867
21043W        W94111  17.829  16.205  14.997
21044W        W94112  27.779  12.227  11.558
21045W        W94113   5.283  42.801  14.199
21046W        W94114  44.805  12.898   4.654
21047W        W94115  13.847   2.265  11.257
21048W        W94116   8.455  34.935  12.364
21049W        W94117  35.916  11.720  11.499
21050W        W94118  40.436  34.428   1.821
21051W        W94119  12.072  23.068  14.416
21052W        W94120  27.315  24.193   2.027
21053W        W94121  36.503  29.314   3.678
21054W        W94122  33.408   9.108  12.971
21055W        W94123  41.782   3.281  10.178
21056W        W94124  41.943  36.807  10.847
21057W        W94125  22.998  26.070   0.840
21058W        W94126  14.338   4.378  13.745
21059W        W94127  24.939   1.046   0.457
21060W        W94128  33.490  18.838   4.502
21061W        W94129  17.752  19.818   0.704
21062W        W94130  11.200  22.617   0.993
21063W        W94131  17.573  19.794  12.462
21064W        W94132  11.330  16.158   0.731
21065W        W94133  12.841  26.402  11.829
21066W        W94134  15.975  35.316  11.078
21067W        W94135  10.008  36.158  11.943
21068W        W94136  20.787   6.689   2.305
21069W        W94137  21.692  22.825   4.001
21070W        W94138  12.159  28.424   1.212
21071W        W94139  18.173  17.584   1.285
21072W        W94140  21.234  35.419  11.186
21073W        W94141  31.941  11.756  13.390
21074W        W94142  10.179  24.064   0.778
21075W        W94143  39.535  27.673   0.106
21076W        W94144  15.120  30.690   3.673
21077W        W94145   6.234  20.095  10.587
21078W        W94146  31.049  44.766  10.672
21079W        W94147  37.345   5.702   0.341
21080W        W94148  30.634  14.792  12.812
21081W        W94149  17.594   9.728   1.487
21082W        W94150   4.821  25.938   1.979
21083W        W94151  14.293  27.376  13.916
21084W        W94152  35.016  17.577  14.410
21085W        W94153  30.025  15.833   3.564
21086W        W94154  14.509  38.429   4.154
21087W        W94155  29.827  39.831  10.717
21088W        W94156   5.363  38.424  10.760
21089W        W94157  14.853  17.566   1.816
21090W        W94158  28.571  30.855  14.948
21091W        W94159  15.675   0.625   9.921
21092W        W94160  20.113  33.902   0.070
21093W        W94161  28.393   4.820  14.385
21094W        W94162   3.348  22.250  12.774
21095W        W94163  22.580  40.453   4.727
21096W        W94164   9.647  19.812   2.952
21097W        W94165  44.617   8.324   2.311
21098W        W94166   3.993  20.118   2.433
21099W        W94167  10.862   0.359  14.715
21100W        W94168  14.344  37.076   2.918
21101W        W94169  29.452  10.821   3.859
21102W        W94170  40.736  24.095  11.143
21103W        W94171  13.054  11.381  13.051
21104W        W94172  39.571  42.632  14.429
21105W        W94173  42.066   1.135  11.994
21106W        W94174  39.015  36.095   4.206
21107W        W94175  24.744  26.517  10.655
21108W        W94176  28.166   3.879  12.568
21109W        W94177  21.582  23.925  10.612
21110W        W94178  32.974   9.845  13.083
21111W        W94179  11.539  23.273  11.585
21112W        W94180  23.045  25.610   1.551
21113W        W94181  14.760  11.185   1.738
21114W        W94182  23.282   2.224   4.140
21115W        W94183  19.052  29.240   1.808
21116W        W94184  11.589  19.753   4.562
21117W        W94185  24.673  37.481  12.327
21118W        W94186  34.120   2.449  13.459
21119W        W94187   0.964  36.933  12.023
21120W        W94188  31.706   6.587   1.472
21121W        W94189  35.824  41.507  11.673
21122W        W94190  39.924  26.078   1.875
21123W        W94191  27.997  18.216  12.932
21124W        W94192   2.887  14.472  13.252
21125W        W94193  10.106  21.776  10.699
21126W        W94194  16.500  15.987   0.366
21127W        W94195  43.356  38.547   0.541
21128W        W94196  17.037  40.506  12.625
21129W        W94197  18.421   7.299  14.222
21130W        W94198   7.815   3.394   0.092
21131W        W94199  35.015   5.518  13.630
21132W        W94200  29.370  43.961   2.550
21133W        W94201  20.626  16.314  14.364
21134W        W94202  12.277  15.554  14.900
21135W        W94203  14.079  35.011   3.736
21136W        W94204  36.870  31.978  12.068
21137W        W94205  29.468  26.462   3.234
21138W        W94206  17.541  11.823  11.926
21139W        W94207  18.582  19.819   1.970
21140W        W94208  22.307  36.951   0.420
21141W        W94209  34.151  14.399   0.901
21142W        W94210  34.003  36.677  11.458
21143W        W94211  36.976  24.140  10.360
21144W        W94212  21.579  19.527   2.904
21145W        W94213  39.624  35.642   3.731
21146W        W94214  39.984  27.425  14.952
21147W        W94215  16.333   4.653  14.003
21148W        W94216  18.350  30.228  13.993
21149W        W94217  16.532  33.044   2.770
21150W        W94218  22.939  16.981  13.435
21151W        W94219   6.298   0.249  13.299
21152W        W94220  34.117  11.760   3.690
21153W        W94221  32.077  38.894  11.863
21154W        W94222   2.187   1.443  11.126
21155W        W94223  17.112  25.069  10.669
21156W        W94224  10.908  23.136   0.391
21157W        W94225  43.481  14.658  14.251
21158W        W94226  43.148  34.198   2.243
21159W        W94227  36.770  13.652   0.059
21160W        W94228  43.998  31.930   2.279
21161W        W94229   4.684   9.829  13.350
21162W        W94230   9.364   6.445  11.053
21163W        W94231   9.520  12.761  12.045
21164W        W94232  16.006  17.534   0.738
21165W        W94233   7.843  12.966   1.189
21166W        W94234  15.550  32.496  12.524
21167W        W94235  21.995  23.087   3.639
21168W        W94236  28.982  26.157   3.643
21169W        W94237   6.243  10.999   1.823
21170W        W94238   6.438  39.987   0.231
21171W        W94239   3.638   6.961  11.693
21172W        W94240  25.056  23.999  12.088
21173W        W94241   3.441  12.577   2.684
21174W        W94242  36.606  34.106   0.438
21175W        W94243  27.022  36.385   1.716
21176W        W94244   3.351  19.799  12.863
21177W        W94245  32.952  20.971   4.255
21178W        W94246   5.226  19.528   1.891
21179W        W94247  28.464  19.359  13.286
21180W        W94248  10.949  25.934   0.115
21181W        W94249  25.702   5.166  12.413
21182W        W94250   9.399  25.743   3.682
21183W        W94251  30.411   4.797  12.564
21184W        W94252   5.615  14.842   2.813
21185W        W94253   2.645  19.656   3.721
21186W        W94254  10.651   9.230   1.749
21187W        W94255  24.033  18.359   4.975
21188W        W94256  12.335  20.347   1.341
21189W        W94257  31.652   1.240   4.856
21190W        W94258  35.401  44.491   2.309
21191W        W94259  35.893   3.370  13.322
21192W        W94260  16.642  18.796  13.419
21193W        W94261  15.753   4.243  10.045
21194W        W94262  28.872  13.380   1.750
21195W        W94263  42.411  17.253   0.380
21196W        W94264  11.332   8.177   3.118
21197W        W94265  28.989  36.709   4.549
21198W        W94266  17.638  37.823   4.145
21199W        W94267   8.587  19.477   5.308
21200W        W94268  30.965  13.572   3.817
21201W        W94269  29.107  11.192   2.299
21202W        W94270   3.923  35.108  10.633
21203W        W94271   6.496  44.668  10.265
21204W        W94272  23.520  26.995   3.100
21205W        W94273  32.512   4.968   0.488
21206W        W94274   0.034  28.531  14.251
21207W        W94275  21.295  28.971   1.460
21208W        W94276  11.834  10.796   3.693
21209W        W94277   1.831   8.371   1.164
21210W        W94278  23.753  24.637   2.414
21211W        W94279   7.767  30.855   1.275
21212W        W94280  36.955  20.549  14.900
21213W        W94281  10.667   3.632  13.094
21214W        W94282   5.496  25.727  12.553
21215W        W94283   9.946  37.131  13.771
21216W        W94284  24.121  38.398  13.719
21217W        W94285   7.131  26.767   4.719
21218W        W94286  37.317  10.394  14.800
21219W        W94287   8.342   1.748   4.623
21220W        W94288  42.203  25.593  11.259
21221W        W94289  27.422  41.548  13.904
21222W        W94290  14.845  35.593  12.420
21223W        W94291  44.181  12.225  12.369
21224W        W94292  19.636  10.170   1.270
21225W        W94293   6.297  32.743  10.837
21226W        W94294  41.800  29.736  14.944
21227W        W94295  33.530  24.169   4.228
21228W        W94296  38.448  40.245   1.636
21229W        W94297  25.635  22.207   0.877
21230W        W94298  12.651  32.825  13.487
21231W        W94299  32.118  35.137  11.456
21232W        W94300  29.977   6.868  11.541
21233W        W94301  29.273  28.921  13.219
21234W        W94302  27.416  40.969   4.654
21235W        W94303  15.517  39.533  10.655
21236W        W94304  25.886  16.140  11.096
21237W        W94305   4.189  32.157   3.679
21238W        W94306   3.973   4.281  10.752
21239W        W94307  36.421   9.202   0.710
21240W        W94308  18.289  28.197  12.608
21241W        W94309  25.883  14.399  13.561
21242W        W94310  17.809  16.313   2.213
21243W        W94311  11.732  38.090   0.151
21244W        W94312  20.938  37.533   0.389
21245W        W94313  41.918  44.241   0.498
21246W        W94314  12.531  15.495  11.538
21247W        W94315  19.969  42.403   0.453
21248W        W94316   1.429  38.432  10.671
21249W        W94317  15.357   8.756  12.266
21250W        W94318  38.537  22.181  14.324
21251W        W94319  17.995  36.953  14.912
21252W        W94320   5.913   9.733  12.985
21253W        W94321  18.845   8.632  10.844
21254W        W94322   6.844  12.912  13.026
21255W        W94323   7.983   4.298   3.691
21256W        W94324  26.972  42.568   0.474
21257W        W94325  37.889  24.251   2.829
21258W        W94326   7.011  41.502  10.565
21259W        W94327  14.580  34.439  14.718
21260W        W94328   8.274  27.863   0.085
21261W        W94329   1.214   4.383  12.231
21262W        W94330  40.069   0.547   3.737
21263W        W94331  22.439  19.890  13.863
21264W        W94332  19.907  20.652   0.669
21265W        W94333  20.075  23.553  11.724
21266W        W94334  35.845  39.991   1.700
21267W        W94335  36.429  36.018  12.395
21268W        W94336  10.762   4.451   0.696
21269W        W94337  30.012  43.792  11.457
21270W        W94338   1.679  37.553  13.368
21271W        W94339  11.515   0.527   1.969
21272W        W94340  26.429   9.750   1.859
21273W        W94341  35.087  40.538   4.592
21274W        W94342   5.271  10.356  13.428
21275W        W94343  17.257  15.364  11.717
21276W        W94344   8.138  39.382   2.868
21277W        W94345  26.900  16.487  13.467
21278W        W94346  42.872  28.367   1.388
21279W        W94347  12.782  34.486   2.653
21280W        W94348  18.221  23.917   0.738
21281W        W94349  13.861  15.019   3.254
21282W        W94350  14.250   8.689  12.101
21283W        W94351  42.287  31.616   0.252
21284W        W94352  27.629  10.751  14.679
21285W        W94353  43.879  15.729  13.597
21286W        W94354  31.992   1.195   1.912
21287W        W94355  29.507   0.926  14.026
21288W        W94356  33.062  14.860  10.756
21289W        W94357  10.730  22.675   2.929
21290W        W94358  10.861   3.334   2.762
21291W        W94359   4.835  40.507   0.452
21292W        W94360  26.988   0.057  10.690
21293W        W94361  25.982   8.278  11.094
21294W        W94362   5.754   7.429  10.709
21295W        W94363  36.322  28.418   0.245
21296W        W94364  34.418   5.167   0.885
21297W        W94365  38.417  39.055  11.613
21298W        W94366  30.016  36.628  10.622
21299W        W94367   8.677  15.206   0.355
21300W        W94368  38.277  24.606  14.220
21301W        W94369  27.399  26.947   0.952
21302W        W94370  21.646  14.014  11.087
21303W        W94371  22.532  44.042  13.529
21304W        W94372  12.146  27.443   2.197
21305W        W94373   2.173  26.385   0.374
21306W        W94374  14.127   4.937   4.972
21307W        W94375  28.132  40.990   4.287
21308W        W94376  44.971  11.888   4.543
21309W        W94377  38.777  40.972   4.519
21310W        W94378   8.843  27.775  12.850
21311W        W94379  16.459  14.826   2.263
21312W        W94380  16.102   0.748   2.739
21313W        W94381  36.330  31.222   4.641
21314W        W94382  22.804  35.007  13.988
21315W        W94383   9.605  14.308   2.434
21316W        W94384  24.922  29.017  13.740
21317W        W94385  26.844  16.564   3.264
21318W        W94386  22.044  32.564   1.169
21319W        W94387   7.226  17.319   3.358
21320W        W94388  26.094   6.877   4.859
21321W        W94389   9.684  16.556   1.856
21322W        W94390  43.535  29.044  13.081
21323W        W94391   8.127  19.655   2.124
21324W        W94392  23.488  19.212  14.951
21325W        W94393  12.301  36.392  11.560
21326W        W94394  31.184  40.305   4.620
21327W        W94395  13.728  43.258   4.755
21328W        W94396  22.222   1.341   1.486
21329W        W94397  34.937  23.534   1.242
21330W        W94398  12.034  43.999  12.986
21331W        W94399   8.763   8.406   4.553
21332W        W94400   7.772  26.180  10.520
21333W        W94401  29.681  33.672   1.779
21334W        W94402  20.714  33.519  14.018
21335W        W94403   1.470  26.668  14.586
21336W        W94404  18.066  42.728  12.549
21337W        W94405  41.005  28.307   0.257
21338W        W94406  34.628  42.217  14.384
21339W        W94407  36.949  24.591  12.203
21340W        W94408  16.261  15.998   4.028
21341W        W94409  27.537  10.105   3.686
21342W        W94410  24.225   7.827   2.993
21343W        W94411  14.663  36.942   2.505
21344W        W94412  23.816  32.600  12.991
21345W        W94413  37.030   2.084   2.834
21346W        W94414  17.681  31.543   0.686
21347W        W94415  30.170  33.361  13.419
21348W        W94416  41.348  26.452   3.898
21349W        W94417  15.318  24.491   0.461
21350W        W94418  12.685   2.757   2.680
21351W        W94419  20.811  30.444  11.381
21352W        W94420   0.364  12.157   4.739
21353W        W94421  27.641  12.404   2.694
21354W        W94422   8.651  10.432   9.823
21355W        W94423  23.887   2.953  12.863
21356W        W94424   2.817  33.935  11.880
21357W        W94425  33.097  42.500   2.951
21358W        W94426  15.649   4.137   0.935
21359W        W94427  38.803  38.052  13.061
21360W        W94428  24.569  18.707   2.246
21361W        W94429  44.693  13.587  14.466
21362W        W94430   4.451  30.183   3.832
21363W        W94431   7.128  27.417   2.156
21364W        W94432  43.374  25.745   3.772
21365W        W94433  44.334   2.823   0.172
21366W        W94434  27.052  35.523   4.587
21367W        W94435  28.518  20.692   4.925
21368W        W94436  29.671  43.843   4.602
21369W        W94437   3.701   3.369   2.663
21370W        W94438  30.603  22.143   4.529
21371W        W94439  36.980  22.180  11.114
21372W        W94440   7.690  26.136  14.277
21373W        W94441  12.185  21.158  13.266
21374W        W94442  24.989  16.084  11.144
21375W        W94443  38.371  27.922  10.719
21376W        W94444  13.155   7.325  12.930
21377W        W94445  23.039  15.287   3.800
21378W        W94446  34.151  10.125  12.639
21379W        W94447  25.242   3.970  12.165
21380W        W94448   0.456  41.422   1.046
21381W        W94449  30.465  37.484   3.096
21382W        W94450  12.132  34.279  12.068
21383W        W94451  31.927  24.746  10.759
21384W        W94452  20.187  11.409  12.844
21385W        W94453  14.386   8.115   3.320
21386W        W94454  33.027  29.815   4.972
21387W        W94455  10.332  27.109   3.458
21388W        W94456   3.274  12.339   4.249
21389W        W94457  19.692   2.515  10.476
21390W        W94458  20.019  17.168   4.207
21391W        W94459  12.626   5.681   3.321
21392W        W94460  35.834  22.158  13.899
21393W        W94461  25.604  17.909   3.766
21394W        W94462  29.555   9.852  14.113
21395W        W94463  41.211   9.686  10.754
21396W        W94464  25.747  32.732   4.273
21397W        W94465   8.352  30.455  11.761
21398W        W94466  32.627  24.550  13.304
21399W        W94467  10.212  34.084   0.810
21400W        W94468  44.753  13.146  11.967
21401W        W94469  20.036  14.009  12.592
21402W        W94470  22.606  24.927   0.967
21403W        W94471  40.039  14.142   2.641
21404W        W94472  15.046  14.203  14.295
21405W        W94473   2.945   5.769  13.794
21406W        W94474   7.815   1.671  12.852
21407W        W94475  35.815  25.670   2.452
21408W        W94476   7.886   2.880  14.895
21409W        W94477  14.738  35.992  11.650
21410W        W94478  24.940  42.340   4.282
21411W        W94479   1.913  41.409  12.572
21412W        W94480  32.735  40.590   2.487
21413W        W94481  24.143   0.003  11.181
21414W        W94482  11.859   7.277   3.059
21415W        W94483   7.553  40.284  10.440
21416W        W94484  12.359  31.025  10.621
21417W        W94485   5.774   6.014  12.005
21418W        W94486  41.101  35.082  11.244
21419W        W94487  31.562  28.534   1.374
21420W        W94488  20.773  40.470  12.026
21421W        W94489  28.162  32.671  12.940
21422W        W94490  23.805  10.417   3.857
21423W        W94491  29.050  22.956  14.371
21424W        W94492   9.421  19.412   4.940
21425W        W94493  15.694  40.373   1.925
21426W        W94494  22.769  42.517   2.010
21427W        W94495   0.396   6.803   0.860
21428W        W94496  42.099  36.604   1.922
21429W        W94497  44.883  23.813   4.101
21430W        W94498  40.795  25.657   4.629
21431W        W94499  29.556   8.426   4.135
21432W        W94500  10.320  31.351   2.767
21433W        W94501  21.550  33.870  11.095
21434W        W94502  17.826  11.608  11.501
21435W        W94503  12.292   6.757   2.419
21436W        W94504  10.824  21.443  13.822
21437W        W94505  32.750  21.692  14.462
21438W        W94506  18.582  24.115   4.626
21439W        W94507  20.117  32.117  14.340
21440W        W94508  38.797  42.940  10.268
21441W        W94509  22.108  27.491   4.137
21442W        W94510   2.368  10.829  12.905
21443W        W94511   8.886  44.350   4.213
21444W        W94512   7.627  30.675   1.830
21445W        W94513   6.811  44.160   4.672
21446W        W94514  42.371  43.941  13.504
21447W        W94515  35.643  43.993   3.204
21448W        W94516  11.087  11.099  14.021
21449W        W94517  42.497  21.816  14.889
21450W        W94518  32.603   3.973  12.927
21451W        W94519  24.381   6.273   2.122
21452W        W94520  17.221  12.805   3.602
21453W        W94521   0.712  35.178  14.296
21454W        W94522   4.013  33.050   1.883
21455W        W94523  32.573   9.856   4.680
21456W        W94524  20.821  15.170  11.935
21457W        W94525  20.025   1.998   0.896
21458W        W94526   7.808  28.116   3.253
21459W        W94527   9.804  11.327  12.777
21460W        W94528  27.736   2.133  11.746
21461W        W94529  19.027  19.584   4.579
21462W        W94530  30.859  40.387  13.427
21463W        W94531  34.903  21.749   2.320
21464W        W94532   4.162   0.796   3.357
21465W        W94533  28.455   1.501   1.376
21466W        W94534  35.756   2.961   0.400
21467W        W94535   3.273  15.235  14.974
21468W        W94536  25.911  27.833   1.847
21469W        W94537  21.260  38.485   2.813
21470W        W94538   9.415  21.192  13.950
21471W        W94539  22.761  12.379  12.644
21472W        W94540  24.598  30.206  11.558
21473W        W94541  12.669  18.120  12.751
21474W        W94542  28.938  42.438  14.342
21475W        W94543   1.704  14.426  13.810
21476W        W94544   4.332  13.154   2.646
21477W        W94545  36.586  26.026   2.181
21478W        W94546  10.868  19.740  11.356
21479W        W94547   6.367  15.851  10.281
21480W        W94548  21.683   2.953   2.874
21481W        W94549  17.176  25.619   0.028
21482W        W94550  24.717  32.317   2.369
21483W        W94551   2.825  35.095  12.574
21484W        W94552  19.518  37.021  10.811
21485W        W94553  12.781  25.174  14.153
21486W        W94554   1.869  10.637   2.253
21487W        W94555  29.530   4.191  11.143
21488W        W94556  41.934  12.750   0.958
21489W        W94557  19.402   7.894  10.367
21490W        W94558  27.149   4.275  11.172
21491W        W94559  36.815   8.992  11.438
21492W        W94560  32.394   6.359  12.491
21493W        W94561  34.385  11.924   3.264
21494W        W94562  44.378  29.511  13.848
21495W        W94563  13.585  38.022  11.008
21496W        W94564  35.297  31.640  13.522
21497W        W94565  43.151  23.072  14.832
21498W        W94566  29.941   0.336   0.253
21499W        W94567  14.782  29.402  12.479
21500W        W94568  28.015  24.955   0.467
21501W        W94569  36.914  21.968  14.849
21502W        W94570   5.887   4.279   2.662
21503W        W94571   4.668  20.618   0.466
21504W        W94572  26.371  35.919  10.368
21505W        W94573  31.980  33.159   4.262
21506W        W94574  15.080   6.847  14.785
21507W        W94575  10.011   1.671   3.911
21508W        W94576  20.699  35.572   4.159
21509W        W94577  35.446  17.677   0.943
21510W        W94578  33.619  20.032   1.059
21511W        W94579  30.500   9.717   3.244
21512W        W94580  10.494  43.753   0.266
21513W        W94581   4.224  28.652  14.148
21514W        W94582  27.734  24.944   0.019
21515W        W94583  38.866   9.022  10.173
21516W        W94584  19.391   7.181  12.917
21517W        W94585  11.546  27.130   1.318
21518W        W94586   5.015  18.577  14.190
21519W        W94587  33.513  19.109  14.594
21520W        W94588  39.083  16.559  14.295
21521W        W94589  40.812  32.947  13.116
21522W        W94590  43.935  34.839  13.917
21523W        W94591  17.015   6.036  12.472
21524W        W94592   0.907   5.344   0.454
21525W        W94593   6.150   2.775  12.882
21526W        W94594  15.539  20.485  14.479
21527W        W94595  20.764  39.801  11.525
21528W        W94596  22.131  25.057  13.815
21529W        W94597   8.340  30.082   2.672
21530W        W94598  22.574  13.145   2.294
21531W        W94599  23.563  40.996   0.447
21532W        W94600  25.233  37.864  11.391
21533W        W94601   2.278   7.754   3.231
21534W        W94602  34.457   7.625  11.570
21535W        W94603   8.391   8.784   0.779
21536W        W94604   9.794   7.945   1.723
21537W        W94605  14.320  38.105  12.209
21538W        W94606  31.054  35.839   0.377
21539W        W94607  19.484   9.405   1.325
21540W        W94608  22.517  32.022  11.131
21541W        W94609  35.823  24.606  14.467
21542W        W94610  20.515  32.649  13.804
21543W        W94611  25.955  23.612  12.115
21544W        W94612   4.729  39.928  14.348
21545W        W94613  12.371   2.541  13.369
21546W        W94614  20.865  44.536  13.218
21547W        W94615   6.956  32.673   3.750
21548W        W94616  13.643   7.884   2.386
21549W        W94617  10.686  22.503   1.223
21550W        W94618  30.850  43.010  11.425
21551W        W94619  22.308  11.632   0.898
21552W        W94620  28.882  19.052   3.706
21553W        W94621  19.294  28.552   4.832
21554W        W94622  29.713  30.396  14.558
21555W        W94623   1.853  16.800  14.157
21556W        W94624  11.223  16.951   5.036
21557W        W94625   5.258   6.822   3.379
21558W        W94626   8.776   5.298   3.282
21559W        W94627  40.953  18.013  12.947
21560W        W94628  24.596  10.391  10.475
21561W        W94629  26.943  38.846   0.898
21562W        W94630  34.826  25.998  14.877
21563W        W94631   3.774  11.509  13.394
21564W        W94632  31.038   5.640   1.558
21565W        W94633   4.891  37.473   2.089
21566W        W94634   7.309  12.410   4.631
21567W        W94635  30.980  29.486   2.669
21568W        W94636  21.951  28.234  12.913
21569W        W94637  44.525  24.895   2.611
21570W        W94638   8.482   6.769  11.065
21571W        W94639   8.802  42.169  13.478
21572W        W94640  31.138  33.947   0.781
21573W        W94641   0.226  20.442   3.020
21574W        W94642  21.532  22.282  13.111
21575W        W94643   1.373  29.984  13.349
21576W        W94644  11.735  24.795  13.983
21577W        W94645   6.806  23.997  14.432
21578W        W94646  12.431  42.936   2.811
21579W        W94647  13.094   0.518   0.781
21580W        W94648  39.503  11.975   2.715
21581W        W94649  19.681  31.885   3.698
21582W        W94650  13.245  41.831   0.692
21583W        W94651  38.585  36.421  13.341
21584W        W94652  28.523   9.401   4.215
21585W        W94653   9.732   2.792  11.779
21586W        W94654  13.729  16.685  14.837
21587W        W94655  25.707  12.265  13.388
21588W        W94656  31.832   1.231  10.591
21589W        W94657  27.023  27.480   0.404
21590W        W94658   5.879  26.263  11.665
21591W        W94659  43.867  31.112  13.821
21592W        W94660  12.112  43.954  11.502
21593W        W94661  22.296  20.627   4.468
21594W        W94662  15.314  30.611  14.440
21595W        W94663  43.255   5.393   3.414
21596W        W94664  41.337  16.147   3.144
21597W        W94665  44.359   4.698   2.397
21598W        W94666  19.715  44.865  11.160
21599W        W94667  20.127  21.118  13.513
21600W        W94668  24.364   8.072  10.501
21601W        W94669  33.080  44.933   4.362
21602W        W94670   1.236  17.520  12.400
21603W        W94671   1.539  22.671  11.892
21604W        W94672   5.487  24.677   3.829
21605W        W94673   4.835  39.245  13.019
21606W        W94674   2.605  38.867   0.547
21607W        W94675  38.928   9.711  13.289
21608W        W94676  43.774   8.961   3.642
21609W        W94677   7.320  44.491   3.946
21610W        W94678  11.765  15.715  13.468
21611W        W94679  16.596   1.970   3.190
21612W        W94680  16.817  35.982   1.195
21613W        W94681   2.927  31.916   4.625
21614W        W94682  30.602  36.502   2.363
21615W        W94683  30.966  25.042  13.390
21616W        W94684   2.577  44.913  10.582
21617W        W94685   4.786  24.674   1.097
21618W        W94686  39.311  42.472   4.315
21619W        W94687  30.996  35.487   3.757
21620W        W94688  34.560  18.217  14.926
21621W        W94689  15.632  10.762   1.732
21622W        W94690  29.441  26.095  14.064
21623W        W94691  29.592   3.718   0.935
21624W        W94692  37.993  24.488   4.184
21625W        W94693  43.377  17.785  11.930
21626W        W94694   9.168  11.266   0.405
21627W        W94695  42.826  31.700   1.730
21628W        W94696  30.064  44.167   4.758
21629W        W94697  44.830  36.373  14.454
21630W        W94698  29.687  22.086  10.999
21631W        W94699  17.398  40.870   3.782
21632W        W94700  17.226   0.432   4.628
21633W        W94701  12.411  14.087   2.719
21634W        W94702  22.129  28.257   4.605
21635W        W94703  41.744   0.036  13.342
21636W        W94704  35.860   0.421   4.429
21637W        W94705   1.328  31.225  11.952
21638W        W94706  38.995  41.717  14.880
21639W        W94707  34.017  37.923  13.842
21640W        W94708  24.540  21.976   1.361
21641W        W94709   0.773  10.652   1.490
21642W        W94710   6.924  23.193   0.930
21643W        W94711  31.157   5.295   2.597
21644W        W94712  19.669   2.978   0.247
21645W        W94713  42.313  29.522  12.669
21646W        W94714  13.416  33.670  11.069
21647W        W94715  41.835  20.324   3.811
21648W        W94716  23.745  31.789   3.219
21649W        W94717   1.942  17.564   1.145
21650W        W94718  12.793  39.143  10.639
21651W        W94719   6.618  43.891  14.500
21652W        W94720   6.420  23.194   2.396
21653W        W94721  29.292   6.326  11.402
21654W        W94722  27.605  44.405  10.814
21655W        W94723   3.057  39.109   0.455
21656W        W94724  17.543  18.770  11.639
21657W        W94725  40.457  16.202  10.213
21658W        W94726  22.250  13.376   0.008
21659W        W94727  29.148  22.793  12.479
21660W        W94728  15.325   6.278   2.175
21661W        W94729  34.884  21.215  13.447
21662W        W94730  16.102  36.492   1.737
21663W        W94731  11.273  34.040  13.634
21664W        W94732   3.499  20.593  13.417
21665W        W94733  31.872  17.665  14.316
21666W        W94734  29.862  32.445  13.962
21667W        W94735   9.944  11.517   0.315
21668W        W94736   5.192  41.119   1.966
21669W        W94737  36.389  32.958   4.198
21670W        W94738  38.010  40.096  11.224
21671W        W94739  13.147  19.823   1.321
21672W        W94740   0.683  12.185   3.353
21673W        W94741  44.839  37.277  13.064
21674W        W94742   8.861  14.155   4.867
21675W        W94743  31.851  30.645  12.990
21676W        W94744  32.076  27.340   0.421
21677W        W94745   2.320   9.461  12.693
21678W        W94746  13.041  24.033  14.798
21679W        W94747  27.253  36.964  10.757
21680W        W94748  28.604  18.288  13.362
21681W        W94749  16.037  22.915  12.124
21682W        W94750  42.774  10.609   0.363
21683W        W94751   0.713  35.365  11.160
21684W        W94752  31.737  42.375   4.275
21685W        W94753   0.282  23.531  13.156
21686W        W94754  22.614  26.200  12.494
21687W        W94755   7.979  29.210  14.009
21688W        W94756  21.221  24.599  10.474
21689W        W94757  27.896  12.867   3.678
21690W        W94758  26.037  19.844  14.007
21691W        W94759  31.713  22.936   0.536
21692W        W94760  15.740  12.167   3.708
21693W        W94761  27.009  20.133  14.737
21694W        W94762  14.726  43.736   1.277
21695W        W94763  20.232  33.420  14.766
21696W        W94764  28.111  38.573   3.737
21697W        W94765  18.806  37.413  10.676
21698W        W94766   4.821  36.968   2.174
21699W        W94767  42.474  30.838  10.631
21700W        W94768  36.667  20.996   2.959
21701W        W94769   7.722  35.123   2.123
21702W        W94770  13.797  18.691  13.446
21703W        W94771  13.162   0.339  14.748
21704W        W94772  42.723   8.842  11.361
21705W        W94773  35.551  13.875   1.200
21706W        W94774  30.177   7.633  13.504
21707W        W94775   3.292   4.967   3.340
21708W        W94776   1.430  21.213   0.048
21709W        W94777  37.455  36.877   2.460
21710W        W94778  39.843  32.563   0.804
21711W        W94779   6.855  18.793   1.792
21712W        W94780  18.304  25.617   1.699
21713W        W94781  39.101   5.282   5.057
21714W        W94782  15.633  34.029  14.766
21715W        W94783  27.158   5.828  12.912
21716W        W94784  36.839  15.624   2.083
21717W        W94785  42.970   9.146   2.204
21718W        W94786  41.818  33.106  11.608
21719W        W94787  13.236  11.345   4.072
21720W        W94788  11.630  44.641  10.255
21721W        W94789  33.344  13.166   1.798
21722W        W94790  16.590   9.431   0.921
21723W        W94791   0.018  14.705  13.485
21724W        W94792   6.718  37.551   4.781
21725W        W94793  11.800  35.394   0.374
21726W        W94794  26.135  19.591  10.636
21727W        W94795  20.511  24.159  13.866
21728W        W94796  34.822  16.510   0.198
21729W        W94797   4.405  43.468   2.173
21730W        W94798   6.177  39.557  12.822
21731W        W94799  36.626  25.652  10.478
21732W        W94800  44.016  19.840  11.239
21733W        W94801  12.191  36.906  12.526
21734W        W94802  41.959   0.866  13.096
21735W        W94803  13.128   3.380   2.797
21736W        W94804  17.715  12.341  11.970
21737W        W94805   6.674  25.776  11.935
21738W        W94806  42.949   6.648   4.274
21739W        W94807  39.236  12.840  12.329
21740W        W94808  29.368  34.385  12.692
21741W        W94809  44.678  35.079  12.534
21742W        W94810  30.777  30.194   4.133
21743W        W94811   2.440   7.030  13.275
21744W        W94812   1.732  43.606   0.330
21745W        W94813   0.495  29.061   1.809
21746W        W94814  38.929  14.641  14.363
21747W        W94815  38.550  13.579   0.208
21748W        W94816  16.434  13.230  12.528
21749W        W94817  41.336   4.849   2.224
21750W        W94818  34.038  23.594   0.762
21751W        W94819   1.789  15.792  13.793
21752W        W94820  40.502  15.628  12.416
21753W        W94821  42.260   9.148   1.270
21754W        W94822  19.205   9.108  13.867
21755W        W94823  34.400  38.388  11.999
21756W        W94824  23.019  20.210  11.571
21757W        W94825  38.966  38.901  14.123
21758W        W94826  18.204  16.555   2.767
21759W        W94827   3.385  29.103  11.032
21760W        W94828  12.566  22.712   2.434
21761W        W94829  11.647  11.765  14.829
21762W        W94830  43.801  30.137  11.098
21763W        W94831  22.554  12.183   0.005
21764W        W94832  42.703  11.173  13.355
21765W        W94833   0.844  28.425  12.988
21766W        W94834  15.228  33.679   2.814
21767W        W94835  10.398  27.567   3.206
21768W        W94836  41.312  21.133   4.239
21769W        W94837  27.265  10.508  11.873
21770W        W94838  26.584  34.294   2.261
21771W        W94839  13.654   6.943   4.820
21772W        W94840   1.558  37.911   2.241
21773W        W94841  19.547  38.408   2.245
21774W        W94842  18.573  10.874  10.686
21775W        W94843   2.871  41.476  11.506
21776W        W94844   6.905   0.289   1.283
21777W        W94845  38.494  38.087  13.912
21778W        W94846  19.190  29.389   4.554
21779W        W94847  10.211  19.758   4.598
21780W        W94848   8.255  37.751  10.433
21781W        W94849   6.355  33.043  14.864
21782W        W94850   2.975  19.090   4.532
21783W        W94851   3.420  44.758   3.367
21784W        W94852  39.263  11.425  11.440
21785W        W94853  22.286  43.480  11.626
21786W        W94854  14.250  41.998   0.995
21787W        W94855  26.153  21.116  13.402
21788W        W94856  22.134  18.114   1.324
21789W        W94857  44.939  31.389  14.291
21790W        W94858   9.370  25.588   4.742
21791W        W94859  31.394   5.022  14.944
21792W        W94860  35.112  21.477   1.366
21793W        W94861  21.690  19.186   0.875
21794W        W94862  32.795   8.448   9.972
21795W        W94863  43.085   1.546   1.215
21796W        W94864   8.823   0.814   1.378
21797W        W94865  41.551  21.527   2.225
21798W        W94866  10.636  31.883   4.324
21799W        W94867  22.609  21.570  13.577
21800W        W94868   6.751  22.640   1.060
21801W        W94869  43.433  38.437  13.907
21802W        W94870  12.160  44.847   1.195
21803W        W94871  22.060  32.849   2.428
21804W        W94872  43.858  21.591  14.885
21805W        W94873  23.616  29.374  11.169
21806W        W94874  10.835  39.136  10.619
21807W        W94875  14.203  36.882  14.237
21808W        W94876  11.352   9.841  12.006
21809W        W94877   4.488  10.565   1.686
21810W        W94878  36.875  14.640   3.233
21811W        W94879  14.145  11.616  12.131
21812W        W94880  12.558  44.810   1.506
21813W        W94881   9.194  43.918   0.873
21814W        W94882  34.891  27.719  12.619
21815W        W94883  15.130  44.565   0.883
21816W        W94884  19.453  19.674  11.591
21817W        W94885  17.521   2.877   1.746
21818W        W94886   6.430   7.361   3.894
21819W        W94887  14.601   3.313   3.719
21820W        W94888  19.716  42.308  13.796
21821W        W94889  30.230   3.243   3.644
21822W        W94890  39.483  32.005  12.051
21823W        W94891  28.512   4.958   0.765
21824W        W94892  43.811  33.553  13.383
21825W        W94893  32.934  19.340   2.375
21826W        W94894  43.120   6.656  11.611
21827W        W94895  18.625  37.471   2.760
21828W        W94896  18.635  13.800  12.484
21829W        W94897  39.615  41.480   0.030
21830W        W94898  39.033  22.536  14.194
21831W        W94899  15.521  29.679  13.461
21832W        W94900  10.775  37.503  14.000
21833W        W94901  29.250  17.230   3.397
21834W        W94902  36.487  17.115  12.933
21835W        W94903  20.293  31.101  14.897
21836W        W94904  10.822  34.711  12.360
21837W        W94905   7.916  18.040  11.271
21838W        W94906  16.856  24.645  14.411
21839W        W94907  29.505  17.515  12.067
21840W        W94908  14.841   7.262   1.474
21841W        W94909  28.974  27.935   1.864
21842W        W94910  40.236  11.586  12.302
21843W        W94911  11.365  22.491  13.107
21844W        W94912  15.592  29.922  10.204
21845W        W94913  14.613  35.456   1.688
21846W        W94914  26.782  18.651  12.701
21847W        W94915   1.712  33.909  11.023
21848W        W94916  19.604   0.092  11.984
21849W        W94917   9.205  43.571  13.018
21850W        W94918  35.499  26.956   0.452
21851W        W94919  19.231  40.309   3.162
21852W        W94920  42.860  38.900   4.189
21853W        W94921  17.902  40.802   3.798
21854W        W94922  24.565  38.793  14.786
21855W        W94923  41.704  23.033   1.082
21856W        W94924  35.572  42.751   2.719
21857W        W94925  38.290   2.968  13.898
21858W        W94926  40.641  10.325   0.286
21859W        W94927  44.597  36.565   0.850
21860W        W94928  40.003  33.083   3.135
21861W        W94929  24.161  24.101   0.530
21862W        W94930  40.060  34.984  11.126
21863W        W94931  37.557  13.192  12.405
21864W        W94932  10.622  24.909  13.364
21865W        W94933  21.160  42.216  11.563
21866W        W94934  18.850  16.978   4.949
21867W        W94935  43.731   9.382   2.647
21868W        W94936  39.975  28.939  11.368
21869W        W94937  36.701  19.636   2.703
21870W        W94938   2.395   4.886  13.547
21871W        W94939  15.197   6.240   3.039
21872W        W94940  18.050   5.257   2.416
21873W        W94941   6.301  10.649   3.646
21874W        W94942  17.815  10.159   0.918
21875W        W94943  16.682  15.487  12.412
21876W        W94944   7.959  31.820  11.704
21877W        W94945  37.391  29.734   0.292
21878W        W94946   0.780   5.673   4.971
21879W        W94947  14.313   9.297   3.881
21880W        W94948  39.542  25.778   3.090
21881W        W94949  27.628  20.506   3.436
21882W        W94950  31.183  32.365   1.210
21883W        W94951   9.850  14.916   3.200
21884W        W94952   6.867   9.377   2.290
21885W        W94953   3.923  30.352  13.869
21886W        W94954  28.478  33.378   4.679
21887W        W94955  26.432  16.908   3.149
21888W        W94956  12.369  30.637  11.878
21889W        W94957  33.903  32.036   4.617
21890W        W94958   8.402  30.089  10.987
21891W        W94959  43.855  32.333   3.253
21892W        W94960  21.472   0.274   2.076
21893W        W94961  40.574  33.041  12.255
21894W        W94962  41.310  11.432   3.567
21895W        W94963  21.446  17.306  11.930
21896W        W94964  39.949  19.277  12.034
21897W        W94965  33.601  39.367   0.713
21898W        W94966  29.553  33.891  14.452
21899W        W94967  34.976  35.073  11.660
21900W        W94968   0.728  10.749  10.593
21901W        W94969  26.564  10.622  13.504
21902W        W94970  11.299  26.178   0.412
21903W        W94971  40.749  30.039  11.972
21904W        W94972  31.765  15.691  14.429
21905W        W94973  40.938  32.850  11.880
21906W        W94974  27.458  29.628   3.627
21907W        W94975   4.755  44.344   0.772
21908W        W94976   1.150  42.578  12.699
21909W        W94977   2.277  34.450  12.866
21910W        W94978  19.665  18.796   3.699
21911W        W94979  37.614   2.846   3.769
21912W        W94980   9.272   2.329  14.327
21913W        W94981   8.336  16.018   1.472
21914W        W94982  43.748   4.975  14.138
21915W        W94983  23.109   6.085   2.827
21916W        W94984  18.063   3.934   1.161
21917W        W94985  10.218  36.044   0.091
21918W        W94986  34.270  25.255   3.298
21919W        W94987  33.824   3.360  14.732
21920W        W94988  23.750  22.938   2.725
21921W        W94989  30.686  40.269  12.911
21922W        W94990   1.274  22.525  11.448
21923W        W94991  17.305  20.324  14.097
21924W        W94992  44.494   8.273   2.835
21925W        W94993  33.707  10.206   2.120
21926W        W94994  17.701  20.938   2.690
21927W        W94995   7.956  32.650  14.797
21928W        W94996  27.667  20.626  11.920
21929W        W94997  30.136  34.055  13.823
21930W        W94998  13.111  24.671  12.854
21931W        W94999   5.553   0.301   3.897
21932W        W95000  15.269  12.299  13.905
21933W        W95001   8.721  24.651   3.636
21934W        W95002  10.753  42.627  14.945
21935W        W95003  10.366  30.874   3.252
21936W        W95004   6.305  31.492   4.652
21937W        W95005  40.448  32.067   1.313
21938W        W95006  10.680   6.218   3.684
21939W        W95007  25.788  40.438  11.835
21940W        W95008  29.447  29.091   3.819
21941W        W95009  25.490   9.293  13.916
21942W        W95010   2.366   7.543  13.532
21943W        W95011  41.046  17.297  13.354
21944W        W95012  11.819  35.947  13.198
21945W        W95013  14.135  37.966   1.355
21946W        W95014  25.198  15.006  13.096
21947W        W95015  33.073  39.284   0.743
21948W        W95016   7.309   4.382   1.786
21949W        W95017  27.183  25.942  12.128
21950W        W95018  20.781   1.874   1.893
21951W        W95019  21.082   9.690   2.754
21952W        W95020   3.224  20.156  13.478
21953W        W95021   5.245  37.343   3.307
21954W        W95022   2.706  18.794  14.957
21955W        W95023  41.419  37.005   2.791
21956W        W95024  24.553  43.869   0.227
21957W        W95025  13.754  25.516   1.230
21958W        W95026  12.225  33.649   1.819
21959W        W95027  18.533  32.732   2.186
21960W        W95028  20.278  36.089   0.851
21961W        W95029  21.587  32.504   1.444
21962W        W95030  37.092   2.438   0.031
21963W        W95031   9.717  37.064  10.584
21964W        W95032   3.410  16.242  12.382
21965W        W95033  32.603   6.217   1.534
21966W        W95034  11.199  19.548  11.711
21967W        W95035  18.130  37.883   3.801
21968W        W95036  14.228   7.534   0.334
21969W        W95037  35.808   4.105   1.874
21970W        W95038  20.063  35.393   2.750
21971W        W95039  17.815  12.897   2.934
21972W        W95040   3.748  29.436  12.903
21973W        W95041  18.598  32.900   3.617
21974W        W95042  42.707  33.870  11.928
21975W        W95043  21.148  42.358   4.147
21976W        W95044  31.541  12.233   4.078
21977W        W95045  18.783  18.971  14.557
21978W        W95046  39.790  25.781  14.365
21979W        W95047   9.362  18.470  13.214
21980W        W95048  41.907  17.636   4.136
21981W        W95049  29.761   5.273  10.801
21982W        W95050   4.803  32.903  14.712
21983W        W95051   7.362   1.953   0.692
21984W        W95052  40.084  17.363   3.356
21985W        W95053   9.744  20.892   0.233
21986W        W95054  12.679  15.142  11.159
21987W        W95055  35.341  11.821  11.512
21988W        W95056   3.410  39.947   4.015
21989W        W95057  23.032  14.229   2.706
21990W        W95058  16.802   8.906   4.680
21991W        W95059  29.642  29.772  10.101
21992W        W95060  26.683  29.541   4.094
21993W        W95061   9.918   5.584   2.701
21994W        W95062  32.426  21.632   0.972
21995W        W95063   7.837  42.850  10.640
21996W        W95064  33.574  17.098   1.218
21997W        W95065  43.791   3.734  11.414
21998W        W95066   4.427  15.194   3.243
21999W        W95067  14.583  43.024   2.397
22000W        W95068  15.673  30.392  14.051
22001W        W95069  31.315  42.857   0.206
22002W        W95070  37.523  29.665  13.817
22003W        W95071  43.436  11.278   1.762
22004W        W95072  35.118  41.387   1.363
22005W        W95073   7.341  37.314  10.103
22006W        W95074  26.979  31.006  11.043
22007W        W95075  13.436  18.710  11.048
22008W        W95076   8.249  22.832   0.923
22009W        W95077  10.337  14.769  13.923
22010W        W95078  32.608  21.208  14.247
22011W        W95079  44.925  27.353   0.981
22012W        W95080  24.231  13.254   2.799
22013W        W95081  40.365  29.125  13.614
22014W        W95082  43.191  42.980   4.364
22015W        W95083   4.251   1.763   0.765
22016W        W95084  37.494  31.441   5.474
22017W        W95085  23.625   9.928   4.307
22018W        W95086   1.896  25.854   0.043
22019W        W95087  33.320  41.254   5.179
22020W        W95088  42.974   9.979   9.704
22021W        W95089   6.453  43.388  10.719
22022W        W95090  15.765  40.411   0.525
22023W        W95091  22.232   4.212  11.445
22024W        W95092  30.736  30.438   0.314
22025W        W95093  10.097  27.367  12.776
22026W        W95094  12.247  12.722   4.553
22027W        W95095  10.304  40.049  14.770
22028W        W95096  29.626  15.086   4.652
22029W        W95097  37.078   4.350  11.583
22030W        W95098   7.889  34.641  14.836
22031W        W95099   3.509  42.780   1.408
22032W        W95100   6.177  28.264   1.661
22033W        W95101  26.608  37.853   0.767
22034W        W95102  15.409  11.353   4.307
22035W        W95103  35.402  10.206  13.959
22036W        W95104  35.594   7.264   2.385
22037W        W95105  37.294   8.376  13.535
22038W        W95106   8.875  15.440   4.230
22039W        W95107  10.373  36.158  12.824
22040W        W95108  21.264  15.190   1.959
22041W        W95109  43.410  22.448  11.548
22042W        W95110  16.051   4.224  13.879
22043W        W95111  12.100  35.432  11.434
22044W        W95112  10.034  20.249  10.187
22045W        W95113   6.789  29.904  10.603
22046W        W95114  25.043  31.360   0.410
22047W        W95115  37.825  15.785  12.305
22048W        W95116   9.663  24.957   1.983
22049W        W95117  30.994   4.885  13.917
22050W        W95118  11.787  42.714   3.076
22051W        W95119   8.117  26.996   2.378
22052W        W95120  18.973  37.446  12.607
22053W        W95121   3.078  26.083   1.972
22054W        W95122  11.312  23.668   1.779
22055W        W95123  24.999  27.007  10.663
22056W        W95124  30.932  37.411   3.280
22057W        W95125  44.255   9.821   1.849
22058W        W95126  42.612  42.245  13.855
22059W        W95127  30.552  17.763   4.501
22060W        W95128  28.243   1.101  14.974
22061W        W95129   5.700  14.918  13.964
22062W        W95130  24.338  38.614  10.213
22063W        W95131   9.149  13.152  12.044
22064W        W95132   8.279  24.178  10.658
22065W        W95133  16.613   2.038  13.514
22066W        W95134  17.316  12.664  11.730
22067W        W95135  44.523  44.303  12.863
22068W        W95136  18.721  17.184   3.675
22069W        W95137  24.553   9.201   0.976
22070W        W95138   7.453  15.051  11.407
22071W        W95139  30.202   4.414   1.377
22072W        W95140  16.622  44.445  14.839
22073W        W95141  25.686  33.619  14.313
22074W        W95142  33.711   9.591   0.977
22075W        W95143  28.139  12.011   0.862
22076W        W95144   7.245  25.542  10.547
22077W        W95145   0.471  25.657   0.224
22078W        W95146  16.481  13.555   0.393
22079W        W95147  33.578  19.185  14.095
22080W        W95148  41.079  26.379  11.080
22081W        W95149  20.161  21.309   2.435
22082W        W95150   9.291  28.890  12.980
22083W        W95151  37.759  31.184  11.605
22084W        W95152  10.672   0.232  12.489
22085W        W95153  15.331   9.256  12.411
22086W        W95154  17.043   6.810   5.125
22087W        W95155  33.697  10.281  11.208
22088W        W95156  18.688  43.792  12.977
22089W        W95157   8.682  20.016   0.850
22090W        W95158  19.588   0.141  10.627
22091W        W95159   3.232  17.726   4.226
22092W        W95160  40.555  22.197   0.773
22093W        W95161  12.561  33.137   2.401
22094W        W95162   1.831  38.145  13.850
22095W        W95163  23.452  42.435  11.100
22096W        W95164  39.863  41.319   4.068
22097W        W95165   3.229   1.978  12.646
22098W        W95166  28.920  41.950   2.714
22099W        W95167   0.432   3.885   1.884
22100W        W95168  26.468  35.511  13.917
22101W        W95169  40.422  10.607   0.955
22102W        W95170  35.304   8.496  13.339
22103W        W95171  44.460  33.822   1.999
22104W        W95172  35.624  19.066   0.049
22105W        W95173   5.971  13.812  12.863
22106W        W95174  37.552  37.015   4.937
22107W        W95175   0.071   7.274   2.890
22108W        W95176   2.496   2.233   4.411
22109W        W95177  14.141  10.955  12.969
22110W        W95178  36.815  31.223   1.759
22111W        W95179   9.412  30.134   1.549
22112W        W95180  10.746  41.489   4.585
22113W        W95181   7.956  22.029  11.151
22114W        W95182   1.711   0.844   2.030
22115W        W95183  29.744   4.371  14.585
22116W        W95184  43.079  19.231   1.533
22117W        W95185  37.425  13.599  14.447
22118W        W95186  36.999   2.448   0.983
22119W        W95187  36.336  38.563  11.242
22120W        W95188  42.749  30.438  11.472
22121W        W95189  11.156  41.820   4.631
22122W        W95190  26.709  27.036   0.424
22123W        W95191  13.686  22.688  14.325
22124W        W95192  38.323   8.954   1.234
22125W        W95193  25.269  39.925  14.975
22126W        W95194  17.235  42.322   0.232
22127W        W95195  17.645  14.036  10.582
22128W        W95196  32.661   5.525  13.798
22129W        W95197   9.734   5.357  13.010
22130W        W95198  28.277   4.340  10.314
22131W        W95199   7.650   4.136  11.460
22132W        W95200  20.992  43.079  14.346
22133W        W95201  36.609  18.122  12.974
22134W        W95202  44.431  39.367   4.817
22135W        W95203  26.308  13.421   5.050
22136W        W95204  12.404   3.160   0.963
22137W        W95205  10.845   7.998   2.679
22138W        W95206  17.822  10.719   4.387
22139W        W95207  24.007  25.725   1.183
22140W        W95208  24.457  31.171  10.666
22141W        W95209  23.755  38.058  14.412
22142W        W95210  34.153  34.553  12.017
22143W        W95211  19.380  38.643   1.345
22144W        W95212  10.221   5.289  10.721
22145W        W95213  40.302  31.169  11.251
22146W        W95214   4.983   7.917  13.112
22147W        W95215  11.815  27.010  14.515
22148W        W95216  38.336   6.750   1.145
22149W        W95217  24.075   4.169  12.434
22150W        W95218  22.048  30.258   2.665
22151W        W95219  43.959   9.657   4.199
22152W        W95220  32.999  21.780   2.704
22153W        W95221   2.443  28.616  10.888
22154W        W95222  28.861  27.198  11.621
22155W        W95223  20.420  17.810  12.453
22156W        W95224  39.220  20.648  13.534
22157W        W95225  24.434   9.291   2.446
22158W        W95226   1.011  44.779   1.414
22159W        W95227   9.203   2.381   2.512
22160W        W95228  43.692  39.028   1.154
22161W        W95229   9.467   2.143  13.018
22162W        W95230  37.823  28.173   4.304
22163W        W95231  21.327  25.423  14.894
22164W        W95232  32.565   1.705  12.801
22165W        W95233  24.167   9.766  13.773
22166W        W95234  40.411  14.780  11.351
22167W        W95235  30.990   6.699   3.992
22168W        W95236  35.115   8.644   4.513
22169W        W95237   0.748  14.545   2.373
22170W        W95238  24.579  13.603   3.225
22171W        W95239  41.510  29.931   4.490
22172W        W95240  44.413  18.208  14.962
22173W        W95241   5.687  30.898  13.387
22174W        W95242  16.992  42.824  14.004
22175W        W95243   0.325   0.592  10.988
22176W        W95244   4.071  31.121   1.340
22177W        W95245  12.642  28.612   1.302
22178W        W95246  27.174  21.360   0.838
22179W        W95247  23.927  30.991   2.033
22180W        W95248  41.568  27.968  12.690
22181W        W95249  43.384  17.664   3.262
22182W        W95250  14.221   4.003   0.747
22183W        W95251  15.896  23.763   3.145
22184W        W95252  21.639  15.353   3.775
22185W        W95253  41.410  29.823  12.465
22186W        W95254  43.195  11.037   3.026
22187W        W95255  14.190  37.903   1.909
22188W        W95256  15.552   0.488  11.136
22189W        W95257  19.060  36.248   2.693
22190W        W95258  31.080  39.484   1.730
22191W        W95259  10.768  11.364   2.445
22192W        W95260   3.493  25.733   3.193
22193W        W95261   3.844  34.717   1.446
22194W        W95262  35.190  35.918  14.405
22195W        W95263  28.555  24.086   0.422
22196W        W95264  38.657   0.129  12.579
22197W        W95265  14.318   2.640  10.752
22198W        W95266  31.592   6.759  13.573
22199W        W95267  24.222  13.586   1.228
22200W        W95268  30.410  44.533  13.486
22201W        W95269  17.784  26.576  13.273
22202W        W95270  42.717   5.354   1.844
22203W        W95271   8.187  18.121   1.752
22204W        W95272  10.676  12.249  10.866
22205W        W95273  25.592  11.158   1.002
22206W        W95274  33.551  23.417   0.849
22207W        W95275   1.559  28.111   2.170
22208W        W95276   4.675  39.924  11.203
22209W        W95277  25.643  17.540  13.871
22210W        W95278  23.233  20.583   3.356
22211W        W95279  28.320  19.185   1.443
22212W        W95280  25.522  27.980   4.141
22213W        W95281  17.741  23.756  12.512
22214W        W95282   8.318  14.559  14.457
22215W        W95283  41.925  30.535   2.456
22216W        W95284  36.914  20.988  13.565
22217W        W95285  12.939  24.051   4.554
22218W        W95286   9.062  17.522  13.405
22219W        W95287   3.712  18.172   1.446
22220W        W95288  23.683   6.791   1.650
22221W        W95289  10.595  26.361   3.783
22222W        W95290  33.077  37.899  13.958
22223W        W95291  25.848  10.638   3.243
22224W        W95292  26.143  31.844  12.697
22225W        W95293   2.896  15.660   3.185
22226W        W95294  32.248  11.604   5.033
22227W        W95295  18.281  43.513  13.850
22228W        W95296  19.517   3.829  14.816
22229W        W95297  27.002  15.961  14.097
22230W        W95298  15.114  20.010  13.132
22231W        W95299  30.406  18.970   1.725
22232W        W95300  39.403  44.712   1.932
22233W        W95301  40.845  21.549  11.590
22234W        W95302  27.485   0.009  11.576
22235W        W95303  44.409  42.544   4.429
22236W        W95304  26.591  42.749   0.984
22237W        W95305  31.098  44.013  13.355
22238W        W95306  21.060  42.711   0.434
22239W        W95307  31.069  15.848  13.926
22240W        W95308  39.873  31.954   0.364
22241W        W95309   0.960  18.295  12.525
22242W        W95310  24.016   0.004  13.007
22243W        W95311  33.857  34.001  11.379
22244W        W95312  40.244  12.504   0.729
22245W        W95313  33.721  34.497   4.419
22246W        W95314  25.090   1.468  10.804
22247W        W95315  33.953  41.871   2.189
22248W        W95316  12.842   4.867   0.460
22249W        W95317  18.404  38.591  12.095
22250W        W95318  32.005   8.980  11.142
22251W        W95319  43.770  24.563   4.739
22252W        W95320  21.687   4.956   0.194
22253W        W95321  21.291  28.078   3.229
22254W        W95322   0.443  29.861  13.803
22255W        W95323  19.624  29.132   3.716
22256W        W95324  12.319   7.638  14.853
22257W        W95325   6.869  28.471  11.736
22258W        W95326  36.793  40.070   0.776
22259W        W95327  27.892  32.146  11.172
22260W        W95328   0.131  33.898  14.366
22261W        W95329  12.022  23.044  13.456
22262W        W95330  43.199  23.441  13.826
22263W        W95331   7.398  11.765   0.347
22264W        W95332  28.949  15.667   1.765
22265W        W95333  23.070  16.651   4.640
22266W        W95334   1.395  20.985  11.964
22267W        W95335  41.407  28.730  13.822
22268W        W95336  34.605  40.880   3.126
22269W        W95337  14.593  38.067  14.052
22270W        W95338  41.012  11.849  13.871
22271W        W95339  44.097  22.136   0.562
22272W        W95340  14.096  41.557   3.863
22273W        W95341  25.230  33.851   0.350
22274W        W95342  33.864  29.508  12.967
22275W        W95343  38.999   0.265   3.272
22276W        W95344  39.080  31.378  10.743
22277W        W95345  11.654  37.057   0.925
22278W        W95346  26.919  15.398  11.467
22279W        W95347  14.797  28.114  10.874
22280W        W95348   0.752  37.961   1.679
22281W        W95349   9.276   7.040  11.917
22282W        W95350  36.415  18.624   3.329
22283W        W95351   0.048  13.229   1.216
22284W        W95352   5.493  35.573   1.425
22285W        W95353  21.478  26.186   0.423
22286W        W95354  34.966  18.655   4.605
22287W        W95355  24.102  39.093  12.380
22288W        W95356   5.248  22.313  13.845
22289W        W95357  21.166  23.584  10.709
22290W        W95358  33.904  36.565  13.069
22291W        W95359   1.227  18.276  11.450
22292W        W95360  16.310  15.115   0.059
22293W        W95361   3.587   5.350  14.344
22294W        W95362  11.547  11.277   0.070
22295W        W95363   2.500  41.863  12.502
22296W        W95364  33.944  11.401  14.759
22297W        W95365  26.856  24.060   3.809
22298W        W95366  32.653  33.635  10.464
22299W        W95367  28.312  24.102  11.127
22300W        W95368  19.351  13.309  12.317
22301W        W95369  33.752  35.868   3.353
22302W        W95370  42.733  33.674   0.818
22303W        W95371  23.584  37.922  12.571
22304W        W95372   2.439  15.686  13.866
22305W        W95373   1.741  35.504   0.057
22306W        W95374   7.195   9.298  12.362
22307W        W95375   3.374  11.611   1.406
22308W        W95376  21.117  39.999   1.627
22309W        W95377  33.891  25.688   0.272
22310W        W95378   0.908  20.589   1.336
22311W        W95379  14.725  23.217  11.883
22312W        W95380  36.876  30.916  13.411
22313W        W95381  35.784  15.177   1.481
22314W        W95382  10.170  24.758  12.535
22315W        W95383   8.106  35.123   3.771
22316W        W95384  24.019  43.039  13.199
22317W        W95385  14.206  27.890  13.967
22318W        W95386  11.247   2.286  14.200
22319W        W95387  38.326  30.984   3.575
22320W        W95388  36.069   2.958  13.591
22321W        W95389  33.075   7.662   3.843
22322W        W95390  14.232   1.220   4.079
22323W        W95391  43.342   1.910   4.122
22324W        W95392  31.534  41.075   2.751
22325W        W95393  16.262  30.669  12.111
22326W        W95394  27.468  34.532  12.608
22327W        W95395  20.618   6.287   1.199
22328W        W95396   0.211  27.617  11.164
22329W        W95397  25.541  20.765   0.630
22330W        W95398  19.292  22.361   1.930
22331W        W95399   0.433  24.523  12.838
22332W        W95400  33.104  17.505  13.045
22333W        W95401  13.828  42.602  12.035
22334W        W95402  27.495  32.452   3.088
22335W        W95403  34.641  33.075   3.737
22336W        W95404  44.899  39.062   4.476
22337W        W95405   8.930  31.976   0.352
22338W        W95406  31.691  43.429   3.396
22339W        W95407  25.103  37.054   1.702
22340W        W95408   9.340  13.311   3.773
22341W        W95409   0.507  23.481  14.590
22342W        W95410  10.660  11.392   2.944
22343W        W95411  40.991  40.933   3.789
22344W        W95412  10.898  37.405  13.431
22345W        W95413  12.842  31.477   0.173
22346W        W95414  34.435  25.662   3.571
22347W        W95415  10.206  26.639  14.064
22348W        W95416  37.380  10.158   2.793
22349W        W95417  35.257   0.375   3.249
22350W        W95418  21.995  13.064  11.121
22351W        W95419  37.733   1.761   5.044
22352W        W95420  35.362  16.069  14.062
22353W        W95421  30.453   8.161   3.162
22354W        W95422  25.019   7.651   2.250
22355W        W95423   0.693  24.227   1.349
22356W        W95424   1.976   3.871   1.745
22357W        W95425  43.008   7.135   1.980
22358W        W95426  25.099  25.965  13.361
22359W        W95427  10.531  13.124  11.873
22360W        W95428  15.174   4.719   3.581
22361W        W95429  28.495  44.349  12.558
22362W        W95430   4.332  27.280   3.189
22363W        W95431  14.826  18.132   2.733
22364W        W95432  43.632  43.773   4.136
22365W        W95433  44.305  36.828   0.513
22366W        W95434  37.178  15.518   3.518
22367W        W95435  16.334   8.891  14.252
22368W        W95436   5.489   7.321   0.848
22369W        W95437  39.904  15.242  13.003
22370W        W95438  22.580  40.073   0.854
22371W        W95439  19.206  30.514  14.015
22372W        W95440  40.037  37.494  12.031
22373W        W95441  10.984  20.121   9.620
22374W        W95442   2.041  20.310  11.646
22375W        W95443  29.950  15.277   1.290
22376W        W95444  14.166  25.428  13.136
22377W        W95445  34.420  41.263   1.687
22378W        W95446  13.041  18.311  10.467
22379W        W95447   5.425   1.831  13.880
22380W        W95448   5.919  13.332   3.380
22381W        W95449  42.417   1.001  12.800
22382W        W95450   3.249  24.666   4.098
22383W        W95451   3.907  29.424   1.023
22384W        W95452  25.059  19.646  12.889
22385W        W95453  17.178  18.783   4.378
22386W        W95454  30.376  31.242   2.801
22387W        W95455  25.264  37.425   0.898
22388W        W95456  12.690  42.376  12.088
22389W        W95457  30.467   6.835   4.057
22390W        W95458  18.095   8.792  12.618
22391W        W95459   8.700  31.412   4.792
22392W        W95460  36.762  24.363   3.260
22393W        W95461  32.933  37.427   2.720
22394W        W95462  33.910   2.351   0.355
22395W        W95463  31.414  24.025  13.444
22396W        W95464  40.062   3.700  12.894
22397W        W95465  22.144   9.437  12.451
22398W        W95466  28.856  11.321   1.869
22399W        W95467  43.826  26.673   1.170
22400W        W95468  43.975  31.096   2.792
22401W        W95469  12.356  15.852   0.818
22402W        W95470  11.703   5.219  14.012
22403W        W95471  11.659   1.251   3.173
22404W        W95472  27.692  32.676  14.523
22405W        W95473  24.129  19.006   2.345
22406W        W95474   6.799   8.290  12.108
22407W        W95475  18.938  21.576  14.856
22408W        W95476   1.741  26.381   4.206
22409W        W95477  38.118  21.117   3.337
22410W        W95478   5.499  44.245  14.435
22411W        W95479  37.676  26.427  14.964
22412W        W95480  19.273  21.555  12.709
22413W        W95481  21.113  24.494   4.139
22414W        W95482  10.237  22.026   4.842
22415W        W95483  16.910   3.085   4.085
22416W        W95484   1.663  36.892  13.136
22417W        W95485  26.001  35.065  10.674
22418W        W95486  44.250  19.169   2.307
22419W        W95487  28.595  35.673  10.711
22420W        W95488  31.057  14.287  11.187
22421W        W95489  30.345  41.815   2.680
22422W        W95490  36.184  20.022   1.895
22423W        W95491  25.252  36.543  13.489
22424W        W95492  12.173  13.414  11.916
22425W        W95493  43.227  21.739  14.288
22426W        W95494  15.471   9.412  13.292
22427W        W95495  19.992  38.117   3.911
22428W        W95496   1.521   1.403   0.776
22429W        W95497  28.053   0.991   3.029
22430W        W95498  11.850  15.679   3.871
22431W        W95499  23.534  38.200  10.532
22432W        W95500   0.851  23.079   2.818
22433W        W95501  28.143  43.616  14.005
22434W        W95502  16.298   0.531   0.531
22435W        W95503  40.875  44.736   2.413
22436W        W95504  31.997  24.196  12.138
22437W        W95505  13.516  32.590   3.213
22438W        W95506   6.049  38.362   2.140
22439W        W95507  43.337  33.180   0.364
22440W        W95508   6.718   6.362   4.507
22441W        W95509  44.972  30.470   4.993
22442W        W95510   3.307  29.728  12.964
22443W        W95511  30.603   1.880  13.329
22444W        W95512   0.711   3.162  13.502
22445W        W95513  14.159  29.917  13.000
22446W        W95514  26.150  44.848   2.851
22447W        W95515  22.054  36.983  14.972
22448W        W95516  37.251  32.577   2.906
22449W        W95517  36.025  19.085  12.456
22450W        W95518  29.714  20.158   3.707
22451W        W95519  12.392  10.585   2.589
22452W        W95520   1.207  10.007   3.192
22453W        W95521  10.660  24.039   1.606
22454W        W95522  30.190  21.942  14.727
22455W        W95523  11.359  22.491  10.618
22456W        W95524  27.762  29.553  12.051
22457W        W95525  30.358  20.712   5.045
22458W        W95526  28.685  16.517  10.736
22459W        W95527  22.581  10.734   3.941
22460W        W95528  21.240  15.820  13.077
22461W        W95529   7.116   0.717   1.455
22462W        W95530  22.218  44.071   1.953
22463W        W95531  25.620  12.671   1.317
22464W        W95532  37.155  40.882  14.788
22465W        W95533  39.952  18.765  14.458
22466W        W95534  35.367  20.480   3.469
22467W        W95535  21.660  20.216  11.639
22468W        W95536  27.076  24.724   2.854
22469W        W95537  14.312  40.621   2.294
22470W        W95538  12.532   6.753   1.383
22471W        W95539  19.721  20.158  10.755
22472W        W95540  33.941  26.239   3.135
22473W        W95541  44.239  14.148   3.820
22474W        W95542  40.467  40.945  12.440
22475W        W95543   8.591   6.399  12.746
22476W        W95544  36.517  34.303  10.493
22477W        W95545   1.511   4.790   2.745
22478W        W95546  28.932  19.093  10.847
22479W        W95547  24.964  20.345   1.907
22480W        W95548  18.743  34.975   4.568
22481W        W95549  13.776  26.033  13.799
22482W        W95550  19.100  12.729   1.858
22483W        W95551  39.679  10.737  14.270
22484W        W95552  36.621   5.011  13.238
22485W        W95553  19.809  31.402  11.454
22486W        W95554  14.265   3.902  12.075
22487W        W95555  39.572  36.925  10.740
22488W        W95556  16.094  22.233   3.815
22489W        W95557  42.948  13.747   1.775
22490W        W95558  37.156  33.950   4.631
22491W        W95559  34.859  32.636   0.718
22492W        W95560  22.028  19.982  12.411
22493W        W95561  35.378  41.041  14.048
22494W        W95562  28.605   9.815   2.859
22495W        W95563  33.025   0.181  12.087
22496W        W95564  32.179  29.683  12.080
22497W        W95565   5.958   7.142   0.715
22498W        W95566  10.731  33.972  13.690
22499W        W95567   8.767  36.031   2.271
22500W        W95568   6.219   9.212  11.933
22501W        W95569  31.914   2.788  14.635
22502W        W95570  33.149  40.787  14.125
22503W        W95571  39.395  33.951  14.719
22504W        W95572  14.014  13.820  10.655
22505W        W95573   7.356  38.644  10.729
22506W        W95574  13.370  32.399   2.723
22507W        W95575   9.618   3.277  10.687
22508W        W95576  13.837   6.689   2.236
22509W        W95577  43.494   5.244  14.552
22510W        W95578  26.637  38.842  10.319
22511W        W95579  34.282   5.911  13.287
22512W        W95580  10.265  31.014   4.603
22513W        W95581  27.521  37.613  13.802
22514W        W95582  27.324   3.354  12.486
22515W        W95583   9.900  33.845   0.427
22516W        W95584   5.930  29.384  14.647
22517W        W95585  44.577  27.088  10.634
22518W        W95586  23.525   6.376   0.804
22519W        W95587  41.519  35.643  11.715
22520W        W95588  12.299  23.544  14.645
22521W        W95589   4.389  31.213  12.120
22522W        W95590   1.976   3.853  14.371
22523W        W95591  25.702  27.855   3.121
22524W        W95592   8.742  13.020  12.852
22525W        W95593  11.723  14.726  11.610
22526W        W95594  39.517  16.724   3.227
22527W        W95595  26.829  40.429  13.122
22528W        W95596  44.983  32.933   2.154
22529W        W95597  19.210  36.003   0.938
22530W        W95598  31.127   3.202  14.266
22531W        W95599  17.012  12.760   2.169
22532W        W95600  36.571  38.162   4.432
22533W        W95601   2.467  20.236   4.331
22534W        W95602  28.444   5.654  14.941
22535W        W95603  12.602   1.836  12.643
22536W        W95604  13.118   9.312  12.212
22537W        W95605   9.063   0.631  11.588
22538W        W95606  41.503  12.225  12.527
22539W        W95607  30.173   3.273   4.521
22540W        W95608  43.540  39.020   0.650
22541W        W95609   8.983   4.718  14.485
22542W        W95610  42.916   6.875   4.746
22543W        W95611  23.397  27.033   3.658
22544W        W95612  20.540  36.907  14.829
22545W        W95613  25.926  39.496  13.000
22546W        W95614   5.684  22.745   1.352
22547W        W95615  25.929  12.177  12.077
22548W        W95616   2.888  41.788   1.487
22549W        W95617  43.655   0.191   3.605
22550W        W95618   8.870  13.207   1.765
22551W        W95619  17.255  19.351  14.348
22552W        W95620  40.310  28.036   5.027
22553W        W95621  19.671  16.294   1.888
22554W        W95622  13.095  34.047  14.365
22555W        W95623  32.042  24.991   0.303
22556W        W95624  21.714  32.395   1.915
22557W        W95625  44.414  39.932   2.190
22558W        W95626  35.297  16.486   2.759
22559W        W95627  32.328  16.036   2.445
22560W        W95628  19.962  22.537   4.119
22561W        W95629   2.265  10.883   0.347
22562W        W95630  37.519   2.484   0.898
22563W        W95631  21.383  34.069  12.580
22564W        W95632  15.062   5.270   1.949
22565W        W95633  43.732  18.244  12.544
22566W        W95634  16.610  16.276   0.845
22567W        W95635  20.228  27.600   2.092
22568W        W95636   4.222  41.090  10.633
22569W        W95637   9.673  36.340  14.434
22570W        W95638  39.066   3.747   0.817
22571W        W95639  43.988  44.954  13.491
22572W        W95640  21.151   3.985   2.379
22573W        W95641  34.762  32.873   2.393
22574W        W95642  36.381  12.848   1.186
22575W        W95643  28.123  26.493  13.030
22576W        W95644  43.346  29.143  12.582
22577W        W95645  25.425   9.713   3.608
22578W        W95646  35.254   4.631   9.784
22579W        W95647  42.397  37.683  11.973
22580W        W95648  25.551  21.132  12.085
22581W        W95649   4.168  26.519  11.697
22582W        W95650  29.974  38.538  10.416
22583W        W95651  29.452  25.708   0.928
22584W        W95652  35.922   0.940  13.876
22585W        W95653  27.250  35.788   2.732
22586W        W95654  19.613  24.967  13.943
22587W        W95655  20.244  39.902  13.921
22588W        W95656   6.798   2.575  11.516
22589W        W95657  25.039  17.334  10.772
22590W        W95658  26.112  37.913   0.492
22591W        W95659   1.492  44.507  13.101
22592W        W95660   2.456  41.220   3.328
22593W        W95661  35.929  26.704  11.224
22594W        W95662  36.974  35.503   2.676
22595W        W95663  41.335  11.782   3.173
22596W        W95664  42.404   5.722  12.756
22597W        W95665   9.622   8.380   1.292
22598W        W95666  39.856  15.511   2.753
22599W        W95667  39.529   5.641  10.268
22600W        W95668   6.233  40.903   0.257
22601W        W95669  34.273  38.230  14.452
22602W        W95670  20.022  33.755   0.563
22603W        W95671  43.476   3.765   4.670
22604W        W95672  10.902  16.267   1.689
22605W        W95673  14.112   7.179  14.894
22606W        W95674  24.123  14.225   0.729
22607W        W95675  19.747  22.428  11.121
22608W        W95676  32.600  25.964   4.476
22609W        W95677  28.416  10.077  12.564
22610W        W95678  40.114  30.883  13.730
22611W        W95679  21.396  35.865  10.320
22612W        W95680  35.055   1.314  13.438
22613W        W95681  41.792   8.263  10.495
22614W        W95682  22.649  11.154   4.604
22615W        W95683  18.146   5.636   4.588
22616W        W95684   7.377  32.530   1.716
22617W        W95685  24.763  39.900  10.371
22618W        W95686  38.321  32.538   1.776
22619W        W95687  12.866  26.314  14.546
22620W        W95688  39.882  41.872  10.726
22621W        W95689  40.304  29.692   0.825
22622W        W95690  25.757   3.318  10.269
22623W        W95691  12.224  15.698  14.045
22624W        W95692  24.266  35.897   4.769
22625W        W95693  19.552  23.965   2.552
22626W        W95694  30.303  39.873  14.901
22627W        W95695   2.208  34.706   2.341
22628W        W95696  28.533   9.353  11.559
22629W        W95697  23.999  25.538  12.617
22630W        W95698  14.045  24.454  12.146
22631W        W95699  20.856  24.150  13.471
22632W        W95700  28.113  35.418   3.612
22633W        W95701  28.196  16.569   4.498
22634W        W95702  33.413   6.829   1.742
22635W        W95703  44.518   8.864  10.707
22636W        W95704  29.183  32.461   4.321
22637W        W95705  38.186  13.922  11.487
22638W        W95706  31.367  37.594   0.354
22639W        W95707  37.348  20.325   2.584
22640W        W95708  44.406  42.513   3.919
22641W        W95709   0.044  18.214   1.862
22642W        W95710  11.711  28.882  11.907
22643W        W95711   6.625   2.753  14.520
22644W        W95712  41.328  44.746   0.838
22645W        W95713  42.759  43.575   3.203
22646W        W95714  34.032  15.064   4.614
22647W        W95715  40.008  19.506   1.332
22648W        W95716  16.554  38.420  11.724
22649W        W95717   2.140  31.537  11.190
22650W        W95718  38.516  28.302  14.314
22651W        W95719   4.811  12.207  13.024
22652W        W95720   6.122   6.712  13.730
22653W        W95721  33.861  29.649   0.018
22654W        W95722  27.230  11.361  11.565
22655W        W95723  37.529  29.576   3.906
22656W        W95724  34.321  34.129  13.952
22657W        W95725  42.904  29.922   4.596
22658W        W95726  13.923  30.406   2.144
22659W        W95727   8.287  34.011  14.404
22660W        W95728  10.765   0.596   3.224
22661W        W95729   1.707  10.084   3.329
22662W        W95730  43.297   9.110   2.624
22663W        W95731  40.431  33.927  12.687
22664W        W95732  33.922  36.634  14.922
22665W        W95733  27.691  19.775   3.799
22666W        W95734  30.978  28.618   4.684
22667W        W95735  14.317  18.340   2.675
22668W        W95736  26.677   0.735   3.178
22669W        W95737  31.971  38.390   2.265
22670W        W95738  20.453  25.065  10.676
22671W        W95739  10.380  27.923   2.329
22672W        W95740   2.246  17.273   2.769
22673W        W95741  24.103   2.923  11.033
22674W        W95742  44.699   9.759  11.958
22675W        W95743  29.788  10.363  12.222
22676W        W95744  44.702   1.432  11.147
22677W        W95745   4.053  42.418   2.966
22678W        W95746  35.381  10.691  11.241
22679W        W95747  10.635   7.766   3.152
22680W        W95748  10.209   3.026   5.052
22681W        W95749  44.033  25.560   3.072
22682W        W95750   5.770  13.642   1.200
22683W        W95751   0.770  39.006  13.442
22684W        W95752  35.943  36.770  14.347
22685W        W95753  23.646   2.950   2.257
22686W        W95754  42.848  31.023   3.742
22687W        W95755  17.889  11.219  12.933
22688W        W95756   1.283  43.039  13.060
22689W        W95757  28.077  12.703  14.021
22690W        W95758  10.267   2.456   3.488
22691W        W95759  37.030  19.791   3.265
22692W        W95760   5.394  39.527  12.051
22693W        W95761   4.920  26.709   2.785
22694W        W95762  12.825  13.257  14.462
22695W        W95763  22.593   3.700   3.779
22696W        W95764   6.414  20.540   3.581
22697W        W95765  26.909  33.944  14.359
22698W        W95766  12.338  10.675   3.620
22699W        W95767   4.910  38.915  11.172
22700W        W95768  19.703  19.141  11.514
22701W        W95769  42.052  15.259  11.594
22702W        W95770  38.795   9.865  13.766
22703W        W95771  12.395  16.365   0.905
22704W        W95772   7.140  15.656  12.538
22705W        W95773  23.933  18.244  12.965
22706W        W95774  20.014  34.110  12.616
22707W        W95775  44.964  25.004   0.379
22708W        W95776   7.732  26.561  13.934
22709W        W95777  29.964  35.846  12.551
22710W        W95778  15.835  22.281   1.609
22711W        W95779  41.499  32.901   1.245
22712W        W95780  24.903  10.086   1.973
22713W        W95781  15.653  43.781   0.305
22714W        W95782  20.741  38.138   3.314
22715W        W95783   2.961  40.360   2.256
22716W        W95784  27.935  15.764  13.033
22717W        W95785  18.271  27.703  12.018
22718W        W95786  16.590  39.372  12.595
22719W        W95787   3.323  15.515  14.063
22720W        W95788  17.723  24.743  10.746
22721W        W95789   2.889  29.101  13.458
22722W        W95790  32.140   6.594  14.444
22723W        W95791  39.334  24.142  13.389
22724W        W95792  35.929  16.303  10.925
22725W        W95793  41.423  32.337  14.359
22726W        W95794  30.066  28.658  14.282
22727W        W95795   1.224   5.941   1.219
22728W        W95796  20.228  34.312   1.641
22729W        W95797   2.664  33.748  11.040
22730W        W95798  13.588   9.182   1.899
22731W        W95799  39.988   3.947  13.372
22732W        W95800   3.438  40.756   3.737
22733W        W95801  28.731   2.779  14.450
22734W        W95802  22.356  35.081   0.797
22735W        W95803  38.184  43.015  14.776
22736W        W95804  28.685  29.079  14.473
22737W        W95805  12.942  17.577   0.812
22738W        W95806   3.476  44.576   0.318
22739W        W95807  17.597  27.101  12.955
22740W        W95808  33.009  20.212   4.689
22741W        W95809   4.682  33.511  14.057
22742W        W95810  36.015  18.610   3.637
22743W        W95811  39.769  11.408  12.216
22744W        W95812  20.211  33.966  14.082
22745W        W95813  42.835  42.494   1.529
22746W        W95814  17.901  38.147  13.153
22747W        W95815  36.200  42.763   1.366
22748W        W95816   0.696   2.537   4.096
22749W        W95817  28.878  21.101  11.657
22750W        W95818  19.132  41.441   0.267
22751W        W95819  39.339  24.493   3.530
22752W        W95820  17.148  18.510   3.474
22753W        W95821  15.493  33.205   1.406
22754W        W95822  20.163   8.750   1.150
22755W        W95823   7.408  26.449  12.048
22756W        W95824   7.352  29.601  14.473
22757W        W95825  21.945  17.538   3.843
22758W        W95826  36.706  33.136   3.823
22759W        W95827  18.055  12.715   3.556
22760W        W95828  25.576  37.092   2.470
22761W        W95829  39.382  21.189  10.710
22762W        W95830  26.210   5.137  11.606
22763W        W95831  38.035   7.914  13.172
22764W        W95832  39.048   0.303  14.691
22765W        W95833  36.649   3.322   2.722
22766W        W95834   5.618  30.065   4.586
22767W        W95835  37.976  43.519   1.392
22768W        W95836  32.075  22.604   0.349
22769W        W95837  40.577  15.195  14.842
22770W        W95838  40.420   0.517   0.289
22771W        W95839  23.217  42.418  12.587
22772W        W95840  38.758  11.604  11.751
22773W        W95841  43.307  40.552  14.862
22774W        W95842  40.911  27.371  14.400
22775W        W95843  17.803  22.505   4.747
22776W        W95844   7.412  35.348   1.402
22777W        W95845  44.314   6.912   4.259
22778W        W95846  39.741  13.590  11.501
22779W        W95847  29.594  21.185   1.118
22780W        W95848   1.772  16.106   2.372
22781W        W95849  14.734  18.644   2.786
22782W        W95850  17.005  36.736   3.951
22783W        W95851  10.833  29.183   0.479
22784W        W95852  33.857  43.302   1.202
22785W        W95853  40.930   9.639  13.449
22786W        W95854  13.503  17.310  10.978
22787W        W95855  22.641   5.684  14.776
22788W        W95856   7.700  14.111  13.578
22789W        W95857   7.068  35.338  11.144
22790W        W95858  15.056  34.421   2.345
22791W        W95859  12.565  17.306  13.088
22792W        W95860  23.640  44.085   3.806
22793W        W95861  20.562  35.856  12.387
22794W        W95862  12.175   2.743   3.422
22795W        W95863  28.865  44.866  14.970
22796W        W95864  12.129  30.969   2.625
22797W        W95865   5.376  21.731   1.989
22798W        W95866  21.070  13.036  12.943
22799W        W95867  28.574  25.209   3.466
22800W        W95868  44.570  20.147   1.238
22801W        W95869  35.970  12.743   4.425
22802W        W95870  27.396  13.722   2.135
22803W        W95871  30.915   3.358  11.691
22804W        W95872  39.892  18.483   4.823
22805W        W95873   7.206  17.150  14.349
22806W        W95874  16.733  38.574   1.930
22807W        W95875   9.824  35.754  14.413
22808W        W95876  43.077  42.596   3.807
22809W        W95877  18.999  33.610   3.695
22810W        W95878  35.645  14.648   2.717
22811W        W95879  32.171  25.499  11.092
22812W        W95880  23.121  10.926  12.617
22813W        W95881  16.304   2.376   3.298
22814W        W95882  29.042  11.930   0.815
22815W        W95883  43.502  22.225   1.916
22816W        W95884  28.261  19.323  11.956
22817W        W95885   6.381  23.671  11.985
22818W        W95886  40.581  28.036  12.911
22819W        W95887  23.617   3.469  12.401
22820W        W95888  26.490   9.325   3.195
22821W        W95889  28.978  32.601   1.839
22822W        W95890  16.731  38.257   2.340
22823W        W95891   8.828  17.131   3.672
22824W        W95892   2.222   0.057   2.077
22825W        W95893  38.494  20.070   4.628
22826W        W95894  24.591  33.935   1.246
22827W        W95895  42.982  38.737   4.970
22828W        W95896  14.253  19.383  10.648
22829W        W95897  38.409  10.857   4.745
22830W        W95898  30.241  31.422  12.532
22831W        W95899  32.505  43.134   1.405
22832W        W95900  30.971  43.578   4.145
22833W        W95901  30.016  35.610  10.720
22834W        W95902  17.986  36.950   4.131
22835W        W95903  31.015   2.899   2.288
22836W        W95904  30.523  31.462   1.291
22837W        W95905  29.076  29.859  12.933
22838W        W95906   4.303  39.568   3.615
22839W        W95907  17.698  16.678   2.569
22840W        W95908   7.827   1.765   0.763
22841W        W95909  19.781  19.752  12.853
22842W        W95910  13.150  29.434   3.280
22843W        W95911  21.076  27.333   4.835
22844W        W95912  24.631  22.616   2.876
22845W        W95913  23.320  38.973  10.664
22846W        W95914  38.944  24.755   3.750
22847W        W95915  26.649   8.409   1.471
22848W        W95916  12.579  35.155   1.279
22849W        W95917  35.893  32.505   4.786
22850W        W95918  35.152  18.135  11.593
22851W        W95919  27.838   0.840   1.391
22852W        W95920  27.129  39.477   3.975
22853W        W95921  39.173   3.468  13.170
22854W        W95922  36.731  40.932   0.776
22855W        W95923  22.523  28.238  13.472
22856W        W95924  34.124   1.507  12.519
22857W        W95925   2.532   4.728   2.769
22858W        W95926  17.261  31.579  12.002
22859W        W95927  17.834   3.699   1.859
22860W        W95928  35.201  30.631  13.877
22861W        W95929  39.190   7.263   4.525
22862W        W95930  19.644  30.055  12.105
22863W        W95931  11.297  34.519  10.950
22864W        W95932  20.064  15.757  13.740
22865W        W95933  16.731  43.787   1.433
22866W        W95934  13.197  34.433   0.688
22867W        W95935  34.042  36.166  13.626
22868W        W95936  44.296  10.697  14.389
22869W        W95937   2.374   6.875   3.910
22870W        W95938  20.604  15.744   1.907
22871W        W95939  39.071  30.935  11.477
22872W        W95940   7.670  33.381  13.007
22873W        W95941  35.287  42.906   1.339
22874W        W95942  41.729  25.683   1.031
22875W        W95943  10.803  26.269   2.607
22876W        W95944  30.200  19.184   1.287
22877W        W95945  20.122  44.848  14.265
22878W        W95946  29.942   6.255  14.428
22879W        W95947  17.134   2.900  11.128
22880W        W95948  32.148  17.997  14.959
22881W        W95949   8.128  43.097  12.904
22882W        W95950  32.530   8.111  12.881
22883W        W95951  14.907   5.578  14.442
22884W        W95952  13.152   4.841   1.821
22885W        W95953  13.694  30.473  13.521
22886W        W95954  25.642  27.588  13.439
22887W        W95955  41.927  39.576  14.292
22888W        W95956  43.394   4.085   0.173
22889W        W95957   3.425   1.872   4.181
22890W        W95958  24.983  15.476   1.076
22891W        W95959  16.069  30.623   4.603
22892W        W95960  40.829   3.764   3.374
22893W        W95961  21.977  43.337  12.023
22894W        W95962  19.096  10.043  13.782
22895W        W95963   7.375  11.062   2.015
22896W        W95964   6.443  18.606  10.505
22897W        W95965  26.385   3.208   0.970
22898W        W95966   5.148  26.642  12.440
22899W        W95967   8.770   7.241   4.640
22900W        W95968  44.152   3.764   1.406
22901W        W95969  35.995   4.971   0.182
22902W        W95970  17.119  18.295  10.553
22903W        W95971  35.296  15.356   1.428
22904W        W95972  28.553  35.996  13.618
22905W        W95973  12.609  41.145  13.484
22906W        W95974  13.781  13.051  11.681
22907W        W95975  42.007  30.105  10.751
22908W        W95976   8.419   6.302  11.662
22909W        W95977  11.535  25.001   1.639
22910W        W95978  44.829  25.657  11.996
22911W        W95979  28.673  17.046   0.412
22912W        W95980  41.315  20.546  12.876
22913W        W95981  43.861  19.694  12.816
22914W        W95982  18.231  19.786  12.901
22915W        W95983  25.540  10.642  14.868
22916W        W95984  34.907  39.888  13.537
22917W        W95985  36.596  35.064   4.948
22918W        W95986   2.417  40.344  12.909
22919W        W95987  18.314  19.302  12.788
22920W        W95988  43.855  18.516  10.689
22921W        W95989   7.877   0.208   3.510
22922W        W95990  28.105  22.774   1.954
22923W        W95991   8.842   3.860  14.204
22924W        W95992  26.069  22.762   1.845
22925W        W95993  35.885  27.610   4.138
22926W        W95994   6.479   1.869  13.137
22927W        W95995  32.141  34.096  12.605
22928W        W95996   6.449  44.518   1.517
22929W        W95997  30.577  11.064   0.397
22930W        W95998  12.758   4.600   3.185
22931W        W95999  37.335   8.128   0.034
22932W        W96000  23.824  12.623  11.985
22933W        W96001  11.168  19.207   5.471
22934W        W96002  36.998   3.080  10.746
22935W        W96003  23.489  44.440  13.760
22936W        W96004  11.183  28.556  14.339
22937W        W96005  11.739  21.790  14.214
22938W        W96006  32.219  13.316  12.448
22939W        W96007  41.948  30.389   3.249
22940W        W96008  24.021  10.246   3.149
22941W        W96009  34.442  25.174   3.804
22942W        W96010  22.519   7.326  10.366
22943W        W96011  31.580  36.613  13.295
22944W        W96012  44.484  41.477   3.426
22945W        W96013   6.300   9.280   3.588
22946W        W96014  11.277  37.916   2.903
22947W        W96015  35.496  12.361   3.698
22948W        W96016   7.874  25.542   3.687
22949W        W96017  36.896  26.265   1.832
22950W        W96018  39.777  15.745  10.500
22951W        W96019  19.154  11.707   1.459
22952W        W96020   1.870  34.298   0.399
22953W        W96021  18.055  42.255   2.753
22954W        W96022  14.596  36.941   1.945
22955W        W96023  20.367  11.588   4.131
22956W        W96024  38.135  43.260   4.483
22957W        W96025  33.171  20.528  11.940
22958W        W96026  41.566  13.175  12.474
22959W        W96027  28.852   0.537   3.393
22960W        W96028  33.601  16.396   9.945
22961W        W96029  32.280  23.763  13.326
22962W        W96030  19.013   7.724  10.686
22963W        W96031  11.042   9.349   0.377
22964W        W96032  21.135  12.923  13.929
22965W        W96033  31.611  22.974  10.563
22966W        W96034  24.031  36.010   0.934
22967W        W96035  32.334  22.023  14.547
22968W        W96036  42.494   7.248  11.966
22969W        W96037  22.526  28.425   0.703
22970W        W96038  37.477   6.500  12.078
22971W        W96039  27.172  18.091  11.547
22972W        W96040  18.806  35.385  11.512
22973W        W96041  44.353  43.636  14.835
22974W        W96042  37.053  39.427   1.899
22975W        W96043  38.261  15.741   2.328
22976W        W96044  28.400  35.681   3.993
22977W        W96045   6.348  14.281   0.845
22978W        W96046   6.922   6.044  10.342
22979W        W96047   2.929  15.822  12.082
22980W        W96048  36.407  14.610  10.939
22981W        W96049  35.563  19.677  14.392
22982W        W96050  38.592  32.099   1.747
22983W        W96051  24.183  19.005   3.218
22984W        W96052  21.176  13.645   3.504
22985W        W96053  35.559  11.514  11.171
22986W        W96054   9.908  11.115   4.189
22987W        W96055  21.667   4.461  14.322
22988W        W96056   1.976  16.396  10.662
22989W        W96057   3.890   3.166  14.305
22990W        W96058   4.515  35.387   2.810
22991W        W96059  17.988  11.102  11.539
22992W        W96060  11.686  13.624  10.606
22993W        W96061  40.203   7.058   4.328
22994W        W96062  41.490  41.915   4.577
22995W        W96063  27.618  19.145   1.190
22996W        W96064  39.943  36.097  12.063
22997W        W96065   7.167  42.800  12.744
22998W        W96066  34.512  30.115  13.513
22999W        W96067   0.516  34.112  13.998
23000W        W96068  38.038  11.891  12.479
23001W        W96069  41.173  34.058  13.996
23002W        W96070  44.857  33.017  14.483
23003W        W96071  14.288   7.370   4.460
23004W        W96072  10.263  35.384   3.876
23005W        W96073   7.795  44.961   1.193
23006W        W96074  34.572  41.798  13.432
23007W        W96075  37.287   4.282  14.761
23008W        W96076  27.064  14.220  11.623
23009W        W96077  15.082  43.406   4.774
23010W        W96078  39.764   8.276  10.606
23011W        W96079  22.045  17.554   4.714
23012W        W96080  15.075  14.133  13.395
23013W        W96081  44.847  35.363   3.729
23014W        W96082  15.610  30.871   3.695
23015W        W96083  11.657  27.485  11.753
23016W        W96084   1.743  19.861  11.223
23017W        W96085  17.047   6.273  13.550
23018W        W96086  39.377   5.174  11.654
23019W        W96087  43.321  28.646  13.866
23020W        W96088   3.309   0.869   2.003
23021W        W96089  25.593  44.725  11.686
23022W        W96090  16.368   4.011   4.650
23023W        W96091  42.358   8.371   1.706
23024W        W96092  31.874   3.282  14.752
23025W        W96093   5.148  28.455  11.119
23026W        W96094  38.405  29.569   4.624
23027W        W96095  27.967  22.032   3.255
23028W        W96096  24.624   0.534   0.818
23029W        W96097  40.528  35.204   3.608
23030W        W96098   1.757  12.870   3.717
23031W        W96099  14.168   6.197   3.217
23032W        W96100  36.033  36.832   4.481
23033W        W96101  37.608  43.509   0.809
23034W        W96102  25.918  23.949  13.732
23035W        W96103  17.250  35.925  13.971
23036W        W96104   5.354  35.194  11.651
23037W        W96105  40.083  24.013  14.368
23038W        W96106  13.890  23.973  12.111
23039W        W96107   8.377  14.656  12.447
23040W        W96108  32.927  22.265   2.148
23041W        W96109  11.416   7.164   1.231
23042W        W96110  25.449  28.441   4.839
23043W        W96111   1.736  34.634   1.745
23044W        W96112  35.034  40.120  12.630
23045W        W96113  30.158  32.892   2.234
23046W        W96114  15.626  10.816   3.871
23047W        W96115   9.971   8.186   2.155
23048W        W96116  23.451  22.335   2.210
23049W        W96117  28.477  19.679   4.549
23050W        W96118  26.220  13.142  13.430
23051W        W96119  22.618  39.231  10.163
23052W        W96120   8.818  33.386  14.833
23053W        W96121  11.022  41.492  11.211
23054W        W96122  25.556  22.237   2.468
23055W        W96123  25.692  24.589  10.730
23056W        W96124  14.715  41.464  12.762
23057W        W96125   7.564  17.108  12.157
23058W        W96126  10.409  27.646   3.724
23059W        W96127   2.681  40.858  11.572
23060W        W96128  34.317  26.749   2.806
23061W        W96129  35.087  26.711   2.380
23062W        W96130  41.500  38.908  13.497
23063W        W96131  30.482  43.740  12.818
23064W        W96132  42.981   8.036  11.954
23065W        W96133  18.085   8.343   3.505
23066W        W96134  41.076  26.069  12.717
23067W        W96135  22.017   6.919   2.826
23068W        W96136  10.655  39.987   0.665
23069W        W96137  17.544  21.587  14.117
23070W        W96138   8.666  43.840   3.991
23071W        W96139  28.727  12.701  13.114
23072W        W96140  30.611  25.039   2.244
23073W        W96141  33.402  14.535  10.951
23074W        W96142  30.991   7.942  14.705
23075W        W96143  44.394  16.868   4.237
23076W        W96144  42.353  27.999   1.706
23077W        W96145  43.968   8.402  14.997
23078W        W96146  13.827   7.868  11.606
23079W        W96147  24.626  30.899  14.882
23080W        W96148  29.954  13.260   0.717
23081W        W96149  21.959   5.364   2.743
23082W        W96150  21.749   3.836   0.428
23083W        W96151  13.794   1.201  10.858
23084W        W96152  31.680  29.185  11.104
23085W        W96153  40.067  11.794  13.478
23086W        W96154  12.273  24.068  13.594
23087W        W96155   1.797   2.142  10.520
23088W        W96156  41.786  20.025   2.586
23089W        W96157  13.462  12.112   4.394
23090W        W96158  38.975  33.316  14.300
23091W        W96159   0.290   3.542   2.266
23092W        W96160  24.209   2.747  14.165
23093W        W96161  32.692  16.763   4.631
23094W        W96162  29.753  31.131  11.955
23095W        W96163  32.138  13.600  14.914
23096W        W96164   9.388  16.581  13.585
23097W        W96165  42.817  13.108  11.203
23098W        W96166  24.909  42.899  10.709
23099W        W96167  17.950  35.941  11.099
23100W        W96168  25.114  16.637   2.853
23101W        W96169   8.655  36.591   1.628
23102W        W96170  24.640  34.504   0.449
23103W        W96171  33.357  33.558   4.637
23104W        W96172  22.204   5.975   0.935
23105W        W96173  13.667  13.344   0.698
23106W        W96174  40.432  30.909  13.317
23107W        W96175  15.158  10.868   1.880
23108W        W96176  31.294   4.055   0.397
23109W        W96177  37.108  44.012  14.754
23110W        W96178  16.786   4.083  10.516
23111W        W96179  18.613  38.137  11.935
23112W        W96180  36.572  15.776  10.489
23113W        W96181   9.131  20.735  14.081
23114W        W96182  32.399   0.358   0.208
23115W        W96183  13.822   7.391  12.202
23116W        W96184  16.184  17.602  12.167
23117W        W96185  12.027  24.590  11.292
23118W        W96186  41.894  21.268  14.249
23119W        W96187  18.119  38.399   0.699
23120W        W96188  29.184  14.134   3.240
23121W        W96189  21.512  32.319   3.728
23122W        W96190   6.282  16.807  13.884
23123W        W96191  43.042  21.490   2.152
23124W        W96192  36.353  11.222  12.128
23125W        W96193  36.756  33.638   1.826
23126W        W96194  44.643  13.368   2.849
23127W        W96195   4.983  34.475   3.821
23128W        W96196   0.325  44.333  14.513
23129W        W96197  21.337   2.798  10.985
23130W        W96198  10.040  19.776   1.785
23131W        W96199   5.248  29.059   3.421
23132W        W96200  16.084  44.463  11.043
23133W        W96201  27.501  15.095  11.570
23134W        W96202   8.884  20.053  12.019
23135W        W96203  16.521  19.031   2.887
23136W        W96204  11.834  10.111   5.031
23137W        W96205  28.024   4.887  12.529
23138W        W96206  25.066  44.266  13.036
23139W        W96207  23.783   7.631  12.930
23140W        W96208  22.381  17.817   4.441
23141W        W96209  12.595  40.114  12.573
23142W        W96210  38.705  35.003   2.361
23143W        W96211   9.152  42.106   2.811
23144W        W96212  33.134  25.838   4.582
23145W        W96213   4.978  21.062   0.530
23146W        W96214  36.255  34.992   5.743
23147W        W96215  33.852  40.499  13.536
23148W        W96216  11.134  12.784   2.793
23149W        W96217  34.647  39.182   2.886
23150W        W96218  41.586  34.906   2.699
23151W        W96219  22.267  14.333  13.139
23152W        W96220  39.429   4.303   2.437
23153W        W96221   4.190  12.474   0.945
23154W        W96222  23.055  31.468  10.691
23155W        W96223  25.052  16.063  11.984
23156W        W96224   5.619   1.325  11.546
23157W        W96225  24.229  28.209  14.435
23158W        W96226  19.104  25.058   4.162
23159W        W96227  30.031  26.362   0.930
23160W        W96228  43.345  30.431  13.442
23161W        W96229   5.721  21.400  14.034
23162W        W96230  30.585  27.041  12.821
23163W        W96231  40.167  41.540  11.717
23164W        W96232  32.970  20.449   4.243
23165W        W96233  31.383  26.403   4.335
23166W        W96234  30.875   7.258  10.392
23167W        W96235  43.919  42.563   2.250
23168W        W96236   4.529  24.325   0.831
23169W        W96237  17.319  17.139   0.039
23170W        W96238  44.403  11.099  14.880
23171W        W96239  27.152  43.782   2.424
23172W        W96240   3.313  32.738   2.626
23173W        W96241   3.572  14.730  13.281
23174W        W96242  44.512  28.525   2.313
23175W        W96243  44.326  17.053  11.556
23176W        W96244  24.014  29.124   2.850
23177W        W96245  29.142  28.646   0.460
23178W        W96246  23.085   3.579  13.442
23179W        W96247  35.984  11.421   1.764
23180W        W96248   5.437  40.604  12.889
23181W        W96249  41.280   1.192   4.053
23182W        W96250  14.387  23.967   2.299
23183W        W96251  40.600  42.689   4.140
23184W        W96252   8.889   4.712  12.305
23185W        W96253  27.603   5.506  14.491
23186W        W96254  43.539  35.033   1.330
23187W        W96255  20.996  40.714  12.454
23188W        W96256  22.840  25.743  12.935
23189W        W96257  36.046  32.552  10.579
23190W        W96258   2.937  17.216   0.834
23191W        W96259   1.880  44.743   1.873
23192W        W96260  24.046  30.902   0.754
23193W        W96261   9.903  17.713  12.045
23194W        W96262  34.432  35.273  11.832
23195W        W96263  33.752  31.208  13.973
23196W        W96264  25.251   2.223  12.862
23197W        W96265  37.635  23.802   2.744
23198W        W96266   3.795  44.426   3.876
23199W        W96267  19.438  33.627  12.507
23200W        W96268  17.600  12.213   1.234
23201W        W96269  44.844  12.399  12.996
23202W        W96270  40.505  34.535  13.683
23203W        W96271   4.315  17.148   0.827
23204W        W96272  15.705  37.002  12.600
23205W        W96273  13.811   9.454   5.029
23206W        W96274  36.169  31.093   3.830
23207W        W96275  12.181   2.689   4.335
23208W        W96276  41.458  21.534  14.880
23209W        W96277  34.748  40.625  10.988
23210W        W96278  11.940  16.657  11.950
23211W        W96279   3.362   8.925  10.734
23212W        W96280  44.012  21.756  11.485
23213W        W96281  22.631  36.811   2.937
23214W        W96282  20.738  41.298  11.444
23215W        W96283  29.879   2.719  12.389
23216W        W96284  25.227   5.371  12.458
23217W        W96285  28.795   1.003   3.163
23218W        W96286  25.173  26.512  14.884
23219W        W96287  22.648   0.772   2.224
23220W        W96288  20.816  13.517  12.940
23221W        W96289  14.750  12.843   4.601
23222W        W96290  22.829  16.621   5.111
23223W        W96291   0.921  31.384   0.590
23224W        W96292  15.501  32.152  12.896
23225W        W96293  10.294  37.532   0.154
23226W        W96294  19.752  37.431  13.101
23227W        W96295   9.307   1.033  10.782
23228W        W96296  26.043   2.101  11.424
23229W        W96297  29.226  22.250   1.220
23230W        W96298   1.705   0.768  10.588
23231W        W96299  10.264   2.227   4.709
23232W        W96300  12.641  43.927   1.449
23233W        W96301  43.039  41.451   3.201
23234W        W96302   6.924  22.983   4.691
23235W        W96303  34.516   0.920   3.169
23236W        W96304  42.474   7.251  10.450
23237W        W96305   9.565  30.404   4.629
23238W        W96306  20.764   9.637  12.891
23239W        W96307   2.251  22.272   1.173
23240W        W96308  29.676  41.540   3.461
23241W        W96309  30.118   0.343   1.456
23242W        W96310  42.277  22.620  13.795
23243W        W96311  16.661  17.681  14.616
23244W        W96312  25.986  32.592   2.830
23245W        W96313   8.783  14.830  14.458
23246W        W96314  42.539  16.116   4.587
23247W        W96315  10.796  44.232  12.459
23248W        W96316  17.352   5.081  13.762
23249W        W96317  31.710  29.886   4.611
23250W        W96318  26.371  23.706   4.660
23251W        W96319  35.813  20.999   5.320
23252W        W96320  24.615  38.899   0.320
23253W        W96321  34.907   5.139  11.397
23254W        W96322  37.461   6.255   3.804
23255W        W96323  18.917  44.788  13.533
23256W        W96324  26.911  34.030   1.644
23257W        W96325  39.520  23.611   4.580
23258W        W96326  41.910  17.635   5.017
23259W        W96327  29.560   5.755  10.740
23260W        W96328  27.677  10.480   4.184
23261W        W96329  17.656  15.822   3.250
23262W        W96330   3.683  15.106   4.596
23263W        W96331  29.688  23.263   0.136
23264W        W96332  22.227   5.683  12.023
23265W        W96333   5.795  23.090   0.379
23266W        W96334   1.531  17.828   1.894
23267W        W96335   1.650  14.144   1.202
23268W        W96336  15.539  22.896  11.957
23269W        W96337  30.824  19.210   3.369
23270W        W96338  39.344  12.858  12.865
23271W        W96339  44.967  11.368   4.528
23272W        W96340  22.728  34.633  12.884
23273W        W96341  15.731  24.702  10.603
23274W        W96342  43.975   7.365  13.897
23275W        W96343  40.242  16.205   3.258
23276W        W96344  12.375  21.098  11.554
23277W        W96345  41.462   2.623  14.081
23278W        W96346  39.082  34.365  10.683
23279W        W96347  28.448  14.025  11.513
23280W        W96348  29.031   7.955  13.425
23281W        W96349  35.361   9.242  13.756
23282W        W96350  11.395  22.698  11.098
23283W        W96351  23.683  20.101   1.785
23284W        W96352   6.267  36.842   0.260
23285W        W96353  16.345  35.675   0.489
23286W        W96354   9.624  44.380   3.765
23287W        W96355  18.791  27.783  11.952
23288W        W96356   8.327  16.281  13.304
23289W        W96357  21.551  42.567  11.467
23290W        W96358  38.100   1.556  13.324
23291W        W96359  29.163  18.939   2.776
23292W        W96360  19.840  24.243  11.548
23293W        W96361  14.610  34.249   3.206
23294W        W96362   9.811  12.241  13.297
23295W        W96363   7.892  42.014   1.675
23296W        W96364  23.203   7.778   2.751
23297W        W96365  36.913   3.590  10.769
23298W        W96366  23.008  33.701   0.781
23299W        W96367  26.065  17.919  13.806
23300W        W96368   8.844  25.201  11.424
23301W        W96369  12.737  40.530   3.267
23302W        W96370  23.320  32.958   1.936
23303W        W96371  21.775  26.486   2.637
23304W        W96372  41.410  22.827  12.405
23305W        W96373  26.974  38.642  11.106
23306W        W96374   2.930  35.102   1.140
23307W        W96375  15.737  23.116   0.224
23308W        W96376  20.815  26.048  11.212
23309W        W96377  20.229   2.465  13.863
23310W        W96378  15.072  38.170   0.838
23311W        W96379  41.869  42.981  12.952
23312W        W96380  38.563  11.348  13.458
23313W        W96381  20.270  36.064  10.645
23314W        W96382  28.200  20.641   4.263
23315W        W96383  16.362  11.811  13.718
23316W        W96384  19.155  28.388   0.775
23317W        W96385   3.523  20.941   3.634
23318W        W96386   7.313  27.575  13.152
23319W        W96387   8.586  15.834  11.027
23320W        W96388  23.471   1.684  11.162
23321W        W96389   0.050  34.988  10.376
23322W        W96390  37.057  23.294  11.925
23323W        W96391  10.883  41.858  13.487
23324W        W96392   4.184  15.618  11.858
23325W        W96393  43.003  29.168   2.901
23326W        W96394  20.018  38.526   1.279
23327W        W96395  33.389  18.581   4.078
23328W        W96396   1.476  26.201   2.867
23329W        W96397  26.462  24.985  11.327
23330W        W96398  29.530  29.941   2.465
23331W        W96399  23.626  34.746  11.553
23332W        W96400  38.855  26.604  12.852
23333W        W96401   7.420  17.341  12.863
23334W        W96402  14.023  15.215  12.565
23335W        W96403  44.102  33.008   0.961
23336W        W96404   5.358   5.675   4.941
23337W        W96405  31.424   7.994   4.061
23338W        W96406  13.213  44.355   0.049
23339W        W96407  32.180  38.857   0.426
23340W        W96408  23.382  26.378  12.857
23341W        W96409  34.161  21.728   0.477
23342W        W96410  12.625  20.029  13.237
23343W        W96411  30.943  26.576   1.308
23344W        W96412   4.257  23.097   4.960
23345W        W96413  22.652  15.116  10.556
23346W        W96414  36.358  11.705  14.472
23347W        W96415   4.530  35.583   0.730
23348W        W96416  27.167  26.670  10.987
23349W        W96417   4.421   7.011   0.313
23350W        W96418  21.208   0.948  12.871
23351W        W96419  39.569   5.435  12.434
23352W        W96420  44.385  13.647  13.026
23353W        W96421  42.153  36.501  12.636
23354W        W96422  27.546   3.938   4.801
23355W        W96423  14.337  22.220  13.738
23356W        W96424  42.398   4.361  14.502
23357W        W96425  27.208  21.288  11.118
23358W        W96426  41.832   2.880   1.332
23359W        W96427  29.675   1.245  12.440
23360W        W96428  41.038  13.161  12.484
23361W        W96429   8.938  10.971   3.211
23362W        W96430   3.634  22.191   3.202
23363W        W96431  21.181  44.904   1.007
23364W        W96432  30.071  10.155  10.742
23365W        W96433  12.150   3.921  13.555
23366W        W96434   3.024   4.229   3.685
23367W        W96435   3.882  23.262  14.946
23368W        W96436  17.763  37.563   4.587
23369W        W96437  16.317  17.332   1.561
23370W        W96438   2.404  30.356   3.269
23371W        W96439   5.668   1.947   2.776
23372W        W96440  32.600  27.281  14.479
23373W        W96441  16.550  18.027  13.864
23374W        W96442  41.967  13.766   1.479
23375W        W96443  18.771  26.493   0.798
23376W        W96444  18.150  41.240   0.536
23377W        W96445  39.327   0.658  12.555
23378W        W96446  12.188   0.377   1.112
23379W        W96447  33.856  40.807   1.419
23380W        W96448  37.463  43.562  12.651
23381W        W96449   9.792  27.057   3.354
23382W        W96450  38.422  15.660   0.967
23383W        W96451  24.050  12.769  12.493
23384W        W96452  40.209   1.968  10.244
23385W        W96453  42.347   2.964   4.523
23386W        W96454  30.529  36.334  12.125
23387W        W96455  40.976  32.634  13.491
23388W        W96456  44.451  17.067  12.451
23389W        W96457  30.630  28.995  13.839
23390W        W96458   0.083  19.830  11.984
23391W        W96459  36.959  36.906   2.658
23392W        W96460  26.000  26.671   3.054
23393W        W96461   4.957  15.027   1.785
23394W        W96462   8.286  38.355  14.994
23395W        W96463  21.999  14.640   0.752
23396W        W96464   2.176  14.857   2.378
23397W        W96465  28.212  40.988  13.438
23398W        W96466  27.168  23.825   1.693
23399W        W96467  13.686  40.058   1.919
23400W        W96468   9.348  41.247  11.628
23401W        W96469  41.498  20.683   2.994
23402W        W96470  40.498  29.569  14.411
23403W        W96471  14.702  30.460   1.938
23404W        W96472  29.475  31.878   3.183
23405W        W96473  13.820  34.329  10.592
23406W        W96474  26.963  19.548   2.828
23407W        W96475  37.816  41.847   2.723
23408W        W96476   8.203   2.110   0.826
23409W        W96477  31.475  12.727   2.161
23410W        W96478  36.571   2.201   0.888
23411W        W96479   1.708  40.889  12.702
23412W        W96480  34.787  38.382  14.455
23413W        W96481  44.527  39.899  10.680
23414W        W96482  31.453  12.361   3.557
23415W        W96483  10.100  16.196   1.224
23416W        W96484  18.029  44.908   0.934
23417W        W96485  32.410  27.462  13.890
23418W        W96486  15.697   1.280   4.623
23419W        W96487  22.624  20.870  10.436
23420W        W96488  38.943   1.303  13.817
23421W        W96489   7.873  23.123   1.297
23422W        W96490   3.514  40.415  12.742
23423W        W96491  37.674  12.353   4.231
23424W        W96492  18.131  20.578   4.412
23425W        W96493  21.188   2.842  13.690
23426W        W96494  41.540  11.155  12.455
23427W        W96495  11.677   4.496  11.478
23428W        W96496  37.402  27.947   0.890
23429W        W96497  39.368   4.820  14.220
23430W        W96498  23.666  31.500  10.695
23431W        W96499  38.031  22.434   3.543
23432W        W96500  10.962  43.733   3.998
23433W        W96501  24.290  33.228  13.475
23434W        W96502  33.626  11.789   0.475
23435W        W96503  14.509   2.283  13.384
23436W        W96504  37.512  28.737   2.757
23437W        W96505  35.063   1.017  13.853
23438W        W96506  18.052  35.566   3.597
23439W        W96507  11.413  11.351   4.184
23440W        W96508  43.329  23.149   0.344
23441W        W96509  14.178  38.553  11.370
23442W        W96510  42.506  43.151  11.706
23443W        W96511  25.224   0.339   3.188
23444W        W96512  14.685  10.172  10.739
23445W        W96513   4.820  22.840  11.478
23446W        W96514   2.242  27.667   1.379
23447W        W96515  20.085  40.759   2.261
23448W        W96516  21.630  20.952   3.956
23449W        W96517  19.756  13.278  13.928
23450W        W96518   9.613   7.165   2.154
23451W        W96519  40.344  14.347   0.088
23452W        W96520  18.208  21.108  11.963
23453W        W96521  27.923  39.599   4.625
23454W        W96522  19.595  43.237   1.297
23455W        W96523  26.643  10.585   4.923
23456W        W96524  28.198  39.396  11.474
23457W        W96525  29.524   2.699   3.064
23458W        W96526  20.057  16.288  14.432
23459W        W96527  26.951  39.865  12.441
23460W        W96528  21.277   2.809  12.331
23461W        W96529  10.741  21.954  13.732
23462W        W96530  32.866  26.614  10.401
23463W        W96531   2.052  34.530  13.469
23464W        W96532  38.761  29.433   0.012
23465W        W96533  19.195  29.852  12.898
23466W        W96534  21.416  15.265  14.585
23467W        W96535  10.671  14.746  13.507
23468W        W96536   8.240  15.136  10.753
23469W        W96537  24.102  14.583  14.504
23470W        W96538  38.983  21.496   0.695
23471W        W96539   2.171   9.849  10.585
23472W        W96540   7.849  22.080  13.911
23473W        W96541  40.959  18.247   2.135
23474W        W96542  28.374  27.481  11.620
23475W        W96543  35.946  42.981   1.831
23476W        W96544  42.042  32.115   2.759
23477W        W96545  15.051   8.365   1.749
23478W        W96546  22.526  31.831  14.371
23479W        W96547  42.898  38.056   4.172
23480W        W96548  28.547  17.369   4.178
23481W        W96549  26.986  43.703  12.603
23482W        W96550  10.177  40.251   1.310
23483W        W96551  32.332  24.106   1.278
23484W        W96552  44.719   5.817  10.431
23485W        W96553  42.437  31.552  14.358
23486W        W96554  20.255  26.109  13.868
23487W        W96555  40.916  10.571   4.430
23488W        W96556  13.892   4.760  12.497
23489W        W96557  30.497  20.167   1.722
23490W        W96558  13.707   5.265  14.465
23491W        W96559  39.932  13.314   3.077
23492W        W96560  24.060  19.768   2.823
23493W        W96561  31.982  18.769   2.775
23494W        W96562  32.335  10.665  12.556
23495W        W96563   6.259  45.000   3.285
23496W        W96564  24.310  22.019   1.857
23497W        W96565  33.086  16.308  10.982
23498W        W96566  15.647  28.169  10.644
23499W        W96567  28.984  23.031  11.602
23500W        W96568   2.298  28.895   3.264
23501W        W96569  21.579  32.008  12.938
23502W        W96570  35.556  14.549   1.934
23503W        W96571  18.570  20.008  13.211
23504W        W96572  33.063  32.177   1.583
23505W        W96573  37.923  12.113  11.514
23506W        W96574   1.382   2.902  10.794
23507W        W96575  42.414  16.778   0.131
23508W        W96576  23.579  22.928  14.015
23509W        W96577   2.637  26.723   1.433
23510W        W96578  26.286  18.802  13.864
23511W        W96579  42.332  42.971  11.233
23512W        W96580  22.286  16.179   2.603
23513W        W96581  19.541  26.831   2.209
23514W        W96582   1.682  30.093   4.503
23515W        W96583  17.130  20.663  12.585
23516W        W96584  19.983  13.840   5.127
23517W        W96585  18.749   9.916  10.451
23518W        W96586  43.498  39.343   3.101
23519W        W96587  11.936   4.479   2.102
23520W        W96588  31.458   5.988  13.042
23521W        W96589  44.283   5.697   1.396
23522W        W96590   4.857  30.395  11.994
23523W        W96591  41.657   8.921   0.786
23524W        W96592  32.518   1.297   0.352
23525W        W96593  12.722   1.464  14.859
23526W        W96594  37.068  16.156  12.910
23527W        W96595   9.518  32.015   3.013
23528W        W96596  42.992  25.953  11.605
23529W        W96597  25.157  33.356  13.638
23530W        W96598  34.709  10.317  13.460
23531W        W96599  12.105  19.727  13.817
23532W        W96600  11.422  24.101   4.183
23533W        W96601  41.855   1.778  11.198
23534W        W96602  21.335  38.970  10.689
23535W        W96603  29.001  15.239  14.367
23536W        W96604   8.240  18.633  12.442
23537W        W96605  21.199  23.833   2.840
23538W        W96606  12.809  17.654   2.298
23539W        W96607  30.358  32.597  13.929
23540W        W96608  38.609  20.488   4.360
23541W        W96609  20.293   1.733   2.764
23542W        W96610  25.620  12.347  11.700
23543W        W96611   7.780  42.800  10.107
23544W        W96612  24.505  31.593  13.346
23545W        W96613  35.064  42.599   3.236
23546W        W96614  27.290  10.055  14.339
23547W        W96615  26.492   9.242   4.196
23548W        W96616  37.485  10.853  11.497
23549W        W96617   7.359   6.919   1.135
23550W        W96618  10.394  36.219  10.205
23551W        W96619  31.306  42.017   2.768
23552W        W96620  36.361  37.988   2.862
23553W        W96621  15.044  23.159   3.697
23554W        W96622   7.444  14.746   1.267
23555W        W96623  43.938  42.515   4.678
23556W        W96624  15.444  28.585   3.317
23557W        W96625  39.353  40.501   0.346
23558W        W96626  37.774  38.851   3.125
23559W        W96627   4.089   1.399  13.094
23560W        W96628  30.025  12.257  11.142
23561W        W96629  28.871  26.104   0.433
23562W        W96630  32.601  17.245  13.045
23563W        W96631  37.504  31.666  10.864
23564W        W96632   1.449  18.433  12.684
23565W        W96633  36.539  43.248   4.089
23566W        W96634  15.059  43.904   2.717
23567W        W96635  21.119   8.803   4.783
23568W        W96636  13.292  32.103   0.706
23569W        W96637   7.650  41.748   4.948
23570W        W96638  25.550  27.034   4.371
23571W        W96639  32.149   2.782   4.052
23572W        W96640  23.771   4.829  12.975
23573W        W96641   0.876  37.747  11.639
23574W        W96642  44.873  10.298   3.201
23575W        W96643   0.654  28.102  10.435
23576W        W96644  32.868  43.754   4.145
23577W        W96645  22.034  29.930  11.126
23578W        W96646  19.974  30.410  12.889
23579W        W96647   3.324  38.822   3.140
23580W        W96648   5.348   3.102   2.285
23581W        W96649  22.989  42.338  14.037
23582W        W96650  12.351  39.328   2.346
23583W        W96651  13.809  14.079  11.651
23584W        W96652  20.349   6.060  11.084
23585W        W96653  18.366  15.067  12.738
23586W        W96654   8.855   3.923  14.777
23587W        W96655  34.454   2.192   4.972
23588W        W96656  20.646  28.184  11.026
23589W        W96657  18.344  41.611  11.631
23590W        W96658   2.886  44.787   1.292
23591W        W96659  23.574  36.532   1.373
23592W        W96660  18.379  17.259   3.105
23593W        W96661   9.946  33.116  13.055
23594W        W96662  30.386   0.157   0.889
23595W        W96663   5.013  33.039   0.412
23596W        W96664  40.589  41.901   2.812
23597W        W96665  23.951  14.371   4.142
23598W        W96666  43.182   7.710  13.644
23599W        W96667   5.978  33.505   2.343
23600W        W96668   3.253  42.385   1.217
23601W        W96669   3.847  13.055   3.221
23602W        W96670  32.517  13.194   4.273
23603W        W96671   4.784  41.265  13.276
23604W        W96672  42.300   6.307   4.640
23605W        W96673  33.427  16.837  12.594
23606W        W96674  27.529  33.206  11.744
23607W        W96675   5.292  28.120  10.199
23608W        W96676  26.089  20.675   4.420
23609W        W96677  17.810  21.765   4.140
23610W        W96678  43.735  27.940   4.362
23611W        W96679  35.035  35.944  13.426
23612W        W96680  32.305   8.440   4.226
23613W        W96681  18.127  28.609   4.257
23614W        W96682  41.848  37.369   0.854
23615W        W96683  37.787  30.897   2.686
23616W        W96684   9.692  10.183   3.927
23617W        W96685  11.823   7.717   4.885
23618W        W96686   3.529  25.776  11.355
23619W        W96687   4.853   4.660   1.859
23620W        W96688  40.542  35.879  10.275
23621W        W96689  19.066  29.053  10.632
23622W        W96690  23.570  19.279  10.682
23623W        W96691   8.781  32.027  12.326
23624W        W96692  17.533  33.879   1.411
23625W        W96693  10.485  21.872  11.999
23626W        W96694   3.463   6.479  11.888
23627W        W96695  37.059  32.183   1.476
23628W        W96696   1.332  21.627  12.866
23629W        W96697  12.051  11.148  11.968
23630W        W96698  43.481   0.335   2.130
23631W        W96699  42.945  32.129   3.158
23632W        W96700  38.223   2.997  11.955
23633W        W96701  23.561  43.559  10.727
23634W        W96702   3.879  39.063   1.671
23635W        W96703  25.015   6.625   0.404
23636W        W96704   1.299   1.759  14.955
23637W        W96705   5.315  24.516   2.261
23638W        W96706  21.275   1.902  14.389
23639W        W96707   6.951  27.643  13.518
23640W        W96708   4.623   5.220  10.292
23641W        W96709  18.932  21.632   1.794
23642W        W96710  35.790   7.838  14.361
23643W        W96711  42.122   7.996  14.938
23644W        W96712  35.017  10.720   1.227
23645W        W96713  27.743  38.185   3.800
23646W        W96714   1.066  38.005   2.370
23647W        W96715  19.025   8.977   0.667
23648W        W96716  13.535  29.409   0.684
23649W        W96717  43.333  34.641   1.029
23650W        W96718  12.834  41.729   0.402
23651W        W96719  38.953  12.126   0.427
23652W        W96720  21.762   7.299   4.102
23653W        W96721  31.248  35.139  10.416
23654W        W96722  32.024  13.880   2.186
23655W        W96723   6.327  33.559   0.796
23656W        W96724  31.974  22.714  12.576
23657W        W96725  30.941  42.524   0.271
23658W        W96726   8.475   4.477   0.390
23659W        W96727  34.344  27.650  11.167
23660W        W96728   0.420  23.990   4.149
23661W        W96729  19.056   2.986   3.886
23662W        W96730  36.867  21.544  12.333
23663W        W96731  29.125   9.170   1.788
23664W        W96732   6.664  43.591   3.247
23665W        W96733  33.646   6.669  12.867
23666W        W96734  34.831  44.234  11.093
23667W        W96735  17.617  38.444   0.455
23668W        W96736  17.555  11.587   3.297
23669W        W96737   4.140  21.906  14.291
23670W        W96738   3.285  31.117   3.289
23671W        W96739  14.285   3.396  14.974
23672W        W96740  42.724  44.654  10.954
23673W        W96741  16.827  25.202   3.799
23674W        W96742  31.175  29.015  13.836
23675W        W96743  31.019  41.330   0.047
23676W        W96744  17.628  26.156  13.008
23677W        W96745  40.286  41.269   0.948
23678W        W96746  24.696  24.569   4.486
23679W        W96747  44.245  22.142  11.238
23680W        W96748   2.768  16.576   3.086
23681W        W96749  10.120  21.224   0.940
23682W        W96750   1.351   5.764   3.704
23683W        W96751   3.787  25.331   2.757
23684W        W96752  32.919   8.867   4.115
23685W        W96753  25.996  11.258  10.183
23686W        W96754  44.077   2.418  12.982
23687W        W96755  35.082   9.917   4.070
23688W        W96756  38.321  42.305  13.475
23689W        W96757   1.825   5.912   3.583
23690W        W96758  35.994  11.906   1.928
23691W        W96759  21.072   1.943   2.306
23692W        W96760  27.658  22.445   3.227
23693W        W96761   9.302  11.550  13.668
23694W        W96762  27.922  43.111  11.215
23695W        W96763  38.645  34.553  12.376
23696W        W96764  23.077  13.743  10.610
23697W        W96765  40.355  11.615  12.812
23698W        W96766  15.408  13.021   1.322
23699W        W96767  16.576  40.579  11.662
23700W        W96768  13.354  11.148   0.399
23701W        W96769   2.443  38.341   2.993
23702W        W96770   9.624  22.433   0.413
23703W        W96771  40.336  17.735   1.105
23704W        W96772  28.394  40.987   2.613
23705W        W96773  11.129  35.484   3.539
23706W        W96774   2.902  16.701   0.920
23707W        W96775  37.897  13.154   0.713
23708W        W96776  43.447  34.577   1.556
23709W        W96777  15.929   6.631  10.600
23710W        W96778  11.611  16.139   3.715
23711W        W96779  19.755  22.060   4.064
23712W        W96780   7.382  18.610  14.711
23713W        W96781  39.035  41.035  12.526
23714W        W96782   7.248  20.691   1.323
23715W        W96783  11.318  41.546   1.476
23716W        W96784  27.089   7.465   4.096
23717W        W96785  33.163  30.513  12.135
23718W        W96786   2.466   0.626  12.973
23719W        W96787   0.999  34.544   3.827
23720W        W96788   8.198   1.875   1.758
23721W        W96789  37.380  27.632  14.764
23722W        W96790   3.456  30.453   3.736
23723W        W96791  18.756  13.925  11.603
23724W        W96792  17.037  43.437  14.884
23725W        W96793  25.138   1.713  13.753
23726W        W96794  20.981  33.467   0.933
23727W        W96795  29.608   1.955  10.805
23728W        W96796  14.580  14.832  11.976
23729W        W96797   9.231   2.451   3.448
23730W        W96798  24.688  25.926   1.737
23731W        W96799   2.324  41.438  12.260
23732W        W96800   3.667  29.029   1.946
23733W        W96801  36.034   2.255   4.739
23734W        W96802  25.196  38.776  11.400
23735W        W96803   4.576  29.085  10.547
23736W        W96804  19.771  21.057   0.357
23737W        W96805  39.282  29.242   2.887
23738W        W96806  17.852   2.840  11.830
23739W        W96807   9.868  43.838   0.114
23740W        W96808  30.331  12.675  14.263
23741W        W96809   9.271  13.302  13.424
23742W        W96810  18.073  32.467   2.314
23743W        W96811  10.268  19.575  14.785
23744W        W96812  40.554   1.878   5.103
23745W        W96813  37.091   0.288  13.206
23746W        W96814  23.272  41.830  12.969
23747W        W96815  24.204  22.590   2.521
23748W        W96816  14.542  38.996   4.662
23749W        W96817  15.176   5.426  10.649
23750W        W96818  13.732  35.578  13.868
23751W        W96819   1.814  11.715  13.915
23752W        W96820  24.638  10.368   3.237
23753W        W96821   5.478  28.220   2.342
23754W        W96822  30.646  24.510   2.257
23755W        W96823  29.801  42.780   5.196
23756W        W96824   3.298  20.423   1.257
23757W        W96825  32.306  38.313  13.311
23758W        W96826  20.036  28.194  14.717
23759W        W96827  30.128  28.653  13.425
23760W        W96828   8.456  24.475  13.790
23761W        W96829  21.213  21.686  14.193
23762W        W96830  31.996  30.673   4.178
23763W        W96831  41.967  31.621   1.858
23764W        W96832  36.482   1.706  11.777
23765W        W96833  12.707  41.415  12.062
23766W        W96834  30.138   6.561   2.236
23767W        W96835   5.730   0.388  13.400
23768W        W96836  34.841  18.585  12.862
23769W        W96837  43.191  28.897   4.284
23770W        W96838  30.413  16.134  12.445
23771W        W96839  42.046  16.445   0.334
23772W        W96840  15.608  32.341  11.247
23773W        W96841  19.549   3.855  11.534
23774W        W96842  30.616  18.125  11.595
23775W        W96843  30.055  24.352   1.384
23776W        W96844  21.625   2.453   3.727
23777W        W96845  35.612   8.287  11.021
23778W        W96846   7.276  28.631   3.394
23779W        W96847  14.022  19.359   1.010
23780W        W96848  27.659   7.401  13.399
23781W        W96849  29.640  33.142   4.202
23782W        W96850  16.595  36.919   1.779
23783W        W96851  17.540  25.613   2.219
23784W        W96852  31.584   1.417   1.287
23785W        W96853  22.157   0.871   2.843
23786W        W96854  27.555  41.281  10.765
23787W        W96855  18.761  40.314  11.251
23788W        W96856  31.587  10.908   3.674
23789W        W96857  13.843   3.163  12.487
23790W        W96858  18.557  30.343   3.240
23791W        W96859  10.145   9.384   2.913
23792W        W96860  21.738   5.435   4.058
23793W        W96861  38.914  31.281   1.946
23794W        W96862  44.347  19.799   1.577
23795W        W96863  18.667  29.209   0.874
23796W        W96864  44.948  31.495   0.835
23797W        W96865  31.174   6.607   1.482
23798W        W96866  25.152  41.424   2.613
23799W        W96867   6.362  31.781  11.971
23800W        W96868  42.417  36.257  12.999
23801W        W96869  19.283  40.102  11.448
23802W        W96870  44.436  43.476   0.333
23803W        W96871  13.169  40.157  10.222
23804W        W96872   6.448  27.609  14.505
23805W        W96873   4.954  16.180  12.623
23806W        W96874  42.548  25.096   4.134
23807W        W96875  42.174  16.210  11.666
23808W        W96876  26.078  30.006   2.806
23809W        W96877   5.998  19.583  11.584
23810W        W96878  34.909  16.685  12.876
23811W        W96879  17.784   4.879  11.787
23812W        W96880  24.817  33.759   3.259
23813W        W96881   5.311   7.755  14.574
23814W        W96882  38.103  17.882  13.081
23815W        W96883  41.548  18.705   1.491
23816W        W96884  20.119  31.634  12.004
23817W        W96885  16.058  17.142   1.982
23818W        W96886  27.152  32.406  11.583
23819W        W96887  22.700  16.817  12.432
23820W        W96888  18.783  22.926  11.229
23821W        W96889  20.624  37.406   2.271
23822W        W96890  13.872  30.134  10.279
23823W        W96891  28.403  44.569  13.916
23824W        W96892  21.016  34.472  11.178
23825W        W96893  14.864  15.995   3.736
23826W        W96894  30.973  22.430  11.157
23827W        W96895  21.715  39.400   3.995
23828W        W96896   4.150  27.935   0.315
23829W        W96897  41.531  31.070  10.468
23830W        W96898  43.307  41.545  13.038
23831W        W96899  39.618  33.265  14.016
23832W        W96900   2.984  27.451   3.045
23833W        W96901  33.450  19.689   4.177
23834W        W96902  43.211  37.415  12.427
23835W        W96903   2.527  20.356  12.539
23836W        W96904  13.114  29.977   1.378
23837W        W96905   4.463  18.428   1.844
23838W        W96906  17.192  18.599   1.402
23839W        W96907  43.996  39.263   4.542
23840W        W96908  37.405  17.607  14.764
23841W        W96909  36.138  28.748   4.317
23842W        W96910  41.760  34.572   4.670
23843W        W96911  20.538  26.938  11.045
23844W        W96912  18.952  39.008   1.690
23845W        W96913  42.708  41.812  14.940
23846W        W96914  40.425  31.853   0.827
23847W        W96915  39.894  32.494   4.587
23848W        W96916   7.455   7.685  11.131
23849W        W96917   9.044   2.757  14.489
23850W        W96918  18.140  33.452   4.267
23851W        W96919  30.632  30.508   2.297
23852W        W96920  10.370  33.935  14.405
23853W        W96921  17.229  35.303  14.821
23854W        W96922  14.761  20.780   1.851
23855W        W96923  10.364   5.348  11.211
23856W        W96924  29.450  11.653   0.976
23857W        W96925  20.781  41.493  13.405
23858W        W96926  39.345  12.314   1.763
23859W        W96927  42.479   3.222  11.461
23860W        W96928  13.845  36.051   4.419
23861W        W96929  43.544  14.796   3.035
23862W        W96930  42.516  40.349   1.289
23863W        W96931  25.979  32.953   0.897
23864W        W96932  24.984  39.484  14.945
23865W        W96933  26.631  11.612   1.935
23866W        W96934  18.686   6.561  11.961
23867W        W96935   4.099  15.179   3.679
23868W        W96936   7.712  18.859   3.720
23869W        W96937  30.254  30.149  12.726
23870W        W96938  31.227  19.703   0.877
23871W        W96939  18.084  33.652  12.170
23872W        W96940  33.530  37.981   4.830
23873W        W96941  22.522  22.640  12.441
23874W        W96942  39.004   8.276   2.029
23875W        W96943  14.537   5.731  14.779
23876W        W96944  39.025  37.415   3.638
23877W        W96945   8.405  11.722   2.303
23878W        W96946   7.380  20.044  11.645
23879W        W96947   6.254  20.308  14.046
23880W        W96948  13.868  35.345  11.647
23881W        W96949  13.324  31.879   1.223
23882W        W96950  42.087  32.909  12.559
23883W        W96951  36.601  17.632  11.652
23884W        W96952  23.669  27.680  12.552
23885W        W96953  38.104  16.728  11.550
23886W        W96954   5.977  37.099   3.871
23887W        W96955  25.082   0.621  12.839
23888W        W96956   5.210  28.108   1.316
23889W        W96957  36.541   2.261  14.956
23890W        W96958  29.680  17.499   1.782
23891W        W96959   4.012  37.120   0.793
23892W        W96960  43.922   5.149   4.036
23893W        W96961   6.241  29.460   2.231
23894W        W96962   7.173  20.121  13.113
23895W        W96963   0.787  41.401  12.875
23896W        W96964  33.656   8.666  13.550
23897W        W96965  18.678  39.599  13.870
23898W        W96966  33.157  40.754   0.054
23899W        W96967   1.937  14.882   0.921
23900W        W96968  11.186   6.161  10.810
23901W        W96969  42.465   0.688   4.996
23902W        W96970  13.804  11.085  10.695
23903W        W96971   1.918  31.919  13.807
23904W        W96972  31.548  29.039   4.527
23905W        W96973  23.162   2.873  11.449
23906W        W96974  21.303  33.023   3.748
23907W        W96975  28.655  25.146  13.071
23908W        W96976  42.610  13.359   1.918
23909W        W96977   4.249  33.573  14.385
23910W        W96978  44.443  23.421  12.121
23911W        W96979  17.099   9.689  12.105
23912W        W96980   7.377   8.795  14.410
23913W        W96981  35.888  42.028   5.092
23914W        W96982  28.110  44.526   3.687
23915W        W96983  31.949  43.016  14.380
23916W        W96984  37.974  17.010  13.915
23917W        W96985  30.996   9.819   2.560
23918W        W96986  40.320  29.140  12.171
23919W        W96987  18.426  29.678   0.856
23920W        W96988  29.557  37.319   1.912
23921W        W96989  25.701   3.260  11.594
23922W        W96990  28.704  35.789   0.901
23923W        W96991  33.965  10.096   4.513
23924W        W96992   3.761  15.860  12.074
23925W        W96993  13.894  40.944  12.556
23926W        W96994  26.094  43.714   4.214
23927W        W96995  16.337  29.920  10.573
23928W        W96996  40.702  43.424  14.320
23929W        W96997  27.201  17.178   1.465
23930W        W96998  25.059  27.614  10.990
23931W        W96999  24.924  29.884   1.872
23932W        W97000  22.696   9.095  11.110
23933W        W97001  20.395   7.312  12.862
23934W        W97002  10.884  43.345  13.355
23935W        W97003  22.444  23.328   3.574
23936W        W97004  35.552  14.094  14.443
23937W        W97005   0.417  43.102  12.855
23938W        W97006  27.273  29.145  14.319
23939W        W97007  22.430   6.359   0.188
23940W        W97008   6.591  29.930   2.711
23941W        W97009  26.887  38.151  11.145
23942W        W97010   8.224  35.968   3.016
23943W        W97011  24.308  31.994   1.328
23944W        W97012   8.701  41.773  11.978
23945W        W97013   2.164  12.261  13.441
23946W        W97014  43.084  40.257   1.900
23947W        W97015  42.107  16.713   3.161
23948W        W97016  13.176  44.028   3.994
23949W        W97017  33.851  18.897   0.399
23950W        W97018  13.754  23.644  10.418
23951W        W97019   3.436  41.150   3.404
23952W        W97020  21.456  15.793   3.012
23953W        W97021  30.985   3.630  12.113
23954W        W97022  13.700  32.458  13.425
23955W        W97023  26.226  40.349   0.301
23956W        W97024   7.740  20.487  13.465
23957W        W97025  27.317  29.094   2.886
23958W        W97026  11.630  30.143  14.814
23959W        W97027  41.994  27.465   2.876
23960W        W97028   5.730  19.623  12.050
23961W        W97029  37.616  25.018  12.830
23962W        W97030   5.834  13.167   0.381
23963W        W97031  44.999  25.424  10.682
23964W        W97032  17.425  40.456   4.706
23965W        W97033  10.179  36.686  10.008
23966W        W97034  42.172  12.173   2.286
23967W        W97035  31.249  31.851   1.169
23968W        W97036  42.425   9.131   2.327
23969W        W97037  20.046  28.517   2.661
23970W        W97038  34.490  31.965  13.593
23971W        W97039  19.537  11.723  13.262
23972W        W97040   4.808  22.248  13.525
23973W        W97041  34.759  26.513  12.580
23974W        W97042   2.883   4.270   2.758
23975W        W97043  34.487   7.782   4.830
23976W        W97044  35.092   8.742  12.043
23977W        W97045   1.388   1.038   4.668
23978W        W97046  14.711   7.247  10.716
23979W        W97047  16.278  44.778   0.806
23980W        W97048   5.778  32.463   1.979
23981W        W97049  12.811   2.282  12.508
23982W        W97050  38.408  10.666   4.225
23983W        W97051   5.179  44.725  12.483
23984W        W97052  14.841  23.243  11.366
23985W        W97053   2.164   5.748   3.203
23986W        W97054   6.376  20.971   2.297
23987W        W97055   5.673  14.864   1.364
23988W        W97056  22.271  16.135   1.127
23989W        W97057  26.633  33.025   1.434
23990W        W97058  15.419  15.893  12.005
23991W        W97059   3.525  37.580   3.086
23992W        W97060  34.443  26.426  11.613
23993W        W97061  28.704   6.891   0.349
23994W        W97062  24.233  42.377   1.793
23995W        W97063   5.835  17.627  11.187
23996W        W97064  42.410  13.924   1.210
23997W        W97065  11.786   5.801   9.876
23998W        W97066   8.904  22.153   4.875
23999W        W97067  17.695  37.156  13.788
24000W        W97068   5.308   8.246  14.327
24001W        W97069  24.747  30.188   4.159
24002W        W97070   4.747  36.541   3.148
24003W        W97071   2.394   0.544  14.217
24004W        W97072  30.057  33.386   1.983
24005W        W97073  19.176  17.134  13.421
24006W        W97074  12.614  12.749   0.347
24007W        W97075  37.583   9.595   2.016
24008W        W97076  19.684  28.834  13.578
24009W        W97077   6.416   7.156   2.247
24010W        W97078  20.235  25.549  13.400
24011W        W97079  37.444  37.397   2.582
24012W        W97080  40.707  35.528   1.867
24013W        W97081  31.070   6.481  13.377
24014W        W97082  43.497  22.767  14.416
24015W        W97083  12.437  19.580  13.421
24016W        W97084  24.931  18.124   4.478
24017W        W97085  37.822  38.566  12.801
24018W        W97086  18.006  11.330   3.268
24019W        W97087  42.062  34.323  13.000
24020W        W97088  13.720  40.146   3.318
24021W        W97089  23.583  39.209  10.262
24022W        W97090  32.835  38.240   2.418
24023W        W97091  40.608   7.880  11.037
24024W        W97092  42.010   2.747  14.328
24025W        W97093  12.247  20.190  13.572
24026W        W97094  31.900  35.892  13.331
24027W        W97095  32.547  39.033   2.765
24028W        W97096   8.586  42.031   4.172
24029W        W97097  28.650   6.264   2.626
24030W        W97098  15.320  34.050   0.743
24031W        W97099   8.977  40.017  12.551
24032W        W97100  43.276  31.334   3.710
24033W        W97101  41.356   9.645   3.586
24034W        W97102  18.976  44.435  11.526
24035W        W97103   6.420   0.973  11.128
24036W        W97104  32.025  33.050   4.769
24037W        W97105   2.221  12.286   0.344
24038W        W97106  22.784  18.120   4.332
24039W        W97107  25.043  25.926   2.416
24040W        W97108   8.141  25.244  12.965
24041W        W97109   2.257  20.599   2.708
24042W        W97110   5.646  30.136  11.377
24043W        W97111  21.545  13.643   0.268
24044W        W97112  18.238   5.446   1.698
24045W        W97113  21.585  32.175  13.421
24046W        W97114   2.799   3.057   3.992
24047W        W97115   9.168  19.594  13.049
24048W        W97116  32.676  26.129  10.434
24049W        W97117   5.278   9.847  13.300
24050W        W97118  33.654  19.958   3.800
24051W        W97119  11.902  38.323  13.390
24052W        W97120  38.805   4.887   3.576
24053W        W97121   7.751  39.912  12.948
24054W        W97122  40.958  36.758   3.706
24055W        W97123   3.428  34.653   4.431
24056W        W97124  26.036  35.540   0.768
24057W        W97125  40.402   5.852  12.016
24058W        W97126   5.239  33.155   1.275
24059W        W97127  23.654  33.956   4.920
24060W        W97128   5.640  28.937   1.880
24061W        W97129  29.592  30.509   1.284
24062W        W97130  17.558  36.820  11.995
24063W        W97131  44.838   0.633  14.431
24064W        W97132  11.829  13.253   2.232
24065W        W97133  10.202  25.506  11.566
24066W        W97134   6.733  14.867  12.893
24067W        W97135  24.933  41.234  12.629
24068W        W97136  18.784   0.443   3.769
24069W        W97137  14.413  44.963   4.524
24070W        W97138   8.377  14.930   2.174
24071W        W97139  43.915  35.582   0.382
24072W        W97140   7.394   0.681   3.270
24073W        W97141  34.414  25.367  11.738
24074W        W97142  25.601  35.121  12.089
24075W        W97143  16.682   9.603  14.696
24076W        W97144  42.760  21.750   1.818
24077W        W97145  17.597  18.060  10.751
24078W        W97146  26.975  31.562  12.634
24079W        W97147  20.677   6.019  12.890
24080W        W97148   8.105  19.602   5.083
24081W        W97149   2.592  15.705  13.367
24082W        W97150  43.535  13.628   0.718
24083W        W97151  31.457  22.993  12.422
24084W        W97152  24.073  15.583   3.086
24085W        W97153  26.656  31.488   4.320
24086W        W97154  28.739  13.329  13.780
24087W        W97155  33.689   6.667  12.073
24088W        W97156  42.845   1.813   0.391
24089W        W97157   7.329  20.793   3.792
24090W        W97158  31.131   7.854  13.297
24091W        W97159  11.784  18.168  13.510
24092W        W97160  15.144  17.126  10.898
24093W        W97161   1.035  29.539   2.155
24094W        W97162  27.168  10.661   4.166
24095W        W97163   6.359  22.589  13.322
24096W        W97164   7.214  35.957  13.848
24097W        W97165  34.902  37.594  14.195
24098W        W97166   1.778  26.073   4.622
24099W        W97167   0.340  11.387   0.829
24100W        W97168  12.530  19.808  11.166
24101W        W97169  25.665  16.788   2.263
24102W        W97170   9.631   8.419  14.444
24103W        W97171  21.122  39.862   1.126
24104W        W97172  34.524  34.904  10.345
24105W        W97173  23.544  31.233  12.296
24106W        W97174  31.583  38.410  14.899
24107W        W97175   3.114  13.765   0.903
24108W        W97176  40.852   1.466  10.684
24109W        W97177  31.085  17.887  11.051
24110W        W97178  43.891  33.108  12.082
24111W        W97179  44.742  41.824   1.824
24112W        W97180  32.844  28.082   2.632
24113W        W97181  10.774  15.085  10.766
24114W        W97182  44.482  32.831  13.478
24115W        W97183  39.327  32.979   2.209
24116W        W97184  19.745  30.773  13.168
24117W        W97185  24.481   9.318  12.394
24118W        W97186  23.204  12.064  10.744
24119W        W97187  16.952  33.333  13.555
24120W        W97188  25.572   3.770   3.233
24121W        W97189  27.240  28.493  12.017
24122W        W97190  40.324  13.660  12.338
24123W        W97191  25.580   8.221  14.776
24124W        W97192   4.275   2.756   4.743
24125W        W97193   8.524   4.183   1.922
24126W        W97194  40.618  16.203  10.732
24127W        W97195  42.789   4.407   0.994
24128W        W97196  30.202  32.373   2.132
24129W        W97197  20.448  10.617   2.124
24130W        W97198  24.241   5.771  12.972
24131W        W97199  10.419  24.194  11.880
24132W        W97200   0.916   7.395  10.759
24133W        W97201  22.718  20.320   3.664
24134W        W97202   0.276  13.629  12.479
24135W        W97203   4.749   3.149  12.552
24136W        W97204   5.976  15.128   3.061
24137W        W97205  20.613  17.686  10.682
24138W        W97206  30.524  27.960   2.110
24139W        W97207   9.748   3.723  13.623
24140W        W97208  25.203  17.696  13.542
24141W        W97209  27.933  29.671  10.783
24142W        W97210  16.299  18.030   1.761
24143W        W97211  38.418  10.824   2.276
24144W        W97212  22.666  17.486   3.255
24145W        W97213   6.422  25.484   1.280
24146W        W97214  22.106  16.210   3.092
24147W        W97215  27.777  33.930  12.876
24148W        W97216   1.481  18.616  11.734
24149W        W97217  27.128  10.019  11.985
24150W        W97218  13.092   1.302   3.571
24151W        W97219  22.935  12.664  14.450
24152W        W97220  32.024  44.166  14.017
24153W        W97221   0.526  30.128   0.013
24154W        W97222  12.734  21.036   3.246
24155W        W97223   2.898   9.731  11.462
24156W        W97224  41.900  25.726   2.357
24157W        W97225  36.729   3.463  13.042
24158W        W97226  41.515  10.117  11.599
24159W        W97227   5.102  28.540   4.250
24160W        W97228  10.288  26.939   2.540
24161W        W97229   3.433  18.287   4.211
24162W        W97230  22.029   6.916  14.985
24163W        W97231  19.058  13.396   3.001
24164W        W97232   5.417   6.377   3.619
24165W        W97233  16.166  35.458   4.448
24166W        W97234   4.738  26.461   1.289
24167W        W97235  20.322   9.322  11.621
24168W        W97236  42.495  14.730   1.742
24169W        W97237  28.233  34.674   4.160
24170W        W97238  30.623  14.575  11.200
24171W        W97239  11.582  38.655  13.952
24172W        W97240  22.599  44.018   2.691
24173W        W97241  16.141  27.804  14.538
24174W        W97242  34.344  18.189   3.821
24175W        W97243   7.670  26.124   2.793
24176W        W97244  16.570  23.702  14.123
24177W        W97245   1.683  13.860  13.105
24178W        W97246   0.912  36.712   2.102
24179W        W97247   7.136  13.744   3.433
24180W        W97248  10.299  35.121   0.614
24181W        W97249  28.500  15.424  11.751
24182W        W97250  15.544  20.984   0.242
24183W        W97251   7.196  33.634   1.390
24184W        W97252  27.933  44.816  14.937
24185W        W97253   7.869  35.435   4.188
24186W        W97254  32.555   7.918  11.633
24187W        W97255  18.084  18.243  10.658
24188W        W97256  19.203   6.280   0.926
24189W        W97257  22.647  30.719  12.527
24190W        W97258   6.914   0.037  13.527
24191W        W97259  12.200  20.866  11.965
24192W        W97260  16.131   0.237  12.511
24193W        W97261  36.845  31.477  11.099
24194W        W97262   2.102  31.497   4.232
24195W        W97263   2.844   3.799   4.909
24196W        W97264   2.834  13.675  13.949
24197W        W97265  12.326  11.397  12.789
24198W        W97266  38.483  16.390   3.292
24199W        W97267  24.578  42.127   0.399
24200W        W97268  25.223  42.904  14.339
24201W        W97269  18.664  14.661   3.253
24202W        W97270   0.337  39.471   1.012
24203W        W97271  33.904   1.993  13.744
24204W        W97272  28.754  23.674   0.683
24205W        W97273  42.859  38.080   2.313
24206W        W97274  35.066  38.149   1.397
24207W        W97275  21.194  14.559   4.495
24208W        W97276  25.618   9.611  11.727
24209W        W97277  35.959  22.669   3.248
24210W        W97278  30.443  34.800   3.238
24211W        W97279  41.564   2.312  13.143
24212W        W97280  16.148  39.804   3.933
24213W        W97281  34.417  14.372   3.212
24214W        W97282  16.791   1.339  11.902
24215W        W97283  11.680  31.758  13.349
24216W        W97284  35.567  33.532   2.748
24217W        W97285  15.790  12.800  11.526
24218W        W97286  39.259   3.140  12.785
24219W        W97287  16.183   8.436   4.500
24220W        W97288  39.659  30.122   0.424
24221W        W97289  33.366  17.719  10.480
24222W        W97290   1.221  26.953  11.206
24223W        W97291   9.587  40.779   3.603
24224W        W97292  22.723  25.931   4.543
24225W        W97293  32.542  31.896   3.920
24226W        W97294  39.419  12.284   0.881
24227W        W97295  28.401  11.596  11.295
24228W        W97296  40.088   3.932   3.845
24229W        W97297   1.792   8.258  11.497
24230W        W97298  37.023  43.257   0.287
24231W        W97299  10.695  25.297   4.704
24232W        W97300  21.963  33.480  12.463
24233W        W97301  10.110  20.221   0.823
24234W        W97302   0.854  19.753   2.022
24235W        W97303  37.001  22.045   4.194
24236W        W97304  36.597  42.396   4.550
24237W        W97305  31.687  24.469  13.509
24238W        W97306  10.689  27.533   4.266
24239W        W97307   7.751  36.886   3.683
24240W        W97308  39.506  34.539  12.681
24241W        W97309   8.066   1.006  14.482
24242W        W97310  15.282   4.652  13.298
24243W        W97311   6.200  29.407  12.447
24244W        W97312  18.799  18.416  12.025
24245W        W97313  27.621  26.983  14.569
24246W        W97314  31.423  44.662   0.774
24247W        W97315   1.844  39.118  13.661
24248W        W97316  35.870   0.042  12.123
24249W        W97317   8.791  35.453  10.645
24250W        W97318  23.689  20.325   3.359
24251W        W97319  14.889  18.443  12.508
24252W        W97320   5.003  18.116   4.652
24253W        W97321  18.012  23.464   3.716
24254W        W97322  14.341  34.573   2.843
24255W        W97323  21.513  35.966  11.193
24256W        W97324  44.892   1.089  14.703
24257W        W97325  28.175   6.472   2.616
24258W        W97326  41.009  12.380  13.915
24259W        W97327  30.879  41.357  12.161
24260W        W97328   6.200  40.264  13.521
24261W        W97329   0.973  38.826  10.768
24262W        W97330  36.615  33.433   4.236
24263W        W97331  24.762  31.932  13.932
24264W        W97332  25.589   3.791  13.364
24265W        W97333  44.164  33.073  11.642
24266W        W97334  26.160  33.606   0.371
24267W        W97335  43.658   2.408   1.426
24268W        W97336  13.001   4.641   4.222
24269W        W97337   7.567  41.096   0.606
24270W        W97338  39.529  31.590   3.410
24271W        W97339   3.237   1.255  13.122
24272W        W97340   1.786  19.581  14.220
24273W        W97341  38.752  13.517  10.714
24274W        W97342  23.558  28.390   3.587
24275W        W97343  39.907   5.648   0.955
24276W        W97344  44.329   5.735  11.713
24277W        W97345  36.544  16.976  10.449
24278W        W97346   9.764  11.348  13.287
24279W        W97347  35.893  10.556  11.157
24280W        W97348  26.822  26.922   4.713
24281W        W97349  32.412  18.792   1.439
24282W        W97350  13.389  10.756   0.762
24283W        W97351  26.561  16.678  10.310
24284W        W97352  32.539  35.430  13.791
24285W        W97353   5.757  29.442   1.937
24286W        W97354  23.734  24.675  10.473
24287W        W97355  28.415  22.911  14.874
24288W        W97356  38.502  14.697  14.672
24289W        W97357   6.593  17.522  13.325
24290W        W97358  26.466  31.188   2.134
24291W        W97359  32.680  24.814  14.865
24292W        W97360  20.159  44.925  11.412
24293W        W97361  29.499   8.620  14.357
24294W        W97362  15.295   0.062   4.274
24295W        W97363  31.239  36.062  11.564
24296W        W97364  16.769  13.139  12.922
24297W        W97365  12.867  17.548   1.333
24298W        W97366  27.986  40.537  12.025
24299W        W97367  34.015   5.412  13.394
24300W        W97368   7.316  35.152   2.600
24301W        W97369  31.340  14.199   3.323
24302W        W97370  27.961   9.292  13.569
24303W        W97371   5.313   6.658  11.541
24304W        W97372  38.442  21.800   1.247
24305W        W97373  26.881  43.877  13.090
24306W        W97374  44.679   9.912   1.523
24307W        W97375  43.469   8.801   1.376
24308W        W97376  28.097  42.312   0.862
24309W        W97377   5.239  12.696  10.927
24310W        W97378   5.335  22.975  13.340
24311W        W97379  17.799   7.519  11.203
24312W        W97380  42.106  42.505   0.788
24313W        W97381   9.300   4.769  12.619
24314W        W97382  31.064   8.336  12.510
24315W        W97383  26.964  34.722   0.854
24316W        W97384  38.531  26.953  14.983
24317W        W97385  15.644  40.880   0.762
24318W        W97386  22.537  42.364  13.786
24319W        W97387   6.027   3.321   0.467
24320W        W97388  35.525  11.129  14.262
24321W        W97389  44.718  17.768  11.197
24322W        W97390  36.531   6.945   3.700
24323W        W97391  23.018  26.650  12.036
24324W        W97392  36.345  40.897   4.387
24325W        W97393  22.976   5.311  13.065
24326W        W97394  31.700  39.413  12.878
24327W        W97395  38.201  11.332   4.737
24328W        W97396  18.786  40.031   1.846
24329W        W97397   2.175  18.205  12.994
24330W        W97398  15.889  11.171  14.246
24331W        W97399  20.315  15.412  14.026
24332W        W97400  38.547   1.138   3.757
24333W        W97401  42.720  34.780  12.905
24334W        W97402   3.910  18.732   3.139
24335W        W97403  39.824  31.552   4.708
24336W        W97404  36.085  23.652  13.818
24337W        W97405  17.824  41.581  11.578
24338W        W97406  21.317  44.025  14.402
24339W        W97407  43.410  35.302  11.181
24340W        W97408  22.786  34.526  10.650
24341W        W97409   2.953  20.801   2.253
24342W        W97410  31.099  12.092   2.195
24343W        W97411   3.176  25.526  11.058
24344W        W97412  15.241  10.809  14.313
24345W        W97413  13.221  34.914   1.959
24346W        W97414   0.371   8.071   3.551
24347W        W97415   0.080   6.014   3.671
24348W        W97416  43.372  32.191  12.930
24349W        W97417  14.287  38.065  12.720
24350W        W97418   3.526  34.254   0.725
24351W        W97419  14.624   6.371   0.916
24352W        W97420   2.303  37.464   1.855
24353W        W97421  26.470  32.017  11.997
24354W        W97422  13.461   7.155   3.857
24355W        W97423  12.114  35.592  14.403
24356W        W97424  42.813  13.689   2.889
24357W        W97425   2.028  18.151  13.543
24358W        W97426  12.048  24.561   0.531
24359W        W97427   6.738  28.582   0.438
24360W        W97428  27.374  15.757   4.561
24361W        W97429  16.979  16.205   0.403
24362W        W97430  19.760  22.404   3.645
24363W        W97431  16.576  29.205  12.942
24364W        W97432  13.718  41.356  13.097
24365W        W97433  41.805  34.664  13.262
24366W        W97434  29.799   5.799  13.267
24367W        W97435   5.438  33.335   0.307
24368W        W97436  23.818  37.728   4.661
24369W        W97437  42.282  18.256  14.032
24370W        W97438  10.813  30.101   3.102
24371W        W97439  33.620  29.118  12.738
24372W        W97440  10.015  11.714   1.604
24373W        W97441  17.667  13.814   2.484
24374W        W97442   9.317  44.866  11.168
24375W        W97443  41.805   5.222   0.834
24376W        W97444  27.653  41.473   0.406
24377W        W97445  30.605   0.360  12.257
24378W        W97446  36.495  12.160  10.394
24379W        W97447  16.616  41.481  14.501
24380W        W97448  44.028  17.715   1.680
24381W        W97449  18.494  31.328   3.855
24382W        W97450  14.165  26.094  13.462
24383W        W97451  37.761  34.348  14.276
24384W        W97452   5.243  34.400   1.632
24385W        W97453   5.791   2.285  14.412
24386W        W97454  40.534  31.106   1.459
24387W        W97455   6.974  24.506   3.457
24388W        W97456  19.126  41.570   1.899
24389W        W97457  13.992   9.708   3.701
24390W        W97458  42.444  29.966   4.874
24391W        W97459  21.713  21.069   3.417
24392W        W97460  14.014   2.330   4.731
24393W        W97461   3.445  40.041   4.513
24394W        W97462  20.713   2.498  12.009
24395W        W97463   3.924  29.114   4.531
24396W        W97464   4.285  18.446   4.786
24397W        W97465  19.223  27.988   1.281
24398W        W97466   8.889  31.433   3.875
24399W        W97467  29.201  19.165   0.461
24400W        W97468  33.459  15.813   2.829
24401W        W97469  30.115  32.471   4.376
24402W        W97470  35.137   2.929  11.061
24403W        W97471  26.569   0.625  14.752
24404W        W97472  29.623   2.508   3.739
24405W        W97473   5.460  21.538   0.472
24406W        W97474  42.841   1.414  11.589
24407W        W97475  30.804  33.981   1.413
24408W        W97476  13.648  24.866   4.944
24409W        W97477  26.854   2.856  14.775
24410W        W97478  15.739  38.522   1.480
24411W        W97479   0.764  41.470  13.887
24412W        W97480  12.220  33.822   0.922
24413W        W97481   3.922   9.167   4.539
24414W        W97482  26.062  25.048  12.047
24415W        W97483  34.456  13.149  14.793
24416W        W97484   2.830  28.592   4.381
24417W        W97485  23.059  32.995   2.383
24418W        W97486  30.304  15.392  14.003
24419W        W97487  27.977  15.257   5.039
24420W        W97488  33.662  29.403   3.662
24421W        W97489  11.165  42.889  10.786
24422W        W97490  19.434  25.041  10.774
24423W        W97491  40.006  39.440   1.805
24424W        W97492   5.824  18.750   1.852
24425W        W97493   5.041  44.387  13.610
24426W        W97494   2.868  29.818  14.807
24427W        W97495   9.683   5.825  12.803
24428W        W97496  31.940   9.422  12.064
24429W        W97497  11.166   8.172  12.593
24430W        W97498  22.895  28.524   1.770
24431W        W97499   1.840  43.764  12.986
24432W        W97500  23.034  10.443  12.438
24433W        W97501  43.971  20.346   3.343
24434W        W97502  21.619  20.593   1.674
24435W        W97503  33.390  33.349  10.532
24436W        W97504   8.558  38.061  13.076
24437W        W97505   7.511  25.030  14.872
24438W        W97506  31.864   6.363   3.585
24439W        W97507  11.888  10.711   2.799
24440W        W97508   2.775  21.732   0.771
24441W        W97509  41.955  28.645   1.331
24442W        W97510  36.150  31.440   3.370
24443W        W97511  16.308  13.354   1.659
24444W        W97512  43.762  42.401   2.757
24445W        W97513  32.905  32.915   2.298
24446W        W97514   0.318   8.093  13.358
24447W        W97515  42.476  44.107   2.357
24448W        W97516  17.095  19.323  10.668
24449W        W97517  18.759   9.482   0.362
24450W        W97518  33.778  12.543   2.325
24451W        W97519  20.740  20.343  12.357
24452W        W97520  15.500  20.349  11.138
24453W        W97521  44.309  38.425  11.576
24454W        W97522  16.885   2.977  14.057
24455W        W97523  36.307  40.816  14.409
24456W        W97524  17.554  21.887   3.715
24457W        W97525  40.725  31.088   4.515
24458W        W97526  41.516   6.223  12.831
24459W        W97527   6.446   7.829   4.550
24460W        W97528  12.109  41.706  13.867
24461W        W97529   5.644   4.821  12.873
24462W        W97530  30.059  28.123   0.018
24463W        W97531  36.095  35.549  12.554
24464W        W97532  37.589   2.047   3.270
24465W        W97533   0.384   3.721   4.668
24466W        W97534  18.702  36.053   0.169
24467W        W97535  28.391  33.055   1.857
24468W        W97536  33.098  18.576   0.895
24469W        W97537  32.011  16.872  11.096
24470W        W97538  16.761   7.188  13.425
24471W        W97539  19.732  36.752  11.661
24472W        W97540  16.643   1.901   0.030
24473W        W97541  43.662   2.860  13.842
24474W        W97542  32.048  42.486  14.416
24475W        W97543  14.745  40.463   3.133
24476W        W97544  41.998  20.753  10.680
24477W        W97545  31.256  11.492  11.982
24478W        W97546  21.748  17.493  12.975
24479W        W97547  25.221  24.542  11.527
24480W        W97548  10.355  44.575   2.733
24481W        W97549  31.930  16.108  13.636
24482W        W97550   5.883  36.621   4.066
24483W        W97551  37.141  15.337  12.077
24484W        W97552   9.432  34.481  13.954
24485W        W97553  20.467  21.558   2.115
24486W        W97554  41.368  21.745  12.425
24487W        W97555  15.350  12.653   3.774
24488W        W97556  24.587  41.258   4.778
24489W        W97557  14.233  16.061  12.898
24490W        W97558  15.173  26.294  13.052
24491W        W97559  27.048  17.596   1.746
24492W        W97560  35.800  28.176  11.566
24493W        W97561  33.824  38.071  11.400
24494W        W97562  31.969  44.280   4.104
24495W        W97563  17.414  36.905  12.964
24496W        W97564   5.833   0.983   0.540
24497W        W97565  10.051  26.705  10.092
24498W        W97566   0.171  15.116  13.808
24499W        W97567  44.741  31.198   3.150
24500W        W97568   6.362   1.379   2.718
24501W        W97569  18.982  43.866   2.408
24502W        W97570  36.448  41.779  10.797
24503W        W97571  30.674  40.428  10.667
24504W        W97572  43.781  23.237  14.457
24505W        W97573   7.832  42.447  10.965
24506W        W97574  41.744  15.126   2.295
24507W        W97575  29.631  31.370   3.707
24508W        W97576  23.188   6.937   2.398
24509W        W97577  25.330   0.063  13.546
24510W        W97578  19.345  35.801  13.409
24511W        W97579   0.969  14.356   2.806
24512W        W97580   4.994  37.469  10.583
24513W        W97581  10.317  18.135   4.125
24514W        W97582   4.850  13.057   0.454
24515W        W97583  31.226  30.648  10.464
24516W        W97584  37.152  32.529   4.287
24517W        W97585  35.356  31.672   9.777
24518W        W97586  23.817  21.170   3.853
24519W        W97587   7.374  16.219  14.450
24520W        W97588  32.894   6.895   1.764
24521W        W97589  41.059  18.154  10.572
24522W        W97590   3.815   7.721   3.706
24523W        W97591   7.757  32.335   1.428
24524W        W97592   0.042  37.110   2.466
24525W        W97593  14.846  44.436  10.377
24526W        W97594  44.488  33.651   3.281
24527W        W97595  14.652  33.677   1.292
24528W        W97596   1.281  23.111   3.801
24529W        W97597  22.588  17.838   1.376
24530W        W97598  21.501   2.204   3.195
24531W        W97599  38.967  19.764   0.411
24532W        W97600   9.194  40.507   1.181
24533W        W97601  25.646  41.054   3.370
24534W        W97602  43.973   8.491  14.288
24535W        W97603  11.501  30.635  11.099
24536W        W97604  14.720  38.637  11.137
24537W        W97605  16.855  18.259  12.080
24538W        W97606  33.995  28.017  10.370
24539W        W97607  38.754  38.457   0.039
24540W        W97608  17.363  41.459  14.239
24541W        W97609  15.279  15.116  12.884
24542W        W97610  30.655   3.832  10.644
24543W        W97611  33.377  33.440   3.552
24544W        W97612  20.603   5.459   1.785
24545W        W97613  16.310  26.158  14.882
24546W        W97614  40.517  29.734   3.770
24547W        W97615  33.072  32.109   0.240
24548W        W97616  23.261  37.991  14.282
24549W        W97617  43.008  33.993  11.036
24550W        W97618  43.980  32.577   3.700
24551W        W97619  24.035   8.064   1.195
24552W        W97620   6.180  26.442   4.571
24553W        W97621  44.697  40.465   1.495
24554W        W97622  43.381  14.309   0.242
24555W        W97623   5.852   4.674   1.860
24556W        W97624  37.266  26.455  10.638
24557W        W97625  32.437  25.701  12.842
24558W        W97626  23.505  10.810  11.686
24559W        W97627  24.262  21.100  11.800
24560W        W97628  13.658  22.437  11.479
24561W        W97629  36.128   5.509  14.497
24562W        W97630  33.878  14.637   3.158
24563W        W97631  35.350   2.131   0.468
24564W        W97632  26.104  32.189   4.672
24565W        W97633  35.389  37.483  14.441
24566W        W97634  18.285  37.309  10.713
24567W        W97635  37.902  22.773   0.385
24568W        W97636  43.476   3.626  10.556
24569W        W97637  36.817  40.772  14.390
24570W        W97638  38.038  13.142  12.212
24571W        W97639  32.169   9.368   4.053
24572W        W97640  25.020   8.873   4.404
24573W        W97641  36.628  21.622   3.331
24574W        W97642  34.211  19.493   2.860
24575W        W97643  22.210  23.115   0.332
24576W        W97644  21.190   0.822   0.357
24577W        W97645   7.837  22.799   4.554
24578W        W97646  10.065   1.364  11.190
24579W        W97647  40.313  38.507  14.899
24580W        W97648  12.884  32.571  11.379
24581W        W97649  16.033   7.899  12.935
24582W        W97650  37.463  11.636   4.146
24583W        W97651   4.017  29.014  13.808
24584W        W97652   2.921  30.350  14.430
24585W        W97653  13.550  26.243   2.730
24586W        W97654   9.424  15.264  11.526
24587W        W97655  41.389  41.981   5.079
24588W        W97656  41.128   7.040   3.955
24589W        W97657  44.322  15.629   0.818
24590W        W97658  33.046  28.697   2.276
24591W        W97659  30.062   4.185  13.358
24592W        W97660  21.473  39.156  12.244
24593W        W97661  24.094  42.617  12.409
24594W        W97662  29.003  14.751  11.311
24595W        W97663  34.788   1.792   1.813
24596W        W97664  14.241  22.443  12.091
24597W        W97665  18.228  28.511   0.685
24598W        W97666  23.610  13.394  12.972
24599W        W97667   9.395  12.763   0.647
24600W        W97668   1.313  10.415  13.846
24601W        W97669   9.354  15.639   5.077
24602W        W97670  28.003  19.024   2.234
24603W        W97671  34.936  30.477   3.715
24604W        W97672  26.153   6.560  11.593
24605W        W97673  11.582   4.101   1.217
24606W        W97674   2.477   6.237   4.197
24607W        W97675   5.740  36.493  13.630
24608W        W97676  35.354   7.413   4.184
24609W        W97677  27.980  38.061  12.525
24610W        W97678   9.584   8.551  13.404
24611W        W97679   4.363   8.769   1.030
24612W        W97680   6.730  24.295  14.006
24613W        W97681  35.338  28.060  10.677
24614W        W97682  40.005   6.928  10.262
24615W        W97683  19.552   4.452  13.378
24616W        W97684   6.721   5.201  11.614
24617W        W97685  22.184  39.865  10.876
24618W        W97686  15.988   5.771   3.208
24619W        W97687   8.133  31.392  11.492
24620W        W97688  36.168  39.565  11.504
24621W        W97689  43.297  28.658  12.807
24622W        W97690  32.054   0.255   0.966
24623W        W97691  42.079  11.864   3.562
24624W        W97692  28.715  29.437  11.176
24625W        W97693   1.759  40.972  10.635
24626W        W97694  36.816  42.556   0.675
24627W        W97695   9.290  39.359   4.762
24628W        W97696  42.342  18.586   2.355
24629W        W97697  11.454  10.206  12.625
24630W        W97698  44.353  17.197  12.936
24631W        W97699  44.291   5.851   4.509
24632W        W97700  40.880   2.419   0.677
24633W        W97701  16.406   9.818   2.679
24634W        W97702   4.264  11.936  10.945
24635W        W97703  12.661   7.426  13.083
24636W        W97704  17.846   8.460   2.155
24637W        W97705  43.446  21.189  13.804
24638W        W97706  27.266  39.800   2.223
24639W        W97707  16.231  40.043  11.056
24640W        W97708  32.465   8.054  13.813
24641W        W97709  27.280   8.641   3.044
24642W        W97710  26.420   4.456   0.510
24643W        W97711  29.592   7.781  12.304
24644W        W97712  12.085  29.595   0.271
24645W        W97713  31.695  10.381  13.072
24646W        W97714  10.837  21.195  10.817
24647W        W97715  28.073  30.832  14.017
24648W        W97716  41.348  11.650   4.587
24649W        W97717  20.406  27.364   1.228
24650W        W97718  19.187  43.823   4.815
24651W        W97719  29.990  15.646   0.802
24652W        W97720  21.161  22.127   3.776
24653W        W97721  36.995  33.254  12.154
24654W        W97722  18.124  33.973  10.881
24655W        W97723   6.862  35.490  14.467
24656W        W97724  18.608  24.221   2.313
24657W        W97725  33.387  35.968  11.005
24658W        W97726  11.081  33.863   0.015
24659W        W97727  18.324   5.836  10.774
24660W        W97728  24.957  18.317   4.941
24661W        W97729  40.528  23.523   4.193
24662W        W97730  43.213   2.929   4.721
24663W        W97731  29.391  32.521   0.930
24664W        W97732  24.171  29.628   0.067
24665W        W97733  31.345  17.091  12.526
24666W        W97734  19.922   7.432  10.399
24667W        W97735   3.260  38.800   1.406
24668W        W97736  26.554  15.014  11.329
24669W        W97737  38.071   4.661  14.526
24670W        W97738  26.167  25.417  12.915
24671W        W97739  28.843   7.005   1.750
24672W        W97740  37.004   0.110   1.826
24673W        W97741   4.537  38.472  14.955
24674W        W97742  14.645  44.870   2.760
24675W        W97743   2.415   2.848   2.643
24676W        W97744  41.287  36.105   0.883
24677W        W97745  27.887  38.304  12.022
24678W        W97746  22.022  10.075  11.192
24679W        W97747  13.287  30.063  14.621
24680W        W97748   2.002  39.859   4.532
24681W        W97749  15.892  13.196   1.380
24682W        W97750  41.469   3.215  14.944
24683W        W97751  31.537  20.569   2.063
24684W        W97752  26.010   4.659  10.645
24685W        W97753  20.707  34.657  14.394
24686W        W97754  25.072  11.071   4.661
24687W        W97755  42.440  30.685   3.732
24688W        W97756  16.070  21.022   1.661
24689W        W97757  44.081  11.657   2.339
24690W        W97758  43.682  28.147   3.891
24691W        W97759   9.637  10.305  13.305
24692W        W97760   0.081  11.412   3.803
24693W        W97761  14.804  35.560   3.644
24694W        W97762  23.648  32.480  11.006
24695W        W97763  22.697   4.416   0.383
24696W        W97764  42.506  31.471   0.779
24697W        W97765  38.578  13.283  12.981
24698W        W97766  26.339  26.058  13.799
24699W        W97767  41.407  17.003  11.401
24700W        W97768  35.263  19.474  14.915
24701W        W97769  23.251   5.297  12.589
24702W        W97770   4.895  12.710  11.648
24703W        W97771   9.516  29.474   4.842
24704W        W97772  40.302  34.848  12.913
24705W        W97773  21.241  34.360   3.331
24706W        W97774  40.944  21.306  11.156
24707W        W97775  40.374  35.714  12.053
24708W        W97776  26.666  39.940  11.147
24709W        W97777  36.134  31.541  14.752
24710W        W97778  15.578  43.996   1.770
24711W        W97779  39.374  18.491  11.892
24712W        W97780  27.788  20.506  11.190
24713W        W97781   4.407  17.702   3.364
24714W        W97782  33.501  33.715   1.215
24715W        W97783  34.985  17.115  14.034
24716W        W97784  28.564  10.836  12.379
24717W        W97785  29.403   7.452   0.213
24718W        W97786  13.553  42.720  13.286
24719W        W97787  21.106  29.007  12.100
24720W        W97788  17.161  14.370   0.943
24721W        W97789  37.420   5.114   3.830
24722W        W97790  42.525   5.171  11.976
24723W        W97791  40.972  19.261   2.101
24724W        W97792  26.637  16.242   1.191
24725W        W97793   3.288  27.829  13.653
24726W        W97794  43.405  37.378   4.700
24727W        W97795  42.780  35.591   1.929
24728W        W97796  17.255   9.166  12.146
24729W        W97797  18.098  37.521   2.968
24730W        W97798  28.500  12.322   5.794
24731W        W97799  39.953  19.612  13.377
24732W        W97800  27.100  18.549   0.348
24733W        W97801  35.695  44.414  11.450
24734W        W97802  28.034  27.591  10.218
24735W        W97803   7.822  32.834   1.264
24736W        W97804  12.504  41.419   3.526
24737W        W97805  28.341  13.042  12.336
24738W        W97806   1.390  16.623  12.944
24739W        W97807  20.079  28.979  13.055
24740W        W97808   6.129  15.346   4.208
24741W        W97809  16.205   5.543  12.810
24742W        W97810  34.853   0.185  12.004
24743W        W97811  41.863  25.486   0.036
24744W        W97812   3.577  10.712  11.035
24745W        W97813   2.099  21.094  12.474
24746W        W97814  14.660  25.703  11.557
24747W        W97815  32.569  26.198   2.737
24748W        W97816  32.280   9.593   1.441
24749W        W97817  43.013  17.106  14.522
24750W        W97818  20.699  11.699  13.750
24751W        W97819  29.344   6.463  12.558
24752W        W97820  12.579  12.254   2.689
24753W        W97821   4.214  23.660  11.428
24754W        W97822  12.374  35.605   1.416
24755W        W97823  12.110  39.883   3.217
24756W        W97824  40.295  27.503   4.322
24757W        W97825  33.859  23.958   2.905
24758W        W97826  22.566  40.004   2.823
24759W        W97827   2.705  30.889   4.850
24760W        W97828  43.256   7.608   0.190
24761W        W97829   3.294  33.060  12.059
24762W        W97830   7.831  14.378  14.579
24763W        W97831  19.179  25.949   1.267
24764W        W97832  37.213   0.122  12.550
24765W        W97833  20.627  28.402  13.125
24766W        W97834  34.429  11.596  10.821
24767W        W97835  42.488  39.005  13.813
24768W        W97836  18.508  43.062  11.686
24769W        W97837  33.059  33.685   3.925
24770W        W97838  40.367  13.551   4.605
24771W        W97839  21.721  29.542   0.468
24772W        W97840  10.387  13.762  12.960
24773W        W97841  10.098   2.361  13.849
24774W        W97842  13.214   6.357   3.426
24775W        W97843  34.799   4.236   1.736
24776W        W97844   9.763  32.702  11.641
24777W        W97845  27.876  14.917   0.774
24778W        W97846  40.964  23.943   1.778
24779W        W97847  37.008  32.054   0.957
24780W        W97848  42.979  10.968   0.068
24781W        W97849  21.860  31.550   1.438
24782W        W97850   6.103   3.930  12.948
24783W        W97851  14.554  32.876   1.266
24784W        W97852  15.543   8.468   1.903
24785W        W97853  30.175  44.519   2.462
24786W        W97854  15.184  27.594  13.156
24787W        W97855   3.842  44.262   0.102
24788W        W97856  38.097  39.910   1.295
24789W        W97857   8.590   9.985   0.301
24790W        W97858  19.166  11.262   0.224
24791W        W97859  12.689  18.241  10.096
24792W        W97860  40.116  10.808  14.515
24793W        W97861  20.623  10.334  12.462
24794W        W97862  31.897  19.798  12.926
24795W        W97863  42.063  17.334  14.407
24796W        W97864  26.046  23.870  11.098
24797W        W97865  10.705   1.409   4.617
24798W        W97866  19.328   4.000  14.349
24799W        W97867  42.438  25.778  14.784
24800W        W97868   2.168  16.386   1.467
24801W        W97869  27.063  28.652  14.385
24802W        W97870   2.287  31.612  13.526
24803W        W97871   4.791  43.674   4.349
24804W        W97872  43.127   9.057   1.704
24805W        W97873   1.210  14.666  11.624
24806W        W97874  32.193  36.307  13.528
24807W        W97875  12.703  29.977   2.756
24808W        W97876  29.320   9.778  10.650
24809W        W97877  38.436  26.158   3.589
24810W        W97878   2.904  12.425   2.432
24811W        W97879   6.857  25.083  12.432
24812W        W97880   6.104  41.540   4.133
24813W        W97881  16.233  19.437   3.091
24814W        W97882  23.193  23.165   1.492
24815W        W97883   1.284   8.429  14.912
24816W        W97884  15.292  17.867   3.700
24817W        W97885  35.831  42.061  14.114
24818W        W97886  27.216  29.443  13.047
24819W        W97887   3.471  39.261   1.326
24820W        W97888  27.959  39.080   3.202
24821W        W97889  42.588  10.605  14.431
24822W        W97890  14.848   4.368   4.409
24823W        W97891  20.781   3.939  13.093
24824W        W97892  31.347  34.910  13.967
24825W        W97893  25.215  23.452   1.319
24826W        W97894  27.421  41.226   3.767
24827W        W97895  37.535  40.854  13.401
24828W        W97896  10.763  19.525  10.360
24829W        W97897  18.508  31.565  13.820
24830W        W97898  42.880  16.841   2.786
24831W        W97899  28.835  35.422  11.297
24832W        W97900  32.523  20.875  13.821
24833W        W97901  24.267  13.265  12.532
24834W        W97902   9.393  34.929   3.776
24835W        W97903   8.353  34.376  14.821
24836W        W97904  26.231  23.017   4.128
24837W        W97905  35.738  16.795   0.570
24838W        W97906  23.595  36.254  11.909
24839W        W97907   4.885  40.080  12.516
24840W        W97908  21.173  26.684  13.170
24841W        W97909  38.859  21.412   0.147
24842W        W97910  10.409  10.721   0.423
24843W        W97911   0.725  19.454   3.914
24844W        W97912  43.154  12.269   0.823
24845W        W97913  24.250  40.413  11.107
24846W        W97914  33.534   4.840  10.878
24847W        W97915  25.646  12.316   2.361
24848W        W97916  22.152   4.195   4.085
24849W        W97917  44.545  43.300   2.424
24850W        W97918  26.662  38.839  13.400
24851W        W97919  27.570   6.182  13.886
24852W        W97920  23.908  23.016  10.843
24853W        W97921   2.934  16.868  14.425
24854W        W97922  23.682  13.444   0.294
24855W        W97923  35.307  42.433   2.144
24856W        W97924  25.603   1.732  11.238
24857W        W97925  33.541  13.315  14.752
24858W        W97926  33.406  36.700  14.799
24859W        W97927  24.290  21.168  10.269
24860W        W97928  24.171  17.726  10.673
24861W        W97929  32.075  27.245   2.235
24862W        W97930  22.730  12.308  10.960
24863W        W97931  43.480  19.948  14.326
24864W        W97932  43.752  28.401  12.892
24865W        W97933  28.721  16.609   4.496
24866W        W97934  25.508  29.528  12.176
24867W        W97935   5.924  28.954  13.865
24868W        W97936  29.721   5.156  12.132
24869W        W97937  13.169   2.995  10.640
24870W        W97938  25.115  18.349  12.377
24871W        W97939  13.746   1.774   3.137
24872W        W97940  44.653   5.515   3.711
24873W        W97941  18.678  26.673  14.937
24874W        W97942  36.968  39.769   2.847
24875W        W97943  22.059   7.823  13.550
24876W        W97944  29.046  42.044   4.618
24877W        W97945   3.916  15.386   4.235
24878W        W97946  37.635   6.810   4.552
24879W        W97947  41.825  11.057  13.430
24880W        W97948  12.750   4.661  13.063
24881W        W97949   4.697   9.895  11.025
24882W        W97950  26.412   9.759   9.717
24883W        W97951   5.651   4.335   2.202
24884W        W97952  44.105  35.130   0.575
24885W        W97953  19.284  12.956  13.781
24886W        W97954   4.444  32.141  12.419
24887W        W97955  31.451  16.165  12.463
24888W        W97956  24.752  30.196  10.652
24889W        W97957  33.576   3.149   0.171
24890W        W97958  43.254  20.575   0.169
24891W        W97959  18.986  30.366   4.892
24892W        W97960  21.919   2.403  11.327
24893W        W97961  11.734  21.049   1.518
24894W        W97962  23.579   8.915   4.441
24895W        W97963  34.852  37.460   3.089
24896W        W97964  16.349   8.923   4.397
24897W        W97965  10.099  13.322  11.678
24898W        W97966  12.873  23.278   3.250
24899W        W97967  33.436  20.288  11.561
24900W        W97968   0.402  42.462   3.384
24901W        W97969  32.621   2.204   2.335
24902W        W97970   8.896  25.676   4.555
24903W        W97971  40.810  24.206  12.612
24904W        W97972   8.984  24.397   1.346
24905W        W97973  15.823  39.540   3.653
24906W        W97974  23.567  21.343   2.384
24907W        W97975  35.012  15.655  12.516
24908W        W97976   0.671   2.092  10.023
24909W        W97977   4.436   7.169  13.019
24910W        W97978  43.672  17.571   2.831
24911W        W97979  32.626   9.836   1.818
24912W        W97980  14.510   5.741   1.392
24913W        W97981   1.655   1.379   3.177
24914W        W97982  15.553   6.231   2.661
24915W        W97983  15.111  18.245  13.210
24916W        W97984  21.217  29.087   2.345
24917W        W97985  23.894  35.784  14.381
24918W        W97986  15.128   9.707  11.202
24919W        W97987   4.334  15.910   0.159
24920W        W97988  27.097  40.392   3.354
24921W        W97989  42.376  36.120  11.093
24922W        W97990  14.806  15.838   2.210
24923W        W97991   9.855  27.641   3.726
24924W        W97992   4.789   5.929  13.533
24925W        W97993   0.436  34.593   4.570
24926W        W97994  30.932  20.491   2.733
24927W        W97995  14.576  14.344  11.132
24928W        W97996  39.821   6.122   1.354
24929W        W97997   2.326  44.667  11.550
24930W        W97998  24.596  13.337  12.091
24931W        W97999  31.967  27.179  11.486
24932W        W98000   7.293  40.952   1.478
24933W        W98001  19.764   4.866  11.382
24934W        W98002  18.248  34.431   1.756
24935W        W98003  27.566  34.371  14.044
24936W        W98004  29.352  19.593   4.498
24937W        W98005  17.848  26.545  14.210
24938W        W98006  44.981   2.250   1.684
24939W        W98007  29.767  20.791  12.817
24940W        W98008   8.937   1.982   2.299
24941W        W98009   0.317  18.319  14.775
24942W        W98010  31.888  12.380  13.904
24943W        W98011  22.770   3.481  12.104
24944W        W98012  10.835  26.250   3.129
24945W        W98013  22.217   3.291  13.526
24946W        W98014   9.066  31.569  10.456
24947W        W98015  43.858  21.291  12.027
24948W        W98016  31.956  24.178   3.952
24949W        W98017  19.816   9.906  11.194
24950W        W98018   2.904  42.612   4.353
24951W        W98019  18.975  22.692  14.473
24952W        W98020  31.126   3.126  12.124
24953W        W98021  44.652   6.812   1.297
24954W        W98022  37.492  41.736  14.981
24955W        W98023  26.886  23.451   4.657
24956W        W98024  39.508  31.978   1.765
24957W        W98025  44.942  38.112  14.016
24958W        W98026  31.600  10.492   1.301
24959W        W98027  18.709  26.613  13.809
24960W        W98028  23.893   9.929   1.768
24961W        W98029  32.542  28.573  10.858
24962W        W98030   7.896  42.338  13.317
24963W        W98031  17.065  11.292   1.030
24964W        W98032  22.057   4.408  13.096
24965W        W98033   9.346  18.818  13.586
24966W        W98034  18.502  39.114   5.002
24967W        W98035  42.750   0.472  10.545
24968W        W98036  21.285  24.122   1.687
24969W        W98037  42.216  40.043  12.967
24970W        W98038   3.311   9.320   1.157
24971W        W98039  19.492  30.167  12.603
24972W        W98040  10.500  21.577  13.439
24973W        W98041  41.874  29.081   4.690
24974W        W98042  41.044  27.729  10.876
24975W        W98043  37.076   2.676  13.386
24976W        W98044  19.565  16.694  12.420
24977W        W98045  22.199  42.833  14.874
24978W        W98046   7.312  37.597  14.821
24979W        W98047   1.737   3.751   4.358
24980W        W98048  31.507  44.258   4.834
24981W        W98049   9.271  18.073  14.402
24982W        W98050  37.580  29.375   2.093
24983W        W98051  23.575  31.821  14.833
24984W        W98052  34.380   3.131   0.870
24985W        W98053  33.007  15.274  11.849
24986W        W98054  32.012  28.548  14.493
24987W        W98055  33.382   5.458   1.793
24988W        W98056   8.699   8.244   0.247
24989W        W98057  19.930   2.649   3.199
24990W        W98058  40.334  32.787   4.604
24991W        W98059  37.268  31.652   4.609
24992W        W98060  22.480  42.316   4.913
24993W        W98061  24.294  19.085   0.417
24994W        W98062   4.452   9.336  13.468
24995W        W98063  27.499   5.536  12.630
24996W        W98064   0.466   4.790   1.731
24997W        W98065  41.455  30.862  13.351
24998W        W98066  13.048  41.033   1.328
24999W        W98067   8.069  28.089   3.794
25000W        W98068  18.706  15.430  11.072
25001W        W98069   7.824  21.061  11.042
25002W        W98070  27.578   1.555   3.382
25003W        W98071  14.776  17.349   2.304
25004W        W98072   0.777  43.483  12.441
25005W        W98073   3.849   8.480   5.016
25006W        W98074  35.268  19.560   4.529
25007W        W98075   3.238   7.952   3.093
25008W        W98076  43.330  36.435   3.271
25009W        W98077   8.629  13.818  14.535
25010W        W98078  21.052   7.521  13.802
25011W        W98079  43.949  35.473   4.417
25012W        W98080  22.299  10.241   3.269
25013W        W98081  26.641   5.819   3.281
25014W        W98082  13.903  22.062  13.993
25015W        W98083  21.063  35.390   2.750
25016W        W98084   4.389  30.465  12.590
25017W        W98085  24.256  26.150  14.852
25018W        W98086  35.085  21.967  11.672
25019W        W98087  19.073  31.453   4.533
25020W        W98088  12.713  18.948   4.565
25021W        W98089  11.271  32.984  14.972
25022W        W98090  25.124   3.536  13.342
25023W        W98091  36.431  36.321  13.110
25024W        W98092  13.753  32.301  10.654
25025W        W98093  31.886  42.189  11.226
25026W        W98094  19.205  39.844  10.585
25027W        W98095  28.152  19.500  11.439
25028W        W98096  10.290   0.947  14.865
25029W        W98097  34.585   4.387   1.295
25030W        W98098  43.828  43.913   3.624
25031W        W98099  20.942   4.570   0.971
25032W        W98100  26.386  28.291   2.268
25033W        W98101  42.737  22.208   0.688
25034W        W98102  19.143  27.591  14.474
25035W        W98103  41.216   5.202  14.022
25036W        W98104  19.687  26.040   4.332
25037W        W98105  31.948   7.825   1.334
25038W        W98106  37.797  31.212   5.109
25039W        W98107   9.066   5.651  10.730
25040W        W98108   2.225  42.283  11.559
25041W        W98109   7.509  40.939  13.928
25042W        W98110  33.472   1.676   0.998
25043W        W98111  19.086  37.847  14.478
25044W        W98112  38.291   1.992  11.726
25045W        W98113  27.114   5.227  12.517
25046W        W98114  40.645  44.888  11.879
25047W        W98115  44.515  10.308  10.713
25048W        W98116   9.685  42.096   1.900
25049W        W98117  24.827  37.520  14.934
25050W        W98118   6.576  38.090   2.260
25051W        W98119  17.770  18.761   1.198
25052W        W98120  14.786  34.609  11.657
25053W        W98121  35.026  31.867  12.375
25054W        W98122  19.463  32.381   1.871
25055W        W98123  23.987   0.787   1.920
25056W        W98124  17.358  39.390  11.864
25057W        W98125  25.094  18.599  11.925
25058W        W98126  22.471  37.020  12.061
25059W        W98127  10.376  33.866   3.754
25060W        W98128   6.794  31.087   0.921
25061W        W98129  15.279  43.126   2.273
25062W        W98130  19.052  15.793  10.792
25063W        W98131  38.234  14.502  13.437
25064W        W98132  10.699  38.942  14.068
25065W        W98133   9.064  42.064   0.829
25066W        W98134   3.187  25.138  10.599
25067W        W98135  32.418  22.667  12.884
25068W        W98136  23.097  22.738   3.305
25069W        W98137  27.135  33.743   0.791
25070W        W98138   2.366  37.931  11.551
25071W        W98139   6.212   2.930   0.806
25072W        W98140  11.599  27.655  12.240
25073W        W98141  18.239  43.356   0.258
25074W        W98142  22.285   3.004   0.187
25075W        W98143  34.367  28.660  13.450
25076W        W98144  26.858  13.295  10.496
25077W        W98145  30.044   0.279  14.505
25078W        W98146  29.874  16.611  11.644
25079W        W98147   4.804  21.239   4.143
25080W        W98148  41.353  41.596   0.998
25081W        W98149  22.457   4.849  11.605
25082W        W98150  26.244   7.709   2.179
25083W        W98151  40.785   5.897   5.644
25084W        W98152  14.030  16.029  11.102
25085W        W98153  24.574  22.632  14.959
25086W        W98154  24.038   3.514   1.523
25087W        W98155  28.410   8.114  12.873
25088W        W98156   5.444  10.652  10.751
25089W        W98157  16.807  28.519  11.572
25090W        W98158  34.427  27.892   0.361
25091W        W98159  15.175   2.499  10.693
25092W        W98160  18.776  41.344  10.756
25093W        W98161  23.231  16.990  10.268
25094W        W98162  32.669  17.362  12.027
25095W        W98163  24.589   2.989   4.142
25096W        W98164  20.670  31.637   0.812
25097W        W98165   9.352  19.374  12.094
25098W        W98166  29.870  21.884   2.537
25099W        W98167   5.945  44.994  11.083
25100W        W98168  22.765   4.851   2.593
25101W        W98169  35.303  20.830   0.714
25102W        W98170   0.152  21.514  14.500
25103W        W98171  31.180   9.776  14.876
25104W        W98172   3.311  20.439  13.896
25105W        W98173  40.400  22.056   1.307
25106W        W98174  31.986  41.025   1.437
25107W        W98175   4.323  44.848   3.373
25108W        W98176  41.506   1.016  13.307
25109W        W98177   6.232  20.027   3.207
25110W        W98178  32.428  42.989   2.399
25111W        W98179  44.385  21.820  13.188
25112W        W98180  16.746  30.380  13.855
25113W        W98181   8.554  13.658   3.621
25114W        W98182  31.610  15.594   0.735
25115W        W98183  11.532  35.488   4.655
25116W        W98184   3.932  37.787   2.749
25117W        W98185   2.014   8.862   0.444
25118W        W98186   4.389   8.385  14.204
25119W        W98187  33.952  27.184   0.710
25120W        W98188   5.661  35.595  11.617
25121W        W98189  28.829   2.625  12.663
25122W        W98190   7.959   3.475   5.069
25123W        W98191  31.525  18.742  13.877
25124W        W98192  25.153  37.413  12.076
25125W        W98193  44.843  41.887  11.134
25126W        W98194  11.796  41.507  11.612
25127W        W98195  38.889   3.017   3.719
25128W        W98196  10.624   7.540  12.069
25129W        W98197  17.861   6.271   0.843
25130W        W98198  43.459   7.739   3.021
25131W        W98199  42.732  26.633   0.383
25132W        W98200   7.186  32.738   0.304
25133W        W98201  15.046  23.966   4.481
25134W        W98202  42.742  23.000  12.489
25135W        W98203  18.265  21.132   0.503
25136W        W98204  23.624   6.097   2.723
25137W        W98205  32.230  18.570  12.819
25138W        W98206  35.196  13.281  14.184
25139W        W98207  23.122  16.080   4.930
25140W        W98208  40.857  15.061   1.213
25141W        W98209  31.869  32.628  14.510
25142W        W98210  34.443   0.375   3.894
25143W        W98211  42.584  14.748  14.596
25144W        W98212   4.749  36.874  13.319
25145W        W98213  16.728  31.184   1.459
25146W        W98214  19.224  37.576   0.911
25147W        W98215  27.139  42.584   2.707
25148W        W98216  25.125  33.522  10.806
25149W        W98217   3.287  27.000  12.540
25150W        W98218  41.376  11.193  14.544
25151W        W98219  35.780  13.133  14.993
25152W        W98220  10.626  21.653   1.647
25153W        W98221  27.915   2.297   2.214
25154W        W98222  29.319  37.084  10.553
25155W        W98223  15.723  13.798  12.610
25156W        W98224  33.105  30.261  10.354
25157W        W98225  32.632  27.192   0.432
25158W        W98226  43.782   1.017   0.840
25159W        W98227   6.255  34.211   2.216
25160W        W98228   8.814  39.544   5.034
25161W        W98229   4.071  26.692   3.203
25162W        W98230   4.413  18.557  14.004
25163W        W98231  30.784   6.189  12.458
25164W        W98232   7.519   1.692   1.194
25165W        W98233   6.268  12.823   0.182
25166W        W98234  21.898  26.570   4.992
25167W        W98235  19.834  19.752   2.473
25168W        W98236  35.462  17.599  11.432
25169W        W98237  41.791  26.191   3.826
25170W        W98238  37.486  41.024  14.401
25171W        W98239  21.129  30.421   1.117
25172W        W98240  31.655  21.119  14.306
25173W        W98241  24.807  34.478  13.003
25174W        W98242  39.448  34.961   3.173
25175W        W98243  11.042  13.864   1.959
25176W        W98244  30.312  28.628  10.975
25177W        W98245  15.688  27.661   1.866
25178W        W98246  13.187  30.675   5.298
25179W        W98247  35.436   7.080   0.453
25180W        W98248  15.579  39.588   2.600
25181W        W98249   8.850  32.402  13.574
25182W        W98250   0.456  42.981  13.359
25183W        W98251  37.095  32.015  14.778
25184W        W98252  23.192  15.705   1.741
25185W        W98253  36.374  10.887   0.531
25186W        W98254   1.910  25.235   2.543
25187W        W98255  17.728  21.873   2.858
25188W        W98256  11.239   8.417  12.120
25189W        W98257   6.229  11.194  14.404
25190W        W98258  16.116  29.906   1.262
25191W        W98259   9.790  13.153   1.240
25192W        W98260  37.859  27.907  13.522
25193W        W98261  15.511   1.074   4.183
25194W        W98262  37.478  34.584  10.750
25195W        W98263  10.229  19.504   2.768
25196W        W98264  30.665  33.953  11.999
25197W        W98265  35.540  23.568  13.478
25198W        W98266  30.586  37.561  12.820
25199W        W98267   0.381  10.451  12.107
25200W        W98268  33.163  29.146  10.519
25201W        W98269  17.538  25.428   4.777
25202W        W98270  41.498  17.254   0.398
25203W        W98271  33.517  38.458   3.651
25204W        W98272  23.007  35.472  14.159
25205W        W98273  36.695  21.181   1.712
25206W        W98274   2.560  28.511   3.009
25207W        W98275  44.897   3.978   1.869
25208W        W98276  12.658  42.913  14.448
25209W        W98277  14.861  16.225  13.357
25210W        W98278  43.761  20.505   0.023
25211W        W98279  34.749  29.700  14.940
25212W        W98280  10.230  10.782   1.890
25213W        W98281  33.192   6.427  12.989
25214W        W98282  23.840  26.590  12.850
25215W        W98283  34.718  27.857   0.901
25216W        W98284   1.207  11.838   2.939
25217W        W98285  41.105  22.130  14.468
25218W        W98286   8.883  28.694  11.994
25219W        W98287  31.119   5.976  10.535
25220W        W98288  19.715  13.132   4.517
25221W        W98289  17.318  27.741   4.616
25222W        W98290   5.751  35.332  11.193
25223W        W98291   1.869  18.775   0.427
25224W        W98292  27.378  27.075  12.168
25225W        W98293  43.274   3.465   4.272
25226W        W98294  23.628  20.033  10.277
25227W        W98295  22.209  25.995  10.990
25228W        W98296   7.314   2.645   1.280
25229W        W98297   1.740  26.886  11.200
25230W        W98298  25.161  41.071   0.739
25231W        W98299  37.053  17.491   2.827
25232W        W98300  38.906   5.267  14.327
25233W        W98301  25.726  42.922   4.185
25234W        W98302  14.537  19.570   2.664
25235W        W98303  12.327  35.437  12.582
25236W        W98304  37.454  15.066   3.598
25237W        W98305  21.527  40.209   4.098
25238W        W98306   1.711  38.504   3.749
25239W        W98307  34.775   2.405  11.228
25240W        W98308  41.314  29.062  13.442
25241W        W98309  25.881  24.220   0.184
25242W        W98310  16.078  44.439   4.511
25243W        W98311  35.433   1.826  13.215
25244W        W98312  30.869  29.780  11.522
25245W        W98313   3.796  18.244   2.803
25246W        W98314   2.590  11.166  14.118
25247W        W98315  23.629  26.069   3.600
25248W        W98316   0.034  10.480  12.987
25249W        W98317   6.249  42.873  10.575
25250W        W98318  25.140  33.627  12.289
25251W        W98319   5.765  28.539   4.948
25252W        W98320  43.806  12.827   2.678
25253W        W98321   8.104  41.102   3.623
25254W        W98322  41.937  35.590   0.378
25255W        W98323   0.810  44.568  14.552
25256W        W98324  38.586  26.461  14.814
25257W        W98325  42.783  34.483  11.118
25258W        W98326  29.746   5.341   2.758
25259W        W98327   7.686   4.480   4.080
25260W        W98328  38.035  26.496   3.373
25261W        W98329  26.278  13.310  13.948
25262W        W98330  34.609  33.046   1.376
25263W        W98331  19.727  40.527  13.580
25264W        W98332  43.702  21.205  12.523
25265W        W98333   9.823   1.953  10.685
25266W        W98334   4.808  28.134   3.220
25267W        W98335   3.311  29.204  13.088
25268W        W98336  12.761   0.298  14.316
25269W        W98337   0.758  31.012   4.262
25270W        W98338  43.050  10.226   2.210
25271W        W98339  37.548   5.202  11.531
25272W        W98340   9.692   2.026  14.348
25273W        W98341  26.023   5.815   0.885
25274W        W98342   8.610  20.228  13.656
25275W        W98343  14.276   4.307  11.237
25276W        W98344  12.832  28.172  13.559
25277W        W98345  16.241  17.097  14.034
25278W        W98346  32.734  24.804  11.206
25279W        W98347  16.536  33.792  14.510
25280W        W98348  23.075   3.937   2.217
25281W        W98349  35.831  27.143   1.772
25282W        W98350   6.248   0.003   4.627
25283W        W98351  13.681  29.914   4.720
25284W        W98352  43.395  27.915  12.469
25285W        W98353  21.914  23.131  12.874
25286W        W98354  20.014  10.330   2.343
25287W        W98355  29.853  28.089   2.874
25288W        W98356  26.893   1.861  11.334
25289W        W98357  34.017  20.880   4.037
25290W        W98358  29.931  10.890   1.635
25291W        W98359   6.419  42.755   4.778
25292W        W98360  20.941  38.272   1.366
25293W        W98361  22.863   2.798  14.337
25294W        W98362  39.119  10.803   1.779
25295W        W98363  44.265  26.568  12.387
25296W        W98364  23.879  23.917  14.566
25297W        W98365   7.176  43.875  11.655
25298W        W98366  12.718  28.478  11.629
25299W        W98367  22.553   1.211   4.776
25300W        W98368  40.397  36.521  14.978
25301W        W98369  17.711  20.721   4.114
25302W        W98370  15.672  31.385   3.738
25303W        W98371  33.624  14.473   0.949
25304W        W98372  27.165  19.313  10.636
25305W        W98373  44.524  40.996   3.266
25306W        W98374   1.746  16.799  10.931
25307W        W98375  37.071  38.521  10.584
25308W        W98376  28.103  12.275  14.341
25309W        W98377  34.642  25.296  11.271
25310W        W98378  28.517   6.654  10.778
25311W        W98379   2.763   4.028  12.999
25312W        W98380  10.790  15.052   3.557
25313W        W98381   9.859  39.600  14.623
25314W        W98382  33.018  21.935   0.814
25315W        W98383   4.281  32.173  10.387
25316W        W98384   5.031  14.766  11.080
25317W        W98385  36.707  42.419  13.829
25318W        W98386  12.308   7.232  11.935
25319W        W98387  12.135  25.971  13.367
25320W        W98388  13.395  13.081   1.853
25321W        W98389  17.193   2.725   2.139
25322W        W98390   1.606   4.656  14.835
25323W        W98391  27.130   0.208  12.653
25324W        W98392   3.553  17.931   1.888
25325W        W98393   8.917  43.840   1.299
25326W        W98394  32.579  29.917  10.542
25327W        W98395  17.495   6.947   0.243
25328W        W98396  24.526   4.972   0.330
25329W        W98397   2.735  37.196   1.358
25330W        W98398  16.024  13.803  13.075
25331W        W98399   7.237  23.075  12.620
25332W        W98400   7.060  24.607  11.439
25333W        W98401  24.428   7.773  14.014
25334W        W98402  24.858  10.538  12.927
25335W        W98403   7.571  44.323   3.048
25336W        W98404  33.113  16.162   1.975
25337W        W98405  24.471  29.495   1.260
25338W        W98406   3.768  26.975   1.870
25339W        W98407  31.973   5.377  14.375
25340W        W98408  14.142  42.884   0.655
25341W        W98409   2.301  27.542  13.955
25342W        W98410  10.322  33.912   4.608
25343W        W98411   5.423   8.957  13.384
25344W        W98412  44.218  24.552  10.617
25345W        W98413  44.748   8.753   4.959
25346W        W98414   9.367  44.677  11.635
25347W        W98415   3.413  33.894  10.657
25348W        W98416  35.923  22.480  11.120
25349W        W98417  29.012  20.996  11.180
25350W        W98418  40.120  34.417  11.831
25351W        W98419   5.265  17.754   3.813
25352W        W98420  41.811  38.879  14.881
25353W        W98421  18.300   5.700  13.866
25354W        W98422   8.761  35.553   4.059
25355W        W98423  20.715  19.209   3.238
25356W        W98424  37.357  17.534   0.738
25357W        W98425  28.560  41.850  14.530
25358W        W98426  23.759  32.384   2.244
25359W        W98427  27.657  27.228   1.523
25360W        W98428  43.791  13.091   3.188
25361W        W98429  20.490  41.045  14.332
25362W        W98430  22.249  12.003  11.123
25363W        W98431  34.763  39.618  11.198
25364W        W98432  35.796  28.408   2.515
25365W        W98433  19.536  29.077   1.716
25366W        W98434   4.209  27.872   4.652
25367W        W98435   9.894   6.151   3.648
25368W        W98436   7.262   9.462  11.864
25369W        W98437  13.228  15.844  12.397
25370W        W98438   7.712  24.199  13.959
25371W        W98439  30.497   2.706   0.936
25372W        W98440  38.244  34.054   3.534
25373W        W98441  14.607  23.069  14.291
25374W        W98442   5.450  24.379  11.449
25375W        W98443   3.931   6.774   2.752
25376W        W98444  32.482   8.663   2.420
25377W        W98445  11.547  28.187   4.587
25378W        W98446  18.839  32.302   2.419
25379W        W98447  28.434  23.434   3.745
25380W        W98448  13.655   0.733  11.065
25381W        W98449  43.575  13.992   2.609
25382W        W98450   3.704  10.587  12.069
25383W        W98451  44.240  15.131  11.590
25384W        W98452  42.805  15.473   0.657
25385W        W98453  16.226  25.532   4.344
25386W        W98454  28.901   1.782   0.349
25387W        W98455  16.403  24.428  11.155
25388W        W98456   7.693  42.759  12.945
25389W        W98457  25.165  13.113  13.446
25390W        W98458   7.081  19.564  14.910
25391W        W98459  25.515  28.232   1.189
25392W        W98460  24.241   1.381  14.073
25393W        W98461  40.885  38.638  13.395
25394W        W98462  16.085   1.675  14.275
25395W        W98463  44.277  11.403  12.458
25396W        W98464  37.817  34.476   1.070
25397W        W98465  25.171  30.489  12.207
25398W        W98466  38.493  10.948   2.827
25399W        W98467  43.801  25.433   2.084
25400W        W98468  13.150   1.989  11.172
25401W        W98469  12.296  42.813   2.291
25402W        W98470   7.630  10.349  10.743
25403W        W98471   8.269  14.193  13.756
25404W        W98472  23.718  33.162  13.436
25405W        W98473  15.662  10.655  11.643
25406W        W98474  41.177   4.666  12.051
25407W        W98475  15.113  12.773  12.910
25408W        W98476   3.580  13.204  11.671
25409W        W98477  39.550   9.316  11.584
25410W        W98478  39.312  16.103  11.158
25411W        W98479  36.419  20.268   1.502
25412W        W98480  36.297  36.343  14.962
25413W        W98481  13.244   7.738   0.136
25414W        W98482   1.859  25.173   4.746
25415W        W98483  41.267   2.905   2.466
25416W        W98484  41.516  17.483   3.304
25417W        W98485   1.000  40.067   4.116
25418W        W98486  24.000  40.402   1.785
25419W        W98487  33.246  12.285   3.579
25420W        W98488  16.307  31.392  10.719
25421W        W98489  22.646  13.091  11.611
25422W        W98490  39.844  41.546  13.829
25423W        W98491  43.735  19.317   3.221
25424W        W98492  11.609  33.329  14.101
25425W        W98493  43.482  19.470   2.749
25426W        W98494  15.139   3.248   3.752
25427W        W98495  21.665  35.199   3.180
25428W        W98496  35.838  15.651   2.926
25429W        W98497  36.978   5.356  10.504
25430W        W98498  22.829  32.847   0.921
25431W        W98499   8.829  18.075   4.115
25432W        W98500   2.280  32.868   3.675
25433W        W98501  31.641  41.804  13.777
25434W        W98502  11.750  35.029   4.635
25435W        W98503  15.583  26.922   0.694
25436W        W98504   8.173  44.286  14.927
25437W        W98505  16.818  32.081   3.379
25438W        W98506  30.216  38.351  13.340
25439W        W98507   8.049  15.809   2.374
25440W        W98508  17.583  33.003   3.625
25441W        W98509  36.587  21.542  14.819
25442W        W98510  34.809  26.638   2.826
25443W        W98511  10.055  29.010  10.620
25444W        W98512  43.493   5.189   1.515
25445W        W98513  27.447  17.793   2.669
25446W        W98514  31.027  20.456  11.650
25447W        W98515  44.463  32.382  10.580
25448W        W98516  20.703  26.912  14.995
25449W        W98517   3.477  25.279  11.497
25450W        W98518  30.669  10.432   1.829
25451W        W98519  16.734  11.558   3.282
25452W        W98520   8.873  20.605   4.913
25453W        W98521  38.537  13.112   5.182
25454W        W98522   8.968   7.841   1.494
25455W        W98523  11.306   2.223   3.617
25456W        W98524  18.449  36.999   1.855
25457W        W98525  27.876  42.967   0.270
25458W        W98526  29.619  31.537   2.805
25459W        W98527   9.326  13.606  14.324
25460W        W98528  16.670  29.486   4.034
25461W        W98529  34.526  11.544  12.747
25462W        W98530  33.888  39.466  11.208
25463W        W98531  29.058  23.435   2.383
25464W        W98532  36.733  24.036   2.296
25465W        W98533  13.258   6.361   1.518
25466W        W98534  22.605  22.965   1.377
25467W        W98535  42.703   0.260   0.939
25468W        W98536  31.922  37.024  13.866
25469W        W98537  40.896  37.625  13.162
25470W        W98538  16.974  18.120   4.228
25471W        W98539  16.229  11.096   4.867
25472W        W98540  25.175  28.584   2.852
25473W        W98541   7.248   7.467  14.148
25474W        W98542  30.907  11.869  11.553
25475W        W98543  43.360  19.192  14.921
25476W        W98544  43.269  27.396  12.436
25477W        W98545   7.231  12.283  13.820
25478W        W98546  40.360  19.091  12.239
25479W        W98547   3.252  41.873   0.519
25480W        W98548  23.451   1.356  10.752
25481W        W98549  44.274  26.298   2.334
25482W        W98550  35.540  35.343   1.605
25483W        W98551  41.015  13.671  11.660
25484W        W98552  24.133  39.857  11.950
25485W        W98553  37.476   0.942   4.762
25486W        W98554  15.801  32.038   3.178
25487W        W98555   8.905  28.066  14.837
25488W        W98556  42.367  21.779  13.519
25489W        W98557   7.443  30.099   0.207
25490W        W98558  12.619  23.144  10.629
25491W        W98559  29.110  27.595   2.488
25492W        W98560  38.290   7.172   3.980
25493W        W98561  10.450  42.034  12.601
25494W        W98562   6.338   0.005   0.698
25495W        W98563  15.632  30.394   1.899
25496W        W98564  24.158  44.064   2.288
25497W        W98565  13.353  26.978  11.190
25498W        W98566   2.711  18.785   2.311
25499W        W98567  36.899  31.276  14.249
25500W        W98568  17.059  27.547  10.711
25501W        W98569   2.778  11.274   2.938
25502W        W98570  25.802  12.777   2.200
25503W        W98571   5.677   7.891   3.389
25504W        W98572   3.802  10.789   3.593
25505W        W98573   9.159   6.441   2.635
25506W        W98574   0.372  24.471   1.749
25507W        W98575  23.602   1.146  12.521
25508W        W98576  23.145   2.964  13.816
25509W        W98577  34.854  10.797  13.302
25510W        W98578  43.874   9.289   0.253
25511W        W98579  41.030  24.594  13.474
25512W        W98580  17.672   7.140  14.766
25513W        W98581   0.130  17.843   0.730
25514W        W98582  31.061  25.261   5.167
25515W        W98583  37.868  29.394  12.006
25516W        W98584   3.390  12.375   3.335
25517W        W98585  38.598   6.684  10.152
25518W        W98586  40.037   2.811  12.057
25519W        W98587  24.412  10.622  11.834
25520W        W98588  25.483  34.149   2.464
25521W        W98589   1.223   5.931   2.183
25522W        W98590   3.842  15.243  11.658
25523W        W98591  39.389  43.512  13.878
25524W        W98592  18.102  25.102  10.735
25525W        W98593  41.676  30.297   4.144
25526W        W98594   4.644  14.098   2.193
25527W        W98595  22.326  22.959   2.647
25528W        W98596  28.855  43.087   1.394
25529W        W98597  18.678  25.935  14.541
25530W        W98598  41.034  32.126  11.375
25531W        W98599   3.897  36.939   4.679
25532W        W98600  19.748  40.260   3.744
25533W        W98601  12.345  41.214  11.525
25534W        W98602  17.755  26.959  13.877
25535W        W98603  22.212  17.103  11.584
25536W        W98604  20.304  24.420   0.062
25537W        W98605  30.648  21.765  14.795
25538W        W98606   8.316  33.869   2.446
25539W        W98607  12.806  14.473   0.847
25540W        W98608   8.784  35.667  13.418
25541W        W98609   9.875  16.619  13.391
25542W        W98610  35.837  22.184  10.674
25543W        W98611  21.728  43.472   5.076
25544W        W98612  38.400   7.757  13.502
25545W        W98613  13.165  36.894   4.326
25546W        W98614  38.115  11.439   4.150
25547W        W98615  25.461  35.999   2.402
25548W        W98616  25.783  23.608   2.161
25549W        W98617  13.231  39.804   2.161
25550W        W98618  37.115  30.161  13.078
25551W        W98619  11.573  11.833  11.489
25552W        W98620  42.027  23.775  14.403
25553W        W98621  22.311  11.385   2.316
25554W        W98622  15.303  38.529   3.675
25555W        W98623  11.120   3.508  14.052
25556W        W98624   9.247   7.197  10.631
25557W        W98625  32.339  25.357   5.048
25558W        W98626   7.075  27.865   3.673
25559W        W98627   2.971  18.672   3.622
25560W        W98628  14.622  13.135   1.657
25561W        W98629  31.522  24.516   2.375
25562W        W98630  26.104  27.221  12.023
25563W        W98631   5.813  36.642  10.697
25564W        W98632  16.653  35.327   3.228
25565W        W98633   1.991  10.304   1.710
25566W        W98634  18.954  23.175   2.253
25567W        W98635  25.777   8.842  12.982
25568W        W98636  15.526  38.264  12.442
25569W        W98637   2.409  42.351   0.358
25570W        W98638   5.772  38.754  12.975
25571W        W98639   5.865   1.800   3.234
25572W        W98640  10.332  18.715  14.764
25573W        W98641  41.960   6.190   0.460
25574W        W98642   1.567  27.087   2.614
25575W        W98643  28.531  43.046  12.981
25576W        W98644  22.451  44.000   3.259
25577W        W98645  27.990  29.622   0.606
25578W        W98646  32.253  41.207   3.835
25579W        W98647   6.079   8.649   1.399
25580W        W98648  34.672  16.802  13.753
25581W        W98649   5.394  17.257  11.893
25582W        W98650  21.825  16.583   3.747
25583W        W98651  21.448   0.349   0.354
25584W        W98652  43.835  40.254  11.998
25585W        W98653   9.229  38.119   1.431
25586W        W98654   9.773   7.013   2.638
25587W        W98655  11.003  18.829  13.769
25588W        W98656   8.888  42.062   4.616
25589W        W98657   5.919  18.245   1.913
25590W        W98658  40.863  33.199   3.453
25591W        W98659  25.380  26.705  14.431
25592W        W98660  18.118  10.839   2.349
25593W        W98661  44.927  31.598  13.357
25594W        W98662  33.570   0.864  13.047
25595W        W98663  18.705  17.058   0.383
25596W        W98664  23.116  17.306  10.681
25597W        W98665  43.421  26.809   5.054
25598W        W98666  41.963  33.986  14.418
25599W        W98667   3.261  20.724   2.673
25600W        W98668  19.792  14.745  11.089
25601W        W98669  12.907  36.815  14.279
25602W        W98670  24.987  18.182   2.364
25603W        W98671  11.760  33.332   3.831
25604W        W98672   5.778  22.210  14.034
25605W        W98673  22.551  11.578  11.151
25606W        W98674  29.200  27.155  14.031
25607W        W98675  20.623  33.072  14.878
25608W        W98676  39.512  24.938   3.746
25609W        W98677   9.266  25.534  10.595
25610W        W98678  19.034  35.381   4.211
25611W        W98679  28.112  18.626   1.884
25612W        W98680  41.949   1.014  13.599
25613W        W98681   1.815  41.836  14.972
25614W        W98682  31.845  20.575   0.922
25615W        W98683   3.827  43.988   4.172
25616W        W98684  37.284  39.010   1.702
25617W        W98685  34.496  21.001   1.030
25618W        W98686  35.780   1.280   4.405
25619W        W98687  26.965   2.855  12.852
25620W        W98688   0.408  15.660  10.527
25621W        W98689  41.512  33.469   2.099
25622W        W98690  25.719   5.391   0.908
25623W        W98691  16.065  40.458  10.762
25624W        W98692   9.271  13.867  11.418
25625W        W98693  18.443  43.931   1.000
25626W        W98694  44.980  28.953   1.824
25627W        W98695  36.441  30.962  12.008
25628W        W98696  27.354   6.608   3.038
25629W        W98697  36.568  18.050   2.175
25630W        W98698  16.118  26.305   0.352
25631W        W98699  42.481   3.413   3.714
25632W        W98700  17.135  28.564  12.053
25633W        W98701  41.019   1.452   2.792
25634W        W98702  22.910  24.818  13.054
25635W        W98703  10.269  38.580  10.190
25636W        W98704   5.801  13.647   4.230
25637W        W98705  40.596  34.455  13.172
25638W        W98706  10.144  27.547  14.745
25639W        W98707  36.093  18.013  12.909
25640W        W98708  31.080  25.937  11.846
25641W        W98709   1.297   5.925  12.523
25642W        W98710  10.178  20.608   3.671
25643W        W98711  13.694  12.564  13.405
25644W        W98712  37.865   0.357  12.247
25645W        W98713  16.691  31.602  12.481
25646W        W98714  25.437  38.440  12.936
25647W        W98715  41.235  33.492  12.538
25648W        W98716   2.760  10.887   1.213
25649W        W98717   4.880  12.560   0.482
25650W        W98718  34.217  30.472   2.339
25651W        W98719  10.219  21.983  13.332
25652W        W98720   1.902  28.036   1.324
25653W        W98721   3.565  31.184  11.126
25654W        W98722  24.414  20.532  13.596
25655W        W98723   0.305   1.489   1.465
25656W        W98724  14.517  22.531   1.364
25657W        W98725  16.075  36.876   2.082
25658W        W98726  42.267  33.890   4.990
25659W        W98727  29.771  13.818   4.679
25660W        W98728  15.226  17.148   3.137
25661W        W98729   5.224  13.970   0.376
25662W        W98730  27.519   8.621   0.484
25663W        W98731  11.972  44.692   4.588
25664W        W98732  28.997   6.892  11.646
25665W        W98733   4.888   1.360  14.334
25666W        W98734  15.715  18.809  12.983
25667W        W98735   5.317  27.949  13.883
25668W        W98736  41.720   6.192   0.935
25669W        W98737   4.944  40.122   3.251
25670W        W98738  37.620  15.654   0.951
25671W        W98739  23.230  43.436   4.129
25672W        W98740  41.253  26.421   9.815
25673W        W98741  20.239  12.504   4.142
25674W        W98742  22.855  10.660  11.991
25675W        W98743  18.707  16.121   4.624
25676W        W98744  25.680  39.488   0.691
25677W        W98745  44.227  28.687  14.336
25678W        W98746  35.364  35.783  13.906
25679W        W98747  14.721  25.138   1.872
25680W        W98748  26.703  10.187   0.750
25681W        W98749  11.223  42.287  14.776
25682W        W98750   8.999  44.940   2.662
25683W        W98751   1.350  29.571   2.761
25684W        W98752  42.537  18.785   0.342
25685W        W98753  34.391  37.930   0.842
25686W        W98754  26.447   7.197   1.614
25687W        W98755  19.260  38.358   0.349
25688W        W98756   8.298  39.570   1.936
25689W        W98757   2.249  32.554   1.856
25690W        W98758  20.166  21.939  10.197
25691W        W98759   8.768  41.046   1.808
25692W        W98760  13.885  17.173   0.350
25693W        W98761   4.783   7.216  10.908
25694W        W98762  13.251   7.831   1.780
25695W        W98763  24.742  15.419   2.640
25696W        W98764   6.095   8.154  10.286
25697W        W98765  11.576  22.892  10.367
25698W        W98766  25.946  42.478  12.455
25699W        W98767   5.424  36.354  12.442
25700W        W98768  13.264  35.531   1.435
25701W        W98769  23.682  13.300   4.815
25702W        W98770  35.964  38.626  11.601
25703W        W98771  22.087  38.593  10.667
25704W        W98772   2.676  16.970  13.769
25705W        W98773  29.502  25.252   4.943
25706W        W98774  10.693  13.634   2.767
25707W        W98775  22.970  19.330   1.286
25708W        W98776  25.353  29.648   0.865
25709W        W98777  17.661   0.099  10.698
25710W        W98778  31.956   4.862   1.371
25711W        W98779   4.221   5.926   3.240
25712W        W98780  13.127   4.730   4.809
25713W        W98781  19.114  26.385  14.844
25714W        W98782  40.565   8.487   4.155
25715W        W98783  26.737  37.773   1.719
25716W        W98784  38.971  21.202   3.771
25717W        W98785  24.482  34.119  12.063
25718W        W98786   8.945  18.454   1.941
25719W        W98787   0.301  23.446  14.127
25720W        W98788  15.563  15.881  13.746
25721W        W98789   3.259  41.179  10.209
25722W        W98790  36.149   1.564   3.301
25723W        W98791  23.006   3.754   1.333
25724W        W98792  23.241  20.286   1.560
25725W        W98793  36.067  10.449  10.193
25726W        W98794  32.097   7.137  14.917
25727W        W98795  30.943   7.704  10.668
25728W        W98796  36.359  43.212   1.127
25729W        W98797  20.075  28.455  12.357
25730W        W98798  36.177  30.570   1.486
25731W        W98799  38.440  16.836  13.617
25732W        W98800  42.047  33.536   1.175
25733W        W98801  14.104   0.525   0.810
25734W        W98802  23.144   8.351  12.871
25735W        W98803  15.572  25.384   3.442
25736W        W98804  25.114  20.172  12.134
25737W        W98805  11.094   2.511  13.772
25738W        W98806  15.463  23.720   3.755
25739W        W98807  15.784  42.902   2.275
25740W        W98808  16.902  32.721   0.362
25741W        W98809  17.528   6.060   4.190
25742W        W98810  18.864  30.146  13.922
25743W        W98811  42.218   5.348   4.641
25744W        W98812  17.178  34.184   3.603
25745W        W98813  26.575  42.777  13.620
25746W        W98814  29.481  11.399  13.044
25747W        W98815   7.390  20.693   2.385
25748W        W98816  31.022  21.970   4.203
25749W        W98817  20.602  26.125   3.325
25750W        W98818   9.233  22.226  12.149
25751W        W98819  30.203   1.766   0.316
25752W        W98820  18.612  42.033  14.491
25753W        W98821  23.116  33.375  10.495
25754W        W98822  22.167   2.315   0.806
25755W        W98823   6.102  28.702   1.940
25756W        W98824  33.525  37.830  12.200
25757W        W98825  23.725  40.369  13.850
25758W        W98826   6.932  14.482  13.956
25759W        W98827  44.990  19.616   3.702
25760W        W98828   3.724   1.184  13.385
25761W        W98829  12.810  23.183   2.311
25762W        W98830  43.239  20.008   3.702
25763W        W98831  11.096  16.294  12.228
25764W        W98832  17.501  27.462   0.409
25765W        W98833  12.834  42.140   2.304
25766W        W98834  22.560  10.093  11.143
25767W        W98835  19.285  30.490   2.481
25768W        W98836  40.318   7.911   5.515
25769W        W98837  41.345  29.201   1.169
25770W        W98838   5.182   2.931   2.760
25771W        W98839  32.383  33.282   3.628
25772W        W98840  15.638  10.105  12.667
25773W        W98841   7.511  44.758  12.699
25774W        W98842  28.609  12.726  14.990
25775W        W98843  16.121  31.666   1.838
25776W        W98844  28.413   2.275   0.237
25777W        W98845  44.945  21.256   4.501
25778W        W98846  43.243  24.194  11.077
25779W        W98847  13.717  32.576   1.702
25780W        W98848  32.614  29.036  10.595
25781W        W98849  12.866  22.741   0.441
25782W        W98850  10.624  32.708  12.097
25783W        W98851   7.805  20.807   4.377
25784W        W98852  23.211  35.544   4.229
25785W        W98853   7.645  15.628  14.045
25786W        W98854  17.593  20.429   2.670
25787W        W98855  11.144  15.105   4.859
25788W        W98856  11.246   4.987  13.888
25789W        W98857   1.916  34.268  12.409
25790W        W98858  33.876  39.993  12.863
25791W        W98859  13.675  32.528  12.040
25792W        W98860  44.247  42.678  14.804
25793W        W98861  17.650   5.123   4.242
25794W        W98862  25.605   6.269   1.350
25795W        W98863  28.714   1.644   4.619
25796W        W98864  42.982  10.520  14.807
25797W        W98865  26.019  10.054   4.686
25798W        W98866   2.194  41.031  12.847
25799W        W98867  28.410  41.581  11.589
25800W        W98868  42.738  32.518  12.646
25801W        W98869  42.270  38.636   0.734
25802W        W98870  19.139   2.209   2.280
25803W        W98871   6.937  14.125   1.898
25804W        W98872  42.244  18.756  13.743
25805W        W98873  42.858  36.551   4.607
25806W        W98874   7.721  23.410  10.664
25807W        W98875  40.352  28.602   1.390
25808W        W98876   5.441  32.266  12.988
25809W        W98877  23.107   0.951   1.415
25810W        W98878   5.267  13.885  14.377
25811W        W98879  18.113  40.372  11.123
25812W        W98880  29.590  16.741   3.701
25813W        W98881   9.774  29.579   1.610
25814W        W98882  38.561  25.593  13.062
25815W        W98883  15.276   5.715  11.081
25816W        W98884  40.781  11.911  10.658
25817W        W98885  37.252  25.433   4.019
25818W        W98886  17.801  16.503  14.335
25819W        W98887   2.259   3.543  13.260
25820W        W98888  37.955  29.560   2.437
25821W        W98889   2.473  20.459   0.522
25822W        W98890  23.224   1.252   4.173
25823W        W98891  35.587  29.963   1.209
25824W        W98892  24.927  33.989  13.887
25825W        W98893   6.282   4.843   5.003
25826W        W98894  24.952  41.699  12.350
25827W        W98895   8.852  23.551  14.028
25828W        W98896  27.567  42.830   2.997
25829W        W98897  38.350  13.462  14.387
25830W        W98898  30.386   1.109   0.009
25831W        W98899  27.755  37.063  10.798
25832W        W98900  30.000  17.309  10.470
25833W        W98901  24.506   6.772   0.652
25834W        W98902  16.261  38.784  10.948
25835W        W98903  37.875   5.002   4.521
25836W        W98904  28.528  33.040   0.904
25837W        W98905  35.644   4.305   0.485
25838W        W98906  13.843  38.985   2.678
25839W        W98907  20.613  36.484  12.484
25840W        W98908  40.113  43.449   3.737
25841W        W98909  44.770  21.068  12.594
25842W        W98910  26.199  24.988   2.286
25843W        W98911  33.781  17.029  10.761
25844W        W98912  43.468  41.796   0.404
25845W        W98913  41.915  14.726  13.971
25846W        W98914  31.115  23.633   5.085
25847W        W98915  20.167  26.639  11.214
25848W        W98916  36.652  12.377  11.897
25849W        W98917  42.486  36.621  11.050
25850W        W98918  35.344  44.759   1.852
25851W        W98919  36.342  10.725  14.749
25852W        W98920  33.575   3.351  14.269
25853W        W98921   6.943  29.601  11.597
25854W        W98922  42.945  36.429   0.001
25855W        W98923  26.142  36.108  11.561
25856W        W98924  20.748  27.035  14.088
25857W        W98925  36.170  34.874   2.896
25858W        W98926  17.994  43.505   2.325
25859W        W98927  21.216  41.727  13.625
25860W        W98928  34.975  17.659  11.630
25861W        W98929  11.641  29.445   2.881
25862W        W98930  22.616  41.110  12.482
25863W        W98931  41.193  28.947   4.114
25864W        W98932  15.768   3.499  11.033
25865W        W98933   3.952  27.716  14.413
25866W        W98934  29.201  17.244  10.667
25867W        W98935   7.141  30.259   2.571
25868W        W98936  33.233  44.538   0.292
25869W        W98937  22.434  13.885   1.771
25870W        W98938   3.231  27.601  11.302
25871W        W98939  13.519  19.150   4.295
25872W        W98940  22.413  19.173  14.879
25873W        W98941  32.904  18.714  13.523
25874W        W98942  18.475  15.506  13.024
25875W        W98943  44.319  38.076  11.948
25876W        W98944  26.469  20.831   4.086
25877W        W98945  21.657  19.700  11.624
25878W        W98946   0.312  12.340   1.180
25879W        W98947  29.126  42.449   0.292
25880W        W98948  21.739  22.455   0.728
25881W        W98949  25.554  37.946   9.871
25882W        W98950  26.680  37.041  11.604
25883W        W98951  23.965  11.874  10.340
25884W        W98952  18.507   9.753  12.550
25885W        W98953  37.827   3.279  10.811
25886W        W98954  43.575   3.013  10.240
25887W        W98955  18.982   1.186  14.217
25888W        W98956  37.854  29.196  12.488
25889W        W98957   4.910  22.739  10.944
25890W        W98958  38.541  43.553   3.137
25891W        W98959  31.729  44.048  11.101
25892W        W98960   0.381  11.719   2.898
25893W        W98961   5.998  33.287   4.551
25894W        W98962   3.729   0.671  13.442
25895W        W98963  40.381  18.849   0.876
25896W        W98964  39.323  29.636   4.171
25897W        W98965  33.413  25.002   0.818
25898W        W98966  22.223  14.823   2.601
25899W        W98967  11.570   0.867   0.213
25900W        W98968   9.974  32.097   2.682
25901W        W98969  33.074  36.316  11.595
25902W        W98970  36.549  18.325   4.128
25903W        W98971  12.162  29.675  10.768
25904W        W98972  12.994  12.057  11.530
25905W        W98973  23.695  42.835   4.451
25906W        W98974   4.129  24.471   2.835
25907W        W98975  25.986  18.989   3.756
25908W        W98976  27.016   7.904  13.887
25909W        W98977  25.455  22.017   3.333
25910W        W98978  18.000  21.118  12.446
25911W        W98979  23.235   3.423   2.211
25912W        W98980  38.360  41.051  13.777
25913W        W98981  42.049  10.628  14.337
25914W        W98982   4.445  15.699   2.425
25915W        W98983  14.702  30.801  14.842
25916W        W98984  19.575  44.422   0.423
25917W        W98985   7.911  30.354   1.283
25918W        W98986  18.631  16.566   3.148
25919W        W98987  28.148  31.040  12.398
25920W        W98988  29.218  25.108   0.892
25921W        W98989  40.164  27.005   2.693
25922W        W98990  30.527  22.792   1.829
25923W        W98991   6.429  27.041  13.650
25924W        W98992  10.178  19.344  13.790
25925W        W98993  30.615  24.665  14.316
25926W        W98994  37.975  10.239   0.682
25927W        W98995   5.294  30.017   3.436
25928W        W98996  10.331  18.806   1.850
25929W        W98997  32.048  18.756   3.724
25930W        W98998  31.809  34.167   1.380
25931W        W98999   3.896  40.304   2.334
25932W        W99000  17.278   7.713   1.729
25933W        W99001  30.140  12.219  14.450
25934W        W99002  16.853  10.918  14.785
25935W        W99003  44.506   7.956   3.342
25936W        W99004  36.581  43.516   1.488
25937W        W99005  18.618  16.376   4.178
25938W        W99006  25.140  28.360  13.421
25939W        W99007  28.223  38.058   3.645
25940W        W99008  39.292  16.875  13.045
25941W        W99009  25.116  43.751  13.161
25942W        W99010  36.620  36.381   0.373
25943W        W99011  15.062  38.055  11.527
25944W        W99012   6.717   5.692  12.662
25945W        W99013  25.386   9.890  12.064
25946W        W99014  20.625  43.793   5.160
25947W        W99015  21.096  33.083   3.286
25948W        W99016  27.012   9.667  10.735
25949W        W99017   6.930   1.385  12.006
25950W        W99018   5.541  34.468  13.512
25951W        W99019  28.395  38.862  14.914
25952W        W99020  11.088  26.591  14.783
25953W        W99021  35.920  16.277   1.643
25954W        W99022  29.109  17.512  14.271
25955W        W99023  12.338   1.955   3.836
25956W        W99024   4.437  14.291  14.312
25957W        W99025  22.056  15.745   2.383
25958W        W99026  19.277  26.587   2.600
25959W        W99027  39.786  21.971  10.668
25960W        W99028  31.882  18.153  12.065
25961W        W99029  15.016  23.544  14.856
25962W        W99030  10.623  24.527   4.300
25963W        W99031  28.683  17.168  14.794
25964W        W99032   6.493  37.432   1.424
25965W        W99033   3.693  38.534  12.436
25966W        W99034  25.005  42.219  12.421
25967W        W99035  34.404   8.546  11.703
25968W        W99036  40.571  35.190   4.645
25969W        W99037  18.497  10.831   1.239
25970W        W99038   7.188  12.285  11.860
25971W        W99039  14.535   1.305   2.232
25972W        W99040   8.275  17.645   3.407
25973W        W99041  39.045   6.319  10.716
25974W        W99042  28.774  17.775   2.852
25975W        W99043  27.492  19.623   2.820
25976W        W99044  13.717   7.289   0.788
25977W        W99045  40.303  37.552   4.163
25978W        W99046  23.049   1.460   0.445
25979W        W99047   4.014  24.119  11.217
25980W        W99048  13.538  35.562  11.987
25981W        W99049   9.843  37.839  13.350
25982W        W99050  40.843  26.466   1.373
25983W        W99051  42.445   1.354   0.382
25984W        W99052  27.937  11.415  11.191
25985W        W99053  43.247   5.884   0.176
25986W        W99054   2.657  14.576  11.561
25987W        W99055  31.490   4.907   1.905
25988W        W99056  20.657  42.567  10.746
25989W        W99057  31.520  17.590   2.919
25990W        W99058   3.466  12.232   0.373
25991W        W99059   3.525  24.555  11.964
25992W        W99060  21.134  34.318   2.420
25993W        W99061  23.126  40.685   0.436
25994W        W99062   1.676  18.064  12.960
25995W        W99063   9.162  43.462  12.173
25996W        W99064  44.447  17.216   1.457
25997W        W99065  23.142   7.721  11.307
25998W        W99066  33.044  18.610   4.668
25999W        W99067  36.934  10.518   0.842
26000W        W99068  27.183  36.123   4.050
26001W        W99069  19.000   3.015  10.771
26002W        W99070  41.894  35.321  14.444
26003W        W99071  21.615   2.765  13.999
26004W        W99072  36.799  36.384   2.742
26005W        W99073  44.402  26.140  14.051
26006W        W99074  14.463  25.256   4.622
26007W        W99075  12.582  26.083   2.396
26008W        W99076   4.461   9.624  12.428
26009W        W99077  26.429  42.064   2.865
26010W        W99078  40.022  16.343   4.362
26011W        W99079  18.831  31.168  13.940
26012W        W99080  10.564   0.905  10.429
26013W        W99081  44.213  26.552  14.746
26014W        W99082  25.500  37.784   1.244
26015W        W99083  32.762  28.138  14.811
26016W        W99084  34.851  29.665  12.008
26017W        W99085  41.320  23.000  12.932
26018W        W99086  29.240   6.742   4.791
26019W        W99087  36.089  36.098   2.245
26020W        W99088  39.733  44.786   3.694
26021W        W99089  21.982  14.808   1.752
26022W        W99090  33.366  24.437  14.365
26023W        W99091  17.700  44.327  13.963
26024W        W99092  25.992   3.487   2.318
26025W        W99093  33.817   4.955  13.638
26026W        W99094  29.028  35.152  13.304
26027W        W99095  38.804  18.055  11.115
26028W        W99096  16.959   3.183  12.119
26029W        W99097  24.205  26.626   0.564
26030W        W99098   7.862   0.733   3.977
26031W        W99099   2.005  18.179  14.870
26032W        W99100   8.392  32.922  11.222
26033W        W99101   6.925  23.128  11.656
26034W        W99102  31.090  14.033   1.484
26035W        W99103  17.819  10.663  10.999
26036W        W99104  17.136  24.586   2.741
26037W        W99105  15.873  42.913   4.226
26038W        W99106  10.595  28.545  12.596
26039W        W99107  17.773  23.587   3.198
26040W        W99108  21.819  34.555  11.462
26041W        W99109  32.590  22.765  11.105
26042W        W99110  24.997  35.171   1.511
26043W        W99111  29.405  13.704  12.431
26044W        W99112  41.403   2.421   1.826
26045W        W99113  11.756  10.846  14.856
26046W        W99114  36.035  38.574   4.727
26047W        W99115  26.425  14.352   4.300
26048W        W99116  14.364  36.402  14.227
26049W        W99117  10.620  10.919   2.723
26050W        W99118  42.539  26.991  10.630
26051W        W99119  18.755   3.396   2.768
26052W        W99120  27.921  38.947  10.681
26053W        W99121   2.837  16.752   2.255
26054W        W99122  27.490  17.095   3.235
26055W        W99123  20.527  43.385   5.486
26056W        W99124  36.377  24.691   1.372
26057W        W99125  44.831  34.186  11.091
26058W        W99126   0.453  17.142   0.443
26059W        W99127  26.616   4.881  13.300
26060W        W99128   1.864   4.759   4.953
26061W        W99129  35.152  23.894   1.554
26062W        W99130  19.302  16.039  12.103
26063W        W99131  37.980  44.403   4.740
26064W        W99132  35.560  13.188  11.640
26065W        W99133   7.206  33.391  10.754
26066W        W99134  44.118  14.679  11.852
26067W        W99135  33.609  26.724  12.167
26068W        W99136  13.723  10.400  11.732
26069W        W99137  19.249  36.852  14.428
26070W        W99138  40.822   3.678   4.646
26071W        W99139  32.902  11.931  14.745
26072W        W99140   2.755  35.633  11.339
26073W        W99141  22.969  27.222   0.521
26074W        W99142  20.264  39.277  13.019
26075W        W99143  28.469   5.162   2.215
26076W        W99144   2.263  40.540   4.219
26077W        W99145  43.560  18.706  12.428
26078W        W99146   0.042  24.130  11.631
26079W        W99147  12.732  11.095  12.728
26080W        W99148   6.474  20.377   2.817
26081W        W99149   6.593  41.186  10.705
26082W        W99150   0.393  18.154   0.297
26083W        W99151  35.315  14.984   2.937
26084W        W99152  17.641  30.444  11.083
26085W        W99153   0.855   4.455   0.891
26086W        W99154  41.459  14.226  10.618
26087W        W99155  37.754   3.687  12.130
26088W        W99156   3.945  42.732  14.737
26089W        W99157  44.296  12.578  10.687
26090W        W99158  42.307   1.458  14.636
26091W        W99159  29.290  30.427  14.865
26092W        W99160   9.400  34.418   3.639
26093W        W99161  39.972  20.789   3.833
26094W        W99162  31.901  15.435  13.872
26095W        W99163  27.717  16.056  11.562
26096W        W99164   7.694  25.542  14.959
26097W        W99165   1.005  10.825   2.953
26098W        W99166   8.292  12.171  14.690
26099W        W99167  12.153  22.675   0.089
26100W        W99168  26.458  37.579  13.974
26101W        W99169  39.942  35.665  13.801
26102W        W99170  39.510  43.755   0.911
26103W        W99171  33.649  27.902   0.046
26104W        W99172  38.534   7.277  11.175
26105W        W99173  20.023  19.050   4.027
26106W        W99174   7.484  29.550   4.707
26107W        W99175   4.244  34.958   4.506
26108W        W99176  42.268  43.748   5.052
26109W        W99177  15.307  12.307  14.851
26110W        W99178  28.277   5.266  11.652
26111W        W99179  23.294  21.498   0.092
26112W        W99180  37.532  10.378   3.250
26113W        W99181  35.945  18.827   3.170
26114W        W99182  25.255  44.534   4.580
26115W        W99183  38.862   9.934  10.578
26116W        W99184  10.412  29.174  13.777
26117W        W99185  26.702   7.144  12.083
26118W        W99186  23.733  21.998   0.876
26119W        W99187  13.244  43.351   4.517
26120W        W99188  28.042   0.719  13.221
26121W        W99189  40.704   7.179   3.713
26122W        W99190  10.108  16.572  11.112
26123W        W99191  18.509  31.408   3.329
26124W        W99192   4.461   0.248  13.756
26125W        W99193  44.918  31.138   1.824
26126W        W99194  10.811  32.850  11.210
26127W        W99195   3.883  10.035  14.607
26128W        W99196  20.631  18.260  13.296
26129W        W99197  42.769  28.169  11.176
26130W        W99198  15.135  19.563   0.311
26131W        W99199   7.647  27.241  11.330
26132W        W99200  37.371  11.375   3.163
26133W        W99201  30.251   7.269   3.630
26134W        W99202  32.221  16.129  13.211
26135W        W99203  16.836   7.672  10.489
26136W        W99204  40.084   6.920  13.746
26137W        W99205  28.230   5.082  12.956
26138W        W99206  10.286  26.067   2.841
26139W        W99207   1.973  37.448   3.186
26140W        W99208  27.639  12.688  13.265
26141W        W99209  21.122   1.422  11.555
26142W        W99210  40.062  19.280   0.888
26143W        W99211  42.939  20.001  12.554
26144W        W99212  13.268  34.954  14.602
26145W        W99213  26.974  21.368   4.109
26146W        W99214  40.355   9.873   3.926
26147W        W99215   2.189   8.669  14.458
26148W        W99216  42.323  15.949  14.906
26149W        W99217  25.625   5.982   1.771
26150W        W99218  37.989   7.285  10.485
26151W        W99219  38.819   0.589  11.265
26152W        W99220   0.662   3.302  11.680
26153W        W99221  29.224  16.089   1.733
26154W        W99222  12.551  35.381  13.099
26155W        W99223   2.973  15.593  13.695
26156W        W99224  41.868   8.767   1.274
26157W        W99225  10.314  23.519   1.503
26158W        W99226  24.418  16.216   2.234
26159W        W99227  21.669  18.354   1.293
26160W        W99228  31.502  44.326   3.310
26161W        W99229   7.974  12.878   4.252
26162W        W99230  13.057  34.631   3.178
26163W        W99231  36.146  21.639   0.060
26164W        W99232  32.012   7.651  14.521
26165W        W99233  41.857  24.720  10.793
26166W        W99234  29.414  13.281  11.554
26167W        W99235  22.933   3.971  12.667
26168W        W99236  37.438  12.373   3.341
26169W        W99237  12.147  26.238  11.518
26170W        W99238  21.745  18.661  10.725
26171W        W99239  27.513  14.140   1.107
26172W        W99240  27.425  23.502  14.803
26173W        W99241  25.738  10.373   1.117
26174W        W99242  11.231  37.770  14.035
26175W        W99243  18.532  23.277  10.847
26176W        W99244  27.284  35.922   1.802
26177W        W99245  13.824  21.222  12.382
26178W        W99246  18.281  22.911  11.122
26179W        W99247   9.318  31.119  10.580
26180W        W99248   4.832   3.090   1.887
26181W        W99249   0.534  22.304   1.724
26182W        W99250  12.121  13.100   9.947
26183W        W99251  44.581  16.429   2.737
26184W        W99252  30.380  30.189  12.212
26185W        W99253  19.990   2.174   1.402
26186W        W99254  41.473  34.880   4.157
26187W        W99255  43.748  42.412   1.276
26188W        W99256  31.621  30.941   2.369
26189W        W99257   2.056  12.306   2.810
26190W        W99258  23.722  44.602   3.804
26191W        W99259   4.028  26.013  14.749
26192W        W99260  32.947  44.683  14.771
26193W        W99261  10.330   4.201  13.127
26194W        W99262  44.433   3.964  14.396
26195W        W99263  44.848  30.593  12.550
26196W        W99264  10.223   8.070   3.635
26197W        W99265   7.444  15.365  13.271
26198W        W99266  24.012  12.127   2.412
26199W        W99267  12.647  39.970   3.249
26200W        W99268   2.459  27.003  13.771
26201W        W99269   0.006   7.224  13.824
26202W        W99270   5.623  30.471   4.932
26203W        W99271   1.476  12.625   1.262
26204W        W99272   2.025  31.948  14.822
26205W        W99273   9.878  43.873   1.596
26206W        W99274   6.883  22.131   0.889
26207W        W99275  29.547  35.365   0.840
26208W        W99276   1.280  39.496   3.886
26209W        W99277  42.951  37.868   5.070
26210W        W99278  35.361  27.271   0.843
26211W        W99279   7.123  39.431  12.493
26212W        W99280  35.747  33.095  13.030
26213W        W99281  32.416  25.988  11.897
26214W        W99282   7.235  43.417  13.383
26215W        W99283  16.386   2.328   4.213
26216W        W99284  37.411  25.147   4.847
26217W        W99285  23.479  36.107  14.413
26218W        W99286  11.218  33.619   1.055
26219W        W99287  31.826  42.818   0.280
26220W        W99288  13.699  42.473   3.341
26221W        W99289  44.769  17.332   1.941
26222W        W99290  33.139  13.631   3.277
26223W        W99291  25.007  19.680  14.405
26224W        W99292  25.912  15.724   3.255
26225W        W99293  42.306   7.785   3.071
26226W        W99294  31.325  26.215  13.022
26227W        W99295  20.952  16.587   0.745
26228W        W99296  19.752   7.448  14.497
26229W        W99297  14.274  10.967   1.802
26230W        W99298   3.643  19.165  12.313
26231W        W99299  34.639  42.061   4.375
26232W        W99300  17.641  27.159   4.515
26233W        W99301  40.659  36.582  12.158
26234W        W99302  24.380   7.723   3.585
26235W        W99303  25.403  25.181   2.677
26236W        W99304  27.528   8.260   4.664
26237W        W99305  20.106   5.630  13.400
26238W        W99306  29.985  40.902   0.437
26239W        W99307   7.950  12.685   0.164
26240W        W99308   9.638  16.665   3.754
26241W        W99309  12.649  38.376  10.703
26242W        W99310  36.869  32.942  10.249
26243W        W99311  42.765  13.343  12.076
26244W        W99312  11.693  10.337   0.039
26245W        W99313  11.209   8.234   0.972
26246W        W99314   8.279  15.824  13.031
26247W        W99315  40.857  10.779   5.017
26248W        W99316  28.601  35.437  12.962
26249W        W99317  16.120  30.005   0.295
26250W        W99318   2.811  13.670  11.610
26251W        W99319   3.986  13.657   0.393
26252W        W99320  43.314   0.786   4.660
26253W        W99321  15.415  12.256   2.711
26254W        W99322   6.949  44.322  10.633
26255W        W99323  15.151  44.790   1.789
26256W        W99324  44.374   0.547   3.978
26257W        W99325  43.346   8.845   4.707
26258W        W99326  40.460  20.271   3.648
26259W        W99327  15.175  24.833  13.723
26260W        W99328   9.703   2.292   3.468
26261W        W99329   2.783  23.759   4.411
26262W        W99330  29.593   2.698   0.847
26263W        W99331  17.056  31.857  11.626
26264W        W99332  10.180  37.848  10.705
26265W        W99333  34.451  20.585   2.796
26266W        W99334  35.960   4.690   0.664
26267W        W99335  43.559  23.218   3.228
26268W        W99336  32.699  11.337  13.210
26269W        W99337   0.342   1.433   2.967
26270W        W99338  11.180  18.608  14.221
26271W        W99339   2.325  44.541   4.879
26272W        W99340  34.918  27.171   4.214
26273W        W99341  40.314  23.694   2.817
26274W        W99342  16.094  36.484  12.825
26275W        W99343  19.869   2.288   4.733
26276W        W99344  28.067   9.061  14.735
26277W        W99345  32.828  12.102  11.990
26278W        W99346   3.219  40.137   2.717
26279W        W99347   8.732  34.198  12.864
26280W        W99348  32.006  18.572  13.299
26281W        W99349  42.831  41.350  14.620
26282W        W99350  26.996  34.598   2.211
26283W        W99351   3.331   1.912  11.358
26284W        W99352  19.244  18.345   0.132
26285W        W99353  34.033  32.348  14.541
26286W        W99354  24.031  38.896   3.179
26287W        W99355  39.833  27.107  13.944
26288W        W99356   7.122  33.832   4.311
26289W        W99357  16.907  25.471   3.358
26290W        W99358  44.375  36.426  11.219
26291W        W99359  15.706   8.419   4.225
26292W        W99360  36.009   9.827   0.339
26293W        W99361  30.323  34.029  12.898
26294W        W99362   5.442  32.048   2.162
26295W        W99363  34.804  38.980   0.888
26296W        W99364   8.829  37.132  14.423
26297W        W99365   5.769  40.825   3.053
26298W        W99366  27.844  12.772  14.494
26299W        W99367  32.260  30.368   0.272
26300W        W99368   4.507  26.820   5.006
26301W        W99369   4.854  18.765   1.773
26302W        W99370  24.993   0.425  10.677
26303W        W99371  43.424  35.981   1.832
26304W        W99372  13.153  16.637  14.494
26305W        W99373  44.016   7.674   4.341
26306W        W99374  34.820   8.941  11.606
26307W        W99375  39.030   6.475  14.815
26308W        W99376  40.332  25.056   3.202
26309W        W99377  30.119   0.676  14.862
26310W        W99378  39.161  24.657   3.098
26311W        W99379  10.344  17.093  13.448
26312W        W99380  44.279  43.471  14.339
26313W        W99381   2.033   5.918   0.887
26314W        W99382  15.510  44.587   3.175
26315W        W99383  24.967  21.578   2.689
26316W        W99384  22.076  27.188  13.239
26317W        W99385   1.892  42.214   4.859
26318W        W99386  28.980  43.330   2.152
26319W        W99387  18.559   6.936   0.917
26320W        W99388   9.967  39.891   5.196
26321W        W99389   0.945  12.098  12.018
26322W        W99390   2.675   4.887   0.727
26323W        W99391   2.936  23.908  11.657
26324W        W99392  42.921  33.878  13.305
26325W        W99393   4.926  15.662   4.566
26326W        W99394  10.316  31.712   3.634
26327W        W99395  30.805  23.457  14.209
26328W        W99396  38.359  35.682  12.928
26329W        W99397  26.968  15.980  13.584
26330W        W99398  26.680   3.999   3.681
26331W        W99399   9.073  24.153   4.662
26332W        W99400  14.418   1.656   1.473
26333W        W99401  11.745  44.044  14.705
26334W        W99402  28.016   0.875  11.752
26335W        W99403  13.537  43.374   3.262
26336W        W99404  37.726  13.540   2.804
26337W        W99405   5.851  31.676   3.460
26338W        W99406  43.742  10.344   1.258
26339W        W99407   1.461   0.295   2.135
26340W        W99408  44.859  36.669   3.355
26341W        W99409  24.952   8.716   0.155
26342W        W99410  13.188   7.092   1.856
26343W        W99411   4.002  41.884  14.113
26344W        W99412  42.244  12.305  13.539
26345W        W99413  15.795  19.650   3.800
26346W        W99414  40.870  17.297  12.061
26347W        W99415  35.808   3.704   2.728
26348W        W99416  26.902   9.569  11.899
26349W        W99417  22.960   5.446   2.242
26350W        W99418  18.205   2.815   2.385
26351W        W99419   3.006  40.725  13.461
26352W        W99420  14.672  21.701  13.252
26353W        W99421  32.688  12.245   4.798
26354W        W99422  23.982  33.184  12.147
26355W        W99423  31.451  14.625  10.613
26356W        W99424  42.569  19.987  11.859
26357W        W99425  40.500  17.003   4.156
26358W        W99426  25.296  16.193   0.005
26359W        W99427   9.812  30.836   4.477
26360W        W99428   5.285   4.855  11.848
26361W        W99429   9.065  35.384   4.448
26362W        W99430  12.976   7.826  12.997
26363W        W99431   5.658   9.164  14.063
26364W        W99432  16.005  20.127   3.634
26365W        W99433  12.799   9.282   2.371
26366W        W99434  29.173   6.948   3.413
26367W        W99435  37.675  29.122   4.146
26368W        W99436  28.637  43.325  14.903
26369W        W99437  39.601  41.134  14.443
26370W        W99438  16.742  39.701   4.650
26371W        W99439  17.043  22.502   4.120
26372W        W99440  35.362  40.478   3.412
26373W        W99441  17.770  27.473  14.070
26374W        W99442  18.055  24.617   3.683
26375W        W99443   4.484  27.015   2.749
26376W        W99444   8.718   8.832   3.872
26377W        W99445  26.049  14.567   4.043
26378W        W99446  27.251  38.913   2.192
26379W        W99447   4.829  43.577  14.102
26380W        W99448  21.659  36.327  14.543
26381W        W99449  17.168   9.359  11.198
26382W        W99450  14.492   6.863  13.810
26383W        W99451   0.823  19.544   4.654
26384W        W99452   4.893  32.430   4.143
26385W        W99453  13.136  11.089   1.359
26386W        W99454   9.126  22.567   1.164
26387W        W99455  38.270  27.985   3.443
26388W        W99456  17.192  21.190  14.349
26389W        W99457  24.721  29.171   3.969
26390W        W99458  31.359  17.667   3.939
26391W        W99459  27.272  15.049  13.891
26392W        W99460   1.355  28.459  12.146
26393W        W99461   6.929  32.854   0.763
26394W        W99462  40.031  10.212  13.418
26395W        W99463  28.624  11.829  13.750
26396W        W99464  19.934  19.804  14.074
26397W        W99465  17.723  13.279   1.817
26398W        W99466  21.289   8.022  12.144
26399W        W99467  29.050  41.450   2.729
26400W        W99468  39.073  26.954   3.721
26401W        W99469  42.060  23.307  11.985
26402W        W99470   3.781   0.939   4.294
26403W        W99471  23.001   6.205  12.007
26404W        W99472   7.185  19.034   3.667
26405W        W99473  37.489  30.651   4.613
26406W        W99474  40.510  10.845   4.259
26407W        W99475  12.281  32.694   2.723
26408W        W99476  33.930  35.861   4.087
26409W        W99477  26.555  41.680   0.287
26410W        W99478   3.634  37.176  12.387
26411W        W99479   9.581  17.923   2.358
26412W        W99480  41.628   0.489   4.639
26413W        W99481  38.833  40.971   2.896
26414W        W99482  43.834  37.880   1.974
26415W        W99483  44.120  31.098   1.847
26416W        W99484  19.907  26.062  14.254
26417W        W99485  34.527  41.107   4.058
26418W        W99486   3.759   9.463   4.093
26419W        W99487   9.792  20.196   1.586
26420W        W99488   3.137   0.734   3.112
26421W        W99489  14.733  41.996   0.040
26422W        W99490   2.422   4.740  10.321
26423W        W99491  13.642   1.438  14.444
26424W        W99492  24.577  23.147   2.208
26425W        W99493  23.140   8.848  14.361
26426W        W99494   2.349  31.227   4.608
26427W        W99495   7.869   8.454  10.996
26428W        W99496  34.148  14.772  11.607
26429W        W99497  39.821  39.058  10.614
26430W        W99498   2.294  18.516   0.209
26431W        W99499  11.668  24.919   0.725
26432W        W99500  26.603  10.140   4.104
26433W        W99501  18.184  36.903   3.644
26434W        W99502  30.550   0.815   2.697
26435W        W99503   4.832  16.967  13.413
26436W        W99504  25.180   8.890  13.694
26437W        W99505  19.032  19.200   2.630
26438W        W99506  13.338   2.710   0.154
26439W        W99507  40.537   7.764   1.871
26440W        W99508  36.856  22.411  13.030
26441W        W99509  35.572  40.067   2.882
26442W        W99510  42.836  35.919   0.168
26443W        W99511  20.347  27.513  11.973
26444W        W99512  26.434   8.353  12.458
26445W        W99513  39.785  42.348  12.509
26446W        W99514   3.794  34.068  11.996
26447W        W99515  26.174  16.748   2.158
26448W        W99516  16.725  24.079   0.447
26449W        W99517  20.030  42.086   2.709
26450W        W99518  32.462   4.346   2.698
26451W        W99519   9.130  40.956   0.946
26452W        W99520  11.171  22.966  12.978
26453W        W99521  22.520  25.054   4.513
26454W        W99522  19.206  44.476  10.156
26455W        W99523   7.880  42.485   1.447
26456W        W99524   6.783  43.322   1.720
26457W        W99525  23.566  40.094   1.017
26458W        W99526  28.234  28.531   4.375
26459W        W99527  43.004  38.826  12.476
26460W        W99528  15.262  20.958   2.692
26461W        W99529  17.224  11.765   4.088
26462W        W99530  44.777  23.767  11.879
26463W        W99531  25.130   9.794   1.273
26464W        W99532  12.418  17.056   4.532
26465W        W99533  26.031  41.486   0.700
26466W        W99534  39.008  37.091   0.062
26467W        W99535  12.075  26.436   3.690
26468W        W99536  15.039   9.732   1.396
26469W        W99537  19.079   5.803   1.200
26470W        W99538  16.784  20.156   3.210
26471W        W99539   6.401  40.330   1.410
26472W        W99540  18.942   4.460   0.060
26473W        W99541   5.304  23.486  13.263
26474W        W99542  25.472   6.744  14.303
26475W        W99543   9.888  19.369  12.111
26476W        W99544  40.383  25.661   0.335
26477W        W99545  13.125  13.096   4.603
26478W        W99546  15.462  18.240   0.968
26479W        W99547   9.423  10.613   3.711
26480W        W99548  25.644  32.873   1.323
26481W        W99549  38.063   2.417   3.733
26482W        W99550  16.254  37.574  12.061
26483W        W99551  22.982  34.646   3.831
26484W        W99552  37.546  17.159  13.566
26485W        W99553  12.602  29.947   1.329
26486W        W99554  34.541  30.876   1.982
26487W        W99555  10.870  41.090  11.473
26488W        W99556  39.968   1.004  13.429
26489W        W99557  41.415  33.340  14.461
26490W        W99558  19.349  28.079  14.065
26491W        W99559   4.963  19.588   0.214
26492W        W99560   8.877  36.051  14.741
26493W        W99561   4.248  28.432   3.739
26494W        W99562  22.554  16.890   5.499
26495W        W99563  10.796   6.129   1.801
26496W        W99564  37.462  12.869   2.832
26497W        W99565   3.200  31.672   5.001
26498W        W99566  24.488  38.606   2.777
26499W        W99567   6.415   0.062  13.761
26500W        W99568  35.947  35.579   2.186
26501W        W99569  37.734  11.339   2.797
26502W        W99570   7.874  37.106   0.082
26503W        W99571  19.562  37.497   2.981
26504W        W99572   3.197  35.322  13.207
26505W        W99573  11.369  17.492  10.316
26506W        W99574  12.814  29.857   0.370
26507W        W99575  29.039   9.483  13.537
26508W        W99576  41.404  20.304   0.378
26509W        W99577  34.617  38.448  11.521
26510W        W99578  17.824  16.691   4.572
26511W        W99579  21.219  43.031   4.278
26512W        W99580   8.608  25.102   4.536
26513W        W99581   6.067  13.618  13.476
26514W        W99582  28.003  10.242  11.348
26515W        W99583  41.491  35.794  13.504
26516W        W99584   6.684  29.098  12.422
26517W        W99585  42.834  39.429  10.761
26518W        W99586  43.687  37.353   4.260
26519W        W99587  36.769  42.499   1.639
26520W        W99588   3.497   5.520   0.909
26521W        W99589   5.005  11.217  10.057
26522W        W99590  13.908  12.142  13.668
26523W        W99591  36.017  25.552   1.267
26524W        W99592  43.410   7.220   2.764
26525W        W99593  32.128  36.991   4.299
26526W        W99594  13.727  17.998   0.083
26527W        W99595  25.721  44.760  14.405
26528W        W99596  13.867   5.394   4.879
26529W        W99597  10.036  36.875   4.941
26530W        W99598  35.603  35.502  10.627
26531W        W99599  43.728  12.218  12.610
26532W        W99600   3.835  39.325   4.778
26533W        W99601  18.732  40.173   0.467
26534W        W99602   5.042  22.125  12.096
26535W        W99603  13.188   7.438   4.228
26536W        W99604  14.828   1.373   0.762
26537W        W99605  23.485  13.315   2.282
26538W        W99606  24.544  23.486   3.625
26539W        W99607  29.484  27.848  14.356
26540W        W99608  20.801  39.337   2.220
26541W        W99609  17.053  19.666  11.470
26542W        W99610  40.412  37.873  12.899
26543W        W99611   4.680   6.775   1.963
26544W        W99612  37.028  28.842  12.213
26545W        W99613  37.603  32.211   2.781
26546W        W99614  22.902  26.775  12.957
26547W        W99615  39.601  42.519  12.056
26548W        W99616   7.335  38.588  14.802
26549W        W99617  23.334  10.758  12.157
26550W        W99618   8.140  32.603  13.453
26551W        W99619  24.498  16.551   4.622
26552W        W99620  13.827  38.462  11.002
26553W        W99621  27.217  24.559   0.267
26554W        W99622  14.243  32.609   3.866
26555W        W99623  44.767  34.283   1.232
26556W        W99624   0.365  29.224  13.068
26557W        W99625  17.326   6.066  14.853
26558W        W99626  35.091  32.437  10.167
26559W        W99627  13.862  14.668   4.283
26560W        W99628  22.941  13.208   3.243
26561W        W99629   1.755  27.280   0.926
26562W        W99630  43.120  24.917   2.786
26563W        W99631  14.938  11.603  14.872
26564W        W99632   5.413   8.705   2.646
26565W        W99633  32.414  11.360  12.779
26566W        W99634   6.844  44.895   4.564
26567W        W99635  22.619   2.944   3.063
26568W        W99636  27.544  43.481   4.298
26569W        W99637  31.364  36.518  11.883
26570W        W99638  31.979  43.063   1.391
26571W        W99639  27.712  28.355   0.637
26572W        W99640  44.307  32.494  11.048
26573W        W99641  43.540  40.393   3.856
26574W        W99642  25.152  13.617  13.324
26575W        W99643   3.219  43.877   3.410
26576W        W99644  12.718  33.946   2.936
26577W        W99645  11.353  32.115  14.269
26578W        W99646  38.818   8.776   1.332
26579W        W99647  44.007   3.738  12.439
26580W        W99648  34.131  23.763   1.620
26581W        W99649  29.583  25.178  14.979
26582W        W99650   9.450  33.738  12.493
26583W        W99651  13.057  29.059  12.591
26584W        W99652  11.851  39.610  10.791
26585W        W99653  16.879   8.053   1.395
26586W        W99654  17.373   2.269   0.203
26587W        W99655  39.493   2.912  11.098
26588W        W99656  18.209   7.679   4.612
26589W        W99657  10.154  13.603   2.800
26590W        W99658  18.834  16.787  13.600
26591W        W99659   5.640   4.409  12.088
26592W        W99660  29.191  25.221  11.480
26593W        W99661  13.763  39.553  14.336
26594W        W99662   7.106  42.049   2.705
26595W        W99663  19.405  37.866   1.301
26596W        W99664  19.751  19.368   4.843
26597W        W99665  17.180  30.654  11.102
26598W        W99666  24.497   9.870   4.608
26599W        W99667  28.187  25.792  10.945
26600W        W99668  14.738  12.434  13.523
26601W        W99669   0.773   8.363   0.012
26602W        W99670  11.650  29.790   1.173
26603W        W99671  18.266  44.048   4.661
26604W        W99672  42.218   2.118   1.447
26605W        W99673  14.387  12.762   2.808
26606W        W99674   7.459  43.541  12.452
26607W        W99675  18.269   9.329   0.361
26608W        W99676  28.796  31.038   2.292
26609W        W99677  34.563  33.723   5.404
26610W        W99678  17.763  22.725  12.376
26611W        W99679  29.625  19.605   1.576
26612W        W99680  14.657  27.509  11.976
26613W        W99681  27.244   7.836   0.002
26614W        W99682  22.029  31.502  13.978
26615W        W99683  20.036  26.751   2.322
26616W        W99684   1.056   4.334  13.457
26617W        W99685   5.095  44.196   1.819
26618W        W99686   4.350  22.634   3.066
26619W        W99687  13.283  25.786   2.675
26620W        W99688  19.774   0.751  12.898
26621W        W99689  44.023  20.271   0.390
26622W        W99690  43.239  20.750   4.213
26623W        W99691   1.751  21.059  10.681
26624W        W99692  27.420  14.338   2.851
26625W        W99693  35.421  36.893   1.307
26626W        W99694  27.543  33.582  14.735
26627W        W99695   2.819   6.733  13.871
26628W        W99696  15.247  17.875  11.676
26629W        W99697   7.739  25.653   2.265
26630W        W99698   0.024   2.002  11.147
26631W        W99699  28.160  29.403   3.203
26632W        W99700  14.160  31.190  13.342
26633W        W99701  41.450  27.619  10.551
26634W        W99702  18.161  38.408   0.163
26635W        W99703  42.283  28.877  14.315
26636W        W99704  18.496   6.748   2.773
26637W        W99705  29.183  10.285  14.841
26638W        W99706  20.553  29.305  11.957
26639W        W99707  41.685  43.523   1.294
26640W        W99708  38.562  32.080   4.167
26641W        W99709  35.613  33.795  12.899
26642W        W99710  38.058  10.366  11.065
26643W        W99711  38.889  17.289  11.492
26644W        W99712   4.624  32.202  10.961
26645W        W99713  32.107  22.289   2.707
26646W        W99714  15.752  17.570   4.578
26647W        W99715  24.715  23.109   4.585
26648W        W99716  28.382  34.779   3.156
26649W        W99717  40.475  13.773  12.840
26650W        W99718  39.998   1.763   9.811
26651W        W99719  14.299  14.631   1.167
26652W        W99720  22.406   7.841   3.554
26653W        W99721  36.512   4.917   1.794
26654W        W99722  35.014  31.659   1.674
26655W        W99723  10.399  20.358   3.255
26656W        W99724  41.762  23.239  13.382
26657W        W99725  17.993  29.887  11.644
26658W        W99726   2.282  34.874  11.273
26659W        W99727  18.659  39.470  14.811
26660W        W99728  22.871  38.791   1.813
26661W        W99729  26.219  19.487   0.793
26662W        W99730  41.278  14.583   2.587
26663W        W99731  24.247  19.270   1.909
26664W        W99732  18.080  25.551   2.152
26665W        W99733  14.232  11.745   2.980
26666W        W99734  24.065  16.093   1.870
26667W        W99735  13.831   7.880  10.642
26668W        W99736  37.102   3.481   4.252
26669W        W99737  44.426  23.636   1.815
26670W        W99738  33.960   2.524   4.419
26671W        W99739  35.853  23.500  12.340
26672W        W99740  18.966  15.633   3.743
26673W        W99741  27.171  11.843   4.841
26674W        W99742  35.167  25.077  12.461
26675W        W99743   4.797  23.147   0.211
26676W        W99744  10.873   9.108   2.226
26677W        W99745  12.105   3.944   1.290
26678W        W99746  24.973  20.600   3.360
26679W        W99747  13.513  31.844  10.664
26680W        W99748  10.088  22.658   0.347
26681W        W99749  27.485   7.292  11.603
26682W        W99750  17.620  26.478  13.762
26683W        W99751  10.324  43.841  14.461
26684W        W99752  28.031  27.191   3.110
26685W        W99753  43.812  23.676   4.222
26686W        W99754  29.600  10.848  13.136
26687W        W99755  13.715  13.532  14.895
26688W        W99756  25.291  18.822  12.373
26689W        W99757  33.796   7.785   1.665
26690W        W99758  25.458  23.502   4.173
26691W        W99759   7.904  12.463   1.021
26692W        W99760  19.240  24.706  11.154
26693W        W99761  12.706  25.708   1.410
26694W        W99762  26.498  22.572  11.605
26695W        W99763  35.695  36.463  10.759
26696W        W99764  16.732   2.293   1.920
26697W        W99765   6.493  27.400   4.495
26698W        W99766  20.738  13.236   1.504
26699W        W99767  31.949  37.057   0.683
26700W        W99768  30.971  22.507  12.140
26701W        W99769   1.866  31.018  13.758
26702W        W99770  14.259  33.533   0.252
26703W        W99771  24.040  29.171  13.265
26704W        W99772  44.599  44.237   3.751
26705W        W99773   8.322  18.635   0.786
26706W        W99774  43.765  21.545   3.638
26707W        W99775  20.749  24.571   0.303
26708W        W99776   9.153  34.164  12.532
26709W        W99777  20.938  31.151   0.468
26710W        W99778  14.221  26.479   4.092
26711W        W99779  43.496  25.890  11.539
26712W        W99780  32.898  13.787   2.321
26713W        W99781   6.421  11.266   2.758
26714W        W99782  31.944   9.779   3.290
26715W        W99783   4.792  42.427  14.007
26716W        W99784  28.617  43.042  10.864
26717W        W99785  40.265  39.810  10.295
26718W        W99786  31.530  15.332   2.675
26719W        W99787   4.952  13.519   0.271
26720W        W99788   6.248  12.730   2.311
26721W        W99789  43.202  34.657  12.993
26722W        W99790  20.073   8.583  13.811
26723W        W99791  34.550  31.797  14.088
26724W        W99792  18.267   5.922  14.969
26725W        W99793   9.858  17.550  11.149
26726W        W99794   7.233  41.458  13.994
26727W        W99795  39.717  13.798   3.769
26728W        W99796   1.345   7.260   4.917
26729W        W99797  17.663  14.821  11.932
26730W        W99798  36.522   0.851   3.268
26731W        W99799  12.278  32.750   0.592
26732W        W99800  25.161  29.403   0.443
26733W        W99801  19.808  42.339  12.853
26734W        W99802  34.489  23.832   4.157
26735W        W99803  13.006   4.245  14.038
26736W        W99804  27.684  11.269  12.369
26737W        W99805  43.320   6.314   5.089
26738W        W99806   0.378  20.798   3.765
26739W        W99807  20.750  21.043  10.135
26740W        W99808  23.198  30.473  11.481
26741W        W99809  35.829  37.614   0.412
26742W        W99810  29.168  24.147  12.928
26743W        W99811  42.785  38.383  13.348
26744W        W99812  26.549  33.862   1.979
26745W        W99813  26.088   8.784  10.848
26746W        W99814  19.766  22.554   2.744
26747W        W99815  21.296  26.241   2.686
26748W        W99816  23.964  25.707  11.084
26749W        W99817  24.122   9.302  13.536
26750W        W99818  18.941  30.869   2.748
26751W        W99819   0.751  25.628   1.870
26752W        W99820   9.134  40.505  11.179
26753W        W99821   8.879  34.593   2.085
26754W        W99822  10.802   5.368   3.253
26755W        W99823  23.211   9.568   3.575
26756W        W99824  18.517  32.323   4.560
26757W        W99825   2.542  30.951   3.793
26758W        W99826   5.275  31.232  10.688
26759W        W99827  32.529  10.645  10.527
26760W        W99828  20.256   4.212  14.404
26761W        W99829   4.655  13.161   0.009
26762W        W99830  44.182  31.606  11.041
26763W        W99831   1.886  30.410  13.087
26764W        W99832   2.666  31.875  13.272
26765W        W99833   8.694  24.026  13.842
26766W        W99834  43.877  28.542   3.098
26767W        W99835  19.732  13.262   3.527
26768W        W99836  33.328   1.837   1.902
26769W        W99837  20.205  20.245   0.855
26770W        W99838  17.686  15.109   0.682
26771W        W99839  12.336  34.901  14.558
26772W        W99840  36.449  29.624   0.495
26773W        W99841  44.387  16.860   0.244
26774W        W99842   6.014  28.300   2.346
26775W        W99843  26.019   3.523  13.322
26776W        W99844  16.595  16.676   1.240
26777W        W99845  18.546  25.173   3.296
26778W        W99846   9.910   2.574   3.094
26779W        W99847  12.462  42.086   0.405
26780W        W99848  33.604  16.264   3.284
26781W        W99849  15.693   2.187   3.780
26782W        W99850   2.979  33.932   1.810
26783W        W99851   5.289  35.854  12.509
26784W        W99852  16.057  30.000  11.556
26785W        W99853   2.767  22.099  14.406
26786W        W99854  11.161  14.901  13.397
26787W        W99855  17.786  18.617  13.889
26788W        W99856  20.709   5.869   0.400
26789W        W99857   9.403  27.509  14.300
26790W        W99858  32.822  36.840   3.716
26791W        W99859  15.245  40.906   2.379
26792W        W99860  29.585   3.415  12.126
26793W        W99861   0.357  19.838  10.781
26794W        W99862  41.289  31.362  11.160
26795W        W99863  41.892  10.282  13.047
26796W        W99864  14.088  15.780  10.654
26797W        W99865  18.260  17.297  13.800
26798W        W99866  34.547   5.783  11.378
26799W        W99867  29.856   4.293  10.708
26800W        W99868  39.851  31.527  13.017
26801W        W99869  36.751   9.457  11.676
26802W        W99870   6.342  35.312   2.749
26803W        W99871   9.890  26.671   2.343
26804W        W99872  34.048  42.879   1.888
26805W        W99873  43.990  13.738  12.085
26806W        W99874  27.628   5.729  13.098
26807W        W99875  37.475  34.690   3.314
26808W        W99876  21.750   4.672   3.186
26809W        W99877   1.986   6.982   2.822
26810W        W99878  41.886   4.714   0.930
26811W        W99879  31.949   4.665   4.258
26812W        W99880  15.808  20.408  12.539
26813W        W99881   2.828  26.014  11.796
26814W        W99882  30.027   7.221   2.124
26815W        W99883  39.518  14.069  10.733
26816W        W99884   7.842   9.904   3.763
26817W        W99885  43.849  37.926   3.290
26818W        W99886  39.060  10.156   4.511
26819W        W99887  29.054  42.912   2.462
26820W        W99888   5.801  34.302  11.561
26821W        W99889   7.793   3.988  10.996
26822W        W99890  18.252  28.590  13.507
26823W        W99891  25.082   4.301   0.740
26824W        W99892  37.395  22.145   2.459
26825W        W99893  42.888  38.959  14.956
26826W        W99894   7.999  28.207  12.945
26827W        W99895  35.955  42.538  10.734
26828W        W99896   2.736  23.940  12.113
26829W        W99897   9.566  20.563   3.627
26830W        W99898  24.102  43.431   3.391
26831W        W99899  25.275  11.812  10.143
26832W        W99900   4.234   0.539   0.442
26833W        W99901  20.203  28.174   4.899
26834W        W99902  43.756  23.525   4.719
26835W        W99903  39.001  18.990   1.096
26836W        W99904  39.611  43.870   4.615
26837W        W99905  19.493  43.400   3.109
26838W        W99906  37.076  19.538  13.572
26839W        W99907  34.974  41.470  10.816
26840W        W99908  20.843   7.845  11.210
26841W        W99909   0.027  29.385   2.199
26842W        W99910  18.122  10.563  11.377
26843W        W99911  40.376  10.107   3.129
26844W        W99912  12.125  40.579   1.991
26845W        W99913  26.983  23.103   3.371
26846W        W99914  41.826   9.528  14.778
26847W        W99915   6.259   5.181  14.444
26848W        W99916  40.094  20.527  11.651
26849W        W99917   4.076   6.824   1.895
26850W        W99918  42.357   2.559   4.862
26851W        W99919  39.469  29.394  14.280
26852W        W99920  12.878   7.497   2.002
26853W        W99921  41.399  33.592  12.070
26854W        W99922  10.008  36.592   2.629
26855W        W99923  11.289   7.139  10.719
26856W        W99924  35.636  30.064  12.065
26857W        W99925   8.797  16.536  11.829
26858W        W99926  44.093   0.908   4.258
26859W        W99927  33.882  21.349   4.190
26860W        W99928  17.324  35.555   2.712
26861W        W99929  16.832   6.439  13.997
26862W        W99930  34.790  32.434   4.072
26863W        W99931  36.958   3.943   3.296
26864W        W99932  27.142   3.280  10.421
26865W        W99933  30.035   1.718  12.676
26866W        W99934   4.404  42.590  13.476
26867W        W99935  42.988   6.896   3.821
26868W        W99936  27.936   1.372   0.313
26869W        W99937  11.570  18.192  14.004
26870W        W99938  12.419  18.139   3.625
26871W        W99939  28.748  14.019   0.036
26872W        W99940   5.833  37.072  10.972
26873W        W99941  40.982  15.824  14.090
26874W        W99942  28.098   4.379  12.484
26875W        W99943  16.406  16.511  10.655
26876W        W99944  15.608  36.291   1.675
26877W        W99945  34.012  42.779  13.873
26878W        W99946  14.236  36.340   4.609
26879W        W99947  25.659  41.203   3.868
26880W        W99948  25.228  33.470  14.117
26881W        W99949  22.263  31.576  13.495
26882W        W99950  27.962  14.411  10.937
26883W        W99951  40.387  27.091  13.105
26884W        W99952  25.755   0.169  12.539
26885W        W99953  27.279  18.589  13.813
26886W        W99954  36.066  26.739  11.703
26887W        W99955   6.188  16.315   0.937
26888W        W99956   4.122  10.291  10.805
26889W        W99957   7.214  28.425  12.861
26890W        W99958   3.230  40.479   0.651
26891W        W99959   7.261  17.466  10.818
26892W        W99960  24.968   7.588  11.587
26893W        W99961   9.599  26.908   4.236
26894W        W99962  38.111  32.670   1.311
26895W        W99963  41.876  40.813  10.620
26896W        W99964   9.342  37.616   4.120
26897W        W99965  17.842  27.829  10.213
26898W        W99966  28.057   5.038  11.230
26899W        W99967  38.798  24.259  12.073
26900W        W99968  29.981   4.361   0.041
26901W        W99969  40.515  18.133   0.772
26902W        W99970  17.802  14.115   0.212
26903W        W99971  30.705  18.980  13.998
26904W        W99972   0.308  36.425  14.262
26905W        W99973  16.134  12.697   4.262
26906W        W99974  35.129  43.961   4.654
26907W        W99975  33.994  41.057   1.870
26908W        W99976  13.669  21.844   0.546
26909W        W99977  22.516  26.939  10.568
26910W        W99978  19.764  13.871   2.350
26911W        W99979  34.899   6.666   1.286
26912W        W99980  27.951  35.899   3.745
26913W        W99981  37.157  33.313   4.094
26914W        W99982   0.323  40.311  14.890
26915W        W99983  30.619  18.831  11.126
26916W        W99984  43.041  42.486   2.004
26917W        W99985   5.167   1.193   4.168
26918W        W99986   2.886   6.027  11.439
26919W        W99987  40.485  26.986   3.114
26920W        W99988  27.087  33.920  12.365
26921W        W99989  29.757  23.610  10.397
26922W        W99990  17.388  36.357  13.671
26923W        W99991   6.870   2.780  14.968
26924W        W99992  40.840   3.801  13.911
26925W        W99993  21.240  36.762   2.293
26926W        W99994  20.766   8.297  11.431
26927W        W99995  20.208  27.622   2.647
26928W        W99996  21.557  30.304  14.313
26929W        W99997  17.909   5.165   1.357
26930W        W99998  36.366  35.025  12.403
26931W        W99999  44.859  35.912   2.837
26932W        W    0  27.951  16.664  13.187
26933W        W    1  19.047  44.292  13.456
26934W        W    2  31.259  25.142  10.322
26935W        W    3  10.541  36.038  13.298
26936W        W    4  26.869  43.322   2.389
26937W        W    5  16.229   6.746  11.018
26938W        W    6   1.327  29.989  13.878
26939W        W    7  40.001  13.933  12.825
26940W        W    8   5.804  33.983  11.012
26941W        W    9  43.459   6.036   4.658
26942W        W   10  22.309  25.004   1.406
26943W        W   11  11.340  38.874   0.275
26944W        W   12  14.189  16.713  14.252
26945W        W   13  36.644  11.030   0.057
26946W        W   14   3.324  39.484  12.155
26947W        W   15   3.388  30.239   4.190
26948W        W   16   2.868  28.177  12.021
26949W        W   17  22.218  20.414  12.239
26950W        W   18  39.784  40.951   2.243
26951W        W   19  20.654  21.007   2.628
26952W        W   20  39.975  25.845   1.337
26953W        W   21   4.728  16.882   3.810
26954W        W   22  27.383   4.827  12.916
26955W        W   23  36.902   6.201  11.491
26956W        W   24  31.991  22.087  13.985
26957W        W   25   4.935  15.706   1.670
26958W        W   26  40.515  16.313   2.824
26959W        W   27  26.685  34.605  10.457
26960W        W   28  29.938   0.191   2.927
26961W        W   29   8.150  11.083  10.837
26962W        W   30  39.760  15.871  11.409
26963W        W   31  25.074  40.532   0.779
26964W        W   32  35.241  14.654   0.127
26965W        W   33  19.819  37.148  12.473
26966W        W   34   6.883  36.093   4.123
26967W        W   35  26.712  18.487   2.111
26968W        W   36  41.355  30.628   0.429
26969W        W   37   6.644  30.529   1.778
26970W        W   38  13.071  12.399  13.866
26971W        W   39  16.704  29.877  13.792
26972W        W   40  38.927   5.020  11.496
26973W        W   41  14.940  22.670   2.657
26974W        W   42   8.128   4.834  13.378
26975W        W   43  35.584  23.562  13.994
26976W        W   44  26.717  28.325   1.562
26977W        W   45  36.979  25.158   3.685
26978W        W   46  42.820  19.662   1.365
26979W        W   47   5.722  44.664  10.739
26980W        W   48  22.766  19.695   0.048
26981W        W   49  38.830  29.887  13.027
26982W        W   50  22.541  23.130  13.903
26983W        W   51  35.102  33.628  11.115
26984W        W   52  38.392  12.272  12.611
26985W        W   53  15.022  21.585   0.469
26986W        W   54  21.158  40.906   0.263
26987W        W   55   3.459   1.613   3.230
26988W        W   56  36.553  36.851   3.957
26989W        W   57   2.978  28.509  11.651
26990W        W   58  38.306  24.420  10.341
26991W        W   59   1.404  11.354  12.911
26992W        W   60  27.497  43.256   1.035
26993W        W   61  17.552  30.523   1.651
26994W        W   62  25.654   4.620   2.843
26995W        W   63   8.961  34.889   2.818
26996W        W   64  10.031  29.178   1.880
26997W        W   65  43.738  28.625   1.706
26998W        W   66  34.882  22.843  11.516
26999W        W   67  35.766  12.886   0.791
27000W        W   68  11.168  41.796  14.887
27001W        W   69  22.648  27.719  11.190
27002W        W   70  33.662  33.038   3.418
27003W        W   71   6.777  28.747   1.850
27004W        W   72  18.306  31.415  11.799
27005W        W   73  17.096  37.850   0.770
27006W        W   74  13.388  13.903   0.046
27007W        W   75  18.735   1.484  13.809
27008W        W   76  36.323   6.366  14.729
27009W        W   77   6.474  10.241  13.909
27010W        W   78  20.269  11.210  11.527
27011W        W   79  33.148  44.972   4.883
27012W        W   80  30.524  42.285   0.089
27013W        W   81  24.044  27.698   4.930
27014W        W   82  41.054  39.980   1.408
27015W        W   83  34.677  11.627   4.469
27016W        W   84  27.096  25.937   2.199
27017W        W   85   7.869  11.628   2.258
27018W        W   86  25.090  37.076  14.848
27019W        W   87  33.930  22.321   4.567
27020W        W   88  33.166  36.927   0.314
27021W        W   89  22.504  10.676   4.446
27022W        W   90  10.299   8.500   4.606
27023W        W   91  39.489   9.699  12.612
27024W        W   92  25.693  36.509   3.205
27025W        W   93  42.999  41.404  14.140
27026W        W   94  35.457  17.344  13.913
27027W        W   95   7.876  24.316   3.171
27028W        W   96  30.087  38.984   4.848
27029W        W   97   0.443  17.328  14.006
27030W        W   98  32.779  29.607   4.584
27031W        W   99  24.877  42.794  11.665
27032W        W  100  31.599  11.911  14.593
27033W        W  101   3.389   9.805   3.318
27034W        W  102  43.380  15.558  12.393
27035W        W  103  35.420  23.027  13.057
27036W        W  104  12.615  34.010  11.558
27037W        W  105  33.722  42.341   1.624
27038W        W  106  27.146   9.346   1.218
27039W        W  107  27.144  24.626   4.636
27040W        W  108   5.110  44.921   0.146
27041W        W  109  36.788   8.634  10.137
27042W        W  110  31.465  32.300  11.624
27043W        W  111  28.091  36.028  13.362
27044W        W  112   7.362  35.522  10.676
27045W        W  113  22.658   9.294  13.992
27046W        W  114  11.837  43.504   1.273
27047W        W  115   6.568   0.399   3.887
27048W        W  116   7.954  34.625   1.159
27049W        W  117  11.068  22.705   3.342
27050W        W  118  24.105  27.690   4.405
27051W        W  119  40.864  34.825   2.549
27052W        W  120  17.271  39.295   1.970
27053W        W  121  30.136  26.734   1.864
27054W        W  122  39.050  23.497  11.593
27055W        W  123  23.180   3.281   1.333
27056W        W  124   6.954  41.272  11.846
27057W        W  125   3.864  20.344   0.016
27058W        W  126   9.380  41.968  11.800
27059W        W  127   1.292  28.448  14.054
27060W        W  128  10.249  26.918  12.990
27061W        W  129  37.443  17.635   3.194
27062W        W  130  13.628  28.320   4.616
27063W        W  131  38.007   0.597   3.255
27064W        W  132  36.407  29.375  13.503
27065W        W  133  19.072  22.551   3.347
27066W        W  134   0.203   3.449   2.807
27067W        W  135  37.852  23.391  13.973
27068W        W  136   2.106  12.689  12.124
27069W        W  137  16.554   8.349   4.106
27070W        W  138  15.129   8.726   2.121
27071W        W  139  28.724  21.649  14.955
27072W        W  140  41.892  28.786  13.986
27073W        W  141  40.020   5.793   2.900
27074W        W  142  27.074  11.642  12.907
27075W        W  143  11.945   4.656  10.186
27076W        W  144  27.156  15.568  10.583
27077W        W  145   2.257  37.037   2.196
27078W        W  146  22.027  16.648   4.625
27079W        W  147   4.259  17.698  10.703
27080W        W  148  24.251   2.904   4.521
27081W        W  149  42.555  14.796   3.193
27082W        W  150   5.453   9.689   2.279
27083W        W  151   2.701  24.199  10.669
27084W        W  152  17.066  19.543   1.188
27085W        W  153   7.110  38.432  11.122
27086W        W  154   3.860  26.495   4.371
27087W        W  155  33.032  30.075   4.493
27088W        W  156   0.866  39.196   3.141
27089W        W  157  22.767  10.334  11.571
27090W        W  158   4.494  26.126   0.009
27091W        W  159  23.843  31.231   0.161
27092W        W  160   8.811  12.121  11.894
27093W        W  161   7.577  20.598  13.952
27094W        W  162  17.653  14.792   3.937
27095W        W  163  11.866  22.292   2.026
27096W        W  164  15.057  26.502  13.509
27097W        W  165  12.709   4.089   3.314
27098W        W  166  36.127  41.783   3.841
27099W        W  167   3.199  12.019   2.271
27100W        W  168   4.932  16.307   4.100
27101W        W  169  38.801   1.284   4.180
27102W        W  170  43.014  18.060  10.756
27103W        W  171   0.707  12.907  12.069
27104W        W  172  22.032   7.608   1.804
27105W        W  173  16.734  37.236   2.215
27106W        W  174  23.398  13.885  11.311
27107W        W  175  18.274  26.572  13.484
27108W        W  176   9.215   4.822   1.967
27109W        W  177  29.434  27.144   4.759
27110W        W  178  42.911   8.658   1.417
27111W        W  179   6.374  12.540   1.863
27112W        W  180  21.527   1.765  13.948
27113W        W  181   6.364  25.413   4.770
27114W        W  182  26.230  26.465  10.752
27115W        W  183  11.357   9.813   3.073
27116W        W  184  10.024   3.264   3.831
27117W        W  185  39.936  12.724  10.654
27118W        W  186   3.333  17.588  11.100
27119W        W  187  36.866  35.905   2.991
27120W        W  188  44.498  31.426  14.563
27121W        W  189   2.280   1.937  10.356
27122W        W  190  37.650  29.512  11.562
27123W        W  191  36.646  21.076  14.029
27124W        W  192  19.404  27.035  12.864
27125W        W  193  42.539  18.141  10.515
27126W        W  194  41.122   5.835   2.309
27127W        W  195  12.209  10.419   2.001
27128W        W  196  25.522  43.541  14.835
27129W        W  197  41.615  16.381   1.113
27130W        W  198  27.507   3.867   3.433
27131W        W  199  18.636  22.295   1.321
27132W        W  200  33.176  19.604   1.918
27133W        W  201  20.593  22.336  12.988
27134W        W  202   6.181  17.329   0.612
27135W        W  203  32.376  10.489   9.994
27136W        W  204  13.369  21.817   1.357
27137W        W  205  38.268  35.634  14.229
27138W        W  206   5.980  16.144  14.429
27139W        W  207  12.569  23.101  14.340
27140W        W  208  33.351  38.038   3.894
27141W        W  209  15.092  12.045  13.487
27142W        W  210  12.386   5.862  12.441
27143W        W  211  40.599  44.370  14.556
27144W        W  212  30.653   7.634   3.720
27145W        W  213   4.228  13.126   4.601
27146W        W  214  19.182  14.675   2.293
27147W        W  215   3.406  24.969   4.865
27148W        W  216   2.875   2.870  12.698
27149W        W  217  34.952  12.609   1.894
27150W        W  218   7.227   4.609   2.753
27151W        W  219  18.794  22.354   1.824
27152W        W  220  21.931  29.080  14.355
27153W        W  221   3.164  38.798  13.539
27154W        W  222   3.050  35.968   2.331
27155W        W  223  34.819  38.891  14.556
27156W        W  224  23.124   8.664   0.347
27157W        W  225  32.345   2.722   4.541
27158W        W  226  38.895   5.103  13.035
27159W        W  227  16.742  16.256  14.024
27160W        W  228  34.187   2.859  11.906
27161W        W  229   5.466  26.031  13.534
27162W        W  230  36.823  11.835  10.652
27163W        W  231   0.461   7.955   4.873
27164W        W  232  19.463  13.566   2.669
27165W        W  233  43.378  23.809   4.970
27166W        W  234  32.137  36.926   1.699
27167W        W  235  32.821  25.711   0.236
27168W        W  236   5.785  41.578   0.243
27169W        W  237  12.615  10.125  11.916
27170W        W  238  21.237   4.331  14.520
27171W        W  239  44.702  10.842  13.541
27172W        W  240   0.518   2.220  11.701
27173W        W  241   6.732  33.872  14.482
27174W        W  242  27.162  41.830   2.346
27175W        W  243  15.899  21.191  11.156
27176W        W  244  23.739  33.513  11.041
27177W        W  245  11.290  29.928   4.271
27178W        W  246   8.546   5.255  11.997
27179W        W  247  42.589  37.442  14.214
27180W        W  248  26.377   0.884  13.363
27181W        W  249  39.003  25.075  14.323
27182W        W  250  31.775  31.548  10.761
27183W        W  251  29.964   6.773  10.654
27184W        W  252  20.111  29.469  10.295
27185W        W  253   9.696  18.915  11.977
27186W        W  254  30.938  37.328   0.349
27187W        W  255  28.137  16.420   0.730
27188W        W  256  15.145   9.328  12.893
27189W        W  257  34.400  27.488   4.429
27190W        W  258  40.275   2.676   3.087
27191W        W  259  39.643  14.920   2.692
27192W        W  260  22.974   1.482   4.582
27193W        W  261  44.775   9.707   2.001
27194W        W  262  28.769   5.117  11.661
27195W        W  263  28.939  11.799   3.767
27196W        W  264  25.491   6.564   2.404
27197W        W  265  30.924  13.830  11.357
27198W        W  266  23.668  10.393  10.560
27199W        W  267  19.079  12.700   3.684
27200W        W  268  24.531  28.054   3.890
27201W        W  269  44.214  24.100  12.886
27202W        W  270  31.144  37.456  11.768
27203W        W  271  28.353   3.303  13.545
27204W        W  272  29.634   0.684   2.037
27205W        W  273  10.719  32.345   0.953
27206W        W  274  29.954  19.170  14.456
27207W        W  275  26.182  24.170   4.594
27208W        W  276  36.540   2.695   0.357
27209W        W  277   3.673  39.628   3.160
27210W        W  278  29.575  10.756  14.601
27211W        W  279  16.169  34.930  12.313
27212W        W  280  40.291  25.646   1.687
27213W        W  281  43.837  29.976  12.020
27214W        W  282  14.163  43.106  10.213
27215W        W  283  21.701   7.520   3.194
27216W        W  284  17.322  24.049  12.476
27217W        W  285   1.408  23.744   1.271
27218W        W  286   2.919   0.899  12.912
27219W        W  287  35.136  24.137   2.359
27220W        W  288  11.796  37.435   1.269
27221W        W  289   5.805  42.831  12.556
27222W        W  290  36.394   3.951  14.399
27223W        W  291  41.718  27.223   4.635
27224W        W  292  36.110  43.579   0.231
27225W        W  293  12.427  26.206   0.883
27226W        W  294  41.915  33.482  14.487
27227W        W  295  10.707  16.478   3.665
27228W        W  296   0.724  23.298  12.585
27229W        W  297  25.823   2.997  11.185
27230W        W  298  42.907  29.348  10.653
27231W        W  299  32.608  41.528   4.027
27232W        W  300  37.810  30.042  14.478
27233W        W  301  11.084  35.569  14.439
27234W        W  302   8.591  19.552  13.119
27235W        W  303  12.276  38.010  11.654
27236W        W  304  12.363  23.609  10.600
27237W        W  305  24.031  21.810  13.560
27238W        W  306  27.322  24.894  12.962
27239W        W  307  22.592  30.618  11.696
27240W        W  308  44.799  27.186   1.476
27241W        W  309  12.791  31.441  13.387
27242W        W  310   5.759  13.781   3.180
27243W        W  311  33.730  20.520   0.947
27244W        W  312  35.489   4.306   2.261
27245W        W  313  36.120  40.962  14.867
27246W        W  314   5.978  33.928  11.859
27247W        W  315  28.455  25.734  11.650
27248W        W  316   8.217  23.492   3.623
27249W        W  317  11.302  38.223   3.374
27250W        W  318  27.069  13.838  14.926
27251W        W  319   2.785  41.218  12.071
27252W        W  320  36.692  23.049  13.244
27253W        W  321   8.276   0.472   2.809
27254W        W  322  39.988  19.642  14.284
27255W        W  323  11.435  31.388   4.406
27256W        W  324  33.133  27.094   0.363
27257W        W  325  18.612  28.201  14.909
27258W        W  326  41.244  33.139  14.955
27259W        W  327  24.531  12.555  13.026
27260W        W  328   5.824  19.473  10.663
27261W        W  329   6.349   0.264   2.004
27262W        W  330  19.715  19.674   1.507
27263W        W  331  11.120  24.999  11.503
27264W        W  332  33.914   9.813  11.637
27265W        W  333  21.024  10.831  13.314
27266W        W  334  42.948  21.135  13.953
27267W        W  335  23.137  29.083   1.364
27268W        W  336   9.443  28.619  11.141
27269W        W  337  32.368  11.239   3.109
27270W        W  338   1.545   0.767  11.854
27271W        W  339   2.289  31.178  12.953
27272W        W  340  23.661  18.770  12.877
27273W        W  341  29.724  29.670   3.012
27274W        W  342  12.579  35.043   2.564
27275W        W  343  17.511   8.322  11.840
27276W        W  344  32.923  11.371  12.694
27277W        W  345  26.731  16.363  12.433
27278W        W  346  34.570   3.784   1.866
27279W        W  347  25.797  33.067   2.748
27280W        W  348   1.351   3.021  11.692
27281W        W  349  25.909  28.616   0.459
27282W        W  350   0.212   4.120  14.807
27283W        W  351  11.277  14.430  11.542
27284W        W  352   2.210  43.464   3.129
27285W        W  353  17.159   5.897   0.348
27286W        W  354   3.760  27.644  13.507
27287W        W  355  40.052  41.393   2.220
27288W        W  356  37.099   5.725  14.853
27289W        W  357  27.641  23.987   1.571
27290W        W  358  23.588  36.397   4.385
27291W        W  359  24.062  42.287   2.709
27292W        W  360  19.668   2.567   1.315
27293W        W  361  29.459  13.610  14.038
27294W        W  362  37.159  41.140   0.540
27295W        W  363  34.923  14.752  14.199
27296W        W  364  18.656  31.693   2.923
27297W        W  365  25.768  39.066   2.976
27298W        W  366   1.729  38.920  14.946
27299W        W  367  24.131  33.115   4.263
27300W        W  368  19.082  18.942  14.986
27301W        W  369  14.925  11.553  13.447
27302W        W  370  34.319  25.373  10.838
27303W        W  371   9.315  16.704   0.968
27304W        W  372  30.946   3.943  11.099
27305W        W  373  12.334  29.435  14.860
27306W        W  374  20.818  22.334   1.875
27307W        W  375  38.991  44.322  10.627
27308W        W  376  32.541  34.607   3.261
27309W        W  377  40.363  43.496  12.939
27310W        W  378  44.973  32.022  13.057
27311W        W  379  35.242  33.916   5.416
27312W        W  380  27.903  31.373  13.965
27313W        W  381  31.273  21.206  14.823
27314W        W  382   2.276  31.953   3.114
27315W        W  383  34.614  34.535   3.959
27316W        W  384  31.608  19.148   4.244
27317W        W  385  13.643   6.219   0.756
27318W        W  386   4.665   1.677   2.376
27319W        W  387   2.295  28.142  11.182
27320W        W  388  10.398  23.707   1.990
27321W        W  389  41.386  42.192   3.344
27322W        W  390  22.640   0.436  14.636
27323W        W  391  32.945  24.962   3.568
27324W        W  392  34.588  13.221   2.452
27325W        W  393  11.657   7.388   2.570
27326W        W  394  39.032  34.045  12.417
27327W        W  395  32.454  30.149  11.544
27328W        W  396  31.580  21.501   0.506
27329W        W  397   6.827  31.469   0.450
27330W        W  398  44.817  25.232   2.973
27331W        W  399  44.844  29.300  13.061
27332W        W  400  13.226  34.170  12.822
27333W        W  401  16.314  29.830   3.210
27334W        W  402  23.159  18.201  12.490
27335W        W  403  35.958  22.933   4.765
27336W        W  404   6.450   9.469   3.099
27337W        W  405  11.584  24.778  14.853
27338W        W  406  12.538  40.430  11.915
27339W        W  407  13.143   6.481   5.064
27340W        W  408  28.219  10.619   1.875
27341W        W  409   7.625   1.857   0.241
27342W        W  410  31.993  41.447  10.752
27343W        W  411  43.787   9.358  13.023
27344W        W  412  29.418  43.846   1.884
27345W        W  413   0.155  23.989   3.705
27346W        W  414  32.809  14.801   4.536
27347W        W  415  44.329  11.501  11.243
27348W        W  416   1.837  11.631   1.971
27349W        W  417   2.193   4.215   4.107
27350W        W  418  29.080  18.790  12.517
27351W        W  419  24.173  29.037  10.621
27352W        W  420  34.407  13.585  14.232
27353W        W  421  32.506   5.379  14.298
27354W        W  422  21.576  11.610   3.132
27355W        W  423   5.031   2.750  11.707
27356W        W  424  19.617  17.329   2.850
27357W        W  425  26.512  22.162   3.773
27358W        W  426  23.022   3.927  12.164
27359W        W  427  43.172   6.400   3.846
27360W        W  428  28.688  22.004  11.004
27361W        W  429  27.742   3.720   1.257
27362W        W  430  25.701   5.732  13.080
27363W        W  431  16.155  22.256   0.317
27364W        W  432  14.588  31.691   4.360
27365W        W  433  43.379  10.765   1.189
27366W        W  434  24.202  22.186   0.721
27367W        W  435  26.050  36.943  10.580
27368W        W  436   1.111  38.072   1.309
27369W        W  437  31.028   4.685   1.735
27370W        W  438  21.121  32.168   3.419
27371W        W  439  38.831   1.139  14.932
27372W        W  440  38.017  44.750  12.000
27373W        W  441  34.017  25.953  11.282
27374W        W  442  30.720  39.163  11.012
27375W        W  443  26.445  14.691  11.981
27376W        W  444  32.373  28.174   0.157
27377W        W  445   0.425  40.538  14.436
27378W        W  446  19.320  15.142   1.251
27379W        W  447  10.317  11.132   2.363
27380W        W  448   6.277  34.430  13.861
27381W        W  449  21.647   0.229  11.755
27382W        W  450  43.128  11.275   2.247
27383W        W  451  25.287  15.282   2.657
27384W        W  452  29.845  40.032   3.716
27385W        W  453   5.825  12.654  13.822
27386W        W  454  40.570  30.995   0.969
27387W        W  455  42.329  12.309   2.851
27388W        W  456  29.081  39.280   4.413
27389W        W  457  28.881  40.368   0.885
27390W        W  458  37.374   3.450  10.966
27391W        W  459  19.608   0.888   2.732
27392W        W  460  41.232  23.478   1.709
27393W        W  461  15.310  40.465  11.114
27394W        W  462  25.956  27.237   1.876
27395W        W  463  25.525  40.537  12.864
27396W        W  464  18.187  36.895  14.040
27397W        W  465  24.250   3.397  12.868
27398W        W  466  12.193  41.768   0.761
27399W        W  467   9.553  32.035  10.974
27400W        W  468  28.150  11.805  14.014
27401W        W  469  16.726  22.376  14.457
27402W        W  470  27.841  36.432  13.122
27403W        W  471  20.218  37.438  10.378
27404W        W  472  29.142   7.962  12.502
27405W        W  473  29.898  18.097  11.183
27406W        W  474  12.524  25.335   1.767
27407W        W  475  44.037  38.527  12.018
27408W        W  476  38.912  13.243   2.787
27409W        W  477  18.068  18.202  14.027
27410W        W  478  12.644   9.913  14.939
27411W        W  479  25.637  31.958   4.677
27412W        W  480   5.631  43.230  11.124
27413W        W  481  10.402  29.095   2.990
27414W        W  482  22.192  20.786  10.697
27415W        W  483   4.394  26.273   3.271
27416W        W  484  39.339   5.497   1.875
27417W        W  485  11.272  41.340   4.879
27418W        W  486   6.117   2.262   4.156
27419W        W  487   8.180  42.858  11.585
27420W        W  488  39.028  33.346  12.019
27421W        W  489  16.373  36.446  13.788
27422W        W  490  12.668   5.311   2.497
27423W        W  491   9.609  35.939  12.178
27424W        W  492   0.938  31.715  10.198
27425W        W  493  39.888   1.014  10.226
27426W        W  494  21.264  37.898  11.064
27427W        W  495  41.022  15.248   1.696
27428W        W  496  37.411   3.316  10.485
27429W        W  497   6.596  42.395   4.146
27430W        W  498  15.671  23.040  14.708
27431W        W  499  12.888   4.650   1.410
27432W        W  500  30.323  42.865   1.441
27433W        W  501   7.896   1.479   4.655
27434W        W  502  32.035  33.416  12.407
27435W        W  503  24.254   7.376  10.017
27436W        W  504  33.351  33.211   1.244
27437W        W  505  12.806  41.851   1.426
27438W        W  506  38.103  15.031  13.394
27439W        W  507  14.340  25.078   3.180
27440W        W  508  10.197  13.360  13.248
27441W        W  509  11.207  39.547   0.804
27442W        W  510   7.701   1.972  13.840
27443W        W  511  40.956   7.041   1.479
27444W        W  512  36.366  17.946  12.495
27445W        W  513  38.046  22.911   0.873
27446W        W  514  33.393  17.078  14.026
27447W        W  515   5.930  32.481   1.482
27448W        W  516  22.015  28.661  10.514
27449W        W  517  14.121  11.337  11.674
27450W        W  518  20.617  42.915   3.548
27451W        W  519  23.268  42.401   0.757
27452W        W  520   4.476  18.642  13.098
27453W        W  521   9.348  15.605   1.335
27454W        W  522   3.957  26.832  13.894
27455W        W  523  32.684  26.361  12.137
27456W        W  524  27.417  22.496   4.554
27457W        W  525  10.604  21.121   0.816
27458W        W  526   2.248  26.110  14.435
27459W        W  527  33.871  42.931   3.730
27460W        W  528   5.152   4.786  14.517
27461W        W  529  30.367  14.902   3.956
27462W        W  530  21.599  32.555  13.024
27463W        W  531  16.679   5.804   1.663
27464W        W  532  40.419  16.589  13.323
27465W        W  533  12.854  19.020   2.272
27466W        W  534  38.440   4.905  10.720
27467W        W  535  22.407  31.722  10.209
27468W        W  536  20.706  25.137   3.220
27469W        W  537   7.908  33.246  11.475
27470W        W  538  21.638  33.085  12.321
27471W        W  539   7.752   6.917  13.021
27472W        W  540   5.784  10.665   3.683
27473W        W  541  30.480  30.412   4.520
27474W        W  542  31.609   2.329  14.001
27475W        W  543  28.474  18.922   0.720
27476W        W  544   9.030  32.989  10.678
27477W        W  545   3.990  36.816  11.159
27478W        W  546  11.806   8.660  12.905
27479W        W  547  37.049  16.835  12.461
27480W        W  548  28.405  40.334  13.445
27481W        W  549  26.706  38.951   2.230
27482W        W  550  23.190   2.410  13.849
27483W        W  551  13.484   2.205   4.088
27484W        W  552  41.600  29.499  14.495
27485W        W  553  41.882  35.463   2.278
27486W        W  554   7.758  40.615   0.607
27487W        W  555  39.863  33.626  12.349
27488W        W  556   8.801   3.465  14.531
27489W        W  557  36.393   5.474  14.947
27490W        W  558  31.211  33.828  12.121
27491W        W  559  21.546   2.186   2.267
27492W        W  560  32.085  13.313  11.155
27493W        W  561  42.277   7.938  12.603
27494W        W  562  19.336  22.021  12.413
27495W        W  563   4.622  39.580   0.753
27496W        W  564  43.704  35.326  11.647
27497W        W  565  43.734  25.616   4.154
27498W        W  566   7.781  19.363   4.744
27499W        W  567  39.567  33.103  12.169
27500W        W  568  23.406  20.604  14.471
27501W        W  569  34.468  19.593   3.300
27502W        W  570   1.790   1.738  12.047
27503W        W  571  22.541   2.065   0.275
27504W        W  572  19.706  25.967  12.012
27505W        W  573  23.507  41.343   1.786
27506W        W  574   5.929   6.840   3.266
27507W        W  575  22.943  24.045   3.321
27508W        W  576  28.300  44.024  11.420
27509W        W  577   7.159  39.406   3.702
27510W        W  578  38.318  42.532   4.606
27511W        W  579  16.472   7.880  10.814
27512W        W  580  40.930  26.779  12.405
27513W        W  581  26.016   8.831   0.335
27514W        W  582  29.787  40.555   4.945
27515W        W  583  44.222  41.008   0.374
27516W        W  584  32.854  32.867   4.184
27517W        W  585   0.535  35.548  13.342
27518W        W  586  39.283  24.030   4.254
27519W        W  587  28.210   6.306  13.497
27520W        W  588   0.801  29.948   0.439
27521W        W  589   5.381  16.010   4.200
27522W        W  590  28.434  35.521  14.013
27523W        W  591   1.255   7.731  14.393
27524W        W  592  21.046   1.242   3.681
27525W        W  593   2.316  13.677   1.686
27526W        W  594   8.169  17.156   2.852
27527W        W  595  32.373  25.766   4.036
27528W        W  596  11.831  44.818   0.785
27529W        W  597  31.491   7.732  14.608
27530W        W  598  38.993  35.001   1.307
27531W        W  599  33.270  10.009  13.765
27532W        W  600  16.321  19.409   4.719
27533W        W  601   6.426  11.852  10.060
27534W        W  602  29.608  31.409   1.740
27535W        W  603  38.974  25.518  11.576
27536W        W  604  41.984  14.057  10.700
27537W        W  605   9.893  40.026  12.868
27538W        W  606  13.194  30.750   3.880
27539W        W  607  28.881  32.164  12.428
27540W        W  608  22.388  27.713   5.004
27541W        W  609  29.665  34.135   4.119
27542W        W  610   6.695  19.554   2.340
27543W        W  611  36.506  43.597  11.101
27544W        W  612  24.273  36.833  11.656
27545W        W  613   9.783  36.531   0.805
27546W        W  614  25.892   5.441  13.685
27547W        W  615  28.973   8.307  11.768
27548W        W  616  23.133  42.333  13.069
27549W        W  617  18.853  44.729  11.096
27550W        W  618  27.734  11.083   1.209
27551W        W  619  27.650  25.490  11.543
27552W        W  620  30.556  41.147  13.104
27553W        W  621   9.794  42.704  10.156
27554W        W  622  42.322  43.300  13.023
27555W        W  623  40.529  36.072   2.295
27556W        W  624  39.897  21.499  11.549
27557W        W  625  37.177   4.321  10.216
27558W        W  626  43.785  44.403  14.352
27559W        W  627  44.336  28.911  10.647
27560W        W  628  26.152   7.343  12.799
27561W        W  629  24.010  35.958  11.213
27562W        W  630   9.738  15.211   1.429
27563W        W  631   0.200   2.854  13.971
27564W        W  632  42.781  30.471   0.847
27565W        W  633  34.557  24.239  13.443
27566W        W  634  10.902  29.450  13.504
27567W        W  635  25.594  18.027  13.644
27568W        W  636   3.779  27.952  12.114
27569W        W  637   5.193  27.204  10.439
27570W        W  638  30.501  27.774   0.298
27571W        W  639  40.207  28.229  14.698
27572W        W  640  28.511   9.888   4.362
27573W        W  641   3.337  24.216   3.163
27574W        W  642  33.308  41.265  14.273
27575W        W  643  40.472  42.907  11.165
27576W        W  644  35.252  40.837  14.510
27577W        W  645  16.951  15.787  10.249
27578W        W  646  21.173   4.105   0.987
27579W        W  647  21.428  33.567  12.413
27580W        W  648  35.464  22.829   4.183
27581W        W  649  28.483  23.513   1.916
27582W        W  650  43.874  25.140  11.312
27583W        W  651  44.433  17.345  10.213
27584W        W  652  34.642  33.205  14.402
27585W        W  653  27.160  13.207  14.500
27586W        W  654   4.153  19.558  12.075
27587W        W  655  17.352  20.633   4.933
27588W        W  656  18.875  43.245  14.848
27589W        W  657  42.339  13.786   9.876
27590W        W  658  33.891  42.228  12.506
27591W        W  659  41.494  15.634  14.967
27592W        W  660  33.046  16.071   0.067
27593W        W  661  38.606  23.783  12.121
27594W        W  662   0.828  13.895  13.968
27595W        W  663  44.837  17.781  12.605
27596W        W  664   9.898  12.564  12.383
27597W        W  665  34.981  33.908   0.949
27598W        W  666  31.290  10.759  12.411
27599W        W  667   4.978  18.656   0.703
27600W        W  668   4.685  30.921   0.029
27601W        W  669  43.309  12.876  11.167
27602W        W  670  30.991  32.204   3.697
27603W        W  671  26.797   3.186  11.221
27604W        W  672  14.131  18.212   4.303
27605W        W  673  43.210  23.768   3.910
27606W        W  674  42.350   8.977  14.078
27607W        W  675   2.012  33.011   1.023
27608W        W  676  17.738  26.176   0.012
27609W        W  677  11.761  32.943  13.742
27610W        W  678   9.769   7.353   0.338
27611W        W  679   0.877  25.513   3.266
27612W        W  680  44.958   7.691  14.531
27613W        W  681  24.435   3.480   2.918
27614W        W  682  39.620   8.592   0.303
27615W        W  683   1.100  11.605   3.657
27616W        W  684  42.876   6.745   2.908
27617W        W  685   2.862  37.773   4.198
27618W        W  686  13.231  38.313  12.187
27619W        W  687  33.431   6.889  13.861
27620W        W  688  16.765   5.646  12.845
27621W        W  689  22.844  44.032   4.659
27622W        W  690   1.251  30.005  10.399
27623W        W  691   1.459   2.164  12.026
27624W        W  692  31.192  44.561   2.653
27625W        W  693  31.903  43.536   4.689
27626W        W  694  43.019  24.098  14.408
27627W        W  695  37.354   8.243   0.545
27628W        W  696   4.004   0.987   0.327
27629W        W  697  28.478  10.306   4.653
27630W        W  698  36.352   8.798  11.493
27631W        W  699  18.301  39.500  11.712
27632W        W  700  30.062  12.194  11.656
27633W        W  701   9.346  31.370   0.038
27634W        W  702   1.910   8.722   1.962
27635W        W  703   7.614  23.806  14.272
27636W        W  704  34.433  37.405   3.999
27637W        W  705  30.933  10.183  14.446
27638W        W  706  13.220  26.123   0.364
27639W        W  707  34.161  31.385  14.289
27640W        W  708  34.467   4.466  14.255
27641W        W  709   0.487  13.628   2.749
27642W        W  710  24.349  35.790   2.567
27643W        W  711  39.618  20.714   0.767
27644W        W  712  20.779   2.430  10.551
27645W        W  713  12.102  20.128   0.934
27646W        W  714  42.515  32.207   1.290
27647W        W  715  18.700  44.949   4.730
27648W        W  716  30.885  39.536  13.597
27649W        W  717  44.253   3.571   3.835
27650W        W  718  31.960  16.458  12.882
27651W        W  719   7.646  10.702   2.629
27652W        W  720  30.078  39.543  11.260
27653W        W  721  28.169  32.201   2.779
27654W        W  722  32.593  38.541   0.484
27655W        W  723  25.603   5.693   2.207
27656W        W  724   6.913  16.552   4.130
27657W        W  725  22.006  17.572   1.642
27658W        W  726  21.239  10.743   2.770
27659W        W  727  44.200   8.874  11.627
27660W        W  728  25.125  21.029   4.238
27661W        W  729  25.680  11.227  14.505
27662W        W  730  18.258  41.957   4.549
27663W        W  731  39.552  14.062  14.420
27664W        W  732  10.345  39.457   3.844
27665W        W  733   7.818  22.441   2.733
27666W        W  734  24.096   0.788   0.032
27667W        W  735   3.777  44.429  12.061
27668W        W  736  26.622  25.277  10.305
27669W        W  737  31.550  35.649   1.773
27670W        W  738  21.371  30.086   4.794
27671W        W  739  33.192   0.702   2.449
27672W        W  740  17.057  37.451  11.019
27673W        W  741  10.731  29.593   3.241
27674W        W  742  30.561  38.546  12.040
27675W        W  743  15.725  23.074   1.549
27676W        W  744   8.433  34.915   2.788
27677W        W  745  10.207   4.885  14.633
27678W        W  746  41.351  26.233  14.032
27679W        W  747  23.744  11.136  14.772
27680W        W  748  41.815   7.658  13.322
27681W        W  749  19.483  43.997   2.461
27682W        W  750  30.355  41.860   4.205
27683W        W  751  41.480  36.507   3.323
27684W        W  752   7.955   4.997   2.749
27685W        W  753  31.295  39.321   0.424
27686W        W  754   1.534  17.523   1.472
27687W        W  755  24.426   5.263   4.671
27688W        W  756  19.211   0.888   4.574
27689W        W  757  11.214  14.040   3.334
27690W        W  758  30.862  15.379  14.025
27691W        W  759  27.167  13.696   4.572
27692W        W  760   5.212  40.299   4.147
27693W        W  761  24.934  40.828   5.325
27694W        W  762  25.062   8.801   3.879
27695W        W  763  37.062  32.635   2.251
27696W        W  764  25.243   4.805   2.037
27697W        W  765  34.342  42.442   0.836
27698W        W  766  28.545  41.486   1.895
27699W        W  767  11.162   7.118   0.798
27700W        W  768  20.727  38.951  10.570
27701W        W  769  44.214  15.636  12.308
27702W        W  770  27.927  42.267  13.980
27703W        W  771  35.969  28.259   4.130
27704W        W  772  44.466  44.492  11.978
27705W        W  773  33.621  25.003  12.010
27706W        W  774  44.492   5.389  14.394
27707W        W  775  26.018  27.514   0.496
27708W        W  776  29.650  18.007   1.880
27709W        W  777  21.557  22.795  13.050
27710W        W  778   3.038  34.412  13.178
27711W        W  779   7.835  14.383   4.343
27712W        W  780   4.231  31.154  15.000
27713W        W  781  19.768  37.536   1.457
27714W        W  782   6.256  34.527  12.983
27715W        W  783  18.610   7.936   0.724
27716W        W  784  17.837  27.896   2.968
27717W        W  785  23.054  39.775   1.918
27718W        W  786  11.674  33.192   2.460
27719W        W  787  34.544   4.900  11.912
27720W        W  788   8.390  14.227  10.823
27721W        W  789  20.111  25.271  11.624
27722W        W  790   5.411  41.810   1.027
27723W        W  791   7.746   1.308  12.450
27724W        W  792  30.013   3.683   0.265
27725W        W  793  29.523  33.391   2.747
27726W        W  794  13.673  12.180  14.551
27727W        W  795  41.836  27.052   0.178
27728W        W  796  44.548  37.401  11.599
27729W        W  797  31.496  16.096   3.153
27730W        W  798  27.603  33.713  11.611
27731W        W  799  41.083   6.434  13.326
27732W        W  800  22.683  41.247  13.069
27733W        W  801  18.853  23.238   1.631
27734W        W  802  36.948  21.383  10.538
27735W        W  803  20.771  36.786  11.228
27736W        W  804  44.712  31.103   4.046
27737W        W  805   6.750  16.854  14.449
27738W        W  806  35.923  21.576  12.211
27739W        W  807  25.124   5.386  13.345
27740W        W  808  22.149  19.002  10.684
27741W        W  809  40.710   1.096   5.518
27742W        W  810   8.845   2.461  11.538
27743W        W  811  25.619  28.608  13.148
27744W        W  812   7.255  32.315  13.956
27745W        W  813  32.573  42.251  13.305
27746W        W  814  44.906   0.235   3.172
27747W        W  815  24.988  37.969   2.208
27748W        W  816   5.929   5.264  12.988
27749W        W  817   6.443  34.126   1.303
27750W        W  818  24.615   2.414   1.760
27751W        W  819  15.216  36.949  14.389
27752W        W  820  10.792  28.762   0.091
27753W        W  821  29.895  35.653  12.092
27754W        W  822  39.889  14.651   3.334
27755W        W  823   5.764  38.237  12.856
27756W        W  824   4.380  28.223   2.289
27757W        W  825  44.034  25.536   0.622
27758W        W  826  25.634  34.814   5.017
27759W        W  827  41.239  10.718  10.542
27760W        W  828   9.605  42.026  13.045
27761W        W  829  18.034  19.562  12.449
27762W        W  830  15.398  42.029   1.466
27763W        W  831   8.727  11.727   3.508
27764W        W  832  21.144   3.758  12.307
27765W        W  833  13.650  34.867  14.949
27766W        W  834  39.523  26.887   4.490
27767W        W  835  36.666  26.384   4.169
27768W        W  836  17.008  24.219   3.151
27769W        W  837  23.504  41.043  11.024
27770W        W  838  10.849  33.835  14.551
27771W        W  839  14.888  13.695   3.789
27772W        W  840  35.058  43.940  13.192
27773W        W  841  23.498  41.343  13.988
27774W        W  842   8.483  12.862   0.945
27775W        W  843  22.003  23.534   0.888
27776W        W  844  20.683  23.395   3.787
27777W        W  845  24.280  44.834   1.897
27778W        W  846   2.211  11.291   3.005
27779W        W  847   0.271  25.923  11.998
27780W        W  848   4.300  14.264  13.305
27781W        W  849  30.093   9.314   0.802
27782W        W  850  40.398  44.051   1.365
27783W        W  851   8.256   0.497   2.296
27784W        W  852  19.766   8.997  14.363
27785W        W  853  18.006  19.050  13.728
27786W        W  854  36.904   2.195  11.179
27787W        W  855  43.732  18.786  13.892
27788W        W  856  13.383  37.425  13.391
27789W        W  857  20.512  35.056   2.056
27790W        W  858   0.647  18.135  14.413
27791W        W  859   6.733  39.859  10.319
27792W        W  860  25.991   1.640  12.804
27793W        W  861  10.765  39.152  11.560
27794W        W  862  38.193  39.370   1.021
27795W        W  863  23.543  43.274   1.315
27796W        W  864  40.417  38.043  13.951
27797W        W  865  13.788  31.392  12.771
27798W        W  866  36.157  16.690  13.849
27799W        W  867  39.874  11.549   2.804
27800W        W  868  25.548  12.502   5.061
27801W        W  869  32.402  23.955   3.697
27802W        W  870  15.196  21.789   3.340
27803W        W  871  25.580  28.589  13.640
27804W        W  872  32.395   7.165  11.993
27805W        W  873   6.239  19.735  14.452
27806W        W  874  37.913  29.613  14.211
27807W        W  875  11.688  33.587   4.754
27808W        W  876  19.228  13.086  14.992
27809W        W  877   2.699   0.211  13.364
27810W        W  878  29.975  20.583   3.777
27811W        W  879   8.857  30.770   2.473
27812W        W  880  22.106  38.011   1.218
27813W        W  881  30.837  28.631  12.500
27814W        W  882   5.810  41.997  13.797
27815W        W  883   7.767  29.088   4.654
27816W        W  884   2.399  10.796   2.930
27817W        W  885  25.686  35.357  12.957
27818W        W  886  15.728   2.321  11.520
27819W        W  887   8.335   8.173   2.976
27820W        W  888  29.122  21.771  12.457
27821W        W  889  19.677   5.820  13.093
27822W        W  890   6.747   2.951   0.825
27823W        W  891  27.686  25.891  11.107
27824W        W  892  38.537  31.542  13.072
27825W        W  893  33.641  10.222  12.664
27826W        W  894  18.411  38.747  13.922
27827W        W  895  29.238  35.757   0.975
27828W        W  896  31.053   0.877   3.490
27829W        W  897  29.258  34.544   1.937
27830W        W  898  42.246  29.076   0.095
27831W        W  899  22.799  14.759  12.015
27832W        W  900  22.276  10.689  13.933
27833W        W  901  30.852   0.631  13.844
27834W        W  902  14.346  20.694  14.905
27835W        W  903  15.800  31.310  12.439
27836W        W  904   4.807  12.985  12.066
27837W        W  905   2.373  10.593  13.398
27838W        W  906  39.447   2.095  13.814
27839W        W  907  22.536  39.826  12.111
27840W        W  908  22.649  38.848   2.531
27841W        W  909  17.341   7.228  12.078
27842W        W  910  11.406  34.586   4.528
27843W        W  911   0.035  31.693  10.667
27844W        W  912   0.446  12.033  14.229
27845W        W  913  10.824   9.349  11.122
27846W        W  914  40.927  31.488  14.239
27847W        W  915  43.788   9.573  11.613
27848W        W  916  38.132  32.344   4.187
27849W        W  917  10.332  21.615  12.406
27850W        W  918   7.648  19.157  14.446
27851W        W  919  20.193  18.683   3.696
27852W        W  920  28.446  39.926  14.558
27853W        W  921  20.499  12.738   4.553
27854W        W  922  21.546  31.948   2.659
27855W        W  923  22.708   9.204   2.264
27856W        W  924  39.074  35.439   0.304
27857W        W  925   6.225   8.412   2.778
27858W        W  926  21.780  10.369   4.026
27859W        W  927  24.474   0.499  14.384
27860W        W  928  12.052  21.432   1.398
27861W        W  929  41.150   7.219   2.387
27862W        W  930   6.341  12.365  12.287
27863W        W  931  17.799  19.600   2.376
27864W        W  932  34.526  36.019   1.839
27865W        W  933  41.218   6.244   4.533
27866W        W  934  36.339  24.097  13.991
27867W        W  935   2.546  19.523   0.470
27868W        W  936   8.585  36.676   0.318
27869W        W  937   7.698   6.426  14.954
27870W        W  938   8.760  24.579  14.467
27871W        W  939  16.666  24.162   2.737
27872W        W  940  22.273  16.781  11.974
27873W        W  941  20.024  23.796  14.371
27874W        W  942  26.939  15.527   0.821
27875W        W  943  41.768  34.187   1.671
27876W        W  944   2.218  19.122  13.002
27877W        W  945  13.168  37.995  14.881
27878W        W  946   3.923  25.026  14.737
27879W        W  947  30.116   3.302  14.909
27880W        W  948  27.454  40.594   0.911
27881W        W  949  42.018  13.886  12.118
27882W        W  950   0.895  14.948   2.069
27883W        W  951  28.517   8.729  13.426
27884W        W  952   9.909  26.188   1.486
27885W        W  953  33.967  36.363   1.761
27886W        W  954  40.418   1.393   5.145
27887W        W  955  21.038   0.843  11.482
27888W        W  956  33.435  27.680  10.865
27889W        W  957  29.163   0.293  12.348
27890W        W  958  30.435  23.547   1.295
27891W        W  959  41.470   1.088   0.404
27892W        W  960  43.569   4.779  12.374
27893W        W  961  23.803   8.688   3.512
27894W        W  962  13.148   0.857  14.869
27895W        W  963  40.895  40.403   4.803
27896W        W  964  35.960  19.126   2.186
27897W        W  965  17.298   8.784   4.513
27898W        W  966  40.100  20.149  14.456
27899W        W  967  18.862  40.299   2.284
27900W        W  968  22.147  16.798  10.660
27901W        W  969   8.793  41.553  10.600
27902W        W  970   9.249  38.381  13.561
27903W        W  971  21.234   8.743   3.846
27904W        W  972   3.806  39.095   3.211
27905W        W  973  38.434  35.529  14.707
27906W        W  974  42.843  24.811  10.980
27907W        W  975  24.218   6.463   3.197
27908W        W  976   6.170   9.234   2.719
27909W        W  977   6.641  41.451   0.336
27910W        W  978  33.056  16.276  12.215
27911W        W  979  42.006  24.098   0.062
27912W        W  980   1.813  38.292  12.827
27913W        W  981   4.813  25.637  11.521
27914W        W  982   1.928  13.162   2.741
27915W        W  983   5.319  36.177  13.780
27916W        W  984  16.284  28.044   1.848
27917W        W  985   4.820  31.126  13.886
27918W        W  986  32.933  31.504   4.057
27919W        W  987  33.056  32.475   4.435
27920W        W  988   7.985  26.580   0.491
27921W        W  989  14.596  38.910   2.135
27922W        W  990   1.959  30.425   0.498
27923W        W  991   4.903  36.344  12.457
27924W        W  992  14.568   8.617   3.877
27925W        W  993   3.109  15.412  11.210
27926W        W  994  21.191  27.725  13.106
27927W        W  995  11.545   0.326  11.039
27928W        W  996  17.626  23.230  10.625
27929W        W  997  23.259  12.577  10.661
27930W        W  998  16.672  11.042   4.127
27931W        W  999  12.572  14.918   0.651
27932W        W 1000  32.521  14.150   5.040
27933W        W 1001  12.689  28.087   1.411
27934W        W 1002  36.529  10.202  10.283
27935W        W 1003  30.381  35.389   3.269
27936W        W 1004   7.968   5.345   1.445
27937W        W 1005   3.957  33.388  11.157
27938W        W 1006   9.703   9.424  14.251
27939W        W 1007   2.397  39.914  11.926
27940W        W 1008  36.863  36.432  12.177
27941W        W 1009  32.010  26.101  14.866
27942W        W 1010   1.047  43.871   2.216
27943W        W 1011   2.405  32.422   2.351
27944W        W 1012  25.661  33.685  10.742
27945W        W 1013  40.386   9.688   2.220
27946W        W 1014  19.588  15.332   0.560
27947W        W 1015   2.002  35.898   4.167
27948W        W 1016   8.916  44.880   4.792
27949W        W 1017  30.698   2.966   3.684
27950W        W 1018   1.506  11.061  11.603
27951W        W 1019  26.128  11.424   0.296
27952W        W 1020  44.769  44.721   3.739
27953W        W 1021  17.688  38.065   2.320
27954W        W 1022   7.317  41.997   2.208
27955W        W 1023  31.186   3.404   2.203
27956W        W 1024  30.352  33.806   0.551
27957W        W 1025  35.785   7.699   2.175
27958W        W 1026  44.470  25.045   1.840
27959W        W 1027  31.198   3.524  11.307
27960W        W 1028  29.162  28.142   0.560
27961W        W 1029  26.953  15.130  14.411
27962W        W 1030   9.332  14.537  10.710
27963W        W 1031  24.019   9.750  14.296
27964W        W 1032  10.703  16.278  14.455
27965W        W 1033  12.445  20.435  12.121
27966W        W 1034  22.270  33.588   2.126
27967W        W 1035  14.248  25.960  10.475
27968W        W 1036   1.241  27.908   4.643
27969W        W 1037  34.135  16.627   4.564
27970W        W 1038   0.483  25.190   0.433
27971W        W 1039  43.394  28.581  13.310
27972W        W 1040   0.281  43.365   2.401
27973W        W 1041  15.608   8.322  12.034
27974W        W 1042  42.793   7.674  14.529
27975W        W 1043  10.252  23.571   0.973
27976W        W 1044  31.744   7.226   3.919
27977W        W 1045  33.947   3.514   4.731
27978W        W 1046  26.954  28.676  12.448
27979W        W 1047   4.620   8.848  11.163
27980W        W 1048   3.855  39.346  12.131
27981W        W 1049  35.919  35.047  13.239
27982W        W 1050  41.051  43.778   0.195
27983W        W 1051   8.704  11.695   2.784
27984W        W 1052  28.101   5.740  14.496
27985W        W 1053  38.301  17.418   3.225
27986W        W 1054  42.906  27.055   1.561
27987W        W 1055  14.659  15.109   3.646
27988W        W 1056  21.639  15.881   0.855
27989W        W 1057  44.291  34.414  12.122
27990W        W 1058  41.408  15.077   2.700
27991W        W 1059   0.038   5.605   3.339
27992W        W 1060  24.989   7.322   1.842
27993W        W 1061  40.358   7.645  12.398
27994W        W 1062  25.155  23.512   2.761
27995W        W 1063   8.853   4.151   3.714
27996W        W 1064  43.217   0.860   2.426
27997W        W 1065  17.702   3.835  12.042
27998W        W 1066  17.193  30.962   2.285
27999W        W 1067  22.059  37.399   2.410
28000W        W 1068  34.387  39.168   2.404
28001W        W 1069  32.333  14.251  13.859
28002W        W 1070  29.498  32.584   1.616
28003W        W 1071  17.827   0.562   3.789
28004W        W 1072   4.360  19.919  10.324
28005W        W 1073   8.642  22.643  14.723
28006W        W 1074  32.261  25.559   4.528
28007W        W 1075  44.794  23.098  12.486
28008W        W 1076   4.520  35.899   2.698
28009W        W 1077  29.423  19.153  13.599
28010W        W 1078  15.255  42.255   0.225
28011W        W 1079  32.955  34.187  14.032
28012W        W 1080  16.710  24.893   0.048
28013W        W 1081  21.309  28.152   0.852
28014W        W 1082  14.218  35.407   5.010
28015W        W 1083  18.335  21.112   3.607
28016W        W 1084  15.175  42.386  12.513
28017W        W 1085  13.219  14.439  14.975
28018W        W 1086   2.279  23.755   4.234
28019W        W 1087   9.863  38.128   4.176
28020W        W 1088  18.456  41.055  11.008
28021W        W 1089  10.662   1.385  10.607
28022W        W 1090  40.528  14.250  14.561
28023W        W 1091  28.717  29.408  12.082
28024W        W 1092  43.435  37.299   1.492
28025W        W 1093   4.612   5.472  13.327
28026W        W 1094  11.129  10.897  12.778
28027W        W 1095  32.894  30.178   1.926
28028W        W 1096  23.981  19.022  11.123
28029W        W 1097  42.934  28.608  13.556
28030W        W 1098  32.172   7.867   0.420
28031W        W 1099   1.512  22.223  12.213
28032W        W 1100  15.036  13.834   1.413
28033W        W 1101  11.690  31.045   0.326
28034W        W 1102   0.833  25.118  12.818
28035W        W 1103  44.854  42.370   4.670
28036W        W 1104  21.299  14.872   4.073
28037W        W 1105  23.639   4.358  12.781
28038W        W 1106   9.072   1.843   0.739
28039W        W 1107  23.501  30.060  11.176
28040W        W 1108  40.310  20.521  12.982
28041W        W 1109  32.100  15.547   1.300
28042W        W 1110  27.117  16.129   3.339
28043W        W 1111  27.692  37.019   0.253
28044W        W 1112  27.950  34.894   2.725
28045W        W 1113  21.551   0.155   4.433
28046W        W 1114   7.870   6.792  13.860
28047W        W 1115  44.708  25.640  13.361
28048W        W 1116  22.679   8.688   2.314
28049W        W 1117   8.605  12.607  14.319
28050W        W 1118  23.987  34.939  14.919
28051W        W 1119   9.577  21.471   3.284
28052W        W 1120  29.253  11.670   2.360
28053W        W 1121   2.371   3.450  14.766
28054W        W 1122  11.600  37.577   0.231
28055W        W 1123  22.721  17.032  11.518
28056W        W 1124  10.669  19.737   1.240
28057W        W 1125  31.536  42.898  10.715
28058W        W 1126  35.819  34.594  14.511
28059W        W 1127  38.827  16.908   3.731
28060W        W 1128  30.688  24.930  12.574
28061W        W 1129  40.979  44.652  10.088
28062W        W 1130  30.931  14.693  12.412
28063W        W 1131  16.129  43.047  13.947
28064W        W 1132  13.597   1.905   1.884
28065W        W 1133  14.679  28.710   3.844
28066W        W 1134  35.630  28.280  14.013
28067W        W 1135  17.137  38.935  12.007
28068W        W 1136  21.077  11.972   1.514
28069W        W 1137   8.386  30.196   3.192
28070W        W 1138   8.407  21.853   1.270
28071W        W 1139  44.963  43.599   0.320
28072W        W 1140   7.759  33.108   4.740
28073W        W 1141  33.625   8.345  10.414
28074W        W 1142  20.325  17.302   2.279
28075W        W 1143  34.449  34.732  14.401
28076W        W 1144  29.070  42.249   3.125
28077W        W 1145  26.438   2.109  13.520
28078W        W 1146  18.425  26.407   4.722
28079W        W 1147  27.109   4.310  14.331
28080W        W 1148  18.705   2.193  11.542
28081W        W 1149  42.869  40.846  14.847
28082W        W 1150  39.354  41.007   0.232
28083W        W 1151  27.912  11.174   5.028
28084W        W 1152  12.348  17.644  12.130
28085W        W 1153  23.583  10.246  14.639
28086W        W 1154  23.457   5.792   3.106
28087W        W 1155  32.350  40.354  14.867
28088W        W 1156  24.180   7.342  11.498
28089W        W 1157   1.024  38.705   3.064
28090W        W 1158   4.976  43.767  13.162
28091W        W 1159  36.974  19.043   1.969
28092W        W 1160  12.071  31.119   1.709
28093W        W 1161  44.705   4.067  10.799
28094W        W 1162  15.083   8.888   1.315
28095W        W 1163   5.301   6.469   1.722
28096W        W 1164   6.990  32.048  11.353
28097W        W 1165  39.534  23.291  11.563
28098W        W 1166   8.934  27.897   4.154
28099W        W 1167  37.424  42.237  13.499
28100W        W 1168  25.475  23.946   0.353
28101W        W 1169  15.098  14.809  12.009
28102W        W 1170   4.160  21.263  13.059
28103W        W 1171  19.296  43.476  11.423
28104W        W 1172  23.700  20.837   3.276
28105W        W 1173  31.574   2.200   0.025
28106W        W 1174  16.857  21.052  14.729
28107W        W 1175  10.370   1.273  12.548
28108W        W 1176  19.044  43.704   3.840
28109W        W 1177  14.369   8.991  13.902
28110W        W 1178  32.127  40.950  14.021
28111W        W 1179  37.144  22.471  14.499
28112W        W 1180   5.729  16.149  11.967
28113W        W 1181   4.994  34.134   0.348
28114W        W 1182  14.852  15.050   1.731
28115W        W 1183  25.450  30.014  13.841
28116W        W 1184  30.833  12.886   0.862
28117W        W 1185  40.951  42.382  14.308
28118W        W 1186   7.661  32.923   0.307
28119W        W 1187  23.636  15.866  11.463
28120W        W 1188   1.187  10.349   2.778
28121W        W 1189   4.715  24.267   0.351
28122W        W 1190  19.010  10.621   1.958
28123W        W 1191  31.957  35.587  11.015
28124W        W 1192  36.480  11.629   0.892
28125W        W 1193  28.373   6.538   4.310
28126W        W 1194  18.921  27.505   0.385
28127W        W 1195  27.387  11.659  14.951
28128W        W 1196  14.641   8.568   3.366
28129W        W 1197  32.053   8.717   2.743
28130W        W 1198  27.144  44.309  14.879
28131W        W 1199  42.948  32.843   4.677
28132W        W 1200  35.586  37.888   2.141
28133W        W 1201   4.278  34.655   4.068
28134W        W 1202  23.607  26.128  11.670
28135W        W 1203  44.490  44.899   3.296
28136W        W 1204  41.844  10.715   0.702
28137W        W 1205   1.779   4.864   1.344
28138W        W 1206   0.502   8.727   1.386
28139W        W 1207   8.262  24.667   2.881
28140W        W 1208  34.341  20.071   2.267
28141W        W 1209  36.381  40.006   4.264
28142W        W 1210  44.979  13.805  14.878
28143W        W 1211  26.221  38.959  10.031
28144W        W 1212  16.846  11.341   3.726
28145W        W 1213   0.527  28.110   1.691
28146W        W 1214  24.235  40.913  12.458
28147W        W 1215   8.291  27.665  12.887
28148W        W 1216  11.130   2.973  10.922
28149W        W 1217  24.777  38.322   5.006
28150W        W 1218  17.025  42.793   1.412
28151W        W 1219  15.350  39.062  12.161
28152W        W 1220  20.122  27.600  14.725
28153W        W 1221  38.897  11.548   2.278
28154W        W 1222  16.143  24.679   3.159
28155W        W 1223  12.359  16.891  13.339
28156W        W 1224  20.381  28.528   3.639
28157W        W 1225  24.985  39.509   1.398
28158W        W 1226  26.013  38.231   4.440
28159W        W 1227  24.388  28.844   0.796
28160W        W 1228  19.599  17.783  10.679
28161W        W 1229  34.066   4.437   2.315
28162W        W 1230   6.848   2.539  12.672
28163W        W 1231   0.957  24.914  10.732
28164W        W 1232  37.518   6.710  12.558
28165W        W 1233  11.257   5.760   4.539
28166W        W 1234   1.250  13.883  12.780
28167W        W 1235  24.204  41.326   0.867
28168W        W 1236  12.882   6.431  13.050
28169W        W 1237   4.009  40.337   1.459
28170W        W 1238  39.415   6.352  13.939
28171W        W 1239  13.595  12.330   0.858
28172W        W 1240  36.794   3.098   0.598
28173W        W 1241  21.294  10.530  12.930
28174W        W 1242  39.917  39.516   2.304
28175W        W 1243  15.364  19.880  11.272
28176W        W 1244  43.979   3.400   0.286
28177W        W 1245  37.457  11.357  11.605
28178W        W 1246  27.576   6.365   3.979
28179W        W 1247   0.252   7.444   4.733
28180W        W 1248   0.471  37.037   2.741
28181W        W 1249  42.283  38.408  13.367
28182W        W 1250  26.869  40.998   1.012
28183W        W 1251   3.150  39.545   0.718
28184W        W 1252  43.456  36.495   2.269
28185W        W 1253   4.280   0.834   3.861
28186W        W 1254   2.835  43.883  10.939
28187W        W 1255  23.186   0.885  10.609
28188W        W 1256  31.232  21.993  13.507
28189W        W 1257   1.947  44.707   3.735
28190W        W 1258  14.817   8.778  11.941
28191W        W 1259  13.259  25.445   2.290
28192W        W 1260  16.740  10.916   2.178
28193W        W 1261  32.615  36.767  13.371
28194W        W 1262  16.821  14.987  12.411
28195W        W 1263   7.280  30.655  10.672
28196W        W 1264  25.037  38.095   4.596
28197W        W 1265  15.593  24.213   4.663
28198W        W 1266   9.780  44.835   3.080
28199W        W 1267  33.360  14.750  14.998
28200W        W 1268  23.282  42.397   3.222
28201W        W 1269   1.790  24.426  13.426
28202W        W 1270   2.512  42.675   2.739
28203W        W 1271  28.131  35.005  14.862
28204W        W 1272   7.195   5.269   0.299
28205W        W 1273  34.597  14.328  12.394
28206W        W 1274   4.717  43.358  12.540
28207W        W 1275  34.133  34.813  11.582
28208W        W 1276  42.321  37.740   3.269
28209W        W 1277   5.137  43.958  11.405
28210W        W 1278  22.966   1.248   3.329
28211W        W 1279  24.404  39.331  13.643
28212W        W 1280  40.749   6.385   0.410
28213W        W 1281  16.204  14.123   5.006
28214W        W 1282  38.106  14.845   1.857
28215W        W 1283   4.446  12.756  12.421
28216W        W 1284  10.247  16.079   2.573
28217W        W 1285  33.894  18.821   1.283
28218W        W 1286  36.656  41.769   1.903
28219W        W 1287  10.102  24.973  13.360
28220W        W 1288  21.590  23.939  12.471
28221W        W 1289   0.483  34.062  11.521
28222W        W 1290  14.434  44.951   2.167
28223W        W 1291  44.634   6.737  12.981
28224W        W 1292  13.671  28.092   1.923
28225W        W 1293  42.402  21.442   1.613
28226W        W 1294  28.922  22.615  12.033
28227W        W 1295  19.327  20.152   1.389
28228W        W 1296  35.058   8.243  14.998
28229W        W 1297  44.910   1.493   0.628
28230W        W 1298  20.169  27.126  14.945
28231W        W 1299  34.510  40.774   3.628
28232W        W 1300  38.484  43.448   1.249
28233W        W 1301   7.310  13.107  13.441
28234W        W 1302  37.212  28.637   3.572
28235W        W 1303  44.298  39.310  12.446
28236W        W 1304  40.554  12.783   3.573
28237W        W 1305  15.329  37.309   1.540
28238W        W 1306  25.038   9.585   4.568
28239W        W 1307   8.799  22.945   3.848
28240W        W 1308  23.477  16.849  11.488
28241W        W 1309  40.569   3.819  12.195
28242W        W 1310  35.742   9.469   1.801
28243W        W 1311  14.892   2.975  12.872
28244W        W 1312   6.787   8.833   3.739
28245W        W 1313   2.838  25.411  14.211
28246W        W 1314  28.395  28.545  14.864
28247W        W 1315   0.404  30.871   4.604
28248W        W 1316  29.180  44.723   3.178
28249W        W 1317  44.918  33.616  12.548
28250W        W 1318  20.689  35.084   2.556
28251W        W 1319  37.493  35.859  12.872
28252W        W 1320   8.794  33.470  10.728
28253W        W 1321   9.055  19.210   3.965
28254W        W 1322   3.467  16.793  14.708
28255W        W 1323  42.742   5.149   3.210
28256W        W 1324  31.158  37.440  12.301
28257W        W 1325  40.661  19.526   2.452
28258W        W 1326  36.852  36.876  14.283
28259W        W 1327   5.784  44.535   1.118
28260W        W 1328  26.314  44.483   2.288
28261W        W 1329  13.090  24.698  11.895
28262W        W 1330  10.500  35.170  12.079
28263W        W 1331  27.629   8.129  11.906
28264W        W 1332  35.195   6.509  12.786
28265W        W 1333  21.521   1.226   0.342
28266W        W 1334  38.975  13.749   2.266
28267W        W 1335  20.303  38.905   4.911
28268W        W 1336  23.790  17.217  13.107
28269W        W 1337  16.762  34.107  14.127
28270W        W 1338   2.629  20.212  14.350
28271W        W 1339  35.740  40.479  14.916
28272W        W 1340   8.344  38.008   0.382
28273W        W 1341  41.829  29.165  11.173
28274W        W 1342  21.037  33.955  11.887
28275W        W 1343   6.914  42.664   3.749
28276W        W 1344  38.330  19.632   4.398
28277W        W 1345  36.360  24.970  13.862
28278W        W 1346  16.840  26.738  13.470
28279W        W 1347  18.334  12.065  14.679
28280W        W 1348  23.287  20.118   3.086
28281W        W 1349  30.200  37.996   4.155
28282W        W 1350  16.272  18.209   2.688
28283W        W 1351  35.622  27.657   1.118
28284W        W 1352  40.427  10.126   0.722
28285W        W 1353  39.345  28.505  13.064
28286W        W 1354  16.490  15.669  13.945
28287W        W 1355  37.430  43.469  14.846
28288W        W 1356   3.013  43.443  13.524
28289W        W 1357  30.925  21.437  14.480
28290W        W 1358  12.360  21.101   1.673
28291W        W 1359   5.121  32.657  12.076
28292W        W 1360  35.800  11.901  10.921
28293W        W 1361   1.292  37.428  12.439
28294W        W 1362  36.456   8.527   1.536
28295W        W 1363  34.431  13.670   3.787
28296W        W 1364   9.173  41.819  13.291
28297W        W 1365  21.162  31.395   0.875
28298W        W 1366  27.669  26.606   2.704
28299W        W 1367  18.557  19.208   0.813
28300W        W 1368  33.487  32.602   4.185
28301W        W 1369  10.207   5.626  13.093
28302W        W 1370  12.656   9.036   0.889
28303W        W 1371  32.488  34.517   0.708
28304W        W 1372  31.918   5.665   1.779
28305W        W 1373  26.683   8.285   4.114
28306W        W 1374   0.258  41.100   0.218
28307W        W 1375  37.326  25.223  12.473
28308W        W 1376   7.702  19.324   0.734
28309W        W 1377  35.521  13.278   2.371
28310W        W 1378  32.051   1.639  10.832
28311W        W 1379  24.016   4.975   0.311
28312W        W 1380  24.840  39.953  13.155
28313W        W 1381  40.521  34.938  14.534
28314W        W 1382  38.856  20.012  11.507
28315W        W 1383  44.419  24.978   0.913
28316W        W 1384  21.033  24.139  13.974
28317W        W 1385   9.238  10.333  11.522
28318W        W 1386  28.410  37.799   2.736
28319W        W 1387  10.743  43.548   2.154
28320W        W 1388  28.206  21.303   3.738
28321W        W 1389  15.547  11.329  13.809
28322W        W 1390  15.691  11.142   1.114
28323W        W 1391  37.872  26.011   3.253
28324W        W 1392   0.205  14.252   4.727
28325W        W 1393  34.561  35.107   0.742
28326W        W 1394  22.551   8.885  11.570
28327W        W 1395   8.952  24.142   3.103
28328W        W 1396  35.876   0.668  14.318
28329W        W 1397  26.573  36.601  13.992
28330W        W 1398   8.293  30.146   1.606
28331W        W 1399  39.453   8.940   1.827
28332W        W 1400   5.711  20.722  13.354
28333W        W 1401  19.628   7.621  13.086
28334W        W 1402   1.453  27.602  13.455
28335W        W 1403  26.267  22.111   4.216
28336W        W 1404   1.033  29.106   3.645
28337W        W 1405  18.818  17.862  12.560
28338W        W 1406   6.246  11.008   3.174
28339W        W 1407  15.905  16.292   0.866
28340W        W 1408   0.705  20.202  10.664
28341W        W 1409  15.816   4.379   0.468
28342W        W 1410   7.199  22.980   1.901
28343W        W 1411  44.307   6.743  11.156
28344W        W 1412  37.536  11.084  11.046
28345W        W 1413  31.114  37.600  14.690
28346W        W 1414  21.052   6.114  13.972
28347W        W 1415  10.450  32.462   1.819
28348W        W 1416   4.751  40.333   1.791
28349W        W 1417  22.510   7.738  12.990
28350W        W 1418  28.203  12.397  10.122
28351W        W 1419  18.893  29.874   2.877
28352W        W 1420  36.326  10.207   2.731
28353W        W 1421   5.856  10.417  10.594
28354W        W 1422  28.645  33.486  14.673
28355W        W 1423   9.812  22.611   3.635
28356W        W 1424  17.870   7.285  14.306
28357W        W 1425  38.142  32.170   1.437
28358W        W 1426  32.660  14.837   3.719
28359W        W 1427  32.879   2.720   4.553
28360W        W 1428   4.637  22.655   0.180
28361W        W 1429  11.936  11.486  13.785
28362W        W 1430  35.952  17.176  13.924
28363W        W 1431  41.901  38.889   1.470
28364W        W 1432   0.125   6.687  13.179
28365W        W 1433  24.467  20.866   2.096
28366W        W 1434  14.047  35.399  12.831
28367W        W 1435  20.657   9.110  11.929
28368W        W 1436   5.719  31.497  13.040
28369W        W 1437   6.694  44.240   0.898
28370W        W 1438  27.067  44.379   0.970
28371W        W 1439   0.020   4.361   4.642
28372W        W 1440  38.821  28.084  10.431
28373W        W 1441  44.844  16.780  13.884
28374W        W 1442  40.381   6.608  14.011
28375W        W 1443  38.417  32.464  12.584
28376W        W 1444  21.698   0.321  14.035
28377W        W 1445  35.784   7.296  11.098
28378W        W 1446  19.978  43.517   4.651
28379W        W 1447  25.418  12.468  12.943
28380W        W 1448  44.526  25.695   3.098
28381W        W 1449   4.190   2.251   4.501
28382W        W 1450  17.570  27.515  10.586
28383W        W 1451  38.005   1.289   0.384
28384W        W 1452  15.831   7.480   0.014
28385W        W 1453  25.532  22.932   0.118
28386W        W 1454  36.418  12.820   1.747
28387W        W 1455  26.533   9.251  14.738
28388W        W 1456   9.924  35.238  13.919
28389W        W 1457  21.313  30.048   3.227
28390W        W 1458  28.978  16.663  11.560
28391W        W 1459  31.649  40.340   1.926
28392W        W 1460  44.322   5.424  13.570
28393W        W 1461   0.733   7.699   3.548
28394W        W 1462   0.416  20.170  13.923
28395W        W 1463   8.439  36.130  11.104
28396W        W 1464  22.682   4.459  11.356
28397W        W 1465  28.169  35.426  14.524
28398W        W 1466  37.010  44.275  12.384
28399W        W 1467  41.719  16.982   2.920
28400W        W 1468   6.379  30.502   3.594
28401W        W 1469  41.862   7.596   4.199
28402W        W 1470   1.396  32.726   0.594
28403W        W 1471  20.495  16.649  13.866
28404W        W 1472  40.613   5.861   2.381
28405W        W 1473  32.965  11.853  13.315
28406W        W 1474   5.626  44.979   1.435
28407W        W 1475  37.954  10.906  13.699
28408W        W 1476  44.452   7.869  12.459
28409W        W 1477   2.753  21.211   0.262
28410W        W 1478   5.957  28.987  12.926
28411W        W 1479  37.498   0.231  11.352
28412W        W 1480  30.085  43.365  13.361
28413W        W 1481  38.317  27.634  13.001
28414W        W 1482  41.662  12.890   0.392
28415W        W 1483   0.667   6.987   0.467
28416W        W 1484  11.267  25.098   2.769
28417W        W 1485  39.057  39.749  11.451
28418W        W 1486  12.283  22.709  11.196
28419W        W 1487  33.372   7.659   3.095
28420W        W 1488   0.387  26.469  13.652
28421W        W 1489  29.614  30.640   5.044
28422W        W 1490   7.924  10.228  11.679
28423W        W 1491   3.806  40.573   0.462
28424W        W 1492  32.213   7.196   4.167
28425W        W 1493  30.207  30.466   0.443
28426W        W 1494  28.944  38.824  10.643
28427W        W 1495  18.450  10.738   0.718
28428W        W 1496  32.468   4.348  12.156
28429W        W 1497  21.839   5.893  14.268
28430W        W 1498   1.748  32.863  14.992
28431W        W 1499  26.986   2.360  11.079
28432W        W 1500   6.839  20.078  12.363
28433W        W 1501  40.901  30.355   3.325
28434W        W 1502  19.810  12.234   4.867
28435W        W 1503  18.976  32.108   1.212
28436W        W 1504  25.462  39.040  12.231
28437W        W 1505   3.619   0.539   1.301
28438W        W 1506  37.073  28.205  11.237
28439W        W 1507   1.953  42.815   0.848
28440W        W 1508   4.272  11.394  11.094
28441W        W 1509  18.120  38.622   2.623
28442W        W 1510  33.717   0.075  12.562
28443W        W 1511  29.419  27.078   1.812
28444W        W 1512  26.175  24.565   2.608
28445W        W 1513  41.145  21.736  10.998
28446W        W 1514  22.201  15.312  14.988
28447W        W 1515  20.514  21.950  10.751
28448W        W 1516  38.920  30.066  11.221
28449W        W 1517  30.908   4.295  10.722
28450W        W 1518  10.849  18.209   2.894
28451W        W 1519  43.509   6.401   0.919
28452W        W 1520  36.043  24.223   0.426
28453W        W 1521  21.034  43.814  10.168
28454W        W 1522  32.530   8.797   4.564
28455W        W 1523   8.480  18.559  13.863
28456W        W 1524  39.906   6.684  14.226
28457W        W 1525  18.247  34.142  13.413
28458W        W 1526  44.060   5.276  11.863
28459W        W 1527  25.687  18.300  14.752
28460W        W 1528  33.373   5.577   4.076
28461W        W 1529   0.195  25.954   3.572
28462W        W 1530  11.334  25.709   3.625
28463W        W 1531  27.399  40.455  14.496
28464W        W 1532  16.124  10.865  11.525
28465W        W 1533  31.212  42.482   1.807
28466W        W 1534  21.974  10.825  11.574
28467W        W 1535  10.644  19.097  14.065
28468W        W 1536   7.965  18.688  13.804
28469W        W 1537  10.653   2.346  11.873
28470W        W 1538  15.890  44.971   2.294
28471W        W 1539  11.693  33.001   3.016
28472W        W 1540   3.893  15.889  10.028
28473W        W 1541  31.565  11.812   2.766
28474W        W 1542   4.580  39.170   1.454
28475W        W 1543   8.809   8.681  14.427
28476W        W 1544   8.939   2.230   1.518
28477W        W 1545  12.252  14.466  11.531
28478W        W 1546   3.572  30.962   1.382
28479W        W 1547  36.374  15.329  11.554
28480W        W 1548  44.032  24.619   3.225
28481W        W 1549  13.917  31.258   1.953
28482W        W 1550  24.173  38.194   2.646
28483W        W 1551   0.527  15.989   1.673
28484W        W 1552   9.873  31.603   2.648
28485W        W 1553  44.461  13.561  14.010
28486W        W 1554  31.950  37.332   5.123
28487W        W 1555  22.797   7.123  13.602
28488W        W 1556  26.425  36.182  14.915
28489W        W 1557  28.968   8.836  11.927
28490W        W 1558  40.285  11.391  13.945
28491W        W 1559  17.957  34.965  11.588
28492W        W 1560  27.022  29.194  12.412
28493W        W 1561  24.283  41.858   1.754
28494W        W 1562   7.652   5.465   4.220
28495W        W 1563  43.762  28.130   3.380
28496W        W 1564  37.277  22.546  11.916
28497W        W 1565  21.812  31.934  13.824
28498W        W 1566   8.172  31.940   3.723
28499W        W 1567  13.899  44.440  10.722
28500W        W 1568  35.418  42.488   3.654
28501W        W 1569  12.819   7.387  12.019
28502W        W 1570  36.510  17.630  12.924
28503W        W 1571  40.789  29.545   0.805
28504W        W 1572  22.559   0.471  10.222
28505W        W 1573  34.354  20.541  14.426
28506W        W 1574   5.343   3.292   4.253
28507W        W 1575  19.744   6.781  13.165
28508W        W 1576  17.682  17.606  13.283
28509W        W 1577  18.305   3.005  11.660
28510W        W 1578  21.008  41.084   3.347
28511W        W 1579  15.991  41.263   2.641
28512W        W 1580  28.483  16.270   0.077
28513W        W 1581  11.772  44.754   4.095
28514W        W 1582  29.860  43.009  14.866
28515W        W 1583  12.283  16.117   4.608
28516W        W 1584   0.957   2.060  10.996
28517W        W 1585   5.398  28.896  11.214
28518W        W 1586   6.334  43.767   3.758
28519W        W 1587  12.103  10.250   2.854
28520W        W 1588  31.699  16.372   1.280
28521W        W 1589  37.803  24.959  11.048
28522W        W 1590  39.076  15.588  14.201
28523W        W 1591  43.443   7.240   3.877
28524W        W 1592  37.531  34.060  12.582
28525W        W 1593  44.648  39.880  14.838
28526W        W 1594  43.622  15.518   0.002
28527W        W 1595  42.898   4.173  14.477
28528W        W 1596  32.676  34.607   2.363
28529W        W 1597  22.112  20.433  14.887
28530W        W 1598  43.347  10.980  12.452
28531W        W 1599  25.036   1.943   2.313
28532W        W 1600  37.795  32.965  12.829
28533W        W 1601  17.572  40.034  13.573
28534W        W 1602   7.324   7.732   0.924
28535W        W 1603  32.361  37.043   2.410
28536W        W 1604  43.480  31.517   4.130
28537W        W 1605  13.054  21.557  12.468
28538W        W 1606  37.393  28.864   0.620
28539W        W 1607  35.346  24.265   0.023
28540W        W 1608  17.826  16.580   1.636
28541W        W 1609   6.267  35.065   3.269
28542W        W 1610  42.829  44.073   3.128
28543W        W 1611  17.832   0.984  10.543
28544W        W 1612  14.531  12.058  10.514
28545W        W 1613  42.267  17.539  11.525
28546W        W 1614  38.989  24.775  12.947
28547W        W 1615   2.995   5.352  14.867
28548W        W 1616   5.792  43.405   0.878
28549W        W 1617  23.748  26.661  14.580
28550W        W 1618  23.195   0.265   3.210
28551W        W 1619   7.519  42.847   2.177
28552W        W 1620  19.490  16.696  12.936
28553W        W 1621  30.735  22.766  10.645
28554W        W 1622  26.460  42.069   3.676
28555W        W 1623   5.680   2.982  12.949
28556W        W 1624  33.470  20.493   2.611
28557W        W 1625  41.500  14.334  13.474
28558W        W 1626  27.639   6.674   0.386
28559W        W 1627   1.931  14.413   2.257
28560W        W 1628   1.650  22.778  10.958
28561W        W 1629  31.433  23.331  12.025
28562W        W 1630  22.062  14.794  14.913
28563W        W 1631  27.616  28.865  11.170
28564W        W 1632  23.972   2.601   2.045
28565W        W 1633   7.314  37.324   0.289
28566W        W 1634  32.914  30.905  12.383
28567W        W 1635  11.804  15.371  13.996
28568W        W 1636  18.700  29.849   3.341
28569W        W 1637  13.614   2.966  13.398
28570W        W 1638  41.905   6.582   4.087
28571W        W 1639  23.636  26.080   3.090
28572W        W 1640  17.609  24.412   3.600
28573W        W 1641  32.164  19.160  10.708
28574W        W 1642   4.190  22.782   2.583
28575W        W 1643  24.210  42.504   1.299
28576W        W 1644  43.332   5.774  13.298
28577W        W 1645   3.794   0.076   2.683
28578W        W 1646  42.891  24.000   4.254
28579W        W 1647   6.928  43.393  11.520
28580W        W 1648   1.282  18.783   3.177
28581W        W 1649  18.901  17.232  14.938
28582W        W 1650  28.516  36.011   0.429
28583W        W 1651  22.965  27.934  13.050
28584W        W 1652   6.996  22.016   3.708
28585W        W 1653  17.555  35.094  11.942
28586W        W 1654  23.901  11.802  11.638
28587W        W 1655  15.586   5.398  13.524
28588W        W 1656  12.813  13.290   3.283
28589W        W 1657  14.212  27.757   1.723
28590W        W 1658  37.355  14.331   4.587
28591W        W 1659   5.486   7.353  12.556
28592W        W 1660   0.726   8.781  12.232
28593W        W 1661   2.879  24.754  13.357
28594W        W 1662   4.702   1.661  11.184
28595W        W 1663  36.801  11.357  11.932
28596W        W 1664   9.477  38.792   1.926
28597W        W 1665  41.471  32.430  11.181
28598W        W 1666  44.825  31.617   2.796
28599W        W 1667   8.018  36.067  10.874
28600W        W 1668  25.255   2.659   3.687
28601W        W 1669  35.840   8.771  12.428
28602W        W 1670  28.657  32.103   0.460
28603W        W 1671   8.014  34.809   2.446
28604W        W 1672  38.624  32.939   2.931
28605W        W 1673   9.086  25.958  11.921
28606W        W 1674  11.110  34.928  12.726
28607W        W 1675  39.967  14.138  13.288
28608W        W 1676  21.612   8.793  13.496
28609W        W 1677  25.463   5.725  13.526
28610W        W 1678   5.457   7.361   2.179
28611W        W 1679  24.179  30.126   3.922
28612W        W 1680  29.632  36.539   0.895
28613W        W 1681  38.314  42.825   3.666
28614W        W 1682   3.475  13.009   1.356
28615W        W 1683  30.591  18.821   2.725
28616W        W 1684   2.633   5.849   4.581
28617W        W 1685  43.986  38.380   1.360
28618W        W 1686   5.593  40.932  13.536
28619W        W 1687  12.141   6.380   5.090
28620W        W 1688  40.211  15.067  13.457
28621W        W 1689  25.440  11.178   3.974
28622W        W 1690  13.649  19.116   1.814
28623W        W 1691  13.339  34.341   1.210
28624W        W 1692  42.775  32.798   2.377
28625W        W 1693  13.742  38.913  12.621
28626W        W 1694  24.222  21.503  12.823
28627W        W 1695  25.305   9.030  11.133
28628W        W 1696  34.553  26.888  10.788
28629W        W 1697  41.377  17.204  14.852
28630W        W 1698  20.232  32.470   4.157
28631W        W 1699   0.659   2.923  11.323
28632W        W 1700  29.713  37.361  10.236
28633W        W 1701  29.954   5.827   0.558
28634W        W 1702  21.523  10.988  14.943
28635W        W 1703  26.545  25.466   4.444
28636W        W 1704  43.825  23.147   4.356
28637W        W 1705  24.266  26.433  13.335
28638W        W 1706   9.742  27.926  11.411
28639W        W 1707  17.260  38.415   1.789
28640W        W 1708  39.714   0.463   2.825
28641W        W 1709  15.572   0.723  13.449
28642W        W 1710   4.791   3.713   3.196
28643W        W 1711  17.518  17.372  12.766
28644W        W 1712  10.439  25.052   4.190
28645W        W 1713  20.305  37.348  13.976
28646W        W 1714   8.469  40.815  13.742
28647W        W 1715  42.394  31.195   2.323
28648W        W 1716  15.389  22.565  12.591
28649W        W 1717  28.135  26.509  13.985
28650W        W 1718  37.131   9.673   3.618
28651W        W 1719  29.166  12.312  14.317
28652W        W 1720   1.856  29.051  13.396
28653W        W 1721   3.442  42.902  11.919
28654W        W 1722  35.284  23.131   2.434
28655W        W 1723   0.881  16.033   4.223
28656W        W 1724  18.601  32.320   3.666
28657W        W 1725   8.673   2.275   1.953
28658W        W 1726   5.677  43.745  14.484
28659W        W 1727  13.922  39.939   0.027
28660W        W 1728  40.828  13.773  10.710
28661W        W 1729  16.303  35.949   1.422
28662W        W 1730   3.241  34.326  14.982
28663W        W 1731   2.246  36.948   0.517
28664W        W 1732  31.458   1.201   0.814
28665W        W 1733  20.599  39.639   4.511
28666W        W 1734  27.490   5.260  11.102
28667W        W 1735  14.894   5.871  14.014
28668W        W 1736   9.191  11.582   4.026
28669W        W 1737   0.610  20.065   3.150
28670W        W 1738  22.733   8.415   4.090
28671W        W 1739  39.335   1.995   2.185
28672W        W 1740   7.678   3.588   1.990
28673W        W 1741  12.743  28.121   2.316
28674W        W 1742  11.582   9.264   4.661
28675W        W 1743  37.654   9.056   4.777
28676W        W 1744  21.006  31.694  10.919
28677W        W 1745  35.352  27.612  12.941
28678W        W 1746   1.239  14.614   2.263
28679W        W 1747   3.308  44.462  14.830
28680W        W 1748  14.721   1.882  14.300
28681W        W 1749   7.292  42.493  13.125
28682W        W 1750  30.511  13.145  13.516
28683W        W 1751  15.833  20.591   1.269
28684W        W 1752  35.070   1.478  12.521
28685W        W 1753  27.189  11.969  10.767
28686W        W 1754   2.730  34.408   1.860
28687W        W 1755  26.563  35.670  11.933
28688W        W 1756  11.519  18.677  13.837
28689W        W 1757  28.494  34.932   0.258
28690W        W 1758  24.429   1.130   3.132
28691W        W 1759  28.110  23.350  14.298
28692W        W 1760  37.592  34.598  12.538
28693W        W 1761   1.310  15.900  11.046
28694W        W 1762  21.089  20.191   4.115
28695W        W 1763   5.412   7.745   4.763
28696W        W 1764   4.103   3.967  14.396
28697W        W 1765  40.450  25.866   4.302
28698W        W 1766  24.658  19.340  12.958
28699W        W 1767  40.648  19.371   4.602
28700W        W 1768  15.892   9.870   1.780
28701W        W 1769  32.008  12.130   2.735
28702W        W 1770  37.445  11.111  12.566
28703W        W 1771   4.784  32.586   1.888
28704W        W 1772   8.962   6.633   2.155
28705W        W 1773  11.744  14.014  11.954
28706W        W 1774  33.021   0.290  11.571
28707W        W 1775  34.966  20.306   3.184
28708W        W 1776   9.047   2.278  13.858
28709W        W 1777   7.108   5.615  11.127
28710W        W 1778   2.756  28.818   0.847
28711W        W 1779   2.372  19.873  12.532
28712W        W 1780  20.438  37.919  13.028
28713W        W 1781  44.229  22.617  11.734
28714W        W 1782  43.165  44.491  13.370
28715W        W 1783  14.493  36.880  12.033
28716W        W 1784   4.216  10.810   4.524
28717W        W 1785   9.413  30.433   4.137
28718W        W 1786  22.898  41.330  14.841
28719W        W 1787   2.703  25.798  14.567
28720W        W 1788  34.687  26.097   0.385
28721W        W 1789  29.390  11.934   3.094
28722W        W 1790  31.027  40.315   1.295
28723W        W 1791  24.133  25.490   4.139
28724W        W 1792  43.367  13.288   0.281
28725W        W 1793   6.329  29.759  11.956
28726W        W 1794  29.941   2.820   2.696
28727W        W 1795  37.117  29.096   1.898
28728W        W 1796  39.437  12.367  12.278
28729W        W 1797  28.166  44.013   3.566
28730W        W 1798   6.795   9.215   3.396
28731W        W 1799   4.189  27.664  13.828
28732W        W 1800  26.134  33.908  14.921
28733W        W 1801  41.482  19.280   3.830
28734W        W 1802   0.630  17.636   3.605
28735W        W 1803  24.065   7.393   2.779
28736W        W 1804   8.229   6.237   4.314
28737W        W 1805  38.138  42.721  12.002
28738W        W 1806  10.582  37.098   3.809
28739W        W 1807  40.551   3.764   2.903
28740W        W 1808  13.240  20.537  13.379
28741W        W 1809  36.011   0.487   3.315
28742W        W 1810  31.005   4.495  13.564
28743W        W 1811  29.623  21.696   0.370
28744W        W 1812  36.404  39.596  12.693
28745W        W 1813   6.774  30.123  12.506
28746W        W 1814  43.581  24.379  12.382
28747W        W 1815  33.528  39.396   2.772
28748W        W 1816  43.302  31.544   1.934
28749W        W 1817  40.056  36.577   2.767
28750W        W 1818  44.882  16.158  11.719
28751W        W 1819  44.457  26.120   1.802
28752W        W 1820  25.539  16.293  13.167
28753W        W 1821  23.092  10.265   4.591
28754W        W 1822  31.625  31.884  10.370
28755W        W 1823  10.186   7.269   4.228
28756W        W 1824  16.254  15.902   0.818
28757W        W 1825  22.520  10.605  11.143
28758W        W 1826  31.069  40.822   1.355
28759W        W 1827  43.878  15.754  13.070
28760W        W 1828  43.469   2.494   4.845
28761W        W 1829  40.988  20.540  10.691
28762W        W 1830  14.767  26.646  12.991
28763W        W 1831  26.115  26.452   1.370
28764W        W 1832  16.852  44.574   3.719
28765W        W 1833  32.477  39.902   0.705
28766W        W 1834  15.125  10.749   3.691
28767W        W 1835  16.642  24.844  12.455
28768W        W 1836  14.228  43.164   4.666
28769W        W 1837  15.023   5.240   3.319
28770W        W 1838  37.441   0.458   4.920
28771W        W 1839   6.849   3.747   2.749
28772W        W 1840  35.003  36.661  12.843
28773W        W 1841   6.650  34.368  11.193
28774W        W 1842   5.731  29.527   2.813
28775W        W 1843  21.710  34.516   0.829
28776W        W 1844  37.778  41.448  11.091
28777W        W 1845  24.929  43.456   2.330
28778W        W 1846  12.095  27.084  14.958
28779W        W 1847   6.974  30.039   3.045
28780W        W 1848   8.407   0.880   4.108
28781W        W 1849  29.873   8.204  14.469
28782W        W 1850   8.296  10.322  11.336
28783W        W 1851   3.492   5.571  14.816
28784W        W 1852   4.475  21.651  14.821
28785W        W 1853  18.668  17.693   2.231
28786W        W 1854  30.509  41.664  12.987
28787W        W 1855  41.971   5.311   3.591
28788W        W 1856  19.675  42.774  10.746
28789W        W 1857  11.614  11.770  12.436
28790W        W 1858  43.521  15.440   3.608
28791W        W 1859  20.536   6.900  11.096
28792W        W 1860  40.117   3.920  12.424
28793W        W 1861  43.825  33.616  10.569
28794W        W 1862  21.474  25.178   2.682
28795W        W 1863  27.077  30.840   2.840
28796W        W 1864  16.689  13.246   4.656
28797W        W 1865  44.817  13.929  10.785
28798W        W 1866  36.569  44.427  10.724
28799W        W 1867   4.231  39.304  13.994
28800W        W 1868   0.032   6.783   1.675
28801W        W 1869  35.844  30.336   2.427
28802W        W 1870  23.031  13.713   3.413
28803W        W 1871  33.877  17.134  12.571
28804W        W 1872  11.702  17.551   1.582
28805W        W 1873  30.737  16.725  11.327
28806W        W 1874  41.988   5.884   4.856
28807W        W 1875  26.487  13.813  13.332
28808W        W 1876   0.398  29.459   4.063
28809W        W 1877  23.574   3.814   2.302
28810W        W 1878  16.170  15.571   0.421
28811W        W 1879  26.716  44.001   2.627
28812W        W 1880  26.187  12.373   1.323
28813W        W 1881   7.835  23.243   4.162
28814W        W 1882  20.545  38.048   3.782
28815W        W 1883  11.756   9.226  11.158
28816W        W 1884  20.754   0.864   2.776
28817W        W 1885  39.032   1.287  10.220
28818W        W 1886  35.462  16.108   1.890
28819W        W 1887  10.185  21.736   0.977
28820W        W 1888   1.725  18.216  13.972
28821W        W 1889  39.016  26.864   4.670
28822W        W 1890   4.678  38.362   4.127
28823W        W 1891  10.384  24.161   2.295
28824W        W 1892  34.452  25.616   4.073
28825W        W 1893   4.805  25.959   3.283
28826W        W 1894   1.245  20.788  11.192
28827W        W 1895   0.005  28.250  11.594
28828W        W 1896  35.494  40.809  13.060
28829W        W 1897  36.008  26.220  12.506
28830W        W 1898   7.797   8.104  11.334
28831W        W 1899  18.746  36.450  12.873
28832W        W 1900  34.431  25.429   2.304
28833W        W 1901  42.872  28.372   3.175
28834W        W 1902  20.245  18.085   1.879
28835W        W 1903  19.150  21.684  11.084
28836W        W 1904  21.074  28.826  14.635
28837W        W 1905  43.416  26.618   4.581
28838W        W 1906  22.035   5.303   2.214
28839W        W 1907  44.663   1.830   2.283
28840W        W 1908  32.505  15.238   1.273
28841W        W 1909  22.458  37.159   3.322
28842W        W 1910  17.754   6.738  11.587
28843W        W 1911  19.632  43.591   2.161
28844W        W 1912  29.095  31.467   2.384
28845W        W 1913  18.169   1.454   5.023
28846W        W 1914  15.076  20.153  10.882
28847W        W 1915  32.364  33.604   0.700
28848W        W 1916  20.250  31.925  13.876
28849W        W 1917  35.090  11.103  13.949
28850W        W 1918   6.408  14.173   3.704
28851W        W 1919   5.853  43.394  14.924
28852W        W 1920  23.061   5.921  11.493
28853W        W 1921  42.360  13.683  14.410
28854W        W 1922  24.215  26.666   2.901
28855W        W 1923  10.304  10.251   0.655
28856W        W 1924   5.169  39.456   4.403
28857W        W 1925  43.933  12.866  10.963
28858W        W 1926  40.745  16.070   1.253
28859W        W 1927   6.926   6.880   0.878
28860W        W 1928  31.987  19.531   4.863
28861W        W 1929   2.656  18.356  14.261
28862W        W 1930  38.536  22.026  12.246
28863W        W 1931  19.266   4.270  12.192
28864W        W 1932  30.704  17.582   2.216
28865W        W 1933   4.638  30.308  11.055
28866W        W 1934  20.229   5.168  14.324
28867W        W 1935  40.853  33.953   0.471
28868W        W 1936  38.905  12.158  10.377
28869W        W 1937   9.559   0.136   1.920
28870W        W 1938  37.251  43.382   2.202
28871W        W 1939   5.796   3.618   3.212
28872W        W 1940  12.840  35.571   1.131
28873W        W 1941   8.238  29.486  12.260
28874W        W 1942  41.015  19.255   4.171
28875W        W 1943  40.994  25.502   1.187
28876W        W 1944  38.836  17.144  10.654
28877W        W 1945  33.889   6.359   1.269
28878W        W 1946   9.216  42.780  10.570
28879W        W 1947  35.904  41.320   0.907
28880W        W 1948  35.670   4.385   3.661
28881W        W 1949  32.287   1.911   1.964
28882W        W 1950  25.184   4.325   2.850
28883W        W 1951   8.240  42.555  12.021
28884W        W 1952  39.273  13.408   3.673
28885W        W 1953  36.857   4.436   0.618
28886W        W 1954   4.424  27.274  13.465
28887W        W 1955  30.078  10.877  14.431
28888W        W 1956   4.696  44.844  12.606
28889W        W 1957  26.711  10.917   0.358
28890W        W 1958  35.685  37.174  14.077
28891W        W 1959   2.886  41.117   4.435
28892W        W 1960  39.972  27.658   0.924
28893W        W 1961  22.551  27.049  13.399
28894W        W 1962  27.524  43.503  11.162
28895W        W 1963  42.320   8.016  14.456
28896W        W 1964  36.970  40.093  11.639
28897W        W 1965  44.381   4.231   0.242
28898W        W 1966  33.033  38.047  12.909
28899W        W 1967   1.335  37.951  11.513
28900W        W 1968  26.621   5.290   2.689
28901W        W 1969  11.590  40.292  12.313
28902W        W 1970  12.404  20.794   4.044
28903W        W 1971  39.583  39.744  11.485
28904W        W 1972   5.746  21.765  11.230
28905W        W 1973   8.926  44.225  14.434
28906W        W 1974  17.679  19.563   1.844
28907W        W 1975  27.393   9.330  10.613
28908W        W 1976  28.216   9.529  14.800
28909W        W 1977  27.124  12.771   4.869
28910W        W 1978   3.235  36.421  11.849
28911W        W 1979  30.983  24.250   3.559
28912W        W 1980  37.814  14.304   1.163
28913W        W 1981   9.197  39.740  14.423
28914W        W 1982   1.340  31.102  13.924
28915W        W 1983  25.709  42.787   1.126
28916W        W 1984  23.016   5.936   4.543
28917W        W 1985   4.435  35.043  14.969
28918W        W 1986  30.934  29.128   3.847
28919W        W 1987  19.960  12.274   0.965
28920W        W 1988  12.670  16.476  13.462
28921W        W 1989  30.958  10.004   1.856
28922W        W 1990   7.467   3.664  11.228
28923W        W 1991  36.397  27.485  14.675
28924W        W 1992  35.777  19.777  13.470
28925W        W 1993  26.518  21.651   3.734
28926W        W 1994  14.681   4.130  11.510
28927W        W 1995   1.287  28.591   4.507
28928W        W 1996  36.343  27.969   3.298
28929W        W 1997   8.796  26.678  13.903
28930W        W 1998   2.273   3.700  12.200
28931W        W 1999   8.999   4.618  11.429
28932W        W 2000  29.135  14.489  13.334
28933W        W 2001  28.025   6.331   0.236
28934W        W 2002  19.568   0.191  13.729
28935W        W 2003   1.346   6.372  10.510
28936W        W 2004  10.381  19.562  10.675
28937W        W 2005  44.954  22.530   4.686
28938W        W 2006  30.387   1.926   3.193
28939W        W 2007  42.973  37.366   0.191
28940W        W 2008   1.818  37.609  13.900
28941W        W 2009  11.398  25.214  11.140
28942W        W 2010   8.396  39.843   2.766
28943W        W 2011  15.105  11.747   4.201
28944W        W 2012  23.626  26.626   4.708
28945W        W 2013  22.897   3.431  13.903
28946W        W 2014  18.082   7.569   2.440
28947W        W 2015  38.412   1.200   2.139
28948W        W 2016  38.001  22.331   1.868
28949W        W 2017  41.017  12.637   3.825
28950W        W 2018  37.938  22.045   3.876
28951W        W 2019   4.870  33.464  12.673
28952W        W 2020  20.769  13.592  13.906
28953W        W 2021  24.235  20.883   4.580
28954W        W 2022  12.879  32.009   0.997
28955W        W 2023  18.153  35.986  12.443
28956W        W 2024   5.856  27.886   0.020
28957W        W 2025   2.949  41.833   2.394
28958W        W 2026  38.617  42.243   0.392
28959W        W 2027  12.648  23.559  11.925
28960W        W 2028   3.315  22.682   0.010
28961W        W 2029   6.013  37.517   1.264
28962W        W 2030  22.672  38.212  10.488
28963W        W 2031  20.007  26.073   2.600
28964W        W 2032  12.770  19.506   2.432
28965W        W 2033  12.391  30.145  10.691
28966W        W 2034  43.944  26.106  11.648
28967W        W 2035  44.187  17.420   2.829
28968W        W 2036  29.834  29.507   0.373
28969W        W 2037  24.970  24.421   2.798
28970W        W 2038   1.121  18.988   0.944
28971W        W 2039  21.569  42.409   4.926
28972W        W 2040   0.034  21.646   1.372
28973W        W 2041  30.953  21.172   4.612
28974W        W 2042  15.867   6.257   2.266
28975W        W 2043  32.672  10.208   2.256
28976W        W 2044   7.834  11.322   1.835
28977W        W 2045  36.407  19.212   0.698
28978W        W 2046  25.418  20.310  10.753
28979W        W 2047   8.534   7.088  14.637
28980W        W 2048  36.849  26.619   2.809
28981W        W 2049   7.140  38.766  13.971
28982W        W 2050  33.007   4.094  14.951
28983W        W 2051  40.820  39.976  14.008
28984W        W 2052  36.369  10.834   2.673
28985W        W 2053  28.393  13.629   0.051
28986W        W 2054  19.597  20.578   1.535
28987W        W 2055   0.896  29.625   1.236
28988W        W 2056  21.180   8.630   2.707
28989W        W 2057  35.217  17.094  14.519
28990W        W 2058  10.195  44.879  11.211
28991W        W 2059  42.378  16.852   4.106
28992W        W 2060  41.382  16.955  10.005
28993W        W 2061  39.089   5.735   3.326
28994W        W 2062  43.845  22.645  12.109
28995W        W 2063  21.819   6.763  13.502
28996W        W 2064  35.838  40.903   4.304
28997W        W 2065  42.309  32.370   0.033
28998W        W 2066  38.065  19.464   2.183
28999W        W 2067   2.697  23.600   0.746
29000W        W 2068   7.004  32.510  11.158
29001W        W 2069  23.423  41.899   1.023
29002W        W 2070  10.634   8.627   0.031
29003W        W 2071  21.011  40.300  10.665
29004W        W 2072  32.647  13.083  14.281
29005W        W 2073   3.349  14.310  13.488
29006W        W 2074  16.543   7.277  12.499
29007W        W 2075  27.451   2.794   3.589
29008W        W 2076  16.370  21.323   1.279
29009W        W 2077  10.001  41.133   2.166
29010W        W 2078  23.305  17.417   4.294
29011W        W 2079  36.296  32.499   3.937
29012W        W 2080  10.456  25.850   3.757
29013W        W 2081  14.043  33.988  13.528
29014W        W 2082  11.211  17.336   4.066
29015W        W 2083  23.094  38.490  10.601
29016W        W 2084   8.828   3.227   0.941
29017W        W 2085  22.310  21.142   4.595
29018W        W 2086  29.674  43.221  14.038
29019W        W 2087  29.163  38.449  11.423
29020W        W 2088  38.933  34.214   2.909
29021W        W 2089  13.849   3.126  14.991
29022W        W 2090  34.644  23.549   3.756
29023W        W 2091  11.389   6.458   3.188
29024W        W 2092   0.840  39.979   2.761
29025W        W 2093  21.786  35.067   2.266
29026W        W 2094  20.450  13.576   2.842
29027W        W 2095  15.832  39.967   4.757
29028W        W 2096  40.799  32.163   2.329
29029W        W 2097  16.640   8.622  11.095
29030W        W 2098  37.152  30.760   0.355
29031W        W 2099  36.334   4.411   1.853
29032W        W 2100  26.458  42.752   0.386
29033W        W 2101  22.965  11.934   3.808
29034W        W 2102  16.405  41.835  12.453
29035W        W 2103  15.261  16.319   4.720
29036W        W 2104  12.282  36.734  13.017
29037W        W 2105   9.158  33.369   4.739
29038W        W 2106  11.291  35.852  12.304
29039W        W 2107  23.809   6.659  11.103
29040W        W 2108  41.466  13.410  14.311
29041W        W 2109  25.040   7.877   2.730
29042W        W 2110  22.719  36.782  14.470
29043W        W 2111   0.222   9.220   0.565
29044W        W 2112  18.976  10.651   3.760
29045W        W 2113  34.329  35.895   2.437
29046W        W 2114  40.911  22.178   4.224
29047W        W 2115   4.863  28.150  11.463
29048W        W 2116   6.873   7.707  13.829
29049W        W 2117   5.957  15.741   2.874
29050W        W 2118  21.786   9.596  13.018
29051W        W 2119   0.096  32.090   1.992
29052W        W 2120   4.676   7.405   3.300
29053W        W 2121  43.927  41.003   1.320
29054W        W 2122  25.169  40.306   0.321
29055W        W 2123  26.052  15.163  11.274
29056W        W 2124  29.638  22.664   2.755
29057W        W 2125  28.184   1.052  10.950
29058W        W 2126  18.758  39.781   0.911
29059W        W 2127  21.788  32.010  10.685
29060W        W 2128  35.972  17.119   3.701
29061W        W 2129   0.856  26.412   0.409
29062W        W 2130  18.761  44.344   0.903
29063W        W 2131  36.741  15.128   1.855
29064W        W 2132  30.865  20.800  14.926
29065W        W 2133  16.816  27.370  14.790
29066W        W 2134   8.922  28.246   2.388
29067W        W 2135   5.567  44.036   1.775
29068W        W 2136  26.975  27.903  13.821
29069W        W 2137  34.436  30.010  11.625
29070W        W 2138   9.915  23.617   1.813
29071W        W 2139  25.749   5.375  14.182
29072W        W 2140  27.359  28.367  11.168
29073W        W 2141   5.888  24.269  11.712
29074W        W 2142   0.821  42.202   3.155
29075W        W 2143  19.270  34.492  11.460
29076W        W 2144  34.667  14.843  10.369
29077W        W 2145  18.129  25.370   4.090
29078W        W 2146  11.102   1.569   0.881
29079W        W 2147  27.158   9.983  11.103
29080W        W 2148  40.610  20.210  14.575
29081W        W 2149   2.907  37.605   3.250
29082W        W 2150   5.390  20.340   1.618
29083W        W 2151   7.784  11.549   4.503
29084W        W 2152  37.822  24.585  13.423
29085W        W 2153  39.037  42.586  14.319
29086W        W 2154  35.227  41.610   0.486
29087W        W 2155  11.050  43.069   0.830
29088W        W 2156  42.754   6.000  11.071
29089W        W 2157  11.365  17.812  14.891
29090W        W 2158   0.577  13.131   2.733
29091W        W 2159  40.489  13.677  11.842
29092W        W 2160  28.446  15.673   0.145
29093W        W 2161  44.487  15.955  11.471
29094W        W 2162  10.835   6.045   2.674
29095W        W 2163  44.731   6.962  11.469
29096W        W 2164  29.740   9.835  12.255
29097W        W 2165  17.625  40.382   3.916
29098W        W 2166  30.986   3.483  10.841
29099W        W 2167   6.986  37.317   1.320
29100W        W 2168  30.079   3.530   0.773
29101W        W 2169  22.710   6.241  12.518
29102W        W 2170   7.935  43.498   2.084
29103W        W 2171  31.927  17.234   2.916
29104W        W 2172  16.148   9.366   2.839
29105W        W 2173   1.798  30.847  12.787
29106W        W 2174   7.065  40.508   2.850
29107W        W 2175  12.797  28.714  12.078
29108W        W 2176   7.099  32.285  12.081
29109W        W 2177  24.196  17.157  14.557
29110W        W 2178  36.246  35.103  11.861
29111W        W 2179   8.112  44.181   5.122
29112W        W 2180  16.218  36.110  12.525
29113W        W 2181  42.381  37.514   4.669
29114W        W 2182  22.228  21.793  14.377
29115W        W 2183  38.973  34.700   0.792
29116W        W 2184  10.116  29.943  14.585
29117W        W 2185  41.388   4.837  11.597
29118W        W 2186  39.215  39.033   9.904
29119W        W 2187  43.893   3.196   3.636
29120W        W 2188  16.278  14.648   3.669
29121W        W 2189  37.657  32.538   4.244
29122W        W 2190  36.889  26.669   3.696
29123W        W 2191  37.415  14.772   3.182
29124W        W 2192  23.012  42.965   1.893
29125W        W 2193  33.105  10.982  12.963
29126W        W 2194  44.003  36.312   3.661
29127W        W 2195  22.228   4.989   0.898
29128W        W 2196   0.836  20.286  13.001
29129W        W 2197  29.204  14.281   1.734
29130W        W 2198  27.677  28.505   3.065
29131W        W 2199   5.331  27.694  10.479
29132W        W 2200  30.001  13.847   2.261
29133W        W 2201  13.362   5.276  14.873
29134W        W 2202   3.776  22.655   1.257
29135W        W 2203  29.992   6.469   3.234
29136W        W 2204  39.108  38.545   3.283
29137W        W 2205  17.639   2.737   0.348
29138W        W 2206  40.546  13.573   4.145
29139W        W 2207  24.152  29.557  12.394
29140W        W 2208  42.743   7.610   3.292
29141W        W 2209  42.984  39.581   2.280
29142W        W 2210   5.900  39.377   2.769
29143W        W 2211  35.052  27.621   1.869
29144W        W 2212  40.081  30.111  10.589
29145W        W 2213   3.637  42.858  10.523
29146W        W 2214  20.620  37.859   0.806
29147W        W 2215  34.391  18.164   2.416
29148W        W 2216  20.556   7.333  14.496
29149W        W 2217   7.495  43.240  10.668
29150W        W 2218  11.969  36.464  13.358
29151W        W 2219   6.630  18.516   1.409
29152W        W 2220  26.756  30.898  14.340
29153W        W 2221  31.542  23.665  11.126
29154W        W 2222  20.032   4.682  14.464
29155W        W 2223  22.061  31.037  14.224
29156W        W 2224  36.026  33.375  10.214
29157W        W 2225  20.624  41.259   1.592
29158W        W 2226  43.300  14.288   3.421
29159W        W 2227  34.509  34.879  12.163
29160W        W 2228   3.718   5.719   3.627
29161W        W 2229  28.672  21.089   4.629
29162W        W 2230  11.792  42.209  13.488
29163W        W 2231  19.473   9.308  10.642
29164W        W 2232   2.400  22.852   4.275
29165W        W 2233  41.983  16.205   4.440
29166W        W 2234  28.562  13.010   2.367
29167W        W 2235  21.753  39.585  10.889
29168W        W 2236  27.061  21.189   2.378
29169W        W 2237  41.995  35.703  13.376
29170W        W 2238  37.049  41.425   4.662
29171W        W 2239   5.024   0.271   2.291
29172W        W 2240  34.219   0.010  14.216
29173W        W 2241  13.566  28.870  14.363
29174W        W 2242  14.687   4.104   0.043
29175W        W 2243  29.605   0.988   1.603
29176W        W 2244   0.914  24.493  14.357
29177W        W 2245  12.726  22.294  12.887
29178W        W 2246  36.006  41.871  13.525
29179W        W 2247  19.255  43.060  10.612
29180W        W 2248  12.749  43.381   2.769
29181W        W 2249   6.743  39.052  13.857
29182W        W 2250   6.803  34.371  12.424
29183W        W 2251  31.718  37.727   3.391
29184W        W 2252   4.495  13.872   3.839
29185W        W 2253   5.657   0.367  14.354
29186W        W 2254  35.146  23.099   4.905
29187W        W 2255   9.697  28.429  11.552
29188W        W 2256  42.852   9.103  13.969
29189W        W 2257  37.750  38.502   4.286
29190W        W 2258  24.191   8.351   3.084
29191W        W 2259   2.850  20.800  10.947
29192W        W 2260  44.289  14.831  10.546
29193W        W 2261  13.606  41.046  12.159
29194W        W 2262  44.025  43.453   3.762
29195W        W 2263  36.014   4.297  14.289
29196W        W 2264   2.432  31.043   2.731
29197W        W 2265  16.330  24.594  14.323
29198W        W 2266  16.154  33.696   1.816
29199W        W 2267  11.322  33.866  13.155
29200W        W 2268   8.247  27.573   2.974
29201W        W 2269  24.815  41.355  10.670
29202W        W 2270   7.688   5.345  12.536
29203W        W 2271  27.169  18.656   2.350
29204W        W 2272  33.871  42.553  13.443
29205W        W 2273   6.878  28.171  11.101
29206W        W 2274  28.672  23.018  13.979
29207W        W 2275  36.979  20.134  12.897
29208W        W 2276  23.933  10.469   1.757
29209W        W 2277  19.321  23.078   4.111
29210W        W 2278   4.316  23.494   0.089
29211W        W 2279  21.528  28.975  10.885
29212W        W 2280   6.256   6.670   2.318
29213W        W 2281  41.397  12.050   4.921
29214W        W 2282  21.111  31.500   4.632
29215W        W 2283  19.332  26.328  11.991
29216W        W 2284  30.603  14.329   0.377
29217W        W 2285  28.173   2.349   1.766
29218W        W 2286  39.454  15.181  13.391
29219W        W 2287   3.183  26.047   4.137
29220W        W 2288   5.585  16.550  11.673
29221W        W 2289  24.103  26.167   0.333
29222W        W 2290  33.069  42.266   2.449
29223W        W 2291  24.921   8.979  14.521
29224W        W 2292  12.804  14.836   2.605
29225W        W 2293  25.462  43.404   2.178
29226W        W 2294   5.757  31.560  11.331
29227W        W 2295  21.625  36.351  13.404
29228W        W 2296  37.322   4.802  11.789
29229W        W 2297  19.834  24.830  14.425
29230W        W 2298  34.830  10.164   2.753
29231W        W 2299  44.408   1.448   1.983
29232W        W 2300  14.099  36.416  12.897
29233W        W 2301  26.803  19.973  14.284
29234W        W 2302   6.780  37.061  13.368
29235W        W 2303  34.643  42.481  11.347
29236W        W 2304  11.034  28.153   4.951
29237W        W 2305  21.672  20.609   1.160
29238W        W 2306  20.476  43.365   4.591
29239W        W 2307  16.042  19.422  10.864
29240W        W 2308  13.321  17.554   3.228
29241W        W 2309   4.014  41.402  13.009
29242W        W 2310  22.934  39.617   2.860
29243W        W 2311  16.832  38.823  14.279
29244W        W 2312  36.934   0.012   3.247
29245W        W 2313   8.607   3.003  14.386
29246W        W 2314  13.209  35.956  10.872
29247W        W 2315  16.084  44.869  10.562
29248W        W 2316  21.968  15.789  14.273
29249W        W 2317  36.256  20.365   2.339
29250W        W 2318  38.562  42.034   2.909
29251W        W 2319  36.417  24.011  11.700
29252W        W 2320  34.883  37.115   3.867
29253W        W 2321  34.251  22.333   2.123
29254W        W 2322  11.311  33.497  10.077
29255W        W 2323   1.510  34.636   1.272
29256W        W 2324   2.864  32.572   0.690
29257W        W 2325  28.527  38.402   4.494
29258W        W 2326  32.448  25.202  10.741
29259W        W 2327  40.022  20.934   0.495
29260W        W 2328  30.784  42.277  12.048
29261W        W 2329  29.062   1.199  14.974
29262W        W 2330  19.138  36.536  14.038
29263W        W 2331  41.454  17.820   3.836
29264W        W 2332  32.762  30.386   0.182
29265W        W 2333  38.419  23.704  12.653
29266W        W 2334   5.353  34.066   2.077
29267W        W 2335  16.505  22.140  11.963
29268W        W 2336  10.295  42.552   1.361
29269W        W 2337  32.015  20.077   4.535
29270W        W 2338  25.992   4.198   0.728
29271W        W 2339  12.854  36.014   2.913
29272W        W 2340  40.798  24.200   1.334
29273W        W 2341  44.240  38.510   0.810
29274W        W 2342   9.021  12.362   2.283
29275W        W 2343  28.159   8.147   0.391
29276W        W 2344  44.832  44.568  11.595
29277W        W 2345  37.147  40.375  14.504
29278W        W 2346  23.478  18.791   0.738
29279W        W 2347  21.748  27.908  14.262
29280W        W 2348  43.287  37.443   2.529
29281W        W 2349  10.299  29.812  12.915
29282W        W 2350   0.287   8.533  14.983
29283W        W 2351  38.388   1.014  11.504
29284W        W 2352   5.210   1.666   2.193
29285W        W 2353  36.245  16.584  12.103
29286W        W 2354  13.564  28.417   3.773
29287W        W 2355  32.533  30.053   4.728
29288W        W 2356  15.867  24.069   3.858
29289W        W 2357   5.667  41.029   1.179
29290W        W 2358  32.728  40.871   4.605
29291W        W 2359  22.083   4.748  14.437
29292W        W 2360  33.052   7.382   4.357
29293W        W 2361  15.959  24.983  12.082
29294W        W 2362  12.635  29.702   3.256
29295W        W 2363  15.364  34.993  12.937
29296W        W 2364  28.407  25.197   3.966
29297W        W 2365  34.491  34.529   1.786
29298W        W 2366  20.526  34.362   1.199
29299W        W 2367  43.797  10.688  11.588
29300W        W 2368  16.117  26.392   3.582
29301W        W 2369   8.280  22.815  10.862
29302W        W 2370   5.392  34.650   1.005
29303W        W 2371  33.303  43.360   0.924
29304W        W 2372  36.100  42.491   4.187
29305W        W 2373  22.786  36.534  12.030
29306W        W 2374  16.550   8.757  14.843
29307W        W 2375  32.728  24.966   2.645
29308W        W 2376  27.181  16.196  12.614
29309W        W 2377   6.236  26.585   5.051
29310W        W 2378  28.066  21.251   1.915
29311W        W 2379  32.213  34.498  12.967
29312W        W 2380  21.972  17.037   3.928
29313W        W 2381   8.224   5.093  11.627
29314W        W 2382  32.368  13.656   4.890
29315W        W 2383  29.931   2.211   0.244
29316W        W 2384   7.115  25.273   4.453
29317W        W 2385  31.152   0.213  13.932
29318W        W 2386  27.436  43.768  14.347
29319W        W 2387  11.784  33.540   2.831
29320W        W 2388   0.873   1.794   1.372
29321W        W 2389  19.181  36.828   1.232
29322W        W 2390   2.264  33.008  14.980
29323W        W 2391  18.276  41.954  11.247
29324W        W 2392  24.202  31.083  13.848
29325W        W 2393  38.087  29.052   3.718
29326W        W 2394  41.086   0.236   3.736
29327W        W 2395  26.242  27.134   3.764
29328W        W 2396  28.859  15.523  12.097
29329W        W 2397  32.564  29.004   0.162
29330W        W 2398  28.986   0.698  10.621
29331W        W 2399   0.930   5.204  11.242
29332W        W 2400   3.947  15.907   4.156
29333W        W 2401  44.417  22.574   4.655
29334W        W 2402   4.491   5.313  14.462
29335W        W 2403  32.257  26.485   3.712
29336W        W 2404   3.500  14.468  13.950
29337W        W 2405  13.296  41.887   1.222
29338W        W 2406   0.782   5.721  12.502
29339W        W 2407   3.167  31.996   3.318
29340W        W 2408  41.482  31.047  13.832
29341W        W 2409  26.605  42.772   3.255
29342W        W 2410  11.262  42.929  14.462
29343W        W 2411  36.549  20.047   3.675
29344W        W 2412  26.012  15.166  10.768
29345W        W 2413  35.479   0.947   4.105
29346W        W 2414  16.445  30.609   3.411
29347W        W 2415  23.553  44.997   4.069
29348W        W 2416  40.401  33.904  14.462
29349W        W 2417  24.488  33.109  12.063
29350W        W 2418   1.180  33.212  10.456
29351W        W 2419   8.660  33.992   0.863
29352W        W 2420  35.864   3.217   1.810
29353W        W 2421  19.879  43.411   1.717
29354W        W 2422  22.126  28.173   0.963
29355W        W 2423  41.722   1.252  12.397
29356W        W 2424  24.051  15.367  13.810
29357W        W 2425  36.931  43.799  14.311
29358W        W 2426  23.155  39.957  12.380
29359W        W 2427  24.584   7.634   0.331
29360W        W 2428  12.959  38.742   4.052
29361W        W 2429  38.840  28.029  10.947
29362W        W 2430   1.986  32.915  12.407
29363W        W 2431  43.336  20.843   4.707
29364W        W 2432   1.500  30.968   4.949
29365W        W 2433  34.852  33.617  12.499
29366W        W 2434   0.240  14.453   2.345
29367W        W 2435   5.883  28.188   4.125
29368W        W 2436   4.793  39.464   1.828
29369W        W 2437  27.613  43.813  10.742
29370W        W 2438  30.536  43.744   2.130
29371W        W 2439  29.296  39.289  12.447
29372W        W 2440   1.913   9.096  14.353
29373W        W 2441  34.259  35.234   0.239
29374W        W 2442  44.987  35.663  14.955
29375W        W 2443  30.930   5.941   3.263
29376W        W 2444   9.668  18.674   1.252
29377W        W 2445  42.469  34.816   3.289
29378W        W 2446  11.280   8.094  11.730
29379W        W 2447  32.539   4.886   2.708
29380W        W 2448  19.839  11.191  12.085
29381W        W 2449  13.671  38.601  13.375
29382W        W 2450  15.971  41.151  13.909
29383W        W 2451  29.067   8.839   0.190
29384W        W 2452  36.424  31.692  12.484
29385W        W 2453  38.570  28.100   2.485
29386W        W 2454  11.348  20.679  10.067
29387W        W 2455  16.271  24.140  14.055
29388W        W 2456  13.631  12.260   2.718
29389W        W 2457  19.677  26.665  13.094
29390W        W 2458  32.149   8.332  12.552
29391W        W 2459  13.813  27.398   1.758
29392W        W 2460   0.422  39.380   2.913
29393W        W 2461  29.113  14.677   3.098
29394W        W 2462  41.884  33.489   4.331
29395W        W 2463  10.243  32.805   3.837
29396W        W 2464  30.492  35.056  13.389
29397W        W 2465  10.298  43.723   3.372
29398W        W 2466  30.436  21.289   4.630
29399W        W 2467  36.641  26.718   1.741
29400W        W 2468  44.429  25.374  10.215
29401W        W 2469  24.555  11.575   2.327
29402W        W 2470  19.080  15.772   3.254
29403W        W 2471  14.788  10.545  13.388
29404W        W 2472  41.740  37.133   0.414
29405W        W 2473  20.138  42.293  12.442
29406W        W 2474  17.733  26.898  11.656
29407W        W 2475  17.686   7.927   0.329
29408W        W 2476  24.039  11.623   2.349
29409W        W 2477  40.472   5.197   4.142
29410W        W 2478   0.353   5.848   4.693
29411W        W 2479  29.943   1.355   0.117
29412W        W 2480  12.389  11.122  12.342
29413W        W 2481   2.188  15.707   2.621
29414W        W 2482  21.919   4.248  11.037
29415W        W 2483  36.785  15.952  13.348
29416W        W 2484  38.403   7.646  12.920
29417W        W 2485   9.270  19.566   2.708
29418W        W 2486   8.730  44.527  10.612
29419W        W 2487  30.010  29.447   0.898
29420W        W 2488  10.413   0.477   2.805
29421W        W 2489  23.216  31.155   3.565
29422W        W 2490   1.193  30.992   1.700
29423W        W 2491  41.247  14.149  13.900
29424W        W 2492  15.160   5.974  12.453
29425W        W 2493  34.468  42.321  10.494
29426W        W 2494  40.970  24.686  12.401
29427W        W 2495   7.204   6.112  11.053
29428W        W 2496  31.160  23.917  10.472
29429W        W 2497  32.152  20.042  12.512
29430W        W 2498  18.771  13.183   1.757
29431W        W 2499  16.234   9.794  13.097
29432W        W 2500  14.095   3.359   0.450
29433W        W 2501   7.341  10.234   0.906
29434W        W 2502   9.394  27.090   0.415
29435W        W 2503  14.180  23.518   4.570
29436W        W 2504  12.345   0.523  12.034
29437W        W 2505   5.987   3.817  14.724
29438W        W 2506  15.519  32.092   4.203
29439W        W 2507  38.593   5.681  11.091
29440W        W 2508  16.297  22.674  14.350
29441W        W 2509  18.857  37.390   4.159
29442W        W 2510  33.641   6.353   1.756
29443W        W 2511   2.651  43.739  14.530
29444W        W 2512  13.274  40.931  12.550
29445W        W 2513  36.539  10.144  13.153
29446W        W 2514  38.295  19.162   0.391
29447W        W 2515  15.376  42.886   4.127
29448W        W 2516   6.590   8.099  13.581
29449W        W 2517  16.766  21.525   3.114
29450W        W 2518  28.182  33.539   1.902
29451W        W 2519  42.870  18.123   0.333
29452W        W 2520  13.269  41.748  13.300
29453W        W 2521  14.195  27.016   4.224
29454W        W 2522  41.696  37.111  13.826
29455W        W 2523  20.829  13.475  11.301
29456W        W 2524  13.109  14.992  13.361
29457W        W 2525  38.614  30.014  12.226
29458W        W 2526  23.751  24.899  11.022
29459W        W 2527  18.699  14.766   0.362
29460W        W 2528  22.577  41.718  11.660
29461W        W 2529  41.386  40.642   1.192
29462W        W 2530  42.884   2.806  11.484
29463W        W 2531  27.207  30.452  12.013
29464W        W 2532  24.729  18.176   1.900
29465W        W 2533  32.196   3.798   4.599
29466W        W 2534   6.645  44.973  12.406
29467W        W 2535  10.103   1.672  14.398
29468W        W 2536  44.326  26.641  10.625
29469W        W 2537  11.592  44.007  13.766
29470W        W 2538  13.235  26.078   4.278
29471W        W 2539  12.819  21.475  13.410
29472W        W 2540  41.382  36.770   1.360
29473W        W 2541  29.872  30.902  14.422
29474W        W 2542  29.682  11.241   0.819
29475W        W 2543  43.571  33.341  13.786
29476W        W 2544  44.659  36.243  12.947
29477W        W 2545   2.840  42.326  13.469
29478W        W 2546   3.589  21.604   2.496
29479W        W 2547  35.256  35.369  11.345
29480W        W 2548   0.734  37.511  13.508
29481W        W 2549  20.892  17.233  10.542
29482W        W 2550  15.252  19.739   3.183
29483W        W 2551   4.942  10.822  12.209
29484W        W 2552  35.024  20.693  11.918
29485W        W 2553   2.326  24.089  12.444
29486W        W 2554   3.806  14.282  13.115
29487W        W 2555   6.022  26.679  14.495
29488W        W 2556  37.180  29.629   1.878
29489W        W 2557  39.129  20.133   2.829
29490W        W 2558  20.130  44.929   1.804
29491W        W 2559   9.292  36.061  12.579
29492W        W 2560  11.129  19.628  13.992
29493W        W 2561  12.623  24.447  12.942
29494W        W 2562  27.227   4.153  12.599
29495W        W 2563  10.660  22.322   0.472
29496W        W 2564   4.278  28.585   1.633
29497W        W 2565  30.124   7.894  14.097
29498W        W 2566  39.442  19.372   4.004
29499W        W 2567  16.286  39.759   4.952
29500W        W 2568  12.912  26.956  13.051
29501W        W 2569   2.522  38.808   2.764
29502W        W 2570  31.608  12.785   1.603
29503W        W 2571  18.084  42.439   4.613
29504W        W 2572  39.327  22.045   2.784
29505W        W 2573   1.450   3.455  11.976
29506W        W 2574  39.940   4.834   2.868
29507W        W 2575  16.683  40.828  11.165
29508W        W 2576   1.246   4.930   1.372
29509W        W 2577  31.189  18.692  12.937
29510W        W 2578   4.959   8.581   3.691
29511W        W 2579  21.109  38.791  12.410
29512W        W 2580  21.851  22.261   4.052
29513W        W 2581  31.027  17.244   3.872
29514W        W 2582  20.773  35.686  11.937
29515W        W 2583  36.698  24.972  11.439
29516W        W 2584  13.053  44.923  12.150
29517W        W 2585  15.291  34.756   4.919
29518W        W 2586  36.465  34.005  12.805
29519W        W 2587  24.223  39.897  13.048
29520W        W 2588  39.449  29.571  12.610
29521W        W 2589  17.133  42.916  13.511
29522W        W 2590  31.984   4.333  11.977
29523W        W 2591  19.641  26.386   0.050
29524W        W 2592   4.792  41.771  14.774
29525W        W 2593   8.263  31.685   4.855
29526W        W 2594  42.575  20.191   4.330
29527W        W 2595  39.432  22.745  13.359
29528W        W 2596  11.392   3.241  12.404
29529W        W 2597   9.107   8.138  11.745
29530W        W 2598   7.277  43.514   0.971
29531W        W 2599  16.051  18.816  11.463
29532W        W 2600  40.472   2.738   1.084
29533W        W 2601  24.229  31.996   3.630
29534W        W 2602  32.670  26.827  14.913
29535W        W 2603  23.610  19.094  10.192
29536W        W 2604  12.159  43.390   1.671
29537W        W 2605  37.926  18.685   0.988
29538W        W 2606  37.883  11.881   4.333
29539W        W 2607  42.336  17.611   4.453
29540W        W 2608  14.499   0.380   1.113
29541W        W 2609   8.876  33.009  12.456
29542W        W 2610   1.323  44.972  12.428
29543W        W 2611  25.394  38.326   1.374
29544W        W 2612   9.380  12.443  12.429
29545W        W 2613  17.166   1.741  14.886
29546W        W 2614   6.727  33.167  12.946
29547W        W 2615  21.347  17.753   4.207
29548W        W 2616  42.826  30.527  12.448
29549W        W 2617  15.588  13.577  14.636
29550W        W 2618  34.167  25.679  13.006
29551W        W 2619  26.531  35.708   2.208
29552W        W 2620   2.812  19.400   4.132
29553W        W 2621  34.934  30.559   4.589
29554W        W 2622  28.925  27.533   3.927
29555W        W 2623  30.260  37.290  12.498
29556W        W 2624  41.378   1.432   0.029
29557W        W 2625  17.299  41.608   3.111
29558W        W 2626  30.107  25.195  10.926
29559W        W 2627  38.485  11.634   1.133
29560W        W 2628   8.835   7.016   3.280
29561W        W 2629  30.375   5.472  11.357
29562W        W 2630  36.874   4.378  12.064
29563W        W 2631  15.653  36.583   4.604
29564W        W 2632  17.396  35.316  10.978
29565W        W 2633   5.938  20.523  12.896
29566W        W 2634   5.886  12.331   1.811
29567W        W 2635  30.493  10.509  14.487
29568W        W 2636   2.610  36.050  11.055
29569W        W 2637  29.447  37.396   1.397
29570W        W 2638  24.518  14.864  11.820
29571W        W 2639  41.353  24.311  12.537
29572W        W 2640  12.289  11.558  11.727
29573W        W 2641  31.559  23.934  12.779
29574W        W 2642  41.347   3.422   3.681
29575W        W 2643   3.936   2.703   0.793
29576W        W 2644  31.554   0.212  12.515
29577W        W 2645  17.580   9.017  11.081
29578W        W 2646  38.481  31.369   0.433
29579W        W 2647  38.778  42.552  13.414
29580W        W 2648  41.380  20.687  13.375
29581W        W 2649   0.269  24.535   0.738
29582W        W 2650   0.658  31.469   2.773
29583W        W 2651  43.025   3.951  10.681
29584W        W 2652  44.118   2.391   0.389
29585W        W 2653  33.957  12.935   2.603
29586W        W 2654   6.396  26.020   3.711
29587W        W 2655   3.275  21.831  13.078
29588W        W 2656  13.620  19.118   0.801
29589W        W 2657  20.193  30.582   4.066
29590W        W 2658  33.380  40.093   0.835
29591W        W 2659  24.518  24.048   2.277
29592W        W 2660   0.473   0.439  14.997
29593W        W 2661   7.726  33.653   1.377
29594W        W 2662  29.290  42.118   1.791
29595W        W 2663   1.502  23.935  11.543
29596W        W 2664   0.508  15.340  10.915
29597W        W 2665   2.338  27.100  14.266
29598W        W 2666  43.340  26.654   0.897
29599W        W 2667   8.598  31.873   4.039
29600W        W 2668  26.638   7.724   3.451
29601W        W 2669   6.209  27.088  12.652
29602W        W 2670  15.481  39.345   3.325
29603W        W 2671  38.523  29.478   1.870
29604W        W 2672   6.184   8.828  13.013
29605W        W 2673  17.891   7.144   2.181
29606W        W 2674   5.997  40.891   0.766
29607W        W 2675  23.506  42.192  13.395
29608W        W 2676  10.569   0.336  13.368
29609W        W 2677  41.790  23.869   3.642
29610W        W 2678  40.354  37.006   2.727
29611W        W 2679  31.425  29.901  11.521
29612W        W 2680  39.928  32.076  14.414
29613W        W 2681  19.518   3.270   3.243
29614W        W 2682  17.707   5.260   0.835
29615W        W 2683   3.941   5.636  12.924
29616W        W 2684  36.617  44.799  10.335
29617W        W 2685   2.186  13.601  12.189
29618W        W 2686  22.076  10.020   3.736
29619W        W 2687  34.929  35.471  13.985
29620W        W 2688  39.366  43.549  10.594
29621W        W 2689  19.868  32.363  11.554
29622W        W 2690  42.924  24.483  11.379
29623W        W 2691  33.378  21.608  12.657
29624W        W 2692  13.074  11.647   2.354
29625W        W 2693  26.931   7.436   0.138
29626W        W 2694   5.831   0.361  14.835
29627W        W 2695  20.313  41.338   4.091
29628W        W 2696  25.949  29.433  12.399
29629W        W 2697  36.369  24.670   4.796
29630W        W 2698   6.189   7.737   1.380
29631W        W 2699   3.465  37.435   2.583
29632W        W 2700   3.149  41.050  11.615
29633W        W 2701  26.848  24.759  13.859
29634W        W 2702   8.960   2.846   3.281
29635W        W 2703  11.289  44.289  13.416
29636W        W 2704  26.500  38.107  11.927
29637W        W 2705   4.583   1.518  13.933
29638W        W 2706  21.601  30.833  14.373
29639W        W 2707  27.873  18.526   4.907
29640W        W 2708  43.059   1.756   1.876
29641W        W 2709  38.933   6.542   5.040
29642W        W 2710  14.560   1.358   4.680
29643W        W 2711  41.343  24.930  14.792
29644W        W 2712   7.402  40.045  14.454
29645W        W 2713   8.301  31.474  12.947
29646W        W 2714   2.506  10.157   1.657
29647W        W 2715  42.113  15.178  14.732
29648W        W 2716  28.889  28.220  11.474
29649W        W 2717  39.051  42.763   4.656
29650W        W 2718  42.556  15.206  10.673
29651W        W 2719   9.026  40.402  10.689
29652W        W 2720  21.319  42.953  12.137
29653W        W 2721   4.847   6.556  11.711
29654W        W 2722  25.372  24.207  14.880
29655W        W 2723  32.600   5.185   3.126
29656W        W 2724  38.904  44.548  13.437
29657W        W 2725  29.441   1.174  11.152
29658W        W 2726  30.475  40.768  12.770
29659W        W 2727  17.792  41.823  10.764
29660W        W 2728   6.830   0.057  14.102
29661W        W 2729  31.449  20.225   1.233
29662W        W 2730  20.458  43.435   0.862
29663W        W 2731  16.598  21.888  13.574
29664W        W 2732  12.545  14.769   3.843
29665W        W 2733  41.770  43.863  12.771
29666W        W 2734   5.302  34.060  10.987
29667W        W 2735  43.915  43.059   0.970
29668W        W 2736  28.480  21.990   0.812
29669W        W 2737  14.715  29.548   1.096
29670W        W 2738  33.914  39.744   3.629
29671W        W 2739  35.076  21.011  13.886
29672W        W 2740  38.543  22.618  12.966
29673W        W 2741  22.226  16.166   4.536
29674W        W 2742  12.112  16.130   3.714
29675W        W 2743   3.428  30.469  11.575
29676W        W 2744  43.835  43.902  10.695
29677W        W 2745  25.413  42.230  13.857
29678W        W 2746   1.418  27.138   2.118
29679W        W 2747  26.845  10.850   1.175
29680W        W 2748  22.901  42.281   0.354
29681W        W 2749   1.486   3.859   1.898
29682W        W 2750  14.571  20.186   4.930
29683W        W 2751  31.211  27.084   3.286
29684W        W 2752  33.319  25.099  13.873
29685W        W 2753  19.665   3.394  10.691
29686W        W 2754  34.319  42.268  13.500
29687W        W 2755  39.786  43.876  11.610
29688W        W 2756  23.035  44.862  14.890
29689W        W 2757  32.154  24.687  13.457
29690W        W 2758  40.900  20.114   3.879
29691W        W 2759   6.173  26.679  13.338
29692W        W 2760  11.176  37.910  12.696
29693W        W 2761  26.713   4.956  12.329
29694W        W 2762   6.067  36.579  14.480
29695W        W 2763  29.164  39.130   2.617
29696W        W 2764   9.291  24.721   0.747
29697W        W 2765  34.019  20.236  12.862
29698W        W 2766  13.463  39.979   4.984
29699W        W 2767   7.028  36.960  12.823
29700W        W 2768   5.498  28.584  14.618
29701W        W 2769  44.381  23.651  11.591
29702W        W 2770  27.452  37.835   0.458
29703W        W 2771  24.270  27.120  12.096
29704W        W 2772  34.418  36.863   4.744
29705W        W 2773  18.021   3.659   2.585
29706W        W 2774  28.976  34.126   1.575
29707W        W 2775  21.335  21.082   0.308
29708W        W 2776  38.576  15.744  13.984
29709W        W 2777  21.815   0.211   3.570
29710W        W 2778  37.975  26.187   2.151
29711W        W 2779  12.889  28.984  10.337
29712W        W 2780  14.422  11.653  14.914
29713W        W 2781  14.049  17.648   4.062
29714W        W 2782   1.061  23.594  11.985
29715W        W 2783  11.560   6.668   1.408
29716W        W 2784  32.180  41.762  11.113
29717W        W 2785   7.431  24.003  12.706
29718W        W 2786  38.755   6.507   3.620
29719W        W 2787  10.238  32.409   4.206
29720W        W 2788  41.844  22.576   0.830
29721W        W 2789  10.711   2.259   4.342
29722W        W 2790  32.627  32.339   0.411
29723W        W 2791  25.570  29.376   1.280
29724W        W 2792   1.184   8.589  14.395
29725W        W 2793  32.142   3.737  14.940
29726W        W 2794  35.222  34.143  13.374
29727W        W 2795  26.584   7.194  14.063
29728W        W 2796  25.705  36.106  11.818
29729W        W 2797   7.245  42.976  11.863
29730W        W 2798  30.943   4.733   4.479
29731W        W 2799  32.349   7.790   1.956
29732W        W 2800   3.407   7.885  10.606
29733W        W 2801   3.931  40.936   0.843
29734W        W 2802  27.148  31.494   1.646
29735W        W 2803  41.764  11.753  12.554
29736W        W 2804  36.486  34.133   3.743
29737W        W 2805   5.866  43.526  13.999
29738W        W 2806  25.500  19.844  12.050
29739W        W 2807  35.943  40.487   0.933
29740W        W 2808   0.393  42.234   0.260
29741W        W 2809  31.422  11.063   2.787
29742W        W 2810   5.619  27.121  11.764
29743W        W 2811  22.736  16.675  11.120
29744W        W 2812  11.639  38.818   4.151
29745W        W 2813  24.581  10.365  10.996
29746W        W 2814  27.565  39.510  12.202
29747W        W 2815  21.756  40.410  12.957
29748W        W 2816   8.218  14.841   3.132
29749W        W 2817  41.005  19.082  13.043
29750W        W 2818  33.788  33.683  10.554
29751W        W 2819  34.319  22.185  10.310
29752W        W 2820  36.924   7.362  13.482
29753W        W 2821   2.356  24.381   0.405
29754W        W 2822  12.956  17.861   1.803
29755W        W 2823  36.832   8.338   3.364
29756W        W 2824   7.436   7.531  11.993
29757W        W 2825   4.951  24.120   4.267
29758W        W 2826  18.579  26.500   1.278
29759W        W 2827   3.783  17.246   2.915
29760W        W 2828  42.172  38.570  12.110
29761W        W 2829  28.557  15.714   3.926
29762W        W 2830  40.785   9.131  13.541
29763W        W 2831   4.256  23.904   1.322
29764W        W 2832  38.502   9.673  11.630
29765W        W 2833  16.146   2.005  14.708
29766W        W 2834  28.879   7.381   0.283
29767W        W 2835  17.224  17.733  10.620
29768W        W 2836  28.044  16.262  12.893
29769W        W 2837  39.958   7.985  11.587
29770W        W 2838  11.825   5.353  11.495
29771W        W 2839  17.200  22.291  14.096
29772W        W 2840  29.207  44.397  11.969
29773W        W 2841  14.886   2.270  12.504
29774W        W 2842  31.868  22.028   0.386
29775W        W 2843   4.133  12.842  12.867
29776W        W 2844  27.929   4.392  14.909
29777W        W 2845   6.306  15.285  12.394
29778W        W 2846  38.199  29.039   0.289
29779W        W 2847  36.609  18.722   0.773
29780W        W 2848  33.039  35.642   0.007
29781W        W 2849   5.661  23.769   4.676
29782W        W 2850  20.253  30.901   2.352
29783W        W 2851  16.871  28.974  13.430
29784W        W 2852  24.999  24.914  13.873
29785W        W 2853  16.098  12.654  13.275
29786W        W 2854  29.329  15.796  13.096
29787W        W 2855  24.424  27.586  12.218
29788W        W 2856  29.630  16.361   4.383
29789W        W 2857   8.014  16.895   1.830
29790W        W 2858  32.327  22.015  10.757
29791W        W 2859  31.738   6.750  11.970
29792W        W 2860  14.181   7.404  13.928
29793W        W 2861  30.132  28.928  12.996
29794W        W 2862  35.529  20.507  11.489
29795W        W 2863  12.875  13.746  13.749
29796W        W 2864  30.812  33.976   0.362
29797W        W 2865  19.004  31.652  13.818
29798W        W 2866   0.282  38.440   2.245
29799W        W 2867  38.623  14.284  12.540
29800W        W 2868   2.745  30.755  10.995
29801W        W 2869  28.475  23.366  13.651
29802W        W 2870  41.109  24.326   4.236
29803W        W 2871  20.997  28.114   1.266
29804W        W 2872  14.332  18.145  14.296
29805W        W 2873  23.821  16.530   2.623
29806W        W 2874  36.404  10.454  11.632
29807W        W 2875  21.643   0.351  13.123
29808W        W 2876  31.473  16.114   2.169
29809W        W 2877  31.548  38.331   4.216
29810W        W 2878  30.948  40.650   0.870
29811W        W 2879   6.484  13.470  13.799
29812W        W 2880  31.414  31.608  13.025
29813W        W 2881  21.586  26.009  13.589
29814W        W 2882  42.546  43.719  14.374
29815W        W 2883  25.530  33.989  13.076
29816W        W 2884  10.265  18.989   3.730
29817W        W 2885  42.991  43.981  14.399
29818W        W 2886  20.049  22.505   1.425
29819W        W 2887  23.211  44.875   1.357
29820W        W 2888  35.318  29.375  12.153
29821W        W 2889  41.675  27.151   3.797
29822W        W 2890  39.043  34.602   1.677
29823W        W 2891  22.576  23.067  10.870
29824W        W 2892  34.018  23.327   1.874
29825W        W 2893  40.405   5.585  12.936
29826W        W 2894   6.855  10.792   1.888
29827W        W 2895  19.681  11.697  13.900
29828W        W 2896   7.750  32.941  13.278
29829W        W 2897  41.008  15.281   4.243
29830W        W 2898  25.745  16.303   0.928
29831W        W 2899   0.311  25.993  13.862
29832W        W 2900  14.081  38.943  12.179
29833W        W 2901  28.179  35.863   2.760
29834W        W 2902  10.186   1.020   5.020
29835W        W 2903  29.539  12.387   1.300
29836W        W 2904  22.208  32.410   2.205
29837W        W 2905  11.630  25.188   2.425
29838W        W 2906  38.533  27.708   4.643
29839W        W 2907   4.938  23.224   2.899
29840W        W 2908  14.227  15.852  13.356
29841W        W 2909  20.587  23.265   4.816
29842W        W 2910  22.210  11.037   3.666
29843W        W 2911  13.120  10.179  13.373
29844W        W 2912   1.958  39.559   1.318
29845W        W 2913  17.119  22.829   4.508
29846W        W 2914  42.320   0.282   0.576
29847W        W 2915  16.640  27.393   0.748
29848W        W 2916  17.773  15.282   4.147
29849W        W 2917   3.412  36.839  14.433
29850W        W 2918   9.559  11.973  12.396
29851W        W 2919  40.599  15.053  10.734
29852W        W 2920  40.409  39.022   1.357
29853W        W 2921  34.410  18.614  10.628
29854W        W 2922   5.424   1.916  11.339
29855W        W 2923  32.024  19.471   4.339
29856W        W 2924   9.544  26.662  10.250
29857W        W 2925  40.550  36.776  12.946
29858W        W 2926  42.966  43.943   2.233
29859W        W 2927  40.128  37.951   0.742
29860W        W 2928   5.881  33.328   0.959
29861W        W 2929   8.317   4.614  11.446
29862W        W 2930   8.250  36.771   4.571
29863W        W 2931  24.471  35.533   3.748
29864W        W 2932  18.397  18.983   1.666
29865W        W 2933  21.314  17.239  12.971
29866W        W 2934  11.766  27.655   3.356
29867W        W 2935  43.931   8.118   4.055
29868W        W 2936  40.009  27.854   2.275
29869W        W 2937  31.579  13.391  11.247
29870W        W 2938  33.544   2.353   1.770
29871W        W 2939  39.043  44.847   0.912
29872W        W 2940   1.506  33.526   4.829
29873W        W 2941  26.879  22.586  13.928
29874W        W 2942   6.356  38.019   4.674
29875W        W 2943   1.860  21.969   2.365
29876W        W 2944  15.592  41.814  10.654
29877W        W 2945  29.182  43.874   4.293
29878W        W 2946  38.795  37.550   0.007
29879W        W 2947   8.156  22.715   1.450
29880W        W 2948  31.236   4.478   2.196
29881W        W 2949  37.948  37.573  10.482
29882W        W 2950  26.597  44.888   4.097
29883W        W 2951  30.897  37.819   0.513
29884W        W 2952  25.022  29.384   1.797
29885W        W 2953  36.353  33.464   5.102
29886W        W 2954  43.426   3.379  13.014
29887W        W 2955  38.050   5.006  11.566
29888W        W 2956   2.434  34.516  13.820
29889W        W 2957   7.663  41.932  11.125
29890W        W 2958  13.071  39.850   0.725
29891W        W 2959   5.755  42.409   2.901
29892W        W 2960  28.984  18.821  13.059
29893W        W 2961  42.263  40.951  14.072
29894W        W 2962  14.062  16.242   4.129
29895W        W 2963   3.494  30.406  14.262
29896W        W 2964  17.084  30.102  14.178
29897W        W 2965  26.503  31.896   0.444
29898W        W 2966  34.862  41.774   2.254
29899W        W 2967  44.840  41.044   3.683
29900W        W 2968  43.759  12.672  11.406
29901W        W 2969  40.280  40.865  11.975
29902W        W 2970  40.883  42.825   1.928
29903W        W 2971  18.464  30.597  14.516
29904W        W 2972  33.022  40.240   3.585
29905W        W 2973  27.507  21.512   3.288
29906W        W 2974  38.927  38.904  11.769
29907W        W 2975  38.869   6.951  13.537
29908W        W 2976  11.320  29.110  13.956
29909W        W 2977  14.351  43.020   2.882
29910W        W 2978  37.371  37.784  12.752
29911W        W 2979  34.803  21.039   0.196
29912W        W 2980   4.526  16.681  14.912
29913W        W 2981  16.726  38.969  10.499
29914W        W 2982  13.789   6.419   4.657
29915W        W 2983  19.548  18.267   1.302
29916W        W 2984  27.066  26.175   4.766
29917W        W 2985   2.750  40.918   1.279
29918W        W 2986   8.490  29.943  12.421
29919W        W 2987  19.610   7.692  13.590
29920W        W 2988  28.600  18.642  12.455
29921W        W 2989   0.003  22.531   3.785
29922W        W 2990   7.556   6.198  11.920
29923W        W 2991   9.138  42.415   0.435
29924W        W 2992  39.992  14.934  11.060
29925W        W 2993  17.016  27.211  14.334
29926W        W 2994  22.813   0.752  11.908
29927W        W 2995  20.473   6.796  14.986
29928W        W 2996  40.062   8.683  13.920
29929W        W 2997  16.171  15.549  12.492
29930W        W 2998  29.360   9.876   0.908
29931W        W 2999  41.728  44.290   1.483
29932W        W 3000  11.087  28.117   2.787
29933W        W 3001  30.544  24.992   0.862
29934W        W 3002  19.489  44.577   2.938
29935W        W 3003  29.727  38.480  13.154
29936W        W 3004  31.060  16.130   0.366
29937W        W 3005  16.971  13.221   3.388
29938W        W 3006  31.391   7.502   4.188
29939W        W 3007   0.986  35.889  12.502
29940W        W 3008  28.733  30.674  11.106
29941W        W 3009  20.520  42.535   3.888
29942W        W 3010  17.795  44.596   3.658
29943W        W 3011  18.958  31.939  11.645
29944W        W 3012   4.375   2.341  12.947
29945W        W 3013   0.318  27.561   2.346
29946W        W 3014   5.497  23.945  11.171
29947W        W 3015  19.142   9.897  13.283
29948W        W 3016   3.815  27.142  11.157
29949W        W 3017  24.142  34.407  14.041
29950W        W 3018  19.538  18.358   4.595
29951W        W 3019  43.986  31.637   2.733
29952W        W 3020   9.582   3.908  13.173
29953W        W 3021  41.370  13.565  14.798
29954W        W 3022  27.172  38.565  10.639
29955W        W 3023  39.698  41.625  14.327
29956W        W 3024   9.762  24.588  14.282
29957W        W 3025  15.217   9.775  12.571
29958W        W 3026  37.860  19.634   4.118
29959W        W 3027   9.918  37.453  12.441
29960W        W 3028  24.279  34.514  12.838
29961W        W 3029  10.094  33.037  12.100
29962W        W 3030  14.022  41.507  10.261
29963W        W 3031  18.469  27.062  11.008
29964W        W 3032   8.349  39.796   5.017
29965W        W 3033  37.615  30.224  12.360
29966W        W 3034   8.326  42.849   0.594
29967W        W 3035  43.007   7.300  14.858
29968W        W 3036  26.102  34.655  13.588
29969W        W 3037  36.098  18.196  10.749
29970W        W 3038  37.871  32.093  13.852
29971W        W 3039  38.860  20.729   1.748
29972W        W 3040  38.987  31.020   2.398
29973W        W 3041  33.482  42.971  11.417
29974W        W 3042  44.067  30.084  12.451
29975W        W 3043   2.425  16.887   4.109
29976W        W 3044  27.768   9.232   2.437
29977W        W 3045  29.979  41.432  13.618
29978W        W 3046   8.782  36.187  12.596
29979W        W 3047  41.512  27.798   2.806
29980W        W 3048  36.599  25.656  11.997
29981W        W 3049  35.537   4.685   3.194
29982W        W 3050  44.312  30.067  13.505
29983W        W 3051  35.290   3.311   0.868
29984W        W 3052   9.203   6.287   4.709
29985W        W 3053  39.816  10.556   4.162
29986W        W 3054   6.321  26.551  13.829
29987W        W 3055  32.042  22.309   3.555
29988W        W 3056  19.805  32.517   1.511
29989W        W 3057  16.268   3.408  10.844
29990W        W 3058  44.677  42.768  13.852
29991W        W 3059  41.981  36.436  11.206
29992W        W 3060   7.817  44.717   2.123
29993W        W 3061   6.477  28.993  11.214
29994W        W 3062  17.580  23.450   1.176
29995W        W 3063  16.557  35.465   4.793
29996W        W 3064  24.985  39.501  10.654
29997W        W 3065  16.409  14.582  12.419
29998W        W 3066   9.463   1.348  13.154
29999W        W 3067  31.097  28.621   0.479
30000W        W 3068  18.715  34.349  12.582
30001W        W 3069  27.095  12.647   2.464
30002W        W 3070   5.471  23.359   3.755
30003W        W 3071  22.319  44.210  14.380
30004W        W 3072   3.526   4.886   4.218
30005W        W 3073  41.939  21.580   0.797
30006W        W 3074  21.523  30.265   3.637
30007W        W 3075  29.045  26.926   2.136
30008W        W 3076  19.019  35.051  12.476
30009W        W 3077  41.722   4.283  12.769
30010W        W 3078  13.836  20.236  12.371
30011W        W 3079  37.279  21.739   2.167
30012W        W 3080  32.293   5.899  13.849
30013W        W 3081  18.964   0.405   1.958
30014W        W 3082  29.711  36.109   0.097
30015W        W 3083  11.804  23.519  14.419
30016W        W 3084  30.091   0.995   0.886
30017W        W 3085  44.742  29.462  10.733
30018W        W 3086  44.666  13.494   0.248
30019W        W 3087  32.880  28.254   4.041
30020W        W 3088  21.341  16.589  13.530
30021W        W 3089  22.056  31.181  11.895
30022W        W 3090  24.877  18.459   5.699
30023W        W 3091  19.972   9.326  10.811
30024W        W 3092  41.022   7.641  13.851
30025W        W 3093  35.357  41.002  12.611
30026W        W 3094  35.256  22.034   2.091
30027W        W 3095  25.366  42.533  14.758
30028W        W 3096  44.186  12.079  10.681
30029W        W 3097   4.474  35.421  10.712
30030W        W 3098  40.049  31.078  14.639
30031W        W 3099  14.212  22.136   3.837
30032W        W 3100  44.738   1.488   3.638
30033W        W 3101   3.795   1.175   1.904
30034W        W 3102   4.166   8.668   4.213
30035W        W 3103  21.540  20.131   1.001
30036W        W 3104   7.892  19.052   1.721
30037W        W 3105  29.619  42.067  10.531
30038W        W 3106   4.735  23.581  10.772
30039W        W 3107  38.793  22.353  13.626
30040W        W 3108   6.813   8.744   3.107
30041W        W 3109  26.903   4.803  10.606
30042W        W 3110  29.049  17.561   4.270
30043W        W 3111  28.081  31.084   3.355
30044W        W 3112  32.130  11.103   0.597
30045W        W 3113  13.804  29.048  13.920
30046W        W 3114  40.900  12.139  13.446
30047W        W 3115  35.864  11.208  13.346
30048W        W 3116  39.780  39.348   2.775
30049W        W 3117  31.932   3.734   3.045
30050W        W 3118  33.467  15.830  11.529
30051W        W 3119  17.065  29.296  13.061
30052W        W 3120  39.050  39.119  12.278
30053W        W 3121  24.043  43.518  13.430
30054W        W 3122  24.198  15.082  14.678
30055W        W 3123  31.515  43.038   2.262
30056W        W 3124   7.650  34.901   3.414
30057W        W 3125  33.933  25.990   1.724
30058W        W 3126  32.028  35.170   3.575
30059W        W 3127  22.033  30.753   1.384
30060W        W 3128  40.405  26.584   3.409
30061W        W 3129  27.378  30.598   3.230
30062W        W 3130  22.907  40.511   0.868
30063W        W 3131  17.344  35.006  13.613
30064W        W 3132   2.846  42.237  11.995
30065W        W 3133   9.408  44.804  13.881
30066W        W 3134  33.152  26.518  14.010
30067W        W 3135  25.181  14.282  11.540
30068W        W 3136  21.129   6.652   3.646
30069W        W 3137  10.735   6.334  14.318
30070W        W 3138  18.379  32.899   0.437
30071W        W 3139  18.390  44.537  10.535
30072W        W 3140  11.802  40.882  13.742
30073W        W 3141  12.451  31.792  11.177
30074W        W 3142   8.578  27.689  13.288
30075W        W 3143  26.965  24.185   2.882
30076W        W 3144  10.799  39.300   3.625
30077W        W 3145  38.768  22.776   1.597
30078W        W 3146   2.873  34.557   4.673
30079W        W 3147  43.389  30.129   0.279
30080W        W 3148  23.701  18.696   5.183
30081W        W 3149  39.536  20.118  12.109
30082W        W 3150  13.190  11.906  13.021
30083W        W 3151   7.355  21.316   0.596
30084W        W 3152  13.638  31.024   3.803
30085W        W 3153  26.099  32.670  11.069
30086W        W 3154  13.214  17.045   3.211
30087W        W 3155  35.274   0.768  11.515
30088W        W 3156   8.397  31.180   0.718
30089W        W 3157  30.987  18.826   3.677
30090W        W 3158   1.136  14.084   1.105
30091W        W 3159  26.466  33.643  13.808
30092W        W 3160  17.759   7.881  13.956
30093W        W 3161  39.401  18.455   3.564
30094W        W 3162   2.981   7.832   4.118
30095W        W 3163   4.684  43.236   0.003
30096W        W 3164   8.154  18.985  11.527
30097W        W 3165  16.624   8.594  11.972
30098W        W 3166   2.387  41.344   2.817
30099W        W 3167   9.626   9.345   2.810
30100W        W 3168   1.513  38.663   2.773
30101W        W 3169  14.018  38.998   0.067
30102W        W 3170  13.172  31.658   3.989
30103W        W 3171  17.236  12.442  12.528
30104W        W 3172  29.639  19.837   4.101
30105W        W 3173   9.467   9.860  13.563
30106W        W 3174  36.979  32.423  10.975
30107W        W 3175  11.699  26.719  10.180
30108W        W 3176   9.189  29.647   0.319
30109W        W 3177  44.805  39.843  11.131
30110W        W 3178  39.176   8.337   9.766
30111W        W 3179   1.177  10.663  12.488
30112W        W 3180  25.416  24.533   3.089
30113W        W 3181   2.354  25.013  11.123
30114W        W 3182  42.708   0.998  10.597
30115W        W 3183   3.382   7.284   0.025
30116W        W 3184  28.424  34.882   1.983
30117W        W 3185   3.434  25.739  12.813
30118W        W 3186  42.036   1.940  13.494
30119W        W 3187   1.712  28.660  12.481
30120W        W 3188  16.845  30.374   0.426
30121W        W 3189  42.686  29.130  10.220
30122W        W 3190  22.707  32.439   2.346
30123W        W 3191   9.522  43.819  11.102
30124W        W 3192   7.201  26.631  13.923
30125W        W 3193  32.840  34.050   1.314
30126W        W 3194  11.272  24.102   3.152
30127W        W 3195   8.822   9.152  13.463
30128W        W 3196  16.749   3.347   1.412
30129W        W 3197   7.209  35.914  13.336
30130W        W 3198  32.124  32.866  12.984
30131W        W 3199  41.795  24.450   1.710
30132W        W 3200  18.472  43.303   4.613
30133W        W 3201  28.681  38.089   3.929
30134W        W 3202  10.622  37.422   3.246
30135W        W 3203  37.000  15.186  12.568
30136W        W 3204  18.333  20.299  12.201
30137W        W 3205  13.230  20.674   3.267
30138W        W 3206  18.338  32.007   2.401
30139W        W 3207   6.659  17.335   2.812
30140W        W 3208  37.132  42.398   1.274
30141W        W 3209  37.856   0.028  10.410
30142W        W 3210  37.005   8.892   2.943
30143W        W 3211  29.228  13.503   3.848
30144W        W 3212  27.549  30.841  13.860
30145W        W 3213  26.944  31.547  13.875
30146W        W 3214  28.721  19.286   4.314
30147W        W 3215   4.146   8.068  12.926
30148W        W 3216  10.641  31.548  12.891
30149W        W 3217  16.315  14.296  14.844
30150W        W 3218   5.549  20.518  11.504
30151W        W 3219  21.052  10.331  13.866
30152W        W 3220  44.877  34.356   4.511
30153W        W 3221   7.129  20.355   0.926
30154W        W 3222  42.536  35.061  11.177
30155W        W 3223  23.416  22.973  11.569
30156W        W 3224  29.329  24.862  11.065
30157W        W 3225  33.867  26.423  11.208
30158W        W 3226  15.237  31.231   1.700
30159W        W 3227  27.060  18.122   0.051
30160W        W 3228  37.747   6.444  10.415
30161W        W 3229  35.293  24.179  12.859
30162W        W 3230  12.849  19.530   0.911
30163W        W 3231  24.486  25.127  10.491
30164W        W 3232  15.803  30.713   1.320
30165W        W 3233  35.609  41.024   2.733
30166W        W 3234  36.878  33.621   2.688
30167W        W 3235  21.564  25.069   0.922
30168W        W 3236  23.110  18.289  10.505
30169W        W 3237  35.904  21.015  12.282
30170W        W 3238  34.227  15.621   4.454
30171W        W 3239  36.350  43.544  11.980
30172W        W 3240  29.901  13.571  11.530
30173W        W 3241  31.671   2.584   4.013
30174W        W 3242  22.673  10.683   2.918
30175W        W 3243  43.415  34.162   1.210
30176W        W 3244  38.600  35.039   5.036
30177W        W 3245  12.921   6.157  14.858
30178W        W 3246   6.607  21.745   1.197
30179W        W 3247  40.428  37.794   0.356
30180W        W 3248   9.187   1.967  12.588
30181W        W 3249  36.413   1.894  13.263
30182W        W 3250  41.047  13.655   4.193
30183W        W 3251  35.020   0.997  11.007
30184W        W 3252  35.584  28.500  10.811
30185W        W 3253  12.986  19.729  12.496
30186W        W 3254   3.294  23.661   2.189
30187W        W 3255  21.798  36.965   3.657
30188W        W 3256   3.428  29.001   4.567
30189W        W 3257  15.085  28.131   2.312
30190W        W 3258  15.737  44.161   3.604
30191W        W 3259  12.548   6.103  13.577
30192W        W 3260  23.462  36.074  13.481
30193W        W 3261   7.645  28.507   3.771
30194W        W 3262   0.240  22.473   4.248
30195W        W 3263  42.556  36.383   1.770
30196W        W 3264   6.927  18.153   3.888
30197W        W 3265  30.115  18.467  12.422
30198W        W 3266  35.416  40.813  11.721
30199W        W 3267  32.175  44.407   2.732
30200W        W 3268  16.227  38.457   2.740
30201W        W 3269  36.771  30.390   4.215
30202W        W 3270   8.033  38.826  10.297
30203W        W 3271  16.581  15.038   2.773
30204W        W 3272   1.921  35.441   4.364
30205W        W 3273  38.055  19.075  11.094
30206W        W 3274  10.826  40.740   2.202
30207W        W 3275  44.409  43.321  11.204
30208W        W 3276   2.235  10.141   0.728
30209W        W 3277   3.678  23.947  12.397
30210W        W 3278  40.214  42.508   1.635
30211W        W 3279  43.819  14.877   2.595
30212W        W 3280  37.888   0.325   3.673
30213W        W 3281   2.776  42.749  12.249
30214W        W 3282  39.251   8.277  10.659
30215W        W 3283  30.919  13.306  10.670
30216W        W 3284  40.895  30.485   3.832
30217W        W 3285  29.555   5.868  12.825
30218W        W 3286  37.581   0.483  14.277
30219W        W 3287  15.149  19.181  13.515
30220W        W 3288  16.183  37.340   3.568
30221W        W 3289  14.207  37.210  11.181
30222W        W 3290   7.782  29.589  13.048
30223W        W 3291   3.431   0.796  11.140
30224W        W 3292  32.356  43.037  11.597
30225W        W 3293  17.832  39.471   2.395
30226W        W 3294  13.356  18.241  14.796
30227W        W 3295  22.138   0.693   2.355
30228W        W 3296   8.738  41.508   4.117
30229W        W 3297  15.066  27.728  12.161
30230W        W 3298  39.955  39.994  14.994
30231W        W 3299   3.335   6.155  12.809
30232W        W 3300   5.303  17.713  11.141
30233W        W 3301   5.728  40.441  13.384
30234W        W 3302  24.214  14.360  10.777
30235W        W 3303  34.999  20.532  10.816
30236W        W 3304  16.210  42.948   3.307
30237W        W 3305  43.836   2.836   0.341
30238W        W 3306  12.208  30.157  12.110
30239W        W 3307   3.235  37.536  12.223
30240W        W 3308   8.377  38.756   3.290
30241W        W 3309  26.907  12.385   3.264
30242W        W 3310  23.416  33.074   4.733
30243W        W 3311  28.652  15.271   1.861
30244W        W 3312  39.479  34.680  13.999
30245W        W 3313  37.987  37.853   0.817
30246W        W 3314  18.534   9.091  11.014
30247W        W 3315  16.683  19.682   4.404
30248W        W 3316  33.086  38.976   4.631
30249W        W 3317  28.941  28.972   3.785
30250W        W 3318  20.320  32.332   3.377
30251W        W 3319   0.891  29.911  10.765
30252W        W 3320  44.777  19.787   0.377
30253W        W 3321  39.245  36.994  13.698
30254W        W 3322   9.682  28.834  13.516
30255W        W 3323   1.324  36.754  10.763
30256W        W 3324  22.465  13.639  14.351
30257W        W 3325  21.611   8.213  14.753
30258W        W 3326  37.690  43.869  11.965
30259W        W 3327  17.573   0.261  13.914
30260W        W 3328  13.708  23.099   1.782
30261W        W 3329   2.210  14.519  14.507
30262W        W 3330  26.149   2.245   1.078
30263W        W 3331   1.106  18.801  12.472
30264W        W 3332  11.739  21.132   3.254
30265W        W 3333  42.948  24.910   0.727
30266W        W 3334  15.346  18.335  12.195
30267W        W 3335  43.545  18.035   4.152
30268W        W 3336  28.187  11.692   5.094
30269W        W 3337  11.224  25.639  13.779
30270W        W 3338  14.791  23.102   0.705
30271W        W 3339  29.416  39.796  11.030
30272W        W 3340  11.020   5.018  11.718
30273W        W 3341  27.444   6.463  14.311
30274W        W 3342  16.676  18.795  14.322
30275W        W 3343  29.493  16.275   1.321
30276W        W 3344  19.512  30.014  11.489
30277W        W 3345   4.856  39.874   1.503
30278W        W 3346  37.590  12.340   1.325
30279W        W 3347   2.433   9.508  11.480
30280W        W 3348  37.126  34.126   0.362
30281W        W 3349   4.807   8.400   4.144
30282W        W 3350  37.408  36.516   5.025
30283W        W 3351  19.278  31.691   1.182
30284W        W 3352  39.215  27.107   5.101
30285W        W 3353  14.732   8.128  11.726
30286W        W 3354  43.190  31.978  13.342
30287W        W 3355  43.300  21.257  13.307
30288W        W 3356  19.801   4.215   2.713
30289W        W 3357  20.553  31.662   4.526
30290W        W 3358   9.923  38.785   2.786
30291W        W 3359  19.537  14.044   4.468
30292W        W 3360  21.773   1.439   4.315
30293W        W 3361  25.730  31.582  12.534
30294W        W 3362  14.001  15.032  13.741
30295W        W 3363  16.739   4.339  12.186
30296W        W 3364  32.666  15.760  10.190
30297W        W 3365  14.339   4.821   2.323
30298W        W 3366  44.507  34.392  14.579
30299W        W 3367  13.348   8.231   0.964
30300W        W 3368  19.302  37.814  11.893
30301W        W 3369  28.436  44.923  10.383
30302W        W 3370  31.972  18.563   0.697
30303W        W 3371   1.273  42.192   2.689
30304W        W 3372   6.921  29.390  12.062
30305W        W 3373   4.217   9.584   3.543
30306W        W 3374  19.513  38.989  14.916
30307W        W 3375  14.146   8.386   3.674
30308W        W 3376  14.156  29.003   2.651
30309W        W 3377  12.775   5.973   4.641
30310W        W 3378  15.755  25.016  13.110
30311W        W 3379  10.814  43.263   4.580
30312W        W 3380   1.235  21.061  10.716
30313W        W 3381  38.226  15.608   3.645
30314W        W 3382   6.887  32.947   4.211
30315W        W 3383   0.958   4.618  14.825
30316W        W 3384  40.327  31.255   1.916
30317W        W 3385  28.932  42.157  12.194
30318W        W 3386  23.581  10.287   3.426
30319W        W 3387  34.854   4.140  13.468
30320W        W 3388  15.903  25.136   4.236
30321W        W 3389   7.146  35.410   3.802
30322W        W 3390  40.023  11.390   4.477
30323W        W 3391  15.366   2.394   4.132
30324W        W 3392  27.230  29.356   1.472
30325W        W 3393   3.268  35.341   5.133
30326W        W 3394  35.160  27.439   3.375
30327W        W 3395  15.607  14.701  12.012
30328W        W 3396   0.743  22.857  12.835
30329W        W 3397  36.138  28.960   1.353
30330W        W 3398  19.723  24.128  11.047
30331W        W 3399  34.177  42.622   2.911
30332W        W 3400  11.122  16.720   1.847
30333W        W 3401  14.007  26.495   1.920
30334W        W 3402   4.697  18.608   2.610
30335W        W 3403  32.482  29.504   0.325
30336W        W 3404   3.360  34.902   1.379
30337W        W 3405  41.085  35.332  12.483
30338W        W 3406  25.832  27.533   4.322
30339W        W 3407  36.445  44.984   3.499
30340W        W 3408  17.795  26.236   0.908
30341W        W 3409  43.453  16.568   2.140
30342W        W 3410   9.392  26.448   4.098
30343W        W 3411   8.195  13.637  12.894
30344W        W 3412  43.869   7.199  10.571
30345W        W 3413  11.034   2.413  10.714
30346W        W 3414  30.895  38.576  11.498
30347W        W 3415  23.092   7.109   0.464
30348W        W 3416  41.691  26.031  11.685
30349W        W 3417  27.249  20.870   1.008
30350W        W 3418  42.942  28.978  13.931
30351W        W 3419  22.999  33.105  14.300
30352W        W 3420  39.429  34.656   0.533
30353W        W 3421  25.047  23.030  13.283
30354W        W 3422  20.079  11.716  10.918
30355W        W 3423   6.347  10.404  11.920
30356W        W 3424   0.977   9.450  14.506
30357W        W 3425  24.186   9.752   3.147
30358W        W 3426  22.422  12.776   3.707
30359W        W 3427   8.175  34.813  10.794
30360W        W 3428  12.092  17.138  11.037
30361W        W 3429  20.680  38.562   3.663
30362W        W 3430  31.865   7.165  10.376
30363W        W 3431   4.888  42.740   1.812
30364W        W 3432  35.916  29.097   4.706
30365W        W 3433  22.492  37.371  10.384
30366W        W 3434  19.198  27.056  11.568
30367W        W 3435  26.162   2.806   0.188
30368W        W 3436  11.429  10.154   4.590
30369W        W 3437  14.550  43.505  13.928
30370W        W 3438  27.030  33.651  13.398
30371W        W 3439  37.089  38.053   1.432
30372W        W 3440  12.125  18.824  10.337
30373W        W 3441  33.329  17.557   4.167
30374W        W 3442  41.894   9.759   2.850
30375W        W 3443  32.379  43.766   4.625
30376W        W 3444  24.032  40.051   2.745
30377W        W 3445  38.830  31.960   3.272
30378W        W 3446  44.871  31.634  11.850
30379W        W 3447  11.224  38.754  13.146
30380W        W 3448  20.658  13.302   0.986
30381W        W 3449   7.214  14.169  14.980
30382W        W 3450  41.025  28.673   3.143
30383W        W 3451  43.438   5.812   2.092
30384W        W 3452  28.190  40.033   5.011
30385W        W 3453   5.131  16.841   2.830
30386W        W 3454  10.171  44.383   3.723
30387W        W 3455   3.711   7.977  14.916
30388W        W 3456  22.088  11.868  14.798
30389W        W 3457  38.775  31.936  14.940
30390W        W 3458  18.985  32.401  11.394
30391W        W 3459  41.984  19.779   0.268
30392W        W 3460  23.636   8.438  11.651
30393W        W 3461   8.726  37.081  14.967
30394W        W 3462  34.330  44.867   1.847
30395W        W 3463  14.372  40.988   4.687
30396W        W 3464  30.930   1.835  14.386
30397W        W 3465  27.488  12.228  11.135
30398W        W 3466  10.103  40.117  10.942
30399W        W 3467   2.291   2.540   1.400
30400W        W 3468   8.224  16.603  11.082
30401W        W 3469   5.293  22.662  12.899
30402W        W 3470  37.033   7.088  11.494
30403W        W 3471  33.592  36.861   4.323
30404W        W 3472   8.708   9.772   4.741
30405W        W 3473  21.643   7.004   3.168
30406W        W 3474  15.696   3.180   1.441
30407W        W 3475   0.046  37.096  13.995
30408W        W 3476   5.969  13.578  11.944
30409W        W 3477  24.190  12.392  14.796
30410W        W 3478   7.997  10.637   3.232
30411W        W 3479  18.537  35.485   4.516
30412W        W 3480  32.354  14.735  11.110
30413W        W 3481  12.763   2.956   3.834
30414W        W 3482  11.755   9.537   3.295
30415W        W 3483   4.462   8.836  14.466
30416W        W 3484   7.482   4.158   3.677
30417W        W 3485  29.397  10.151   2.762
30418W        W 3486  35.556  28.014   0.483
30419W        W 3487  36.376  35.894   1.195
30420W        W 3488  33.660  35.145  12.996
30421W        W 3489   5.831  19.533   3.865
30422W        W 3490   2.839  39.427  12.496
30423W        W 3491  41.414  12.653  10.759
30424W        W 3492   3.973  16.905   3.251
30425W        W 3493   2.997  28.280  13.043
30426W        W 3494   0.064  35.659   2.417
30427W        W 3495  43.320  36.135  12.884
30428W        W 3496  20.569  21.830  13.110
30429W        W 3497   0.501   6.330  11.937
30430W        W 3498  35.490  12.841  10.719
30431W        W 3499   1.910  19.852  11.897
30432W        W 3500  36.999  11.437   0.765
30433W        W 3501  10.592   2.398   3.870
30434W        W 3502  17.808  22.006   0.300
30435W        W 3503  26.019  12.543   4.249
30436W        W 3504  32.606  13.330  14.720
30437W        W 3505  15.661  24.853   3.286
30438W        W 3506  11.178  43.416  10.678
30439W        W 3507   7.834  33.200   1.637
30440W        W 3508  44.289  33.096   0.335
30441W        W 3509  39.574  23.207   4.274
30442W        W 3510   1.776   0.387  10.954
30443W        W 3511  33.334  18.995   2.377
30444W        W 3512  22.526  24.687  11.015
30445W        W 3513  22.270  19.797  11.038
30446W        W 3514   2.773   9.171  12.101
30447W        W 3515  34.644  33.103   1.907
30448W        W 3516  30.667  34.463  12.040
30449W        W 3517   9.297  42.869  12.994
30450W        W 3518  40.810  41.455   3.212
30451W        W 3519  32.828  22.486   4.096
30452W        W 3520  32.233  20.165   3.660
30453W        W 3521  23.935   5.490   4.704
30454W        W 3522  21.992  42.773   2.486
30455W        W 3523   5.841   7.987  11.929
30456W        W 3524  36.138  15.290  12.503
30457W        W 3525  22.777  26.054   0.184
30458W        W 3526  29.969   1.979  10.431
30459W        W 3527  15.671  22.436  10.558
30460W        W 3528  16.692  28.014  13.753
30461W        W 3529   4.304   7.683   3.518
30462W        W 3530  16.222   8.853  12.612
30463W        W 3531  34.376  25.244  13.602
30464W        W 3532  30.271  26.419  11.686
30465W        W 3533  13.486  33.379  13.776
30466W        W 3534   1.727   9.287   3.714
30467W        W 3535  33.008  34.530   1.432
30468W        W 3536  20.515   4.194  13.444
30469W        W 3537   4.444  37.835   1.739
30470W        W 3538  44.418   1.282   3.289
30471W        W 3539  14.246  34.935  12.568
30472W        W 3540  29.273  10.244  12.392
30473W        W 3541  31.116   3.655  13.965
30474W        W 3542   3.779   3.386   3.210
30475W        W 3543   4.199   1.411  12.145
30476W        W 3544   3.873  10.712  10.623
30477W        W 3545  44.969   9.341  12.064
30478W        W 3546  11.234  35.312   0.264
30479W        W 3547  16.779  28.076   0.271
30480W        W 3548  17.733  13.543  10.680
30481W        W 3549   6.652  10.181   4.368
30482W        W 3550  29.205   1.556  13.966
30483W        W 3551  35.802  23.300  12.844
30484W        W 3552   2.688  33.970   0.551
30485W        W 3553  34.596  29.986  14.522
30486W        W 3554   6.907  15.132   0.493
30487W        W 3555  19.386   9.706  12.834
30488W        W 3556  16.039  18.236   3.188
30489W        W 3557   7.206  16.027   0.981
30490W        W 3558  25.569  37.333  13.239
30491W        W 3559  11.290  15.718  14.771
30492W        W 3560  32.860  11.465   0.383
30493W        W 3561  30.087  20.240  10.607
30494W        W 3562  12.583  32.979  11.631
30495W        W 3563  15.539  12.903   5.079
30496W        W 3564  15.020  33.090   1.206
30497W        W 3565  11.240  33.638   2.005
30498W        W 3566  35.438   5.912   2.675
30499W        W 3567   4.378   8.820   0.447
30500W        W 3568  15.630   3.423   2.391
30501W        W 3569  23.738  35.375  14.773
30502W        W 3570   0.048   5.438   4.540
30503W        W 3571  40.272  18.800   3.673
30504W        W 3572  26.612  41.907   1.629
30505W        W 3573  35.669  30.120  12.980
30506W        W 3574  21.463  33.381  14.537
30507W        W 3575   1.404  29.652  11.565
30508W        W 3576  30.151  11.946   3.738
30509W        W 3577  12.662   9.538   0.695
30510W        W 3578  35.276  26.678   3.772
30511W        W 3579  34.552  42.286  11.812
30512W        W 3580  42.333  33.523   4.590
30513W        W 3581  16.715  44.835   1.112
30514W        W 3582  29.388  20.434  14.786
30515W        W 3583   3.865  11.135   3.215
30516W        W 3584  37.541  41.879  14.450
30517W        W 3585  37.739  20.309   2.935
30518W        W 3586  41.626  28.619  13.349
30519W        W 3587   8.576   2.799  12.819
30520W        W 3588   6.374  21.691   0.299
30521W        W 3589  34.934  31.012  13.396
30522W        W 3590  27.585  32.431   4.095
30523W        W 3591  34.427  37.805  14.218
30524W        W 3592  12.061  39.080   2.023
30525W        W 3593  25.660   5.129   2.756
30526W        W 3594  29.723  26.640   5.213
30527W        W 3595  37.505  43.367   1.724
30528W        W 3596   0.033   8.239   2.661
30529W        W 3597  30.114   1.889  10.927
30530W        W 3598  18.769  10.487   3.223
30531W        W 3599  29.638  38.440   0.552
30532W        W 3600  27.578  34.135   4.591
30533W        W 3601  13.664  43.398  11.527
30534W        W 3602  23.050  11.681  12.047
30535W        W 3603   0.289  18.501  14.285
30536W        W 3604  10.224  11.790   5.050
30537W        W 3605  15.712   1.814   0.546
30538W        W 3606  40.650   4.191   4.393
30539W        W 3607  15.116  40.782   4.172
30540W        W 3608  31.653   2.123   4.273
30541W        W 3609  32.845  14.738  12.612
30542W        W 3610   4.390  34.800  13.861
30543W        W 3611  39.465   9.711   3.335
30544W        W 3612  28.366  31.657  11.598
30545W        W 3613  25.599   5.296  14.673
30546W        W 3614  11.828  38.321  14.309
30547W        W 3615  25.956  17.553   3.870
30548W        W 3616  19.080  14.147   1.319
30549W        W 3617  39.326   2.112   3.886
30550W        W 3618  39.975  34.144  14.985
30551W        W 3619   4.341  17.079   2.676
30552W        W 3620   9.745  10.455  12.299
30553W        W 3621  28.253  41.600   3.677
30554W        W 3622   8.506  37.583  13.912
30555W        W 3623  23.201  19.021  13.075
30556W        W 3624  17.046  26.181   3.581
30557W        W 3625  10.797  34.660   3.712
30558W        W 3626   4.820  35.512   3.206
30559W        W 3627  43.007  16.798  11.162
30560W        W 3628  24.986  15.882  10.680
30561W        W 3629  12.020  25.517  10.686
30562W        W 3630  36.242  34.656  14.801
30563W        W 3631  21.694  41.526  12.554
30564W        W 3632  33.371  17.338  12.622
30565W        W 3633   6.661   2.224  11.173
30566W        W 3634  13.427  41.711  14.220
30567W        W 3635   0.958  42.855   0.945
30568W        W 3636  27.106  18.297  12.884
30569W        W 3637  32.663   1.980   4.170
30570W        W 3638  39.948  23.553  11.744
30571W        W 3639  11.147  19.220  13.467
30572W        W 3640  40.212  24.315   4.460
30573W        W 3641   1.301  26.058  14.415
30574W        W 3642  25.227  28.137  14.274
30575W        W 3643  30.585  30.940   3.703
30576W        W 3644  20.711  28.038   4.772
30577W        W 3645  41.326   5.388   5.145
30578W        W 3646  13.742   6.962  11.146
30579W        W 3647  30.604  30.969   3.193
30580W        W 3648  44.602  34.087   0.199
30581W        W 3649  38.613  12.389  14.838
30582W        W 3650  33.643  38.485   9.777
30583W        W 3651  33.203  10.277   2.238
30584W        W 3652  25.659  17.855  12.885
30585W        W 3653  23.410  21.629  12.472
30586W        W 3654  32.171  13.370   2.226
30587W        W 3655   8.898  21.740   1.249
30588W        W 3656  10.900   7.376  14.333
30589W        W 3657  21.571   8.478   4.759
30590W        W 3658  36.044   3.807  11.923
30591W        W 3659   5.845  26.505   0.797
30592W        W 3660  26.203  28.594  12.910
30593W        W 3661   5.482  20.466  14.408
30594W        W 3662  15.389  37.991  13.806
30595W        W 3663  33.674   6.536   4.025
30596W        W 3664  21.069  15.074   4.492
30597W        W 3665  28.580  34.440  13.434
30598W        W 3666  20.183  19.177   4.534
30599W        W 3667  26.473  25.252  11.764
30600W        W 3668  21.605  14.219   4.682
30601W        W 3669  30.871  28.635  14.998
30602W        W 3670   3.725   8.491  14.844
30603W        W 3671  17.212  11.995  13.902
30604W        W 3672   0.008  34.665  12.532
30605W        W 3673  28.582  40.296   4.762
30606W        W 3674  13.856  42.008   2.461
30607W        W 3675  35.623  21.105  10.736
30608W        W 3676  32.966   9.381  12.901
30609W        W 3677   1.356  40.769  12.311
30610W        W 3678  35.770  39.109  11.107
30611W        W 3679   2.936  31.051  11.995
30612W        W 3680   6.157  34.125   3.418
30613W        W 3681  30.088  28.110  13.981
30614W        W 3682  20.966  24.963  10.745
30615W        W 3683  33.985   1.115   3.912
30616W        W 3684  23.315  18.752  12.484
30617W        W 3685  21.595  28.164   0.237
30618W        W 3686  19.532   6.632   2.750
30619W        W 3687  12.573  40.799  14.269
30620W        W 3688  38.992  28.948  14.885
30621W        W 3689  25.671  24.217   1.355
30622W        W 3690   9.349  33.627  13.393
30623W        W 3691  29.567  12.892  14.087
30624W        W 3692   8.892  11.498  11.177
30625W        W 3693   3.279  11.133   2.772
30626W        W 3694  29.151   0.338   4.245
30627W        W 3695  34.551   1.444  13.272
30628W        W 3696  15.018  29.929  11.559
30629W        W 3697  14.702  16.101   2.656
30630W        W 3698  12.831  44.872   1.921
30631W        W 3699  42.781   0.169  10.979
30632W        W 3700  18.522  12.475  13.528
30633W        W 3701  12.995  42.041  13.842
30634W        W 3702   8.428   1.045  14.912
30635W        W 3703  20.271   6.816   1.396
30636W        W 3704  34.835  35.486   0.423
30637W        W 3705  27.571  31.448   4.575
30638W        W 3706  35.833  18.638   4.527
30639W        W 3707  43.185  25.354   0.794
30640W        W 3708  39.039   7.681  14.021
30641W        W 3709  29.508  36.105  12.024
30642W        W 3710  36.409  30.430  11.908
30643W        W 3711  16.290  30.933   1.306
30644W        W 3712  12.035  37.020  13.982
30645W        W 3713   7.247  16.053   2.879
30646W        W 3714   5.669  23.688   2.149
30647W        W 3715   9.896  15.707  10.648
30648W        W 3716  16.919  14.252   4.611
30649W        W 3717   4.419  28.642  12.196
30650W        W 3718  17.272  10.795   2.245
30651W        W 3719   7.158  18.993  14.442
30652W        W 3720   3.292  33.958  11.596
30653W        W 3721  26.599  18.186   3.689
30654W        W 3722  13.973  25.407   0.218
30655W        W 3723  27.934  32.952   3.070
30656W        W 3724   1.359  18.550   0.466
30657W        W 3725   2.307  31.598   1.822
30658W        W 3726  13.082  34.573   1.595
30659W        W 3727  35.502   3.466  13.010
30660W        W 3728  42.051   5.857   1.528
30661W        W 3729   9.859  22.018   2.144
30662W        W 3730  14.303  32.028   1.695
30663W        W 3731  21.018  15.602  12.146
30664W        W 3732  28.424  23.321  12.377
30665W        W 3733  10.850  31.109  11.614
30666W        W 3734  31.411  35.396   1.284
30667W        W 3735  29.912   5.563   2.310
30668W        W 3736  40.331   9.652  10.554
30669W        W 3737  22.196  28.707   0.971
30670W        W 3738   9.166  10.597  14.772
30671W        W 3739  33.444  23.630  14.878
30672W        W 3740  44.455  38.454  10.620
30673W        W 3741   5.392   2.488  11.171
30674W        W 3742  31.650   9.382   4.099
30675W        W 3743   3.645  27.007  13.029
30676W        W 3744  39.555  26.529  11.910
30677W        W 3745  12.182  40.755  14.997
30678W        W 3746   8.325  23.089  11.843
30679W        W 3747  41.754   1.815  13.915
30680W        W 3748  12.586  13.816   3.238
30681W        W 3749   5.803  20.640   2.318
30682W        W 3750  38.814  30.548   3.287
30683W        W 3751  19.127  39.417  14.092
30684W        W 3752  44.410  38.343   0.317
30685W        W 3753  30.120  31.395  11.626
30686W        W 3754   3.205  14.381   4.156
30687W        W 3755  17.649  11.805   3.762
30688W        W 3756  29.998   6.011  11.949
30689W        W 3757  21.866  33.808   2.785
30690W        W 3758   7.409   8.099  11.654
30691W        W 3759  20.544  14.816   3.019
30692W        W 3760  17.217  26.194   0.195
30693W        W 3761   3.763   6.776   4.671
30694W        W 3762   3.205  11.766  14.072
30695W        W 3763  40.980  26.467   4.736
30696W        W 3764  24.457  38.290   3.603
30697W        W 3765  10.415   7.812  14.239
30698W        W 3766  40.112  20.447  13.859
30699W        W 3767   9.711  36.101   4.806
30700W        W 3768  42.939  30.112  14.947
30701W        W 3769  13.372   9.838  10.733
30702W        W 3770  31.231  25.151  14.719
30703W        W 3771  18.089  33.552   1.701
30704W        W 3772  34.524  15.199   4.763
30705W        W 3773  38.005  42.315  10.743
30706W        W 3774  20.052  29.910   2.704
30707W        W 3775  18.981  17.107  12.024
30708W        W 3776  42.879  14.161   0.291
30709W        W 3777   3.958  10.385  14.991
30710W        W 3778  33.410  29.169  11.052
30711W        W 3779   2.756   4.335   3.253
30712W        W 3780  38.511   2.163   3.618
30713W        W 3781   1.820  17.248  10.683
30714W        W 3782  31.196  29.062  11.073
30715W        W 3783  39.399  39.959   0.861
30716W        W 3784  13.638  43.096  11.945
30717W        W 3785  11.323  36.981   1.765
30718W        W 3786  20.625  32.180   2.623
30719W        W 3787  12.165  20.218  14.987
30720W        W 3788  38.839  12.842  14.970
30721W        W 3789  10.186  42.579  11.969
30722W        W 3790  21.660   6.288  11.233
30723W        W 3791  42.492   4.941   0.268
30724W        W 3792  36.031  39.425   3.938
30725W        W 3793   4.325  21.667   4.104
30726W        W 3794   2.021  23.828   2.855
30727W        W 3795  16.866  34.170  11.074
30728W        W 3796  31.636  16.811   4.789
30729W        W 3797  21.500   9.432  12.223
30730W        W 3798   1.647  27.965   4.069
30731W        W 3799  17.556  29.072   4.458
30732W        W 3800   9.386  21.777  11.130
30733W        W 3801  21.675  23.740  14.514
30734W        W 3802  19.122  39.510  13.595
30735W        W 3803  12.647   2.466   3.707
30736W        W 3804   9.447  13.306   3.238
30737W        W 3805  14.843  23.778   1.559
30738W        W 3806  30.100  15.393  13.520
30739W        W 3807  26.458   5.949  10.756
30740W        W 3808  24.007  33.412  12.617
30741W        W 3809  15.212  20.283  14.851
30742W        W 3810   8.455  29.646  11.264
30743W        W 3811  37.625  16.850   3.181
30744W        W 3812  41.849  14.146   4.169
30745W        W 3813  20.281  20.619   0.308
30746W        W 3814   3.947  12.740  10.135
30747W        W 3815   8.377  20.295   4.858
30748W        W 3816  28.461  37.539  11.137
30749W        W 3817  32.083  29.632  14.394
30750W        W 3818  30.625  29.902   0.158
30751W        W 3819  17.331  23.266   4.372
30752W        W 3820  11.234  17.886  11.084
30753W        W 3821   0.710  12.133  14.958
30754W        W 3822  12.714  38.316   1.774
30755W        W 3823  30.596  31.169  13.107
30756W        W 3824   3.766  24.641   0.534
30757W        W 3825   6.150   5.979   1.809
30758W        W 3826  36.196  44.746  12.401
30759W        W 3827  31.468  29.658   2.747
30760W        W 3828  42.682  27.897   1.317
30761W        W 3829  22.203   1.688  12.564
30762W        W 3830  42.329  42.931   2.013
30763W        W 3831  33.621  18.615  14.765
30764W        W 3832  17.605   9.517  13.309
30765W        W 3833  17.881  19.180   1.496
30766W        W 3834   9.604  38.499  13.928
30767W        W 3835  30.911   4.797  14.919
30768W        W 3836   7.987   9.144   3.890
30769W        W 3837  25.445  30.617   1.742
30770W        W 3838  36.559   9.313   3.146
30771W        W 3839  17.284  18.608  13.822
30772W        W 3840  36.819  37.007   1.274
30773W        W 3841  37.907  18.656   4.754
30774W        W 3842  15.136  18.630  14.740
30775W        W 3843   9.817  43.813   4.581
30776W        W 3844   6.475   6.102  13.066
30777W        W 3845  18.350  13.111  12.316
30778W        W 3846  27.712   3.390   1.838
30779W        W 3847   4.358  10.056   3.752
30780W        W 3848  37.858  11.101   3.257
30781W        W 3849  42.273   1.938  13.975
30782W        W 3850  10.186  25.677   3.231
30783W        W 3851  42.995   0.383   2.319
30784W        W 3852  21.634   0.379   2.577
30785W        W 3853  14.542  29.588  12.076
30786W        W 3854  34.851  44.632   4.052
30787W        W 3855  40.233  16.143  14.106
30788W        W 3856  25.530   9.430   0.868
30789W        W 3857  17.543   4.821  10.834
30790W        W 3858  41.810  17.274  10.109
30791W        W 3859  11.892  16.825   9.723
30792W        W 3860   3.878  39.923  11.644
30793W        W 3861  13.423  10.288  11.310
30794W        W 3862  31.546  26.216  11.487
30795W        W 3863  10.297  19.120   5.366
30796W        W 3864  37.595  28.434  11.527
30797W        W 3865   7.869  30.171   1.927
30798W        W 3866  43.972  44.347   0.833
30799W        W 3867  25.957  35.359  14.798
30800W        W 3868  32.926  14.523  14.400
30801W        W 3869   4.776  34.947   3.721
30802W        W 3870  34.139  43.951   2.760
30803W        W 3871   0.843  22.233   4.803
30804W        W 3872  28.405  43.820  13.470
30805W        W 3873  42.871   1.697   3.858
30806W        W 3874  15.359  34.657   2.776
30807W        W 3875   7.205  24.589   0.875
30808W        W 3876   8.618   7.511   1.247
30809W        W 3877  27.070  40.497   3.895
30810W        W 3878  26.160  24.484   2.117
30811W        W 3879  32.635  20.396   2.955
30812W        W 3880  26.574  44.263  11.958
30813W        W 3881  26.997  23.960  12.517
30814W        W 3882  11.264  25.484  14.276
30815W        W 3883  34.580   7.711   1.962
30816W        W 3884  43.470  21.054   3.863
30817W        W 3885  11.046  21.179   5.080
30818W        W 3886  20.870  20.887   0.909
30819W        W 3887   0.771  20.584   3.340
30820W        W 3888  15.121  36.106   2.201
30821W        W 3889   5.483  42.237  14.467
30822W        W 3890   3.448  24.752   2.304
30823W        W 3891  18.230  37.162   2.597
30824W        W 3892   7.428  11.131  12.470
30825W        W 3893  24.595  42.245   3.823
30826W        W 3894  41.301  11.563   2.328
30827W        W 3895  32.874  40.265   0.916
30828W        W 3896   5.620   0.110   0.473
30829W        W 3897   5.316  38.228   1.382
30830W        W 3898  26.171  23.192   1.186
30831W        W 3899   3.321  16.806  13.367
30832W        W 3900  35.906  14.356   3.295
30833W        W 3901  38.366  15.688  10.240
30834W        W 3902  11.810  29.401  11.869
30835W        W 3903  34.813   2.197   4.167
30836W        W 3904  23.433  15.866   0.415
30837W        W 3905  15.319   4.892   2.675
30838W        W 3906  12.367  34.827   0.902
30839W        W 3907  24.638  35.473   1.903
30840W        W 3908  23.740  39.736  14.817
30841W        W 3909  13.748   3.892  14.306
30842W        W 3910  42.047   6.933  12.902
30843W        W 3911  30.834  43.512  10.816
30844W        W 3912  40.765  42.087   2.335
30845W        W 3913  37.829  23.013   4.211
30846W        W 3914  41.393   9.488   4.335
30847W        W 3915  33.852  42.769   1.353
30848W        W 3916  39.948  20.827  12.118
30849W        W 3917  44.591  38.925   0.884
30850W        W 3918  13.364   2.300  14.796
30851W        W 3919  12.462  21.526  13.040
30852W        W 3920   3.262  28.926   0.756
30853W        W 3921   2.076  28.131  13.225
30854W        W 3922   6.685  18.978   4.288
30855W        W 3923  27.760   2.320   1.402
30856W        W 3924  13.691  10.135   3.150
30857W        W 3925  24.491  17.598   3.195
30858W        W 3926   3.536  29.208   0.305
30859W        W 3927   3.471  31.573  12.305
30860W        W 3928   1.383  38.306  11.161
30861W        W 3929  16.672  12.079   3.265
30862W        W 3930  10.867  41.370   2.994
30863W        W 3931  43.009  19.632   0.320
30864W        W 3932  41.834   0.973  10.545
30865W        W 3933  20.489  21.620  13.589
30866W        W 3934  42.740  42.318   2.870
30867W        W 3935  39.482  41.447   3.283
30868W        W 3936   8.938   0.775  13.810
30869W        W 3937  21.200  28.741   1.906
30870W        W 3938   8.345   0.938   3.602
30871W        W 3939  44.908   0.582  11.739
30872W        W 3940   4.688  43.269   2.674
30873W        W 3941   1.752  44.579  13.530
30874W        W 3942  15.238  28.197  12.680
30875W        W 3943   4.323  36.797   2.208
30876W        W 3944  33.843  41.289   2.813
30877W        W 3945  41.711   5.390   4.804
30878W        W 3946  19.074   1.956   1.002
30879W        W 3947  15.651  20.004   2.328
30880W        W 3948  28.583  22.000   4.147
30881W        W 3949  10.176  33.097  13.571
30882W        W 3950  14.199  38.804  10.107
30883W        W 3951  44.095  39.332   1.366
30884W        W 3952  29.994  40.072   4.931
30885W        W 3953  11.592  42.087   4.474
30886W        W 3954  29.970  26.771  13.543
30887W        W 3955   8.903  38.384   2.314
30888W        W 3956  34.627   3.699   3.256
30889W        W 3957  24.896  34.600   1.989
30890W        W 3958  29.502  34.362   4.568
30891W        W 3959  15.376  44.412   2.713
30892W        W 3960   2.987  24.571  12.014
30893W        W 3961  16.591  15.539  11.525
30894W        W 3962  31.655  11.830  11.019
30895W        W 3963  15.008  20.221  13.578
30896W        W 3964  20.189   5.710   1.631
30897W        W 3965  23.056  32.888   1.418
30898W        W 3966  11.373   3.246  14.827
30899W        W 3967   7.981  37.123   1.419
30900W        W 3968  37.024  23.059   2.271
30901W        W 3969   6.313  31.005   0.717
30902W        W 3970   0.382  18.469   2.175
30903W        W 3971  25.268   9.632  14.855
30904W        W 3972  33.403  42.530  11.112
30905W        W 3973  35.118  42.071   4.554
30906W        W 3974  43.528  16.061  13.378
30907W        W 3975  44.498  44.389   0.826
30908W        W 3976  11.198  22.604   0.472
30909W        W 3977  11.675  18.247   1.798
30910W        W 3978  17.802  21.048   0.281
30911W        W 3979  28.066  36.898   2.859
30912W        W 3980  28.247  18.155   4.670
30913W        W 3981  24.910  11.256  10.152
30914W        W 3982  26.080  32.178   0.585
30915W        W 3983  18.093   0.388   1.744
30916W        W 3984   1.536  17.556  12.813
30917W        W 3985   2.493  44.716  13.949
30918W        W 3986  24.602   7.964   2.276
30919W        W 3987  37.957  13.563  11.166
30920W        W 3988  29.884  12.046   2.867
30921W        W 3989  44.942  44.850   4.318
30922W        W 3990  26.040  41.349   4.539
30923W        W 3991  36.344  27.727  11.981
30924W        W 3992   8.213  39.333  14.342
30925W        W 3993  35.038  42.964   0.868
30926W        W 3994  13.797  17.186   4.758
30927W        W 3995  29.174  38.295   0.321
30928W        W 3996   0.976  34.549   1.300
30929W        W 3997   6.357  16.728   4.515
30930W        W 3998  10.170  18.025   0.959
30931W        W 3999  37.544  12.572   2.190
30932W        W 4000  44.489  36.978   3.580
30933W        W 4001  32.068  17.873  11.193
30934W        W 4002   2.788   0.233   3.692
30935W        W 4003   9.412  27.473   0.795
30936W        W 4004  33.070   8.664   3.653
30937W        W 4005  14.721  36.395  12.009
30938W        W 4006   6.777   1.728   2.808
30939W        W 4007  17.847   1.444   4.601
30940W        W 4008  39.209  19.833   3.955
30941W        W 4009  44.401  37.948   9.958
30942W        W 4010  24.165  14.119  11.745
30943W        W 4011  22.953  34.104  13.782
30944W        W 4012  34.390  35.070  14.010
30945W        W 4013  38.398   2.849  13.400
30946W        W 4014   8.423  19.114  11.948
30947W        W 4015  33.606  22.458  11.932
30948W        W 4016   5.225  25.259  14.429
30949W        W 4017   4.730   9.924   4.122
30950W        W 4018  17.536  16.204   2.647
30951W        W 4019  24.086   0.486   3.702
30952W        W 4020  42.429  37.582   0.030
30953W        W 4021   1.043  13.345   2.793
30954W        W 4022  34.328  34.578   0.866
30955W        W 4023  42.743  31.629  10.984
30956W        W 4024   5.465   2.368  13.981
30957W        W 4025  38.052  24.197   1.230
30958W        W 4026  35.772   2.438   0.463
30959W        W 4027  37.308  41.501   3.718
30960W        W 4028  38.788  41.858   4.609
30961W        W 4029  19.721   5.541   1.842
30962W        W 4030  24.430  34.829  14.674
30963W        W 4031  27.370  42.807   0.241
30964W        W 4032  22.223  40.883   3.323
30965W        W 4033  23.979  15.660   0.406
30966W        W 4034  29.154  39.352  11.048
30967W        W 4035  34.555  18.234  14.037
30968W        W 4036  13.130  11.901   4.075
30969W        W 4037  11.189  34.009   2.374
30970W        W 4038  17.632  35.146  14.018
30971W        W 4039   4.484   8.330  14.714
30972W        W 4040   7.223  11.081   3.538
30973W        W 4041   4.327   0.376   1.720
30974W        W 4042  19.227  29.408   0.697
30975W        W 4043  41.221  28.115   2.473
30976W        W 4044  35.992   8.181   2.793
30977W        W 4045  11.461  44.539  13.838
30978W        W 4046  31.665  37.426  10.497
30979W        W 4047  23.506  37.175   3.149
30980W        W 4048  18.472  10.950  11.568
30981W        W 4049  10.233  23.658  12.424
30982W        W 4050  15.806  13.585   3.721
30983W        W 4051  19.780   6.814   3.318
30984W        W 4052  28.416  37.874   4.307
30985W        W 4053  15.180  15.827  10.979
30986W        W 4054  42.188  25.093   0.386
30987W        W 4055  42.516  19.814   2.959
30988W        W 4056  12.357  41.591  13.230
30989W        W 4057  17.308  38.843  14.805
30990W        W 4058  26.995  38.448  14.967
30991W        W 4059  37.847   8.338   3.745
30992W        W 4060   8.642   4.156   0.818
30993W        W 4061  36.060  13.078  11.697
30994W        W 4062  44.676  38.966   2.716
30995W        W 4063  19.183   1.371  12.602
30996W        W 4064  20.220  32.489   1.834
30997W        W 4065  25.474  15.988   3.141
30998W        W 4066  36.274  11.743  12.014
30999W        W 4067  13.120  10.153  10.351
31000W        W 4068  38.915  34.098   1.868
31001W        W 4069   3.319  38.583   1.930
31002W        W 4070  21.136  36.605  13.410
31003W        W 4071  17.464  40.983  13.533
31004W        W 4072  36.150  17.599   3.680
31005W        W 4073   3.681  32.210   3.668
31006W        W 4074   7.844  37.906   4.219
31007W        W 4075  41.505  10.229   0.436
31008W        W 4076  29.187   4.334   0.395
31009W        W 4077  17.613  28.545   4.188
31010W        W 4078  16.344  19.096  11.161
31011W        W 4079  29.106   5.703  12.033
31012W        W 4080  19.168  23.453  12.546
31013W        W 4081   0.680   6.902  10.781
31014W        W 4082  43.965  28.645  12.472
31015W        W 4083  24.531   5.149  11.101
31016W        W 4084   0.427   7.244  12.518
31017W        W 4085  21.554  10.858   4.199
31018W        W 4086  28.983   8.469  13.499
31019W        W 4087  43.855  31.380  12.116
31020W        W 4088  24.756   7.511  14.440
31021W        W 4089  26.116  14.163   1.869
31022W        W 4090   3.961   0.247   0.775
31023W        W 4091  12.679   2.799   4.309
31024W        W 4092  40.404  30.840  11.620
31025W        W 4093  11.802  22.240  12.946
31026W        W 4094  30.228  36.996  11.527
31027W        W 4095  43.294  44.753  10.655
31028W        W 4096  40.787  10.425  12.275
31029W        W 4097   5.386   7.262  14.491
31030W        W 4098  26.706   9.426   4.621
31031W        W 4099  42.926  32.434  11.172
31032W        W 4100  33.366  33.486   0.774
31033W        W 4101  37.909  28.411  11.118
31034W        W 4102  26.715  39.400  12.504
31035W        W 4103  36.924  24.159  14.792
31036W        W 4104  38.071  33.155   0.370
31037W        W 4105  12.815  36.580   3.578
31038W        W 4106  33.100  20.837   0.389
31039W        W 4107  17.391  28.253   0.872
31040W        W 4108  37.726  33.438  10.653
31041W        W 4109  15.942  11.607   4.584
31042W        W 4110  14.148   5.243   3.122
31043W        W 4111  24.009  40.438  12.532
31044W        W 4112  14.146  32.630   4.421
31045W        W 4113  18.529  30.029  12.456
31046W        W 4114  36.614   6.398  14.292
31047W        W 4115  17.744  42.788  11.184
31048W        W 4116   6.800  25.481  14.292
31049W        W 4117  29.650  43.086  10.697
31050W        W 4118  16.798  32.210  12.934
31051W        W 4119  11.695  34.722  10.267
31052W        W 4120  37.164  32.034  10.666
31053W        W 4121  31.060   6.648   4.508
31054W        W 4122  34.396   7.181   4.601
31055W        W 4123  15.225  13.663   2.336
31056W        W 4124   2.915  19.240   0.221
31057W        W 4125  35.961  33.676  14.387
31058W        W 4126  17.044  33.916  10.641
31059W        W 4127  36.189  31.199  10.236
31060W        W 4128  17.620  23.418  13.433
31061W        W 4129   7.508   8.717   2.529
31062W        W 4130  28.121   2.985   0.954
31063W        W 4131  42.733   4.246  11.069
31064W        W 4132  28.647   0.311  12.196
31065W        W 4133  20.594  10.843  11.566
31066W        W 4134   4.838   5.824  11.007
31067W        W 4135  44.569  13.783   0.757
31068W        W 4136  26.122  42.911   3.214
31069W        W 4137  40.853  23.714  10.369
31070W        W 4138  15.536  21.517   0.274
31071W        W 4139  19.417  38.397  13.959
31072W        W 4140  21.231  41.163  11.512
31073W        W 4141  37.657  32.912   1.163
31074W        W 4142  18.547  34.134   2.840
31075W        W 4143  32.793  21.363  12.003
31076W        W 4144  26.935  39.396  11.625
31077W        W 4145   2.579  12.186  12.482
31078W        W 4146   7.082  28.110   4.752
31079W        W 4147   5.758  39.932  13.491
31080W        W 4148   0.413  31.476  12.538
31081W        W 4149  40.112  29.942   3.255
31082W        W 4150  15.819   1.034   2.396
31083W        W 4151   9.431  25.579  11.843
31084W        W 4152  28.823  11.167   2.739
31085W        W 4153  21.989  17.538  11.728
31086W        W 4154  35.099   4.955  13.547
31087W        W 4155  40.533  35.709   4.669
31088W        W 4156   4.315  27.515   3.714
31089W        W 4157   4.118  33.083   4.804
31090W        W 4158  24.271  43.472   0.466
31091W        W 4159  16.311  40.411   2.628
31092W        W 4160   1.472  16.261  13.481
31093W        W 4161  15.837   9.116   3.175
31094W        W 4162  42.549   5.452   0.749
31095W        W 4163  33.608  44.349  12.030
31096W        W 4164   4.190  37.186  10.256
31097W        W 4165  32.360  33.324   1.632
31098W        W 4166  34.890  29.348  13.959
31099W        W 4167   4.901  24.185  14.855
31100W        W 4168  44.483  27.978   1.698
31101W        W 4169   9.826  41.920  13.520
31102W        W 4170  26.976  35.595   0.686
31103W        W 4171  40.923  10.129  13.266
31104W        W 4172  43.279  43.095  13.465
31105W        W 4173  21.511  30.855  11.078
31106W        W 4174  44.757  40.349  13.425
31107W        W 4175   7.681  23.635  14.767
31108W        W 4176  32.590  13.101  13.369
31109W        W 4177  42.636   2.841  12.143
31110W        W 4178  24.499  34.164   3.101
31111W        W 4179   5.547   7.027   2.963
31112W        W 4180  16.341   3.404  13.551
31113W        W 4181  36.624  31.993   0.609
31114W        W 4182   9.000  24.690  11.507
31115W        W 4183  18.660  32.703  11.870
31116W        W 4184  36.453  33.410   1.192
31117W        W 4185   0.757  13.765  11.609
31118W        W 4186  16.199  39.341  11.218
31119W        W 4187  36.862  10.295  11.846
31120W        W 4188  24.397   8.298   1.477
31121W        W 4189  44.902   2.959  13.381
31122W        W 4190  26.462  22.050   0.433
31123W        W 4191   3.185  11.586   3.737
31124W        W 4192  12.143  14.976   2.973
31125W        W 4193  19.185   3.741  12.308
31126W        W 4194  28.960  17.128   0.964
31127W        W 4195  23.151  38.404  13.600
31128W        W 4196   8.885  14.770   2.233
31129W        W 4197  38.488  27.013   1.521
31130W        W 4198  44.823  27.293   4.602
31131W        W 4199  18.485   3.326   5.040
31132W        W 4200   1.779  17.615   2.379
31133W        W 4201  26.640  20.251  12.993
31134W        W 4202  39.771   6.167   5.045
31135W        W 4203   0.364   1.670   2.300
31136W        W 4204   9.818  17.550   3.775
31137W        W 4205   4.986  15.052   2.350
31138W        W 4206  40.546   6.369  11.039
31139W        W 4207  35.312  39.554  13.421
31140W        W 4208  37.965  15.125  11.052
31141W        W 4209  27.155  16.294   0.496
31142W        W 4210  10.872   4.693   3.743
31143W        W 4211   3.254  25.464   2.822
31144W        W 4212  44.440  39.342   4.297
31145W        W 4213   7.866   5.861   1.210
31146W        W 4214  20.505  13.824  11.572
31147W        W 4215  33.707   1.247  14.455
31148W        W 4216  42.861  42.403  13.090
31149W        W 4217  21.301  31.968  13.835
31150W        W 4218  33.082   3.932  13.174
31151W        W 4219  10.581   4.904   3.347
31152W        W 4220  19.200   2.517   2.673
31153W        W 4221  22.567   8.616  12.447
31154W        W 4222   7.893  25.505   0.437
31155W        W 4223   1.385   4.379  12.717
31156W        W 4224  26.715  23.527  12.556
31157W        W 4225   2.336  42.576  13.533
31158W        W 4226  42.272  34.010   2.304
31159W        W 4227  25.465  11.639   5.411
31160W        W 4228  16.498  16.098  14.488
31161W        W 4229  36.162   8.857   3.306
31162W        W 4230   4.250  17.067   3.659
31163W        W 4231  15.306  41.581   3.922
31164W        W 4232   6.806  27.745   3.236
31165W        W 4233   2.836   5.630   0.506
31166W        W 4234  43.514  34.480   0.025
31167W        W 4235   0.067   7.276   4.238
31168W        W 4236  44.213  40.575   2.352
31169W        W 4237  44.701  17.059  10.687
31170W        W 4238  21.332  25.603   3.605
31171W        W 4239  20.048  41.362   4.559
31172W        W 4240   6.736  16.751   4.884
31173W        W 4241  18.258   2.438   1.114
31174W        W 4242  18.406  16.653  12.656
31175W        W 4243  12.145  21.790  10.610
31176W        W 4244  19.414  26.729  10.303
31177W        W 4245  25.360  22.701   2.352
31178W        W 4246  39.046  20.598   4.081
31179W        W 4247   0.352  12.295  12.875
31180W        W 4248   0.180  10.998  13.885
31181W        W 4249  12.211  28.688  11.675
31182W        W 4250  22.694  21.192   9.866
31183W        W 4251  20.760  20.150  11.549
31184W        W 4252  28.006  30.600  10.736
31185W        W 4253  35.429  23.063  13.572
31186W        W 4254  14.327  27.254   1.700
31187W        W 4255  13.269   9.786  12.109
31188W        W 4256  11.725  12.712  12.567
31189W        W 4257  24.990  43.369  14.665
31190W        W 4258  38.635   9.798   2.850
31191W        W 4259  19.703  14.313   5.155
31192W        W 4260  15.406  18.486   1.822
31193W        W 4261  24.892  27.510  13.107
31194W        W 4262  16.848   3.730   0.371
31195W        W 4263  36.206  21.873   0.548
31196W        W 4264  42.517  33.048   3.802
31197W        W 4265  19.808  15.790  13.287
31198W        W 4266  44.165  19.048  13.970
31199W        W 4267  28.434   1.324   3.313
31200W        W 4268   3.337  39.588   2.051
31201W        W 4269   9.484  11.470   5.060
31202W        W 4270   0.690  34.931   4.248
31203W        W 4271  18.583  31.166  13.024
31204W        W 4272  12.315  18.716   2.917
31205W        W 4273  44.719  26.271   3.507
31206W        W 4274  18.179  39.962  10.523
31207W        W 4275  44.027   1.136   2.202
31208W        W 4276  23.462  27.574   0.785
31209W        W 4277   3.191   3.241  11.524
31210W        W 4278  21.592  26.544  12.820
31211W        W 4279  42.953  34.187  14.353
31212W        W 4280  15.641  14.934   1.281
31213W        W 4281  32.135  39.555   3.873
31214W        W 4282  35.014   7.169   1.288
31215W        W 4283  16.744  31.696  10.734
31216W        W 4284  36.165   9.642   0.851
31217W        W 4285  38.935  20.001  10.481
31218W        W 4286   8.943   6.073  12.932
31219W        W 4287   0.263  28.956  14.881
31220W        W 4288   3.943   8.401   3.264
31221W        W 4289  11.905  24.577   1.052
31222W        W 4290  11.543  38.950  13.530
31223W        W 4291  15.726  16.286  14.004
31224W        W 4292  23.192  37.031   3.862
31225W        W 4293  38.555  19.612  12.099
31226W        W 4294   3.943   4.384   3.644
31227W        W 4295   0.754   9.368  14.973
31228W        W 4296  12.810  18.611  13.491
31229W        W 4297  33.723   5.635  11.166
31230W        W 4298  39.523   1.025   4.615
31231W        W 4299  35.583   7.972   3.317
31232W        W 4300   7.022  35.913  12.841
31233W        W 4301   0.295  35.972  13.987
31234W        W 4302   8.302  30.354  14.832
31235W        W 4303  13.678  13.775  14.449
31236W        W 4304  29.743  27.422   3.164
31237W        W 4305  15.577  27.178   3.165
31238W        W 4306  30.693  27.051   3.233
31239W        W 4307  33.769  24.150  13.806
31240W        W 4308  22.632   0.867  14.297
31241W        W 4309  17.802  11.848   0.923
31242W        W 4310   9.094   8.289  13.116
31243W        W 4311  19.032  18.338  12.541
31244W        W 4312  39.108  14.312  14.979
31245W        W 4313  18.550   0.288   3.333
31246W        W 4314  23.028  18.233  11.483
31247W        W 4315  21.161  14.603  11.417
31248W        W 4316  24.702  17.189   5.565
31249W        W 4317   3.046  12.321  11.467
31250W        W 4318  44.466  18.694  10.548
31251W        W 4319  44.715  24.681  12.338
31252W        W 4320  25.601  30.823  14.777
31253W        W 4321  28.361  20.194  11.143
31254W        W 4322   4.807  44.302   2.248
31255W        W 4323  14.775  37.553   3.886
31256W        W 4324   8.824   2.919   4.617
31257W        W 4325  10.457  34.365  13.896
31258W        W 4326  29.654  20.895   9.986
31259W        W 4327  40.682  29.065   3.264
31260W        W 4328  35.192  31.409  10.203
31261W        W 4329  39.934   5.941  14.939
31262W        W 4330  40.820   6.351  12.545
31263W        W 4331  18.354  17.960   2.799
31264W        W 4332  21.995   6.675  11.294
31265W        W 4333  43.729  40.742  14.675
31266W        W 4334   9.217  14.628  12.949
31267W        W 4335  13.216  18.231   1.469
31268W        W 4336  13.340  17.808   4.585
31269W        W 4337  25.028  30.912   4.156
31270W        W 4338   1.491  38.648   4.239
31271W        W 4339  35.886  29.123  13.584
31272W        W 4340  36.128  24.969  13.372
31273W        W 4341   4.690  24.774   0.609
31274W        W 4342  25.967  35.137  14.316
31275W        W 4343  20.001  33.228   0.562
31276W        W 4344  21.132  37.924   0.680
31277W        W 4345  36.332  12.371  13.547
31278W        W 4346  33.107   3.697   4.550
31279W        W 4347   5.346  37.991  14.443
31280W        W 4348   0.236  35.192  10.894
31281W        W 4349   6.396  25.625   0.445
31282W        W 4350  31.675  31.089   0.866
31283W        W 4351   8.923   1.196   0.198
31284W        W 4352  20.218  26.529  13.565
31285W        W 4353  15.354  29.185  11.980
31286W        W 4354  37.480  39.995  11.558
31287W        W 4355  23.021  10.382  14.759
31288W        W 4356   5.255  42.794   0.506
31289W        W 4357  25.092  24.746   0.300
31290W        W 4358  32.968  21.702   1.250
31291W        W 4359   7.219  11.225   1.028
31292W        W 4360  28.077  22.092   4.107
31293W        W 4361   1.555  43.943   2.140
31294W        W 4362   8.190  15.356   3.265
31295W        W 4363  31.976  17.644  10.670
31296W        W 4364  18.205  44.825   2.955
31297W        W 4365   1.332  29.160   2.353
31298W        W 4366  37.805  24.091  11.924
31299W        W 4367  19.852  33.835   1.297
31300W        W 4368  29.211  18.706  11.103
31301W        W 4369  20.833  16.675  13.467
31302W        W 4370  32.987   6.976   0.883
31303W        W 4371  29.219  12.170   3.535
31304W        W 4372   8.813  31.084  12.336
31305W        W 4373  31.479  36.294   4.069
31306W        W 4374  38.862  15.565   4.145
31307W        W 4375  35.117   2.964   3.661
31308W        W 4376  22.130  20.067  10.419
31309W        W 4377  33.086  13.216  13.432
31310W        W 4378  39.341   8.458  13.390
31311W        W 4379  35.454  41.216  11.408
31312W        W 4380  17.720  37.238  13.231
31313W        W 4381  15.036  26.485  12.598
31314W        W 4382   9.132  11.133  12.016
31315W        W 4383   3.316  38.291   1.437
31316W        W 4384   1.256  11.166  14.472
31317W        W 4385  38.612  27.580   1.189
31318W        W 4386  23.825  40.047   1.456
31319W        W 4387  20.244   5.109  12.636
31320W        W 4388  36.602   3.667  14.816
31321W        W 4389  39.959  22.513   4.653
31322W        W 4390  16.224  15.780  11.096
31323W        W 4391  28.970  14.568  12.855
31324W        W 4392   0.495   2.412   1.709
31325W        W 4393  26.428  41.402   2.374
31326W        W 4394   7.259   4.469  11.466
31327W        W 4395  41.720  35.061  10.670
31328W        W 4396  17.073   1.875   0.391
31329W        W 4397  35.880  35.208  12.235
31330W        W 4398   1.391  36.138  12.303
31331W        W 4399  35.291  30.292  14.343
31332W        W 4400   0.948  10.428   4.453
31333W        W 4401  22.516   9.421   1.799
31334W        W 4402  33.361  39.497  14.291
31335W        W 4403  20.121  32.580  14.138
31336W        W 4404   4.825  15.675   3.027
31337W        W 4405   5.924   1.397  10.761
31338W        W 4406   8.988  43.001  14.939
31339W        W 4407  26.963  10.816  12.571
31340W        W 4408  15.832   9.613  14.361
31341W        W 4409  39.595  32.634   3.440
31342W        W 4410  19.229   6.211   2.909
31343W        W 4411  12.392  27.749   1.762
31344W        W 4412  18.681  39.470  12.843
31345W        W 4413   4.892  36.294   5.013
31346W        W 4414  23.680  20.545   1.509
31347W        W 4415  21.551  16.190   0.417
31348W        W 4416  14.739  40.086  14.715
31349W        W 4417  33.788  44.331  10.987
31350W        W 4418  10.650  38.101  10.707
31351W        W 4419  26.274  34.357   2.663
31352W        W 4420   0.352  39.462   0.306
31353W        W 4421  32.411  35.961  14.500
31354W        W 4422  13.839  26.509   3.726
31355W        W 4423  44.778   1.948  13.892
31356W        W 4424   5.741  11.875  12.508
31357W        W 4425  26.639   5.231  14.382
31358W        W 4426  18.896  26.588  10.338
31359W        W 4427  21.041  44.899  11.483
31360W        W 4428   9.416   2.765   3.834
31361W        W 4429  13.828  14.358  10.751
31362W        W 4430  27.579  32.146  14.508
31363W        W 4431  10.318  25.414  14.255
31364W        W 4432  20.146  42.924   2.789
31365W        W 4433  35.562   2.530  14.497
31366W        W 4434  40.615  17.429  12.531
31367W        W 4435  10.712  27.873   4.658
31368W        W 4436  44.549   5.412  12.039
31369W        W 4437  21.718   4.792  13.946
31370W        W 4438   0.812  41.952   4.117
31371W        W 4439  23.107  22.163   0.255
31372W        W 4440  13.279  36.542  11.606
31373W        W 4441  25.711  16.530   4.107
31374W        W 4442  26.362  18.340  11.077
31375W        W 4443  28.577   0.662   0.822
31376W        W 4444  32.615   4.455  13.952
31377W        W 4445  13.763  26.376   0.960
31378W        W 4446  27.499  41.759  13.318
31379W        W 4447  44.855  18.490  14.864
31380W        W 4448   4.242  26.123  12.997
31381W        W 4449  34.532   5.978  13.731
31382W        W 4450  31.358  25.192   1.005
31383W        W 4451  30.632  12.542  12.759
31384W        W 4452   9.183  13.822  13.319
31385W        W 4453  41.494   5.843   4.691
31386W        W 4454  39.825  40.576   1.278
31387W        W 4455  36.625  40.364  11.970
31388W        W 4456  28.700  28.534  10.796
31389W        W 4457  12.368  30.649   4.554
31390W        W 4458   8.276  29.227   2.761
31391W        W 4459   1.366  37.327   0.239
31392W        W 4460   4.782  23.678   0.256
31393W        W 4461  23.532  19.437   9.796
31394W        W 4462  23.369  24.969   1.710
31395W        W 4463   8.933  19.022  11.959
31396W        W 4464  39.592  28.095  12.886
31397W        W 4465  19.484  32.562   0.577
31398W        W 4466  16.421  25.952  14.400
31399W        W 4467  11.851  13.683   4.288
31400W        W 4468  18.217  19.151  11.542
31401W        W 4469   2.232  42.937   3.142
31402W        W 4470   5.419  31.860   3.159
31403W        W 4471  38.518  28.391  11.614
31404W        W 4472  29.442  27.472  10.741
31405W        W 4473   9.846  27.643   4.593
31406W        W 4474  11.683  29.987   4.635
31407W        W 4475  32.666  25.496   0.673
31408W        W 4476   3.913  27.201   1.389
31409W        W 4477   4.099  21.240  10.718
31410W        W 4478  11.628  16.557   0.355
31411W        W 4479  29.999   1.506   3.212
31412W        W 4480  30.475  32.906   3.242
31413W        W 4481   1.419   5.257  13.180
31414W        W 4482  16.936  14.508  12.500
31415W        W 4483  44.328  18.662  11.474
31416W        W 4484  29.129  15.608   2.868
31417W        W 4485   8.798   4.980  13.969
31418W        W 4486  19.778  31.650   4.135
31419W        W 4487  30.872  24.664  11.146
31420W        W 4488  43.353   9.126  12.846
31421W        W 4489  39.296  38.353  13.343
31422W        W 4490   4.194  26.836  14.368
31423W        W 4491   2.476   7.942  11.687
31424W        W 4492  17.305  26.445   4.148
31425W        W 4493   6.543  13.565  14.832
31426W        W 4494   1.119  25.509  12.226
31427W        W 4495  25.974  12.408  10.894
31428W        W 4496  15.537  33.062  14.843
31429W        W 4497  15.790   0.033   3.249
31430W        W 4498  41.324  35.578   0.776
31431W        W 4499  40.441  17.013  11.383
31432W        W 4500   7.886  42.416   4.823
31433W        W 4501  24.750  40.176   4.567
31434W        W 4502   7.510  32.940   0.830
31435W        W 4503  44.859   3.355  10.773
31436W        W 4504  31.724  38.243   3.264
31437W        W 4505  11.995  12.310   4.809
31438W        W 4506  24.578  34.956   1.723
31439W        W 4507   7.936   2.663   0.775
31440W        W 4508  28.453  24.772   3.233
31441W        W 4509  16.334  29.110  11.067
31442W        W 4510  33.601  22.000   3.652
31443W        W 4511  13.716  12.660   4.220
31444W        W 4512  42.436   7.204   1.226
31445W        W 4513  38.816  33.884  13.508
31446W        W 4514  25.692  25.391  11.971
31447W        W 4515  34.546   6.149   1.766
31448W        W 4516   1.231  31.642  13.051
31449W        W 4517  43.078   4.136   3.306
31450W        W 4518  37.072  19.076  13.040
31451W        W 4519  36.482   1.858  10.772
31452W        W 4520  25.691  36.573  14.328
31453W        W 4521  33.580  42.488   5.075
31454W        W 4522  20.182  29.460   0.697
31455W        W 4523  39.403   6.635  11.171
31456W        W 4524  16.914  13.652  11.610
31457W        W 4525   6.896   0.288   2.697
31458W        W 4526  13.846  18.283  14.117
31459W        W 4527   2.009  20.431   4.116
31460W        W 4528   4.575  27.483  10.427
31461W        W 4529  24.523  27.030   1.819
31462W        W 4530  27.210  42.594  11.591
31463W        W 4531  27.932  38.515  13.482
31464W        W 4532  31.146  38.317   2.284
31465W        W 4533  31.012   2.364   2.313
31466W        W 4534  19.203  34.404  11.954
31467W        W 4535  22.857  10.377  13.491
31468W        W 4536  23.259  33.786   3.233
31469W        W 4537  21.558   1.497  10.960
31470W        W 4538  44.409   1.739   4.769
31471W        W 4539  24.277  16.911  13.824
31472W        W 4540  21.219  35.903  12.897
31473W        W 4541   0.321  41.906  10.915
31474W        W 4542  13.069  17.675   5.018
31475W        W 4543   6.566  44.101   3.307
31476W        W 4544  10.723  37.403  12.024
31477W        W 4545  23.069  20.033  12.935
31478W        W 4546   5.802  10.359  14.717
31479W        W 4547  39.445   9.923   0.935
31480W        W 4548  34.076  34.606   2.112
31481W        W 4549  26.179   8.374  14.127
31482W        W 4550  31.555   3.945  10.783
31483W        W 4551  20.218  43.869  14.440
31484W        W 4552   1.109  21.478   4.135
31485W        W 4553   3.505  27.474   3.026
31486W        W 4554  15.739  30.741   4.187
31487W        W 4555  16.127  12.685  11.891
31488W        W 4556   6.175  19.058  10.666
31489W        W 4557  29.760  22.016  11.490
31490W        W 4558  13.594  20.985   2.278
31491W        W 4559  39.007  34.836   4.045
31492W        W 4560  12.128  11.147   2.787
31493W        W 4561  43.346  12.836   3.372
31494W        W 4562  19.172  35.278   1.182
31495W        W 4563  41.440  17.132   4.212
31496W        W 4564  19.033  16.233   3.060
31497W        W 4565  35.885   5.793   2.334
31498W        W 4566  27.581  18.515  12.871
31499W        W 4567  17.561   4.480  11.515
31500W        W 4568   8.323  14.205   2.653
31501W        W 4569  39.005   2.678  13.487
31502W        W 4570  41.893  30.673  11.563
31503W        W 4571  24.479  35.993   1.217
31504W        W 4572   1.754   6.789   2.282
31505W        W 4573  43.675   6.413   3.810
31506W        W 4574  37.666  16.610  13.847
31507W        W 4575   1.824  37.306  14.997
31508W        W 4576  44.225  31.409  13.566
31509W        W 4577  17.265  34.775   1.682
31510W        W 4578   3.927  31.760  12.437
31511W        W 4579   6.186   5.272  13.461
31512W        W 4580  43.944  34.858   5.056
31513W        W 4581  18.737  29.619   4.399
31514W        W 4582  11.915   3.295  10.804
31515W        W 4583  12.639  12.603  13.674
31516W        W 4584  25.609  43.805  10.925
31517W        W 4585  40.368  24.150   2.571
31518W        W 4586  40.802  21.909   2.705
31519W        W 4587  40.712  25.012   4.142
31520W        W 4588  40.912  16.939  14.732
31521W        W 4589   5.350  20.258   2.692
31522W        W 4590   4.332  20.995   3.309
31523W        W 4591  44.826   8.644   4.015
31524W        W 4592  13.872  22.124  10.793
31525W        W 4593   1.741  39.630  12.057
31526W        W 4594  20.234  28.627   4.584
31527W        W 4595  38.542   9.218   3.809
31528W        W 4596  19.494  43.078   2.242
31529W        W 4597  31.651  18.308  13.614
31530W        W 4598  27.875  22.309  10.949
31531W        W 4599  10.474  22.564  11.123
31532W        W 4600  32.922  13.466   1.829
31533W        W 4601  23.040   9.088  11.536
31534W        W 4602  11.165  28.185  12.853
31535W        W 4603  43.318  38.039  14.244
31536W        W 4604  19.357  43.489   1.704
31537W        W 4605  14.625  16.236  13.826
31538W        W 4606  37.585  10.211  14.312
31539W        W 4607  15.820  38.312  13.119
31540W        W 4608  12.252  28.881   0.376
31541W        W 4609  38.977   0.456  10.788
31542W        W 4610   7.431  39.413  10.466
31543W        W 4611  15.596  12.061   0.674
31544W        W 4612  29.598  41.031  11.695
31545W        W 4613  40.684  11.083  11.590
31546W        W 4614  39.278   1.356   4.327
31547W        W 4615   9.580  36.451  12.385
31548W        W 4616  18.309  28.435  10.891
31549W        W 4617   6.887  33.131   2.225
31550W        W 4618   4.290  12.707   2.914
31551W        W 4619   7.110   8.209   2.407
31552W        W 4620  21.317  14.831  13.418
31553W        W 4621  15.535   8.344  11.106
31554W        W 4622  14.610  30.569   3.752
31555W        W 4623  15.675  29.058   3.246
31556W        W 4624  32.219  26.594  14.869
31557W        W 4625  17.338  13.593   1.626
31558W        W 4626   7.393  37.284  13.938
31559W        W 4627  42.881  40.322   0.048
31560W        W 4628  17.547  20.325   0.708
31561W        W 4629  25.115  36.884   2.577
31562W        W 4630   1.408  25.151  13.521
31563W        W 4631   9.573  37.502   3.438
31564W        W 4632  19.946  35.527  12.065
31565W        W 4633  28.483  24.752  14.239
31566W        W 4634   6.400  29.429   0.296
31567W        W 4635  24.777  22.107   2.694
31568W        W 4636   9.712   7.382  10.407
31569W        W 4637  30.758  36.412  11.069
31570W        W 4638  40.842  27.738  12.594
31571W        W 4639   3.833   4.356   4.644
31572W        W 4640   5.781   9.871  13.483
31573W        W 4641  23.708  13.789   2.185
31574W        W 4642  35.421  12.661   1.695
31575W        W 4643   1.997  19.018  13.469
31576W        W 4644  21.951  38.923   1.757
31577W        W 4645  11.455   7.252   2.105
31578W        W 4646  44.820  44.177  10.602
31579W        W 4647  33.650  40.369   3.201
31580W        W 4648   1.294  24.202   0.500
31581W        W 4649  27.003  25.983   3.715
31582W        W 4650  38.556   5.585   2.265
31583W        W 4651  44.248  38.963  14.906
31584W        W 4652  39.050  17.591   4.315
31585W        W 4653  28.531  44.514   4.249
31586W        W 4654  40.945  28.206   4.240
31587W        W 4655   1.203   5.941  10.749
31588W        W 4656  37.798  29.401   0.263
31589W        W 4657  37.656  35.469   1.686
31590W        W 4658  24.751  17.745   2.196
31591W        W 4659  34.005  26.347   4.858
31592W        W 4660  36.508  25.704   0.065
31593W        W 4661  11.648  32.674   0.914
31594W        W 4662  12.209   2.031   0.360
31595W        W 4663  16.290   5.020   0.292
31596W        W 4664  29.533   8.626   2.777
31597W        W 4665  20.411  30.481   1.658
31598W        W 4666  21.912  42.291  12.138
31599W        W 4667  36.613  44.422  11.571
31600W        W 4668  23.028  12.732   1.648
31601W        W 4669  25.106   7.902  11.947
31602W        W 4670  23.051  32.823   2.875
31603W        W 4671  19.772  31.027  14.924
31604W        W 4672   4.509   9.852   3.216
31605W        W 4673  25.504  30.630   0.677
31606W        W 4674  25.896  42.930   1.580
31607W        W 4675  20.838  10.114  11.284
31608W        W 4676   4.385  30.690  12.130
31609W        W 4677  31.032  10.908  12.981
31610W        W 4678  37.396  39.110  13.854
31611W        W 4679   6.842  28.574   2.594
31612W        W 4680   1.790   7.422  11.181
31613W        W 4681   5.815  31.027   0.910
31614W        W 4682  30.437  38.326  11.559
31615W        W 4683  13.081  24.719  13.859
31616W        W 4684  42.199   2.864  10.709
31617W        W 4685  26.140  13.052   4.202
31618W        W 4686   7.118  34.535  14.060
31619W        W 4687  14.183  20.458   4.058
31620W        W 4688   9.222  11.874   3.588
31621W        W 4689  10.424  40.276   3.768
31622W        W 4690  26.589   3.507   0.413
31623W        W 4691  10.664  13.569   1.168
31624W        W 4692  33.644  31.443  13.031
31625W        W 4693  42.079  27.593   1.873
31626W        W 4694  24.015  40.957  11.946
31627W        W 4695  43.270  20.764  13.510
31628W        W 4696  14.735  18.533   4.417
31629W        W 4697   5.309   3.874  11.879
31630W        W 4698  39.070   3.929  14.868
31631W        W 4699  26.742  30.004   3.399
31632W        W 4700   5.853   4.302  14.592
31633W        W 4701  31.696  25.193   2.854
31634W        W 4702  44.781  32.639  10.916
31635W        W 4703  33.027   6.919  12.921
31636W        W 4704  23.126  15.768   9.994
31637W        W 4705  17.017   0.489   3.243
31638W        W 4706   1.456  14.756  13.473
31639W        W 4707  11.186  35.818  11.005
31640W        W 4708   4.688  30.392   2.234
31641W        W 4709  28.475  23.005   1.684
31642W        W 4710  38.623   6.227  10.429
31643W        W 4711  40.690  31.878  11.891
31644W        W 4712  43.405  23.341   4.142
31645W        W 4713  30.105  37.789  12.404
31646W        W 4714  33.074  33.373  11.383
31647W        W 4715  11.629  21.634  10.577
31648W        W 4716   6.863  29.544   0.468
31649W        W 4717  40.611  26.303  14.705
31650W        W 4718  43.726  11.781  14.287
31651W        W 4719  43.963  38.220  13.057
31652W        W 4720  21.178  27.233   1.423
31653W        W 4721  22.521   4.370   4.438
31654W        W 4722  19.092  29.552  10.756
31655W        W 4723   6.327  39.053  11.926
31656W        W 4724   8.793   8.321   1.708
31657W        W 4725  32.403   0.736  13.976
31658W        W 4726  32.875  12.960   1.998
31659W        W 4727  40.498  17.736   2.638
31660W        W 4728   1.968   0.473   2.330
31661W        W 4729  40.516  13.740  14.318
31662W        W 4730  14.381  22.159  14.880
31663W        W 4731   6.803  31.856  13.297
31664W        W 4732  32.466   6.321   4.721
31665W        W 4733  25.589  39.544   2.425
31666W        W 4734  35.516  24.537   2.720
31667W        W 4735  15.043  15.197  14.294
31668W        W 4736  29.369   8.404  12.589
31669W        W 4737  25.275  33.139   1.588
31670W        W 4738   9.786  13.310   1.753
31671W        W 4739  41.100  40.391  13.987
31672W        W 4740  30.885  44.022   1.856
31673W        W 4741  15.059  30.353  11.276
31674W        W 4742  17.045  16.726   0.289
31675W        W 4743  38.486  29.041  14.862
31676W        W 4744   9.696  30.294  11.373
31677W        W 4745  27.595  24.946  14.035
31678W        W 4746  19.924   4.377  14.046
31679W        W 4747  32.714  23.651  12.012
31680W        W 4748   4.439  31.365   2.353
31681W        W 4749  43.401   4.348  13.250
31682W        W 4750  10.713  44.735  12.333
31683W        W 4751  43.986  25.261  14.442
31684W        W 4752  42.318  26.973   2.393
31685W        W 4753   6.614  10.858  14.307
31686W        W 4754  25.141  41.506  11.899
31687W        W 4755  39.784  40.074   4.861
31688W        W 4756  19.299  37.314   1.345
31689W        W 4757  44.067  35.159   2.199
31690W        W 4758  21.294  37.046  10.701
31691W        W 4759  32.984  33.121   2.801
31692W        W 4760  39.123  14.353   0.841
31693W        W 4761  11.592  29.372   4.984
31694W        W 4762  25.492  12.304   1.860
31695W        W 4763  30.970   8.486   4.733
31696W        W 4764  35.451   9.504   2.370
31697W        W 4765  24.145  28.429  11.743
31698W        W 4766  43.001   7.009  12.585
31699W        W 4767  11.187   7.965   0.540
31700W        W 4768   1.253  16.593   1.216
31701W        W 4769  27.459  29.759  12.445
31702W        W 4770   3.904  40.890   3.909
31703W        W 4771  39.837  13.824   1.874
31704W        W 4772  28.282  22.197  11.257
31705W        W 4773  15.747  24.552  12.861
31706W        W 4774  19.080  27.447  12.851
31707W        W 4775  42.582  42.736  14.003
31708W        W 4776  27.603  17.026   1.194
31709W        W 4777  28.309  11.340  10.852
31710W        W 4778   7.916  27.391  13.850
31711W        W 4779   6.894  44.748   4.075
31712W        W 4780  40.687  41.456  11.008
31713W        W 4781   7.335   8.097   1.927
31714W        W 4782  24.976  13.982   3.707
31715W        W 4783  30.526   3.954   4.144
31716W        W 4784  30.904  25.598  11.382
31717W        W 4785  39.123  22.982   4.164
31718W        W 4786   3.714  33.971   4.095
31719W        W 4787   2.475  33.133  13.121
31720W        W 4788  19.194   5.276   1.869
31721W        W 4789  15.055  22.209  11.648
31722W        W 4790   3.771  30.400  10.323
31723W        W 4791  39.443  29.349   1.661
31724W        W 4792  13.769  10.867   3.684
31725W        W 4793   3.720   2.845  14.877
31726W        W 4794  43.543   9.914   4.390
31727W        W 4795  40.360   1.670  13.061
31728W        W 4796  19.277   0.943  12.913
31729W        W 4797  35.532  43.536   1.350
31730W        W 4798   6.693   5.180  12.455
31731W        W 4799   8.913  14.728  12.521
31732W        W 4800  31.945   3.389   0.292
31733W        W 4801  39.048  11.305   4.103
31734W        W 4802   7.706  10.178   5.105
31735W        W 4803  41.263  43.749   0.665
31736W        W 4804  32.972  13.116  10.793
31737W        W 4805  33.310  33.823   3.211
31738W        W 4806   4.459  43.807   0.803
31739W        W 4807  25.232  38.333   0.125
31740W        W 4808  12.871   5.275  10.889
31741W        W 4809   2.407  22.447  13.405
31742W        W 4810  33.163  35.887  11.846
31743W        W 4811  38.102  27.749   1.459
31744W        W 4812  10.955   9.674  14.325
31745W        W 4813  40.854  18.174   4.706
31746W        W 4814  20.733  40.462  11.120
31747W        W 4815  21.033  22.074   1.484
31748W        W 4816   9.475  11.657   3.208
31749W        W 4817  36.372   3.362   1.873
31750W        W 4818  34.059   0.339  14.971
31751W        W 4819  35.498  26.059  12.150
31752W        W 4820   0.290  44.856   2.006
31753W        W 4821  42.388  34.565   1.057
31754W        W 4822   8.415  26.636   2.794
31755W        W 4823  13.550  15.862   2.644
31756W        W 4824  14.027  44.014   2.808
31757W        W 4825  28.041  20.497   4.775
31758W        W 4826  39.819  33.956  11.902
31759W        W 4827  17.283  30.452   2.240
31760W        W 4828  10.204   4.153   2.786
31761W        W 4829   2.399  35.996  13.906
31762W        W 4830  19.437  26.022  11.578
31763W        W 4831  44.667  34.615   3.153
31764W        W 4832  36.011  14.555   4.508
31765W        W 4833   6.456   7.926  14.035
31766W        W 4834  23.549  10.462  11.074
31767W        W 4835  13.675  38.608   4.525
31768W        W 4836  13.408   5.689  14.301
31769W        W 4837  34.554  44.962  13.831
31770W        W 4838   8.925  14.867  10.752
31771W        W 4839   8.827   9.280   4.594
31772W        W 4840   4.245   0.416  12.072
31773W        W 4841  44.069  29.582  14.302
31774W        W 4842  35.677   7.116   4.471
31775W        W 4843   3.860  16.163  14.441
31776W        W 4844  44.713  22.574   2.855
31777W        W 4845  41.380   9.914   0.859
31778W        W 4846  16.402  19.114  11.679
31779W        W 4847  17.366  14.323  12.727
31780W        W 4848  19.139  10.885   4.272
31781W        W 4849  29.536  32.492  14.391
31782W        W 4850  34.431  29.300   3.254
31783W        W 4851  41.944  27.633  13.801
31784W        W 4852  42.017  21.445   1.970
31785W        W 4853  36.877  43.502   3.266
31786W        W 4854  22.474  27.560  10.319
31787W        W 4855  19.366  29.114   0.237
31788W        W 4856  16.570  20.631   3.209
31789W        W 4857  16.357  29.073   2.423
31790W        W 4858  20.692  32.341   1.634
31791W        W 4859  20.131  30.483   2.643
31792W        W 4860  22.432  44.824   0.747
31793W        W 4861  41.047   5.439  13.576
31794W        W 4862   4.966  18.259   1.692
31795W        W 4863  37.354   5.343   3.329
31796W        W 4864  24.677  35.785   0.048
31797W        W 4865   6.368  12.353   2.717
31798W        W 4866  41.018  31.319  13.767
31799W        W 4867  14.781   7.231  14.067
31800W        W 4868   9.918  32.107   0.776
31801W        W 4869  33.651  10.937  13.856
31802W        W 4870   4.045  10.127  13.986
31803W        W 4871   0.153   3.816  10.924
31804W        W 4872   5.949  24.636   3.591
31805W        W 4873  19.026  21.013   4.074
31806W        W 4874  20.750  35.121  11.886
31807W        W 4875  33.177  25.936  13.044
31808W        W 4876  42.917  20.546  14.770
31809W        W 4877  34.988  44.391   2.014
31810W        W 4878   2.196  34.433   1.879
31811W        W 4879  16.182  18.582  12.932
31812W        W 4880  29.539  34.388   3.683
31813W        W 4881  24.213  18.180   1.917
31814W        W 4882  41.869  25.359  14.052
31815W        W 4883  33.484  17.799  13.821
31816W        W 4884  18.622  27.925  13.485
31817W        W 4885  10.250  14.410  14.293
31818W        W 4886  31.963   8.495  11.039
31819W        W 4887  17.335  10.757  14.910
31820W        W 4888  28.461  20.143   4.284
31821W        W 4889  29.265  42.870   4.340
31822W        W 4890  20.194  14.678  14.428
31823W        W 4891  41.006  15.896  11.034
31824W        W 4892   2.509  12.445  14.450
31825W        W 4893   2.737   4.793   1.239
31826W        W 4894  28.059  30.316  10.314
31827W        W 4895  33.555   9.039   0.887
31828W        W 4896  33.906   2.765  11.487
31829W        W 4897   6.516  32.032   0.696
31830W        W 4898  23.838  43.840   3.212
31831W        W 4899  10.646  10.286  10.746
31832W        W 4900  33.339   4.005   2.791
31833W        W 4901  32.506  40.833   3.619
31834W        W 4902   4.598  21.685  14.321
31835W        W 4903  23.452  19.820  10.722
31836W        W 4904   7.451  24.494  11.141
31837W        W 4905   5.388   2.238   0.732
31838W        W 4906  31.824   0.684  11.715
31839W        W 4907  39.364  15.574   2.043
31840W        W 4908  22.150  34.931   2.595
31841W        W 4909   1.378   5.912  14.393
31842W        W 4910  28.666  42.664   2.164
31843W        W 4911  18.307  18.617   0.413
31844W        W 4912  18.216  28.552  12.981
31845W        W 4913  13.024  41.118   4.407
31846W        W 4914   9.440  37.089   1.229
31847W        W 4915  42.320  29.410   4.086
31848W        W 4916   2.221   2.031  11.878
31849W        W 4917   1.871  43.198  12.552
31850W        W 4918  38.886  37.546  13.096
31851W        W 4919   1.838  17.187   0.808
31852W        W 4920  26.667  29.307  14.940
31853W        W 4921  28.038  36.248  12.013
31854W        W 4922  24.812  18.617   4.542
31855W        W 4923  32.819  43.198  14.689
31856W        W 4924   3.863   4.242   3.151
31857W        W 4925  39.052   9.611  11.000
31858W        W 4926  10.787   6.634  10.989
31859W        W 4927  20.287  13.007   4.120
31860W        W 4928  36.478   4.903  13.740
31861W        W 4929  22.273  37.636  11.632
31862W        W 4930  25.936  11.305   4.701
31863W        W 4931  26.754  25.898  11.088
31864W        W 4932  27.179  17.741   4.097
31865W        W 4933  43.150   5.223   4.122
31866W        W 4934   1.849   7.184   4.146
31867W        W 4935  14.361   9.234   2.300
31868W        W 4936  11.191  21.901  14.916
31869W        W 4937   1.969  19.298   0.587
31870W        W 4938  18.619   7.341  10.706
31871W        W 4939   3.834   7.457  11.681
31872W        W 4940  33.308  11.862   3.239
31873W        W 4941  42.899  42.401   3.352
31874W        W 4942  34.069  12.393  13.270
31875W        W 4943  37.051  17.652  13.009
31876W        W 4944  25.541  37.348  13.758
31877W        W 4945   2.423  44.267  11.909
31878W        W 4946  40.274  35.448  11.159
31879W        W 4947   7.312  10.679   4.528
31880W        W 4948   6.475  41.934   9.946
31881W        W 4949  11.174  42.999   4.880
31882W        W 4950  26.947  40.040   0.957
31883W        W 4951  31.378   7.653   3.251
31884W        W 4952   0.328   8.673   2.771
31885W        W 4953  36.899   8.435   0.722
31886W        W 4954  12.562   0.868   2.451
31887W        W 4955  22.140   4.973  14.916
31888W        W 4956  36.321   9.818   2.341
31889W        W 4957   0.530  43.350   3.875
31890W        W 4958   1.440   7.257  11.536
31891W        W 4959  30.797   7.691  12.969
31892W        W 4960  37.332  29.644  13.296
31893W        W 4961  23.439  31.152  12.805
31894W        W 4962  44.446   2.324   0.798
31895W        W 4963   5.174  43.432   4.654
31896W        W 4964  22.177   8.144  13.128
31897W        W 4965  22.163  29.669  12.912
31898W        W 4966   4.986  14.103  10.688
31899W        W 4967  36.583  39.083   2.888
31900W        W 4968  14.003  20.021   3.297
31901W        W 4969  40.763  31.661  12.359
31902W        W 4970  25.552  21.841  14.455
31903W        W 4971  32.202   5.868   1.404
31904W        W 4972  40.782  11.290  13.795
31905W        W 4973  42.402  36.285   4.601
31906W        W 4974  35.046  43.753   2.215
31907W        W 4975  41.978  16.606   0.819
31908W        W 4976  39.968  34.899  10.567
31909W        W 4977  43.494  20.419  13.878
31910W        W 4978   3.392  21.801   4.236
31911W        W 4979  29.703   4.491   0.465
31912W        W 4980  17.621  20.783  12.427
31913W        W 4981   1.933  23.329  11.971
31914W        W 4982  13.206  25.746   3.741
31915W        W 4983  26.333  10.227   0.373
31916W        W 4984   3.364  38.191   0.396
31917W        W 4985  18.678  43.090   0.335
31918W        W 4986  33.532  20.579  13.469
31919W        W 4987  20.513  31.432   0.327
31920W        W 4988   9.355  41.918   2.273
31921W        W 4989  28.394   7.136  11.735
31922W        W 4990  36.126  15.568   1.296
31923W        W 4991  29.957   6.762   2.765
31924W        W 4992  20.144  18.136  13.396
31925W        W 4993  24.505  12.036  12.964
31926W        W 4994  31.471  43.381  14.777
31927W        W 4995  35.786  10.102  14.942
31928W        W 4996  30.889   4.989   3.616
31929W        W 4997  25.556  10.963   4.781
31930W        W 4998  35.856  23.280   1.872
31931W        W 4999  43.731  31.341   2.410
31932W        W 5000  17.104  34.497   3.175
31933W        W 5001   2.820   3.005  14.287
31934W        W 5002  32.464   8.233   0.686
31935W        W 5003  14.165  30.049  11.099
31936W        W 5004  23.769  22.055   1.754
31937W        W 5005  25.589  13.137   5.027
31938W        W 5006  28.135  11.558   9.921
31939W        W 5007  38.438  38.934   1.276
31940W        W 5008  24.227  44.999  11.680
31941W        W 5009  16.709  36.933  12.506
31942W        W 5010   4.748   0.334  13.316
31943W        W 5011  20.723  19.103  12.999
31944W        W 5012  15.114  14.523   0.086
31945W        W 5013  27.534   8.678  12.841
31946W        W 5014  19.031  14.395   1.859
31947W        W 5015  34.957  28.631   0.942
31948W        W 5016  17.775  30.124   0.868
31949W        W 5017  15.482   4.744  10.910
31950W        W 5018   5.904  21.209  13.568
31951W        W 5019  24.691  25.925   3.302
31952W        W 5020   5.066  23.362   1.596
31953W        W 5021  13.771  22.182   3.595
31954W        W 5022  31.493   6.632  11.186
31955W        W 5023  21.170  27.209   0.898
31956W        W 5024  41.205  15.734   1.834
31957W        W 5025  43.855  17.134  13.053
31958W        W 5026  40.337  31.752  12.633
31959W        W 5027  20.235  20.939   3.917
31960W        W 5028   3.849  12.144   3.472
31961W        W 5029  12.656   5.617   1.515
31962W        W 5030  37.144   4.025   0.855
31963W        W 5031  23.062  41.253   2.332
31964W        W 5032  36.872  15.191   1.002
31965W        W 5033  34.110  25.431  14.832
31966W        W 5034  19.973   6.154  13.391
31967W        W 5035  36.188  28.616  11.572
31968W        W 5036  10.982  29.547   3.683
31969W        W 5037  12.783   0.870  11.233
31970W        W 5038  40.826   3.518  11.515
31971W        W 5039  25.009  27.085   4.432
31972W        W 5040   2.417  35.494   4.091
31973W        W 5041  37.129  27.449  11.890
31974W        W 5042  42.033   7.864  10.744
31975W        W 5043  14.601  21.338   0.287
31976W        W 5044  15.239  24.713   3.668
31977W        W 5045  40.357   7.364  13.776
31978W        W 5046  13.784  20.169  10.422
31979W        W 5047  25.936  33.674  11.198
31980W        W 5048   2.705  18.562  11.298
31981W        W 5049  29.854  27.645   0.679
31982W        W 5050  29.199  16.932   0.511
31983W        W 5051   5.304  30.865  14.020
31984W        W 5052  13.200  33.033   0.719
31985W        W 5053  29.764  28.682  10.491
31986W        W 5054  34.295  39.876   0.618
31987W        W 5055  17.192  19.238   4.606
31988W        W 5056  29.445  38.044  11.552
31989W        W 5057  33.379  30.466   0.129
31990W        W 5058   6.319  38.877   4.625
31991W        W 5059  41.406  40.541  10.558
31992W        W 5060  33.972  26.237  11.726
31993W        W 5061  38.949   9.585   3.295
31994W        W 5062  27.008  11.378  12.030
31995W        W 5063  14.340  35.384   3.486
31996W        W 5064   7.259  40.312   4.234
31997W        W 5065   7.260  13.926  13.341
31998W        W 5066  25.995  39.763   3.783
31999W        W 5067  35.393   3.908   3.688
32000W        W 5068  24.743  28.582   0.320
32001W        W 5069   3.988   9.400   2.339
32002W        W 5070  10.013   9.821   4.231
32003W        W 5071  12.038   8.244   4.612
32004W        W 5072  15.110  11.804   0.739
32005W        W 5073  37.036  38.130   3.595
32006W        W 5074  26.389  33.986   0.903
32007W        W 5075  28.382  25.656  14.265
32008W        W 5076  40.423   3.671  14.526
32009W        W 5077  44.892  34.981  13.025
32010W        W 5078  20.055  20.008  11.148
32011W        W 5079  23.682  21.551  14.664
32012W        W 5080  33.977  40.228  13.987
32013W        W 5081  17.719  11.858   0.418
32014W        W 5082  32.983   9.740  10.694
32015W        W 5083  33.961  35.928   0.643
32016W        W 5084   3.067  25.586  11.575
32017W        W 5085  15.829  40.032   1.293
32018W        W 5086  27.465  29.175   4.381
32019W        W 5087  40.314  21.786  13.795
32020W        W 5088  11.734  35.183   3.518
32021W        W 5089  14.590  39.729  12.424
32022W        W 5090  19.803   1.813   3.620
32023W        W 5091  30.566  37.455   4.587
32024W        W 5092  29.931  39.122  11.549
32025W        W 5093  31.873  34.863  13.814
32026W        W 5094   0.997   6.809  13.761
32027W        W 5095  38.778  19.696   3.684
32028W        W 5096  43.899   6.232  14.796
32029W        W 5097  10.335   1.756   4.529
32030W        W 5098  24.991  36.053  10.716
32031W        W 5099  25.663  30.134  11.608
32032W        W 5100  22.273  29.043   1.361
32033W        W 5101   0.964  40.932  12.826
32034W        W 5102  13.749  14.588  14.365
32035W        W 5103   9.910  44.470   4.164
32036W        W 5104   5.879  37.966   3.920
32037W        W 5105  35.124  21.032  10.648
32038W        W 5106  27.721  15.137   4.593
32039W        W 5107  40.997  19.726   4.834
32040W        W 5108  32.939  28.644  13.086
32041W        W 5109  39.469  15.532  14.529
32042W        W 5110  17.129  31.905  12.440
32043W        W 5111  36.079   2.749   2.678
32044W        W 5112  39.041  20.130  14.883
32045W        W 5113  29.715   8.753  12.441
32046W        W 5114   9.649  25.967   4.088
32047W        W 5115  34.916  28.458   2.498
32048W        W 5116  27.691   2.637  11.690
32049W        W 5117   4.839  35.349   2.368
32050W        W 5118   4.261  37.547  14.905
32051W        W 5119  18.166  30.411  13.267
32052W        W 5120  23.498  26.726   0.020
32053W        W 5121   3.790  34.556  14.377
32054W        W 5122   5.965  10.922  13.351
32055W        W 5123   6.287  28.095  14.363
32056W        W 5124  36.966  20.453  13.537
32057W        W 5125   1.793  33.863   2.389
32058W        W 5126  10.637  22.055  10.733
32059W        W 5127  20.012  39.093  11.196
32060W        W 5128  42.997   8.793  14.832
32061W        W 5129  18.239   9.907   4.600
32062W        W 5130  35.625  22.483  11.575
32063W        W 5131  36.596  13.664   1.229
32064W        W 5132  24.776  23.596   2.390
32065W        W 5133  24.775  12.609   2.373
32066W        W 5134  41.902  26.457  14.369
32067W        W 5135  30.615  25.464   1.934
32068W        W 5136  21.935  24.578   4.007
32069W        W 5137   7.843   8.696  13.404
32070W        W 5138   8.880  42.070  10.641
32071W        W 5139  30.031   3.187   1.723
32072W        W 5140   1.998  16.575   4.230
32073W        W 5141  15.359  18.680  13.375
32074W        W 5142   1.361  33.368  14.747
32075W        W 5143  12.559  17.285   5.033
32076W        W 5144  30.644   8.892   0.547
32077W        W 5145  15.279  42.828   3.623
32078W        W 5146   8.303  28.613   1.681
32079W        W 5147  41.577  30.991  10.958
32080W        W 5148  19.618  23.475  14.425
32081W        W 5149  42.716   4.338  12.623
32082W        W 5150  36.539   1.751  11.273
32083W        W 5151  33.042   9.782   4.438
32084W        W 5152  27.549  24.686  13.434
32085W        W 5153   7.258  16.327   3.285
32086W        W 5154   8.852  14.189  13.795
32087W        W 5155  34.527   0.733  11.064
32088W        W 5156  24.352   2.700  12.825
32089W        W 5157   0.746  19.980  11.131
32090W        W 5158  19.290  15.818   0.707
32091W        W 5159   9.150   0.349  11.174
32092W        W 5160   0.674  34.964   2.272
32093W        W 5161  37.110  22.697   0.786
32094W        W 5162  43.324   2.756   1.000
32095W        W 5163  24.552   5.246  14.868
32096W        W 5164  13.412  36.388  10.689
32097W        W 5165   9.822  26.563   0.740
32098W        W 5166  33.805  26.085   2.239
32099W        W 5167  16.751   7.075   3.396
32100W        W 5168   0.697   6.227  14.891
32101W        W 5169  38.690   5.413   2.751
32102W        W 5170   6.783   9.147  12.634
32103W        W 5171  33.075  33.971  12.566
32104W        W 5172  43.371   9.156  14.876
32105W        W 5173  34.282  30.950  12.606
32106W        W 5174   5.192  23.095  12.041
32107W        W 5175   6.351  18.236   0.641
32108W        W 5176  14.690  33.384  13.974
32109W        W 5177  36.324  29.643   2.730
32110W        W 5178  22.119  42.815   0.925
32111W        W 5179  26.624   0.828   2.182
32112W        W 5180  32.165  23.920   0.820
32113W        W 5181  19.841  19.564  11.216
32114W        W 5182  10.679  27.452  13.872
32115W        W 5183  40.923  37.423  14.118
32116W        W 5184  44.427  39.529  11.109
32117W        W 5185  13.195   9.711  14.779
32118W        W 5186  33.507   8.964  13.951
32119W        W 5187  30.651  38.184  11.127
32120W        W 5188  20.530  40.333  11.578
32121W        W 5189  38.933  11.682  12.584
32122W        W 5190  16.141  10.864   0.894
32123W        W 5191   3.845  40.402   3.688
32124W        W 5192   9.235  25.218   0.762
32125W        W 5193  33.812   4.208   1.902
32126W        W 5194  19.972  27.109  14.468
32127W        W 5195   6.431   2.459  14.906
32128W        W 5196   0.905  32.876  13.899
32129W        W 5197  37.477   1.914  11.063
32130W        W 5198  38.921  11.776  11.282
32131W        W 5199  18.428  20.753   4.825
32132W        W 5200  16.779  34.186   3.934
32133W        W 5201  24.465  19.291   4.136
32134W        W 5202   5.227  29.119   0.821
32135W        W 5203  13.345  37.086  14.344
32136W        W 5204  25.321  36.053  13.254
32137W        W 5205  40.885  21.192  13.998
32138W        W 5206  25.465   9.207   2.301
32139W        W 5207   4.932  13.525   3.679
32140W        W 5208  20.491   1.023   5.450
32141W        W 5209  32.677  25.959   1.167
32142W        W 5210  37.816  39.004  10.403
32143W        W 5211   3.174   3.590  14.494
32144W        W 5212  28.922  22.044  12.929
32145W        W 5213  22.514  27.394   0.847
32146W        W 5214  14.103  23.146   0.219
32147W        W 5215   0.578  26.478   2.125
32148W        W 5216  17.977  44.319  13.441
32149W        W 5217  25.148   4.855   1.450
32150W        W 5218  10.365  19.538  14.245
32151W        W 5219  12.399  22.542   0.507
32152W        W 5220   8.365   8.454  12.544
32153W        W 5221  36.382  42.726   1.877
32154W        W 5222   3.504  37.185   0.762
32155W        W 5223   6.471  12.701   4.087
32156W        W 5224  40.488  44.871  14.355
32157W        W 5225   4.520   0.187   0.816
32158W        W 5226  42.928   3.267  13.026
32159W        W 5227  32.546  36.408   1.765
32160W        W 5228  16.787  31.942  11.195
32161W        W 5229  38.724  20.974   4.230
32162W        W 5230  11.542   4.639   1.265
32163W        W 5231  40.398  27.560  12.846
32164W        W 5232  20.867  30.793  11.822
32165W        W 5233   6.968  14.342   0.385
32166W        W 5234   5.855   4.710  14.961
32167W        W 5235  24.360   9.840  13.302
32168W        W 5236   3.152  22.220  14.753
32169W        W 5237   3.706  30.109  14.835
32170W        W 5238  19.758  15.871  12.366
32171W        W 5239  34.055  38.412  10.583
32172W        W 5240  24.966  30.443   3.315
32173W        W 5241  26.222  41.919  14.645
32174W        W 5242  22.618  43.472  14.857
32175W        W 5243  42.596  33.924  14.894
32176W        W 5244  27.575   8.947  11.486
32177W        W 5245   0.343  31.519  11.567
32178W        W 5246  25.287  21.866  14.904
32179W        W 5247   7.794   9.203   2.393
32180W        W 5248  35.107   2.026   2.720
32181W        W 5249  36.607  31.200   3.569
32182W        W 5250   6.715   0.568   2.286
32183W        W 5251   3.257  35.389  12.698
32184W        W 5252  43.996  14.732  13.487
32185W        W 5253  14.150  39.905   3.467
32186W        W 5254  37.509  42.056   1.934
32187W        W 5255  11.800  39.605  12.050
32188W        W 5256   5.510  43.250   1.363
32189W        W 5257  37.318  13.885   0.519
32190W        W 5258   1.860  22.472   0.045
32191W        W 5259   9.121  25.693  11.441
32192W        W 5260  42.613  37.006   2.301
32193W        W 5261  31.877   1.989   3.787
32194W        W 5262   8.746  11.099   1.756
32195W        W 5263  26.701  30.140  10.726
32196W        W 5264  19.273  22.005   0.508
32197W        W 5265  10.891   0.422  11.622
32198W        W 5266  40.050  21.627   1.655
32199W        W 5267  24.020  39.979   5.093
32200W        W 5268  24.026   9.508  11.585
32201W        W 5269   1.853  26.726   0.877
32202W        W 5270   5.839  28.596   2.837
32203W        W 5271  14.315  41.098   2.665
32204W        W 5272  36.848  23.395   3.280
32205W        W 5273  33.622  26.600  14.909
32206W        W 5274  41.304  24.750  11.549
32207W        W 5275  31.539  32.100   2.476
32208W        W 5276  30.837  36.737   1.263
32209W        W 5277  40.531  33.096   1.144
32210W        W 5278  26.550  38.621  14.738
32211W        W 5279  38.543   4.177   0.290
32212W        W 5280  16.210  29.177  14.525
32213W        W 5281  21.172  10.620  14.737
32214W        W 5282  10.627  23.704   2.456
32215W        W 5283  11.825   4.869  14.360
32216W        W 5284  11.273  13.784   4.231
32217W        W 5285   4.910  23.603   4.373
32218W        W 5286   3.434  42.396  14.324
32219W        W 5287  32.432   6.772  13.279
32220W        W 5288  15.767  23.752   5.080
32221W        W 5289  43.210  39.320   2.672
32222W        W 5290  10.930   5.395  13.570
32223W        W 5291  35.965  13.655  12.362
32224W        W 5292  35.113  31.515  11.669
32225W        W 5293   0.382   2.006   1.388
32226W        W 5294   8.154   9.861  13.335
32227W        W 5295  27.695  14.663   0.352
32228W        W 5296   3.641  21.519   0.481
32229W        W 5297  34.580  13.086  11.667
32230W        W 5298  15.443   7.777   3.014
32231W        W 5299  30.042  12.239   0.786
32232W        W 5300  16.090  37.441  10.612
32233W        W 5301  38.768  29.673   5.327
32234W        W 5302  12.825   6.643  11.307
32235W        W 5303  16.625  10.542   4.103
32236W        W 5304  44.153  41.925  12.585
32237W        W 5305  31.646  30.019   4.121
32238W        W 5306   0.363  26.440   3.687
32239W        W 5307  43.458  44.450  14.780
32240W        W 5308  19.779  36.851   3.763
32241W        W 5309  33.583  44.450   2.259
32242W        W 5310  25.694  17.231  11.607
32243W        W 5311  16.596  12.096   0.264
32244W        W 5312  42.109  39.903   1.398
32245W        W 5313  31.168  10.826   1.387
32246W        W 5314   4.959  31.370   3.287
32247W        W 5315  44.656   4.423   1.752
32248W        W 5316  25.805  43.970   3.219
32249W        W 5317  32.938  37.418  14.136
32250W        W 5318  18.549   5.338  11.664
32251W        W 5319   6.111  41.964  10.356
32252W        W 5320   7.441   2.350  10.760
32253W        W 5321   4.031   4.746  11.068
32254W        W 5322  28.185  23.145   1.247
32255W        W 5323  39.979  31.587   3.146
32256W        W 5324  28.597  40.537   2.392
32257W        W 5325  23.696  38.626   0.727
32258W        W 5326  38.258  23.556  11.094
32259W        W 5327   3.163  43.706  12.236
32260W        W 5328  32.617  16.575  11.115
32261W        W 5329   5.153  25.176  11.016
32262W        W 5330  38.822  37.052   3.209
32263W        W 5331  13.815  36.997  14.523
32264W        W 5332  14.916  12.645  14.796
32265W        W 5333  40.809  30.053   1.960
32266W        W 5334  24.914   6.576   0.909
32267W        W 5335  26.049  21.436   3.742
32268W        W 5336  24.662   7.300   0.736
32269W        W 5337  41.241  20.015   0.799
32270W        W 5338  40.514  44.657   4.138
32271W        W 5339  37.496  22.168  13.800
32272W        W 5340  13.661  21.724  13.708
32273W        W 5341  34.682  16.100  11.873
32274W        W 5342  19.013  13.827   2.700
32275W        W 5343  22.019   7.651  13.066
32276W        W 5344  39.286  44.864  14.500
32277W        W 5345  13.694   9.179  10.940
32278W        W 5346  32.840   3.267  14.914
32279W        W 5347   4.757   6.180  12.614
32280W        W 5348  44.437  26.753  11.461
32281W        W 5349  38.844  37.940   2.196
32282W        W 5350  15.268  12.002   1.206
32283W        W 5351  33.401  31.751   4.068
32284W        W 5352  42.935  22.549   1.473
32285W        W 5353  16.595  34.220   1.280
32286W        W 5354  15.007  15.294   2.634
32287W        W 5355   6.889  17.029   0.458
32288W        W 5356  24.697  31.241  14.482
32289W        W 5357  31.174  33.925   3.205
32290W        W 5358  37.015   4.870   1.872
32291W        W 5359   6.851  13.574  13.448
32292W        W 5360  31.420  10.389  13.528
32293W        W 5361   8.222  21.163   0.502
32294W        W 5362  26.921  41.054   2.712
32295W        W 5363   0.421  28.942  13.554
32296W        W 5364  19.819  13.855   4.077
32297W        W 5365  20.192  15.535   1.672
32298W        W 5366  21.080  37.441   0.878
32299W        W 5367  18.714   2.481   2.395
32300W        W 5368   6.951  19.583  11.138
32301W        W 5369  28.054   8.284   2.177
32302W        W 5370  28.271  22.788   0.405
32303W        W 5371   1.435  31.594  10.684
32304W        W 5372  34.618  19.004   4.339
32305W        W 5373  37.857  20.719  13.466
32306W        W 5374   9.635  15.314   3.467
32307W        W 5375  11.289  22.646  14.600
32308W        W 5376  27.772  43.382   1.457
32309W        W 5377  16.526  25.484  12.845
32310W        W 5378  40.709   0.986   5.014
32311W        W 5379  37.910  32.525  12.616
32312W        W 5380  39.170   9.730   2.859
32313W        W 5381   7.658  12.072  11.665
32314W        W 5382  36.559  25.875  13.075
32315W        W 5383  24.310  19.535   4.598
32316W        W 5384   5.717  26.097  14.600
32317W        W 5385  20.671  43.532   9.854
32318W        W 5386  43.945  35.818   3.755
32319W        W 5387  31.551  27.134   0.907
32320W        W 5388  24.506  43.291  10.734
32321W        W 5389  27.692  36.973  12.516
32322W        W 5390  19.185  16.187   1.147
32323W        W 5391  38.840  39.510  10.984
32324W        W 5392  24.648  28.545   1.743
32325W        W 5393  17.552  28.876  11.889
32326W        W 5394  43.221  15.749   4.528
32327W        W 5395  13.197   8.842  13.049
32328W        W 5396  44.048  18.359   2.842
32329W        W 5397  30.527  25.069   3.765
32330W        W 5398  19.223  32.628   0.001
32331W        W 5399  33.078  25.759  13.524
32332W        W 5400  39.431   8.314  14.487
32333W        W 5401  12.674  18.170  13.803
32334W        W 5402   1.307  23.738  11.097
32335W        W 5403  12.201  18.240  10.251
32336W        W 5404  22.571  20.606   1.654
32337W        W 5405   5.647  32.972   4.833
32338W        W 5406  11.968   0.405   2.976
32339W        W 5407  37.847  14.743   0.896
32340W        W 5408  43.344  39.943   2.237
32341W        W 5409  34.936  29.436   3.781
32342W        W 5410  33.464  11.612  11.606
32343W        W 5411  32.589   7.870  14.288
32344W        W 5412  35.120   3.463  12.654
32345W        W 5413  33.378  19.454  11.199
32346W        W 5414  22.000  24.817  13.362
32347W        W 5415   4.926  43.884   0.972
32348W        W 5416  26.970  11.166   4.152
32349W        W 5417  44.552  25.547  12.413
32350W        W 5418   0.246  41.061   2.325
32351W        W 5419   6.253  27.932   1.269
32352W        W 5420  34.344  13.153   3.788
32353W        W 5421   1.692   2.332   3.146
32354W        W 5422   2.514  34.674   2.836
32355W        W 5423   4.341  17.693  12.137
32356W        W 5424  40.501   9.252  11.421
32357W        W 5425  33.356  26.975  13.068
32358W        W 5426  24.775   2.847  11.055
32359W        W 5427  18.618   1.458  13.002
32360W        W 5428   8.718  16.094   0.518
32361W        W 5429  28.001  41.909  12.998
32362W        W 5430  22.013  26.539   2.200
32363W        W 5431  43.609  25.113   4.154
32364W        W 5432  17.667  36.140  12.561
32365W        W 5433  15.636  34.376   4.880
32366W        W 5434  42.247  33.382   1.644
32367W        W 5435  34.486  10.605  12.932
32368W        W 5436  24.585   3.218  11.592
32369W        W 5437  28.259  35.581  10.285
32370W        W 5438  18.120  34.023   4.582
32371W        W 5439  35.513  40.297  12.904
32372W        W 5440  32.465  33.167   2.234
32373W        W 5441  27.070  17.886  14.187
32374W        W 5442  15.274   5.958  14.403
32375W        W 5443  42.359   1.805   3.641
32376W        W 5444  21.860  33.498   3.244
32377W        W 5445  39.933  36.383   4.919
32378W        W 5446  34.566   1.055  11.878
32379W        W 5447  30.129  22.497   0.350
32380W        W 5448   6.469   7.846   3.732
32381W        W 5449  31.110  39.812   1.303
32382W        W 5450   2.463  21.492  13.242
32383W        W 5451  18.705  27.189   0.028
32384W        W 5452  38.502  33.373  12.092
32385W        W 5453  32.933  20.788   2.523
32386W        W 5454  25.241  38.855   1.453
32387W        W 5455  28.183  33.958   3.462
32388W        W 5456  38.531  20.684  10.704
32389W        W 5457  18.474  44.000  10.482
32390W        W 5458  30.011  37.639  14.518
32391W        W 5459  14.409  19.733  11.998
32392W        W 5460  17.149  36.416   4.850
32393W        W 5461   0.913  38.758   2.237
32394W        W 5462   4.630  15.746  12.148
32395W        W 5463  14.298   3.391  11.202
32396W        W 5464  44.401   1.864   4.216
32397W        W 5465  27.540  12.121  12.016
32398W        W 5466  10.246  15.096   2.888
32399W        W 5467  18.158  40.561  14.483
32400W        W 5468  29.104  18.106  13.401
32401W        W 5469  22.358  27.941   4.227
32402W        W 5470  22.042  35.318  11.545
32403W        W 5471  44.972   3.240   0.231
32404W        W 5472  39.368  28.456  12.552
32405W        W 5473  32.989  43.954  12.541
32406W        W 5474   7.973  24.906  11.681
32407W        W 5475  42.893  41.078  12.497
32408W        W 5476  22.993  30.877  13.332
32409W        W 5477  14.591  20.113   4.040
32410W        W 5478  18.693   7.802  12.878
32411W        W 5479   6.628   7.960  11.352
32412W        W 5480  30.170  13.912  13.850
32413W        W 5481  40.549  11.623   1.848
32414W        W 5482  18.115  36.340  10.762
32415W        W 5483  23.180   9.504   2.233
32416W        W 5484   5.886   2.634  11.107
32417W        W 5485   8.395  17.727   4.820
32418W        W 5486  26.927  27.545  10.153
32419W        W 5487  15.108  21.262   2.256
32420W        W 5488  31.093  22.590   2.864
32421W        W 5489  24.266  12.581   2.381
32422W        W 5490  36.705  23.686  11.964
32423W        W 5491  35.789  36.485  14.753
32424W        W 5492  39.514   5.861  14.288
32425W        W 5493  40.071   7.678  14.204
32426W        W 5494  26.436  12.248   0.863
32427W        W 5495  44.504   1.336  11.682
32428W        W 5496  14.253  14.092  12.824
32429W        W 5497   7.109  16.904  12.802
32430W        W 5498  27.672  37.305  14.753
32431W        W 5499  11.299  41.626   2.882
32432W        W 5500  27.772  33.397  13.011
32433W        W 5501  14.166   2.437  14.490
32434W        W 5502   5.911  38.311   0.877
32435W        W 5503   3.171  33.083  11.153
32436W        W 5504   9.347   5.484  11.142
32437W        W 5505   6.827  11.935   3.660
32438W        W 5506  29.450  25.511   3.230
32439W        W 5507  39.652  18.024   3.708
32440W        W 5508  38.292  41.771   4.519
32441W        W 5509   3.944   4.872   3.889
32442W        W 5510  39.205  34.506  12.264
32443W        W 5511  44.490  17.311   0.445
32444W        W 5512  31.816  42.425  14.898
32445W        W 5513   1.814  30.140  14.090
32446W        W 5514   7.759  33.343  14.059
32447W        W 5515  13.216  10.787   4.102
32448W        W 5516  30.495   1.281  12.049
32449W        W 5517  33.331  22.931   0.952
32450W        W 5518   5.763  32.436   4.689
32451W        W 5519  11.770  33.676  14.468
32452W        W 5520  14.008  23.177  12.480
32453W        W 5521  16.062   3.140  13.068
32454W        W 5522   2.280  38.852  13.736
32455W        W 5523  17.620  26.001   0.470
32456W        W 5524  18.749  21.553  11.576
32457W        W 5525  17.727  20.080   1.658
32458W        W 5526  36.248  12.097  13.109
32459W        W 5527  43.926  40.245   4.255
32460W        W 5528  34.104  44.287   1.277
32461W        W 5529  21.579   7.241   2.673
32462W        W 5530  43.583  32.223   3.709
32463W        W 5531  19.146   6.444  14.865
32464W        W 5532  27.046  32.872   2.244
32465W        W 5533  23.017  37.077  12.031
32466W        W 5534   5.919  38.792   3.917
32467W        W 5535  33.065  19.078   2.830
32468W        W 5536  16.636   9.731  12.326
32469W        W 5537  25.564  12.118   0.211
32470W        W 5538  41.058   2.401  14.328
32471W        W 5539   0.198  24.759  14.820
32472W        W 5540  40.311  38.314  14.411
32473W        W 5541   1.984  15.193   0.412
32474W        W 5542  23.201   6.332  12.496
32475W        W 5543  19.413  43.735  13.817
32476W        W 5544  34.901  13.178   3.649
32477W        W 5545  36.987   5.477   2.230
32478W        W 5546  29.450  20.683   0.254
32479W        W 5547  44.208  18.189  11.639
32480W        W 5548  28.889  17.064  14.311
32481W        W 5549  36.583   3.909   1.849
32482W        W 5550   3.526  43.403  12.015
32483W        W 5551  40.834  44.472   0.956
32484W        W 5552   6.806   1.501   2.311
32485W        W 5553  39.871  35.571  11.983
32486W        W 5554  16.106  39.471   0.239
32487W        W 5555   2.277  42.783  14.140
32488W        W 5556  17.647   6.659   2.108
32489W        W 5557  41.430  39.003  11.594
32490W        W 5558   6.147   5.183  11.021
32491W        W 5559  42.987  16.774  13.034
32492W        W 5560  35.011  29.985  10.983
32493W        W 5561  26.577  43.798  11.097
32494W        W 5562  38.254  12.695  12.379
32495W        W 5563   6.366   6.413  14.172
32496W        W 5564  41.382  10.948   0.892
32497W        W 5565   7.904   3.334  14.582
32498W        W 5566  31.514  13.751   4.858
32499W        W 5567   0.980  35.203   4.574
32500W        W 5568  43.678  34.479  13.000
32501W        W 5569  35.208  16.053  11.954
32502W        W 5570  29.981  33.350   1.439
32503W        W 5571  20.735  30.953  11.347
32504W        W 5572  16.289  38.510   0.766
32505W        W 5573  17.535  22.164   1.331
32506W        W 5574   8.676   3.276   2.225
32507W        W 5575  41.035  37.291  10.785
32508W        W 5576  38.323  11.581   0.209
32509W        W 5577   2.098   2.742  13.109
32510W        W 5578  39.832  18.835   0.960
32511W        W 5579  38.211  24.089  11.041
32512W        W 5580   1.391  22.100   1.340
32513W        W 5581  24.047  25.691   0.554
32514W        W 5582  19.577   5.638  12.639
32515W        W 5583  39.565  13.269  12.668
32516W        W 5584  36.876  37.191   3.692
32517W        W 5585   7.195   8.796   0.751
32518W        W 5586  39.543  37.508  13.066
32519W        W 5587   9.656  42.426   4.250
32520W        W 5588  14.830   1.496  12.098
32521W        W 5589  24.991  11.486  12.269
32522W        W 5590  24.591  19.671   2.004
32523W        W 5591  31.607  32.123   1.442
32524W        W 5592  41.538  33.935   1.251
32525W        W 5593  26.498  17.499   1.740
32526W        W 5594  40.416  10.929  14.101
32527W        W 5595  25.221  23.261   3.209
32528W        W 5596  36.419  32.218   0.174
32529W        W 5597  23.614   4.319   3.566
32530W        W 5598  10.135  24.624   4.177
32531W        W 5599  15.388  12.843  14.907
32532W        W 5600  11.940   9.602  13.452
32533W        W 5601  14.229  35.862  11.660
32534W        W 5602  41.920   4.982   5.014
32535W        W 5603   7.367  28.687   4.256
32536W        W 5604  40.976  43.220  12.408
32537W        W 5605  12.782  44.213   4.241
32538W        W 5606  32.210   7.158  14.425
32539W        W 5607  18.269  20.204  13.582
32540W        W 5608  39.279  28.183   4.210
32541W        W 5609  31.476  20.153   0.705
32542W        W 5610   1.344  20.273   3.712
32543W        W 5611  43.398  12.213   4.131
32544W        W 5612  28.294  32.977   1.362
32545W        W 5613   6.195   5.038   0.186
32546W        W 5614  37.802  23.325   2.732
32547W        W 5615  11.391   6.659   0.733
32548W        W 5616   2.534  13.822   2.775
32549W        W 5617  37.934  36.708   2.294
32550W        W 5618  40.140  43.984   3.625
32551W        W 5619  28.365  11.837   3.368
32552W        W 5620  30.165  16.819  12.018
32553W        W 5621   3.820  39.301  11.252
32554W        W 5622   3.898  34.478   9.839
32555W        W 5623  38.530  41.107  12.497
32556W        W 5624  38.286   4.610   0.409
32557W        W 5625   2.507   2.382  11.576
32558W        W 5626  25.435   3.559  13.792
32559W        W 5627  37.499   1.748   0.419
32560W        W 5628  10.942   2.977  12.413
32561W        W 5629  25.003  23.372  13.732
32562W        W 5630  11.719   5.448   3.770
32563W        W 5631  44.969  20.137   3.801
32564W        W 5632   0.634   8.835  11.386
32565W        W 5633   6.776  34.100   2.215
32566W        W 5634   9.299  30.165  13.557
32567W        W 5635  14.690  25.013   0.973
32568W        W 5636   7.205   3.926  11.565
32569W        W 5637  41.503   9.177  14.598
32570W        W 5638   7.904  18.664   3.265
32571W        W 5639   9.128  15.364  13.939
32572W        W 5640   4.082  13.735  13.935
32573W        W 5641  27.457   6.115   1.315
32574W        W 5642  41.265  33.624   4.074
32575W        W 5643  16.529  23.444   1.913
32576W        W 5644   2.023  30.967   4.940
32577W        W 5645  14.852   4.611  11.527
32578W        W 5646  23.275  25.632   3.046
32579W        W 5647  29.025  33.472   2.962
32580W        W 5648  43.417  21.752   1.227
32581W        W 5649   5.900  33.887   0.070
32582W        W 5650  38.525  38.567  14.336
32583W        W 5651  44.991  12.849  13.898
32584W        W 5652   7.293  18.495   3.712
32585W        W 5653  10.958  35.334  13.978
32586W        W 5654  11.855  19.164  10.644
32587W        W 5655  29.559  18.546   3.253
32588W        W 5656  39.519   6.718  12.882
32589W        W 5657  33.500  35.872   4.384
32590W        W 5658  25.016  30.540  10.943
32591W        W 5659  13.403  22.211  10.485
32592W        W 5660  36.801  19.665   4.574
32593W        W 5661  28.585  41.985   3.668
32594W        W 5662   0.160  24.870   4.175
32595W        W 5663  27.396  36.373  12.885
32596W        W 5664  26.016  43.411   3.429
32597W        W 5665  19.539  17.283  10.600
32598W        W 5666  14.859   1.265   2.653
32599W        W 5667  30.632  17.666  10.923
32600W        W 5668   3.683  44.762   0.762
32601W        W 5669   0.546  26.939  12.837
32602W        W 5670  29.690  11.866  11.012
32603W        W 5671  25.468  31.449   2.840
32604W        W 5672  30.232  44.769  14.641
32605W        W 5673  22.978  24.651   1.836
32606W        W 5674  33.669  14.341  14.854
32607W        W 5675  31.437  21.032   1.793
32608W        W 5676  36.645  40.319  10.594
32609W        W 5677  10.340   2.870   0.534
32610W        W 5678   7.570   7.248   0.822
32611W        W 5679  18.575  42.037   1.729
32612W        W 5680  34.872  13.282   0.523
32613W        W 5681  43.517  25.661   1.703
32614W        W 5682  23.226  15.121   4.847
32615W        W 5683  30.536  41.399   3.621
32616W        W 5684  40.490   9.058   4.189
32617W        W 5685  37.954  39.438   1.465
32618W        W 5686  43.831  11.163  12.555
32619W        W 5687  24.583  36.498  12.675
32620W        W 5688  19.650  34.148  11.337
32621W        W 5689  11.605   4.732   3.057
32622W        W 5690  23.620   8.172   3.721
32623W        W 5691  33.354   4.727   3.535
32624W        W 5692  20.563  21.321   0.918
32625W        W 5693  40.908  43.959   1.094
32626W        W 5694  21.487  35.247  10.725
32627W        W 5695  14.601  43.763  11.487
32628W        W 5696  12.332  29.996  11.666
32629W        W 5697  21.237  27.679   1.729
32630W        W 5698  22.152  11.848   0.368
32631W        W 5699  27.346  15.111   3.524
32632W        W 5700  24.320   3.419   1.953
32633W        W 5701  42.709  28.921   0.212
32634W        W 5702  26.641  33.717  10.672
32635W        W 5703   3.597   8.122  11.118
32636W        W 5704   7.821  32.553   2.260
32637W        W 5705   2.954  26.989  13.927
32638W        W 5706  22.548  11.616  12.925
32639W        W 5707  23.954  31.065  10.796
32640W        W 5708  42.621   2.205  11.168
32641W        W 5709  36.587  22.949   3.195
32642W        W 5710  11.776   7.807  14.217
32643W        W 5711  30.642   2.122  14.759
32644W        W 5712   5.522  27.570  11.981
32645W        W 5713  13.340  41.538  10.548
32646W        W 5714  34.560   5.559  14.053
32647W        W 5715  30.440  44.047   2.574
32648W        W 5716  32.591  44.744  14.414
32649W        W 5717  27.732  23.622  13.176
32650W        W 5718  34.728  41.205  12.112
32651W        W 5719  44.066  28.486  13.864
32652W        W 5720  10.634   7.298   5.076
32653W        W 5721   0.450   0.400   2.813
32654W        W 5722  16.056  17.966   4.108
32655W        W 5723  10.961  17.677   0.873
32656W        W 5724  29.848   2.247  11.168
32657W        W 5725  29.714  29.979  10.592
32658W        W 5726  21.736   8.587   2.118
32659W        W 5727   1.426  17.292   4.224
32660W        W 5728  29.754  23.260  13.780
32661W        W 5729  21.143  22.091  12.174
32662W        W 5730  32.541   0.190  12.329
32663W        W 5731  27.795  34.873  12.826
32664W        W 5732   7.320  22.548  13.007
32665W        W 5733   7.807  24.556  12.069
32666W        W 5734   8.878   8.880   0.952
32667W        W 5735  42.824  18.924  13.545
32668W        W 5736  35.337   1.524   2.677
32669W        W 5737  21.888   1.882  13.576
32670W        W 5738   6.501  19.478  14.873
32671W        W 5739  25.092  29.633   1.326
32672W        W 5740  38.774  17.405   3.390
32673W        W 5741  42.146  43.870  10.492
32674W        W 5742  39.682   5.937   5.499
32675W        W 5743  23.585  19.304  12.880
32676W        W 5744  42.774   5.382   2.369
32677W        W 5745  26.819  31.084   1.758
32678W        W 5746  14.081  23.030  14.307
32679W        W 5747   8.885  38.156   1.025
32680W        W 5748   3.294  17.508   2.805
32681W        W 5749  39.241  42.909   1.736
32682W        W 5750   2.174  22.187  14.682
32683W        W 5751  16.121  17.982  12.540
32684W        W 5752   9.657  23.247  12.977
32685W        W 5753   8.644  14.968  12.101
32686W        W 5754  15.353  10.302   2.338
32687W        W 5755  12.176  18.229   1.667
32688W        W 5756  38.555  37.413   3.437
32689W        W 5757  15.518   8.729   3.406
32690W        W 5758  29.351   9.387  13.946
32691W        W 5759  10.232  37.274  12.874
32692W        W 5760  20.802   0.499  12.524
32693W        W 5761   0.805  10.317  10.308
32694W        W 5762   7.813  22.628  14.508
32695W        W 5763  28.643   4.444   2.870
32696W        W 5764  38.961  32.408   4.152
32697W        W 5765  44.388  23.606  13.030
32698W        W 5766   3.421   8.883   0.888
32699W        W 5767  22.136   4.696   3.912
32700W        W 5768  11.401  33.603   3.436
32701W        W 5769  29.266  32.082   1.163
32702W        W 5770  40.432  32.627   3.814
32703W        W 5771  14.732   9.828   0.506
32704W        W 5772  39.669  28.002  13.841
32705W        W 5773   4.806   8.682  11.626
32706W        W 5774  31.220   2.895   3.826
32707W        W 5775  24.703  27.545   1.700
32708W        W 5776  26.562   0.416  11.580
32709W        W 5777  36.891  27.738  12.963
32710W        W 5778   7.615   3.660   3.458
32711W        W 5779  42.529   4.298   1.907
32712W        W 5780  34.334  25.245   4.400
32713W        W 5781   6.895  30.997   3.240
32714W        W 5782  19.079  39.768  12.637
32715W        W 5783  31.094   0.680  12.966
32716W        W 5784   3.161   8.431   0.905
32717W        W 5785   7.895   9.229  13.457
32718W        W 5786  30.401  13.641   1.817
32719W        W 5787   7.820  19.974   0.208
32720W        W 5788  24.407  17.179  13.394
32721W        W 5789  35.166  26.809  12.432
32722W        W 5790  12.696  20.067   0.009
32723W        W 5791  34.501  32.136  14.467
32724W        W 5792  22.244  10.382  11.520
32725W        W 5793  44.824  44.749  13.230
32726W        W 5794  24.162  14.665   2.404
32727W        W 5795  14.067  35.873   0.694
32728W        W 5796   1.358  43.038  12.535
32729W        W 5797  12.604  16.683   5.461
32730W        W 5798   8.802   7.952   1.005
32731W        W 5799  44.797  11.731  13.385
32732W        W 5800   1.123  22.921  11.125
32733W        W 5801  17.249  37.930   4.482
32734W        W 5802  25.602  41.350   0.960
32735W        W 5803  36.901  16.774   4.674
32736W        W 5804  35.471  35.539   3.855
32737W        W 5805  30.179  24.709   2.190
32738W        W 5806   8.397  10.205   0.727
32739W        W 5807  32.006  32.104  13.275
32740W        W 5808  24.234  26.457  11.517
32741W        W 5809  17.216  24.993  11.533
32742W        W 5810  20.311  19.860   2.216
32743W        W 5811  33.634  13.245   4.706
32744W        W 5812   8.175  32.072  10.752
32745W        W 5813  43.717  20.970  10.647
32746W        W 5814  16.621  23.734  13.301
32747W        W 5815  23.022  22.729  11.764
32748W        W 5816   8.111  37.972   3.774
32749W        W 5817  12.351  19.191  14.061
32750W        W 5818  34.230  42.914  12.999
32751W        W 5819  20.580  26.612   2.296
32752W        W 5820  32.899  11.815  12.425
32753W        W 5821  17.278  22.970  10.924
32754W        W 5822  24.785  11.801   3.138
32755W        W 5823  14.788  25.136   0.417
32756W        W 5824  14.069  42.681  13.366
32757W        W 5825   8.113  13.208   4.607
32758W        W 5826  18.070   2.882  13.206
32759W        W 5827  30.870  29.493  14.940
32760W        W 5828  36.986  34.436  14.978
32761W        W 5829  23.938  12.815   1.497
32762W        W 5830  15.043   5.850  14.900
32763W        W 5831  44.525   0.218  14.884
32764W        W 5832  21.778  14.894  14.481
32765W        W 5833  25.976  27.725  12.070
32766W        W 5834  41.858  25.581  12.602
32767W        W 5835  29.855  41.174  12.130
32768W        W 5836  20.733   5.664   4.175
32769W        W 5837   7.891   2.534   4.816
32770W        W 5838   2.376  33.662   2.312
32771W        W 5839  34.876  18.028   0.449
32772W        W 5840  27.241  42.404   3.161
32773W        W 5841   1.424   1.158  11.237
32774W        W 5842  39.063  20.719   5.097
32775W        W 5843  29.869  27.720  14.696
32776W        W 5844  44.077  25.963  11.178
32777W        W 5845  35.377   0.797   1.814
32778W        W 5846  43.868   4.643  13.260
32779W        W 5847  41.927  37.461  11.984
32780W        W 5848  42.068   7.812   0.881
32781W        W 5849   8.134  11.886   1.849
32782W        W 5850  17.801  19.042  11.252
32783W        W 5851  17.363  10.221  10.738
32784W        W 5852  22.017  14.739  10.450
32785W        W 5853  38.826   0.885   4.992
32786W        W 5854  24.253  25.575   3.154
32787W        W 5855  16.774  13.426   3.856
32788W        W 5856  12.668  11.200  10.599
32789W        W 5857  38.847   4.200   4.155
32790W        W 5858  41.180  30.817  11.231
32791W        W 5859  41.209  26.130  14.510
32792W        W 5860  44.506  22.090  14.112
32793W        W 5861  36.343  40.114   4.985
32794W        W 5862  11.790  21.002  10.728
32795W        W 5863  15.329   4.251   0.507
32796W        W 5864   3.470   2.931   0.824
32797W        W 5865  14.145   9.628  11.151
32798W        W 5866  19.228  13.935   1.775
32799W        W 5867  25.567   9.780   5.419
32800W        W 5868  23.387  39.767  11.077
32801W        W 5869  32.671  17.615   0.913
32802W        W 5870  29.001  10.445  13.372
32803W        W 5871  18.004  15.047   3.669
32804W        W 5872  29.159   7.128  14.866
32805W        W 5873  38.911  27.535  10.072
32806W        W 5874  44.064   5.222   4.541
32807W        W 5875   1.741   1.203   1.204
32808W        W 5876  11.356   4.194  13.424
32809W        W 5877   9.766   4.179  14.996
32810W        W 5878   8.497  20.177  13.146
32811W        W 5879  19.600  44.819   0.807
32812W        W 5880  12.602   1.897  13.536
32813W        W 5881  41.554  21.266   3.786
32814W        W 5882  42.922  44.518   2.863
32815W        W 5883  38.052   8.226   2.443
32816W        W 5884   9.109  38.913   0.483
32817W        W 5885  19.668  43.086   0.354
32818W        W 5886  42.458  16.804  12.933
32819W        W 5887  34.151  20.718   0.733
32820W        W 5888  20.740  12.584  11.244
32821W        W 5889  12.785   3.875   3.828
32822W        W 5890  42.025  43.299   0.470
32823W        W 5891  38.088   3.185   0.979
32824W        W 5892  13.657  42.658   1.492
32825W        W 5893  10.894  34.392   1.677
32826W        W 5894  21.918  12.877  12.428
32827W        W 5895  35.770  36.880  11.474
32828W        W 5896  21.544  31.849  14.291
32829W        W 5897  43.254  17.180  14.058
32830W        W 5898  34.380   4.980   2.631
32831W        W 5899   9.427  13.416  12.435
32832W        W 5900   0.773   1.845  14.908
32833W        W 5901  26.820  42.466  10.668
32834W        W 5902  25.541  27.450   0.779
32835W        W 5903   6.465   4.957  14.030
32836W        W 5904   7.177   2.884   2.724
32837W        W 5905   5.913  29.945  10.501
32838W        W 5906  28.879   2.320   3.391
32839W        W 5907   1.435   5.172   3.158
32840W        W 5908  42.339   9.952   2.654
32841W        W 5909   8.732  20.240  12.476
32842W        W 5910  25.092  39.489  14.404
32843W        W 5911  43.480  32.671   0.323
32844W        W 5912  42.288   9.229   4.059
32845W        W 5913  13.658  26.901   1.888
32846W        W 5914  19.284  12.147   1.682
32847W        W 5915  23.479  31.533   0.751
32848W        W 5916  10.270  15.726   3.085
32849W        W 5917  35.063  40.940   4.950
32850W        W 5918  10.732   6.157  11.978
32851W        W 5919  43.021   1.934   3.172
32852W        W 5920   2.914  15.784  12.984
32853W        W 5921  24.628  28.206  13.429
32854W        W 5922   5.248  37.530   3.826
32855W        W 5923  32.634   8.680  12.056
32856W        W 5924  22.939  29.853  13.484
32857W        W 5925  26.390  33.985  12.021
32858W        W 5926  25.181  26.052  12.291
32859W        W 5927  24.955   8.424  11.189
32860W        W 5928  41.869  24.412   0.715
32861W        W 5929  14.685  10.646   1.714
32862W        W 5930   8.787   5.614  11.146
32863W        W 5931  38.415  25.647   0.144
32864W        W 5932  17.691  28.402   3.255
32865W        W 5933  13.830  26.721   2.797
32866W        W 5934  29.146  16.307   4.529
32867W        W 5935  34.087  38.422  11.087
32868W        W 5936  43.531  22.191   3.209
32869W        W 5937   1.808  11.193   0.224
32870W        W 5938  40.519   1.165  12.964
32871W        W 5939  35.516  26.051  12.654
32872W        W 5940   5.242  36.503  11.207
32873W        W 5941  40.734   7.449  10.702
32874W        W 5942  39.946  30.966   0.670
32875W        W 5943  34.524  14.779   3.983
32876W        W 5944   4.294   1.456   0.312
32877W        W 5945  22.587  23.491  12.113
32878W        W 5946   6.351  10.828   0.060
32879W        W 5947   4.926  32.217  12.282
32880W        W 5948  36.435  27.549   3.605
32881W        W 5949  22.494  19.761   2.010
32882W        W 5950  26.574  17.730   2.701
32883W        W 5951  16.203  24.124   2.437
32884W        W 5952  12.085  12.152   0.855
32885W        W 5953  21.156  18.995  13.617
32886W        W 5954  35.211  16.635  14.818
32887W        W 5955  15.045  40.960  11.948
32888W        W 5956  18.300  36.977   1.334
32889W        W 5957  30.202  30.433   3.678
32890W        W 5958  14.727  37.965   2.589
32891W        W 5959  23.088  31.373  13.461
32892W        W 5960  28.400  14.926  11.755
32893W        W 5961  22.198   6.222   2.960
32894W        W 5962  30.095  34.830   4.161
32895W        W 5963  12.676   6.595  10.817
32896W        W 5964   6.406  35.030  12.866
32897W        W 5965  38.074  14.265  14.835
32898W        W 5966  37.147  44.233   2.712
32899W        W 5967  36.903  36.992   3.190
32900W        W 5968  32.562  25.328   2.973
32901W        W 5969  36.121  11.306   0.687
32902W        W 5970  22.045  33.919  12.043
32903W        W 5971  34.179  23.742   4.564
32904W        W 5972  17.342  26.097   2.255
32905W        W 5973  30.435  33.884   2.737
32906W        W 5974  42.401  10.130  11.053
32907W        W 5975  19.710   5.795   2.362
32908W        W 5976   8.657  41.281  13.797
32909W        W 5977  41.586  27.985  13.522
32910W        W 5978   6.632  30.617  13.854
32911W        W 5979  12.051  42.771   4.332
32912W        W 5980  26.941  36.542  10.740
32913W        W 5981  31.458  18.002   1.652
32914W        W 5982  42.308  12.900   1.900
32915W        W 5983  12.266  27.268   4.677
32916W        W 5984  39.324  42.424   3.048
32917W        W 5985   9.285  22.782   2.816
32918W        W 5986   0.997  22.195  12.124
32919W        W 5987  24.631   3.492  12.547
32920W        W 5988  38.536  42.828  11.211
32921W        W 5989  11.179  37.996   4.796
32922W        W 5990   9.255   0.236  12.516
32923W        W 5991  30.904  12.596   2.224
32924W        W 5992  42.394  38.899  10.599
32925W        W 5993  27.211   4.859  13.805
32926W        W 5994  10.751  22.041   4.825
32927W        W 5995  40.614  10.283   3.629
32928W        W 5996   5.219  29.663  13.024
32929W        W 5997  14.509  24.485  11.162
32930W        W 5998  10.176  21.120   1.783
32931W        W 5999  31.651  12.629   3.147
32932W        W 6000  28.169  43.409   4.558
32933W        W 6001  34.761  18.996   1.327
32934W        W 6002  27.087  24.954  13.442
32935W        W 6003  11.078  34.738  13.216
32936W        W 6004   1.970   9.646  12.343
32937W        W 6005   2.234   4.581   2.313
32938W        W 6006  41.180  13.366  10.779
32939W        W 6007  15.316   5.688   1.795
32940W        W 6008   5.220   8.748   1.233
32941W        W 6009  20.152  38.974   0.815
32942W        W 6010  17.144   4.715   4.619
32943W        W 6011  40.410  31.788  10.544
32944W        W 6012  28.401  12.283  14.789
32945W        W 6013  38.528  17.837  11.993
32946W        W 6014  31.427   3.443  11.898
32947W        W 6015  38.644  34.086   3.843
32948W        W 6016  39.588  29.194   1.159
32949W        W 6017  15.764  34.165  13.334
32950W        W 6018  30.159  39.599   1.952
32951W        W 6019  17.655   6.369   3.080
32952W        W 6020  11.248  11.222   2.376
32953W        W 6021  27.416   4.310  13.050
32954W        W 6022  25.950  30.542  11.462
32955W        W 6023   1.358  16.073  14.366
32956W        W 6024  11.388  17.040  13.425
32957W        W 6025  34.996  32.482  11.641
32958W        W 6026  26.531  43.524  13.471
32959W        W 6027  38.116  10.648  13.304
32960W        W 6028  17.213  19.751   4.590
32961W        W 6029  34.465   5.845   1.330
32962W        W 6030  44.395   1.687   0.738
32963W        W 6031  34.389  37.373   4.650
32964W        W 6032  37.122   4.435   2.549
32965W        W 6033  13.224   3.792   1.854
32966W        W 6034   8.527  23.877  10.309
32967W        W 6035  26.257  13.096  14.438
32968W        W 6036  18.781  25.313  12.559
32969W        W 6037  31.412  43.875   3.539
32970W        W 6038  17.846   9.317   1.327
32971W        W 6039  24.020  35.492  13.883
32972W        W 6040  19.210  37.562  14.029
32973W        W 6041  42.385  44.206   0.294
32974W        W 6042   3.716  26.678  13.457
32975W        W 6043   6.949  22.616  12.607
32976W        W 6044  11.675  31.218  12.440
32977W        W 6045  21.815  31.051   3.159
32978W        W 6046  16.138  26.052  12.011
32979W        W 6047  17.736  40.408   0.430
32980W        W 6048  33.047  19.536   5.014
32981W        W 6049  40.903   2.459   1.688
32982W        W 6050   5.787  34.037   2.452
32983W        W 6051   2.710   5.330  13.566
32984W        W 6052  13.390  35.884   4.572
32985W        W 6053  32.974  14.164   0.362
32986W        W 6054  43.899   1.865   3.494
32987W        W 6055  23.089   2.676  14.786
32988W        W 6056  20.931   6.979  11.430
32989W        W 6057  34.248  26.508  12.522
32990W        W 6058  34.821   0.527   0.641
32991W        W 6059   5.968   4.393  10.677
32992W        W 6060   1.347  11.707   4.460
32993W        W 6061  40.508  35.521  14.765
32994W        W 6062  26.161  42.949  12.360
32995W        W 6063  41.250  10.682   0.458
32996W        W 6064  23.029  24.100  14.002
32997W        W 6065   3.798  11.073  12.904
32998W        W 6066   7.952  14.923   2.544
32999W        W 6067  26.663   8.118   3.102
33000W        W 6068  32.987   7.401  13.157
33001W        W 6069  15.137  24.022  10.714
33002W        W 6070  26.600  32.970  10.252
33003W        W 6071  43.990   8.362  13.765
33004W        W 6072  11.237  21.157   1.653
33005W        W 6073  31.082  39.551   0.850
33006W        W 6074  30.345  25.197   1.286
33007W        W 6075  25.479  30.619  11.665
33008W        W 6076  34.461  41.991  13.906
33009W        W 6077   2.294   7.269  11.125
33010W        W 6078  16.671  24.596   4.530
33011W        W 6079  13.965  35.904  12.926
33012W        W 6080  29.563  12.403  12.806
33013W        W 6081  22.552  40.541   2.162
33014W        W 6082  23.231  44.770   4.386
33015W        W 6083   2.341  18.083  10.430
33016W        W 6084  17.600  32.300   1.971
33017W        W 6085  10.340  31.913   1.825
33018W        W 6086  27.566   8.174   3.615
33019W        W 6087  11.746  34.694   2.075
33020W        W 6088   9.367   2.099  14.780
33021W        W 6089  38.902  32.215   0.959
33022W        W 6090   6.216  17.029   2.742
33023W        W 6091  10.273  30.564  14.026
33024W        W 6092  33.996  40.815   3.750
33025W        W 6093  22.170  33.680  14.273
33026W        W 6094  38.969  15.786   2.755
33027W        W 6095  12.026  39.343   4.770
33028W        W 6096  27.431  31.413   0.238
33029W        W 6097   4.668  19.917  14.420
33030W        W 6098  37.940  24.082  13.411
33031W        W 6099   4.275   5.239  13.005
33032W        W 6100  40.073  15.550   4.114
33033W        W 6101   5.129   9.932  11.842
33034W        W 6102  18.606  10.026   3.391
33035W        W 6103  27.646  42.953  11.953
33036W        W 6104  28.561  43.361   0.491
33037W        W 6105   2.022  21.610  11.537
33038W        W 6106  12.250  10.237  11.552
33039W        W 6107  18.751  38.342   2.935
33040W        W 6108  32.958   1.260   3.894
33041W        W 6109  32.149   2.269   4.140
33042W        W 6110  17.093   5.470  14.012
33043W        W 6111   3.707  37.839   0.249
33044W        W 6112  34.063  44.711   2.267
33045W        W 6113  38.991  17.599  11.938
33046W        W 6114  25.744  39.749  14.929
33047W        W 6115  15.312   2.395   3.169
33048W        W 6116  27.795  34.410  13.094
33049W        W 6117  25.596  33.228   2.262
33050W        W 6118  14.600  16.790   0.013
33051W        W 6119   9.302   0.207  10.716
33052W        W 6120   7.288  32.493   4.691
33053W        W 6121  30.846  11.379  12.894
33054W        W 6122  10.661  42.905  14.273
33055W        W 6123  34.567  36.130   3.352
33056W        W 6124  33.374  38.815   5.039
33057W        W 6125   4.181   7.796  14.878
33058W        W 6126  42.798  20.502  13.436
33059W        W 6127  10.306  44.557  14.998
33060W        W 6128  10.154  41.029   1.014
33061W        W 6129  39.271  13.623  13.392
33062W        W 6130  30.800  26.148   3.213
33063W        W 6131  38.603  32.532   3.262
33064W        W 6132  26.009  27.245   0.928
33065W        W 6133  38.127   0.556  13.525
33066W        W 6134  19.438   5.371   1.419
33067W        W 6135  16.228  20.038   1.858
33068W        W 6136  12.213   0.655  11.466
33069W        W 6137   8.811  39.765   0.270
33070W        W 6138  33.889   2.956   4.708
33071W        W 6139  26.582  32.941   2.487
33072W        W 6140  28.421  10.819  13.511
33073W        W 6141  28.693   7.800  11.175
33074W        W 6142  36.242  37.428  12.216
33075W        W 6143   8.154   6.276   2.396
33076W        W 6144  29.288  25.170  14.539
33077W        W 6145  14.084  31.657   2.436
33078W        W 6146  22.134  33.074   3.452
33079W        W 6147  32.941  23.621  11.491
33080W        W 6148   5.125   1.295  11.638
33081W        W 6149  30.072   9.421  11.985
33082W        W 6150   3.158  33.977  12.642
33083W        W 6151  42.255  27.900  10.813
33084W        W 6152  30.553  29.930   3.188
33085W        W 6153  38.834  35.074   1.817
33086W        W 6154  34.594  39.173  14.204
33087W        W 6155  32.878  36.280   2.382
33088W        W 6156  12.614  25.237  12.439
33089W        W 6157   2.391  28.675  14.474
33090W        W 6158  32.479  37.543   2.367
33091W        W 6159  23.310  12.244  13.046
33092W        W 6160  32.292  30.384   2.638
33093W        W 6161  42.275   8.496   2.578
33094W        W 6162  32.851  15.543  10.630
33095W        W 6163  45.000  32.451   4.293
33096W        W 6164  12.902  18.764   0.404
33097W        W 6165  26.013  23.053   3.650
33098W        W 6166  35.922  40.517   2.427
33099W        W 6167  28.654  10.428   4.174
33100W        W 6168  30.113  41.033   1.844
33101W        W 6169  24.230  26.238  12.849
33102W        W 6170  21.076  11.002   0.187
33103W        W 6171  12.820  20.929   1.851
33104W        W 6172   7.137  25.183   3.964
33105W        W 6173  33.896  25.506   4.315
33106W        W 6174  22.681  17.471   2.728
33107W        W 6175  43.627   4.629  13.720
33108W        W 6176   3.137   2.662   4.777
33109W        W 6177   1.544  19.239   1.860
33110W        W 6178  17.491  43.202  14.876
33111W        W 6179  29.359   7.689   0.694
33112W        W 6180   7.906   8.768   1.021
33113W        W 6181  34.157  27.180  11.510
33114W        W 6182  23.823  15.708   3.817
33115W        W 6183  13.259  42.182  14.288
33116W        W 6184  10.585   2.771  12.130
33117W        W 6185  14.033  11.434  13.090
33118W        W 6186  20.899  33.196  11.669
33119W        W 6187  12.537  33.024   3.915
33120W        W 6188  10.748  38.347   3.106
33121W        W 6189   4.298  11.388   3.302
33122W        W 6190  32.400  26.346   3.203
33123W        W 6191  26.155  38.240   3.949
33124W        W 6192  19.114  39.009  11.520
33125W        W 6193  32.383  41.203   4.377
33126W        W 6194  27.517  22.859   4.212
33127W        W 6195  37.214  21.818   3.379
33128W        W 6196  21.286  26.054  14.039
33129W        W 6197  21.839  29.219   4.540
33130W        W 6198  11.431  41.814   2.423
33131W        W 6199   2.455  28.619  11.905
33132W        W 6200   0.883   4.262   4.723
33133W        W 6201   0.417  17.741  12.125
33134W        W 6202  44.044  11.061   2.345
33135W        W 6203  26.106  33.513  14.587
33136W        W 6204  24.396   0.471  11.734
33137W        W 6205  43.291  23.294   4.651
33138W        W 6206   2.397  13.554   4.027
33139W        W 6207   1.485   3.493   1.153
33140W        W 6208   1.289  44.864  13.474
33141W        W 6209  38.246  37.531   2.459
33142W        W 6210  40.710  39.887   4.688
33143W        W 6211  28.069  19.353  14.489
33144W        W 6212   5.655  29.622  15.000
33145W        W 6213   6.471  17.652  10.546
33146W        W 6214  35.912  29.147  11.681
33147W        W 6215  37.784  18.740   4.191
33148W        W 6216   2.997  23.480  12.158
33149W        W 6217  10.557  44.541  11.064
33150W        W 6218  19.644  20.766  12.974
33151W        W 6219   6.746  12.830   1.648
33152W        W 6220  11.859  15.168  13.521
33153W        W 6221   3.810  40.271  13.516
33154W        W 6222  40.735  39.361   2.717
33155W        W 6223  34.500  37.423   2.642
33156W        W 6224  37.025   1.678  11.112
33157W        W 6225  27.216  25.543  11.780
33158W        W 6226  38.831  21.724   4.678
33159W        W 6227  42.834  35.418  11.999
33160W        W 6228   9.917  17.791  13.015
33161W        W 6229  11.334  31.460   4.902
33162W        W 6230  23.064  33.283   1.085
33163W        W 6231  34.255  33.420  13.159
33164W        W 6232  38.065  20.704   3.673
33165W        W 6233   8.412  27.437   2.322
33166W        W 6234  14.082   0.540   3.601
33167W        W 6235  36.918   0.941   3.609
33168W        W 6236  21.664  23.568   3.725
33169W        W 6237  38.785   0.422   4.769
33170W        W 6238  44.445  25.545  12.931
33171W        W 6239  43.505  13.388   1.614
33172W        W 6240   9.297  28.357  12.976
33173W        W 6241  43.529   1.781   0.790
33174W        W 6242   7.709   6.740   0.822
33175W        W 6243  34.007  24.598   4.420
33176W        W 6244  24.942  19.042  13.889
33177W        W 6245  23.192  14.281   4.646
33178W        W 6246  28.655  41.946   3.170
33179W        W 6247  12.639   7.794   1.239
33180W        W 6248  37.384  11.040   3.630
33181W        W 6249  26.758  34.530   2.701
33182W        W 6250  20.579  18.168   1.232
33183W        W 6251  13.608  17.192  13.987
33184W        W 6252  28.133  15.324   1.014
33185W        W 6253  21.843  23.205   3.126
33186W        W 6254  27.740  12.871  12.808
33187W        W 6255  11.229   1.881   1.295
33188W        W 6256  17.237  23.521  10.361
33189W        W 6257  14.366   6.401  12.697
33190W        W 6258   6.647  40.964  12.509
33191W        W 6259  22.612   1.370  14.482
33192W        W 6260  19.311  10.487   0.989
33193W        W 6261  10.322  17.745  13.873
33194W        W 6262  16.666  25.959  13.928
33195W        W 6263  41.367  13.232  11.993
33196W        W 6264  27.047  14.280   0.886
33197W        W 6265  20.179   0.981   4.451
33198W        W 6266  36.541  34.983   0.546
33199W        W 6267   2.925  40.195  13.415
33200W        W 6268  17.658  19.145   0.345
33201W        W 6269   8.156  38.923   1.336
33202W        W 6270  44.232  10.181  12.902
33203W        W 6271  36.874  22.446   1.416
33204W        W 6272  17.595  18.143   3.390
33205W        W 6273   5.443  39.508   1.082
33206W        W 6274   2.130  40.594  12.551
33207W        W 6275  38.753  22.995  10.489
33208W        W 6276  28.711  10.178   0.790
33209W        W 6277  44.887   0.521  13.882
33210W        W 6278  44.667  24.124  10.233
33211W        W 6279  16.266  36.801  14.752
33212W        W 6280  28.634  11.461  10.002
33213W        W 6281  42.092  36.900  14.796
33214W        W 6282  17.677  15.306  12.563
33215W        W 6283   4.433  25.939   2.879
33216W        W 6284   3.473  24.207  14.822
33217W        W 6285  10.235  22.557   1.871
33218W        W 6286  16.363  35.920   2.678
33219W        W 6287  43.567  25.157  12.062
33220W        W 6288  26.228  43.089   1.185
33221W        W 6289  38.000  11.856  13.850
33222W        W 6290  40.409  28.182   0.205
33223W        W 6291  10.321   8.596   3.663
33224W        W 6292  24.967  18.861  10.749
33225W        W 6293  36.915   8.274   1.624
33226W        W 6294  17.479  43.821  14.830
33227W        W 6295   5.208  19.709  11.118
33228W        W 6296  25.548  32.568  13.522
33229W        W 6297   0.756  23.137   3.785
33230W        W 6298  35.507  31.698   1.887
33231W        W 6299  31.140   6.698   2.198
33232W        W 6300  31.341  29.545   0.268
33233W        W 6301  31.324  12.261   2.940
33234W        W 6302  27.071   8.384   4.913
33235W        W 6303  37.067  17.092   0.875
33236W        W 6304   4.663  29.140  12.341
33237W        W 6305  24.631  10.231  11.508
33238W        W 6306  37.422  19.330   0.824
33239W        W 6307   8.918   6.238  14.266
33240W        W 6308   7.790  30.879  10.648
33241W        W 6309  33.119  31.564  11.990
33242W        W 6310  23.737  40.836  12.356
33243W        W 6311  32.762  31.347  10.786
33244W        W 6312  38.094  37.028   2.708
33245W        W 6313  12.864   5.740  10.684
33246W        W 6314  43.655  11.976  10.698
33247W        W 6315  16.732  34.641  14.035
33248W        W 6316  43.493  31.792   2.339
33249W        W 6317  36.282   1.632  10.327
33250W        W 6318  25.931  15.746   0.518
33251W        W 6319  20.436  38.553  10.418
33252W        W 6320   4.148  25.928  12.521
33253W        W 6321   8.821   4.473  14.031
33254W        W 6322   8.711  18.716  14.312
33255W        W 6323  40.447  34.968  13.397
33256W        W 6324  28.705  15.157  11.382
33257W        W 6325   8.731   3.625   2.688
33258W        W 6326   3.103  11.930  12.451
33259W        W 6327  31.446  28.916  14.311
33260W        W 6328   1.245  34.034  12.004
33261W        W 6329  31.213  41.694   4.094
33262W        W 6330   5.936  44.677  12.064
33263W        W 6331  44.223  43.492   0.956
33264W        W 6332  12.617  16.550   4.504
33265W        W 6333  33.631  23.638   1.678
33266W        W 6334   0.956  29.369  11.525
33267W        W 6335  28.079  16.281   3.352
33268W        W 6336  13.822  34.570   2.821
33269W        W 6337   1.956   2.760   4.913
33270W        W 6338  12.900  24.174   1.261
33271W        W 6339   3.477   1.231   1.008
33272W        W 6340  36.086  37.434  13.675
33273W        W 6341  16.376  28.970  13.528
33274W        W 6342  44.958  21.662  12.419
33275W        W 6343  21.115   7.008   2.667
33276W        W 6344  32.759  15.120  11.362
33277W        W 6345  10.975  35.117  10.735
33278W        W 6346  20.691  36.198   4.861
33279W        W 6347  19.159   2.262  11.174
33280W        W 6348  21.541   5.906  10.382
33281W        W 6349  12.702  13.598   2.260
33282W        W 6350  39.756  19.607  13.847
33283W        W 6351  40.904  14.416   4.451
33284W        W 6352  12.400  38.484  13.437
33285W        W 6353   5.223  30.116   4.957
33286W        W 6354  27.091   8.271   0.812
33287W        W 6355  21.043   6.357  11.688
33288W        W 6356   0.230  38.342  12.808
33289W        W 6357  30.382  22.704  12.996
33290W        W 6358  37.992  10.859  11.184
33291W        W 6359  44.929   0.889  13.505
33292W        W 6360   8.475  14.675  10.585
33293W        W 6361  35.598  33.663  10.268
33294W        W 6362  31.652   5.923   3.819
33295W        W 6363  44.895  14.654  14.418
33296W        W 6364  44.346  28.671   3.825
33297W        W 6365  11.543  11.313   1.019
33298W        W 6366  39.929  42.125  12.973
33299W        W 6367  38.998   3.030   1.278
33300W        W 6368  26.536   4.155  14.568
33301W        W 6369   0.580   8.001  12.925
33302W        W 6370  15.551  31.145  12.022
33303W        W 6371   2.136  29.090   2.769
33304W        W 6372  12.240  30.373   0.132
33305W        W 6373  26.367  17.007  11.107
33306W        W 6374  23.679  11.730   1.991
33307W        W 6375  35.173   9.923   0.803
33308W        W 6376  30.039  11.027   0.535
33309W        W 6377  42.264  10.673   0.380
33310W        W 6378  20.796  44.242   0.365
33311W        W 6379   4.767   4.028  13.385
33312W        W 6380   3.532  26.201   2.282
33313W        W 6381   8.195  41.967  12.381
33314W        W 6382   9.504  33.412   4.370
33315W        W 6383  33.035  26.110  11.208
33316W        W 6384  40.451  21.134  14.273
33317W        W 6385   0.825  29.059   2.319
33318W        W 6386  10.747  42.035   0.777
33319W        W 6387  40.219  26.055  14.466
33320W        W 6388  17.580   6.406   2.574
33321W        W 6389  40.718  30.003  11.211
33322W        W 6390   1.306  18.853  13.436
33323W        W 6391  14.285   6.460   4.231
33324W        W 6392  11.265  28.670  14.850
33325W        W 6393  44.154   9.611   2.810
33326W        W 6394   7.119  41.701  14.897
33327W        W 6395  17.544  29.874  12.471
33328W        W 6396  27.860   1.982  13.442
33329W        W 6397  17.446   2.204   4.103
33330W        W 6398   8.341  19.197   4.826
33331W        W 6399  15.649  30.320   4.474
33332W        W 6400  35.009  36.362   0.731
33333W        W 6401  21.511  38.794  13.223
33334W        W 6402   9.362  24.357  13.016
33335W        W 6403  10.804  37.890  13.293
33336W        W 6404  13.470  36.672   2.847
33337W        W 6405  30.893   1.465  11.166
33338W        W 6406  32.138  37.898   0.325
33339W        W 6407  17.326  37.969   3.099
33340W        W 6408  18.203  15.343  14.825
33341W        W 6409  32.889  44.721  10.908
33342W        W 6410  12.103  19.772   0.281
33343W        W 6411  23.712   9.255  11.968
33344W        W 6412  44.041  13.321  12.440
33345W        W 6413   6.192  26.219  12.600
33346W        W 6414  10.813   5.249  14.055
33347W        W 6415  33.311  27.033  14.042
33348W        W 6416   7.750  28.144  11.155
33349W        W 6417   5.924  25.687   2.651
33350W        W 6418  26.204  43.031   2.625
33351W        W 6419  31.109  38.811  11.094
33352W        W 6420   9.321  23.232  11.985
33353W        W 6421  29.615  26.316   4.166
33354W        W 6422  44.862  42.075  11.634
33355W        W 6423  32.940   1.979  10.852
33356W        W 6424  42.955  17.164   0.438
33357W        W 6425  17.772   4.674  13.025
33358W        W 6426  15.076  10.278   3.332
33359W        W 6427  33.492  27.907   4.480
33360W        W 6428  20.053  23.460  14.771
33361W        W 6429  31.687  28.459  10.913
33362W        W 6430  41.384   4.924   0.902
33363W        W 6431  22.378  44.552   1.870
33364W        W 6432  39.526  29.262  11.466
33365W        W 6433  39.999   7.763   1.903
33366W        W 6434   7.115   0.435  13.871
33367W        W 6435   3.712   2.733   3.896
33368W        W 6436  28.254  16.479  11.063
33369W        W 6437  31.068  25.533   0.717
33370W        W 6438  20.434  36.594   0.851
33371W        W 6439  34.504   1.354   1.836
33372W        W 6440  22.187  30.558  10.983
33373W        W 6441  34.658   6.164  12.885
33374W        W 6442  10.640   8.685   3.258
33375W        W 6443  44.264  13.563  10.657
33376W        W 6444   4.349  20.141   4.630
33377W        W 6445  21.735   9.402   3.108
33378W        W 6446  31.609   6.075  14.935
33379W        W 6447  15.959  35.547   1.382
33380W        W 6448  32.147  30.655  14.433
33381W        W 6449  25.618  12.619   0.034
33382W        W 6450   8.922  23.015  13.941
33383W        W 6451  18.031   5.107  13.112
33384W        W 6452  36.078  13.846  14.349
33385W        W 6453  34.049  27.041  13.478
33386W        W 6454  37.389  42.811  13.437
33387W        W 6455   1.333  41.441  12.818
33388W        W 6456  26.706  26.765   2.412
33389W        W 6457   2.867  21.779  14.811
33390W        W 6458  41.287  41.304  13.113
33391W        W 6459  41.511  12.443   0.183
33392W        W 6460   4.790  36.465   3.716
33393W        W 6461   0.967  31.963  11.606
33394W        W 6462  23.673   9.732  13.904
33395W        W 6463  35.515  20.298   0.312
33396W        W 6464  24.591  20.975   3.521
33397W        W 6465   5.327  10.602  11.242
33398W        W 6466  19.292   3.360   2.776
33399W        W 6467  12.725  20.973   2.344
33400W        W 6468  23.965   5.255   2.379
33401W        W 6469   2.498   4.123   2.240
33402W        W 6470   7.309  12.291  14.756
33403W        W 6471  11.796  27.126  13.955
33404W        W 6472  29.244  37.087  11.602
33405W        W 6473  16.281  41.810  11.162
33406W        W 6474  25.998  41.554  13.501
33407W        W 6475  38.055  22.104  11.548
33408W        W 6476  44.841   3.235   3.153
33409W        W 6477  40.931  31.635  11.481
33410W        W 6478  20.475  44.480   3.234
33411W        W 6479  28.159  27.207   2.257
33412W        W 6480  11.598   1.370   1.749
33413W        W 6481   8.806  33.900   1.694
33414W        W 6482  32.942  22.230   3.627
33415W        W 6483  44.443   0.087   4.990
33416W        W 6484  12.136   2.247   1.807
33417W        W 6485  20.802  36.583   0.496
33418W        W 6486  19.534  27.630  12.378
33419W        W 6487   7.436  44.370   2.187
33420W        W 6488  38.905  21.546  11.576
33421W        W 6489  25.194  40.341   2.505
33422W        W 6490   8.005  43.990   1.941
33423W        W 6491  38.977   2.279  12.964
33424W        W 6492  33.493  12.110   2.783
33425W        W 6493  19.924   2.047  10.486
33426W        W 6494  20.651  31.230  13.374
33427W        W 6495  26.732   4.532   3.669
33428W        W 6496   4.712  29.688  11.093
33429W        W 6497  31.295  44.266   9.898
33430W        W 6498  15.800  23.220   0.736
33431W        W 6499   1.961  13.183  13.884
33432W        W 6500  36.121  12.862   0.306
33433W        W 6501  41.009  26.070   4.420
33434W        W 6502  22.356  21.034   0.471
33435W        W 6503  44.052  34.971   1.369
33436W        W 6504  10.342  34.384   0.277
33437W        W 6505   3.426   5.031   2.386
33438W        W 6506  27.292  19.829  14.182
33439W        W 6507  28.048  30.194   2.938
33440W        W 6508  31.915   7.522  12.352
33441W        W 6509  39.071  27.540   2.381
33442W        W 6510  40.267   2.010   0.458
33443W        W 6511  14.539  29.008  10.155
33444W        W 6512  24.304   7.198   2.359
33445W        W 6513   3.761  34.906   4.725
33446W        W 6514   3.000  31.881  12.223
33447W        W 6515  40.956  33.751  13.615
33448W        W 6516  27.815  27.261   1.054
33449W        W 6517  27.085  22.759  12.875
33450W        W 6518   4.166   1.858   2.332
33451W        W 6519  33.352   8.724  12.571
33452W        W 6520  37.355   6.118   3.289
33453W        W 6521  27.885  37.430   5.258
33454W        W 6522  26.774  24.246   1.760
33455W        W 6523  41.949  31.924  13.928
33456W        W 6524  30.661  37.457  14.483
33457W        W 6525  38.412  21.284   1.299
33458W        W 6526   5.748  24.542  12.151
33459W        W 6527  14.098  21.077   2.299
33460W        W 6528  27.166  36.538  14.394
33461W        W 6529  44.169  44.804   0.714
33462W        W 6530  42.335  38.142   0.902
33463W        W 6531  21.475  43.968  13.461
33464W        W 6532   5.935   4.797  14.067
33465W        W 6533   3.729  23.477   2.440
33466W        W 6534  17.690  38.107   0.869
33467W        W 6535  10.337  27.983   0.021
33468W        W 6536  40.703  28.185  13.881
33469W        W 6537  21.501  35.288   3.670
33470W        W 6538  42.289   6.483   1.786
33471W        W 6539  31.582  27.591   0.360
33472W        W 6540   2.361  35.454  12.618
33473W        W 6541  32.901  25.998  14.822
33474W        W 6542  25.961  13.123  12.540
33475W        W 6543  30.554  44.424  11.695
33476W        W 6544  22.485  31.334  14.245
33477W        W 6545   5.177  36.325   3.394
33478W        W 6546  13.074   3.286  12.974
33479W        W 6547  17.074  21.564  11.530
33480W        W 6548   0.251   3.356  13.398
33481W        W 6549  26.196  35.634   1.298
33482W        W 6550  19.495  32.762  12.419
33483W        W 6551  43.868  37.028   0.368
33484W        W 6552  14.026  27.260   4.751
33485W        W 6553   8.653   6.973   4.217
33486W        W 6554  36.417   2.792  10.633
33487W        W 6555  26.243  21.576  11.149
33488W        W 6556  17.873  24.770  14.314
33489W        W 6557  31.494   5.956   4.308
33490W        W 6558   0.705  24.671  14.800
33491W        W 6559  35.378  34.526  14.776
33492W        W 6560  11.147  31.040   4.680
33493W        W 6561  16.632  32.194  11.629
33494W        W 6562  23.700   0.045   3.097
33495W        W 6563  24.944  16.895  10.494
33496W        W 6564  30.964  40.043  14.262
33497W        W 6565  25.622  40.594  13.376
33498W        W 6566  38.646  29.723   3.389
33499W        W 6567  24.646  16.814  14.811
33500W        W 6568  44.846  29.542   0.266
33501W        W 6569  36.343  24.620  14.499
33502W        W 6570  29.259  34.406  10.687
33503W        W 6571   4.975  25.575  12.704
33504W        W 6572  41.234  12.053   2.196
33505W        W 6573  27.163  18.281   1.918
33506W        W 6574  12.409   1.376   1.268
33507W        W 6575  17.818  40.412   2.267
33508W        W 6576  17.805  39.103  11.182
33509W        W 6577   7.201  38.898   0.300
33510W        W 6578  43.938  34.008  12.306
33511W        W 6579  26.118   9.378  11.997
33512W        W 6580  20.429  33.866  12.422
33513W        W 6581  12.073   2.915  13.567
33514W        W 6582  44.024  29.390   1.339
33515W        W 6583  41.838   5.618  10.984
33516W        W 6584   0.303  11.868   1.391
33517W        W 6585  36.349  36.029  11.487
33518W        W 6586  10.297  12.566   1.875
33519W        W 6587  14.778  25.186   4.192
33520W        W 6588   4.139  44.479   1.609
33521W        W 6589  19.722  25.942   3.260
33522W        W 6590  27.124   4.822   0.669
33523W        W 6591  28.593  16.319  12.066
33524W        W 6592  23.717  14.264  12.022
33525W        W 6593  32.976  37.585  13.132
33526W        W 6594  19.740  30.730   2.390
33527W        W 6595  39.455  27.526  12.326
33528W        W 6596  29.950  38.113  11.488
33529W        W 6597  39.781   8.375  14.849
33530W        W 6598   7.532  32.586  12.034
33531W        W 6599  33.624  14.029  12.505
33532W        W 6600  30.437   5.837  11.719
33533W        W 6601  24.625  23.172   1.694
33534W        W 6602  22.022  36.579  10.832
33535W        W 6603  14.395  19.631  11.087
33536W        W 6604   2.940  16.364   0.517
33537W        W 6605  22.213  41.522  13.427
33538W        W 6606   3.400  36.241   4.876
33539W        W 6607  10.796  20.675   1.478
33540W        W 6608  37.348  32.956   2.554
33541W        W 6609  21.053   3.474   2.376
33542W        W 6610  10.215   2.452   4.227
33543W        W 6611  16.132  41.345  14.733
33544W        W 6612  25.165   1.754   1.813
33545W        W 6613   6.894  29.366  14.595
33546W        W 6614   3.697  29.056  14.777
33547W        W 6615  14.517  29.011  11.510
33548W        W 6616  10.888   8.893  11.444
33549W        W 6617  33.672  31.554  14.365
33550W        W 6618  16.714  37.745   2.281
33551W        W 6619  10.937  30.104  11.296
33552W        W 6620  40.605  19.681  14.872
33553W        W 6621   8.613  44.611   2.758
33554W        W 6622   1.426  31.096   2.189
33555W        W 6623  17.171  16.067   4.055
33556W        W 6624  22.657  14.271   4.673
33557W        W 6625  22.168  41.268   2.369
33558W        W 6626  33.401   4.745  11.343
33559W        W 6627  34.455   3.746  12.151
33560W        W 6628  13.529   8.243  11.401
33561W        W 6629  16.725  31.032   3.264
33562W        W 6630  26.778   9.869  10.045
33563W        W 6631  11.964  24.551   3.896
33564W        W 6632  29.610  34.989   1.228
33565W        W 6633   7.967  29.385   1.298
33566W        W 6634  22.191  39.797   2.225
33567W        W 6635  30.593  22.609   2.721
33568W        W 6636  33.064  13.795  11.746
33569W        W 6637  12.146  42.549  13.634
33570W        W 6638  21.300  41.016   2.010
33571W        W 6639  26.807  33.621  12.045
33572W        W 6640  16.199  41.490  10.618
33573W        W 6641  24.172  34.979   2.733
33574W        W 6642  21.136   4.316   3.671
33575W        W 6643  26.643  14.867   1.972
33576W        W 6644   1.227  44.907   4.022
33577W        W 6645  24.588  39.802  14.948
33578W        W 6646  23.425   1.805   0.688
33579W        W 6647  11.931  14.206  13.385
33580W        W 6648   4.617  28.496   0.633
33581W        W 6649  37.705  44.381   1.279
33582W        W 6650  38.504  43.520  10.858
33583W        W 6651  28.036  26.298   0.746
33584W        W 6652  20.808  16.783   0.256
33585W        W 6653  20.373  37.416   3.136
33586W        W 6654  30.602  26.890  14.214
33587W        W 6655  22.046  11.525  11.229
33588W        W 6656   2.851  29.863  10.461
33589W        W 6657   9.434  24.577   2.297
33590W        W 6658  25.608  38.026   4.190
33591W        W 6659   6.773  41.304   2.133
33592W        W 6660  17.282   5.779  13.583
33593W        W 6661  24.922  32.126  13.486
33594W        W 6662  35.184  28.358  13.752
33595W        W 6663  40.923  39.061   3.220
33596W        W 6664  13.746  38.141   1.666
33597W        W 6665  14.035  33.532  10.934
33598W        W 6666  32.456   2.344  12.823
33599W        W 6667  11.007   8.622  11.001
33600W        W 6668  43.381   0.411   1.626
33601W        W 6669  16.343  20.341  14.139
33602W        W 6670  36.732  39.026   0.409
33603W        W 6671  26.959  18.083   0.553
33604W        W 6672  35.635  29.416   1.747
33605W        W 6673  30.985  33.400   3.286
33606W        W 6674   5.302  39.945   4.576
33607W        W 6675  31.976  22.251   4.588
33608W        W 6676  24.526  39.080  11.621
33609W        W 6677  35.115   5.424  14.124
33610W        W 6678   0.516  33.725  13.129
33611W        W 6679  16.212  34.194   0.917
33612W        W 6680   7.264  38.294  13.789
33613W        W 6681  27.157  25.392  12.793
33614W        W 6682  43.277   3.345  14.552
33615W        W 6683  42.929  34.590   1.896
33616W        W 6684  43.792  22.722   4.051
33617W        W 6685  27.238  31.701  13.477
33618W        W 6686  14.561  42.614  11.876
33619W        W 6687   1.269   4.951  14.563
33620W        W 6688  21.633  16.507  13.095
33621W        W 6689   7.734  30.369  10.627
33622W        W 6690  39.608  38.315  10.703
33623W        W 6691  33.344   2.550   1.346
33624W        W 6692   8.774  38.042   4.227
33625W        W 6693  30.160  19.049  12.182
33626W        W 6694  33.050  33.913   0.823
33627W        W 6695  19.591  43.619   0.205
33628W        W 6696  15.749   1.355  12.814
33629W        W 6697  14.714  12.245  11.857
33630W        W 6698  31.414  40.901   0.731
33631W        W 6699  43.747  13.617   1.195
33632W        W 6700  11.871  35.504   2.274
33633W        W 6701  27.180  34.616   0.400
33634W        W 6702  21.576  15.332  11.462
33635W        W 6703  22.614  18.322   2.338
33636W        W 6704  42.681   8.878   0.922
33637W        W 6705  26.679  32.492   2.236
33638W        W 6706  32.753  40.919   3.174
33639W        W 6707  11.146  21.187   4.573
33640W        W 6708  35.264  13.292   1.271
33641W        W 6709   4.045  17.733   0.225
33642W        W 6710   5.899  25.382   0.783
33643W        W 6711  14.156   7.840   2.234
33644W        W 6712  15.088  11.915   4.945
33645W        W 6713  15.587  43.940   2.716
33646W        W 6714  12.846  43.679   1.014
33647W        W 6715  13.191  17.197  11.377
33648W        W 6716  44.041  33.050   2.864
33649W        W 6717  39.002  16.222  13.412
33650W        W 6718  16.480  27.609  12.561
33651W        W 6719  24.047  30.255  11.193
33652W        W 6720  23.296   2.240   0.021
33653W        W 6721  25.013   4.289  11.842
33654W        W 6722  22.129   7.905  12.644
33655W        W 6723  31.097  43.044   4.079
33656W        W 6724  14.009  42.382   0.773
33657W        W 6725   3.849   6.880   3.243
33658W        W 6726  40.068  39.283   4.484
33659W        W 6727  26.420  28.780   0.268
33660W        W 6728  36.117   2.694   3.707
33661W        W 6729  17.995  31.117  11.541
33662W        W 6730  27.699  33.092  13.568
33663W        W 6731  36.378  22.643   4.614
33664W        W 6732  23.968   7.774  13.610
33665W        W 6733  34.592  12.698   3.738
33666W        W 6734  30.673  23.533   0.824
33667W        W 6735  43.482  10.390   3.593
33668W        W 6736  27.982  19.380   2.660
33669W        W 6737  23.102  36.109  11.040
33670W        W 6738  33.617  15.361  13.544
33671W        W 6739  19.714  41.424  11.633
33672W        W 6740  31.917  13.123   1.859
33673W        W 6741  32.681  19.991  12.442
33674W        W 6742   9.189  33.867   0.966
33675W        W 6743   4.947  17.300   4.044
33676W        W 6744  15.303  12.714   4.661
33677W        W 6745  36.515  12.651  10.631
33678W        W 6746   0.884  41.336   3.693
33679W        W 6747  28.542  24.057  13.920
33680W        W 6748  40.414   2.409  10.137
33681W        W 6749  12.610  40.412   4.704
33682W        W 6750  36.515  32.672  12.874
33683W        W 6751  10.001  40.605   0.730
33684W        W 6752  36.488   5.322   2.136
33685W        W 6753  36.424  33.692   0.179
33686W        W 6754   0.954   7.239  14.463
33687W        W 6755  15.071   0.019  14.426
33688W        W 6756  20.118  12.705   1.882
33689W        W 6757   0.428  35.395   3.067
33690W        W 6758  39.992  18.080  12.506
33691W        W 6759  17.746  40.151  11.403
33692W        W 6760  42.547   7.222   2.215
33693W        W 6761  40.630  29.936   3.300
33694W        W 6762  22.177  30.148  13.797
33695W        W 6763   4.971   6.752   0.298
33696W        W 6764  23.220  44.390  14.814
33697W        W 6765  13.134   3.608  13.937
33698W        W 6766  19.545  36.582   2.472
33699W        W 6767  42.326  21.927   0.778
33700W        W 6768  27.940  12.386  12.906
33701W        W 6769   6.450   3.447   0.105
33702W        W 6770  27.212  12.519   5.773
33703W        W 6771  31.588  30.485   3.918
33704W        W 6772  15.820   4.679  11.315
33705W        W 6773  41.401  15.672  12.272
33706W        W 6774  14.229  37.306  14.559
33707W        W 6775  26.678  40.982  14.821
33708W        W 6776  41.479  11.160   0.428
33709W        W 6777   8.112  41.782   0.693
33710W        W 6778  41.901  24.243   2.186
33711W        W 6779   6.698  13.737   3.699
33712W        W 6780   4.895   5.176  11.668
33713W        W 6781  28.653  41.797   4.907
33714W        W 6782   2.554  12.756   2.228
33715W        W 6783  17.171   0.079   0.939
33716W        W 6784   5.876   6.474   1.950
33717W        W 6785  22.476  35.414  13.942
33718W        W 6786   1.846  40.837  13.250
33719W        W 6787  12.573  36.927   1.195
33720W        W 6788   1.315  43.276  11.028
33721W        W 6789  18.004  25.611   0.410
33722W        W 6790   6.159   5.688  14.435
33723W        W 6791   7.786  29.566  13.566
33724W        W 6792  40.325  13.149  13.927
33725W        W 6793  32.237   0.937  10.394
33726W        W 6794  28.517  21.495   1.927
33727W        W 6795  43.833   8.846   4.511
33728W        W 6796  25.682  42.535   4.588
33729W        W 6797   0.483  41.437  11.602
33730W        W 6798  13.577  44.261  14.110
33731W        W 6799   6.831  20.472   4.262
33732W        W 6800  40.354  37.612  11.499
33733W        W 6801   5.250  23.402  12.446
33734W        W 6802  15.836  34.943  14.791
33735W        W 6803  34.919   6.866  12.490
33736W        W 6804  22.045  12.907  13.811
33737W        W 6805  36.796   1.805  12.476
33738W        W 6806  24.119  42.500   3.814
33739W        W 6807   4.018  10.660   3.151
33740W        W 6808  43.263  40.498   3.271
33741W        W 6809  12.420   0.421   0.267
33742W        W 6810   1.170  12.607  14.394
33743W        W 6811  30.598   3.791   3.272
33744W        W 6812  22.621  21.793   3.783
33745W        W 6813   8.685  40.022   3.239
33746W        W 6814  20.956   4.866  12.512
33747W        W 6815   4.971  25.179  12.365
33748W        W 6816  30.123  40.431   4.559
33749W        W 6817  12.645   5.849   2.433
33750W        W 6818  28.737  23.675   0.104
33751W        W 6819  34.306   5.242   4.092
33752W        W 6820  36.330  13.117   2.575
33753W        W 6821  14.684  15.564   3.957
33754W        W 6822   5.442  33.634   0.741
33755W        W 6823  24.290  21.614  10.955
33756W        W 6824   4.695   6.506  12.217
33757W        W 6825  19.909  38.132  12.432
33758W        W 6826  28.014  23.648  12.344
33759W        W 6827   8.781  41.375  12.907
33760W        W 6828   1.209  36.268  13.568
33761W        W 6829  19.168  21.603  13.591
33762W        W 6830  21.668  11.074  12.658
33763W        W 6831   8.943  40.307   4.582
33764W        W 6832  15.954  26.336  13.587
33765W        W 6833  40.463  41.362   4.134
33766W        W 6834  29.971  44.925  10.830
33767W        W 6835  23.637  41.248  13.341
33768W        W 6836   7.695   6.244   2.141
33769W        W 6837  18.024   1.045   3.785
33770W        W 6838  20.413  39.455   4.985
33771W        W 6839  32.634  37.829   2.794
33772W        W 6840  24.525  40.284  12.831
33773W        W 6841  27.020  11.644   1.463
33774W        W 6842  22.393  32.927   4.802
33775W        W 6843  27.659  24.038  12.860
33776W        W 6844   3.813  21.804   0.888
33777W        W 6845   8.442  31.125  13.394
33778W        W 6846  27.443  14.275   3.715
33779W        W 6847  41.541  32.235   0.331
33780W        W 6848  41.985  24.031   2.635
33781W        W 6849  30.050   3.877   2.683
33782W        W 6850  38.872   0.801  10.074
33783W        W 6851  17.784  35.595  10.740
33784W        W 6852  16.062  11.895   0.890
33785W        W 6853   3.296  20.069   4.602
33786W        W 6854  21.816   1.091   4.680
33787W        W 6855  39.600   8.666   9.713
33788W        W 6856  22.452  19.835   2.885
33789W        W 6857  41.648  40.490   0.757
33790W        W 6858  34.497  26.162   4.733
33791W        W 6859  17.021  12.301   0.456
33792W        W 6860  31.459   8.669  13.733
33793W        W 6861  43.594  21.710  12.426
33794W        W 6862  43.322  39.334  13.412
33795W        W 6863  31.156  24.554   1.682
33796W        W 6864  36.883  30.415   3.709
33797W        W 6865  38.106  31.641   0.686
33798W        W 6866  33.829   1.915   1.765
33799W        W 6867  35.593  43.948  12.628
33800W        W 6868  37.740  27.868  10.178
33801W        W 6869  25.495  35.559   2.769
33802W        W 6870  30.603   1.313   4.867
33803W        W 6871  17.818  36.777   1.280
33804W        W 6872   1.658  32.330  14.802
33805W        W 6873  17.618  30.923  11.815
33806W        W 6874  13.322  33.089   3.328
33807W        W 6875   1.937  30.503   4.273
33808W        W 6876   8.845   8.703   2.491
33809W        W 6877  12.919  16.976   4.417
33810W        W 6878   4.910   4.679  14.987
33811W        W 6879   4.831  10.875  12.699
33812W        W 6880  44.480  20.642   1.376
33813W        W 6881  39.476  10.118  12.336
33814W        W 6882  14.428  21.964  11.970
33815W        W 6883   4.344  10.764   0.674
33816W        W 6884  14.452  17.771  14.886
33817W        W 6885  16.624  16.153   3.719
33818W        W 6886  41.382  43.482  12.656
33819W        W 6887  25.242  35.841  11.158
33820W        W 6888  24.515  26.005  10.688
33821W        W 6889  15.317   1.393  14.815
33822W        W 6890   0.216  24.563  12.366
33823W        W 6891   5.621  32.188  10.663
33824W        W 6892  15.663   5.215   4.742
33825W        W 6893  32.979  13.697  14.691
33826W        W 6894  44.788  27.554  13.043
33827W        W 6895  11.229  12.403   1.706
33828W        W 6896  30.971  14.064  14.374
33829W        W 6897  27.610  19.613   2.314
33830W        W 6898  32.540   5.926  10.737
33831W        W 6899  14.050   6.749  12.470
33832W        W 6900  42.436   1.514  12.877
33833W        W 6901  27.977  15.256   1.489
33834W        W 6902  16.786  42.516   3.320
33835W        W 6903   8.275  29.056  11.503
33836W        W 6904   8.363  38.128   4.943
33837W        W 6905  21.225  33.369  14.020
33838W        W 6906  41.591  16.076  10.628
33839W        W 6907   6.535  42.910   1.877
33840W        W 6908  29.389  19.580  12.639
33841W        W 6909  14.145   8.559   3.176
33842W        W 6910   8.211   0.941   2.572
33843W        W 6911  30.101  15.328  14.886
33844W        W 6912  15.547   5.167   1.783
33845W        W 6913   0.745  32.326  13.450
33846W        W 6914  20.619  15.363   4.765
33847W        W 6915  23.011   3.536  11.478
33848W        W 6916  35.422  28.640   2.246
33849W        W 6917  11.201  35.518  13.552
33850W        W 6918  18.135  16.509  13.929
33851W        W 6919   2.396   1.923   0.468
33852W        W 6920  13.155  38.657   4.519
33853W        W 6921  40.797  30.475  14.007
33854W        W 6922  26.975  35.476   0.179
33855W        W 6923   8.274  31.581  10.549
33856W        W 6924  14.226  33.566  10.405
33857W        W 6925  14.296  31.076   2.231
33858W        W 6926   7.821   2.670   3.856
33859W        W 6927   4.130   4.358   0.285
33860W        W 6928  25.848   3.261  10.761
33861W        W 6929  10.141  24.798   0.509
33862W        W 6930  35.676   7.832  12.973
33863W        W 6931  18.161   0.134  12.921
33864W        W 6932  19.590  34.327   1.203
33865W        W 6933  29.877  38.593  14.244
33866W        W 6934  43.787  21.816  11.040
33867W        W 6935  42.845   3.585  13.411
33868W        W 6936  43.385  38.088   3.943
33869W        W 6937  20.214  35.777   3.260
33870W        W 6938   4.867  35.919   3.539
33871W        W 6939  34.123  37.146   2.325
33872W        W 6940  18.515  14.652  14.877
33873W        W 6941  38.882  19.529  10.188
33874W        W 6942  35.210  38.018   0.903
33875W        W 6943   6.006  24.035  12.148
33876W        W 6944  18.234  22.069   3.769
33877W        W 6945  17.207  39.416   0.992
33878W        W 6946  27.817  33.503  12.059
33879W        W 6947  36.822  44.751   1.489
33880W        W 6948  30.865  44.978   1.714
33881W        W 6949  42.021  29.227   2.335
33882W        W 6950  19.963  27.250   2.393
33883W        W 6951  39.888  24.625  12.621
33884W        W 6952  14.017  24.688  11.139
33885W        W 6953  21.094  15.940  10.547
33886W        W 6954  30.447   1.639  14.848
33887W        W 6955  29.125  43.464   1.664
33888W        W 6956   4.698  15.543  13.902
33889W        W 6957  37.311  14.701   0.952
33890W        W 6958  42.216  21.727   0.318
33891W        W 6959  20.871  17.421  14.323
33892W        W 6960  16.691  20.577  11.191
33893W        W 6961  41.827  21.535  11.666
33894W        W 6962  40.303  30.492   4.497
33895W        W 6963   3.429  44.215  13.842
33896W        W 6964  20.106   4.184   1.849
33897W        W 6965  29.995  15.554  10.774
33898W        W 6966  42.057  15.676   5.643
33899W        W 6967  20.487  29.389   1.438
33900W        W 6968  33.027  18.385   2.288
33901W        W 6969  41.901  31.675   4.543
33902W        W 6970   2.794  29.580   2.434
33903W        W 6971  40.483   3.512  13.690
33904W        W 6972   5.753  43.414  13.389
33905W        W 6973   3.712  12.670  12.009
33906W        W 6974  32.344  30.537  13.971
33907W        W 6975  39.981  26.498  13.323
33908W        W 6976   0.420  15.720   2.111
33909W        W 6977  20.633  27.210   0.459
33910W        W 6978  18.729  44.895  11.562
33911W        W 6979  24.514  22.499   3.907
33912W        W 6980  24.562  16.502  10.098
33913W        W 6981  32.559  31.050   1.669
33914W        W 6982  24.038   8.802   2.891
33915W        W 6983  21.705  43.314  10.162
33916W        W 6984   5.487   8.044  13.189
33917W        W 6985  44.229  35.595   3.065
33918W        W 6986   0.440   2.768   0.912
33919W        W 6987  38.429  42.118   4.900
33920W        W 6988  24.232  11.156  12.812
33921W        W 6989  25.802   8.386   1.826
33922W        W 6990   6.326  37.592   2.813
33923W        W 6991   7.932  24.744  12.927
33924W        W 6992  15.823  11.294  13.324
33925W        W 6993  10.677  14.794  11.190
33926W        W 6994  18.448  33.317  13.321
33927W        W 6995  31.636  30.555   5.005
33928W        W 6996  20.507  30.948   1.883
33929W        W 6997  38.864  36.476  14.546
33930W        W 6998  15.629  28.284   0.364
33931W        W 6999  10.777  28.729   3.102
33932W        W 7000  16.669  32.370   1.933
33933W        W 7001   3.549  23.236   4.241
33934W        W 7002  32.015  32.061   4.586
33935W        W 7003  39.607  31.640   2.374
33936W        W 7004  29.557  28.633  10.957
33937W        W 7005   2.995  17.544   3.755
33938W        W 7006  40.998  19.212   3.648
33939W        W 7007  21.576  18.233   5.050
33940W        W 7008   2.439  12.316  11.999
33941W        W 7009  43.994  10.386   3.755
33942W        W 7010   3.996  18.557  13.357
33943W        W 7011  44.703  26.469   4.309
33944W        W 7012  39.826  15.393   1.831
33945W        W 7013   5.261   9.646   2.791
33946W        W 7014  43.141   3.875   5.040
33947W        W 7015  29.044   3.033  14.140
33948W        W 7016  30.595   6.810  12.099
33949W        W 7017  14.114  10.464   1.849
33950W        W 7018  40.775  13.708   2.829
33951W        W 7019  13.364   5.639   3.651
33952W        W 7020  11.249   6.238  12.848
33953W        W 7021  41.370  16.833   1.018
33954W        W 7022  14.421  22.754  11.119
33955W        W 7023  44.106  21.218   4.733
33956W        W 7024  14.880  24.343   3.672
33957W        W 7025  22.830  21.038   4.495
33958W        W 7026   2.228  43.988  12.726
33959W        W 7027  21.846  11.654   4.276
33960W        W 7028  15.605  37.597   3.678
33961W        W 7029  14.484  39.261   4.219
33962W        W 7030  43.355   0.023  12.498
33963W        W 7031  10.177  15.663   4.137
33964W        W 7032  39.665   1.252   3.403
33965W        W 7033  37.404  23.194  12.840
33966W        W 7034   6.374   5.505   0.383
33967W        W 7035  28.039   2.891  11.395
33968W        W 7036  27.499   5.421  12.102
33969W        W 7037  36.055  16.144  14.815
33970W        W 7038   4.241  16.263  14.785
33971W        W 7039   9.741  36.914  13.344
33972W        W 7040  25.542   2.192  14.392
33973W        W 7041  44.228  19.999   2.140
33974W        W 7042   1.333  22.620  10.283
33975W        W 7043  30.525  21.999  13.874
33976W        W 7044  37.153  16.582  13.808
33977W        W 7045  13.745   7.786  14.439
33978W        W 7046  12.631  12.165  13.984
33979W        W 7047  17.836  29.003   4.045
33980W        W 7048  25.609  18.868  13.067
33981W        W 7049  27.400  20.743  12.352
33982W        W 7050  11.035  33.155  10.728
33983W        W 7051  10.744  36.572   2.278
33984W        W 7052   0.817   0.588  14.472
33985W        W 7053  31.623  31.793   4.361
33986W        W 7054  11.874  17.823   4.720
33987W        W 7055   6.605  31.431   1.787
33988W        W 7056  36.831  34.281   5.514
33989W        W 7057   0.964  23.602  10.694
33990W        W 7058  22.838   3.160  10.691
33991W        W 7059  11.691  42.349  12.084
33992W        W 7060  14.061  27.571   4.335
33993W        W 7061  25.172  32.086   3.327
33994W        W 7062  11.222   5.250   2.492
33995W        W 7063  22.095   8.161  10.515
33996W        W 7064  21.792  36.327   0.972
33997W        W 7065  38.262  23.235  14.297
33998W        W 7066  33.173  33.294  12.443
33999W        W 7067  40.232  24.341   1.723
34000W        W 7068   8.228  15.909  14.859
34001W        W 7069  10.758  40.034   1.521
34002W        W 7070  13.633  25.756  12.416
34003W        W 7071  16.868   6.528   4.712
34004W        W 7072  24.464  17.527  11.484
34005W        W 7073  42.195  12.262  14.989
34006W        W 7074  36.719  16.725   0.716
34007W        W 7075  22.697   9.161   0.042
34008W        W 7076  32.015  37.505  11.749
34009W        W 7077  28.732  34.640  11.567
34010W        W 7078  31.443  17.558  11.323
34011W        W 7079  20.570   5.073   2.767
34012W        W 7080  10.900  36.506  12.076
34013W        W 7081  42.484  43.527   2.321
34014W        W 7082  33.835  27.124   2.160
34015W        W 7083  15.385  43.520  13.600
34016W        W 7084   1.670   2.773   2.255
34017W        W 7085   2.233  22.487   0.405
34018W        W 7086  10.469   0.055  12.938
34019W        W 7087   5.579  37.479  10.741
34020W        W 7088   1.350   4.680   0.930
34021W        W 7089  27.396  20.308  13.515
34022W        W 7090  15.127  44.515  13.075
34023W        W 7091  27.090  16.945   2.708
34024W        W 7092  29.037  30.082   4.614
34025W        W 7093  26.184  33.612   1.690
34026W        W 7094  24.702  11.022  12.997
34027W        W 7095  44.338  15.489   1.347
34028W        W 7096   8.428  33.432  11.241
34029W        W 7097  43.999   1.097   1.304
34030W        W 7098  34.211   0.810  10.676
34031W        W 7099  17.018  30.969   4.831
34032W        W 7100  33.084  29.748  10.354
34033W        W 7101  38.356  30.639  12.094
34034W        W 7102  32.111  39.217  14.750
34035W        W 7103  44.900  26.034  13.054
34036W        W 7104  16.667  34.334   3.445
34037W        W 7105  11.617  41.393  13.663
34038W        W 7106  22.715  42.435  12.773
34039W        W 7107  12.553   3.170  12.053
34040W        W 7108  23.739  10.654  13.880
34041W        W 7109  40.377   6.371   0.770
34042W        W 7110  26.213   4.851   4.786
34043W        W 7111   2.813  39.881  14.737
34044W        W 7112  27.103   0.876  12.626
34045W        W 7113   2.019  14.150  11.574
34046W        W 7114  39.943  40.742   1.761
34047W        W 7115   5.144  33.630  14.903
34048W        W 7116  39.101   4.695   4.273
34049W        W 7117  35.972  40.048   4.608
34050W        W 7118  18.742   6.004  13.901
34051W        W 7119  21.015   0.016  11.992
34052W        W 7120  35.031  38.991  10.519
34053W        W 7121  41.313  34.359   0.334
34054W        W 7122  19.512  39.452   0.455
34055W        W 7123   1.895   6.461  12.230
34056W        W 7124   6.390   2.859  11.081
34057W        W 7125  36.607  17.290  12.032
34058W        W 7126   6.238   3.200   4.136
34059W        W 7127   5.899  22.230  10.920
34060W        W 7128  16.601   9.869  14.032
34061W        W 7129   3.741   8.722  13.448
34062W        W 7130   2.535  18.689  12.962
34063W        W 7131   0.417  24.378  11.928
34064W        W 7132  11.768  20.937   1.028
34065W        W 7133   1.936   8.183   3.175
34066W        W 7134  41.780  37.274  10.984
34067W        W 7135  44.782   0.372  13.405
34068W        W 7136  22.958  29.775   0.807
34069W        W 7137  42.025  31.122  10.663
34070W        W 7138  39.396   0.355   0.911
34071W        W 7139   6.934  14.150   4.972
34072W        W 7140  41.523  12.341  11.171
34073W        W 7141  12.739  19.535  14.989
34074W        W 7142  24.626  24.032   0.754
34075W        W 7143  28.026  34.645  11.280
34076W        W 7144  32.754  28.131  12.974
34077W        W 7145  43.368  23.757   1.193
34078W        W 7146  43.336  31.730   4.586
34079W        W 7147   9.378   0.722   2.284
34080W        W 7148  42.452  22.311  14.746
34081W        W 7149   4.757   3.850   0.282
34082W        W 7150  16.211  32.517  11.550
34083W        W 7151  15.479  11.007  12.544
34084W        W 7152   4.568  38.023  12.107
34085W        W 7153  44.459  31.661   3.160
34086W        W 7154  27.403  23.728  11.883
34087W        W 7155  31.577  23.172   1.852
34088W        W 7156  21.742  13.196   0.043
34089W        W 7157  16.604  10.826   2.685
34090W        W 7158  44.264  20.066   0.813
34091W        W 7159  26.743  32.062   1.432
34092W        W 7160  29.500   4.720   3.111
34093W        W 7161  22.613  24.318  12.440
34094W        W 7162  11.181  37.759   0.476
34095W        W 7163  36.932  28.727   0.985
34096W        W 7164   1.706  11.348   2.890
34097W        W 7165   8.500  28.154  12.815
34098W        W 7166  37.688  42.116   3.803
34099W        W 7167  39.010   3.952  10.459
34100W        W 7168  26.183  18.165  12.620
34101W        W 7169  32.177  34.019  13.124
34102W        W 7170  35.798   2.439   3.386
34103W        W 7171  34.464  12.716   1.749
34104W        W 7172   6.021  27.549  11.991
34105W        W 7173  11.748  25.721  12.632
34106W        W 7174   8.743   2.813  11.896
34107W        W 7175  33.706  13.036   2.152
34108W        W 7176  21.667   5.203  13.306
34109W        W 7177  24.426  40.379   0.784
34110W        W 7178   2.773  44.503   4.609
34111W        W 7179  42.977  15.856  13.956
34112W        W 7180  36.610  38.096  13.448
34113W        W 7181   4.836  16.476  14.534
34114W        W 7182  22.257  41.806  12.969
34115W        W 7183   6.007  37.150  11.550
34116W        W 7184   5.411  11.081  13.907
34117W        W 7185  16.599   2.247  11.822
34118W        W 7186   5.771  17.112   4.421
34119W        W 7187   7.890  11.108   4.229
34120W        W 7188   7.506  27.052  13.995
34121W        W 7189  38.010  23.791   4.661
34122W        W 7190  27.662  10.650   1.970
34123W        W 7191   0.774   8.396   4.778
34124W        W 7192   9.423  38.081   0.365
34125W        W 7193  34.623  21.481  14.287
34126W        W 7194  33.534  39.808  10.474
34127W        W 7195  32.631  36.583  11.629
34128W        W 7196  33.550  23.739   2.555
34129W        W 7197  24.987  31.603  13.556
34130W        W 7198  19.197  14.283   0.797
34131W        W 7199  22.519  10.454   1.662
34132W        W 7200  24.496  28.904  12.054
34133W        W 7201  35.501  22.256  14.897
34134W        W 7202  13.618   8.678   0.874
34135W        W 7203   1.986   2.846   3.872
34136W        W 7204   1.568  16.798   4.422
34137W        W 7205  20.716   1.261   5.040
34138W        W 7206  37.915   9.940  13.939
34139W        W 7207  21.809  30.167   4.580
34140W        W 7208   8.367   0.610   1.281
34141W        W 7209  43.949  22.150   1.064
34142W        W 7210  12.728  14.751  11.520
34143W        W 7211   3.845  34.616   3.744
34144W        W 7212   0.755  22.485   4.321
34145W        W 7213  33.106  33.144   0.315
34146W        W 7214  41.824  22.002  12.566
34147W        W 7215  16.741  12.206   4.719
34148W        W 7216  40.553  11.088  11.058
34149W        W 7217   9.739  16.431  12.091
34150W        W 7218   2.719  21.997   4.745
34151W        W 7219  17.310  44.352  12.595
34152W        W 7220  43.609  39.053   4.256
34153W        W 7221   6.421   6.485   0.634
34154W        W 7222  26.481  37.330   1.669
34155W        W 7223  19.932  13.387   2.428
34156W        W 7224  42.383  34.436  13.961
34157W        W 7225  10.296  21.383  11.946
34158W        W 7226   0.744  24.000  12.023
34159W        W 7227  31.075  36.943  11.608
34160W        W 7228  18.927  39.887   4.446
34161W        W 7229  17.736  44.787  12.949
34162W        W 7230  15.403  24.230   3.686
34163W        W 7231  40.450   7.844  13.484
34164W        W 7232   6.922  23.789  12.840
34165W        W 7233  28.677  33.080   2.837
34166W        W 7234  12.162   8.635   2.433
34167W        W 7235   7.531  18.269   3.270
34168W        W 7236  21.617  16.209   3.271
34169W        W 7237   0.050  12.344  13.903
34170W        W 7238   4.571  36.359  13.274
34171W        W 7239  18.916   1.893  12.875
34172W        W 7240  22.253  37.461   3.692
34173W        W 7241   8.824   5.716  11.991
34174W        W 7242  20.090  14.787   2.168
34175W        W 7243   9.449  44.028   4.967
34176W        W 7244  24.207   2.774  14.683
34177W        W 7245   7.101   8.701  12.843
34178W        W 7246   3.903   0.684  14.491
34179W        W 7247  37.595  19.305  11.128
34180W        W 7248  22.129  11.506   3.871
34181W        W 7249  20.102  13.909  11.269
34182W        W 7250  13.588  18.146  12.165
34183W        W 7251   6.232  39.801  13.283
34184W        W 7252  22.476  40.871   2.853
34185W        W 7253   1.230  37.976   0.810
34186W        W 7254   2.430  29.041   4.575
34187W        W 7255  25.082   8.584  13.283
34188W        W 7256   1.342  18.743  11.185
34189W        W 7257  43.854  31.114  10.820
34190W        W 7258  15.848  33.329  11.630
34191W        W 7259   6.765  32.456   0.456
34192W        W 7260  40.764  38.945   3.803
34193W        W 7261  37.543  14.898  12.052
34194W        W 7262  15.728  37.374  12.970
34195W        W 7263  22.534  10.213  12.041
34196W        W 7264  36.324   0.496   4.131
34197W        W 7265  13.862  35.557   4.250
34198W        W 7266  43.167  22.484   2.796
34199W        W 7267  42.921  37.089  14.349
34200W        W 7268  26.832  26.633  11.419
34201W        W 7269  41.991  38.345  12.952
34202W        W 7270  35.913   3.782  14.370
34203W        W 7271   4.029  12.743  14.621
34204W        W 7272   6.826  10.410   2.357
34205W        W 7273  11.287  26.558  11.553
34206W        W 7274   1.656  37.960   1.738
34207W        W 7275   3.249   2.305   3.892
34208W        W 7276  36.611  41.740  11.661
34209W        W 7277  43.704   5.490   0.334
34210W        W 7278   3.862  42.986   0.609
34211W        W 7279  38.597  17.241  14.718
34212W        W 7280  39.649   8.112   9.760
34213W        W 7281   9.754  28.861   1.554
34214W        W 7282  39.898  38.842   3.647
34215W        W 7283  41.854  19.235  13.111
34216W        W 7284   6.891  35.921   0.793
34217W        W 7285  27.689  28.848   0.818
34218W        W 7286  44.959  36.601  10.463
34219W        W 7287  40.734  16.596   0.361
34220W        W 7288   7.698   6.089   3.168
34221W        W 7289  22.099  42.575   4.130
34222W        W 7290  32.066  33.751   1.535
34223W        W 7291  16.942  15.725   0.230
34224W        W 7292  10.128  41.812   1.999
34225W        W 7293  20.837  23.678   4.621
34226W        W 7294  22.139  16.672   3.329
34227W        W 7295  25.079  44.505   1.465
34228W        W 7296  31.917  10.800   2.391
34229W        W 7297  44.412   3.287   2.290
34230W        W 7298  23.715  29.169  11.624
34231W        W 7299  36.429  39.255  14.313
34232W        W 7300   4.748  12.653   5.078
34233W        W 7301   9.241   3.439  14.815
34234W        W 7302  34.473  43.476   4.553
34235W        W 7303   2.599  18.539  10.389
34236W        W 7304  23.256  25.987   4.934
34237W        W 7305  42.664  14.988   0.523
34238W        W 7306  32.596  19.943  14.987
34239W        W 7307  32.986   2.670   3.092
34240W        W 7308  26.317  35.457   1.810
34241W        W 7309   9.815  16.913   4.175
34242W        W 7310  21.620  13.850  12.374
34243W        W 7311  30.171  43.602   2.474
34244W        W 7312  33.594  18.178  12.108
34245W        W 7313  25.848  36.515  10.776
34246W        W 7314  19.990   6.153   0.368
34247W        W 7315   7.825  41.514   2.387
34248W        W 7316   7.691  39.021  10.689
34249W        W 7317  14.681  38.060  14.577
34250W        W 7318  30.046  12.888  13.849
34251W        W 7319   4.735  30.738   4.600
34252W        W 7320  22.879  33.087   4.735
34253W        W 7321   6.170  44.219   2.954
34254W        W 7322  40.040  18.708   0.505
34255W        W 7323  35.100  36.913  13.551
34256W        W 7324  26.713  12.631   0.551
34257W        W 7325  39.323   0.001  13.902
34258W        W 7326   7.429  42.856   0.362
34259W        W 7327  25.981   5.283   3.622
34260W        W 7328  15.042  22.559   4.296
34261W        W 7329  21.269  13.524   2.206
34262W        W 7330  40.045  32.641  13.271
34263W        W 7331  42.440  32.671  11.843
34264W        W 7332  37.497  19.493  14.410
34265W        W 7333   9.071  23.894  13.035
34266W        W 7334  22.540  30.818  14.227
34267W        W 7335  30.697  15.730   2.917
34268W        W 7336   3.224   1.826   4.651
34269W        W 7337   6.235  31.181   3.314
34270W        W 7338  39.487  14.076  12.642
34271W        W 7339  35.995  43.949   0.901
34272W        W 7340  14.179  13.553   2.387
34273W        W 7341  18.696  23.443  11.304
34274W        W 7342  20.584  37.272  11.289
34275W        W 7343  22.207   7.812  10.870
34276W        W 7344  41.625  12.387   2.193
34277W        W 7345  26.818  31.065   0.164
34278W        W 7346   3.969   4.155   1.726
34279W        W 7347  38.566  31.562   0.907
34280W        W 7348  22.182   7.189   0.431
34281W        W 7349  37.254  39.950   1.867
34282W        W 7350  43.357  23.312   5.162
34283W        W 7351  44.469   6.232   4.878
34284W        W 7352  16.610  14.687  12.870
34285W        W 7353  33.586  33.634  13.948
34286W        W 7354  27.048   0.047   2.785
34287W        W 7355  10.306  19.756   0.871
34288W        W 7356  17.107  23.694  14.200
34289W        W 7357  29.665   8.807  10.743
34290W        W 7358  28.955   8.738  11.052
34291W        W 7359  34.993  17.867  14.938
34292W        W 7360   1.933  36.037  11.457
34293W        W 7361  14.204  15.786  13.855
34294W        W 7362  26.660  27.757  13.378
34295W        W 7363  27.297  42.948  13.829
34296W        W 7364  21.034  12.518  12.633
34297W        W 7365   6.391  14.570   4.022
34298W        W 7366  28.387  39.293   1.694
34299W        W 7367  23.819  16.326   1.467
34300W        W 7368  20.210  30.250   1.210
34301W        W 7369  16.627   2.852   0.521
34302W        W 7370  37.194  30.250   2.375
34303W        W 7371  13.279  16.550   1.691
34304W        W 7372  23.040  41.213  11.990
34305W        W 7373  26.974  40.949  13.023
34306W        W 7374  23.361  23.432  12.397
34307W        W 7375  32.557  40.035  11.440
34308W        W 7376  36.884  20.222  12.403
34309W        W 7377   2.319   7.330   0.626
34310W        W 7378  13.094  17.968   4.152
34311W        W 7379  39.805  37.366   2.260
34312W        W 7380  17.520  43.281   2.375
34313W        W 7381   2.549  13.266  12.341
34314W        W 7382   0.428   9.916   0.060
34315W        W 7383  18.872  23.269  13.853
34316W        W 7384  15.920  21.223   0.486
34317W        W 7385  29.012  22.192   1.914
34318W        W 7386  10.842  13.222  11.455
34319W        W 7387  37.780  15.819   0.433
34320W        W 7388  42.598  10.811  13.018
34321W        W 7389  17.881  33.047   3.118
34322W        W 7390  10.832  32.814   1.878
34323W        W 7391   3.138   4.138  14.666
34324W        W 7392  20.895   0.243   5.007
34325W        W 7393   7.462   6.844  10.767
34326W        W 7394  28.053  33.631  14.870
34327W        W 7395  30.423  41.510  10.733
34328W        W 7396   6.660  31.984  10.451
34329W        W 7397  41.017  19.505  12.561
34330W        W 7398  40.057   5.981  12.888
34331W        W 7399  26.618  34.726  11.466
34332W        W 7400  39.401  15.289   2.941
34333W        W 7401  38.123  34.720   0.705
34334W        W 7402  29.589  13.325   0.368
34335W        W 7403   6.385   6.426   1.899
34336W        W 7404  10.834   0.765   1.475
34337W        W 7405  33.063   9.412   2.346
34338W        W 7406  13.175  14.179   0.424
34339W        W 7407  42.088  26.028  12.500
34340W        W 7408  33.896  11.389  13.870
34341W        W 7409  12.208   8.954  13.792
34342W        W 7410   2.877   5.349   4.644
34343W        W 7411  12.761  23.304  13.837
34344W        W 7412  29.180  27.661   1.468
34345W        W 7413  43.726   2.265  11.512
34346W        W 7414  40.623  29.532  10.597
34347W        W 7415  39.638   1.661  12.566
34348W        W 7416  17.063   4.764   4.124
34349W        W 7417  27.465  34.026  13.275
34350W        W 7418  26.774   6.035   3.723
34351W        W 7419  40.958  10.587  13.575
34352W        W 7420  17.834  17.314   2.361
34353W        W 7421   7.166  30.552   0.351
34354W        W 7422  31.908  16.838   3.288
34355W        W 7423  12.120   9.800   4.272
34356W        W 7424  40.796  35.466   4.260
34357W        W 7425  31.455  18.838   5.061
34358W        W 7426  35.892  41.281  11.205
34359W        W 7427  19.540  24.057   1.173
34360W        W 7428  32.618   7.191   1.389
34361W        W 7429  10.162  19.510   3.679
34362W        W 7430  28.834  23.101  12.177
34363W        W 7431   8.326  25.137   1.964
34364W        W 7432  20.125  33.007   4.325
34365W        W 7433  15.695  39.465  12.940
34366W        W 7434  36.012  23.637  13.284
34367W        W 7435  41.678   5.261  12.494
34368W        W 7436  15.492  40.580   9.935
34369W        W 7437  30.459  41.487  13.465
34370W        W 7438  35.184  25.626  14.750
34371W        W 7439  32.172   9.362  12.519
34372W        W 7440   5.652  12.740  10.636
34373W        W 7441   3.977   7.748   1.763
34374W        W 7442  11.658  18.619   2.796
34375W        W 7443  20.161  31.935   4.844
34376W        W 7444  34.947  40.077   4.392
34377W        W 7445  24.711  26.069   4.217
34378W        W 7446  26.510   9.885   4.537
34379W        W 7447   1.018  11.831   5.080
34380W        W 7448  39.037  31.800  10.442
34381W        W 7449   2.902   8.881   0.681
34382W        W 7450  18.530  31.600   0.452
34383W        W 7451  42.289  15.653  13.623
34384W        W 7452  21.454  31.225  13.398
34385W        W 7453  21.146  38.989   4.726
34386W        W 7454   8.710  42.471   0.713
34387W        W 7455  30.045  42.108   3.844
34388W        W 7456  16.589  36.442   1.440
34389W        W 7457  22.698  18.139  12.154
34390W        W 7458   8.755  27.489   1.836
34391W        W 7459  39.358  19.473   1.951
34392W        W 7460  23.565  23.837  12.871
34393W        W 7461   0.440  33.629   2.302
34394W        W 7462  21.200  29.417   0.861
34395W        W 7463  25.530  16.573   1.392
34396W        W 7464  25.473  13.807   0.404
34397W        W 7465   8.643   6.771  11.550
34398W        W 7466   9.818  11.899   0.712
34399W        W 7467  12.527   8.921   4.154
34400W        W 7468  16.379  20.698   4.631
34401W        W 7469  16.696  25.378  14.753
34402W        W 7470   5.450  27.094   0.000
34403W        W 7471  20.836  10.341  13.383
34404W        W 7472  14.570  18.652   0.754
34405W        W 7473  17.215  16.576   2.320
34406W        W 7474  33.875  14.786   2.194
34407W        W 7475  14.068  21.808   0.882
34408W        W 7476  30.001  44.038  10.623
34409W        W 7477  28.885   8.687   3.648
34410W        W 7478  22.727   5.958  14.271
34411W        W 7479   4.840  37.012  14.423
34412W        W 7480   9.665  16.156  13.618
34413W        W 7481  35.960  44.402   0.532
34414W        W 7482  44.242  17.704   0.730
34415W        W 7483   4.791  29.873  11.974
34416W        W 7484  22.297  15.340   2.602
34417W        W 7485  28.172   2.160  14.778
34418W        W 7486  38.455  38.791   2.745
34419W        W 7487   8.706  11.164  12.997
34420W        W 7488  38.329  30.672   3.129
34421W        W 7489  12.708  27.752   0.963
34422W        W 7490   5.860   1.251  12.869
34423W        W 7491  30.068  36.503   3.682
34424W        W 7492  22.966  23.998   2.432
34425W        W 7493   5.049  37.279   1.199
34426W        W 7494  27.695  20.642   0.923
34427W        W 7495  17.665  21.100  11.014
34428W        W 7496  13.592  38.072   2.644
34429W        W 7497  42.351  43.897  14.839
34430W        W 7498  18.781  40.857  10.553
34431W        W 7499  34.100   9.053   1.548
34432W        W 7500  14.828  35.024  11.025
34433W        W 7501  33.068  33.317   4.306
34434W        W 7502  43.073   3.783  12.976
34435W        W 7503  44.539   1.155   0.792
34436W        W 7504  40.067  32.836   2.642
34437W        W 7505  30.108  29.086  10.432
34438W        W 7506   0.603   1.400   4.995
34439W        W 7507  41.928  18.497  12.035
34440W        W 7508   8.669   5.113   1.853
34441W        W 7509  21.347  36.401  12.964
34442W        W 7510   9.424   5.400   3.860
34443W        W 7511  37.463   3.841   3.058
34444W        W 7512   9.129  14.601   1.735
34445W        W 7513  44.850  38.660   1.440
34446W        W 7514  24.668   1.576  11.106
34447W        W 7515  36.787   1.868   1.868
34448W        W 7516  16.812  36.149  13.837
34449W        W 7517  22.654   2.176   1.221
34450W        W 7518   6.801  17.854  14.328
34451W        W 7519  21.972  24.098   2.383
34452W        W 7520  33.510  41.043   3.806
34453W        W 7521   4.031   1.484  14.718
34454W        W 7522  29.187  31.146   1.964
34455W        W 7523   2.931  25.576  10.571
34456W        W 7524   3.453  14.283   1.703
34457W        W 7525  22.242   8.866   1.259
34458W        W 7526  40.443  18.823  14.013
34459W        W 7527   9.913  11.933   3.304
34460W        W 7528   7.722  36.574  14.416
34461W        W 7529  34.940  27.066   3.692
34462W        W 7530  34.215   8.434  12.203
34463W        W 7531  43.964  27.043  12.410
34464W        W 7532  29.789  12.780   3.429
34465W        W 7533   8.540  42.105   2.822
34466W        W 7534  44.261  35.294  12.802
34467W        W 7535  26.182  14.628   3.567
34468W        W 7536   9.093   4.838   3.240
34469W        W 7537  16.438  19.028   1.611
34470W        W 7538  19.458  40.863  11.161
34471W        W 7539   4.220  38.787   1.410
34472W        W 7540  32.478  32.620   2.231
34473W        W 7541  30.032  13.236  13.312
34474W        W 7542  16.586  16.042  11.560
34475W        W 7543  21.993  18.771  13.426
34476W        W 7544  39.484  22.284  11.495
34477W        W 7545  15.241  24.008  13.935
34478W        W 7546   1.519   0.524  14.916
34479W        W 7547  33.618  43.953   1.259
34480W        W 7548  24.229  15.079   1.122
34481W        W 7549   6.211  43.968  12.087
34482W        W 7550  16.556  17.775   4.169
34483W        W 7551   2.327  42.506   1.319
34484W        W 7552  20.530  17.701  13.964
34485W        W 7553  22.563  22.022  12.372
34486W        W 7554   7.233  36.928   3.707
34487W        W 7555   2.725   7.796  13.235
34488W        W 7556  15.608  12.351  12.396
34489W        W 7557   4.454  35.557   1.431
34490W        W 7558  20.938  19.242  14.015
34491W        W 7559  11.945  21.058   2.773
34492W        W 7560  27.948  23.130  14.734
34493W        W 7561  12.884  13.992   0.010
34494W        W 7562  17.769  35.637  12.633
34495W        W 7563  35.868   5.447  14.934
34496W        W 7564  33.115   1.559  11.110
34497W        W 7565  25.161  32.514  14.690
34498W        W 7566   7.297  24.160  14.498
34499W        W 7567  39.294  29.951   4.593
34500W        W 7568  15.010  38.630   3.254
34501W        W 7569  25.521   4.369  11.981
34502W        W 7570  27.844   0.060   3.230
34503W        W 7571   1.899  27.016   1.347
34504W        W 7572   1.417  13.212   1.840
34505W        W 7573  33.135  35.982  13.367
34506W        W 7574  32.517  37.025   3.312
34507W        W 7575  29.745  16.755   1.340
34508W        W 7576  22.254  22.672   1.116
34509W        W 7577  41.115  16.601  11.537
34510W        W 7578  42.816   5.205  14.867
34511W        W 7579  35.919  11.192   2.655
34512W        W 7580  40.432  33.169  13.950
34513W        W 7581   6.185  43.887  11.561
34514W        W 7582  15.193  21.257   4.591
34515W        W 7583   7.700  36.600  13.342
34516W        W 7584  12.518  31.484  14.761
34517W        W 7585  10.326  17.091  14.351
34518W        W 7586  32.326  41.897  12.615
34519W        W 7587   7.738  21.715   3.157
34520W        W 7588  32.873  24.069   4.992
34521W        W 7589  35.052   7.693  10.794
34522W        W 7590  24.639  29.184   0.038
34523W        W 7591  21.690   9.798   4.088
34524W        W 7592  11.566  31.026   5.082
34525W        W 7593  23.237  14.362   0.446
34526W        W 7594   5.897  28.539  12.643
34527W        W 7595  38.578  41.512  12.870
34528W        W 7596  21.640  28.550   1.733
34529W        W 7597  10.614   5.931  14.670
34530W        W 7598  32.715  44.922  11.375
34531W        W 7599  44.128  41.326  11.185
34532W        W 7600   8.492  41.774   1.270
34533W        W 7601  23.508  43.783   2.822
34534W        W 7602   1.361  32.348   4.474
34535W        W 7603  26.147  31.678  10.895
34536W        W 7604  36.602   2.789   2.714
34537W        W 7605   7.089  44.526  14.973
34538W        W 7606  30.241   2.886   0.441
34539W        W 7607  34.307  24.512   2.244
34540W        W 7608   9.637  10.386   1.114
34541W        W 7609  11.561   9.731  12.468
34542W        W 7610  16.737   5.648   1.187
34543W        W 7611  26.023  28.025   4.367
34544W        W 7612  27.232   6.170   2.718
34545W        W 7613  30.943  36.871  13.970
34546W        W 7614  26.096  22.996  13.415
34547W        W 7615  25.272  29.134   0.875
34548W        W 7616   9.268  32.218  12.534
34549W        W 7617  11.693   8.124   0.301
34550W        W 7618  33.333  37.455  13.486
34551W        W 7619  37.497   8.155   4.639
34552W        W 7620  22.558  11.671   2.743
34553W        W 7621   9.922   5.054   2.727
34554W        W 7622  31.655   2.992  12.080
34555W        W 7623  42.605  19.637  12.213
34556W        W 7624  30.612  15.278  14.963
34557W        W 7625  41.915  18.701   4.937
34558W        W 7626  37.672  35.937  11.847
34559W        W 7627  41.707  28.309  13.951
34560W        W 7628  36.459  19.035   2.000
34561W        W 7629  16.143  17.993   0.464
34562W        W 7630  29.926  42.770  14.338
34563W        W 7631   5.174   9.118   2.834
34564W        W 7632  36.839  15.170   4.256
34565W        W 7633  33.077   3.274   1.787
34566W        W 7634  12.050  14.511   2.787
34567W        W 7635  21.257  13.317  11.544
34568W        W 7636  15.833  40.312   2.491
34569W        W 7637  30.671   4.267  14.594
34570W        W 7638   5.812  13.898   1.657
34571W        W 7639  18.118  21.076  10.704
34572W        W 7640  31.957   0.943  14.543
34573W        W 7641  30.174  39.422  10.754
34574W        W 7642  43.519   1.270   2.203
34575W        W 7643  35.351  36.426  14.461
34576W        W 7644  32.125  32.508   4.821
34577W        W 7645   5.471  24.096   4.340
34578W        W 7646   0.578  33.703  13.689
34579W        W 7647  15.264   6.459   0.703
34580W        W 7648  43.728   8.226  10.640
34581W        W 7649   2.686   1.896  14.987
34582W        W 7650   2.216  19.643   2.650
34583W        W 7651   0.288  17.202   3.647
34584W        W 7652  33.994   2.438  12.508
34585W        W 7653   7.927   4.389   0.344
34586W        W 7654  15.516  10.520   3.444
34587W        W 7655  27.716   4.035  12.404
34588W        W 7656  15.266  23.991   2.215
34589W        W 7657  43.957  42.473   0.778
34590W        W 7658  22.540   4.983  14.279
34591W        W 7659  10.204  23.165  11.928
34592W        W 7660  28.884   1.799   2.102
34593W        W 7661  21.606  38.607  13.756
34594W        W 7662  25.047   9.823   0.298
34595W        W 7663  38.520   2.423   0.204
34596W        W 7664  25.050  10.277  10.769
34597W        W 7665  38.301   4.740   0.931
34598W        W 7666  30.415  16.145  13.441
34599W        W 7667  24.444  15.111  12.577
34600W        W 7668   0.566   7.774   0.325
34601W        W 7669   9.355  28.075  11.717
34602W        W 7670  12.737  15.961  13.470
34603W        W 7671   4.212  11.978   3.128
34604W        W 7672  36.411  29.120   2.369
34605W        W 7673  40.980   2.678  13.871
34606W        W 7674   5.763  31.055  11.468
34607W        W 7675  35.156  27.675   1.349
34608W        W 7676   4.487   7.762   1.831
34609W        W 7677  32.018  43.249   0.506
34610W        W 7678  44.479  22.989  14.265
34611W        W 7679  36.599  12.427   0.313
34612W        W 7680  20.645   7.191   0.845
34613W        W 7681  17.816  10.930   0.086
34614W        W 7682  39.078   3.934  12.320
34615W        W 7683  36.081  23.708  12.761
34616W        W 7684  20.046  31.209   1.212
34617W        W 7685  10.231  33.588   3.120
34618W        W 7686  22.118  29.616   3.826
34619W        W 7687  16.513  22.432   2.397
34620W        W 7688  36.049  20.024  13.808
34621W        W 7689  31.458  35.933  14.551
34622W        W 7690  10.252   6.152   4.468
34623W        W 7691  26.728  21.448  11.117
34624W        W 7692  36.503  41.545   2.657
34625W        W 7693   6.673   4.478  13.404
34626W        W 7694   2.320  38.963  12.746
34627W        W 7695   7.951  16.540  14.920
34628W        W 7696   0.203  37.477   2.174
34629W        W 7697   6.230  44.270   0.085
34630W        W 7698   5.799   4.691  11.640
34631W        W 7699  26.534  33.146  13.966
34632W        W 7700  10.671  29.982   3.589
34633W        W 7701   4.670   7.900   3.243
34634W        W 7702   7.285  20.701  13.403
34635W        W 7703  25.180  38.335   4.170
34636W        W 7704  12.671  36.869   4.498
34637W        W 7705  39.048  41.790  11.658
34638W        W 7706  32.943  32.026   4.715
34639W        W 7707  26.870  28.128  10.525
34640W        W 7708  38.810  34.886  11.548
34641W        W 7709  34.932  10.825  12.767
34642W        W 7710   8.425  18.718  14.744
34643W        W 7711  26.983  10.268   2.833
34644W        W 7712  44.971  14.282   5.182
34645W        W 7713  28.038  20.279   0.897
34646W        W 7714  22.080  41.083  14.962
34647W        W 7715  38.818  12.852   0.910
34648W        W 7716  39.923  13.491  13.920
34649W        W 7717  43.168  22.649  10.224
34650W        W 7718   7.874  15.060  13.453
34651W        W 7719  32.700   0.408  11.158
34652W        W 7720  10.736  30.486   3.452
34653W        W 7721  26.949  43.196  13.475
34654W        W 7722  42.614  27.554   3.803
34655W        W 7723  20.644  12.083  14.989
34656W        W 7724   9.312  19.523   1.122
34657W        W 7725  21.989  13.448   0.440
34658W        W 7726  16.954  14.220  11.212
34659W        W 7727  43.467  14.481  12.539
34660W        W 7728   7.540   6.882  14.768
34661W        W 7729  16.788  44.894   4.121
34662W        W 7730  37.781  10.721  12.404
34663W        W 7731  25.959  34.283  12.126
34664W        W 7732  40.833  26.987   4.755
34665W        W 7733  43.792  10.207  12.645
34666W        W 7734  21.296   8.428  13.298
34667W        W 7735  15.714  27.372  13.827
34668W        W 7736  35.034   5.850  10.638
34669W        W 7737  14.794  19.503   3.093
34670W        W 7738  26.669  35.581  11.426
34671W        W 7739  41.446   7.522   0.835
34672W        W 7740  14.173  35.980  14.484
34673W        W 7741   1.000  18.481   0.915
34674W        W 7742   1.340  42.806   3.555
34675W        W 7743   9.053  33.218   4.190
34676W        W 7744  21.305  33.969   3.660
34677W        W 7745  20.795   4.848   2.360
34678W        W 7746  18.163  14.218   0.815
34679W        W 7747  38.105   2.341  11.157
34680W        W 7748  29.583   4.806   2.013
34681W        W 7749  26.378   2.904   2.805
34682W        W 7750   3.298  11.876  11.394
34683W        W 7751  30.642  28.714   2.612
34684W        W 7752  23.386  21.115   4.700
34685W        W 7753  44.600   4.049  13.104
34686W        W 7754  38.972  11.258  11.023
34687W        W 7755  27.686  32.394   2.157
34688W        W 7756  34.659   6.729   4.406
34689W        W 7757  33.627  22.142  12.960
34690W        W 7758  10.911  37.580  11.579
34691W        W 7759  31.835  23.191   3.747
34692W        W 7760  26.064   9.579   4.512
34693W        W 7761  11.786  39.881   4.993
34694W        W 7762  15.808  44.237  13.573
34695W        W 7763  23.012  12.704  12.978
34696W        W 7764  24.007  44.956  13.912
34697W        W 7765  18.713  10.771  14.922
34698W        W 7766  17.141  10.622  13.743
34699W        W 7767  36.639  18.378  12.511
34700W        W 7768  42.396  34.050   0.918
34701W        W 7769  22.079   5.484   0.837
34702W        W 7770  43.271  36.996  10.706
34703W        W 7771   8.355  26.174   1.818
34704W        W 7772  17.305  20.950  11.653
34705W        W 7773  28.317  11.123   2.714
34706W        W 7774   3.262  33.550  14.372
34707W        W 7775   2.587  11.622   1.703
34708W        W 7776  15.864  13.706   2.916
34709W        W 7777   2.650  21.495   5.113
34710W        W 7778   1.822  15.822   1.157
34711W        W 7779  16.659  12.983   1.831
34712W        W 7780  15.349  29.023   4.090
34713W        W 7781  43.238  18.128   1.426
34714W        W 7782  20.493   7.094   2.178
34715W        W 7783  42.555  37.084  14.931
34716W        W 7784   5.115  34.526   2.133
34717W        W 7785  40.926  34.099  12.692
34718W        W 7786   8.876  40.501   3.225
34719W        W 7787  28.116  20.482   3.224
34720W        W 7788  32.128  44.941  14.481
34721W        W 7789  28.301  28.845  14.218
34722W        W 7790   1.646  40.487   3.173
34723W        W 7791  37.925   5.136   4.032
34724W        W 7792  24.993   3.937  14.082
34725W        W 7793  37.046   6.465   0.736
34726W        W 7794   4.292  37.675   4.770
34727W        W 7795  26.114  10.360  10.027
34728W        W 7796  28.554   9.544   1.390
34729W        W 7797  25.126  27.645   2.472
34730W        W 7798  35.498  21.374   2.999
34731W        W 7799  26.215   1.289   2.167
34732W        W 7800  12.140  32.624   1.868
34733W        W 7801  15.291  43.422   0.289
34734W        W 7802   3.266  32.304   2.903
34735W        W 7803   5.887  28.432  14.930
34736W        W 7804  34.293  13.721   1.141
34737W        W 7805  42.474  40.325   3.071
34738W        W 7806  18.125   0.236   2.283
34739W        W 7807  15.121  13.199   2.498
34740W        W 7808  33.881  17.783  14.304
34741W        W 7809  23.266  16.795   2.492
34742W        W 7810  35.500  44.106   3.730
34743W        W 7811  37.841  14.258  14.324
34744W        W 7812  21.102  26.498  11.135
34745W        W 7813  38.860  12.610   1.357
34746W        W 7814  37.330  44.456   3.606
34747W        W 7815  20.927  44.374  14.275
34748W        W 7816  15.606   1.979   3.307
34749W        W 7817  31.622  42.825  12.145
34750W        W 7818  44.615   6.322   2.773
34751W        W 7819   4.189  14.831   1.468
34752W        W 7820   3.196   9.189   2.555
34753W        W 7821   7.519  28.858  11.939
34754W        W 7822  25.074   5.104  10.664
34755W        W 7823  11.748  12.777   4.739
34756W        W 7824  39.786  16.036   4.028
34757W        W 7825   3.954  25.461  11.421
34758W        W 7826  35.655   0.714   0.507
34759W        W 7827  39.455   5.725  14.780
34760W        W 7828  26.184  44.650  11.847
34761W        W 7829  33.944  21.626   1.650
34762W        W 7830  10.245  42.323   3.112
34763W        W 7831  24.966  28.738   0.777
34764W        W 7832  43.850  29.874   0.439
34765W        W 7833   7.388   4.772   4.872
34766W        W 7834  30.658  18.984   0.411
34767W        W 7835  43.719  42.444   0.292
34768W        W 7836   7.827   3.404  13.137
34769W        W 7837  19.753  39.820  10.621
34770W        W 7838   9.813  39.341   2.727
34771W        W 7839  27.591  20.081  12.099
34772W        W 7840  28.184  41.717   3.148
34773W        W 7841  19.292  40.611   0.952
34774W        W 7842  22.955  31.125  11.066
34775W        W 7843   5.680  25.482   4.082
34776W        W 7844   1.073  29.642  12.524
34777W        W 7845   8.715  23.717  11.555
34778W        W 7846  24.227  25.270   1.359
34779W        W 7847  41.959  16.294  14.365
34780W        W 7848  32.870  18.157  12.340
34781W        W 7849  35.443  25.733   4.814
34782W        W 7850  14.072  20.555  14.451
34783W        W 7851  37.907  43.141   1.931
34784W        W 7852  20.020  29.518   1.644
34785W        W 7853   8.439  27.715   3.440
34786W        W 7854  41.421  21.628   0.768
34787W        W 7855   4.518  23.660  14.043
34788W        W 7856  35.934  22.013  14.764
34789W        W 7857   8.257  24.277  12.075
34790W        W 7858  37.265  35.043   4.165
34791W        W 7859  15.660  15.525  11.640
34792W        W 7860   6.461  18.474   3.204
34793W        W 7861  24.971  12.628  14.313
34794W        W 7862  32.559   6.242  12.027
34795W        W 7863   5.439  41.219   2.404
34796W        W 7864  10.628   1.746  13.384
34797W        W 7865  30.800  43.199   9.800
34798W        W 7866  15.243  27.224   1.941
34799W        W 7867  38.510  43.525  13.909
34800W        W 7868  44.024  34.379  14.835
34801W        W 7869  12.359  25.052   2.175
34802W        W 7870  25.504   1.270   0.456
34803W        W 7871  36.394   2.219   1.383
34804W        W 7872  29.569  12.842   2.610
34805W        W 7873  14.133   9.843   3.222
34806W        W 7874  36.825  11.292   2.596
34807W        W 7875  36.986  22.348  13.978
34808W        W 7876  25.933  20.258  10.879
34809W        W 7877  38.057   7.795  10.397
34810W        W 7878  39.062  14.590   4.282
34811W        W 7879  41.797  31.701  13.447
34812W        W 7880  12.329  38.579   0.752
34813W        W 7881  31.241  14.722   3.296
34814W        W 7882  16.774  15.300  10.426
34815W        W 7883  11.215  37.505  11.107
34816W        W 7884   3.650  37.378  13.006
34817W        W 7885  35.341   3.947  13.463
34818W        W 7886  42.363   2.408  12.047
34819W        W 7887   2.817   4.372  10.621
34820W        W 7888  26.014  22.071  11.956
34821W        W 7889  36.911  27.734   0.903
34822W        W 7890  22.601  42.897  12.557
34823W        W 7891  29.244  25.702   3.692
34824W        W 7892   8.760  44.872   4.304
34825W        W 7893   4.894   8.654  10.755
34826W        W 7894  13.105  37.386   0.720
34827W        W 7895   9.261   7.065   1.724
34828W        W 7896  33.022  24.568   2.812
34829W        W 7897  32.373  14.576  13.489
34830W        W 7898  44.558  31.037   2.198
34831W        W 7899  30.176  29.570   2.266
34832W        W 7900  27.166  18.223   3.895
34833W        W 7901  14.818  23.442   2.437
34834W        W 7902  38.355  24.250  14.606
34835W        W 7903  34.152  31.606  12.022
34836W        W 7904  30.283   7.334  11.657
34837W        W 7905  35.837   5.789   1.790
34838W        W 7906   6.816   4.184   4.494
34839W        W 7907  24.592  11.849   1.740
34840W        W 7908  14.192  38.102  14.759
34841W        W 7909  10.502  36.221   3.798
34842W        W 7910   4.771  31.690   1.571
34843W        W 7911   1.766  17.364   1.917
34844W        W 7912  12.750   9.152   3.760
34845W        W 7913  21.500   7.935  11.529
34846W        W 7914   2.506  19.458  13.496
34847W        W 7915   8.448   4.446   3.856
34848W        W 7916  23.678  12.265   2.789
34849W        W 7917   3.006  44.356  11.161
34850W        W 7918  19.789  27.449   0.111
34851W        W 7919  40.964  12.915  10.690
34852W        W 7920   0.193  39.071   1.379
34853W        W 7921  25.987  28.672  14.948
34854W        W 7922  12.233   7.242   4.576
34855W        W 7923  35.514   7.770  11.077
34856W        W 7924  43.752  30.126   0.923
34857W        W 7925  38.856   6.462  11.698
34858W        W 7926  34.415   7.659   3.272
34859W        W 7927   5.866  22.287   0.056
34860W        W 7928  28.176  38.533   0.272
34861W        W 7929  39.902   0.419   0.372
34862W        W 7930   3.495  17.359   4.997
34863W        W 7931  24.002  19.872  11.398
34864W        W 7932  23.178  34.381  12.904
34865W        W 7933  36.377   0.869   5.026
34866W        W 7934   9.922  33.193   4.152
34867W        W 7935  40.052  32.869  11.961
34868W        W 7936  31.028  44.445   3.627
34869W        W 7937   0.539  21.659  11.536
34870W        W 7938  22.704  25.686  14.821
34871W        W 7939  25.491  44.298  14.393
34872W        W 7940  39.842  15.514  13.428
34873W        W 7941  19.702  33.638  12.035
34874W        W 7942  29.550  36.148  14.606
34875W        W 7943  37.339  34.655  14.359
34876W        W 7944   8.553  19.700   4.838
34877W        W 7945  13.654  23.942  12.950
34878W        W 7946  21.580  35.071  14.975
34879W        W 7947   7.319   6.716  11.746
34880W        W 7948  14.792  38.344   3.631
34881W        W 7949   3.832  33.608  14.060
34882W        W 7950  42.547  30.119   0.339
34883W        W 7951  36.400  37.509  11.317
34884W        W 7952  43.654  37.378   2.883
34885W        W 7953  35.303  25.663   2.463
34886W        W 7954   3.633  19.512  11.946
34887W        W 7955  21.304  21.278  13.025
34888W        W 7956  41.794  13.293   2.238
34889W        W 7957  22.848  30.460  14.667
34890W        W 7958   7.040  41.372   5.565
34891W        W 7959  13.646  30.989  11.154
34892W        W 7960  21.342  22.182  13.571
34893W        W 7961  19.052  44.755   4.394
34894W        W 7962   7.777  33.983  14.382
34895W        W 7963  38.356  42.515  11.579
34896W        W 7964  31.077   6.812  14.231
34897W        W 7965  40.079   8.086  12.825
34898W        W 7966   3.316  29.176  12.044
34899W        W 7967  16.013  19.933  11.457
34900W        W 7968  41.086  16.660   2.431
34901W        W 7969  41.369  12.656  12.182
34902W        W 7970   7.804  15.127   2.995
34903W        W 7971  21.671  27.528   1.422
34904W        W 7972  42.197   9.419  13.437
34905W        W 7973  44.575  40.538  14.025
34906W        W 7974  42.265  44.545   2.117
34907W        W 7975  33.830  10.664  13.454
34908W        W 7976  26.960  13.578   4.094
34909W        W 7977   5.497  44.876  13.802
34910W        W 7978  34.602  13.536  11.447
34911W        W 7979  44.184  10.907  13.343
34912W        W 7980  10.304  25.590   4.551
34913W        W 7981  19.994   3.286   4.671
34914W        W 7982  37.841  42.421   0.895
34915W        W 7983  30.872  19.479   0.272
34916W        W 7984   3.448   0.348  12.666
34917W        W 7985  24.717  10.242  13.310
34918W        W 7986  35.494   5.212  13.792
34919W        W 7987   3.223   7.877  11.423
34920W        W 7988  25.151  37.782   4.196
34921W        W 7989  39.970  37.603  11.126
34922W        W 7990  38.276  13.890  10.686
34923W        W 7991  39.377   0.890  10.217
34924W        W 7992  18.558  27.341  12.763
34925W        W 7993  22.702  27.519  13.208
34926W        W 7994  24.189  20.626  11.971
34927W        W 7995  31.949  37.558  13.873
34928W        W 7996   0.932  32.444   1.238
34929W        W 7997  39.761  22.362   1.850
34930W        W 7998  31.020   5.215  12.942
34931W        W 7999  34.395  12.869   4.239
34932W        W 8000  39.372   8.436   0.751
34933W        W 8001  15.788  30.411  10.186
34934W        W 8002   6.672  16.164  13.607
34935W        W 8003   3.508  25.219   3.213
34936W        W 8004  32.557  14.812  13.081
34937W        W 8005   4.404   5.748   0.390
34938W        W 8006  22.912  41.768  10.727
34939W        W 8007  15.351  32.315   4.659
34940W        W 8008  12.728  19.006  14.980
34941W        W 8009  19.990  43.166  10.743
34942W        W 8010   9.132   5.693  12.575
34943W        W 8011  10.405  40.521   3.312
34944W        W 8012  19.191  33.867  12.067
34945W        W 8013  11.624  15.543   2.594
34946W        W 8014  22.674  35.374   4.155
34947W        W 8015  43.768  30.538  11.594
34948W        W 8016  17.353  23.268   3.137
34949W        W 8017  24.715  12.355  12.569
34950W        W 8018  27.931  26.391  14.463
34951W        W 8019   5.199  23.509   1.116
34952W        W 8020  17.499  13.187  14.571
34953W        W 8021  30.852   5.888   1.952
34954W        W 8022  24.629  29.712  12.535
34955W        W 8023  29.116  29.711   2.252
34956W        W 8024  40.874  44.218  12.369
34957W        W 8025  15.058  16.506   2.326
34958W        W 8026   8.949  19.961   1.800
34959W        W 8027  42.982  10.324   0.756
34960W        W 8028  28.625   6.145  10.744
34961W        W 8029   9.345  25.413   1.256
34962W        W 8030  27.679  19.037   0.698
34963W        W 8031  35.979  36.275   2.800
34964W        W 8032  42.263  11.726  12.405
34965W        W 8033  14.640  28.574   0.987
34966W        W 8034   7.800  33.549   0.063
34967W        W 8035   2.265  39.734   2.690
34968W        W 8036  35.340  33.348  11.555
34969W        W 8037  23.919   3.994   1.336
34970W        W 8038  28.843  11.916   5.701
34971W        W 8039  19.160  18.120  10.632
34972W        W 8040  29.660  13.772   2.648
34973W        W 8041  25.468  13.152   2.244
34974W        W 8042  11.972   7.228   5.026
34975W        W 8043  37.398  12.575  10.765
34976W        W 8044  28.172  39.781  12.961
34977W        W 8045   3.493  36.803  11.097
34978W        W 8046   1.422  44.954   3.059
34979W        W 8047  24.375  17.807  10.207
34980W        W 8048  43.998   8.355   4.500
34981W        W 8049  34.115  39.306   2.798
34982W        W 8050   5.918  37.281  12.502
34983W        W 8051  36.110  20.530  13.857
34984W        W 8052  14.765  12.673   2.352
34985W        W 8053   3.039   9.287   4.631
34986W        W 8054  20.835  13.344  14.822
34987W        W 8055  31.492  22.591  12.754
34988W        W 8056  20.769  32.559   2.126
34989W        W 8057  13.320  33.999  14.870
34990W        W 8058   0.406   8.597   5.099
34991W        W 8059  34.402  18.721  13.115
34992W        W 8060  16.112  20.116  10.653
34993W        W 8061  28.412  31.996  13.377
34994W        W 8062   7.240  33.298  11.593
34995W        W 8063   5.351  15.243  14.685
34996W        W 8064  41.449   5.519  10.579
34997W        W 8065  10.725  43.853   1.697
34998W        W 8066  41.529  13.296   2.687
34999W        W 8067  25.554  24.412   1.874
35000W        W 8068  33.793   2.422  11.128
35001W        W 8069  22.613  12.349  13.597
35002W        W 8070  36.498  26.988  11.551
35003W        W 8071  35.324  13.381  12.073
35004W        W 8072  33.060   7.157   3.876
35005W        W 8073  16.900  34.107   4.437
35006W        W 8074   9.128   7.739  14.371
35007W        W 8075  11.712  15.875   1.745
35008W        W 8076  23.034  23.734  11.466
35009W        W 8077   6.897  33.328   1.000
35010W        W 8078  36.334  14.759   2.131
35011W        W 8079  10.658  14.698   0.793
35012W        W 8080  27.529  24.227  11.523
35013W        W 8081  38.783  15.393   0.703
35014W        W 8082  42.043  21.586  10.754
35015W        W 8083  37.984  40.256  14.264
35016W        W 8084  40.240  30.943   4.786
35017W        W 8085  15.895   1.531  11.388
35018W        W 8086  26.104  30.243  13.487
35019W        W 8087  25.656  42.892  12.558
35020W        W 8088  27.467  36.525  13.933
35021W        W 8089  26.785   7.787  14.753
35022W        W 8090  21.006  23.042  14.809
35023W        W 8091  43.979  22.095   2.874
35024W        W 8092  34.103  10.126   5.006
35025W        W 8093   8.662  11.319  14.307
35026W        W 8094   7.287  13.663  14.297
35027W        W 8095  20.793  36.212   0.928
35028W        W 8096  25.247  39.883  13.571
35029W        W 8097  34.015   4.400   0.655
35030W        W 8098  16.871  11.311  13.059
35031W        W 8099  14.758  32.971  10.612
35032W        W 8100   2.468  41.309   0.210
35033W        W 8101  19.462  11.447  14.789
35034W        W 8102  19.981  25.624  13.843
35035W        W 8103   0.548  27.179  11.548
35036W        W 8104  28.965  29.109   0.324
35037W        W 8105  35.444  16.429  13.529
35038W        W 8106  43.226   2.477   4.394
35039W        W 8107  33.016  11.247   1.339
35040W        W 8108  35.980  14.644   3.988
35041W        W 8109   9.082   4.702   4.142
35042W        W 8110  38.663  43.611  12.281
35043W        W 8111   6.852  35.579  13.937
35044W        W 8112  34.734   8.256   4.580
35045W        W 8113   8.443  29.467  11.772
35046W        W 8114  25.808  36.863   4.389
35047W        W 8115   3.949  18.693  11.516
35048W        W 8116  21.147  16.703  14.835
35049W        W 8117  12.267   9.225  11.028
35050W        W 8118  44.084  30.561  11.137
35051W        W 8119  36.377  20.473  11.308
35052W        W 8120  33.654   9.181  13.467
35053W        W 8121   3.390   3.788  14.946
35054W        W 8122  36.057  16.189   0.712
35055W        W 8123  38.166  33.388   2.337
35056W        W 8124  20.732  13.161   4.715
35057W        W 8125  14.248   2.758   3.815
35058W        W 8126  28.208  11.039   0.912
35059W        W 8127   9.225  28.336   4.157
35060W        W 8128   9.730   3.427  12.956
35061W        W 8129  18.688  17.585   0.279
35062W        W 8130  19.572  22.190   1.371
35063W        W 8131  42.020  29.929  11.630
35064W        W 8132  36.188  12.068  11.202
35065W        W 8133  44.742  26.650   1.511
35066W        W 8134  28.524   8.924  14.507
35067W        W 8135  10.425  40.240   1.939
35068W        W 8136   3.493  27.667  11.750
35069W        W 8137  43.467   7.347  11.942
35070W        W 8138   1.868   4.619   0.879
35071W        W 8139  40.713   0.463   2.667
35072W        W 8140  26.637  29.148   1.775
35073W        W 8141  37.921   4.172  14.463
35074W        W 8142  17.203  34.555  13.425
35075W        W 8143  41.593  31.132  11.948
35076W        W 8144  39.417  36.839  14.182
35077W        W 8145  15.239  44.345   3.575
35078W        W 8146  22.533  25.042   3.998
35079W        W 8147  20.964  20.295  14.772
35080W        W 8148  44.510  41.871  14.319
35081W        W 8149  18.798  11.301  10.529
35082W        W 8150  33.703   2.205  12.135
35083W        W 8151  39.766  40.927  13.967
35084W        W 8152   2.936  36.055   1.700
35085W        W 8153   2.954   4.777  14.883
35086W        W 8154  17.512  34.890   2.786
35087W        W 8155  11.042  42.539  10.420
35088W        W 8156  17.513  28.091   4.941
35089W        W 8157  16.779  17.702   0.129
35090W        W 8158  38.991  28.868  12.645
35091W        W 8159  41.355  32.608  12.088
35092W        W 8160  44.281  24.724  13.566
35093W        W 8161  39.244   0.587   4.541
35094W        W 8162   2.126   7.790   0.513
35095W        W 8163  26.483  37.255   2.193
35096W        W 8164  44.171  11.072   3.191
35097W        W 8165  15.330  30.485  11.694
35098W        W 8166   8.797   4.120   2.806
35099W        W 8167  25.975  26.741   1.764
35100W        W 8168  18.809  23.466   4.876
35101W        W 8169  11.718  26.588  14.823
35102W        W 8170  17.318   0.714  14.944
35103W        W 8171   5.276  16.964   2.340
35104W        W 8172  17.511  35.469   2.209
35105W        W 8173  29.832  23.706  14.055
35106W        W 8174  42.056   7.231   2.424
35107W        W 8175   4.825  31.487  10.552
35108W        W 8176   1.671  40.349  12.430
35109W        W 8177   3.227  29.975  10.863
35110W        W 8178  21.233  33.714  14.899
35111W        W 8179  35.579   2.647  11.645
35112W        W 8180  18.647  43.283   2.205
35113W        W 8181  41.434  13.823  11.393
35114W        W 8182  31.020   4.887  10.993
35115W        W 8183  26.117  39.589  13.943
35116W        W 8184   8.430  19.181  12.443
35117W        W 8185   2.867  36.962   3.895
35118W        W 8186  36.603  40.445   4.082
35119W        W 8187  14.507  37.261  11.653
35120W        W 8188   6.290  44.448   2.421
35121W        W 8189   2.902   0.027   1.769
35122W        W 8190   7.374  43.928  13.407
35123W        W 8191  43.432  19.741   4.610
35124W        W 8192  42.441  32.961  14.355
35125W        W 8193  39.391  34.008   2.667
35126W        W 8194   4.848  31.919   4.150
35127W        W 8195  16.765   4.916   2.649
35128W        W 8196  44.760  43.359  12.635
35129W        W 8197  14.525   3.145   2.760
35130W        W 8198  19.735  27.404   2.836
35131W        W 8199  29.427  39.000  11.545
35132W        W 8200  40.562  28.419  14.346
35133W        W 8201   3.473  42.522  10.152
35134W        W 8202  24.428  35.596   4.362
35135W        W 8203  20.574   7.761   4.098
35136W        W 8204   8.381  13.278   1.900
35137W        W 8205   6.716  30.445  12.079
35138W        W 8206  25.144   2.437   4.546
35139W        W 8207  38.798   6.337   1.277
35140W        W 8208  34.107  30.091  14.749
35141W        W 8209  43.398  13.747  11.038
35142W        W 8210  22.756  39.182   2.145
35143W        W 8211  44.206  30.419   1.790
35144W        W 8212  32.633  18.812  11.972
35145W        W 8213  29.079   2.403   2.913
35146W        W 8214  33.873  16.189  10.657
35147W        W 8215   2.185  42.449   3.361
35148W        W 8216  14.947  18.288   0.527
35149W        W 8217  42.347  17.495   2.990
35150W        W 8218  42.222   5.579  10.627
35151W        W 8219   2.510  24.484   3.656
35152W        W 8220  41.948  25.526   0.549
35153W        W 8221  13.119   6.349   2.926
35154W        W 8222  36.213  26.506  13.010
35155W        W 8223  40.940  37.245   4.850
35156W        W 8224  26.435  11.172   4.145
35157W        W 8225  10.333   2.805  14.127
35158W        W 8226  28.027  33.081  14.795
35159W        W 8227  29.195   8.588  14.769
35160W        W 8228  43.334  29.805   1.794
35161W        W 8229   9.468   6.710   4.972
35162W        W 8230  17.114   2.736  10.639
35163W        W 8231   8.281  34.521   3.088
35164W        W 8232  20.992  42.455  13.592
35165W        W 8233   0.461  16.313  14.340
35166W        W 8234   8.592   8.301   3.977
35167W        W 8235  15.034  44.383  13.832
35168W        W 8236  27.621  19.094   2.903
35169W        W 8237  14.076  23.660   2.567
35170W        W 8238   4.347  33.306  10.804
35171W        W 8239   9.442  12.178   3.195
35172W        W 8240  17.467  37.941  10.628
35173W        W 8241  10.146  17.744   0.471
35174W        W 8242  28.738  31.318  11.702
35175W        W 8243  15.246  32.981  12.324
35176W        W 8244  11.528  35.596   3.238
35177W        W 8245  43.495   3.141  10.736
35178W        W 8246  41.318  19.477  12.983
35179W        W 8247  10.765  23.933  10.228
35180W        W 8248  39.772   9.651   4.685
35181W        W 8249  23.507  27.378  10.781
35182W        W 8250  11.610   1.455  14.955
35183W        W 8251  39.927  32.463  12.582
35184W        W 8252  11.147  11.590  14.947
35185W        W 8253  40.035  28.621   3.921
35186W        W 8254  28.645  14.810   2.873
35187W        W 8255   8.685  40.728  12.038
35188W        W 8256  38.318  28.018   4.281
35189W        W 8257   7.909  26.427   1.853
35190W        W 8258  20.781  24.996  13.462
35191W        W 8259  24.183  29.325   3.309
35192W        W 8260   2.291  27.909  14.962
35193W        W 8261  34.890   8.650   3.594
35194W        W 8262  38.358  37.071   2.265
35195W        W 8263  19.000  35.018   1.935
35196W        W 8264   5.996  15.308   2.574
35197W        W 8265  21.767  37.803  13.401
35198W        W 8266  28.417  15.616   4.696
35199W        W 8267   0.194   3.902   3.803
35200W        W 8268   6.726  41.834  13.376
35201W        W 8269  41.579  26.370  14.793
35202W        W 8270  28.447  19.291   2.935
35203W        W 8271  24.475  18.155   2.358
35204W        W 8272  37.849  37.914   3.195
35205W        W 8273   4.269   5.062   3.139
35206W        W 8274  20.542  31.553  10.717
35207W        W 8275   9.591  20.787  12.085
35208W        W 8276  21.738  25.052  11.168
35209W        W 8277  31.953  28.913   3.191
35210W        W 8278  11.802   7.893  14.841
35211W        W 8279  20.189  21.043   4.595
35212W        W 8280  22.771   3.200   3.726
35213W        W 8281  43.540  17.735   4.586
35214W        W 8282  42.556  13.430   5.051
35215W        W 8283  29.691   6.996   4.534
35216W        W 8284   0.359   7.444  11.562
35217W        W 8285  42.948  41.924  11.830
35218W        W 8286   7.016  42.241  13.488
35219W        W 8287  42.637  33.548  14.055
35220W        W 8288  11.746  14.691  12.589
35221W        W 8289  44.773  39.780  14.338
35222W        W 8290  26.548  30.943   3.113
35223W        W 8291  14.846   3.947   1.870
35224W        W 8292   9.500  27.631   0.313
35225W        W 8293  13.178  10.607  11.681
35226W        W 8294   6.677  24.083   1.375
35227W        W 8295  12.789  18.154  13.266
35228W        W 8296  39.990  23.752   2.402
35229W        W 8297  37.535  30.035   4.165
35230W        W 8298  12.744  35.974   1.436
35231W        W 8299  37.810   4.334   1.788
35232W        W 8300  19.085  24.645  10.662
35233W        W 8301  39.806   4.993  14.496
35234W        W 8302  43.512  26.733  13.900
35235W        W 8303  14.281  38.936   2.975
35236W        W 8304   3.828  40.796  14.891
35237W        W 8305   6.651  41.993   5.253
35238W        W 8306  21.035  26.456   0.405
35239W        W 8307  30.015  39.852  12.611
35240W        W 8308  41.782  32.577   2.832
35241W        W 8309  24.462  15.134   3.946
35242W        W 8310   1.310  40.547  12.778
35243W        W 8311  18.475  15.598   3.628
35244W        W 8312   4.893  10.306  12.126
35245W        W 8313  25.243  20.532   2.340
35246W        W 8314  19.769   8.400   1.492
35247W        W 8315  21.266  44.731  12.361
35248W        W 8316  39.952  13.985  10.237
35249W        W 8317  19.076   1.244   5.061
35250W        W 8318  44.777  30.106  14.423
35251W        W 8319  15.255  20.528  13.202
35252W        W 8320  39.536   1.150  12.601
35253W        W 8321  17.891  38.628  11.950
35254W        W 8322  10.298  14.283  11.720
35255W        W 8323   6.370  39.650  10.653
35256W        W 8324  26.258   4.471  11.052
35257W        W 8325  17.220  28.266   4.534
35258W        W 8326  18.200  30.507   2.402
35259W        W 8327  17.436  38.030  11.530
35260W        W 8328  18.106  36.376  14.968
35261W        W 8329  20.672  27.998  10.548
35262W        W 8330  32.792  10.998   2.888
35263W        W 8331  44.370  23.962  14.297
35264W        W 8332  22.171  14.790   3.112
35265W        W 8333   9.211  14.848  13.441
35266W        W 8334  33.542   1.761  14.508
35267W        W 8335  40.961  29.095  12.912
35268W        W 8336   4.475   5.276   2.176
35269W        W 8337  44.022  24.258  14.566
35270W        W 8338  34.973  34.548  14.315
35271W        W 8339  12.485  10.671  12.538
35272W        W 8340  36.013  39.852  12.463
35273W        W 8341  40.341   6.615  13.434
35274W        W 8342  16.630  43.555   4.603
35275W        W 8343   4.209  34.961  14.321
35276W        W 8344  21.547  33.039  12.814
35277W        W 8345   2.528  20.215   1.456
35278W        W 8346  31.975  42.956  12.524
35279W        W 8347  18.474  30.657   2.830
35280W        W 8348   1.173  17.953  12.871
35281W        W 8349  10.147   2.985  11.986
35282W        W 8350  25.662  17.299  12.930
35283W        W 8351   6.452   8.444  11.411
35284W        W 8352   8.363  22.244   1.649
35285W        W 8353  37.125  32.554   3.428
35286W        W 8354  43.859  10.088   3.359
35287W        W 8355  11.329  22.267   4.088
35288W        W 8356  25.967  27.121   2.767
35289W        W 8357  42.423  33.806   3.374
35290W        W 8358  14.427   8.864  11.627
35291W        W 8359  42.790  10.672  13.522
35292W        W 8360  37.005   1.918   0.934
35293W        W 8361  35.252   6.774  14.397
35294W        W 8362  32.850  32.663  13.110
35295W        W 8363   2.061  15.431   3.496
35296W        W 8364  19.485  43.451   4.570
35297W        W 8365  11.835  40.143  10.750
35298W        W 8366  28.877  43.726   0.774
35299W        W 8367  34.292  22.281   4.119
35300W        W 8368  24.683   5.859  12.711
35301W        W 8369  17.736  10.657  14.098
35302W        W 8370  29.543  13.731  13.050
35303W        W 8371  41.831  34.686   1.740
35304W        W 8372  24.463  41.092   3.019
35305W        W 8373   8.263   1.862  13.024
35306W        W 8374   8.135   7.408  11.722
35307W        W 8375   4.884  25.645  11.012
35308W        W 8376  25.324   7.122   1.338
35309W        W 8377  41.457  44.316  14.873
35310W        W 8378  27.133  25.200  13.935
35311W        W 8379  11.147  21.599   3.889
35312W        W 8380  44.563  33.085   2.860
35313W        W 8381   6.916   3.235   0.229
35314W        W 8382  34.733  19.573   2.812
35315W        W 8383   3.316   9.633   2.797
35316W        W 8384  43.038  30.044   2.777
35317W        W 8385  29.905  41.434  11.583
35318W        W 8386   4.359  40.569   2.413
35319W        W 8387  22.078  24.061  13.998
35320W        W 8388   2.968  44.841  11.931
35321W        W 8389  23.022  26.916   1.389
35322W        W 8390  30.164  34.615  12.100
35323W        W 8391  28.360  22.231  12.839
35324W        W 8392   9.773   6.278  14.990
35325W        W 8393  16.621  43.038   4.599
35326W        W 8394  13.246  10.311   4.349
35327W        W 8395   4.074  19.351   0.395
35328W        W 8396  14.939  25.987  13.415
35329W        W 8397   4.071  31.093   2.645
35330W        W 8398  19.998  36.309  14.936
35331W        W 8399  25.740  32.341  14.899
35332W        W 8400  21.220  20.510  14.346
35333W        W 8401   9.649  13.244  10.675
35334W        W 8402  15.104  32.542  13.566
35335W        W 8403  41.753   5.435   1.695
35336W        W 8404  27.182  37.620  13.400
35337W        W 8405   3.324  35.899  12.003
35338W        W 8406  14.887  12.866   2.811
35339W        W 8407   4.731  40.917   2.114
35340W        W 8408  33.296   8.460  13.876
35341W        W 8409  35.329  14.299  13.006
35342W        W 8410   6.709  10.079  12.054
35343W        W 8411  30.920  16.150  12.517
35344W        W 8412  15.523   8.806  13.156
35345W        W 8413  32.515  24.206   1.748
35346W        W 8414  31.046  25.482   1.649
35347W        W 8415   2.556   6.196  11.103
35348W        W 8416  15.540  25.934   0.718
35349W        W 8417  16.090   0.064   1.803
35350W        W 8418  38.421  13.638   4.261
35351W        W 8419   3.839  12.779  14.103
35352W        W 8420  37.856  18.723  12.877
35353W        W 8421  43.292   0.982  12.254
35354W        W 8422  17.570  38.398   3.273
35355W        W 8423  18.277  42.439   4.094
35356W        W 8424  22.493  30.434  12.142
35357W        W 8425   7.425  33.716   2.668
35358W        W 8426  13.035  24.481   3.685
35359W        W 8427  15.984  29.193   0.567
35360W        W 8428  28.204  19.739  13.836
35361W        W 8429   9.253  16.163   2.224
35362W        W 8430   0.830  10.061   0.410
35363W        W 8431   4.690  24.174   4.698
35364W        W 8432  12.540  38.061   0.781
35365W        W 8433  44.591  41.615   4.278
35366W        W 8434  14.183  24.776  14.604
35367W        W 8435  34.133  39.551   3.229
35368W        W 8436  20.908  29.160   1.799
35369W        W 8437  18.064  41.396   4.069
35370W        W 8438  22.618  37.266  10.877
35371W        W 8439  27.640  31.798  13.804
35372W        W 8440  29.661   6.353   5.049
35373W        W 8441  33.915   7.843  12.453
35374W        W 8442   1.776  36.560  13.551
35375W        W 8443   0.278  33.109   3.199
35376W        W 8444  27.203  26.596   4.506
35377W        W 8445  36.814  13.056   2.701
35378W        W 8446  41.519  38.779  14.484
35379W        W 8447  41.752  39.165  12.683
35380W        W 8448  24.958   9.324   4.116
35381W        W 8449   0.118  28.699   3.684
35382W        W 8450  19.581   1.517   3.987
35383W        W 8451  24.259  25.364   0.864
35384W        W 8452  30.396  39.363  11.669
35385W        W 8453   0.178  34.941   4.278
35386W        W 8454   5.831  27.034  13.156
35387W        W 8455   1.810   1.503   2.695
35388W        W 8456  13.728  16.128   0.616
35389W        W 8457  23.561   8.990  12.402
35390W        W 8458  20.417   6.152   3.701
35391W        W 8459   1.323  38.324  13.016
35392W        W 8460  23.658  28.057   0.020
35393W        W 8461   3.429   3.263  11.070
35394W        W 8462   1.700  32.031   1.274
35395W        W 8463  28.871   3.455  11.599
35396W        W 8464  36.068   3.444   3.279
35397W        W 8465  22.572  23.675   0.085
35398W        W 8466  24.179   1.974   1.381
35399W        W 8467  27.504  35.530  10.791
35400W        W 8468  37.453  24.330   0.927
35401W        W 8469  24.528  42.423  13.893
35402W        W 8470   0.522  16.732   2.652
35403W        W 8471  27.172  26.177  11.138
35404W        W 8472   9.416   2.742  11.227
35405W        W 8473   6.737  36.537  12.026
35406W        W 8474  35.192  36.017   3.766
35407W        W 8475   6.484  33.424   4.653
35408W        W 8476  35.063   6.985  11.430
35409W        W 8477  11.056   5.005   1.812
35410W        W 8478   6.883  20.541  11.162
35411W        W 8479  10.782   6.718   3.644
35412W        W 8480  27.834  42.531   3.733
35413W        W 8481   1.431   3.894  14.393
35414W        W 8482  23.544  26.242  13.617
35415W        W 8483  17.594  39.910  12.062
35416W        W 8484   7.599  21.940   0.248
35417W        W 8485  29.585  43.874  11.979
35418W        W 8486  29.058   1.684  14.855
35419W        W 8487  31.988  20.113   0.779
35420W        W 8488  44.729  35.476  12.893
35421W        W 8489  33.589  10.224   0.327
35422W        W 8490  41.910  17.593   0.822
35423W        W 8491  24.048  11.004   0.343
35424W        W 8492  26.569   0.923  11.572
35425W        W 8493  40.054   5.851  11.155
35426W        W 8494  30.443   7.581   5.015
35427W        W 8495  14.442  26.610   1.434
35428W        W 8496  36.889  32.751  12.263
35429W        W 8497   4.227  34.605  10.284
35430W        W 8498  38.901  28.276   5.039
35431W        W 8499  28.588  25.231  10.756
35432W        W 8500  27.643  21.123  12.086
35433W        W 8501  28.966  29.591  11.631
35434W        W 8502   1.937  11.766   4.125
35435W        W 8503   0.285   5.436  12.380
35436W        W 8504  39.287  35.456   1.411
35437W        W 8505  11.121   8.887  13.061
35438W        W 8506  27.265   1.987   0.146
35439W        W 8507  40.725   0.419  11.662
35440W        W 8508  15.463   6.600   1.730
35441W        W 8509   7.351  12.228   4.138
35442W        W 8510  13.947   1.233  11.901
35443W        W 8511  16.115  23.602  12.957
35444W        W 8512   6.006  13.647  14.796
35445W        W 8513  19.862  15.868   2.795
35446W        W 8514   9.938  44.840   3.596
35447W        W 8515   6.181  15.822  12.458
35448W        W 8516   9.480  12.170   2.376
35449W        W 8517  40.396   2.823   1.627
35450W        W 8518  33.682  33.079   0.815
35451W        W 8519   2.423   2.449   0.497
35452W        W 8520  40.817  38.848  13.915
35453W        W 8521   7.154  29.053   1.380
35454W        W 8522  11.858   4.289  13.334
35455W        W 8523  36.798  28.196   3.234
35456W        W 8524  31.944  20.011  11.595
35457W        W 8525   6.321   2.971  14.900
35458W        W 8526   7.878  36.380   4.366
35459W        W 8527   5.821   3.099   3.399
35460W        W 8528  26.526  18.277   0.332
35461W        W 8529   1.880  31.928  11.481
35462W        W 8530   8.346  40.881   2.742
35463W        W 8531   1.140  12.067   0.313
35464W        W 8532  32.902  12.436   5.225
35465W        W 8533   0.282  39.438   3.396
35466W        W 8534  17.398  26.451   0.644
35467W        W 8535  10.794  41.346   5.066
35468W        W 8536   2.357  35.659   2.296
35469W        W 8537  27.504  16.013  12.974
35470W        W 8538  15.578  38.447   4.108
35471W        W 8539  28.088  25.303  10.878
35472W        W 8540  16.748  19.754   0.814
35473W        W 8541  17.383  39.531  14.030
35474W        W 8542  32.156  14.163  12.082
35475W        W 8543   9.946  42.260   9.839
35476W        W 8544  22.466  17.615   5.010
35477W        W 8545   1.756  40.895   2.350
35478W        W 8546   6.347  20.273  14.556
35479W        W 8547  16.124  40.016  13.444
35480W        W 8548  38.991   9.675  12.779
35481W        W 8549   4.449  44.486   1.194
35482W        W 8550  42.441  21.521   4.347
35483W        W 8551  14.842  34.429   3.683
35484W        W 8552  40.449  33.115   2.839
35485W        W 8553   7.860  34.843  13.028
35486W        W 8554  39.453  34.627   3.916
35487W        W 8555  35.822  23.310  11.641
35488W        W 8556  26.956  13.079   0.468
35489W        W 8557  10.246  37.294   4.187
35490W        W 8558  44.745   6.960   2.635
35491W        W 8559   1.229  19.014   2.230
35492W        W 8560   6.345  41.501   4.677
35493W        W 8561  11.407  38.390  14.894
35494W        W 8562   4.872  43.553   3.095
35495W        W 8563  41.960  35.019   4.522
35496W        W 8564  12.830  25.169  11.969
35497W        W 8565  42.216  11.295  13.165
35498W        W 8566   5.167  35.597  12.940
35499W        W 8567  32.050  37.877  13.466
35500W        W 8568  11.266  26.635  12.975
35501W        W 8569  38.433  30.340   1.272
35502W        W 8570   8.850   7.969   4.308
35503W        W 8571   3.334  40.326  13.681
35504W        W 8572  28.214  38.233   1.864
35505W        W 8573   4.412  10.595  14.834
35506W        W 8574  28.668   6.864  14.434
35507W        W 8575  19.236  16.277  10.754
35508W        W 8576  24.629   1.796  13.949
35509W        W 8577  19.708  32.814  13.852
35510W        W 8578  16.191  25.027   0.808
35511W        W 8579  15.644  19.510  14.465
35512W        W 8580  15.559  31.746  13.412
35513W        W 8581   7.196  43.323   0.475
35514W        W 8582  39.359  16.591  13.462
35515W        W 8583  19.575  12.775   3.201
35516W        W 8584  23.481  43.315  14.326
35517W        W 8585  21.305  44.887   3.251
35518W        W 8586  35.589   5.353   4.591
35519W        W 8587  12.633   0.519   3.791
35520W        W 8588  19.778  13.035  12.465
35521W        W 8589  35.300  35.211  12.034
35522W        W 8590   8.410  36.349   4.296
35523W        W 8591  33.126  27.302  11.617
35524W        W 8592  22.670  21.047   0.891
35525W        W 8593  34.924  44.905  14.811
35526W        W 8594  24.715   1.197   5.178
35527W        W 8595  27.870  41.352   3.986
35528W        W 8596   1.232  23.369  12.436
35529W        W 8597  34.901  16.234   3.652
35530W        W 8598  18.687  28.706   2.286
35531W        W 8599   1.972  19.591   1.173
35532W        W 8600  12.560  12.286  10.596
35533W        W 8601   9.163  35.439  10.986
35534W        W 8602  38.376  12.763   1.255
35535W        W 8603   6.205  25.626   1.938
35536W        W 8604  29.394   8.117  14.618
35537W        W 8605  15.935   8.955   9.921
35538W        W 8606  42.390  25.945   2.309
35539W        W 8607  27.926   6.794  14.972
35540W        W 8608  28.471   1.830   3.243
35541W        W 8609   5.786  38.733  10.669
35542W        W 8610  36.527   5.877   2.927
35543W        W 8611  26.712  20.006  11.627
35544W        W 8612  34.618  31.672   2.664
35545W        W 8613  10.980  17.659  11.656
35546W        W 8614  17.024   3.036   1.755
35547W        W 8615   8.911   7.251   0.874
35548W        W 8616  13.304  15.937   0.846
35549W        W 8617   2.456  22.756  12.485
35550W        W 8618   6.878  16.243  10.869
35551W        W 8619  16.061   2.887  13.520
35552W        W 8620  31.090  34.989   3.886
35553W        W 8621   2.722   7.657  14.139
35554W        W 8622   1.105   3.844  11.175
35555W        W 8623  35.069  33.819  11.595
35556W        W 8624   4.212  43.534   1.681
35557W        W 8625  29.885  12.775  12.538
35558W        W 8626  34.153  36.862   2.765
35559W        W 8627  12.989  39.342  10.147
35560W        W 8628  31.601  37.103  13.461
35561W        W 8629  35.896  43.007  13.860
35562W        W 8630  33.994  20.476  11.592
35563W        W 8631  32.171  11.787  12.932
35564W        W 8632  19.573  10.518  14.402
35565W        W 8633  27.084   2.463   0.223
35566W        W 8634  34.047  44.084  13.388
35567W        W 8635   9.068  38.530   1.719
35568W        W 8636  17.925  35.396  13.084
35569W        W 8637   5.185  16.688   3.767
35570W        W 8638  34.921  34.009   1.461
35571W        W 8639  40.242   8.591   2.259
35572W        W 8640  15.833   5.282  13.054
35573W        W 8641  37.356  41.377  12.788
35574W        W 8642  42.032  23.078  13.791
35575W        W 8643   2.836  31.868  11.683
35576W        W 8644  17.796  12.665   0.996
35577W        W 8645  26.272  40.283  11.889
35578W        W 8646   2.386  18.241   1.454
35579W        W 8647   3.195   1.978   1.216
35580W        W 8648  27.590   8.362   0.925
35581W        W 8649  38.538  32.674   4.202
35582W        W 8650  29.196  14.262  11.519
35583W        W 8651  32.911  42.305  14.858
35584W        W 8652  35.074  41.921   2.688
35585W        W 8653   3.270  18.770  13.544
35586W        W 8654  24.497  40.524  11.547
35587W        W 8655  36.092  10.137   0.983
35588W        W 8656   4.391  34.498   3.116
35589W        W 8657  35.488  17.851  13.767
35590W        W 8658  41.769  11.396  10.751
35591W        W 8659   0.928  42.078  11.207
35592W        W 8660   1.862  16.825   3.254
35593W        W 8661  29.966   6.759   4.940
35594W        W 8662  36.328  13.071  14.835
35595W        W 8663  30.086  13.393   3.808
35596W        W 8664  27.696   4.338   3.678
35597W        W 8665   4.790  12.086   2.364
35598W        W 8666   9.096   8.311   1.286
35599W        W 8667   8.157  26.100   0.450
35600W        W 8668  14.711  32.046  11.107
35601W        W 8669  20.086   2.916   4.201
35602W        W 8670   5.588  19.814   0.942
35603W        W 8671  43.483  26.869  11.553
35604W        W 8672  33.440  41.758  13.431
35605W        W 8673  40.576  11.141   4.719
35606W        W 8674  13.890  28.032  10.760
35607W        W 8675  35.537  19.731   4.136
35608W        W 8676  16.204  42.494   1.425
35609W        W 8677   2.143  41.103   3.789
35610W        W 8678  30.473  29.441  11.661
35611W        W 8679   4.638  35.129  11.989
35612W        W 8680  18.247  29.630  12.590
35613W        W 8681  38.015  27.079   2.685
35614W        W 8682  10.037  22.628  10.318
35615W        W 8683  38.300   7.911   1.391
35616W        W 8684  25.156  28.112   4.507
35617W        W 8685  11.745  23.773  12.901
35618W        W 8686  24.749  16.893   4.329
35619W        W 8687   6.197  17.791   4.176
35620W        W 8688  20.163  20.153  13.733
35621W        W 8689  12.171  33.149   1.822
35622W        W 8690   4.898  29.268   9.912
35623W        W 8691  20.533  27.460   0.016
35624W        W 8692  30.002  34.869  13.477
35625W        W 8693  13.121  17.519  13.466
35626W        W 8694  27.071   1.731  13.277
35627W        W 8695  20.890   1.492   4.120
35628W        W 8696  27.688  29.628  12.900
35629W        W 8697  30.660   8.854  10.813
35630W        W 8698  18.631  32.614  14.197
35631W        W 8699  42.807  25.657  13.010
35632W        W 8700   8.775  33.645   1.252
35633W        W 8701  27.405  22.766   0.841
35634W        W 8702  32.034  21.799  12.326
35635W        W 8703   2.286  13.098   3.206
35636W        W 8704  41.511   1.927   1.757
35637W        W 8705  27.942  22.470  13.068
35638W        W 8706  37.354   9.607  11.951
35639W        W 8707  26.514  42.129  11.847
35640W        W 8708  12.901  35.319  11.408
35641W        W 8709  41.790   1.994  10.724
35642W        W 8710   0.290  12.252   3.691
35643W        W 8711  41.501  38.163  11.096
35644W        W 8712  35.152  35.381  14.463
35645W        W 8713   0.912  32.127  12.988
35646W        W 8714  20.998   5.291   2.964
35647W        W 8715   2.308  13.779   1.181
35648W        W 8716  11.258  15.777  10.391
35649W        W 8717  29.048   5.834  10.681
35650W        W 8718   0.756   1.209  10.617
35651W        W 8719  39.982  31.406  12.514
35652W        W 8720   4.182  40.947  11.557
35653W        W 8721   0.652  33.183  12.904
35654W        W 8722  38.862  16.065   3.190
35655W        W 8723  16.229  18.972  10.666
35656W        W 8724   4.739  14.775   3.249
35657W        W 8725  36.335  41.357   3.624
35658W        W 8726   2.785  35.173  12.050
35659W        W 8727   6.690  12.843   3.628
35660W        W 8728  26.675  17.266  13.878
35661W        W 8729  37.460  42.318   4.252
35662W        W 8730  20.990  41.425   1.942
35663W        W 8731  38.678  41.488   1.235
35664W        W 8732  37.445  37.593   0.188
35665W        W 8733   5.829  18.825   0.583
35666W        W 8734  43.850  36.090  14.448
35667W        W 8735  29.909  11.075  13.542
35668W        W 8736  20.421  26.193  14.352
35669W        W 8737  15.348  22.099  13.931
35670W        W 8738   1.877  31.890  13.251
35671W        W 8739   8.264  37.851  14.855
35672W        W 8740   6.165  25.390   4.275
35673W        W 8741  27.033  22.620  11.560
35674W        W 8742  11.056  44.404  10.979
35675W        W 8743  42.441  26.417  13.587
35676W        W 8744  11.678  40.403   4.107
35677W        W 8745  21.099  32.440  12.961
35678W        W 8746  14.229  25.276  14.757
35679W        W 8747   8.560   3.340   4.434
35680W        W 8748   6.920  41.005   3.018
35681W        W 8749  43.456  33.955   2.605
35682W        W 8750  20.964  35.928  14.902
35683W        W 8751  23.286  11.866  12.467
35684W        W 8752  12.349  41.549   1.946
35685W        W 8753  14.657  29.621  13.793
35686W        W 8754   4.963  25.162   0.844
35687W        W 8755  41.046  11.229   2.645
35688W        W 8756  34.004  12.707  12.443
35689W        W 8757  39.939   2.357  10.450
35690W        W 8758  31.401   1.890  14.622
35691W        W 8759  34.487  12.572  13.528
35692W        W 8760  23.664  19.305   2.367
35693W        W 8761  11.555  36.533   1.781
35694W        W 8762  43.215  44.388   3.299
35695W        W 8763   4.365  22.000  13.434
35696W        W 8764  28.862   8.353  12.754
35697W        W 8765  16.603  17.014   2.850
35698W        W 8766  30.905  29.062  14.272
35699W        W 8767  25.007   0.455  13.518
35700W        W 8768  29.503  21.287  14.438
35701W        W 8769  22.267  36.330  11.321
35702W        W 8770   2.118  38.906  13.248
35703W        W 8771  25.999  22.467  11.194
35704W        W 8772  43.493  23.083  10.711
35705W        W 8773  12.486  32.563   3.188
35706W        W 8774  15.100  26.412   0.297
35707W        W 8775  25.759  15.143   2.873
35708W        W 8776  26.138  22.323   0.855
35709W        W 8777  38.528   6.963  11.622
35710W        W 8778  37.901  10.976   1.484
35711W        W 8779  31.387  30.163  11.969
35712W        W 8780  33.947   9.744   0.444
35713W        W 8781   9.684  27.495  11.118
35714W        W 8782  21.245   1.602  13.525
35715W        W 8783  10.550  32.350  13.880
35716W        W 8784  14.219  42.150  14.958
35717W        W 8785  30.098  32.841  13.526
35718W        W 8786  29.480  26.689   1.196
35719W        W 8787  32.638  36.079   3.230
35720W        W 8788  33.413  30.719   1.365
35721W        W 8789  11.806  24.132   3.137
35722W        W 8790   5.474  22.152  10.606
35723W        W 8791  22.308  24.508   2.336
35724W        W 8792  42.690  29.094   4.282
35725W        W 8793   9.889  11.340  12.271
35726W        W 8794  34.493  30.494   1.010
35727W        W 8795   5.627  43.384   2.718
35728W        W 8796  23.089  43.168   0.033
35729W        W 8797  33.825  40.368  14.908
35730W        W 8798  41.815   2.719   1.849
35731W        W 8799  37.470   1.832  13.977
35732W        W 8800  40.197  44.528   3.702
35733W        W 8801   8.211   4.675   4.280
35734W        W 8802  36.470  30.706   3.629
35735W        W 8803  40.540  44.333   5.019
35736W        W 8804  17.094  20.483  13.051
35737W        W 8805  36.838  44.300   4.643
35738W        W 8806  23.274  25.969  13.140
35739W        W 8807  43.929  10.308  14.990
35740W        W 8808  24.472  24.414   0.019
35741W        W 8809  16.573  18.291   3.125
35742W        W 8810  33.662   0.162   0.940
35743W        W 8811  34.641  42.415   0.375
35744W        W 8812  25.277  26.565  10.646
35745W        W 8813  30.663  29.049   4.658
35746W        W 8814  29.032  11.305  13.964
35747W        W 8815  31.162  38.288  11.157
35748W        W 8816  32.694  19.314  12.961
35749W        W 8817  25.631  43.052   3.376
35750W        W 8818   8.299   1.021  10.456
35751W        W 8819  38.593  15.636  12.080
35752W        W 8820  15.308  20.656   1.282
35753W        W 8821  31.119  42.859  12.311
35754W        W 8822   4.887   7.800  13.632
35755W        W 8823  21.981  44.901  11.021
35756W        W 8824  19.239   6.702  10.649
35757W        W 8825   8.391  22.679   1.917
35758W        W 8826  31.956  10.671   2.896
35759W        W 8827  28.828  27.581  12.968
35760W        W 8828  15.286  33.385   3.207
35761W        W 8829  28.403  15.653  12.953
35762W        W 8830  16.532  16.644  13.028
35763W        W 8831  44.778  42.756  14.780
35764W        W 8832  16.707  21.039   2.872
35765W        W 8833  42.497  26.139  12.081
35766W        W 8834  16.741  31.426  11.168
35767W        W 8835   8.356   3.810   4.413
35768W        W 8836   7.867  31.848  10.375
35769W        W 8837  29.178  38.944  12.021
35770W        W 8838  41.337  39.939   0.054
35771W        W 8839   2.494  16.372   4.248
35772W        W 8840   6.182   1.860   5.097
35773W        W 8841   4.203   7.878  11.602
35774W        W 8842   9.534  18.986   4.638
35775W        W 8843  34.922  17.484  12.114
35776W        W 8844  14.842  28.540  14.941
35777W        W 8845  18.111  42.215   1.836
35778W        W 8846  36.897  25.598  13.444
35779W        W 8847  12.669  36.011  12.114
35780W        W 8848  15.690  31.374   2.775
35781W        W 8849  41.491   3.143  14.024
35782W        W 8850  38.375  19.250  11.491
35783W        W 8851  24.502  12.202   3.259
35784W        W 8852  23.962  26.635  11.083
35785W        W 8853  20.581  38.760  11.394
35786W        W 8854  20.579  18.193  14.292
35787W        W 8855  26.984  26.194  13.508
35788W        W 8856  37.290  27.382   0.191
35789W        W 8857  40.093  18.382   0.930
35790W        W 8858  33.646  29.220  14.779
35791W        W 8859  28.283   0.590  14.995
35792W        W 8860   1.891  43.741  11.536
35793W        W 8861  27.422   0.540   0.305
35794W        W 8862  43.217  29.964   2.282
35795W        W 8863  43.681  17.794   3.693
35796W        W 8864   5.774  21.521   2.851
35797W        W 8865  39.956  18.750  12.037
35798W        W 8866  16.592  34.038  12.325
35799W        W 8867   3.169  16.483  10.688
35800W        W 8868  33.312   0.459  12.845
35801W        W 8869  35.959   8.178   2.270
35802W        W 8870   9.248   2.002  13.474
35803W        W 8871  16.984  27.157   3.684
35804W        W 8872  36.273   1.324   0.810
35805W        W 8873  35.258  17.277  10.616
35806W        W 8874  14.038  23.712  11.667
35807W        W 8875  21.893  41.122  13.526
35808W        W 8876   0.313  27.473   4.718
35809W        W 8877  14.084  44.872  11.854
35810W        W 8878  43.108  41.448   4.159
35811W        W 8879  17.292  30.313  11.448
35812W        W 8880   3.935  41.799   4.186
35813W        W 8881  40.795  14.308   3.228
35814W        W 8882  18.755  20.486  11.408
35815W        W 8883  15.892  23.783   4.571
35816W        W 8884  39.258  22.548  14.835
35817W        W 8885  14.351  23.691  13.519
35818W        W 8886  34.835  24.806  11.274
35819W        W 8887  43.847  38.670  11.140
35820W        W 8888  29.704  11.288  14.602
35821W        W 8889  20.604  37.427   1.073
35822W        W 8890  21.673  32.558   4.592
35823W        W 8891  43.155  36.417  12.495
35824W        W 8892   5.940  14.602   3.779
35825W        W 8893   7.324  31.116   1.131
35826W        W 8894  17.324  37.014  10.200
35827W        W 8895  39.810  25.084   4.143
35828W        W 8896  20.425   1.171  10.379
35829W        W 8897  16.638  10.591  12.915
35830W        W 8898  36.354   4.313  12.570
35831W        W 8899  22.622  29.593   5.059
35832W        W 8900  13.642  39.859   2.454
35833W        W 8901  15.181  37.097  12.552
35834W        W 8902   6.000  28.464  12.119
35835W        W 8903  10.616  23.702  11.497
35836W        W 8904   5.919  27.945   1.964
35837W        W 8905  12.709   0.159  13.347
35838W        W 8906   0.432  21.317  11.124
35839W        W 8907  20.558  22.345  12.137
35840W        W 8908  14.375  11.772  11.604
35841W        W 8909   0.430  42.192   3.824
35842W        W 8910  26.500  26.147   0.193
35843W        W 8911  36.246   1.160   3.632
35844W        W 8912  39.831  10.067  14.057
35845W        W 8913   1.366  17.996   1.360
35846W        W 8914  15.534   5.888   1.352
35847W        W 8915  42.144  33.414  13.984
35848W        W 8916   8.793  28.340   3.288
35849W        W 8917  35.900  20.929   1.472
35850W        W 8918   0.020  33.706   3.387
35851W        W 8919  17.871  29.535  10.311
35852W        W 8920   2.509  20.173   2.880
35853W        W 8921  39.875  30.066   1.944
35854W        W 8922  22.997  38.367  12.072
35855W        W 8923  18.021   0.940   1.637
35856W        W 8924  23.538  20.180  12.725
35857W        W 8925  42.416  22.063  12.948
35858W        W 8926   2.925  22.420   3.263
35859W        W 8927  33.143  19.839   3.732
35860W        W 8928  31.872  21.926  11.003
35861W        W 8929  40.644  22.512   1.188
35862W        W 8930  12.862  40.219   1.415
35863W        W 8931  37.483  43.067  12.408
35864W        W 8932   5.865  16.605   4.518
35865W        W 8933  37.512   4.746   1.887
35866W        W 8934  34.143   6.458   1.891
35867W        W 8935  39.841  20.459   0.351
35868W        W 8936  38.512  28.227   4.704
35869W        W 8937  32.004  10.203   3.585
35870W        W 8938  35.413  27.198  12.138
35871W        W 8939  28.953   9.137  14.792
35872W        W 8940  20.027  36.041  13.822
35873W        W 8941  33.110   9.588  11.164
35874W        W 8942  10.813  36.056  12.306
35875W        W 8943   9.871  17.308   2.910
35876W        W 8944  15.921  33.970  10.598
35877W        W 8945  11.839  36.764   4.237
35878W        W 8946  29.192  16.508  11.998
35879W        W 8947  32.513  28.599  10.310
35880W        W 8948  31.899  12.812  12.369
35881W        W 8949  44.328   2.083  10.704
35882W        W 8950  16.781  31.368  12.047
35883W        W 8951  38.015  31.729   1.669
35884W        W 8952  42.951  42.840  10.607
35885W        W 8953  19.658  23.573  12.014
35886W        W 8954  24.523   9.141  13.250
35887W        W 8955  35.923  43.114   3.178
35888W        W 8956  32.025  36.443   1.796
35889W        W 8957  10.433  23.241   0.216
35890W        W 8958  11.209  22.280   4.668
35891W        W 8959   4.297  21.237   1.431
35892W        W 8960  16.275   1.336  13.884
35893W        W 8961  33.044  34.518  14.967
35894W        W 8962  35.468  17.225  12.874
35895W        W 8963  15.748  29.389  14.240
35896W        W 8964  12.338   6.363  12.610
35897W        W 8965  39.781  16.309   2.175
35898W        W 8966  31.376  26.730  10.862
35899W        W 8967  41.160  35.086  13.969
35900W        W 8968  15.873  31.578  13.762
35901W        W 8969  23.142  39.949  10.660
35902W        W 8970   9.436  11.658   2.314
35903W        W 8971  40.020  42.791   4.282
35904W        W 8972  20.257  24.027  12.912
35905W        W 8973  13.916   8.737  12.664
35906W        W 8974  41.092  39.587  13.810
35907W        W 8975   3.236  21.191   0.850
35908W        W 8976  12.675  41.193   2.187
35909W        W 8977   4.707  36.630  12.848
35910W        W 8978  24.218  14.837   4.336
35911W        W 8979  34.856  27.675   4.314
35912W        W 8980  17.808  31.622  13.364
35913W        W 8981  29.137  40.347  11.701
35914W        W 8982   9.242  43.127   3.755
35915W        W 8983   0.994  27.128  12.663
35916W        W 8984  29.499  42.516   3.044
35917W        W 8985   9.359  40.812   2.744
35918W        W 8986  43.324   2.394   3.899
35919W        W 8987  34.058  22.666  11.972
35920W        W 8988   5.706  39.757   3.634
35921W        W 8989   5.799  43.500   4.032
35922W        W 8990  14.289  32.595   2.913
35923W        W 8991  11.207  26.049   4.060
35924W        W 8992  34.962  29.349  11.600
35925W        W 8993   1.108  26.178  14.945
35926W        W 8994  30.059  14.321   3.259
35927W        W 8995  42.838   5.143  11.288
35928W        W 8996  17.827  36.319   2.802
35929W        W 8997   5.472  20.161  11.971
35930W        W 8998  15.342   5.234  12.878
35931W        W 8999   7.776   1.420   2.787
35932W        W 9000  36.691  31.329  10.276
35933W        W 9001  14.834  21.015  13.912
35934W        W 9002  23.698  41.539  14.632
35935W        W 9003   8.284  29.255   2.136
35936W        W 9004  29.604   0.216   2.325
35937W        W 9005  28.581  35.048   1.449
35938W        W 9006  38.288   3.726   0.322
35939W        W 9007  44.823  39.357   0.497
35940W        W 9008   3.520   5.139   1.287
35941W        W 9009  44.575  10.883  11.595
35942W        W 9010  11.551  25.256  10.227
35943W        W 9011  20.637   1.837  11.185
35944W        W 9012  42.470  31.096   2.828
35945W        W 9013   5.805  38.557  12.461
35946W        W 9014  16.859  19.064   1.313
35947W        W 9015  36.421   1.480  14.418
35948W        W 9016  25.492   9.168  14.921
35949W        W 9017  11.563  27.170   2.813
35950W        W 9018   8.182  27.660   4.066
35951W        W 9019  20.574  30.577  13.620
35952W        W 9020   0.544  25.894   0.941
35953W        W 9021  19.535  17.840   2.830
35954W        W 9022  41.386   2.919  11.405
35955W        W 9023  29.712  41.321   0.193
35956W        W 9024  20.798  43.050  10.734
35957W        W 9025   8.141  38.976  12.340
35958W        W 9026  39.389   2.479  14.701
35959W        W 9027  15.781  41.961   5.484
35960W        W 9028  18.671  22.884   0.752
35961W        W 9029  34.820  13.752  10.700
35962W        W 9030  16.733  18.551   4.519
35963W        W 9031  31.110  27.443  13.547
35964W        W 9032  10.118  16.106   0.327
35965W        W 9033  16.079   5.928  14.990
35966W        W 9034  44.948   9.883  11.534
35967W        W 9035  37.320  35.459   4.509
35968W        W 9036  26.635   0.819   1.668
35969W        W 9037   3.834   0.189   1.675
35970W        W 9038  16.506  31.002  13.286
35971W        W 9039  43.777  31.845  11.829
35972W        W 9040  35.926  35.110  10.517
35973W        W 9041  36.065   8.119  11.205
35974W        W 9042  34.413  24.969   0.828
35975W        W 9043  31.129  42.217  13.322
35976W        W 9044   3.951  10.836  14.719
35977W        W 9045  18.867  10.979   3.339
35978W        W 9046  20.698  37.473  14.863
35979W        W 9047  32.782  44.002   1.950
35980W        W 9048  19.208  44.201  13.978
35981W        W 9049  43.275  38.848  10.276
35982W        W 9050  16.234  37.241  11.090
35983W        W 9051   0.958   3.868   2.832
35984W        W 9052  37.014   8.470   2.212
35985W        W 9053  29.736  43.803  13.348
35986W        W 9054  35.143  42.006  14.350
35987W        W 9055  36.952   7.890  13.461
35988W        W 9056   9.806  17.660  10.221
35989W        W 9057   8.127  26.624  11.480
35990W        W 9058   5.884  19.975  13.824
35991W        W 9059  43.806  39.485   0.917
35992W        W 9060  33.995  38.807  12.570
35993W        W 9061  34.075  30.080   1.295
35994W        W 9062  24.243  12.282   0.285
35995W        W 9063  31.512  10.571   2.614
35996W        W 9064  34.055   6.019   1.621
35997W        W 9065  37.264   9.231  11.328
35998W        W 9066  19.515  28.249   0.421
35999W        W 9067  13.710  13.513  13.450
36000W        W 9068  37.297  12.615  13.391
36001W        W 9069   8.486  42.400  13.943
36002W        W 9070  11.439  23.691   4.520
36003W        W 9071  18.966   9.663   3.282
36004W        W 9072  17.764  26.267   4.574
36005W        W 9073  11.669   8.700   1.754
36006W        W 9074  22.734  13.606  14.926
36007W        W 9075  12.404   5.892  11.415
36008W        W 9076  26.542  22.632  10.374
36009W        W 9077   8.455  11.972   3.150
36010W        W 9078  32.532  34.047   0.894
36011W        W 9079   6.264  24.948   3.939
36012W        W 9080  18.729   4.360   2.694
36013W        W 9081  26.156  40.902   3.227
36014W        W 9082  36.476  31.086   2.135
36015W        W 9083   4.311  19.005   4.824
36016W        W 9084  22.674   2.393   0.740
36017W        W 9085  16.557  42.868   1.200
36018W        W 9086  16.687  39.062   3.449
36019W        W 9087  21.234   4.718  14.114
36020W        W 9088  31.581  28.716   2.798
36021W        W 9089  14.106   6.376   0.925
36022W        W 9090  13.302   5.455   2.657
36023W        W 9091  16.377  32.619   4.510
36024W        W 9092  44.692   1.802  11.512
36025W        W 9093  29.427  22.228   2.599
36026W        W 9094   8.581  21.828  12.465
36027W        W 9095   0.409   9.369   1.827
36028W        W 9096  31.931  15.208  13.406
36029W        W 9097  27.050  27.182  13.406
36030W        W 9098  10.671   0.068  11.936
36031W        W 9099  29.273  40.791  14.480
36032W        W 9100  16.167  17.002  10.714
36033W        W 9101  15.724   8.343   4.742
36034W        W 9102  31.038  42.657  11.088
36035W        W 9103  15.084  38.029  14.238
36036W        W 9104  13.267  37.689   2.514
36037W        W 9105  40.763  19.540  13.008
36038W        W 9106  28.398  22.866  13.500
36039W        W 9107  18.754  19.793   3.360
36040W        W 9108  19.686  12.536   0.623
36041W        W 9109  31.953  43.607  11.229
36042W        W 9110   5.325   0.855   1.138
36043W        W 9111  44.009  44.323  12.905
36044W        W 9112  18.353  23.006   0.354
36045W        W 9113   3.397   5.026  11.977
36046W        W 9114  29.183  36.418  14.317
36047W        W 9115   9.744  41.394  14.548
36048W        W 9116  14.822  24.636   1.794
36049W        W 9117  38.944   7.653  12.078
36050W        W 9118  27.996   6.709   0.967
36051W        W 9119  37.419  15.095   1.281
36052W        W 9120  43.821  16.100   3.211
36053W        W 9121  30.596  25.527   0.945
36054W        W 9122   6.184  24.057   0.444
36055W        W 9123  21.556   8.896   3.485
36056W        W 9124  14.197  35.335  10.531
36057W        W 9125  31.589  18.459   1.830
36058W        W 9126   5.891  31.370  14.388
36059W        W 9127   6.961  14.990   2.366
36060W        W 9128  16.574  35.829   3.174
36061W        W 9129  43.704   4.147   3.629
36062W        W 9130   7.735  20.733   1.174
36063W        W 9131  32.857  37.438   1.832
36064W        W 9132  38.024  18.590  12.365
36065W        W 9133  10.303   6.680   4.441
36066W        W 9134   8.907   4.498  13.515
36067W        W 9135  28.278   8.682   0.257
36068W        W 9136   0.254   3.373   3.765
36069W        W 9137  18.531   1.693   1.721
36070W        W 9138  33.893  40.085  11.216
36071W        W 9139   5.210  33.534  10.829
36072W        W 9140  28.465   7.547  10.782
36073W        W 9141  42.693  29.931   2.393
36074W        W 9142   5.796  42.496  13.933
36075W        W 9143  28.979   5.953   3.199
36076W        W 9144   0.182  10.670  12.532
36077W        W 9145  34.873  42.469   0.842
36078W        W 9146  30.046   3.230  13.154
36079W        W 9147  31.161  35.064  14.921
36080W        W 9148  20.457   1.193   4.098
36081W        W 9149   9.844  16.727   2.348
36082W        W 9150  39.470  41.841   0.775
36083W        W 9151  35.021  22.886   3.124
36084W        W 9152   8.449   6.124  14.491
36085W        W 9153   8.716  44.415  11.134
36086W        W 9154  37.427  39.767   4.113
36087W        W 9155  39.309  42.940   5.067
36088W        W 9156  13.395  29.701   3.666
36089W        W 9157   7.508  29.244   1.787
36090W        W 9158  35.163  30.422   0.209
36091W        W 9159  26.460  17.708  11.580
36092W        W 9160  10.891   3.444  12.628
36093W        W 9161  23.026  40.737   2.209
36094W        W 9162  33.183  35.443  14.538
36095W        W 9163  40.368  13.993   4.857
36096W        W 9164  20.947  31.060   2.801
36097W        W 9165  39.576  13.220  12.164
36098W        W 9166  41.395  30.996   4.493
36099W        W 9167  35.562  28.228  14.544
36100W        W 9168   3.233  17.622  13.733
36101W        W 9169  23.754  20.159   2.860
36102W        W 9170  32.786  19.488  12.494
36103W        W 9171  40.556  23.504  14.436
36104W        W 9172  18.643  35.962   3.311
36105W        W 9173   3.681  18.213   0.869
36106W        W 9174  22.300  21.579  11.114
36107W        W 9175  37.060  26.186   3.904
36108W        W 9176  32.892  34.840  11.121
36109W        W 9177  30.405  39.321   2.936
36110W        W 9178  12.421  11.774  12.169
36111W        W 9179   3.165  33.893  13.594
36112W        W 9180   7.493  34.473  12.918
36113W        W 9181  14.310  13.135   0.420
36114W        W 9182  27.197   1.526  10.683
36115W        W 9183   5.740  18.584   4.432
36116W        W 9184  27.442  40.672  11.438
36117W        W 9185  38.467  40.708  13.384
36118W        W 9186  28.761  18.528   0.951
36119W        W 9187   4.227  19.618   4.516
36120W        W 9188  43.226  13.915  11.479
36121W        W 9189   5.232  34.922   4.336
36122W        W 9190   8.185  16.106  10.347
36123W        W 9191  41.416  21.994  12.887
36124W        W 9192  28.008   0.984  12.252
36125W        W 9193  38.764  10.105   2.406
36126W        W 9194   8.449  26.166   0.011
36127W        W 9195  20.269  31.284  12.472
36128W        W 9196  17.596  11.044   3.466
36129W        W 9197  28.038  37.754  12.959
36130W        W 9198  35.652  33.393  11.111
36131W        W 9199  36.486  13.836   3.281
36132W        W 9200   2.904  36.448  10.936
36133W        W 9201  31.855  13.539   3.146
36134W        W 9202  19.678  14.955  11.535
36135W        W 9203  43.958  41.361  13.968
36136W        W 9204  41.965   0.186  12.115
36137W        W 9205   0.360  35.550   1.641
36138W        W 9206  42.720  18.083  14.237
36139W        W 9207  27.889  35.406  12.318
36140W        W 9208  38.581  30.127  14.923
36141W        W 9209   7.115   4.427  14.309
36142W        W 9210  19.214  26.672   3.110
36143W        W 9211  29.905  13.955  12.029
36144W        W 9212  39.719  19.116   0.534
36145W        W 9213  37.437  19.769  14.856
36146W        W 9214  36.520  30.627   1.869
36147W        W 9215  43.896  41.368  10.721
36148W        W 9216  18.054  19.633   0.302
36149W        W 9217  39.885   6.751  10.744
36150W        W 9218  42.513  12.655   2.317
36151W        W 9219  32.672  29.445   2.868
36152W        W 9220   3.945  11.529  12.074
36153W        W 9221   3.584  21.119   2.810
36154W        W 9222   0.830   5.156  14.385
36155W        W 9223  38.666  11.114   9.869
36156W        W 9224  19.536  27.459  11.532
36157W        W 9225  19.211   9.350   4.092
36158W        W 9226  38.159  25.694   2.884
36159W        W 9227  29.926  30.039   2.142
36160W        W 9228  43.288  42.947  14.944
36161W        W 9229  16.351  38.767  12.670
36162W        W 9230  43.975  11.876   2.790
36163W        W 9231   7.155  28.761   0.944
36164W        W 9232   6.019  18.221   3.630
36165W        W 9233  13.862   5.450  12.951
36166W        W 9234  21.692   4.950  10.586
36167W        W 9235   4.780   9.655   3.653
36168W        W 9236  27.474  23.220  11.165
36169W        W 9237  26.463  43.742  10.603
36170W        W 9238   2.350  20.714   3.203
36171W        W 9239  19.750  39.290   0.902
36172W        W 9240  25.562  39.977  12.121
36173W        W 9241  34.369  11.228   4.588
36174W        W 9242   4.301  34.475  14.484
36175W        W 9243  34.928  21.060   4.586
36176W        W 9244  36.418   6.565   1.909
36177W        W 9245  19.524  33.683  14.296
36178W        W 9246   5.465  27.579   0.271
36179W        W 9247  37.648  19.284  11.997
36180W        W 9248  33.502   3.319   4.076
36181W        W 9249  10.464  26.051   0.313
36182W        W 9250  22.125  20.639   1.402
36183W        W 9251  38.836  28.477  13.921
36184W        W 9252  20.199  30.391   4.565
36185W        W 9253   6.421  30.651  14.625
36186W        W 9254  12.199   5.191  14.425
36187W        W 9255  29.385  22.246  12.858
36188W        W 9256  31.820   7.693   0.045
36189W        W 9257  30.071  43.892  14.774
36190W        W 9258  27.464   4.514   2.122
36191W        W 9259  32.384   5.456  12.969
36192W        W 9260  39.642  36.010   4.695
36193W        W 9261  25.490  31.907  14.743
36194W        W 9262  34.047  42.725  11.624
36195W        W 9263  41.737  38.795   1.962
36196W        W 9264  12.302  25.469  11.119
36197W        W 9265  10.138  39.019  13.487
36198W        W 9266  37.468   7.222   3.573
36199W        W 9267  32.466   5.395   3.796
36200W        W 9268  16.245  19.471   1.797
36201W        W 9269  36.094  39.356  12.321
36202W        W 9270  31.858   8.380   1.307
36203W        W 9271  36.883  27.222  12.885
36204W        W 9272  13.638  38.297  13.788
36205W        W 9273  42.996  42.443  12.476
36206W        W 9274  37.264  33.038  14.745
36207W        W 9275  35.091  22.113   4.244
36208W        W 9276  14.587  38.001   1.016
36209W        W 9277   6.955  37.790  10.705
36210W        W 9278   7.194  13.647   1.382
36211W        W 9279  37.905  25.199  11.898
36212W        W 9280  40.377  41.891  12.146
36213W        W 9281   9.975  23.080   0.050
36214W        W 9282  44.087  32.798  10.299
36215W        W 9283  22.627   0.461   4.040
36216W        W 9284   0.916  42.532  12.161
36217W        W 9285  43.211   8.680  11.169
36218W        W 9286  27.032  38.070  12.633
36219W        W 9287  34.995  25.907   1.686
36220W        W 9288   4.685  33.580   2.682
36221W        W 9289  41.444  22.360   4.800
36222W        W 9290  20.941  19.134   1.266
36223W        W 9291  13.058  23.081  10.903
36224W        W 9292  14.870  24.485   0.737
36225W        W 9293  34.412  43.297  13.495
36226W        W 9294  43.265  28.645   4.758
36227W        W 9295  30.822   5.351  11.116
36228W        W 9296   5.455   0.244   2.578
36229W        W 9297  18.986  11.314   0.691
36230W        W 9298  41.553   6.193   4.148
36231W        W 9299  20.031  34.380   5.027
36232W        W 9300  40.664   0.467  14.820
36233W        W 9301  19.670  12.393   0.091
36234W        W 9302   9.293   1.952   3.301
36235W        W 9303  33.131  42.276  11.492
36236W        W 9304  39.380  36.415  13.819
36237W        W 9305  42.494   6.791   0.362
36238W        W 9306   9.239  22.650   0.164
36239W        W 9307  32.250  28.827  12.492
36240W        W 9308  17.903  42.939   4.950
36241W        W 9309   3.215  14.502   1.284
36242W        W 9310  37.617  23.832   3.722
36243W        W 9311  25.910  17.678   0.224
36244W        W 9312  25.351  11.373   1.984
36245W        W 9313  37.870  42.638   4.385
36246W        W 9314  31.567  25.236   3.802
36247W        W 9315  13.920   1.589  14.842
36248W        W 9316   9.893  17.334  11.630
36249W        W 9317  24.751  34.209   1.650
36250W        W 9318   7.729   8.455   1.986
36251W        W 9319   4.363   1.516  10.763
36252W        W 9320  17.140   2.504   1.680
36253W        W 9321   0.457  30.454   1.576
36254W        W 9322   9.296  27.089  11.639
36255W        W 9323  34.009  32.658   3.395
36256W        W 9324  32.383   2.841   1.851
36257W        W 9325   2.006  31.991   2.642
36258W        W 9326   2.133  38.397  13.468
36259W        W 9327   8.705  32.063   1.374
36260W        W 9328  31.464  17.146   2.670
36261W        W 9329  31.028   6.239  12.912
36262W        W 9330  15.820  44.947   0.992
36263W        W 9331  42.854  12.619   3.248
36264W        W 9332  28.969  44.764  11.654
36265W        W 9333  44.815  19.399  11.962
36266W        W 9334  36.826  38.443  11.028
36267W        W 9335  28.439  26.371   2.373
36268W        W 9336   8.255  36.951   3.567
36269W        W 9337  31.530   7.792   2.776
36270W        W 9338  26.007   1.427   0.652
36271W        W 9339  22.117   2.849   4.727
36272W        W 9340  34.598   9.085   3.206
36273W        W 9341  27.550  13.756  12.086
36274W        W 9342   4.712  30.411   0.218
36275W        W 9343  26.459  37.815   9.995
36276W        W 9344   8.538  33.526   2.844
36277W        W 9345  31.626  41.216  12.954
36278W        W 9346  24.589   1.696  12.402
36279W        W 9347  13.120  16.781  13.525
36280W        W 9348  12.324  27.489   0.190
36281W        W 9349  26.694  34.107  13.875
36282W        W 9350  28.060   8.359   4.134
36283W        W 9351  43.455   5.432   2.931
36284W        W 9352   5.418  34.133  13.130
36285W        W 9353  22.984  34.683  14.388
36286W        W 9354  12.781  11.229   2.323
36287W        W 9355  33.525  16.500   0.365
36288W        W 9356  35.582  23.226  11.203
36289W        W 9357   4.919  32.176   1.464
36290W        W 9358  36.096  33.371   3.367
36291W        W 9359   9.460  34.972  11.080
36292W        W 9360  37.659  26.944  14.928
36293W        W 9361  27.168  27.142   1.373
36294W        W 9362  44.613   0.884   4.295
36295W        W 9363  39.783  44.952  14.684
36296W        W 9364  44.556  29.101   2.864
36297W        W 9365  21.519  40.345  13.985
36298W        W 9366  40.469  20.849   4.941
36299W        W 9367  36.865  44.894  14.189
36300W        W 9368   5.772  19.605   2.306
36301W        W 9369  16.241  32.929   2.329
36302W        W 9370  33.099   4.540   2.345
36303W        W 9371  35.520  14.861   4.022
36304W        W 9372  44.849  22.766  10.983
36305W        W 9373  35.562  38.700  13.323
36306W        W 9374  12.224   0.398   3.455
36307W        W 9375   1.467  29.774   1.213
36308W        W 9376  37.911  15.160  14.740
36309W        W 9377  34.645  21.908   3.967
36310W        W 9378  37.398  15.498  12.484
36311W        W 9379  20.655  16.253   4.137
36312W        W 9380  15.768  19.709  10.518
36313W        W 9381  14.276  41.346  14.511
36314W        W 9382  16.261  30.521   2.651
36315W        W 9383  11.660  36.841   0.034
36316W        W 9384  38.369  35.535   2.452
36317W        W 9385  35.043  14.841  11.623
36318W        W 9386  21.683  12.424  12.083
36319W        W 9387   6.333  39.824   1.498
36320W        W 9388  28.151   0.821   0.450
36321W        W 9389  29.305  28.656  11.400
36322W        W 9390  32.598  15.734  11.592
36323W        W 9391  26.954  20.591   0.680
36324W        W 9392  16.271  40.886   1.866
36325W        W 9393  29.129  32.310  14.711
36326W        W 9394  44.283  16.202   0.743
36327W        W 9395   4.521   7.313   3.809
36328W        W 9396  18.823  44.600  12.564
36329W        W 9397  23.928  21.607   3.039
36330W        W 9398   7.791   9.014   3.395
36331W        W 9399  40.840  21.287  13.402
36332W        W 9400   5.047  28.267   1.812
36333W        W 9401  10.308  37.555  11.117
36334W        W 9402   6.846   5.987   2.674
36335W        W 9403  23.803   6.572   2.858
36336W        W 9404  37.875   7.328   4.620
36337W        W 9405  38.939  24.514  13.406
36338W        W 9406  23.681   1.971   2.577
36339W        W 9407  42.003  39.570   3.267
36340W        W 9408  26.405  23.204   1.654
36341W        W 9409  32.052   2.462   3.626
36342W        W 9410  35.657  23.743  11.915
36343W        W 9411  30.089  41.337  12.578
36344W        W 9412   0.262  22.635  11.254
36345W        W 9413  13.719  43.554   3.717
36346W        W 9414  43.308  10.943  11.574
36347W        W 9415  26.182   7.481  14.280
36348W        W 9416   1.901   3.747  13.878
36349W        W 9417  25.838  19.627   1.185
36350W        W 9418   6.405  25.517  13.916
36351W        W 9419  30.929  28.582  14.000
36352W        W 9420   3.959  37.368   2.444
36353W        W 9421   5.884   7.762  13.415
36354W        W 9422  36.855   6.248  10.961
36355W        W 9423  32.617   1.578  14.592
36356W        W 9424  22.743   8.535   5.007
36357W        W 9425  18.563  33.060  14.943
36358W        W 9426   1.776   7.734  14.292
36359W        W 9427  17.759  13.152   3.797
36360W        W 9428  38.022   5.647   4.210
36361W        W 9429   2.383  40.696  13.898
36362W        W 9430  37.087  24.298  13.279
36363W        W 9431  20.350  26.588   0.833
36364W        W 9432   4.284  43.343  12.875
36365W        W 9433  35.511  12.089   2.962
36366W        W 9434  16.581  26.716  12.653
36367W        W 9435  39.961   8.432  12.469
36368W        W 9436  16.206  32.462   1.391
36369W        W 9437  32.513  18.724   2.834
36370W        W 9438  23.090  32.061  14.434
36371W        W 9439  42.018   8.554  12.094
36372W        W 9440   3.998   5.277  14.661
36373W        W 9441  12.714  36.738  10.930
36374W        W 9442  40.296   2.290  14.830
36375W        W 9443  38.374   6.271  13.859
36376W        W 9444  10.449   0.669  11.654
36377W        W 9445  42.792  10.901   3.794
36378W        W 9446  10.700  17.052   2.216
36379W        W 9447  11.012  17.563  10.690
36380W        W 9448   7.969  23.145   2.225
36381W        W 9449  10.326  11.614   2.597
36382W        W 9450  30.994  37.340  13.760
36383W        W 9451  15.612  14.375   1.890
36384W        W 9452  33.080   1.347  13.449
36385W        W 9453  26.866  28.413   0.235
36386W        W 9454  27.605  26.984   0.086
36387W        W 9455  15.884  34.655  13.450
36388W        W 9456   1.716  13.256   4.092
36389W        W 9457  12.142  23.479  12.693
36390W        W 9458  44.602  12.885  14.915
36391W        W 9459  28.109  42.978   1.250
36392W        W 9460  21.237  14.977  12.807
36393W        W 9461  12.349   0.082   4.626
36394W        W 9462  31.851   6.607   2.145
36395W        W 9463  24.568  43.008   0.690
36396W        W 9464   0.312  30.850   1.233
36397W        W 9465  10.013   3.267   2.220
36398W        W 9466  39.575   2.253  13.284
36399W        W 9467  14.657   2.000  12.102
36400W        W 9468  22.943  43.925  10.220
36401W        W 9469   7.286  44.716  13.185
36402W        W 9470  20.686   6.187   4.212
36403W        W 9471  34.438  24.850  11.655
36404W        W 9472   0.682  22.184  14.743
36405W        W 9473  39.299   8.191  12.060
36406W        W 9474  11.134  40.008  14.406
36407W        W 9475  42.774  40.579   3.391
36408W        W 9476   4.439  22.675   1.802
36409W        W 9477   6.905  44.302  12.084
36410W        W 9478   7.627  40.943   3.722
36411W        W 9479  17.655  32.802  12.515
36412W        W 9480  42.840  14.982  11.518
36413W        W 9481  43.872  23.742  14.490
36414W        W 9482  12.927  44.187  13.045
36415W        W 9483  19.321  28.109   4.504
36416W        W 9484  22.083  36.684  13.770
36417W        W 9485  42.894  32.433  11.675
36418W        W 9486  28.639  33.500   1.696
36419W        W 9487  20.159   2.517   2.311
36420W        W 9488  11.141  12.307  10.641
36421W        W 9489  17.989  11.828  14.042
36422W        W 9490  28.654   4.364   0.313
36423W        W 9491  27.949  14.277   5.085
36424W        W 9492  30.552  24.937   2.858
36425W        W 9493  33.669  43.954  10.664
36426W        W 9494  41.304  43.990  12.567
36427W        W 9495  14.738  34.951  13.978
36428W        W 9496   5.273  44.825   2.318
36429W        W 9497  37.386  32.225  10.256
36430W        W 9498  18.168  30.853  13.030
36431W        W 9499  35.124  12.290  11.619
36432W        W 9500  21.691  30.427  12.139
36433W        W 9501  38.331   2.751   4.324
36434W        W 9502  19.198  33.895  10.641
36435W        W 9503  14.862  19.143  13.066
36436W        W 9504  15.203  19.517  13.135
36437W        W 9505  42.692  32.183   4.153
36438W        W 9506  28.161  22.269   1.794
36439W        W 9507  14.310  23.568   0.443
36440W        W 9508  19.829  17.730  11.148
36441W        W 9509  12.166  19.556  12.123
36442W        W 9510   8.183  36.168  11.919
36443W        W 9511  19.064  23.689   1.838
36444W        W 9512  33.763  13.476   1.870
36445W        W 9513  31.582  42.918   1.733
36446W        W 9514  21.861  36.374   1.737
36447W        W 9515  34.007  19.470  13.512
36448W        W 9516  27.854  26.946   1.902
36449W        W 9517  39.303   3.822   3.265
36450W        W 9518  31.882  43.949   3.726
36451W        W 9519  26.036  39.529   1.669
36452W        W 9520   7.878  26.506  13.373
36453W        W 9521  35.006  15.285  12.941
36454W        W 9522  22.290  11.227  11.565
36455W        W 9523  10.697  32.016   4.824
36456W        W 9524  40.094  40.104   3.863
36457W        W 9525  11.559  41.799   3.305
36458W        W 9526  32.455  21.635  13.299
36459W        W 9527  43.789   9.875  13.064
36460W        W 9528   6.206  37.713  12.486
36461W        W 9529  42.223  31.901  11.595
36462W        W 9530  15.815  30.434  11.467
36463W        W 9531  26.030   4.007  11.111
36464W        W 9532   4.680  36.095   1.710
36465W        W 9533  29.399  37.592   0.332
36466W        W 9534  31.746  18.602   4.107
36467W        W 9535  37.055   6.744   1.186
36468W        W 9536   5.351  22.274  14.899
36469W        W 9537   2.115  30.828   1.344
36470W        W 9538  13.832  20.679  14.909
36471W        W 9539  44.822  30.141  13.519
36472W        W 9540  29.761  17.568  12.527
36473W        W 9541  21.159   4.703  10.159
36474W        W 9542  28.038  22.766   4.708
36475W        W 9543  31.589  13.924   1.542
36476W        W 9544  36.811  33.556  12.555
36477W        W 9545   4.529   5.683   4.553
36478W        W 9546   4.460   7.666   2.785
36479W        W 9547  25.818  33.288  10.447
36480W        W 9548  19.578  17.598  11.588
36481W        W 9549  33.422  22.942  13.758
36482W        W 9550  44.370  44.371  13.496
36483W        W 9551  32.565  18.732   3.783
36484W        W 9552  17.625  40.082   1.388
36485W        W 9553  26.741  28.410  12.047
36486W        W 9554  38.573   3.466   0.979
36487W        W 9555  40.506  32.341  14.945
36488W        W 9556  27.410  37.319  12.844
36489W        W 9557   7.180  42.894   2.547
36490W        W 9558  42.994  34.695  14.345
36491W        W 9559  29.999   9.416   1.297
36492W        W 9560  38.696   3.146  12.059
36493W        W 9561  10.016  28.512   4.772
36494W        W 9562  27.621  19.620  14.553
36495W        W 9563  32.639  43.857   1.467
36496W        W 9564  26.237  25.477   1.297
36497W        W 9565  42.982   0.543   5.014
36498W        W 9566   2.841  27.281   3.755
36499W        W 9567   0.215  15.688  12.574
36500W        W 9568  37.621   4.172  13.912
36501W        W 9569   6.894  29.063   0.239
36502W        W 9570  16.594  39.736  13.359
36503W        W 9571  11.551  22.144   1.642
36504W        W 9572  16.143  31.978  12.372
36505W        W 9573  37.622  10.540   1.639
36506W        W 9574  43.045  43.418   2.515
36507W        W 9575  19.678  10.878   0.903
36508W        W 9576  22.683  35.103  11.710
36509W        W 9577  43.218  20.402  14.352
36510W        W 9578  42.019  34.749   2.986
36511W        W 9579  16.396   7.265   2.440
36512W        W 9580  44.243  22.771  10.437
36513W        W 9581   9.415  10.129   4.359
36514W        W 9582   5.351  33.482   4.908
36515W        W 9583  31.059  15.190  12.622
36516W        W 9584  10.244  37.510  10.035
36517W        W 9585  17.160  15.341  12.577
36518W        W 9586  41.257  31.433   5.422
36519W        W 9587   2.653  41.576  11.024
36520W        W 9588  24.537   0.224  12.209
36521W        W 9589  24.441  10.360   1.835
36522W        W 9590  39.771  22.425  14.854
36523W        W 9591  27.824  24.218   2.008
36524W        W 9592  10.085  39.390  13.985
36525W        W 9593  26.012   6.504   2.457
36526W        W 9594  15.818  18.758   0.487
36527W        W 9595  30.129  28.425   4.349
36528W        W 9596  21.468  27.435  14.821
36529W        W 9597  29.160  13.338   4.349
36530W        W 9598  25.807  24.042  11.514
36531W        W 9599  28.813  15.469   0.464
36532W        W 9600  26.338   6.534   2.855
36533W        W 9601   3.405  44.943   1.894
36534W        W 9602   1.918  40.133   0.486
36535W        W 9603  29.052  22.529  11.541
36536W        W 9604  32.560   1.429   2.911
36537W        W 9605  20.222  18.526   2.820
36538W        W 9606   6.431   7.334  12.002
36539W        W 9607  25.198  17.088  13.044
36540W        W 9608  10.716   5.896  13.378
36541W        W 9609  44.544  16.305   1.727
36542W        W 9610  10.097  23.599  12.930
36543W        W 9611  37.406   0.830  10.852
36544W        W 9612  15.365  22.754  13.525
36545W        W 9613  17.562  40.506  13.329
36546W        W 9614  12.679  11.310   3.650
36547W        W 9615  40.599  20.758   0.771
36548W        W 9616  39.990  43.032   0.864
36549W        W 9617  24.424  26.667   9.766
36550W        W 9618  13.272   0.480  14.254
36551W        W 9619   0.232   5.369  13.729
36552W        W 9620  39.019  37.551  12.140
36553W        W 9621   0.987  39.409  14.802
36554W        W 9622  22.596  14.661  12.935
36555W        W 9623  19.241  39.258  11.958
36556W        W 9624  39.108  14.846   1.545
36557W        W 9625  18.756  35.575   2.322
36558W        W 9626  18.483  32.555   1.687
36559W        W 9627  24.719  12.836  11.961
36560W        W 9628  38.302  25.288   4.258
36561W        W 9629  29.143  20.201   1.583
36562W        W 9630  39.798  44.033   3.191
36563W        W 9631  32.315  17.635   4.193
36564W        W 9632  31.566  17.422  13.561
36565W        W 9633  11.844  30.051   0.288
36566W        W 9634  37.134  40.475  11.371
36567W        W 9635  40.566  31.804  10.030
36568W        W 9636  22.619  40.097  10.713
36569W        W 9637  10.028  21.337  10.405
36570W        W 9638  12.855   2.918   4.791
36571W        W 9639  20.033  44.258   4.458
36572W        W 9640  39.297  25.941  14.466
36573W        W 9641  38.109  13.983  12.869
36574W        W 9642  40.182  34.524  11.323
36575W        W 9643  13.343  21.054   4.080
36576W        W 9644   3.537  11.371   0.933
36577W        W 9645  30.454   5.934   0.325
36578W        W 9646  17.062  21.806  13.327
36579W        W 9647  26.193  11.706   3.328
36580W        W 9648  42.881  24.396   0.747
36581W        W 9649  21.043  17.232   2.836
36582W        W 9650   1.284  31.160  11.447
36583W        W 9651  35.441  38.101   2.871
36584W        W 9652   7.252  24.576  14.969
36585W        W 9653  33.688  10.172   3.392
36586W        W 9654  18.056  38.392  13.698
36587W        W 9655   3.872  28.631   3.082
36588W        W 9656  21.614  40.277   1.757
36589W        W 9657  38.056  39.766   0.403
36590W        W 9658  27.235  40.861  12.548
36591W        W 9659  32.441  29.583  13.958
36592W        W 9660  15.901   3.758  11.457
36593W        W 9661  30.135  32.016  13.930
36594W        W 9662  19.293  35.333  14.254
36595W        W 9663  24.086  37.930   3.548
36596W        W 9664  37.610  19.688   2.280
36597W        W 9665   0.855   3.888  11.641
36598W        W 9666   0.572  23.962  10.660
36599W        W 9667  44.009  22.280   1.923
36600W        W 9668  25.015  17.591   1.784
36601W        W 9669  18.259  21.034   2.742
36602W        W 9670   7.393  17.736  14.983
36603W        W 9671  33.489  35.423   4.647
36604W        W 9672  38.688  39.328  11.985
36605W        W 9673  10.811  16.172  10.404
36606W        W 9674  43.793   8.423   3.600
36607W        W 9675  21.251   5.515  13.373
36608W        W 9676  28.108  33.941  11.503
36609W        W 9677  16.199  44.063  14.045
36610W        W 9678  43.871  32.964  14.552
36611W        W 9679  31.105  15.627   0.560
36612W        W 9680  28.147  20.874  14.532
36613W        W 9681  30.504  43.239   2.286
36614W        W 9682  26.662  11.908   0.525
36615W        W 9683  31.463  20.181  12.932
36616W        W 9684  30.816  13.365  11.612
36617W        W 9685  12.723  41.919   0.881
36618W        W 9686  41.038   1.759   1.873
36619W        W 9687   6.283  17.059  11.898
36620W        W 9688  42.313  34.604  13.442
36621W        W 9689   3.746   2.893   1.273
36622W        W 9690   1.428  23.897  12.505
36623W        W 9691   2.239   9.469   2.666
36624W        W 9692   5.102  18.734   2.258
36625W        W 9693  36.681  41.978  13.087
36626W        W 9694  24.556   1.877  12.884
36627W        W 9695  23.959  24.155   2.425
36628W        W 9696  43.807  42.042   2.301
36629W        W 9697  10.634  34.886  12.984
36630W        W 9698  41.218   7.345  10.628
36631W        W 9699  18.529  35.503   3.097
36632W        W 9700  42.840  26.947   3.173
36633W        W 9701  32.125  23.143   3.310
36634W        W 9702  37.480  25.055   2.590
36635W        W 9703   2.322  32.821   1.408
36636W        W 9704  35.681  19.191  12.852
36637W        W 9705  15.070  32.667   2.498
36638W        W 9706   3.323  16.056   0.323
36639W        W 9707  20.275   8.624   1.638
36640W        W 9708   8.179  20.202   3.852
36641W        W 9709  42.745   4.926   2.144
36642W        W 9710   9.293  38.835  10.289
36643W        W 9711  22.476   9.680  12.068
36644W        W 9712  39.810  11.572  13.097
36645W        W 9713   3.503  21.949   1.290
36646W        W 9714  13.306  38.560  10.773
36647W        W 9715   1.940  41.881   3.650
36648W        W 9716  24.518  38.798  12.555
36649W        W 9717  25.690  38.114   2.687
36650W        W 9718  16.526   8.281  14.065
36651W        W 9719   9.628  13.227  11.502
36652W        W 9720   2.082  39.656  10.534
36653W        W 9721  34.805  44.859  13.397
36654W        W 9722  14.818  30.553   1.452
36655W        W 9723  12.923  19.504  13.556
36656W        W 9724  43.298  15.649  10.467
36657W        W 9725  29.517  16.300   2.402
36658W        W 9726  43.803  39.780   2.024
36659W        W 9727  24.698  27.221  14.886
36660W        W 9728  24.867  35.920   9.926
36661W        W 9729  27.370  27.485  13.843
36662W        W 9730   7.322   8.449  12.033
36663W        W 9731  20.577   4.003   1.694
36664W        W 9732  12.910  17.502  11.966
36665W        W 9733  42.642  30.666   4.221
36666W        W 9734  10.804  40.839   0.166
36667W        W 9735  38.611  12.895  10.671
36668W        W 9736  40.061  31.927  11.847
36669W        W 9737  10.367  43.754  10.646
36670W        W 9738  33.505  24.708   2.905
36671W        W 9739  23.908  42.392   4.276
36672W        W 9740  19.311  35.486  11.592
36673W        W 9741  20.726   8.233  14.883
36674W        W 9742  15.255  34.409   4.045
36675W        W 9743  19.782  23.686  10.729
36676W        W 9744  35.023  36.997   2.910
36677W        W 9745  18.561  24.767  13.741
36678W        W 9746   8.031  43.335  10.750
36679W        W 9747  43.758  39.320  11.571
36680W        W 9748  43.730   5.608   3.390
36681W        W 9749  28.457  17.980  12.987
36682W        W 9750  24.547  32.790   4.189
36683W        W 9751  11.388  23.174   3.477
36684W        W 9752  32.962  15.548   2.861
36685W        W 9753  44.917  24.650  12.836
36686W        W 9754  28.645  19.212  12.343
36687W        W 9755  34.807  13.600  11.978
36688W        W 9756  38.022  32.209  11.677
36689W        W 9757  30.499   1.933  12.813
36690W        W 9758  37.113   2.240   4.672
36691W        W 9759  36.452  35.071   0.028
36692W        W 9760   4.481   8.710   4.619
36693W        W 9761  42.480  15.205  13.326
36694W        W 9762  42.148  38.062   0.407
36695W        W 9763  11.198   1.451   4.107
36696W        W 9764  44.398  10.109   0.242
36697W        W 9765   9.593  23.746  12.898
36698W        W 9766   0.241  26.072   2.242
36699W        W 9767   3.284  32.666   4.530
36700W        W 9768  16.032  10.779   2.667
36701W        W 9769  39.384   9.340  12.963
36702W        W 9770  41.033   5.304   4.168
36703W        W 9771  39.723   5.924  12.483
36704W        W 9772  44.598  31.973   2.079
36705W        W 9773  16.017  13.718   0.261
36706W        W 9774   0.770  28.974   3.228
36707W        W 9775  19.419  31.460   3.785
36708W        W 9776  20.272   1.473  14.712
36709W        W 9777  18.226  39.443   0.237
36710W        W 9778  42.613   5.872   4.729
36711W        W 9779   1.363   4.787  13.484
36712W        W 9780  33.111  38.551  12.958
36713W        W 9781  37.398  23.001  11.017
36714W        W 9782  39.724   1.484  11.363
36715W        W 9783  34.049  25.307   0.977
36716W        W 9784  29.114  32.077   3.546
36717W        W 9785  12.716  36.960   3.986
36718W        W 9786  18.190  14.086  12.434
36719W        W 9787   2.396  23.468  13.052
36720W        W 9788  15.757  36.496  11.398
36721W        W 9789   8.426  43.381  11.611
36722W        W 9790   9.674  29.134   4.267
36723W        W 9791  32.117  30.510   1.803
36724W        W 9792  14.846  27.883  13.393
36725W        W 9793   1.886  38.641  10.508
36726W        W 9794  15.692  13.096   0.900
36727W        W 9795  24.311  10.618   2.339
36728W        W 9796   0.402  29.460   1.281
36729W        W 9797  44.552  42.829   3.318
36730W        W 9798   8.185  32.606   3.141
36731W        W 9799  24.712  35.940  14.048
36732W        W 9800  31.929  19.103   2.185
36733W        W 9801  23.127  25.413  14.772
36734W        W 9802  36.369  34.521   0.718
36735W        W 9803  16.855   7.100   2.229
36736W        W 9804  27.504  36.114   1.363
36737W        W 9805   1.869  15.705   0.238
36738W        W 9806  29.109  20.251   1.066
36739W        W 9807  22.177   4.758   4.421
36740W        W 9808  31.349   4.425   3.102
36741W        W 9809  43.011   8.677   4.183
36742W        W 9810  40.397  14.863   3.054
36743W        W 9811   4.693  42.668   4.633
36744W        W 9812  44.032  40.379   3.670
36745W        W 9813  42.447  34.983   2.795
36746W        W 9814  26.236  40.969  12.565
36747W        W 9815  16.312   0.295   2.286
36748W        W 9816   7.028  14.683  14.410
36749W        W 9817  21.420  23.235   4.295
36750W        W 9818   4.783  26.411   2.329
36751W        W 9819  24.209   9.292   2.914
36752W        W 9820  19.114  28.557  12.478
36753W        W 9821  19.984  19.208  13.747
36754W        W 9822   5.751  14.769  10.583
36755W        W 9823  21.688   3.962  14.083
36756W        W 9824  25.985  15.644   1.023
36757W        W 9825  21.648  14.370   3.794
36758W        W 9826  31.194  32.990  13.128
36759W        W 9827  11.273  35.149   1.640
36760W        W 9828  44.469   8.713   0.239
36761W        W 9829   0.538  18.998   4.228
36762W        W 9830  41.582  15.184  13.067
36763W        W 9831  38.084  16.458  10.840
36764W        W 9832  39.674  14.306   5.046
36765W        W 9833   7.359   2.347  13.769
36766W        W 9834  26.668  27.040  14.187
36767W        W 9835  15.156  36.099   0.835
36768W        W 9836  28.667  29.483  12.933
36769W        W 9837  33.138  34.398   2.438
36770W        W 9838  26.752  44.271   2.154
36771W        W 9839   7.737  36.621  14.943
36772W        W 9840  43.515  12.268  14.246
36773W        W 9841   6.263  23.568   4.181
36774W        W 9842   5.364  25.932   4.235
36775W        W 9843   8.198  13.993  14.760
36776W        W 9844  26.912   4.811  14.222
36777W        W 9845  37.135  35.842   3.472
36778W        W 9846   1.014  12.858   0.435
36779W        W 9847  21.061  26.955   0.433
36780W        W 9848  16.236   9.825  11.533
36781W        W 9849  16.968   8.202  11.824
36782W        W 9850  29.707  34.669  12.957
36783W        W 9851  28.945  35.613   4.043
36784W        W 9852  36.749  22.614  13.549
36785W        W 9853  33.815  44.441   3.167
36786W        W 9854   8.874  35.541  11.892
36787W        W 9855  33.301  35.968   1.154
36788W        W 9856  36.881  42.866  14.377
36789W        W 9857  33.180  35.962  12.851
36790W        W 9858   5.941  36.120   4.165
36791W        W 9859  38.487  16.567  11.125
36792W        W 9860  44.898  10.504  10.396
36793W        W 9861   0.841  42.519   3.634
36794W        W 9862  15.737  31.343   0.270
36795W        W 9863  22.595   7.449   3.177
36796W        W 9864  27.623  44.164   3.219
36797W        W 9865   8.723  28.876   4.157
36798W        W 9866  13.981  36.487  14.577
36799W        W 9867   2.860   7.385  10.309
36800W        W 9868  32.085  20.021   5.029
36801W        W 9869  34.016   2.461   2.318
36802W        W 9870  37.800   7.811   2.243
36803W        W 9871  28.721   8.683  11.512
36804W        W 9872   5.541   2.783  11.574
36805W        W 9873  12.246  34.860   4.703
36806W        W 9874  21.776  16.811   2.182
36807W        W 9875  39.668  43.747   3.600
36808W        W 9876  10.143  27.570  11.449
36809W        W 9877   0.400  34.717   0.653
36810W        W 9878  15.891  14.313  11.082
36811W        W 9879  11.826  26.165  12.922
36812W        W 9880  21.987  11.153  14.324
36813W        W 9881  20.989  34.202  12.868
36814W        W 9882  17.302  12.629   1.187
36815W        W 9883   2.943  18.363   4.035
36816W        W 9884   0.328  36.883   0.427
36817W        W 9885  12.609  31.499  12.427
36818W        W 9886  44.901  22.896   2.468
36819W        W 9887  35.924  18.269  12.495
36820W        W 9888  38.827  42.768   3.616
36821W        W 9889  13.785  13.587   1.910
36822W        W 9890  10.658  26.942   4.396
36823W        W 9891   5.920  24.209   4.617
36824W        W 9892  18.221  11.081  13.296
36825W        W 9893  17.128  24.036  10.719
36826W        W 9894  32.147  25.103  12.025
36827W        W 9895  17.112   4.593   0.226
36828W        W 9896   9.303  43.479   0.068
36829W        W 9897   9.320  16.780   4.202
36830W        W 9898   0.572  13.956   0.932
36831W        W 9899  35.507  41.278  14.494
36832W        W 9900  12.086  34.580  14.910
36833W        W 9901  19.520   7.783  11.522
36834W        W 9902   6.884  39.026   4.247
36835W        W 9903  12.806  27.575   0.482
36836W        W 9904  10.225  26.015  10.563
36837W        W 9905   8.732  32.260   0.803
36838W        W 9906  36.493  44.928  11.363
36839W        W 9907  31.395  24.579  11.056
36840W        W 9908   5.223  21.577   4.110
36841W        W 9909   7.086  43.964  14.280
36842W        W 9910  21.568  42.833   2.189
36843W        W 9911  18.874  17.796   0.729
36844W        W 9912   7.891  23.574  13.868
36845W        W 9913  22.448   5.661   2.299
36846W        W 9914   7.542  35.585   2.351
36847W        W 9915  35.476   7.420   1.300
36848W        W 9916  32.562  15.856   3.747
36849W        W 9917  37.916  21.498  13.049
36850W        W 9918  25.150  40.701  10.268
36851W        W 9919  20.614  40.303  12.523
36852W        W 9920  34.137  35.604   2.830
36853W        W 9921   9.879  26.535  11.988
36854W        W 9922  39.464  38.820   1.285
36855W        W 9923  33.469   5.430  10.313
36856W        W 9924  27.119  27.109   2.371
36857W        W 9925   8.595   0.920  14.400
36858W        W 9926  14.244  28.373  11.811
36859W        W 9927  38.402  39.771   3.975
36860W        W 9928  10.964  18.582  11.211
36861W        W 9929  26.628  28.452   3.580
36862W        W 9930   1.836  17.722  13.754
36863W        W 9931  28.112  23.132   2.650
36864W        W 9932  10.388  29.504  12.025
36865W        W 9933  34.277  12.351   2.362
36866W        W 9934  13.176  18.631   2.360
36867W        W 9935  25.659   0.563  14.830
36868W        W 9936  13.898  17.787  13.986
36869W        W 9937  30.216  26.949  14.879
36870W        W 9938  22.656  24.253  11.581
36871W        W 9939  15.801  38.523  11.033
36872W        W 9940   6.144   1.149  13.272
36873W        W 9941   4.339   0.987  14.804
36874W        W 9942  30.114  23.212  12.912
36875W        W 9943   5.289   9.425   3.646
36876W        W 9944  15.350   5.713   3.895
36877W        W 9945  35.328  27.948  12.444
36878W        W 9946  43.968  18.231  11.160
36879W        W 9947  18.905  31.650   4.066
36880W        W 9948   4.198  39.963  13.438
36881W        W 9949  27.655  43.277   2.753
36882W        W 9950  36.137  29.988  12.013
36883W        W 9951  26.511  31.329  10.237
36884W        W 9952  43.333  36.563  11.612
36885W        W 9953  11.226  36.841  12.306
36886W        W 9954   2.788  41.792  14.811
36887W        W 9955   4.783  36.485  10.632
36888W        W 9956  19.207   2.492  11.626
36889W        W 9957  21.568  30.879   1.217
36890W        W 9958   4.290  28.423   0.251
36891W        W 9959  37.916  44.127  10.928
36892W        W 9960   1.650  22.035  14.895
36893W        W 9961  25.952  30.906  11.985
36894W        W 9962  20.034   6.517  14.983
36895W        W 9963   3.616  30.420   0.896
36896W        W 9964  20.272  36.827  11.044
36897W        W 9965  40.261  32.865   0.728
36898W        W 9966  23.286  44.732  14.427
36899W        W 9967  41.300  38.293  12.642
36900W        W 9968  16.584  40.205   4.651
36901W        W 9969  25.514  42.665  13.011
36902W        W 9970  17.737   4.747  14.352
36903W        W 9971  11.297   3.515  11.506
36904W        W 9972   8.324   5.178  14.742
36905W        W 9973  42.709   4.719  14.723
36906W        W 9974  11.754  13.122  11.864
36907W        W 9975  16.079  34.505   4.613
36908W        W 9976   2.713  12.593  12.798
36909W        W 9977  12.122  25.745  11.496
36910W        W 9978  12.093  40.103   4.042
36911W        W 9979  35.427  23.901   4.115
36912W        W 9980  14.194   0.440  13.366
36913W        W 9981  33.072  23.641   0.892
36914W        W 9982  44.327  32.069   0.233
36915W        W 9983   7.798   8.886   4.302
36916W        W 9984  19.534  39.538   3.232
36917W        W 9985  28.046  15.071  13.479
36918W        W 9986  28.511   1.231  11.683
36919W        W 9987   9.652  24.568  12.136
36920W        W 9988   2.625  22.598  10.525
36921W        W 9989   0.318   2.421  10.724
36922W        W 9990  30.173  41.604   0.930
36923W        W 9991  43.370  30.591   3.049
36924W        W 9992  12.476  31.974   4.587
36925W        W 9993  29.617   3.461   2.361
36926W        W 9994  21.459  31.459   2.916
36927W        W 9995   5.963   9.900   2.259
36928W        W 9996  32.552  18.070   0.699
36929W        W 9997  36.130  36.117  11.962
36930W        W 9998  44.457  12.629   4.996
36931W        W 9999  35.070  13.353  11.617
36932W        W10000  36.030   9.037  14.788
36933W        W10001   7.342  36.316   1.194
36934W        W10002   3.256   2.524   0.503
36935W        W10003  15.763   7.334   4.257
36936W        W10004   1.317  38.870  13.494
36937W        W10005  42.348  14.211   2.361
36938W        W10006   2.203  11.791   2.783
36939W        W10007  24.097   8.361  11.449
36940W        W10008  42.822  16.336  11.109
36941W        W10009   1.406  43.822   0.719
36942W        W10010  44.379  14.703   1.778
36943W        W10011  36.420  44.913  10.836
36944W        W10012   5.087  39.992   2.529
36945W        W10013  25.875  33.586   4.096
36946W        W10014   5.878  32.973   2.093
36947W        W10015  44.546  36.391   0.366
36948W        W10016  32.451   5.243  12.071
36949W        W10017   8.689  16.819  14.499
36950W        W10018  31.007  21.291   9.767
36951W        W10019  20.336  27.008  11.570
36952W        W10020  33.026  42.049  13.415
36953W        W10021  28.954   4.901   1.021
36954W        W10022  31.004   9.890  14.023
36955W        W10023  42.743  13.766  12.526
36956W        W10024   4.365   4.935   0.801
36957W        W10025  42.711  16.726  12.465
36958W        W10026  27.977  39.984  14.352
36959W        W10027  35.115  19.709  10.302
36960W        W10028  35.987  29.414   2.287
36961W        W10029  36.941   2.720  11.151
36962W        W10030  31.118  25.642  13.798
36963W        W10031  34.488   6.221   4.705
36964W        W10032  26.299  42.360  10.614
36965W        W10033   8.918  38.082   1.898
36966W        W10034   8.992  31.372   2.719
36967W        W10035  36.520  26.805  14.136
36968W        W10036  44.295  40.065  13.995
36969W        W10037  27.410   2.856  12.530
36970W        W10038  38.042  28.154  11.557
36971W        W10039  10.794   4.931  14.474
36972W        W10040  24.681  11.035   0.479
36973W        W10041  18.021  24.234   1.188
36974W        W10042  13.865  14.746   1.485
36975W        W10043  28.502  30.364   2.779
36976W        W10044  23.258  17.923   4.454
36977W        W10045  35.872  30.746  10.144
36978W        W10046  19.140   8.186   1.630
36979W        W10047  27.361   2.976  14.714
36980W        W10048  43.804  34.844  14.808
36981W        W10049  15.263  37.557  14.067
36982W        W10050   9.873  39.816  11.837
36983W        W10051  43.941   5.411  11.001
36984W        W10052  25.390  10.807  10.799
36985W        W10053   9.727  23.094   2.894
36986W        W10054  18.753  33.784   4.802
36987W        W10055  31.840  32.066  10.809
36988W        W10056  15.754  33.157   9.972
36989W        W10057  12.201  29.066  12.033
36990W        W10058  15.179  42.971   1.024
36991W        W10059  30.932  24.240   4.082
36992W        W10060   0.455  23.045  13.791
36993W        W10061  12.899  38.438  14.955
36994W        W10062  28.576  15.841  13.382
36995W        W10063  12.679  20.687   3.608
36996W        W10064  10.795  13.118  10.957
36997W        W10065  29.691  34.856   4.600
36998W        W10066  15.337  23.284  13.598
36999W        W10067  17.833   6.516   1.331
37000W        W10068   5.866  15.433  12.619
37001W        W10069  24.766  29.971  12.992
37002W        W10070  28.693  23.546  11.407
37003W        W10071  14.390  13.302  14.394
37004W        W10072  30.239  32.339  13.477
37005W        W10073  27.568   7.138  11.120
37006W        W10074  28.497   3.620   3.264
37007W        W10075  27.594   4.218   1.241
37008W        W10076  24.604  23.931  11.132
37009W        W10077   4.048  11.969  13.764
37010W        W10078  23.432  36.315  13.931
37011W        W10079  40.301   0.854  14.806
37012W        W10080  39.420  18.749   1.254
37013W        W10081  19.178  38.563   0.828
37014W        W10082   3.517  37.128   4.403
37015W        W10083  12.169  13.395  10.508
37016W        W10084  10.596   2.359  14.028
37017W        W10085  37.592   1.682  12.028
37018W        W10086  14.348  40.337  14.953
37019W        W10087  41.006  17.065   1.309
37020W        W10088  30.167  36.943   3.455
37021W        W10089  29.679  10.227  14.655
37022W        W10090  23.618  27.999   4.908
37023W        W10091   4.344  10.145   2.815
37024W        W10092  44.863  38.868  13.521
37025W        W10093  39.800  39.878   2.823
37026W        W10094  25.068   6.949  13.999
37027W        W10095  44.271  20.606   0.702
37028W        W10096  42.356  13.406   3.322
37029W        W10097  29.061  36.316  11.921
37030W        W10098  14.697  29.451   3.070
37031W        W10099   4.799  13.322   2.819
37032W        W10100  11.419  33.605  11.614
37033W        W10101  40.860  14.596  10.755
37034W        W10102  10.149  30.403   0.892
37035W        W10103  42.935  21.127   4.010
37036W        W10104   5.136  22.484  12.441
37037W        W10105  31.435   7.882  10.713
37038W        W10106  38.111  41.494  13.626
37039W        W10107  40.347  14.306   1.471
37040W        W10108  12.107  36.256  12.895
37041W        W10109  26.752  35.857   4.869
37042W        W10110   0.774  24.792  11.635
37043W        W10111  33.447  18.936   3.687
37044W        W10112  37.074  17.113  12.021
37045W        W10113  31.039  26.130   0.421
37046W        W10114  17.593  29.379  14.716
37047W        W10115  10.299   7.418  13.388
37048W        W10116  31.605  14.312   2.498
37049W        W10117   1.397  18.342   4.184
37050W        W10118  24.150  11.117  10.651
37051W        W10119  28.163  41.953  12.315
37052W        W10120   9.910  19.736  14.388
37053W        W10121   4.642   4.866  12.842
37054W        W10122  13.544  20.477  12.914
37055W        W10123  25.546   1.855   3.744
37056W        W10124  30.690  31.402  14.436
37057W        W10125   8.177   5.437  12.674
37058W        W10126  43.223  38.319   0.991
37059W        W10127  43.017  35.007   1.315
37060W        W10128  34.368   9.708   0.035
37061W        W10129  40.045  32.800  10.562
37062W        W10130  41.814  22.528  12.496
37063W        W10131   3.679  43.938   3.670
37064W        W10132  31.610  39.654   1.269
37065W        W10133  16.142  13.878  11.147
37066W        W10134  16.659  18.052   4.618
37067W        W10135   9.226   4.600  11.917
37068W        W10136   2.136  33.530  11.892
37069W        W10137   3.056  25.721  12.458
37070W        W10138  35.554  38.383   4.581
37071W        W10139  18.886   6.301  11.551
37072W        W10140  29.836  40.647  11.967
37073W        W10141  18.011   3.219   0.700
37074W        W10142  36.571  38.992   3.964
37075W        W10143  10.916  42.999  11.656
37076W        W10144  20.333  17.219  12.950
37077W        W10145  14.142  18.851  12.110
37078W        W10146  34.886  14.105  12.028
37079W        W10147  44.044  41.259  14.503
37080W        W10148  24.955  23.215   0.689
37081W        W10149  22.155   8.384   2.403
37082W        W10150  22.447  13.731   0.353
37083W        W10151  12.874  43.255   1.334
37084W        W10152  21.821  37.191  12.482
37085W        W10153   6.784  43.061   3.363
37086W        W10154  18.479  13.754  13.441
37087W        W10155   7.351  37.078  11.474
37088W        W10156   0.231  29.581   1.765
37089W        W10157  23.050  42.397  11.681
37090W        W10158  14.238  10.596   2.807
37091W        W10159  17.189  14.150  12.236
37092W        W10160  33.055  26.499  14.921
37093W        W10161   7.347  32.964   4.458
37094W        W10162  30.461  17.575  13.712
37095W        W10163  32.342  20.810   5.014
37096W        W10164  33.475  13.105   2.644
37097W        W10165  35.565  22.432   1.962
37098W        W10166   2.808  13.086  11.072
37099W        W10167  42.972  34.694   4.091
37100W        W10168  13.562  22.119  13.392
37101W        W10169  21.678  39.450  14.474
37102W        W10170  23.575  30.249  12.502
37103W        W10171  14.398  38.497   2.700
37104W        W10172  44.506   3.821  12.642
37105W        W10173   7.713   9.874   2.645
37106W        W10174  15.182  10.255  12.840
37107W        W10175  40.445  12.821  10.649
37108W        W10176  29.325   3.262  14.544
37109W        W10177   1.990  36.865  12.747
37110W        W10178   3.520  25.070   4.363
37111W        W10179  23.790  31.153  11.298
37112W        W10180  41.330  32.633  14.781
37113W        W10181  22.596  19.587  14.578
37114W        W10182   6.300  38.686  10.048
37115W        W10183  38.718  30.714  10.155
37116W        W10184   7.986  34.903   4.218
37117W        W10185  38.471   4.459  10.456
37118W        W10186  19.619  22.702   1.160
37119W        W10187  37.614  34.468   4.682
37120W        W10188  34.293  12.171   1.026
37121W        W10189  19.289   9.577  13.697
37122W        W10190  13.632  28.385  13.542
37123W        W10191  32.458  10.462   3.579
37124W        W10192  16.772  19.603  13.002
37125W        W10193  41.683   2.392  13.639
37126W        W10194  32.147  37.840  12.572
37127W        W10195  37.051   1.605  12.036
37128W        W10196  33.909  35.127   4.785
37129W        W10197  35.504   1.510  13.614
37130W        W10198  38.426  37.362   2.929
37131W        W10199   3.779   8.488  12.976
37132W        W10200  16.078   2.476  14.519
37133W        W10201  32.372  16.551   2.386
37134W        W10202   6.065  36.671   3.024
37135W        W10203  33.488  37.431  10.907
37136W        W10204  41.027  20.507  11.556
37137W        W10205  11.109  10.674  11.795
37138W        W10206  33.479  22.077   4.481
37139W        W10207  25.107  18.974   3.168
37140W        W10208  28.955   2.564  12.173
37141W        W10209  17.052   6.625   1.870
37142W        W10210   5.938   3.891   2.279
37143W        W10211  41.778  34.379   4.207
37144W        W10212  27.223  31.493   4.165
37145W        W10213  25.489  33.530   1.291
37146W        W10214  11.772  28.153   3.192
37147W        W10215  38.409  19.685   0.347
37148W        W10216  14.084  32.361   0.874
37149W        W10217  30.207  22.031   2.161
37150W        W10218  37.907   1.562  12.860
37151W        W10219  10.942  20.449  14.012
37152W        W10220  16.553   9.851   3.180
37153W        W10221  21.864  39.019  10.330
37154W        W10222   2.600   5.374   0.916
37155W        W10223   3.381  20.199  12.008
37156W        W10224  43.182  14.064  14.840
37157W        W10225  13.234   1.563   2.090
37158W        W10226  21.645  24.199  12.891
37159W        W10227  18.113  36.324   1.318
37160W        W10228  43.386  21.814  14.781
37161W        W10229  12.783   8.217   4.168
37162W        W10230  44.735   7.417   0.484
37163W        W10231   3.824  43.068   4.622
37164W        W10232  24.204  31.177  14.771
37165W        W10233  31.191  14.242   2.823
37166W        W10234   1.055  18.588   0.024
37167W        W10235  38.311  41.067   2.894
37168W        W10236  33.503   8.606  13.063
37169W        W10237  20.329  16.722  11.002
37170W        W10238  18.180  18.681   3.682
37171W        W10239  19.751  17.549   2.400
37172W        W10240  31.966  40.757   1.880
37173W        W10241  38.621   8.634  12.885
37174W        W10242   9.720  20.613  12.963
37175W        W10243  22.157   9.833  13.343
37176W        W10244  26.736  36.972  12.452
37177W        W10245   9.891   2.254   2.684
37178W        W10246   2.889  38.655   3.830
37179W        W10247  16.223  36.374   4.398
37180W        W10248   9.275  40.038   4.166
37181W        W10249   7.940  37.847   0.687
37182W        W10250  34.890  14.321  13.845
37183W        W10251  33.376   1.940  10.533
37184W        W10252  22.203  42.907  12.224
37185W        W10253   9.082  17.793  10.786
37186W        W10254  10.906  10.575   0.297
37187W        W10255  17.579  31.879  11.677
37188W        W10256  15.725  43.608   3.661
37189W        W10257  21.618  44.931   1.277
37190W        W10258   8.607   8.877  14.866
37191W        W10259  28.097  12.864  14.950
37192W        W10260  33.356  27.975   0.469
37193W        W10261  41.415  25.493   3.339
37194W        W10262  26.911  43.502  10.693
37195W        W10263  18.251   6.743  12.368
37196W        W10264  32.926   6.872  13.461
37197W        W10265  16.396  30.489  11.218
37198W        W10266  28.990  15.154  10.959
37199W        W10267   6.294  11.166   3.672
37200W        W10268  43.415  21.157   0.812
37201W        W10269   6.778  38.252  14.530
37202W        W10270  20.794  34.639   3.339
37203W        W10271  16.757   8.086   3.575
37204W        W10272  25.676  23.091  13.838
37205W        W10273   9.260  23.025  11.522
37206W        W10274  27.667  11.875   2.726
37207W        W10275  43.714  42.742  13.600
37208W        W10276  30.900  31.636  13.140
37209W        W10277  40.247  13.281   2.103
37210W        W10278  29.790  25.524  12.572
37211W        W10279  15.104  39.305   0.430
37212W        W10280   1.971   9.096   2.382
37213W        W10281   1.765  27.499   2.320
37214W        W10282  38.252  40.080   3.044
37215W        W10283  28.118  32.538  14.805
37216W        W10284  31.013  25.009   0.649
37217W        W10285  14.216  43.684   4.637
37218W        W10286  13.675  42.099  12.060
37219W        W10287  23.078  26.440  14.881
37220W        W10288  23.178  32.105   4.524
37221W        W10289  12.039  18.198   0.268
37222W        W10290  44.276   7.711  14.775
37223W        W10291  29.522  18.258   4.121
37224W        W10292  17.611  10.301  12.947
37225W        W10293   7.192  18.066   2.892
37226W        W10294  23.069  11.841  14.731
37227W        W10295  39.203   8.731   5.433
37228W        W10296  21.682  25.187  14.590
37229W        W10297  37.785  39.996   1.741
37230W        W10298  24.713  37.903  10.168
37231W        W10299  11.322  42.738  14.983
37232W        W10300   5.463   6.401  11.107
37233W        W10301  25.121   8.189   0.015
37234W        W10302  32.591  24.503  11.590
37235W        W10303  26.149   3.164   4.886
37236W        W10304  36.547  11.169   4.949
37237W        W10305  29.326   4.941  14.250
37238W        W10306  14.168  30.767   2.923
37239W        W10307  14.847  24.910  11.174
37240W        W10308  21.809   2.401  10.819
37241W        W10309  17.395  19.410   5.063
37242W        W10310  23.704  16.312   4.814
37243W        W10311  18.829  30.440   0.023
37244W        W10312   2.009  36.393   5.233
37245W        W10313   8.356  32.981   1.381
37246W        W10314  17.613  16.105   1.770
37247W        W10315  33.522  33.545   4.157
37248W        W10316  38.833  29.386   2.694
37249W        W10317   9.827  16.136   4.705
37250W        W10318   1.023  19.267   1.780
37251W        W10319  19.292  16.323  11.649
37252W        W10320  10.238  33.032  14.408
37253W        W10321  19.246  19.360   1.654
37254W        W10322   2.236  20.654   1.389
37255W        W10323   6.708   3.633  14.347
37256W        W10324  22.331  16.000  12.552
37257W        W10325   4.404  38.590   0.977
37258W        W10326  28.989  13.008  13.445
37259W        W10327  33.038  16.055   1.074
37260W        W10328  40.485  37.158  10.592
37261W        W10329   4.339   0.549  10.681
37262W        W10330  19.768  12.372   3.851
37263W        W10331   2.482  14.715  14.085
37264W        W10332  32.397  15.359  10.443
37265W        W10333   0.888   8.480   1.943
37266W        W10334  28.510  38.014   1.001
37267W        W10335  42.556  34.321  11.567
37268W        W10336   5.753   7.278   4.022
37269W        W10337  17.691  32.479   1.041
37270W        W10338  19.096  16.634   0.276
37271W        W10339   1.582  21.583   1.312
37272W        W10340  37.229  11.064  11.980
37273W        W10341  41.035  19.810   2.207
37274W        W10342   9.218   2.989  12.019
37275W        W10343  41.755  42.234   2.478
37276W        W10344  42.490  42.717  10.812
37277W        W10345  16.365   3.008   1.651
37278W        W10346  16.846  40.036  10.421
37279W        W10347  21.108  28.991  11.206
37280W        W10348  41.393  38.934   3.984
37281W        W10349   8.692  29.977   4.219
37282W        W10350  15.327  16.402  12.101
37283W        W10351  30.313  35.393  12.554
37284W        W10352  37.397  28.645  11.110
37285W        W10353   4.522  25.382  12.460
37286W        W10354  42.764   2.061   2.708
37287W        W10355  35.267  26.199   3.981
37288W        W10356  19.328  29.369   2.324
37289W        W10357  20.676   6.835   2.881
37290W        W10358  18.690  34.053  11.561
37291W        W10359  33.094  42.788   2.525
37292W        W10360  36.101  36.420   1.763
37293W        W10361  40.927  16.145  14.473
37294W        W10362  10.947  16.619  10.141
37295W        W10363  40.095  33.567  13.895
37296W        W10364  27.124  43.407   0.583
37297W        W10365   9.726  18.301  11.443
37298W        W10366  41.278  40.325   3.581
37299W        W10367  38.903  24.211   4.555
37300W        W10368  31.765  14.701   3.432
37301W        W10369  37.087  22.553   2.419
37302W        W10370  35.888  20.063  12.514
37303W        W10371   6.560   8.696  12.624
37304W        W10372  14.154  42.285   4.772
37305W        W10373  21.613  20.854  14.275
37306W        W10374   7.790  26.086  13.753
37307W        W10375  12.290  18.410  12.523
37308W        W10376  10.186  10.725  13.848
37309W        W10377  44.463  42.327   3.440
37310W        W10378  39.654  15.909   3.559
37311W        W10379   1.170  19.800  13.461
37312W        W10380  44.295  37.499  14.889
37313W        W10381  18.152  36.945  11.048
37314W        W10382  44.459  22.362  14.943
37315W        W10383  23.374  22.836   2.353
37316W        W10384  18.098  26.309  11.491
37317W        W10385  14.938  26.620   1.620
37318W        W10386  29.714  16.825   4.593
37319W        W10387  44.333  17.866   3.083
37320W        W10388  26.658  43.542   1.689
37321W        W10389  12.389   3.733   2.326
37322W        W10390  36.550  37.587  10.336
37323W        W10391  15.886   4.349  12.030
37324W        W10392  34.115   8.592   1.804
37325W        W10393   6.889  22.003  12.027
37326W        W10394  37.065  26.571  12.107
37327W        W10395   3.309   1.339  12.177
37328W        W10396   6.421  17.017  13.394
37329W        W10397  42.530  10.131   2.201
37330W        W10398  28.920   4.968  12.488
37331W        W10399  15.755  34.058  14.231
37332W        W10400   2.080   5.777  13.396
37333W        W10401   1.890  40.363   4.664
37334W        W10402  14.199  36.742  13.294
37335W        W10403   8.674  33.996  12.387
37336W        W10404  39.358  40.385   3.353
37337W        W10405   1.024   1.724  13.649
37338W        W10406  14.910  14.650   4.269
37339W        W10407  42.294  35.058   3.715
37340W        W10408  10.116  36.024  11.045
37341W        W10409   2.432  32.208  12.971
37342W        W10410  44.399   3.805  14.912
37343W        W10411  16.371  14.291  13.850
37344W        W10412   3.745  22.315   0.861
37345W        W10413   2.328  11.283  13.153
37346W        W10414   5.232   1.651  13.407
37347W        W10415  32.894  28.216   2.133
37348W        W10416   2.409   1.766  13.827
37349W        W10417  18.204  12.241   4.884
37350W        W10418  40.012   7.740  13.190
37351W        W10419  29.179  36.972   1.926
37352W        W10420  26.027  26.821  11.084
37353W        W10421  38.554  34.853  13.200
37354W        W10422  24.322  19.642   1.549
37355W        W10423  36.899  14.106   0.276
37356W        W10424   3.229  32.804  14.870
37357W        W10425  31.509  42.410  11.512
37358W        W10426  29.481  38.429   2.374
37359W        W10427  34.924  21.079  11.585
37360W        W10428  13.387  12.075   0.402
37361W        W10429  24.139  39.943  12.514
37362W        W10430  10.588  23.175  11.534
37363W        W10431  25.136  24.794   4.650
37364W        W10432  16.339  19.298  13.060
37365W        W10433  11.654   7.149  12.913
37366W        W10434  44.888   8.171  10.744
37367W        W10435  43.177  41.783  11.364
37368W        W10436   3.398   4.834  13.244
37369W        W10437   2.191   4.335  14.897
37370W        W10438  36.910  13.065   1.893
37371W        W10439   0.818  43.678  14.916
37372W        W10440  24.206   4.719  10.884
37373W        W10441  19.168   3.513  11.507
37374W        W10442  28.927   7.285  13.919
37375W        W10443   1.044   8.339   2.946
37376W        W10444  32.165  44.971   4.557
37377W        W10445  33.854  10.468   0.935
37378W        W10446   9.262  38.371   0.757
37379W        W10447  39.477  38.564   4.564
37380W        W10448  13.548   1.049   2.861
37381W        W10449  18.532  15.455  11.721
37382W        W10450  31.401   5.687   3.448
37383W        W10451  38.598   7.294  14.448
37384W        W10452  23.696  13.280   3.731
37385W        W10453   6.403  42.250  12.333
37386W        W10454  29.562  15.859   4.250
37387W        W10455  25.192  44.088  12.024
37388W        W10456  44.190  12.287  14.944
37389W        W10457  35.151   0.953   2.293
37390W        W10458  38.775  44.050  11.019
37391W        W10459  17.149  30.602  14.083
37392W        W10460  24.046  22.606   4.095
37393W        W10461  35.205  31.349   3.643
37394W        W10462  11.040   1.517   2.288
37395W        W10463  28.212  42.204   3.286
37396W        W10464  37.496  12.105  14.113
37397W        W10465   1.869  14.399  12.007
37398W        W10466  17.714  13.907   1.475
37399W        W10467  33.945   4.207  11.442
37400W        W10468   2.203  41.892   2.135
37401W        W10469   1.352  11.888   2.441
37402W        W10470   6.793   7.678  14.352
37403W        W10471  15.280   3.489   1.354
37404W        W10472   8.374  28.175  13.311
37405W        W10473  23.762  14.996   2.673
37406W        W10474  40.643   9.043   2.199
37407W        W10475  35.490  43.474   2.240
37408W        W10476   1.428  12.206   0.783
37409W        W10477  29.206  43.839  11.157
37410W        W10478  39.721  27.157   1.846
37411W        W10479  24.626  17.958  10.655
37412W        W10480  41.255  29.634   2.629
37413W        W10481  26.977  22.488  13.428
37414W        W10482   7.281  17.819   1.326
37415W        W10483   2.842  17.018   2.717
37416W        W10484  30.926  30.588  11.226
37417W        W10485  25.119  26.180   1.940
37418W        W10486  35.881  10.117   1.477
37419W        W10487  17.942  40.817  13.519
37420W        W10488   3.138  43.116   3.425
37421W        W10489  43.935  39.389  14.072
37422W        W10490  32.803  16.259   2.391
37423W        W10491  20.963  36.570   5.132
37424W        W10492  26.153   7.839  12.484
37425W        W10493   6.149  16.523   3.654
37426W        W10494   4.162   4.491  14.470
37427W        W10495  13.715   9.371   1.425
37428W        W10496  26.030  29.411  13.942
37429W        W10497   5.440  14.359   0.648
37430W        W10498  15.300  24.077  11.740
37431W        W10499   1.405  28.650   2.301
37432W        W10500  41.305  25.255  11.491
37433W        W10501  14.691  13.569  14.756
37434W        W10502  41.837  19.517   4.531
37435W        W10503   6.535  32.989   3.824
37436W        W10504   8.882  30.911  13.213
37437W        W10505  29.052  11.206  12.858
37438W        W10506  40.055   8.421   4.201
37439W        W10507  40.532  11.971   1.435
37440W        W10508  38.054  14.503   4.699
37441W        W10509  20.181  29.897  14.333
37442W        W10510  37.541  43.710   3.124
37443W        W10511  32.198  20.321  12.095
37444W        W10512   1.295  26.013   4.497
37445W        W10513  20.461  12.056   0.468
37446W        W10514  32.597   2.630   0.836
37447W        W10515  38.956  43.272  13.981
37448W        W10516  22.757  40.383  14.000
37449W        W10517  16.982  30.706   0.910
37450W        W10518  33.430  13.839  12.966
37451W        W10519  14.869   5.912   3.886
37452W        W10520  15.592  26.093  10.799
37453W        W10521   5.653  36.813  11.386
37454W        W10522  18.697  11.632  13.824
37455W        W10523  16.245   8.363  12.846
37456W        W10524   9.184  26.895   1.261
37457W        W10525  26.674  39.220   0.673
37458W        W10526  26.600  22.258  10.728
37459W        W10527  10.978  13.827   4.708
37460W        W10528  18.634  38.615  14.979
37461W        W10529  35.459  30.075   3.022
37462W        W10530   6.736  14.667   0.700
37463W        W10531  19.526  31.198   4.208
37464W        W10532  39.637  40.904   4.294
37465W        W10533  21.216  41.472  12.811
37466W        W10534  29.450  17.637  14.833
37467W        W10535  35.155  31.438  13.069
37468W        W10536  42.309  14.829  11.522
37469W        W10537  25.676  30.118  10.751
37470W        W10538  12.704  14.234  11.617
37471W        W10539  37.976  38.970  13.078
37472W        W10540   1.291  36.716   3.638
37473W        W10541  21.167  22.681  13.802
37474W        W10542   9.566  19.888   2.428
37475W        W10543  15.714  18.173  10.733
37476W        W10544  15.756  34.177   4.027
37477W        W10545  11.396  36.915  14.612
37478W        W10546   9.735  15.296   5.160
37479W        W10547  17.672   4.352  11.025
37480W        W10548   9.324  38.137   4.179
37481W        W10549  39.518  37.331   4.537
37482W        W10550  31.158   9.291  11.622
37483W        W10551   0.525   8.319  11.927
37484W        W10552  41.434  44.797   4.349
37485W        W10553  40.566  31.143   2.362
37486W        W10554  27.718  13.732   4.634
37487W        W10555  40.299  38.960   4.124
37488W        W10556  35.033  30.530  10.657
37489W        W10557  23.151  15.574   0.757
37490W        W10558  10.366  35.715   2.968
37491W        W10559  26.733  41.861   0.776
37492W        W10560  11.838   0.697   4.185
37493W        W10561   2.668   3.766  11.230
37494W        W10562  42.061   7.051  14.402
37495W        W10563  25.050  15.479   4.736
37496W        W10564  36.799  25.648  14.324
37497W        W10565  40.560  12.126  12.771
37498W        W10566  40.048  17.980   4.938
37499W        W10567   8.388  21.635   0.404
37500W        W10568   5.260   9.838   1.811
37501W        W10569  24.365  36.336   1.681
37502W        W10570  27.425  35.667   2.247
37503W        W10571  27.089  16.139   4.288
37504W        W10572  32.882  33.601   2.970
37505W        W10573  36.468  19.777   1.346
37506W        W10574  42.732  32.578  13.956
37507W        W10575  28.537   8.287  13.849
37508W        W10576   9.914  21.713  12.100
37509W        W10577  29.124  33.810   3.974
37510W        W10578  38.266   3.325  13.042
37511W        W10579  17.653  21.241  10.514
37512W        W10580  34.179   6.227   0.829
37513W        W10581  41.876   5.652   4.402
37514W        W10582  39.554   1.879  11.065
37515W        W10583   9.726  17.819  11.583
37516W        W10584   9.318  27.501   2.336
37517W        W10585  30.003   8.966   0.108
37518W        W10586  27.202   3.443   1.767
37519W        W10587  14.347  43.310   0.407
37520W        W10588  30.974  17.570   4.277
37521W        W10589  39.501  33.120   3.213
37522W        W10590  13.174  29.169  13.409
37523W        W10591   1.115  11.189  11.277
37524W        W10592  14.478  16.104  10.809
37525W        W10593  32.560  19.245   1.225
37526W        W10594  10.123   8.835   5.084
37527W        W10595  38.432  36.371  12.062
37528W        W10596   0.637   5.623  11.195
37529W        W10597  21.659   4.021  14.599
37530W        W10598  31.065  23.203  12.875
37531W        W10599  29.406  44.882  11.893
37532W        W10600  41.741  26.965  11.162
37533W        W10601  19.149  16.157   2.043
37534W        W10602  18.591  36.279  12.419
37535W        W10603   6.974  26.859   1.799
37536W        W10604  43.986  26.312  13.180
37537W        W10605  31.382  33.460   9.602
37538W        W10606   5.953  23.696  11.010
37539W        W10607   6.755  10.878   3.699
37540W        W10608  26.795   4.901   4.499
37541W        W10609  33.923   8.301  11.785
37542W        W10610  24.000  21.597   2.022
37543W        W10611   5.940  27.418   0.467
37544W        W10612   0.226  12.266  14.654
37545W        W10613   5.324  37.070  10.553
37546W        W10614   6.634  40.976  13.499
37547W        W10615  26.429  26.579   0.548
37548W        W10616   8.152  21.739   2.244
37549W        W10617  16.302  18.548   1.751
37550W        W10618  13.295  25.379  11.144
37551W        W10619  33.980   1.829   0.258
37552W        W10620  12.043  10.237   3.767
37553W        W10621  13.737  29.991   2.875
37554W        W10622  12.329  15.736  12.756
37555W        W10623  12.057  40.573   3.824
37556W        W10624  34.934  17.057   3.579
37557W        W10625  12.610   6.397  12.193
37558W        W10626  31.719  20.023  13.360
37559W        W10627   7.900  14.050   0.551
37560W        W10628   8.702  44.080  14.894
37561W        W10629  19.307  41.716   1.415
37562W        W10630  29.052  32.566   1.324
37563W        W10631  33.894  40.613  11.224
37564W        W10632  16.736   1.396   4.041
37565W        W10633  11.152  38.816  10.843
37566W        W10634  22.678  42.812  13.586
37567W        W10635  37.099   5.889  13.059
37568W        W10636   3.305  23.707   4.222
37569W        W10637   1.797  11.857   4.634
37570W        W10638  29.880  24.337  12.490
37571W        W10639   7.897  16.391  14.410
37572W        W10640   7.297  16.487  11.038
37573W        W10641  44.783  13.109  11.122
37574W        W10642  41.823  17.782  11.552
37575W        W10643  19.012  10.710  14.512
37576W        W10644  34.581  30.569   1.547
37577W        W10645  11.110  10.258  12.178
37578W        W10646  40.817  32.273   0.676
37579W        W10647  43.046  29.489  13.337
37580W        W10648  41.501  25.685   0.357
37581W        W10649   4.066   5.452  14.124
37582W        W10650  44.903  11.817  12.124
37583W        W10651  10.303  37.803   4.177
37584W        W10652   8.404   8.273   0.677
37585W        W10653  30.633  20.640  11.236
37586W        W10654  37.379  30.109   1.805
37587W        W10655  21.375  19.206   3.747
37588W        W10656  22.721   1.277   2.166
37589W        W10657  24.942  24.564  14.843
37590W        W10658  40.856   9.781   0.901
37591W        W10659  13.148  19.279   4.631
37592W        W10660  11.608  12.567   0.533
37593W        W10661  17.987  18.196   0.446
37594W        W10662  29.103  31.998  13.791
37595W        W10663  43.954   3.715   2.884
37596W        W10664  14.137  32.715  13.548
37597W        W10665  25.506  42.788  10.628
37598W        W10666   5.159   7.816   0.045
37599W        W10667  30.660  34.136  13.846
37600W        W10668   9.093  17.749   2.307
37601W        W10669  33.466  13.645   0.555
37602W        W10670  32.395  26.810  14.430
37603W        W10671  20.519  23.959  14.366
37604W        W10672  23.440   1.453   3.205
37605W        W10673   9.956  21.151   3.176
37606W        W10674  31.307  31.976   2.939
37607W        W10675  22.946  41.793  13.917
37608W        W10676  40.924  29.148  12.395
37609W        W10677   1.354  29.956  10.967
37610W        W10678  16.141  24.632   2.185
37611W        W10679  29.229  25.619  14.226
37612W        W10680  34.324  42.876   0.331
37613W        W10681  11.246  23.633   4.049
37614W        W10682  14.257  16.073  14.954
37615W        W10683  42.704  12.280  14.899
37616W        W10684  44.907  38.281  14.526
37617W        W10685  10.788  13.648   0.269
37618W        W10686  22.699  42.953  14.681
37619W        W10687   5.769  37.865  13.228
37620W        W10688  25.102   0.812   4.442
37621W        W10689  16.968  23.618   3.703
37622W        W10690   5.396  24.334  14.417
37623W        W10691  26.085  31.555  13.828
37624W        W10692  23.658  16.896   3.564
37625W        W10693  34.647  16.178   3.187
37626W        W10694   0.297  38.425   3.374
37627W        W10695   0.832  36.801  13.359
37628W        W10696  37.935  21.651   2.719
37629W        W10697  42.534  17.777  11.896
37630W        W10698   8.103  12.380  11.647
37631W        W10699  30.622  25.585  13.014
37632W        W10700  20.100  42.333  10.991
37633W        W10701  21.498  12.256  11.627
37634W        W10702  26.474  23.699   3.840
37635W        W10703  23.454  43.686   2.098
37636W        W10704   2.850   8.213  12.413
37637W        W10705  30.248  10.362  11.623
37638W        W10706  31.235   6.964  13.292
37639W        W10707  21.776  11.193   2.409
37640W        W10708  20.262  10.275   4.328
37641W        W10709  19.819   8.590  10.507
37642W        W10710  29.378   6.161   1.858
37643W        W10711  36.087   0.210  11.599
37644W        W10712  19.727   5.180  12.409
37645W        W10713  28.026  38.798   2.758
37646W        W10714  22.085   9.946  14.983
37647W        W10715  23.894  35.394   2.815
37648W        W10716  24.548   6.601   0.173
37649W        W10717  20.106  21.643   4.566
37650W        W10718  21.026  31.398  13.699
37651W        W10719  33.911   4.786  11.243
37652W        W10720  27.005  40.316  13.593
37653W        W10721  17.497  22.547   2.474
37654W        W10722  27.911  32.440  13.341
37655W        W10723  36.824  38.514   1.532
37656W        W10724  28.203  10.627  13.980
37657W        W10725   6.671  18.650   2.246
37658W        W10726  18.986  18.898   1.863
37659W        W10727  43.183  18.740  12.816
37660W        W10728  37.679  38.699  14.012
37661W        W10729  14.665   0.016   1.719
37662W        W10730  27.530  25.201  13.590
37663W        W10731   8.860  17.224   4.676
37664W        W10732   7.306  33.057  13.999
37665W        W10733  44.230  27.441  12.636
37666W        W10734   0.626  29.685  11.250
37667W        W10735   9.750   6.646   3.634
37668W        W10736  41.838  27.327  11.953
37669W        W10737  30.986  25.018   2.603
37670W        W10738  23.194  42.517   1.712
37671W        W10739  29.085   9.267   0.787
37672W        W10740  12.840   4.777   3.700
37673W        W10741  29.645  43.718   0.526
37674W        W10742  12.772  31.596   4.394
37675W        W10743   3.306   0.425  14.495
37676W        W10744  18.164  38.584  14.681
37677W        W10745  31.149  30.462   2.210
37678W        W10746  16.977  24.148  12.852
37679W        W10747   9.385  39.939  12.037
37680W        W10748   5.244   1.927   4.624
37681W        W10749  41.071  28.497  11.115
37682W        W10750  10.916  26.703   2.928
37683W        W10751  35.778  17.239   0.321
37684W        W10752  31.944  44.472   3.621
37685W        W10753   4.738   8.833   3.254
37686W        W10754   3.700   7.944  11.590
37687W        W10755   8.223  20.488   1.848
37688W        W10756  35.657  32.211   4.005
37689W        W10757  31.436  10.400  14.472
37690W        W10758  34.810  30.120   0.791
37691W        W10759  42.035   0.873   1.296
37692W        W10760  12.104  31.954  12.266
37693W        W10761  17.243  20.754   2.867
37694W        W10762  21.551   6.723   1.009
37695W        W10763  36.351  23.266  14.581
37696W        W10764  10.303  23.735  11.095
37697W        W10765  30.740   3.033  10.724
37698W        W10766   8.281   0.467   3.316
37699W        W10767  30.758  15.180   0.969
37700W        W10768  11.793  43.536  14.680
37701W        W10769   3.783  23.166   4.728
37702W        W10770  14.316  13.462   1.896
37703W        W10771  22.619  34.110   1.534
37704W        W10772  36.404  36.672  13.510
37705W        W10773  29.858  28.446   1.189
37706W        W10774   8.709  27.560  14.954
37707W        W10775  25.182   5.660   1.431
37708W        W10776  14.690  44.217  14.182
37709W        W10777  35.458  14.769   4.537
37710W        W10778   4.666   0.330  11.465
37711W        W10779  12.253  41.870  10.986
37712W        W10780  37.423  23.103  13.855
37713W        W10781  35.775   9.123   2.631
37714W        W10782   4.355  23.103   0.978
37715W        W10783  29.001   8.814   2.154
37716W        W10784  28.180  33.458  12.525
37717W        W10785  19.937   0.429   1.925
37718W        W10786  25.027  11.308  13.708
37719W        W10787  39.353  43.515  12.846
37720W        W10788  29.825  19.137   5.071
37721W        W10789  25.011  31.618   1.977
37722W        W10790  37.794   4.823   0.879
37723W        W10791  18.645  23.354  13.311
37724W        W10792   5.771  43.233  14.437
37725W        W10793  19.744  10.283  12.073
37726W        W10794  36.032   3.813   2.257
37727W        W10795   0.624  35.686   2.099
37728W        W10796  33.535  44.369   0.725
37729W        W10797  39.510  32.168  12.544
37730W        W10798  44.711  10.345  11.639
37731W        W10799  27.667  26.490  12.403
37732W        W10800  41.974   7.234   1.438
37733W        W10801  10.614  35.939  14.731
37734W        W10802  10.106  30.554  11.615
37735W        W10803  35.877  36.363   0.751
37736W        W10804  11.862  43.933   5.081
37737W        W10805  36.092   7.696   0.879
37738W        W10806  44.721  29.907   2.303
37739W        W10807  41.939  38.922  11.696
37740W        W10808   1.396  10.176   0.340
37741W        W10809  10.874  17.769  14.923
37742W        W10810   2.986   1.267   2.209
37743W        W10811  22.438  21.144   2.812
37744W        W10812  21.577  20.575   2.188
37745W        W10813  24.010  13.066   4.456
37746W        W10814  43.913  14.119  11.678
37747W        W10815  43.445   1.984  14.298
37748W        W10816   9.845  36.020  12.627
37749W        W10817  16.147  20.196   2.359
37750W        W10818  28.497  40.999   1.689
37751W        W10819   5.862  42.965   4.154
37752W        W10820  40.433  31.592  11.014
37753W        W10821  43.270  42.055  13.122
37754W        W10822  28.591  20.094  12.562
37755W        W10823  20.004  13.129  14.387
37756W        W10824  33.624  16.697   3.624
37757W        W10825  37.116   3.106   2.818
37758W        W10826  16.353  33.444   0.250
37759W        W10827   1.367  23.943   1.757
37760W        W10828  33.457   9.872  11.391
37761W        W10829   9.713  43.120  12.254
37762W        W10830   8.900  18.674  13.059
37763W        W10831  14.760   4.375  11.042
37764W        W10832  21.987   7.111   1.904
37765W        W10833  31.877  30.666   2.754
37766W        W10834   9.629  14.252  14.553
37767W        W10835  15.242  14.413   2.665
37768W        W10836  25.029  40.954  12.101
37769W        W10837  33.431  33.083  12.867
37770W        W10838   0.917  11.363   4.897
37771W        W10839  36.954  11.169  11.471
37772W        W10840   8.921  28.480   1.926
37773W        W10841  28.740  39.459  14.377
37774W        W10842   9.338  24.119   2.072
37775W        W10843  41.519  12.918  14.225
37776W        W10844  14.783  10.087  11.621
37777W        W10845  10.101   0.948   2.839
37778W        W10846   7.839  27.461   1.770
37779W        W10847  11.368  24.996   4.136
37780W        W10848  35.415  12.142  14.336
37781W        W10849  42.411  41.438   3.661
37782W        W10850  15.261  28.695  13.886
37783W        W10851  34.357   5.141   1.779
37784W        W10852  15.171   1.582  12.903
37785W        W10853  23.026  20.611  10.623
37786W        W10854  43.966  21.719   4.710
37787W        W10855  32.558  17.825  11.061
37788W        W10856  39.994   7.713   9.757
37789W        W10857  42.513  28.736   0.963
37790W        W10858  39.477  28.575   3.269
37791W        W10859  35.624  26.017  14.636
37792W        W10860  30.597  32.618  12.074
37793W        W10861   6.561  19.251  11.891
37794W        W10862  43.469  32.745   3.677
37795W        W10863  34.798  25.537  10.823
37796W        W10864  32.334  32.001  11.960
37797W        W10865  41.826   2.757   3.258
37798W        W10866   9.004  36.988   0.438
37799W        W10867  44.237  14.651   1.214
37800W        W10868  42.550  32.936  12.331
37801W        W10869  16.835   5.441  11.092
37802W        W10870  26.257  37.803   4.600
37803W        W10871   3.399   7.713   4.581
37804W        W10872  28.826  42.588   5.200
37805W        W10873  39.377   1.969  12.886
37806W        W10874   2.360  17.085   0.872
37807W        W10875  23.055  15.725   4.171
37808W        W10876  13.647  26.904   0.952
37809W        W10877   4.129   1.450   1.162
37810W        W10878  41.918  25.265   1.294
37811W        W10879   2.754  22.080  11.538
37812W        W10880   9.415  27.864  13.372
37813W        W10881   4.171  24.631  14.509
37814W        W10882  31.501  22.501   4.646
37815W        W10883  39.406  30.564   0.462
37816W        W10884  31.332  30.120   0.966
37817W        W10885  23.145  43.446   2.589
37818W        W10886  39.920  37.322  10.699
37819W        W10887  12.170  23.031  12.960
37820W        W10888   6.870   5.818  14.044
37821W        W10889   9.260  10.854   2.772
37822W        W10890  28.735  16.936   2.714
37823W        W10891  12.671   5.135  14.004
37824W        W10892  23.189  24.141   1.465
37825W        W10893  10.742  27.231  10.436
37826W        W10894  21.021   7.128   2.178
37827W        W10895  38.072  10.690   0.937
37828W        W10896  31.777  32.177  12.013
37829W        W10897  28.489   9.437   0.435
37830W        W10898  28.497  39.993   1.062
37831W        W10899   3.015  39.437  14.877
37832W        W10900  27.192  35.992  10.775
37833W        W10901  11.168  24.533   4.380
37834W        W10902  23.424  26.509   3.335
37835W        W10903   2.971  31.677   3.806
37836W        W10904  31.800   8.944   1.197
37837W        W10905   9.699  18.087   4.801
37838W        W10906  41.309  31.517  10.656
37839W        W10907  24.077   6.214   0.920
37840W        W10908  10.643   2.876   2.674
37841W        W10909   6.232   4.032  13.792
37842W        W10910   0.736  22.569   2.819
37843W        W10911  13.235  44.855   2.238
37844W        W10912  32.963  18.097   1.850
37845W        W10913   7.238  31.981  12.489
37846W        W10914  26.930   2.236  13.421
37847W        W10915  13.813  13.040  12.590
37848W        W10916   3.806   1.845   0.479
37849W        W10917   7.158  15.813   1.896
37850W        W10918  22.260  17.791   3.143
37851W        W10919  39.384  38.420  12.013
37852W        W10920  42.939  42.950  12.488
37853W        W10921  44.958  32.797  10.473
37854W        W10922  36.350  30.846   4.992
37855W        W10923  40.013   4.323  14.771
37856W        W10924  38.981  19.279  13.356
37857W        W10925  30.536  23.022   0.728
37858W        W10926  29.597  32.086  10.645
37859W        W10927  17.339  17.833  11.488
37860W        W10928  28.612  44.399  11.561
37861W        W10929  24.377  42.317  11.513
37862W        W10930  23.418  26.908  12.958
37863W        W10931  33.915   9.616   2.803
37864W        W10932  14.265  33.165   2.020
37865W        W10933  24.642   3.012   0.377
37866W        W10934   9.493  39.917   2.819
37867W        W10935  39.269  33.856   2.173
37868W        W10936  35.130   7.267  13.355
37869W        W10937  34.994   5.979  11.140
37870W        W10938  40.286  22.844  12.315
37871W        W10939  42.512  41.286  13.312
37872W        W10940  35.415  29.008  11.221
37873W        W10941   8.572  26.437  11.596
37874W        W10942   0.143  17.995  14.402
37875W        W10943  37.424   9.684  13.451
37876W        W10944  42.449  36.006   2.586
37877W        W10945  18.334  19.198   3.660
37878W        W10946  26.527   1.562  12.777
37879W        W10947  30.308   9.609  12.423
37880W        W10948  40.068  26.924   0.021
37881W        W10949   4.381  15.222  11.090
37882W        W10950  40.473  22.787  11.607
37883W        W10951  39.712   7.693   4.641
37884W        W10952  36.442  11.175   1.862
37885W        W10953  42.423   1.993   4.713
37886W        W10954  25.108  14.284  10.662
37887W        W10955   4.908  39.962   0.996
37888W        W10956   6.228  13.330  10.649
37889W        W10957  23.158  11.382  14.943
37890W        W10958   7.472  29.174   3.390
37891W        W10959   2.970  26.931   2.810
37892W        W10960  22.079  27.023   4.340
37893W        W10961  35.346  13.866  11.952
37894W        W10962  36.056  44.918   2.703
37895W        W10963  42.883  10.237   4.975
37896W        W10964  34.328  34.202   5.397
37897W        W10965  43.988  24.018   0.403
37898W        W10966   3.904   7.238  10.350
37899W        W10967  16.705  25.718  13.305
37900W        W10968  15.608  26.585   2.302
37901W        W10969  43.749  14.398  12.073
37902W        W10970  30.209  28.512   0.784
37903W        W10971  34.047  16.282  14.792
37904W        W10972  44.493   6.782   3.778
37905W        W10973   3.754   9.830  13.673
37906W        W10974  32.570   5.398  11.591
37907W        W10975  11.826  16.692   5.229
37908W        W10976  21.183  44.864   1.934
37909W        W10977  22.959  16.804  10.683
37910W        W10978  33.451  38.840  13.887
37911W        W10979  12.738  38.279   2.687
37912W        W10980   0.138  26.633   2.344
37913W        W10981  23.777   3.860  14.774
37914W        W10982  43.684  35.147  10.759
37915W        W10983   5.868  11.741   4.676
37916W        W10984  33.937  22.014  10.641
37917W        W10985  19.543  24.949  14.867
37918W        W10986  10.974  34.427  13.814
37919W        W10987  39.336  23.101   1.957
37920W        W10988  24.509  18.780   4.134
37921W        W10989   4.217   4.300  11.203
37922W        W10990  25.637  12.839   4.108
37923W        W10991   9.385  44.436  12.090
37924W        W10992  40.529  28.664   0.381
37925W        W10993  33.459  23.044  12.495
37926W        W10994  19.976  22.047   3.287
37927W        W10995  43.344  23.775   4.434
37928W        W10996   6.641  39.446  13.505
37929W        W10997  20.575   5.913   2.478
37930W        W10998  32.633  40.447   4.325
37931W        W10999   3.239   2.886   1.295
37932W        W11000  31.917  16.340   3.325
37933W        W11001  30.552   8.280  13.152
37934W        W11002  41.387  36.276   0.389
37935W        W11003   1.941  28.125   4.508
37936W        W11004  30.146   2.205  12.523
37937W        W11005  14.063  26.245   2.793
37938W        W11006  38.809   8.506  10.096
37939W        W11007  23.064  39.898  13.923
37940W        W11008  23.671  13.139  13.419
37941W        W11009  19.527  34.974  12.468
37942W        W11010  38.605  33.599   3.603
37943W        W11011  39.065  36.810  12.835
37944W        W11012  44.542  44.732   2.029
37945W        W11013  41.377   0.771  11.545
37946W        W11014  18.201  16.641  12.181
37947W        W11015  18.767  37.457  14.967
37948W        W11016  38.495  22.742   0.031
37949W        W11017  41.532  12.702   4.324
37950W        W11018  37.934  39.960  13.359
37951W        W11019  16.073   7.673   2.287
37952W        W11020  10.357  23.539  13.404
37953W        W11021  17.115   7.892  11.438
37954W        W11022  15.190  37.565   4.194
37955W        W11023  15.803  19.632  14.969
37956W        W11024  39.122  12.757   4.039
37957W        W11025   3.440  36.543   2.451
37958W        W11026  36.100  21.111   3.850
37959W        W11027  22.301  12.411   4.096
37960W        W11028  12.161  38.844  12.443
37961W        W11029  24.102  44.001   1.431
37962W        W11030   2.176  25.879  13.033
37963W        W11031  25.656   1.892   4.743
37964W        W11032  24.588  22.533  13.929
37965W        W11033  12.100  21.262  12.772
37966W        W11034  33.275   6.422   2.218
37967W        W11035   9.771  34.529   0.968
37968W        W11036   0.026  35.918  12.636
37969W        W11037  43.074  13.818   3.326
37970W        W11038  26.245  38.626  11.264
37971W        W11039   0.406  20.012  12.999
37972W        W11040  39.047  28.666   4.099
37973W        W11041  31.965  23.968  11.106
37974W        W11042  32.829  44.426   3.107
37975W        W11043  25.056  44.983  14.010
37976W        W11044  40.575  44.255   4.511
37977W        W11045  21.001  10.529  11.481
37978W        W11046  43.898   5.216   0.769
37979W        W11047  29.950  33.460  10.834
37980W        W11048  35.483   2.295  14.976
37981W        W11049  33.327  34.188   1.184
37982W        W11050  19.059  32.556   0.904
37983W        W11051  14.533   2.359   4.681
37984W        W11052   7.679  13.121  11.089
37985W        W11053  39.447   9.640   3.856
37986W        W11054  27.052  26.847  11.829
37987W        W11055  32.622  10.249   0.893
37988W        W11056  26.174  18.804  11.088
37989W        W11057  21.639  29.041  14.848
37990W        W11058  40.822   1.062   3.230
37991W        W11059  19.242  42.817   4.088
37992W        W11060  19.052  41.225  12.511
37993W        W11061  38.017  36.141  10.335
37994W        W11062  14.537  13.626  13.894
37995W        W11063  43.466  10.712  14.853
37996W        W11064  24.435   3.362  13.974
37997W        W11065   4.430  25.574  14.219
37998W        W11066   7.233  38.076   2.882
37999W        W11067  39.815  15.942   1.264
38000W        W11068  32.309   0.036   3.300
38001W        W11069  35.716  28.999  10.782
38002W        W11070  13.810  44.364   4.077
38003W        W11071  15.642  15.619  12.580
38004W        W11072  41.632  39.112  11.144
38005W        W11073  20.102  40.502   4.085
38006W        W11074   7.907   0.125   9.740
38007W        W11075   4.981   2.395  12.964
38008W        W11076  40.115  16.102   0.851
38009W        W11077   2.478  23.098  10.624
38010W        W11078  27.424   7.637   4.486
38011W        W11079  15.800  13.686  11.550
38012W        W11080  13.719  35.594   1.184
38013W        W11081  17.858  28.158   1.074
38014W        W11082  32.741  31.700  12.868
38015W        W11083  12.609  40.082  11.059
38016W        W11084  36.893  10.314  12.351
38017W        W11085  15.584  44.150  10.183
38018W        W11086  12.226  38.124   0.039
38019W        W11087  16.780  10.358   0.941
38020W        W11088  27.081   6.362  13.945
38021W        W11089   6.409  24.602   3.097
38022W        W11090  28.842   7.373  11.566
38023W        W11091  27.067  13.853   1.188
38024W        W11092  10.404  16.553  13.403
38025W        W11093   8.204  43.843  11.686
38026W        W11094  10.500  27.413   0.233
38027W        W11095   2.253  26.105  12.570
38028W        W11096  23.233  28.741   4.327
38029W        W11097   5.505  14.216   3.729
38030W        W11098   0.271   4.986  12.619
38031W        W11099   1.473  11.673   0.181
38032W        W11100  27.153  35.610   3.321
38033W        W11101   4.738  44.800  10.659
38034W        W11102  26.044  21.151  11.374
38035W        W11103   3.049  27.565   4.144
38036W        W11104  15.267  28.045  13.685
38037W        W11105  44.403  37.001   4.080
38038W        W11106  20.689  24.501   3.819
38039W        W11107  37.334  13.661  13.218
38040W        W11108  23.746  34.473  14.839
38041W        W11109  11.253  19.839  11.021
38042W        W11110  24.565   1.894   3.916
38043W        W11111  36.373  26.526   1.327
38044W        W11112  18.193  35.866  11.534
38045W        W11113   5.493  28.171  13.423
38046W        W11114  19.300  25.098   0.356
38047W        W11115   5.354   5.675   2.181
38048W        W11116   7.423  12.638   1.022
38049W        W11117  14.095   7.414  14.446
38050W        W11118  37.752   0.333  13.792
38051W        W11119  17.491  42.436  11.941
38052W        W11120  31.799  36.054   3.617
38053W        W11121  26.082  37.879   5.075
38054W        W11122  36.396  10.287   1.389
38055W        W11123  31.404  37.010  12.994
38056W        W11124   5.563  44.263   4.778
38057W        W11125  11.289  42.877   3.337
38058W        W11126  31.680   3.164   3.796
38059W        W11127  20.274   9.823  10.738
38060W        W11128  23.100  27.388  11.527
38061W        W11129  29.527   9.143   2.913
38062W        W11130  17.711   2.608  14.030
38063W        W11131  10.403  38.455   0.327
38064W        W11132   0.432  31.170  12.970
38065W        W11133   6.372  38.953  11.433
38066W        W11134  17.891   0.741   0.656
38067W        W11135  43.710  44.254   0.217
38068W        W11136  22.608  34.528   4.694
38069W        W11137  18.241  19.009   1.164
38070W        W11138  42.096  18.095   0.879
38071W        W11139  38.632  31.681  10.745
38072W        W11140   9.184  21.051   4.751
38073W        W11141  41.482  12.981   0.886
38074W        W11142  42.407  43.993  12.038
38075W        W11143  30.679   7.253   0.051
38076W        W11144  27.440   2.473  10.863
38077W        W11145   2.319  15.328   2.240
38078W        W11146  25.337  32.106   5.092
38079W        W11147  40.519  32.300  11.522
38080W        W11148   6.428  14.207   2.691
38081W        W11149  11.806  23.257  13.974
38082W        W11150  37.052  17.252   4.550
38083W        W11151  33.393  39.920   2.686
38084W        W11152  37.891  31.368  14.764
38085W        W11153   6.186  29.041  11.620
38086W        W11154   0.551  18.620   0.123
38087W        W11155  32.973  21.671  11.532
38088W        W11156  30.957  37.779  10.432
38089W        W11157  27.590  17.334  13.942
38090W        W11158  34.395  41.596   2.094
38091W        W11159   4.289   4.433   0.778
38092W        W11160  25.137  32.143   4.612
38093W        W11161  27.496   1.201   3.793
38094W        W11162  21.427   6.478  13.772
38095W        W11163  44.543   1.906   1.753
38096W        W11164  35.413  20.072  10.593
38097W        W11165  20.765  23.259  11.124
38098W        W11166  16.816  44.879   3.290
38099W        W11167  16.462  44.528  14.162
38100W        W11168   8.497   4.932  11.100
38101W        W11169  16.555  42.992  12.600
38102W        W11170  32.142  31.822  11.134
38103W        W11171  42.174  25.714   1.890
38104W        W11172  21.042  11.483   1.881
38105W        W11173  13.624  17.631  13.446
38106W        W11174  35.903  28.481   2.004
38107W        W11175   9.975   7.837   0.446
38108W        W11176  20.162  35.268  13.914
38109W        W11177   1.236   3.210   0.790
38110W        W11178  38.461  30.164   3.202
38111W        W11179  39.766  26.367   2.325
38112W        W11180   7.815  25.192  13.864
38113W        W11181  23.242  25.106  14.393
38114W        W11182   3.694  41.027   2.907
38115W        W11183  41.544  20.974  13.791
38116W        W11184  22.580  33.344  11.661
38117W        W11185   4.963   7.721   2.855
38118W        W11186  15.774  42.287   1.231
38119W        W11187  17.213  28.346  11.110
38120W        W11188  23.193   9.384  14.989
38121W        W11189  25.415   3.380   1.065
38122W        W11190  19.299  41.770  11.017
38123W        W11191  12.146  15.189  11.912
38124W        W11192  37.724  36.850   3.702
38125W        W11193  29.459  18.293  11.346
38126W        W11194  33.818  22.065   1.416
38127W        W11195   3.454  31.803   4.028
38128W        W11196   1.639  26.011  13.399
38129W        W11197   8.763   0.417  10.676
38130W        W11198   4.166  23.974  12.584
38131W        W11199  43.254   6.230   1.831
38132W        W11200   8.240   8.678   4.114
38133W        W11201   9.323   2.548   1.472
38134W        W11202  31.927  28.371  13.251
38135W        W11203   8.119   0.937  12.155
38136W        W11204  20.856  26.423   0.894
38137W        W11205  24.120   8.433  12.909
38138W        W11206  11.454   3.900   3.428
38139W        W11207  35.399  29.352   0.444
38140W        W11208  36.274  15.873  13.286
38141W        W11209  21.935   5.678   3.213
38142W        W11210  10.399  37.555   3.723
38143W        W11211  20.004   3.712  14.867
38144W        W11212  28.149  11.293  10.360
38145W        W11213  33.866  11.218   4.456
38146W        W11214  36.855  28.029  11.678
38147W        W11215  27.270  35.934   0.909
38148W        W11216  36.516   9.924  11.784
38149W        W11217  22.166  43.063   3.241
38150W        W11218  12.606  17.876  11.762
38151W        W11219  30.944  39.493  14.492
38152W        W11220  10.256  33.638   2.196
38153W        W11221  23.786  23.740  13.353
38154W        W11222   5.296  28.456   4.736
38155W        W11223  16.316  31.720  11.118
38156W        W11224   0.999  44.216   0.033
38157W        W11225  12.364  14.145   1.637
38158W        W11226  18.524  31.040   0.302
38159W        W11227  29.357  10.608  10.300
38160W        W11228  17.258  30.852  12.619
38161W        W11229  44.363  12.739   4.469
38162W        W11230  23.071  33.919   1.692
38163W        W11231  21.259  39.363   2.984
38164W        W11232  37.594  33.417  12.854
38165W        W11233   5.943  30.892  10.611
38166W        W11234  26.963  12.698  14.416
38167W        W11235  26.898   4.852   1.146
38168W        W11236  40.477  18.529   2.235
38169W        W11237  40.071  13.362  14.926
38170W        W11238   6.451  30.483  11.639
38171W        W11239  21.624  12.739   3.403
38172W        W11240  35.373  40.358  11.050
38173W        W11241  40.842   7.836  12.435
38174W        W11242   1.281  35.865   2.306
38175W        W11243  42.039  18.826  11.149
38176W        W11244  35.818  28.631  14.351
38177W        W11245  29.061  10.710   0.151
38178W        W11246  23.438   7.630   3.604
38179W        W11247  34.389  24.021   2.001
38180W        W11248   5.361   2.011  14.375
38181W        W11249   2.590  39.421   3.195
38182W        W11250  44.779  31.862  14.432
38183W        W11251  37.468  24.579   1.393
38184W        W11252  34.590  19.612  12.546
38185W        W11253   6.194  19.219  14.561
38186W        W11254   0.202  24.990  14.086
38187W        W11255  18.557  15.731  10.686
38188W        W11256  11.337  10.400  11.423
38189W        W11257  32.449   6.717   1.521
38190W        W11258  41.923  35.570  11.399
38191W        W11259  20.310  25.552   1.656
38192W        W11260  27.269  28.703  11.547
38193W        W11261  40.500  34.091  11.660
38194W        W11262  12.920  30.094  10.609
38195W        W11263  17.403  39.569   3.845
38196W        W11264  39.916  44.532   0.917
38197W        W11265   0.802  41.839  11.631
38198W        W11266  21.728   0.709   3.122
38199W        W11267  24.676   9.834   4.128
38200W        W11268   4.123  25.169  12.992
38201W        W11269  30.742  36.463   0.357
38202W        W11270  27.502  22.513   1.263
38203W        W11271  35.014  20.111   0.504
38204W        W11272  14.347  17.608  13.102
38205W        W11273  40.071  27.241  12.569
38206W        W11274  16.675   1.207   4.525
38207W        W11275  20.774  32.496   0.226
38208W        W11276  18.953  20.220  12.913
38209W        W11277   0.777  15.723   1.044
38210W        W11278  42.072  37.396  14.077
38211W        W11279  10.287   5.360   3.447
38212W        W11280  20.499   1.824   0.827
38213W        W11281   5.832  37.376  14.077
38214W        W11282   2.367  19.296   1.453
38215W        W11283  15.574  10.580  10.667
38216W        W11284   6.318  34.187  14.330
38217W        W11285  17.339  24.522   0.865
38218W        W11286  11.690  44.679   2.361
38219W        W11287  42.486  37.796   1.361
38220W        W11288  21.788   0.012   1.778
38221W        W11289  10.760  44.623  12.839
38222W        W11290  40.224   5.322   3.703
38223W        W11291  13.384  36.290  12.527
38224W        W11292  26.688  35.863   2.675
38225W        W11293  43.027  28.035  11.585
38226W        W11294  32.447  18.822  13.708
38227W        W11295  31.761  27.456  10.167
38228W        W11296  27.067  20.699   2.568
38229W        W11297  33.571   1.377   0.305
38230W        W11298  43.300  15.181   3.976
38231W        W11299  29.802  33.815   1.254
38232W        W11300  29.860  39.069   3.794
38233W        W11301   6.694   5.844   4.620
38234W        W11302  37.560  23.063   2.347
38235W        W11303  14.314  19.458  11.560
38236W        W11304  12.137  16.456  11.474
38237W        W11305  33.455  16.201  11.880
38238W        W11306   4.161  30.414   2.168
38239W        W11307  23.268  34.629  12.422
38240W        W11308   2.235  27.532  11.034
38241W        W11309   8.943  23.021  14.929
38242W        W11310   9.797  20.791  11.621
38243W        W11311  18.030  11.342   0.353
38244W        W11312  18.083   3.915  14.430
38245W        W11313   4.588   7.452  12.384
38246W        W11314  23.139  34.557  13.915
38247W        W11315  15.011  35.954  12.083
38248W        W11316  42.324  44.246   4.863
38249W        W11317  11.117  28.891   0.866
38250W        W11318  35.469   1.919   4.634
38251W        W11319   4.980  17.732   3.363
38252W        W11320  13.824  23.123   1.255
38253W        W11321  44.227  32.224   4.115
38254W        W11322  20.566  10.836  12.509
38255W        W11323  31.382  44.031   2.593
38256W        W11324  10.288  32.606  12.503
38257W        W11325  15.266  23.996  14.831
38258W        W11326  24.073  32.361   2.695
38259W        W11327  14.671  27.614   1.941
38260W        W11328  44.329  40.265   4.967
38261W        W11329  10.525   0.404   4.658
38262W        W11330  23.543  29.093   2.622
38263W        W11331  25.761  43.824   2.153
38264W        W11332   2.875   0.534   4.521
38265W        W11333  18.862   0.737   1.267
38266W        W11334  25.051   2.824  10.630
38267W        W11335  23.269  42.056   1.955
38268W        W11336   3.625   6.261  11.038
38269W        W11337  14.969  11.851   3.714
38270W        W11338  41.361  20.987  11.162
38271W        W11339   8.577  36.507   2.136
38272W        W11340  41.871  41.695  13.288
38273W        W11341  43.476  10.672  12.862
38274W        W11342  34.106  39.267   3.697
38275W        W11343  18.600  33.295   2.107
38276W        W11344   3.511  15.097  14.500
38277W        W11345   5.255  42.040  14.913
38278W        W11346  27.948  35.619   3.156
38279W        W11347  28.697  25.225  14.935
38280W        W11348  15.874  33.892  13.763
38281W        W11349  27.613  35.027  10.811
38282W        W11350  40.816   6.673   3.678
38283W        W11351  31.449  14.841  14.662
38284W        W11352  13.193  36.038  10.353
38285W        W11353  25.413  36.487   0.694
38286W        W11354   2.009  21.708  14.761
38287W        W11355  37.508  42.469   2.794
38288W        W11356   7.507  39.059   0.824
38289W        W11357  41.398  27.949   3.873
38290W        W11358  21.357  39.681  14.844
38291W        W11359   2.051  31.186  12.493
38292W        W11360  39.813  41.691  12.094
38293W        W11361  30.729   1.755   2.329
38294W        W11362  21.498  10.905  14.409
38295W        W11363  35.764  35.494   4.689
38296W        W11364  32.995   1.513   2.195
38297W        W11365  35.829  29.599  14.329
38298W        W11366  14.215  38.051  11.717
38299W        W11367   5.402  26.403   4.604
38300W        W11368  11.689  17.114   4.173
38301W        W11369  21.195   4.836  11.186
38302W        W11370  12.820  25.074   3.137
38303W        W11371  28.976  43.882  10.690
38304W        W11372  43.592  37.438   3.386
38305W        W11373  10.573  20.810   0.403
38306W        W11374  19.637   4.164   4.087
38307W        W11375  36.308  31.555   0.731
38308W        W11376  40.342  13.716  10.482
38309W        W11377   0.410   4.429   0.171
38310W        W11378  43.964  17.757   1.170
38311W        W11379   1.607   8.538  12.116
38312W        W11380   3.935  22.665  12.309
38313W        W11381  35.313   8.884  10.730
38314W        W11382  10.183   9.797   0.437
38315W        W11383   0.178  14.236   0.269
38316W        W11384  24.789  43.249   1.434
38317W        W11385  35.132  36.772  10.885
38318W        W11386   6.760   7.256  12.422
38319W        W11387   7.764  41.060   3.243
38320W        W11388  13.087   2.695  12.557
38321W        W11389  29.170  13.842   1.217
38322W        W11390  39.061  33.600   9.903
38323W        W11391  11.621  19.162  12.625
38324W        W11392  10.809  16.575  14.879
38325W        W11393  25.617  44.155  10.046
38326W        W11394  11.886  10.250   0.519
38327W        W11395   2.492  33.117  14.499
38328W        W11396  11.263   9.357  13.983
38329W        W11397   7.697   4.005   1.644
38330W        W11398   6.427   3.806   2.474
38331W        W11399  30.504  27.465   2.291
38332W        W11400  20.866  36.698  12.088
38333W        W11401  22.278  19.651   3.767
38334W        W11402  31.106  15.795  11.627
38335W        W11403  10.221  12.057   1.929
38336W        W11404  24.981  24.681  12.406
38337W        W11405  26.586  26.194  11.497
38338W        W11406   0.052  15.599  10.914
38339W        W11407   8.977   9.720   2.955
38340W        W11408  10.342  21.753  12.887
38341W        W11409   2.848  41.250  14.854
38342W        W11410  34.970   7.678   1.282
38343W        W11411   5.508  37.119   3.684
38344W        W11412  34.994  41.085  11.554
38345W        W11413   6.713  22.423  10.753
38346W        W11414   6.246  40.770  10.661
38347W        W11415  42.932   9.651  12.506
38348W        W11416  41.810  34.105  11.538
38349W        W11417  11.859  31.403  14.485
38350W        W11418  24.551  29.907   2.715
38351W        W11419  10.607  11.794   2.206
38352W        W11420  16.884  37.112  13.979
38353W        W11421  35.275  19.297  12.065
38354W        W11422   5.379  35.250  14.845
38355W        W11423   6.421  32.039  14.802
38356W        W11424  38.144  18.645   2.020
38357W        W11425  44.741   9.389  13.939
38358W        W11426  10.637  22.317   3.329
38359W        W11427  27.141  24.567  11.656
38360W        W11428  42.325   0.054  12.903
38361W        W11429  21.606  33.099  10.522
38362W        W11430  34.856  14.796   1.334
38363W        W11431  18.282  21.971   4.279
38364W        W11432  20.784  10.789  10.696
38365W        W11433  13.264  44.065  11.883
38366W        W11434  33.826  26.257  13.076
38367W        W11435  13.174  44.099  10.409
38368W        W11436  30.138   1.205   2.799
38369W        W11437   2.828   0.452  13.912
38370W        W11438  21.626  16.691  14.492
38371W        W11439  34.816  13.401  14.535
38372W        W11440  20.448  14.672   1.801
38373W        W11441   4.267  25.435   3.740
38374W        W11442  39.198  30.991  11.992
38375W        W11443  18.998  24.590   2.355
38376W        W11444  39.551  20.486   3.638
38377W        W11445  19.123  20.722  12.850
38378W        W11446  25.682   8.640  12.518
38379W        W11447  27.627   9.724   2.421
38380W        W11448   9.665  26.211  13.975
38381W        W11449  35.496  37.441   2.399
38382W        W11450  39.498  29.536   3.692
38383W        W11451  14.869  35.625  14.349
38384W        W11452  31.594   9.224  10.708
38385W        W11453  13.637  30.577   4.095
38386W        W11454  15.098  43.567   3.136
38387W        W11455  30.713  23.688  10.887
38388W        W11456  11.371   6.559  10.539
38389W        W11457   3.826   1.693   1.955
38390W        W11458  16.291  25.830   0.478
38391W        W11459   4.468  20.182   2.691
38392W        W11460  22.637   3.905  14.041
38393W        W11461  29.143   1.324  14.454
38394W        W11462  19.489   1.165   1.823
38395W        W11463  13.295  10.837   2.701
38396W        W11464  44.670  44.926   2.809
38397W        W11465   5.665  35.452   3.666
38398W        W11466  24.097  30.400   0.599
38399W        W11467  41.547  25.088   3.664
38400W        W11468   3.491   6.481   3.166
38401W        W11469  22.019  11.542   2.741
38402W        W11470  43.568  20.219   1.397
38403W        W11471  10.153  20.593  12.044
38404W        W11472  43.271  44.426  14.278
38405W        W11473   0.539   0.794   1.846
38406W        W11474   2.239  16.569   0.170
38407W        W11475  15.043  17.932   0.858
38408W        W11476  18.266  26.812  11.598
38409W        W11477  24.179  38.092   4.523
38410W        W11478   8.074  23.269  10.983
38411W        W11479  30.175   5.154  14.408
38412W        W11480  39.616  30.631  12.510
38413W        W11481  40.290  19.074   1.328
38414W        W11482  10.045  39.895  10.191
38415W        W11483   4.183  31.601   0.352
38416W        W11484   2.037   4.808  11.519
38417W        W11485   5.850  10.606  11.157
38418W        W11486  33.373   7.932   3.522
38419W        W11487  41.753   6.707  11.643
38420W        W11488  20.545  43.394   0.360
38421W        W11489   0.443  24.054   0.915
38422W        W11490  38.887  17.284   4.680
38423W        W11491  17.522   7.949  11.125
38424W        W11492  38.119   1.389   3.611
38425W        W11493  23.200   9.975   3.223
38426W        W11494  29.439  11.703   5.092
38427W        W11495  12.238   0.716  14.643
38428W        W11496   1.386  13.394  14.828
38429W        W11497  17.114   4.144   2.797
38430W        W11498  29.409  31.560   0.375
38431W        W11499   7.270   6.616  12.348
38432W        W11500  11.079  16.060   3.714
38433W        W11501  35.522   7.158  14.190
38434W        W11502  16.768   7.114  14.253
38435W        W11503  26.665  19.298   4.313
38436W        W11504  36.355   1.761   1.098
38437W        W11505   7.174   8.295  14.499
38438W        W11506  19.747   4.832  14.981
38439W        W11507  28.092   3.401  11.239
38440W        W11508   2.506  37.919   3.363
38441W        W11509  11.113  28.144  10.326
38442W        W11510  28.579  44.773   3.794
38443W        W11511  28.272  43.457   1.336
38444W        W11512  43.798  40.076   1.010
38445W        W11513   1.997  34.483   2.761
38446W        W11514  21.201  19.790  12.921
38447W        W11515  34.095  17.806   1.230
38448W        W11516  28.217  20.938   0.039
38449W        W11517  38.641   1.954  14.488
38450W        W11518  39.107  39.650  14.531
38451W        W11519   3.661  10.442   4.214
38452W        W11520  44.231   6.887  12.507
38453W        W11521  26.340  40.335  13.004
38454W        W11522  10.331  29.109   4.009
38455W        W11523  43.238   2.261  11.749
38456W        W11524  27.597  39.466   4.181
38457W        W11525  32.404  21.725   4.649
38458W        W11526  34.582  32.324   0.289
38459W        W11527   8.932  20.694  14.548
38460W        W11528  15.563   3.229   0.452
38461W        W11529  39.793   3.559   2.802
38462W        W11530  23.457  16.650  14.097
38463W        W11531  12.032  19.670  10.499
38464W        W11532  22.539  24.728   0.208
38465W        W11533  22.110  24.464   0.074
38466W        W11534   1.785  42.855   2.307
38467W        W11535  32.658  11.470   3.635
38468W        W11536  26.336  39.431   3.533
38469W        W11537  33.907  33.599   0.854
38470W        W11538  39.905  44.910  13.479
38471W        W11539  41.537  13.514   0.869
38472W        W11540  27.629   9.706  10.221
38473W        W11541  24.587   5.797  11.712
38474W        W11542  29.171  10.517  11.941
38475W        W11543  21.202  27.178  11.824
38476W        W11544  19.146  35.564  13.824
38477W        W11545  25.472  22.584   4.192
38478W        W11546  25.075  38.920   5.019
38479W        W11547   4.643  19.073   1.372
38480W        W11548   0.941   2.275   0.891
38481W        W11549  23.057   0.356  10.474
38482W        W11550  22.625  37.549  13.875
38483W        W11551  15.087  26.933   2.939
38484W        W11552  39.562  22.044  14.489
38485W        W11553   1.910  19.183   0.091
38486W        W11554  23.766  19.205  14.507
38487W        W11555  10.077  36.379   5.021
38488W        W11556  43.046  26.450   3.079
38489W        W11557  38.521   7.603   2.276
38490W        W11558  42.226   1.656   1.237
38491W        W11559  39.352   3.864  14.427
38492W        W11560  23.662  23.794   3.165
38493W        W11561  10.144  40.519   2.864
38494W        W11562   4.457  20.716   1.323
38495W        W11563   8.634  28.659  12.439
38496W        W11564   3.921   9.269  13.473
38497W        W11565   0.148  27.584   2.857
38498W        W11566   5.249  30.946  11.167
38499W        W11567   4.512  41.872   9.883
38500W        W11568  37.712  26.713  10.607
38501W        W11569  10.951   4.048   1.015
38502W        W11570  14.676  22.072   1.168
38503W        W11571  14.886  10.588   2.209
38504W        W11572   3.247  42.079  14.712
38505W        W11573  39.726   4.797   1.510
38506W        W11574  25.070  18.805  11.459
38507W        W11575  35.521  36.853   4.650
38508W        W11576  33.931  25.656  11.703
38509W        W11577   3.445  23.492  12.474
38510W        W11578  27.199  29.464   3.216
38511W        W11579  26.299  26.589  11.448
38512W        W11580  24.490  11.350  12.388
38513W        W11581   4.942   8.940   2.260
38514W        W11582  34.656  24.908   3.414
38515W        W11583   4.130   8.147   3.671
38516W        W11584  29.013   0.883  14.183
38517W        W11585  30.205   8.538  14.895
38518W        W11586   5.474  16.278  14.324
38519W        W11587  28.998  25.196   0.404
38520W        W11588  28.336   6.955   1.823
38521W        W11589  43.036   5.710   2.844
38522W        W11590  28.947  41.002   4.586
38523W        W11591   7.818  23.471   2.641
38524W        W11592  21.680  34.805   3.528
38525W        W11593  25.498  28.597  10.667
38526W        W11594  40.299   0.512  13.830
38527W        W11595  37.418   8.707   2.005
38528W        W11596  29.562  29.508   4.090
38529W        W11597  12.068  38.953   3.258
38530W        W11598  14.088  18.152   0.404
38531W        W11599  41.013   6.108  11.202
38532W        W11600  25.025  37.524   3.771
38533W        W11601  14.822  14.199   3.779
38534W        W11602  25.021  19.302  11.589
38535W        W11603  41.374   9.929   4.027
38536W        W11604  21.162   3.270  10.898
38537W        W11605  30.462  35.375   2.305
38538W        W11606  30.234   4.421   0.481
38539W        W11607  23.463  15.673  14.435
38540W        W11608  24.626  43.353   3.182
38541W        W11609  15.148  15.173   1.308
38542W        W11610   0.276  34.672  12.088
38543W        W11611  11.228  20.296  14.865
38544W        W11612  15.102   4.294   0.949
38545W        W11613  24.441  24.997   3.285
38546W        W11614  32.400  32.700  14.836
38547W        W11615  11.195  10.083  11.034
38548W        W11616  31.700  44.742  11.483
38549W        W11617  41.297  24.074   1.389
38550W        W11618   8.588  13.321  13.271
38551W        W11619   2.265  34.156   1.040
38552W        W11620  25.942   2.766   1.191
38553W        W11621  24.379  16.106   4.326
38554W        W11622  35.071   4.517   2.053
38555W        W11623   8.719  34.763   3.265
38556W        W11624  41.716  29.398   0.822
38557W        W11625  38.393  29.446  10.669
38558W        W11626   6.329  30.009   3.837
38559W        W11627  29.700  33.659   2.325
38560W        W11628   0.862  16.282   1.953
38561W        W11629  23.666   0.880   4.257
38562W        W11630   5.477  30.510   4.186
38563W        W11631   5.715  15.084   4.049
38564W        W11632   8.195  30.548  10.784
38565W        W11633  17.714   6.796  12.489
38566W        W11634  19.810  36.609  11.178
38567W        W11635  20.257  20.852  10.079
38568W        W11636  15.806   1.238  10.691
38569W        W11637  21.514  27.185   3.175
38570W        W11638  20.084  22.681  12.786
38571W        W11639  36.776  14.808   2.364
38572W        W11640  17.705   8.486   0.281
38573W        W11641  43.260  25.960   3.285
38574W        W11642   6.422  18.703   5.119
38575W        W11643  32.056  33.376   1.189
38576W        W11644   1.649  39.174  13.194
38577W        W11645  34.878  40.944   2.475
38578W        W11646  20.743  20.655  11.402
38579W        W11647   6.280  22.373  14.756
38580W        W11648  36.870  21.651   2.450
38581W        W11649  39.824   8.232  12.020
38582W        W11650   2.476  34.921   4.689
38583W        W11651  22.980  34.555   4.333
38584W        W11652  15.658  10.138   4.164
38585W        W11653  43.367  36.662  12.102
38586W        W11654   4.439  19.590  11.584
38587W        W11655  12.712  44.714   1.015
38588W        W11656  41.256  32.261   3.454
38589W        W11657  30.472  10.184   0.467
38590W        W11658  22.047   8.757  11.687
38591W        W11659  43.209   2.011   1.426
38592W        W11660   1.878  18.087  10.684
38593W        W11661  43.787  19.016   4.197
38594W        W11662  34.263   4.260   4.140
38595W        W11663   2.601  36.082   2.129
38596W        W11664  43.763   8.912   2.436
38597W        W11665  40.508  18.008  14.377
38598W        W11666  36.147   3.630   0.736
38599W        W11667  39.569  22.171  12.525
38600W        W11668   1.276   4.184  14.811
38601W        W11669  44.312  10.283   1.635
38602W        W11670  22.190  39.183  13.586
38603W        W11671   2.466  36.433  10.666
38604W        W11672  22.087  32.049   3.081
38605W        W11673  42.357  41.377   4.644
38606W        W11674  25.091  40.346  12.364
38607W        W11675  31.979  32.478   0.813
38608W        W11676   7.922  19.261  11.949
38609W        W11677  42.268  14.338  11.053
38610W        W11678  17.730   7.549  12.055
38611W        W11679  36.418  13.580  14.682
38612W        W11680  24.502  18.282   4.257
38613W        W11681  35.556  16.162  11.241
38614W        W11682   1.443  33.616  13.879
38615W        W11683  36.526  19.131  10.501
38616W        W11684  13.073  37.517  14.397
38617W        W11685  44.364  13.352  14.833
38618W        W11686  44.388   5.919   1.853
38619W        W11687  44.088  15.316   2.771
38620W        W11688   6.800  17.261  10.628
38621W        W11689   5.778   7.937  14.506
38622W        W11690   5.967  42.419  10.614
38623W        W11691   8.477  10.836   2.387
38624W        W11692   0.591  17.833  12.895
38625W        W11693  18.415   3.803   4.839
38626W        W11694  36.078  23.456   2.765
38627W        W11695  38.759  12.530  11.541
38628W        W11696  14.738  10.411   3.701
38629W        W11697  43.451  37.738   5.075
38630W        W11698  33.035  42.914   0.989
38631W        W11699  18.122   7.299   0.780
38632W        W11700  38.987  37.490  10.689
38633W        W11701  20.116  44.012  11.159
38634W        W11702   4.952  17.350  12.155
38635W        W11703  10.790  17.111  10.470
38636W        W11704   1.073   1.918  14.496
38637W        W11705  37.563  18.333  10.264
38638W        W11706  40.178  16.149  12.746
38639W        W11707  20.124   9.942   2.751
38640W        W11708  24.597  12.884   0.854
38641W        W11709   7.705   2.523  12.492
38642W        W11710  33.096  40.493   4.577
38643W        W11711  16.271   2.420  13.556
38644W        W11712  21.464   6.857   4.028
38645W        W11713  41.844  43.470   2.316
38646W        W11714   0.942  23.049  11.599
38647W        W11715  33.591  30.799  14.798
38648W        W11716  43.744   0.721  12.445
38649W        W11717   6.799   6.814   2.325
38650W        W11718   4.243  14.151  11.113
38651W        W11719  39.274   4.168  12.775
38652W        W11720  43.203  29.220  10.249
38653W        W11721   2.317   0.443   4.611
38654W        W11722   4.398  10.080  14.866
38655W        W11723  30.197  14.285   4.284
38656W        W11724  31.965   4.961  13.400
38657W        W11725   7.794  19.708  11.700
38658W        W11726   7.459  30.456   4.914
38659W        W11727  34.043   1.520  13.565
38660W        W11728  34.615  14.816  11.380
38661W        W11729  33.533   5.930  11.571
38662W        W11730   5.106  11.794  13.848
38663W        W11731  29.112  19.614  13.553
38664W        W11732  30.540  13.761   2.677
38665W        W11733  12.394  28.380  12.058
38666W        W11734  25.035  43.255  12.452
38667W        W11735   9.415  39.384   0.870
38668W        W11736  40.290  22.309  14.876
38669W        W11737  10.389  16.992   5.480
38670W        W11738  28.688  28.877  12.067
38671W        W11739  39.237   0.711   1.965
38672W        W11740   2.373   7.231   1.115
38673W        W11741   1.929  29.974  14.604
38674W        W11742  31.400  43.057  14.334
38675W        W11743  15.517  29.167  13.322
38676W        W11744  26.647  22.072   0.906
38677W        W11745   3.922   3.377  11.090
38678W        W11746  15.207  30.996  14.783
38679W        W11747  21.492   3.850   1.318
38680W        W11748  43.441  35.575   3.134
38681W        W11749  26.483  14.217   0.525
38682W        W11750  16.007  20.462   3.229
38683W        W11751  28.583  35.991  14.151
38684W        W11752   2.913  38.479   1.160
38685W        W11753   4.948   6.819  12.572
38686W        W11754  13.573  12.788  12.084
38687W        W11755  12.271  42.988  11.859
38688W        W11756  34.041  24.158  11.285
38689W        W11757   8.070  14.163  10.138
38690W        W11758   8.074   1.914   0.012
38691W        W11759   3.855  37.447   3.471
38692W        W11760   4.917  41.338  11.931
38693W        W11761  15.677   6.281   5.052
38694W        W11762  10.860   5.617  11.942
38695W        W11763  12.752  26.215  12.670
38696W        W11764  10.892  36.057  12.852
38697W        W11765  44.510  41.450  14.649
38698W        W11766  23.445  36.854  14.762
38699W        W11767  14.775   9.156  14.777
38700W        W11768   8.891   4.311   4.755
38701W        W11769  42.530  27.164   4.140
38702W        W11770  27.409  38.937  11.559
38703W        W11771  34.474  21.407   3.851
38704W        W11772  26.337  33.969  14.377
38705W        W11773   8.837  42.740   2.180
38706W        W11774  11.683  34.979  11.869
38707W        W11775   5.499  30.079   3.906
38708W        W11776  12.310   6.653   1.888
38709W        W11777  15.120  13.306  10.570
38710W        W11778  29.128  28.959  13.724
38711W        W11779  31.603  18.037   2.646
38712W        W11780  35.645  34.109   9.990
38713W        W11781  21.808  29.293  12.905
38714W        W11782   2.656  25.333   3.683
38715W        W11783   5.584  41.657   4.144
38716W        W11784  28.607   5.896  12.974
38717W        W11785  39.913  43.524  14.767
38718W        W11786  34.531  20.052   2.766
38719W        W11787  10.154  35.588  13.385
38720W        W11788  36.599  25.031  14.327
38721W        W11789  34.603   6.494   2.692
38722W        W11790  12.124   7.967  12.405
38723W        W11791  33.598  18.973  11.154
38724W        W11792   6.620  33.799   4.324
38725W        W11793  28.581  32.123  11.529
38726W        W11794  44.779  18.096   1.434
38727W        W11795  15.650  34.355  13.830
38728W        W11796   6.716   7.778  12.840
38729W        W11797  15.960   3.853   1.690
38730W        W11798  40.820  41.846   1.891
38731W        W11799  38.064   5.338  13.397
38732W        W11800  39.011  33.655  11.175
38733W        W11801   0.793   3.209  12.566
38734W        W11802   1.798   5.700  12.043
38735W        W11803   6.475   0.950   3.224
38736W        W11804  25.721   9.670   2.215
38737W        W11805  27.838  21.682   0.160
38738W        W11806   2.540  20.270  11.531
38739W        W11807  32.454  21.813  12.798
38740W        W11808  33.396  27.026   2.408
38741W        W11809  44.514  17.820   4.169
38742W        W11810  15.800  25.445  14.220
38743W        W11811  27.348  14.219  12.051
38744W        W11812  13.578  23.697   2.402
38745W        W11813  21.771  26.887   3.515
38746W        W11814  31.346   7.929   0.078
38747W        W11815  23.712   6.764  10.600
38748W        W11816  10.816   1.018  11.879
38749W        W11817   0.074  20.284   1.252
38750W        W11818  39.025  38.648   0.485
38751W        W11819  26.164  37.676   0.008
38752W        W11820  26.259  28.671  11.025
38753W        W11821  38.734  38.136   4.239
38754W        W11822  41.930   4.795  10.363
38755W        W11823   8.966  42.867   4.120
38756W        W11824  42.578  17.681  12.832
38757W        W11825   7.772  11.032   0.780
38758W        W11826  12.249   6.391   0.330
38759W        W11827  16.208  21.197   2.714
38760W        W11828  35.366  23.422  12.571
38761W        W11829   8.961  44.388  11.620
38762W        W11830  26.068  16.005   1.917
38763W        W11831  33.686  21.245   9.991
38764W        W11832  23.208  43.346  12.044
38765W        W11833   2.563  43.034   0.297
38766W        W11834   2.448  21.099  12.100
38767W        W11835  44.190  41.035  10.439
38768W        W11836   7.152  36.456   2.272
38769W        W11837   8.278  28.048   0.557
38770W        W11838  28.890  10.991  13.289
38771W        W11839  31.896  43.970   2.649
38772W        W11840  37.330  10.207  12.088
38773W        W11841  33.344   0.003   0.086
38774W        W11842  10.870  14.880  13.971
38775W        W11843  16.219  36.987  12.692
38776W        W11844  38.690   6.339   0.236
38777W        W11845  31.079   0.417  12.509
38778W        W11846   3.318  10.617   2.628
38779W        W11847  40.776  22.158  13.496
38780W        W11848  37.525  17.578  11.898
38781W        W11849  33.751  27.373   3.686
38782W        W11850  40.929  31.070  13.337
38783W        W11851  32.040   5.991  12.455
38784W        W11852  39.607   5.891   9.826
38785W        W11853  13.770  43.760   0.753
38786W        W11854  21.552  11.202   0.434
38787W        W11855  17.491  37.248   0.400
38788W        W11856  43.367  24.611   0.720
38789W        W11857  13.906   3.910   3.389
38790W        W11858  43.942  31.452   0.550
38791W        W11859  21.790  32.405   3.303
38792W        W11860  11.117  18.814   4.258
38793W        W11861  37.313  39.335  14.758
38794W        W11862   5.146   1.749  10.954
38795W        W11863  37.213  27.465  10.518
38796W        W11864   1.762  36.468  12.505
38797W        W11865  17.595   1.742   1.717
38798W        W11866   4.132   8.185  11.109
38799W        W11867  12.846  19.068  12.745
38800W        W11868  12.585   4.360   3.816
38801W        W11869  31.978  30.071  10.298
38802W        W11870  15.289   9.073   0.275
38803W        W11871  28.608  30.959   4.590
38804W        W11872  20.233  44.314   2.722
38805W        W11873  19.630  44.279  12.981
38806W        W11874  43.845  11.613   3.226
38807W        W11875  42.388  35.894   1.692
38808W        W11876  39.436   0.662  10.701
38809W        W11877  25.610  16.152  13.646
38810W        W11878  10.073   0.407  11.413
38811W        W11879   8.330  16.600  14.161
38812W        W11880  44.035  20.766  12.075
38813W        W11881  16.269  30.140  13.939
38814W        W11882  32.406  24.144   3.216
38815W        W11883  16.185  38.982   2.399
38816W        W11884   7.769  16.649   2.210
38817W        W11885  39.935  43.901   1.181
38818W        W11886  16.107  25.246   1.282
38819W        W11887   5.660  18.653  14.104
38820W        W11888   7.848  29.427  14.516
38821W        W11889   4.658  28.569  11.176
38822W        W11890  31.391  28.559   4.319
38823W        W11891   3.185   0.044   0.267
38824W        W11892   4.658  34.833  11.110
38825W        W11893  15.602  20.367   4.859
38826W        W11894  11.022   1.954   3.286
38827W        W11895  23.905  10.168   0.038
38828W        W11896  43.128   2.202   2.330
38829W        W11897  20.613  36.034   2.991
38830W        W11898  13.132   8.406  11.136
38831W        W11899   5.774  13.767   2.675
38832W        W11900   8.177  43.323   0.256
38833W        W11901  31.360   8.963   2.367
38834W        W11902  12.887   7.192   0.449
38835W        W11903  35.001  33.352  12.042
38836W        W11904  41.418  22.509  12.863
38837W        W11905  10.591  41.497  14.356
38838W        W11906  29.976   5.299  14.861
38839W        W11907  36.583  27.871  12.531
38840W        W11908   9.170  30.438  11.892
38841W        W11909  43.080   2.382  11.274
38842W        W11910  30.049  28.096   0.524
38843W        W11911  34.096  12.796  11.595
38844W        W11912  13.930   4.329  13.405
38845W        W11913  25.041   7.880  12.765
38846W        W11914   6.011   6.644  11.026
38847W        W11915  38.524  16.593   1.953
38848W        W11916   7.253   7.649   0.050
38849W        W11917   6.376  38.089  13.823
38850W        W11918  13.628  11.587  13.737
38851W        W11919  23.673  31.142  11.815
38852W        W11920  23.436  12.104  13.903
38853W        W11921  15.890  43.071  10.299
38854W        W11922  17.195   4.292  10.258
38855W        W11923  17.374  27.838  11.005
38856W        W11924  18.769  23.784   3.187
38857W        W11925  12.557   8.214   4.629
38858W        W11926  25.713  14.128  14.922
38859W        W11927  39.657  23.767  13.227
38860W        W11928  37.386  42.775   4.516
38861W        W11929  37.893   0.333   0.741
38862W        W11930  38.021  32.070   4.601
38863W        W11931   1.738  40.091  13.383
38864W        W11932  42.700  17.229   3.601
38865W        W11933  28.468   6.188  12.535
38866W        W11934   5.172  12.948   3.811
38867W        W11935  22.728  15.235   0.704
38868W        W11936  34.550  24.313   3.183
38869W        W11937  30.156  14.743   4.587
38870W        W11938   8.745  18.224  14.573
38871W        W11939   3.590  26.176  13.076
38872W        W11940  34.929  17.278   4.633
38873W        W11941  32.161   6.645   0.710
38874W        W11942   1.660   2.670   1.399
38875W        W11943  12.269   3.864  13.050
38876W        W11944  23.943  14.704   0.872
38877W        W11945  25.509  26.749  11.084
38878W        W11946   4.774   9.692   1.668
38879W        W11947  44.278  21.690   2.747
38880W        W11948  40.064   3.025   0.258
38881W        W11949  19.839  40.656   4.538
38882W        W11950   3.494  37.111   1.657
38883W        W11951  11.128  31.581  11.556
38884W        W11952  19.806  25.119   0.341
38885W        W11953   0.980  41.263  12.423
38886W        W11954  22.425   0.977   3.962
38887W        W11955  22.703  37.954  11.983
38888W        W11956  19.764   8.216  11.727
38889W        W11957  10.194   8.925   0.055
38890W        W11958  44.530  42.997   4.198
38891W        W11959  25.584  36.955   1.943
38892W        W11960  15.656  33.478  13.975
38893W        W11961   3.512  33.404  10.932
38894W        W11962  32.624  29.092   4.546
38895W        W11963  42.410  25.629   4.561
38896W        W11964   1.602  42.840   4.524
38897W        W11965  43.994  34.004   4.838
38898W        W11966  22.080  21.936  11.519
38899W        W11967  42.847   7.171   0.320
38900W        W11968  16.603  17.262   3.306
38901W        W11969  10.895  14.078  11.388
38902W        W11970  29.771  23.744  14.917
38903W        W11971   3.745  38.554   1.640
38904W        W11972   8.231  32.855   2.390
38905W        W11973  40.718  21.031   2.715
38906W        W11974  40.365  38.589  12.547
38907W        W11975  11.716   2.534   4.526
38908W        W11976  39.512  18.151   1.821
38909W        W11977  38.098  31.595   2.188
38910W        W11978   7.695  42.333  14.925
38911W        W11979   1.836   7.641   0.097
38912W        W11980  12.685  24.067   0.793
38913W        W11981  42.841  34.535  12.462
38914W        W11982  35.088  28.206   0.642
38915W        W11983  10.708  33.341  11.084
38916W        W11984  12.868  14.163   9.847
38917W        W11985  29.819  16.217  14.488
38918W        W11986   1.561  20.131  11.652
38919W        W11987  34.559  34.065   3.725
38920W        W11988  28.079  39.238  14.753
38921W        W11989  32.865  24.104   2.960
38922W        W11990  26.837   5.129  14.891
38923W        W11991  34.538  44.479   2.285
38924W        W11992  22.220  41.925   0.008
38925W        W11993  26.049  34.065  13.009
38926W        W11994  21.054   2.436  11.497
38927W        W11995  41.919   2.468   4.115
38928W        W11996  43.621  43.586  13.316
38929W        W11997  33.932  36.097   4.577
38930W        W11998  19.343  37.369   2.176
38931W        W11999  39.493   8.830  14.818
38932W        W12000  17.365  23.976   1.868
38933W        W12001   6.385  28.404  12.459
38934W        W12002  42.011   5.057  11.710
38935W        W12003  24.176  20.139   0.367
38936W        W12004  30.038  14.229  13.415
38937W        W12005   8.715  42.389   9.994
38938W        W12006  12.803  33.437  14.408
38939W        W12007  26.589  27.086  11.868
38940W        W12008  43.467  20.553  11.466
38941W        W12009  44.356  35.353   0.190
38942W        W12010   9.362   7.798   4.168
38943W        W12011  41.972  24.566  12.563
38944W        W12012  39.094  27.598   3.347
38945W        W12013  19.077  31.542  10.716
38946W        W12014  21.603   2.855   0.970
38947W        W12015   8.647  26.278   2.216
38948W        W12016  27.313   7.357   0.949
38949W        W12017  24.089  24.019   4.141
38950W        W12018   5.711   6.905  10.651
38951W        W12019  33.562  44.282  13.419
38952W        W12020  17.347  12.387   2.323
38953W        W12021  36.401  32.914  14.479
38954W        W12022  30.433   3.816  11.100
38955W        W12023  12.600  37.826   0.285
38956W        W12024  23.199  13.603  13.573
38957W        W12025   2.554   4.847  11.367
38958W        W12026  17.007  13.543   0.419
38959W        W12027   6.514  16.608  12.116
38960W        W12028  12.616  30.127  12.857
38961W        W12029  36.084  35.451  11.487
38962W        W12030   3.388  34.398  14.039
38963W        W12031  21.748  21.580   3.305
38964W        W12032  43.789  23.936  12.600
38965W        W12033  37.600  40.333  10.526
38966W        W12034  31.066  17.555   2.642
38967W        W12035  36.111  15.399  13.479
38968W        W12036  17.475  12.477   2.833
38969W        W12037  34.900  36.387  14.215
38970W        W12038  31.943  24.559   2.685
38971W        W12039  13.386  30.306  10.476
38972W        W12040  20.117  23.104  11.495
38973W        W12041  16.151   1.152  13.086
38974W        W12042   2.248   1.766  12.322
38975W        W12043  40.107  43.080   3.340
38976W        W12044  26.433  34.813   2.416
38977W        W12045  30.697  11.540  14.471
38978W        W12046  25.355   0.737   3.616
38979W        W12047  37.133  42.359   0.306
38980W        W12048  19.712  34.825   3.769
38981W        W12049   0.053  28.916  12.776
38982W        W12050  26.510   4.443  10.600
38983W        W12051  23.552  17.594   0.327
38984W        W12052  12.169   8.215   2.769
38985W        W12053  23.031  36.584  14.107
38986W        W12054  21.244  30.988   5.105
38987W        W12055  20.474  22.532   4.135
38988W        W12056  14.277  35.876   4.807
38989W        W12057   4.038   3.949  13.435
38990W        W12058  41.555  25.858  14.849
38991W        W12059  33.928  38.427   2.800
38992W        W12060  33.889  23.495   1.242
38993W        W12061  14.363   1.438   3.601
38994W        W12062   0.199   4.908   4.646
38995W        W12063  31.601  21.972  12.099
38996W        W12064  10.657  13.256   4.608
38997W        W12065   9.049  33.338  13.016
38998W        W12066  37.322  42.577   0.786
38999W        W12067   1.459  40.956   3.312
39000W        W12068  27.850  37.337   2.017
39001W        W12069  14.673   1.077   3.794
39002W        W12070  38.819  10.317   4.084
39003W        W12071  33.545  20.095  13.642
39004W        W12072  12.395  25.106   0.199
39005W        W12073  26.384  10.563  11.434
39006W        W12074   0.454  23.083  11.846
39007W        W12075  44.875  11.300  10.717
39008W        W12076  25.707  16.214  10.623
39009W        W12077  37.666  36.096  13.528
39010W        W12078   3.026  25.130   3.361
39011W        W12079  26.496  14.795   0.701
39012W        W12080  33.772  38.921   2.777
39013W        W12081  40.993   3.562  12.431
39014W        W12082  12.231   9.204   3.660
39015W        W12083  26.382  14.295  13.483
39016W        W12084  33.999  18.535  13.438
39017W        W12085   9.322  32.571   3.193
39018W        W12086  33.157   5.134   1.441
39019W        W12087  14.399  38.416   1.287
39020W        W12088  42.028  42.478  14.850
39021W        W12089  21.005  44.716   0.097
39022W        W12090  14.685   9.118  12.911
39023W        W12091   2.405  36.225   1.236
39024W        W12092  44.132  26.977   0.900
39025W        W12093  32.045  17.703  12.454
39026W        W12094  31.729  14.203  10.481
39027W        W12095   8.729  28.402  11.581
39028W        W12096  29.767  14.732   2.337
39029W        W12097  27.969  16.977   4.793
39030W        W12098  20.214  44.029  13.912
39031W        W12099  26.694  14.213  13.927
39032W        W12100  16.576  30.055   1.456
39033W        W12101  34.553  32.190   1.879
39034W        W12102   0.925  40.595   4.837
39035W        W12103  26.811  10.231  14.474
39036W        W12104  14.688  39.644   0.495
39037W        W12105  22.268  22.679  11.958
39038W        W12106   0.004   3.638  12.605
39039W        W12107  27.677  16.595   4.632
39040W        W12108  36.313  41.348  11.484
39041W        W12109  10.592  25.020  14.759
39042W        W12110   2.258  25.551   1.892
39043W        W12111   3.718  38.912  14.771
39044W        W12112   2.153  44.795  12.605
39045W        W12113  24.206   7.327  13.741
39046W        W12114  13.324   6.793   3.157
39047W        W12115  20.593  11.917   3.778
39048W        W12116  37.871  17.515  13.928
39049W        W12117  36.868  25.404  11.182
39050W        W12118   7.387   2.718  14.928
39051W        W12119  28.667   9.389   1.882
39052W        W12120   4.495   5.472   3.356
39053W        W12121  23.713  20.118   4.626
39054W        W12122  25.694  42.285   1.237
39055W        W12123  20.686   3.394   4.086
39056W        W12124  10.548   8.816   1.435
39057W        W12125  27.271   9.821   9.840
39058W        W12126   4.170  18.068  14.508
39059W        W12127  35.003  37.124  14.413
39060W        W12128  17.831  34.766   3.166
39061W        W12129   0.821  11.854  13.409
39062W        W12130  20.649  26.565  11.395
39063W        W12131  36.322  31.402  13.387
39064W        W12132  33.468  29.397  11.566
39065W        W12133   8.302  33.108   1.907
39066W        W12134   9.368  31.976  12.980
39067W        W12135  21.013  14.609  10.479
39068W        W12136   2.538  16.716   0.552
39069W        W12137  36.924  40.404  13.087
39070W        W12138   4.416  34.886   2.782
39071W        W12139  37.796  31.612   4.564
39072W        W12140  14.120  29.676   1.428
39073W        W12141  24.690  17.109  11.695
39074W        W12142  23.057  21.475   3.558
39075W        W12143  23.542  43.388  14.859
39076W        W12144  12.737  36.807  10.423
39077W        W12145  26.522   2.773  13.515
39078W        W12146  36.085  40.498  11.621
39079W        W12147  38.027  41.019  13.392
39080W        W12148  37.993  42.287   2.955
39081W        W12149  23.684  41.359   4.086
39082W        W12150  21.382  10.286  10.042
39083W        W12151  42.101   9.293  12.723
39084W        W12152  22.694  41.926   4.614
39085W        W12153  17.373  26.554   2.771
39086W        W12154  30.879  23.161  10.933
39087W        W12155  43.671   7.386  11.453
39088W        W12156  15.791  20.075   1.178
39089W        W12157   6.189  43.320  10.265
39090W        W12158  32.479  39.142  14.014
39091W        W12159  43.749  40.381   3.242
39092W        W12160  25.263  13.255  10.693
39093W        W12161  26.026  17.333  14.497
39094W        W12162  21.150   5.308  14.799
39095W        W12163  17.227  35.861  12.422
39096W        W12164   9.134   8.273  14.505
39097W        W12165  41.603   9.010  14.072
39098W        W12166  30.176   5.869   1.292
39099W        W12167  24.674  15.252  10.992
39100W        W12168  17.938  36.858  12.962
39101W        W12169  29.371  36.980  13.102
39102W        W12170  44.155  10.017  13.376
39103W        W12171   0.958  15.152   4.750
39104W        W12172  27.189  20.866  11.899
39105W        W12173  42.959  42.238  10.562
39106W        W12174   2.113  10.362  12.450
39107W        W12175  38.507  11.468  11.087
39108W        W12176   9.348  14.673  14.363
39109W        W12177  19.859  33.111   3.275
39110W        W12178  22.105  26.551   4.522
39111W        W12179   2.854  19.180   3.675
39112W        W12180  32.941  13.494   4.255
39113W        W12181  30.058   9.034   1.647
39114W        W12182  28.130  13.404  12.035
39115W        W12183  12.143  32.597   0.093
39116W        W12184  18.693   8.888  13.829
39117W        W12185  19.238  17.808   0.178
39118W        W12186  23.739  37.547   0.169
39119W        W12187  19.747   6.490   2.225
39120W        W12188  21.204  37.965   3.161
39121W        W12189  33.609  25.639  11.308
39122W        W12190  38.489  13.770   3.167
39123W        W12191  19.310   1.967  14.480
39124W        W12192  25.607  30.143   4.041
39125W        W12193  19.141  16.623   3.416
39126W        W12194   1.190  12.843   2.784
39127W        W12195   2.275   8.690   2.330
39128W        W12196  36.774  32.699   3.106
39129W        W12197  21.700   5.687  12.001
39130W        W12198  37.269  37.408   4.561
39131W        W12199  28.174   5.998  13.936
39132W        W12200   0.822   8.822   2.745
39133W        W12201  33.883  17.537  10.632
39134W        W12202  42.083  15.645   3.686
39135W        W12203  37.384   4.337   3.217
39136W        W12204   8.770  16.116   1.971
39137W        W12205  12.751  44.887   2.427
39138W        W12206  38.297  34.008   4.406
39139W        W12207  27.193  30.214   3.538
39140W        W12208   9.901  23.190   1.497
39141W        W12209  11.886  10.421   2.393
39142W        W12210  38.057  34.588  14.616
39143W        W12211   3.822  22.622  13.817
39144W        W12212   5.786  38.846   4.917
39145W        W12213  12.258  16.625  10.588
39146W        W12214  22.133  38.518  14.912
39147W        W12215  21.754  40.847   3.546
39148W        W12216  37.398  26.567   1.272
39149W        W12217  40.963  30.920   0.011
39150W        W12218  40.726  15.212  13.468
39151W        W12219  40.765  37.011   1.729
39152W        W12220  29.483  26.179   2.783
39153W        W12221   4.015  43.541  11.886
39154W        W12222   6.829  38.381  12.892
39155W        W12223  24.219  15.950  12.760
39156W        W12224  44.805   7.266  14.299
39157W        W12225   0.387   7.776  12.486
39158W        W12226   2.202  24.924   2.217
39159W        W12227  23.597  22.560   4.359
39160W        W12228  25.585  41.270   0.446
39161W        W12229   5.659  20.766   1.823
39162W        W12230   6.819  41.139   1.652
39163W        W12231  18.554  40.375   3.667
39164W        W12232  23.984  38.242  11.104
39165W        W12233  21.625  44.462   4.159
39166W        W12234  19.014   3.279   5.059
39167W        W12235  32.028   8.503   3.648
39168W        W12236  29.585  24.023  13.520
39169W        W12237   0.907  14.771  14.149
39170W        W12238  21.139  38.307   3.646
39171W        W12239  12.326  38.799   2.360
39172W        W12240  21.204  28.220   1.742
39173W        W12241  22.783  28.568   4.557
39174W        W12242   6.401  24.742   0.428
39175W        W12243  18.553  32.541   3.207
39176W        W12244   3.915  38.840  12.124
39177W        W12245  41.958  39.577   3.786
39178W        W12246  18.052  39.929   2.350
39179W        W12247  17.369  38.482  12.894
39180W        W12248  19.833  15.865   1.405
39181W        W12249  38.943  42.332  12.971
39182W        W12250  21.973   7.905   0.855
39183W        W12251  13.855  38.487   2.772
39184W        W12252  15.207  12.547  13.378
39185W        W12253  23.465  31.549   2.713
39186W        W12254   5.129  21.998   3.207
39187W        W12255  23.082  33.846  12.896
39188W        W12256  25.738  11.814   4.525
39189W        W12257   7.747   2.495  14.543
39190W        W12258   6.172   2.693   1.801
39191W        W12259   7.923  34.052   4.675
39192W        W12260  29.441  37.356  11.189
39193W        W12261  28.589   2.244   2.962
39194W        W12262  31.665  35.513   4.796
39195W        W12263   5.416   1.496  12.931
39196W        W12264  30.146  41.845   1.383
39197W        W12265  24.756  14.662   1.432
39198W        W12266  24.700   1.778  10.641
39199W        W12267  36.133   9.706  11.422
39200W        W12268  37.588  17.196   4.569
39201W        W12269  24.071  43.870   3.663
39202W        W12270  18.718  43.941   0.583
39203W        W12271  37.490   0.884  13.111
39204W        W12272  29.777  23.896  10.840
39205W        W12273   4.017   8.124   1.417
39206W        W12274  43.540   7.815  12.715
39207W        W12275   4.733  24.751   4.928
39208W        W12276   0.439   3.853  13.442
39209W        W12277  37.330  30.547  14.862
39210W        W12278  30.563  42.496   1.152
39211W        W12279  20.211   5.562  10.981
39212W        W12280  15.623  26.644   4.161
39213W        W12281  16.416  41.571  13.329
39214W        W12282  25.061   6.269   2.897
39215W        W12283  11.716  30.226   4.130
39216W        W12284  20.608  35.497   0.467
39217W        W12285  23.745  27.999   0.906
39218W        W12286  13.382  25.081   3.168
39219W        W12287  23.029  29.709  12.017
39220W        W12288  31.988   9.209  12.988
39221W        W12289  17.517  43.434  11.656
39222W        W12290   0.178  24.025  14.031
39223W        W12291  25.554  29.164  10.384
39224W        W12292  39.101   3.400   2.359
39225W        W12293  19.794   8.621   2.844
39226W        W12294  29.761  15.464  13.996
39227W        W12295  26.372   6.273  14.470
39228W        W12296   2.367   2.389   1.902
39229W        W12297  33.664  20.594  11.221
39230W        W12298   7.440  41.919   1.216
39231W        W12299  20.554  11.602  13.158
39232W        W12300  15.587   8.622   0.242
39233W        W12301  12.270  16.704  14.719
39234W        W12302  34.942  28.519   1.983
39235W        W12303  37.553  38.590  14.498
39236W        W12304  43.368   1.929   3.594
39237W        W12305  26.009   7.797  12.993
39238W        W12306  10.618  25.099   2.149
39239W        W12307  37.215  34.859  12.946
39240W        W12308  23.498  29.088  10.744
39241W        W12309  11.151   3.880   4.416
39242W        W12310  42.887  32.953   0.278
39243W        W12311   3.530   3.650  11.595
39244W        W12312  43.585  13.197  13.353
39245W        W12313  23.650  29.129  13.625
39246W        W12314   7.833  30.614  14.867
39247W        W12315  16.993  15.359   2.841
39248W        W12316   3.644  32.451  14.900
39249W        W12317  32.203  34.562   4.113
39250W        W12318  30.408  23.155   2.817
39251W        W12319  31.375   0.417   2.218
39252W        W12320  17.576  44.299   4.526
39253W        W12321  18.369  20.167   3.223
39254W        W12322   2.321  30.946  10.722
39255W        W12323   0.528  22.547  13.563
39256W        W12324  14.124  36.180  13.359
39257W        W12325  15.678  30.935   4.725
39258W        W12326  16.358  11.996  12.380
39259W        W12327  17.158  19.574   1.732
39260W        W12328  37.093  15.583  13.485
39261W        W12329  17.591  12.609   3.317
39262W        W12330  20.430  17.184  10.754
39263W        W12331   9.880   5.829  10.461
39264W        W12332  11.376   4.651  14.309
39265W        W12333  11.887  35.797   1.272
39266W        W12334  21.637  15.104  13.127
39267W        W12335  13.563  43.710  11.120
39268W        W12336  21.731  33.453   4.305
39269W        W12337  11.192  19.361  11.239
39270W        W12338  31.438  24.896   3.425
39271W        W12339   6.854  36.637   4.097
39272W        W12340  11.105  23.423  12.759
39273W        W12341  23.696  12.613   3.205
39274W        W12342  24.717  29.685   4.118
39275W        W12343   6.658  33.976   3.333
39276W        W12344  16.304  43.326   0.318
39277W        W12345   6.260  13.749   1.926
39278W        W12346  11.147   1.415  12.009
39279W        W12347  19.533  16.353   3.712
39280W        W12348  29.665  11.376   0.333
39281W        W12349  16.509   5.431  13.248
39282W        W12350  17.096  17.154   2.895
39283W        W12351  44.712  33.295  13.504
39284W        W12352  41.778  40.404   3.782
39285W        W12353  10.300  14.357   3.707
39286W        W12354  42.862  38.053  11.691
39287W        W12355  41.721  28.168   2.502
39288W        W12356  11.171  37.860   2.380
39289W        W12357  41.257  31.617  12.544
39290W        W12358  13.583  26.134  12.008
39291W        W12359  28.506  38.048  12.516
39292W        W12360   1.704  20.228   2.356
39293W        W12361   0.859  11.846  13.954
39294W        W12362  31.391   7.971  11.534
39295W        W12363  37.305  20.547   0.692
39296W        W12364  25.171  38.418   1.958
39297W        W12365  38.094  19.756  13.600
39298W        W12366  14.561  36.371   4.221
39299W        W12367  11.342  22.124   2.112
39300W        W12368   7.739   8.121   0.965
39301W        W12369  16.200   7.919  14.294
39302W        W12370  26.689  44.324   0.640
39303W        W12371  35.885   7.851  10.389
39304W        W12372   0.528  38.937  11.526
39305W        W12373  43.483  38.889  11.584
39306W        W12374   6.307  32.772   1.861
39307W        W12375  40.263   3.396  14.949
39308W        W12376  39.831  14.424  12.867
39309W        W12377  36.875  24.967  10.920
39310W        W12378  15.010   3.387  11.933
39311W        W12379  19.642   4.800  13.025
39312W        W12380   6.686  18.413  12.114
39313W        W12381  32.887   1.796   3.172
39314W        W12382  38.063  33.076  13.800
39315W        W12383  15.275  35.506  13.556
39316W        W12384  34.336   9.247  14.793
39317W        W12385  25.185   9.937  13.507
39318W        W12386  18.652  21.015  11.444
39319W        W12387  16.694  26.430   3.297
39320W        W12388  17.727  30.724  13.423
39321W        W12389  22.838  36.434   1.905
39322W        W12390   9.708   8.934   2.023
39323W        W12391  28.087   8.285   3.084
39324W        W12392  13.457  37.807   0.700
39325W        W12393  30.749   2.845  14.276
39326W        W12394  26.906  17.724   4.557
39327W        W12395  41.088  30.660   2.795
39328W        W12396  18.536  16.843  13.110
39329W        W12397   7.470  25.652   2.759
39330W        W12398  22.292   5.688  14.383
39331W        W12399  10.121  31.277  12.946
39332W        W12400  10.702  34.389  14.352
39333W        W12401  26.445  23.781  12.191
39334W        W12402  22.056  19.241   4.022
39335W        W12403  31.196  40.338  10.595
39336W        W12404  39.532  35.020   4.273
39337W        W12405   5.674   1.072   4.207
39338W        W12406   9.886  14.309   0.933
39339W        W12407  43.572  30.617  11.135
39340W        W12408  39.069  27.439  14.385
39341W        W12409  39.645   3.925  11.086
39342W        W12410   4.796  38.869  12.662
39343W        W12411  20.537  43.776  12.492
39344W        W12412  38.932   0.380  13.681
39345W        W12413  34.880  10.794  11.331
39346W        W12414  30.784  13.828  10.765
39347W        W12415  12.541  10.048   1.880
39348W        W12416  17.979  38.592  14.165
39349W        W12417  32.129  33.599  13.393
39350W        W12418  10.141  37.783   4.685
39351W        W12419   5.342  18.150  14.031
39352W        W12420  25.656  32.886   1.863
39353W        W12421  21.482  10.878   4.712
39354W        W12422  20.587  36.562   3.073
39355W        W12423  41.048   7.609  11.153
39356W        W12424  22.809  25.808  13.913
39357W        W12425  43.932  35.094  14.377
39358W        W12426   6.472  21.172   1.830
39359W        W12427  28.585  42.571  10.678
39360W        W12428  38.499   6.607   0.682
39361W        W12429  43.292   4.701   4.647
39362W        W12430  15.321   1.308   1.141
39363W        W12431  17.284  13.619   3.162
39364W        W12432  18.529   8.820   0.830
39365W        W12433  32.965  30.918  11.848
39366W        W12434  27.420  43.794   1.522
39367W        W12435  22.981   4.874  12.492
39368W        W12436  39.033   0.033  13.307
39369W        W12437  20.473  12.387   0.898
39370W        W12438   9.143   3.483   2.307
39371W        W12439  42.497  23.851  10.782
39372W        W12440  44.530  42.274  14.916
39373W        W12441   5.686  26.531  14.884
39374W        W12442  32.439  21.970  11.485
39375W        W12443   5.468  21.127  11.015
39376W        W12444   2.307   7.884  12.530
39377W        W12445  13.896  16.507   3.622
39378W        W12446  17.005   5.997  11.661
39379W        W12447   2.949   7.351   2.425
39380W        W12448  32.073  44.280  12.036
39381W        W12449   7.181   6.865  13.418
39382W        W12450  38.886  36.051   1.838
39383W        W12451   7.840  40.678   1.475
39384W        W12452  38.036  30.461  11.132
39385W        W12453   5.322  37.912  10.601
39386W        W12454  28.398  37.982   0.502
39387W        W12455   0.668  11.241   2.931
39388W        W12456   1.964  28.766   1.716
39389W        W12457  43.236  27.107   4.631
39390W        W12458  26.987  41.473   3.529
39391W        W12459  28.993   1.230  11.893
39392W        W12460  21.715  23.156   1.506
39393W        W12461   4.347  22.649  11.560
39394W        W12462  44.189  31.528   3.590
39395W        W12463  39.066  22.501  10.654
39396W        W12464   6.661  27.965  12.444
39397W        W12465  18.392  44.919  11.153
39398W        W12466  36.488  27.944   9.955
39399W        W12467  41.562   0.248   2.853
39400W        W12468  12.351   0.269   1.597
39401W        W12469  41.979  13.959  12.973
39402W        W12470   4.722  33.630  10.099
39403W        W12471  29.602   6.326   2.306
39404W        W12472  27.598  20.166  13.957
39405W        W12473  24.158  33.647   1.361
39406W        W12474   9.599  23.641   2.230
39407W        W12475  41.017   9.245   3.133
39408W        W12476  41.123  19.230   1.545
39409W        W12477  37.011   2.947   0.122
39410W        W12478  18.268  27.911   3.830
39411W        W12479   3.845   1.183  14.327
39412W        W12480  20.784  37.179   2.830
39413W        W12481   3.426  44.778  11.151
39414W        W12482  29.154   4.451   1.250
39415W        W12483  44.786  32.575  13.829
39416W        W12484  16.246  14.284   2.866
39417W        W12485   7.381   7.178   2.081
39418W        W12486   2.448  33.781  10.215
39419W        W12487  22.730  17.070  10.189
39420W        W12488  32.010  25.970   4.709
39421W        W12489  40.546  21.527  12.003
39422W        W12490  25.262  39.435  13.875
39423W        W12491  23.483  13.542  14.427
39424W        W12492  12.183   0.779  10.654
39425W        W12493  14.676  14.345   0.343
39426W        W12494  22.123   1.463   4.818
39427W        W12495  44.418   4.816  12.597
39428W        W12496  25.895  14.122   4.667
39429W        W12497  42.826  15.187   2.321
39430W        W12498   9.698  10.869   0.910
39431W        W12499  15.513  13.885  13.098
39432W        W12500  38.736   1.727  13.564
39433W        W12501  19.360  17.044   3.204
39434W        W12502  35.982  28.331  14.836
39435W        W12503  24.723   5.218  14.368
39436W        W12504   4.827  23.433  12.136
39437W        W12505  20.203  19.242  11.441
39438W        W12506  15.419  41.549  12.244
39439W        W12507  26.136  36.548   1.190
39440W        W12508  17.029  17.074  11.052
39441W        W12509   4.534   6.226  13.868
39442W        W12510   4.508  14.147   0.804
39443W        W12511   0.197  21.770  11.111
39444W        W12512   6.407   6.882  12.280
39445W        W12513   9.689  16.760  12.894
39446W        W12514  34.288  16.771  12.803
39447W        W12515  15.292  31.745   1.831
39448W        W12516   7.883  25.401   1.808
39449W        W12517  36.714   0.477  13.548
39450W        W12518  37.588  25.883   2.299
39451W        W12519   1.950  39.543  14.522
39452W        W12520  11.741  43.394  11.889
39453W        W12521   3.731   7.879   2.253
39454W        W12522  25.189   5.246   1.771
39455W        W12523  21.686  40.865   0.226
39456W        W12524  23.125   8.873  14.881
39457W        W12525  37.521  15.662   1.471
39458W        W12526  12.074  32.901   3.708
39459W        W12527  24.589  25.806   2.806
39460W        W12528   0.011  34.160  13.931
39461W        W12529  30.670   1.237   4.369
39462W        W12530   6.820  25.419   3.162
39463W        W12531  19.561  12.671   2.136
39464W        W12532   5.415   7.938   1.914
39465W        W12533  24.288  22.653   0.910
39466W        W12534  12.342  13.555  11.417
39467W        W12535  14.205   5.194   4.520
39468W        W12536  31.189  26.526  14.801
39469W        W12537   8.850  28.238   1.412
39470W        W12538  40.258  33.606  11.581
39471W        W12539  12.175  28.425   3.511
39472W        W12540  19.898  40.042   4.188
39473W        W12541   3.794   5.905   2.280
39474W        W12542  10.486  25.617  12.466
39475W        W12543  13.135  21.270   2.139
39476W        W12544  22.297  26.002  13.986
39477W        W12545  27.187  23.269   4.254
39478W        W12546  11.412   3.291  10.667
39479W        W12547  30.358  30.960   1.243
39480W        W12548  19.955  30.739   0.328
39481W        W12549  20.977  38.384  14.489
39482W        W12550   3.757  28.942  11.978
39483W        W12551  43.565  16.947  12.593
39484W        W12552  35.623  24.071  13.334
39485W        W12553  14.630  25.637  14.324
39486W        W12554  14.456  18.761   1.750
39487W        W12555  38.857  44.543   4.614
39488W        W12556  21.605   8.348  10.613
39489W        W12557  29.518  36.355  10.543
39490W        W12558  29.230  44.012   0.371
39491W        W12559   9.840  15.422   3.004
39492W        W12560  41.775   8.175  14.563
39493W        W12561  25.025  25.294   4.580
39494W        W12562   0.902  44.832   0.013
39495W        W12563  17.939  37.897  11.528
39496W        W12564   4.027   2.507  13.918
39497W        W12565   0.177  20.116  13.458
39498W        W12566  15.190  18.206   1.418
39499W        W12567  27.699  11.359  13.885
39500W        W12568  40.837  10.769   2.399
39501W        W12569  16.097  13.869   3.380
39502W        W12570   6.184  35.502  12.821
39503W        W12571   7.381  33.724  13.307
39504W        W12572  41.457   0.050   0.445
39505W        W12573   0.266  21.670   4.514
39506W        W12574  35.142  15.841   1.284
39507W        W12575  23.918  38.378   1.363
39508W        W12576  41.929  20.761   0.020
39509W        W12577  14.280   4.372  14.253
39510W        W12578  34.368  32.328   0.758
39511W        W12579   5.360  11.798  13.397
39512W        W12580  17.847  43.195   2.757
39513W        W12581  10.646  43.065  11.178
39514W        W12582  43.028   6.202  13.282
39515W        W12583  40.365  44.369  11.118
39516W        W12584  30.535  25.044  13.070
39517W        W12585  31.512  40.908  11.470
39518W        W12586  29.256   6.780  11.156
39519W        W12587  41.235   5.169  12.870
39520W        W12588  32.107  10.342  12.181
39521W        W12589   3.267   9.618  14.415
39522W        W12590  32.536  11.625  14.504
39523W        W12591  31.508  27.111  11.948
39524W        W12592  41.954  38.546  14.345
39525W        W12593  39.276  43.258  12.408
39526W        W12594   5.140  34.989  12.051
39527W        W12595  42.462   1.515  10.683
39528W        W12596   4.371   7.124  13.945
39529W        W12597  42.461   2.491  12.978
39530W        W12598  41.527  26.137  11.183
39531W        W12599  44.059   1.576   1.517
39532W        W12600  39.595  34.124  12.352
39533W        W12601  34.590  24.148  14.375
39534W        W12602   7.414  36.105  14.741
39535W        W12603  20.518  30.995   4.108
39536W        W12604  34.117  18.670   3.615
39537W        W12605  22.976   1.508  11.182
39538W        W12606   5.083  17.716   4.310
39539W        W12607  32.499  28.587   1.420
39540W        W12608   7.492   1.772  12.445
39541W        W12609  14.421  39.824   0.054
39542W        W12610   0.747  16.640  10.531
39543W        W12611  35.603  29.087  14.481
39544W        W12612   3.254   3.644   2.225
39545W        W12613  42.544  34.475   0.028
39546W        W12614  13.341  13.849  13.565
39547W        W12615   5.199  19.047  14.925
39548W        W12616  20.759  40.410  13.532
39549W        W12617  17.312   5.248  11.087
39550W        W12618   4.559  32.570   1.433
39551W        W12619  28.877   9.883  12.566
39552W        W12620  12.220  39.003   1.540
39553W        W12621  16.750  33.639   2.126
39554W        W12622   9.677  19.077  11.049
39555W        W12623  32.052   5.476  13.416
39556W        W12624  12.181  13.187   4.292
39557W        W12625  26.072   7.389   4.720
39558W        W12626  23.697  23.186   4.487
39559W        W12627  42.904  33.910   3.209
39560W        W12628  19.602  20.596   2.588
39561W        W12629   6.710   9.257   4.412
39562W        W12630   5.317  37.986  14.970
39563W        W12631  18.257  36.029   2.875
39564W        W12632  36.377   0.360   2.605
39565W        W12633  30.663  38.570   2.322
39566W        W12634  21.654   7.715  12.434
39567W        W12635  32.484  23.306  14.911
39568W        W12636  11.251  37.026  10.913
39569W        W12637   1.811  31.378  13.034
39570W        W12638   6.087  25.010  12.975
39571W        W12639  44.881  41.277  14.340
39572W        W12640  39.251  15.873  12.811
39573W        W12641  27.167  31.527  14.761
39574W        W12642  24.241  12.389   3.661
39575W        W12643  23.924  29.447   3.756
39576W        W12644  21.747  30.466  13.853
39577W        W12645  28.023   0.784   4.656
39578W        W12646  44.253  25.653   4.045
39579W        W12647  25.100   9.744  13.975
39580W        W12648  29.711   6.247  14.903
39581W        W12649   4.627   6.485   4.568
39582W        W12650  11.689  18.584  14.313
39583W        W12651  21.568  31.952   3.177
39584W        W12652  32.845  38.546   1.265
39585W        W12653  43.891   3.402   2.148
39586W        W12654  43.129  21.060   3.043
39587W        W12655  42.351   2.421   1.833
39588W        W12656  43.456   0.262  10.733
39589W        W12657  15.887  22.261  11.240
39590W        W12658  28.440  26.026  13.006
39591W        W12659  41.389   7.911  12.548
39592W        W12660  16.057  14.652   1.987
39593W        W12661  44.961  19.279   4.976
39594W        W12662   4.892   9.064  14.270
39595W        W12663  38.347  41.321  12.071
39596W        W12664  12.088  29.018   4.427
39597W        W12665  25.469  17.542  12.514
39598W        W12666   2.134  32.161   0.985
39599W        W12667  18.024  39.447   0.750
39600W        W12668   8.956  40.540  14.793
39601W        W12669   6.912  27.464  10.642
39602W        W12670  41.832  36.115   3.102
39603W        W12671   6.897  44.823  11.972
39604W        W12672  23.179  18.054   3.105
39605W        W12673   4.458  10.696   2.204
39606W        W12674   2.820  37.044  12.588
39607W        W12675  24.077   4.854  13.430
39608W        W12676  11.339  31.458   0.471
39609W        W12677  21.655  33.103   2.216
39610W        W12678  40.386  43.273   0.614
39611W        W12679  17.130  38.004  11.940
39612W        W12680  30.160   2.365  13.502
39613W        W12681  29.375  28.677   1.306
39614W        W12682  34.863  43.124   4.513
39615W        W12683  25.030  24.446   1.928
39616W        W12684  21.633  16.728   3.303
39617W        W12685   9.801   5.265   4.629
39618W        W12686   3.758  29.728   1.423
39619W        W12687  41.883  21.994  13.500
39620W        W12688  21.062  16.217  12.402
39621W        W12689   9.787  18.351   0.821
39622W        W12690  43.113  29.590  12.420
39623W        W12691   7.764  20.522  11.065
39624W        W12692   8.737  22.317  12.353
39625W        W12693  12.783  39.056   2.265
39626W        W12694  39.464   6.844  12.356
39627W        W12695  34.826   6.272  10.319
39628W        W12696   2.464  43.003  14.559
39629W        W12697  43.519  29.524   2.182
39630W        W12698   9.598  44.855   3.996
39631W        W12699  42.299  27.170   4.606
39632W        W12700  20.236   1.922   4.571
39633W        W12701  30.006  23.437  10.984
39634W        W12702   0.364  29.687   0.356
39635W        W12703  34.513   5.361  12.181
39636W        W12704  42.870  18.685  14.808
39637W        W12705  44.456   2.673   4.843
39638W        W12706  26.442  25.070   5.086
39639W        W12707   2.543  18.150  13.588
39640W        W12708  25.778   5.768   3.667
39641W        W12709  39.202   0.871   4.101
39642W        W12710  23.176  15.511  13.525
39643W        W12711  23.228  32.508   2.259
39644W        W12712  15.266  25.461   4.155
39645W        W12713  22.965   1.694  12.093
39646W        W12714  19.213  15.128  12.348
39647W        W12715  27.010   5.309  13.984
39648W        W12716   4.684   9.441   1.221
39649W        W12717  38.478   2.283  12.786
39650W        W12718  31.804  20.055   0.263
39651W        W12719  27.094  31.370   0.637
39652W        W12720  22.049  20.220  13.798
39653W        W12721  38.291   8.240   1.804
39654W        W12722  39.018  34.049   3.416
39655W        W12723  17.195  31.486   4.457
39656W        W12724  38.559  24.337  11.358
39657W        W12725  29.461   1.021   4.682
39658W        W12726  44.857   3.150   5.068
39659W        W12727  12.269  42.340   4.565
39660W        W12728  21.657  29.512   2.699
39661W        W12729  16.817  21.280   1.644
39662W        W12730   1.943  32.135  12.798
39663W        W12731   3.677  26.677  14.324
39664W        W12732   5.722   2.391  13.464
39665W        W12733  10.690  23.950  13.412
39666W        W12734  12.510  44.910  12.057
39667W        W12735  35.439  13.791  12.950
39668W        W12736  25.405  42.891   3.796
39669W        W12737   3.866   3.881   4.871
39670W        W12738  38.036  38.857  14.524
39671W        W12739  13.712  25.813   3.647
39672W        W12740  32.647  42.844  11.990
39673W        W12741  16.324  20.787   1.290
39674W        W12742  39.843  30.396   3.206
39675W        W12743   7.308   1.269   2.165
39676W        W12744   3.114  41.901   1.034
39677W        W12745  39.400  42.061  12.971
39678W        W12746  38.577  32.507  11.862
39679W        W12747  32.923   6.762  11.099
39680W        W12748   8.973  43.791   3.227
39681W        W12749  14.743   5.711  12.577
39682W        W12750  16.583  23.898   3.188
39683W        W12751  13.216  39.866  14.409
39684W        W12752  25.019  39.027  14.729
39685W        W12753   1.498   3.445  14.050
39686W        W12754  35.077  26.652   4.267
39687W        W12755  32.025  34.028   4.918
39688W        W12756  29.946  28.850   4.892
39689W        W12757  14.904  33.035   3.264
39690W        W12758  38.959   8.960  13.981
39691W        W12759  36.757   2.051  12.026
39692W        W12760  23.729  15.896  12.563
39693W        W12761  31.590  35.105   2.708
39694W        W12762  25.632  37.466  10.017
39695W        W12763  31.159  11.774   1.616
39696W        W12764  40.053  29.958  13.728
39697W        W12765  35.891  15.536   1.912
39698W        W12766   5.125  26.202  14.326
39699W        W12767   4.660  21.228  12.942
39700W        W12768  43.210   1.042  12.765
39701W        W12769   8.987  32.343   1.782
39702W        W12770   8.289  29.923   3.854
39703W        W12771   3.862   6.325   4.891
39704W        W12772  43.017  23.311   3.256
39705W        W12773  26.059  37.556   2.303
39706W        W12774  29.917  31.641  12.977
39707W        W12775  31.172   6.072   2.780
39708W        W12776  21.117  31.570  14.182
39709W        W12777  16.532  21.397  12.615
39710W        W12778  21.702  16.707   4.225
39711W        W12779   5.933   2.639  13.866
39712W        W12780  20.264  26.731   3.239
39713W        W12781  19.993  29.206  13.891
39714W        W12782   1.410   9.671  14.326
39715W        W12783  20.915  35.952   3.885
39716W        W12784  23.174  26.093   3.869
39717W        W12785  17.119   3.143   0.947
39718W        W12786  10.702  29.155  11.840
39719W        W12787  40.045  29.177  10.571
39720W        W12788   9.133  14.464   0.421
39721W        W12789   5.422  37.743  12.357
39722W        W12790  23.711  30.030   3.678
39723W        W12791  31.034  23.008  11.403
39724W        W12792  33.057  24.460   4.264
39725W        W12793  16.046  27.663   4.091
39726W        W12794  42.450  23.027   4.910
39727W        W12795  13.338  31.860   1.738
39728W        W12796  41.741  39.409   0.747
39729W        W12797   2.374  17.748  13.875
39730W        W12798  18.523   9.759   4.204
39731W        W12799  39.538  26.930   3.965
39732W        W12800   8.772  22.010   1.877
39733W        W12801   8.975  35.550   2.255
39734W        W12802  31.865  36.542   3.161
39735W        W12803  27.511  27.026   4.197
39736W        W12804   6.256  11.404   9.848
39737W        W12805  16.366  19.400   0.891
39738W        W12806  27.903  33.492   3.542
39739W        W12807  32.202   1.731   1.192
39740W        W12808   4.294  20.128  11.508
39741W        W12809  32.221   3.970   1.288
39742W        W12810  29.585  26.791  12.033
39743W        W12811  33.411   6.545   1.302
39744W        W12812   5.126   1.988   0.304
39745W        W12813  12.017  43.188  11.070
39746W        W12814  41.288  37.756  14.405
39747W        W12815  29.451  10.982  14.063
39748W        W12816  42.034  33.967   3.051
39749W        W12817  32.841   6.390  10.749
39750W        W12818   7.827  17.488   2.672
39751W        W12819   0.823   3.922   0.913
39752W        W12820   2.263   7.377  14.208
39753W        W12821  36.405  37.380   0.388
39754W        W12822  26.740  11.161  14.361
39755W        W12823  21.278  22.874   1.300
39756W        W12824   9.302  30.978   1.833
39757W        W12825  29.084  10.217   1.301
39758W        W12826  12.347   5.071  11.113
39759W        W12827  16.106  17.622  11.167
39760W        W12828  33.999   4.910  12.203
39761W        W12829   5.249   8.425   1.756
39762W        W12830   8.592  19.667  12.510
39763W        W12831  27.091   7.273  12.416
39764W        W12832  14.164  33.549  11.961
39765W        W12833  35.479   8.031  13.492
39766W        W12834  39.039  32.552   0.575
39767W        W12835  39.993   1.131   2.804
39768W        W12836   0.408   9.829   0.861
39769W        W12837  24.552   6.813  11.139
39770W        W12838  18.017  44.393  14.350
39771W        W12839  37.596  14.376  12.533
39772W        W12840  21.874  42.826  10.058
39773W        W12841  30.144  23.764   4.638
39774W        W12842  38.542   3.324   3.180
39775W        W12843  44.048  31.505  10.147
39776W        W12844  16.331  20.381   2.822
39777W        W12845  14.861  26.636  10.534
39778W        W12846  17.321   6.798   3.392
39779W        W12847   4.949  38.593  14.190
39780W        W12848   8.387  24.884   0.661
39781W        W12849  42.309  23.732  14.850
39782W        W12850  15.746   2.448  13.659
39783W        W12851  32.460  19.777  12.848
39784W        W12852  11.387  17.533  13.001
39785W        W12853  16.492  44.517  12.850
39786W        W12854  29.692  11.265   3.701
39787W        W12855  36.645  41.568   1.378
39788W        W12856  29.683   6.715  14.357
39789W        W12857  29.190  36.235  11.029
39790W        W12858   0.377  40.849   1.749
39791W        W12859  21.261  27.914  14.909
39792W        W12860  37.435  39.961  13.516
39793W        W12861  41.995  37.620   1.263
39794W        W12862  35.649  17.515   3.760
39795W        W12863   4.346   4.915  14.794
39796W        W12864  17.347   9.283   0.478
39797W        W12865  25.951   1.983   1.971
39798W        W12866  19.115  18.014  12.169
39799W        W12867   0.446  21.100   0.781
39800W        W12868  27.434  11.630   2.358
39801W        W12869  31.420   6.291   4.697
39802W        W12870  13.409  19.822  10.687
39803W        W12871  40.342  29.065   4.582
39804W        W12872   9.093  30.630  12.370
39805W        W12873  42.311  32.554   2.827
39806W        W12874  22.412  11.172   4.144
39807W        W12875  13.669  19.185  13.341
39808W        W12876  35.379   2.514   1.501
39809W        W12877  36.438  16.891  11.729
39810W        W12878  39.489  15.175   1.419
39811W        W12879   9.255  20.421  11.943
39812W        W12880  35.246  12.236   0.881
39813W        W12881  30.063  41.830  12.786
39814W        W12882  41.126   5.734   1.465
39815W        W12883  24.111  27.754  13.827
39816W        W12884  22.320  31.137  13.781
39817W        W12885  34.351  41.291   2.737
39818W        W12886  25.105  22.697   0.363
39819W        W12887  36.094  12.586  13.087
39820W        W12888  20.513  22.695   1.645
39821W        W12889  38.128   5.787  13.146
39822W        W12890  29.551   7.069   5.096
39823W        W12891  13.681  38.293  10.545
39824W        W12892  39.984   7.179   1.305
39825W        W12893  32.996  17.352  10.630
39826W        W12894   7.728  36.328   0.407
39827W        W12895   8.040  30.028  13.069
39828W        W12896  25.662  18.104  11.564
39829W        W12897  12.205  39.777  12.587
39830W        W12898  23.153   6.680  14.527
39831W        W12899  16.370  33.002   4.190
39832W        W12900  32.495   2.260  10.709
39833W        W12901  34.527  12.944   0.241
39834W        W12902  36.048  31.809   1.856
39835W        W12903  14.991  35.004   2.695
39836W        W12904  25.710   6.687  13.222
39837W        W12905  35.125  17.511   3.707
39838W        W12906   4.811   7.188   1.660
39839W        W12907  12.173  40.614  12.855
39840W        W12908  30.673  44.042  12.011
39841W        W12909  43.528  17.154  14.519
39842W        W12910   6.160  35.210   2.249
39843W        W12911  18.194   5.942  12.804
39844W        W12912  11.724  35.699  11.140
39845W        W12913  39.831  21.764  11.130
39846W        W12914   6.205   0.405  14.446
39847W        W12915  33.180  32.537  14.086
39848W        W12916  39.426  11.410  14.846
39849W        W12917  41.441  25.403   1.421
39850W        W12918  26.671  25.132  12.213
39851W        W12919  36.537  11.220  11.187
39852W        W12920  30.428  25.108  14.079
39853W        W12921  20.633  22.175  11.226
39854W        W12922   9.835  27.360   1.091
39855W        W12923  26.654   8.573   5.138
39856W        W12924  22.005  13.823   4.101
39857W        W12925  24.327  39.346   3.279
39858W        W12926  43.823  34.373   3.177
39859W        W12927  15.178   5.949   4.320
39860W        W12928  41.945  12.765  14.451
39861W        W12929  17.124  24.244   2.254
39862W        W12930  10.890   3.306  10.582
39863W        W12931  36.080  36.289  14.207
39864W        W12932   9.703  10.881  13.028
39865W        W12933  27.425  36.198   2.385
39866W        W12934  42.331   1.024  13.957
39867W        W12935  16.352  43.051   4.147
39868W        W12936  15.604  33.388   4.991
39869W        W12937  15.812   9.220   1.429
39870W        W12938   7.741   1.076   2.407
39871W        W12939  30.957  41.003   0.470
39872W        W12940   0.846  15.114  14.540
39873W        W12941  25.614  31.596  14.349
39874W        W12942  37.398  25.632   0.058
39875W        W12943  12.189  28.948   3.373
39876W        W12944  41.926  42.748  10.984
39877W        W12945  30.954   2.825  12.479
39878W        W12946  11.659  26.263  10.455
39879W        W12947  29.132   5.779   4.617
39880W        W12948  30.057  25.144  12.874
39881W        W12949   6.344  16.750   3.211
39882W        W12950  37.270  16.370  12.425
39883W        W12951   1.271  15.256   3.854
39884W        W12952  19.293  14.337   4.813
39885W        W12953  25.244  40.959  11.628
39886W        W12954   2.593  29.514  13.403
39887W        W12955  24.191  27.946  13.357
39888W        W12956  21.648  33.320  11.103
39889W        W12957  22.410  42.015   1.402
39890W        W12958  14.784  17.352   1.306
39891W        W12959  33.966   4.723   1.863
39892W        W12960   1.807  16.109  11.099
39893W        W12961   2.706  40.934   2.908
39894W        W12962  38.433   6.425   4.492
39895W        W12963  34.071  21.004  10.358
39896W        W12964  39.508   2.313   1.260
39897W        W12965  17.749  44.944  14.322
39898W        W12966  24.451  34.108   0.749
39899W        W12967  26.489  16.738   1.240
39900W        W12968  11.835  40.475  11.527
39901W        W12969  20.104  38.400  12.027
39902W        W12970  12.655  18.799  11.218
39903W        W12971  34.024  26.024  12.638
39904W        W12972  27.731  11.008   4.138
39905W        W12973  20.458   5.339  12.215
39906W        W12974  28.513  26.777  13.343
39907W        W12975   4.322   2.058   3.152
39908W        W12976   6.976  36.778  11.652
39909W        W12977  43.926  24.189   4.155
39910W        W12978   9.210  15.100  14.661
39911W        W12979   7.108  29.368   3.881
39912W        W12980   1.376   6.145   3.349
39913W        W12981  39.778  44.710   2.354
39914W        W12982  14.062  14.170  14.477
39915W        W12983  43.856   1.747  13.571
39916W        W12984  29.080  13.514   0.814
39917W        W12985  39.012   5.279   0.361
39918W        W12986  17.318  10.319  11.517
39919W        W12987   3.288   8.801  14.838
39920W        W12988  10.776  43.875  14.223
39921W        W12989  28.711  30.055   4.181
39922W        W12990  24.693  37.873   1.762
39923W        W12991  19.291  17.601  12.479
39924W        W12992  17.932   2.143   4.322
39925W        W12993  34.984  11.756  12.613
39926W        W12994  11.971  18.294   3.053
39927W        W12995   6.477  28.232  11.972
39928W        W12996  10.357  12.537  12.091
39929W        W12997  13.366   3.348  14.819
39930W        W12998  17.734  19.935   2.798
39931W        W12999  31.172  37.407  10.765
39932W        W13000  39.571  21.203   0.460
39933W        W13001  37.135  27.919   2.253
39934W        W13002  31.955  29.046  14.327
39935W        W13003  13.113   4.315  13.003
39936W        W13004  15.786  38.991  13.951
39937W        W13005  43.241  30.863   4.956
39938W        W13006  26.406  19.135  11.401
39939W        W13007  39.740   4.491  14.372
39940W        W13008  36.316  39.312   0.274
39941W        W13009  38.325  25.706   3.909
39942W        W13010   6.936  18.525   2.932
39943W        W13011  20.152   8.945   5.121
39944W        W13012  28.484  24.383  12.467
39945W        W13013  38.432  19.297  14.893
39946W        W13014   7.734  41.469   3.714
39947W        W13015  43.922  19.782   0.514
39948W        W13016  41.155  36.358  10.575
39949W        W13017  26.725  25.645  12.046
39950W        W13018  31.090   9.688  11.942
39951W        W13019  17.062   7.725   4.494
39952W        W13020  35.231  19.538   2.621
39953W        W13021  25.093  19.934   4.175
39954W        W13022  27.642  29.735   2.334
39955W        W13023  26.021  30.187   3.719
39956W        W13024   8.976  40.522   0.702
39957W        W13025  39.455  23.651   3.162
39958W        W13026   9.349  43.117   2.884
39959W        W13027   4.292  37.560   0.886
39960W        W13028  19.462   5.868   3.345
39961W        W13029  44.783  18.142  13.008
39962W        W13030  18.967  12.325  10.455
39963W        W13031  41.833  14.776  11.754
39964W        W13032  18.629  21.736   3.650
39965W        W13033  26.272   6.354  13.579
39966W        W13034  21.739   3.192   4.670
39967W        W13035  40.274   5.798  13.408
39968W        W13036  42.962  31.807   2.221
39969W        W13037  43.506  42.934   3.155
39970W        W13038  23.507   7.417  14.288
39971W        W13039   2.394   1.284  12.381
39972W        W13040  23.348  35.616  14.540
39973W        W13041  18.686   6.527  13.971
39974W        W13042  13.052   6.711  10.432
39975W        W13043  27.213  41.884   3.243
39976W        W13044  29.083  39.818  11.843
39977W        W13045   1.904  32.359   2.271
39978W        W13046  19.443  35.429  12.086
39979W        W13047   3.165   5.367  14.041
39980W        W13048   8.383  19.751  13.575
39981W        W13049  39.808   0.322  10.806
39982W        W13050  26.500  14.167  10.743
39983W        W13051  32.561   0.314   1.180
39984W        W13052  14.923  18.951  13.925
39985W        W13053  24.670  14.343  13.380
39986W        W13054  37.834   9.965   4.102
39987W        W13055  36.484  43.186   0.324
39988W        W13056   4.293  29.496  11.313
39989W        W13057  39.567  36.358   1.409
39990W        W13058   2.189   4.885   0.533
39991W        W13059  33.995  23.210   3.562
39992W        W13060  43.986  40.054  11.538
39993W        W13061  21.300   2.198   0.942
39994W        W13062  43.321  27.593   3.223
39995W        W13063  19.739  25.436  12.924
39996W        W13064  34.049   3.955  11.885
39997W        W13065   3.811  27.729  12.565
39998W        W13066   0.339  43.231  14.269
39999W        W13067  39.915  16.137  14.502
40000W        W13068  10.164   5.841  11.385
40001W        W13069  35.472  43.199   0.949
40002W        W13070  12.893   9.414   4.192
40003W        W13071  34.403  33.548   1.978
40004W        W13072   4.243  11.267   4.215
40005W        W13073  31.407  23.635   1.284
40006W        W13074   7.787  21.775  12.915
40007W        W13075  44.480  30.044   4.790
40008W        W13076  44.790  18.669  12.838
40009W        W13077   9.250  29.591   3.648
40010W        W13078  15.520   0.387  13.848
40011W        W13079  20.596  25.952   3.821
40012W        W13080  20.112  10.692  11.007
40013W        W13081   5.351  34.428  14.456
40014W        W13082   5.079  21.492   0.989
40015W        W13083  20.991  12.327  10.863
40016W        W13084   9.283   4.764  14.065
40017W        W13085  11.783  13.769  14.030
40018W        W13086   9.386  38.821  14.343
40019W        W13087   3.970  12.310  11.754
40020W        W13088   5.912  20.617   1.410
40021W        W13089  30.510  12.663  13.752
40022W        W13090  28.041  29.047   3.558
40023W        W13091   9.189  44.387   3.492
40024W        W13092  17.362  38.865  11.108
40025W        W13093  29.428  21.504   1.827
40026W        W13094  28.457   2.829  13.320
40027W        W13095  12.110  42.552   2.698
40028W        W13096  17.648  18.492  14.407
40029W        W13097  39.615   4.404   4.582
40030W        W13098  38.241   0.892  13.129
40031W        W13099  15.571   1.327  14.345
40032W        W13100  16.159  33.407   1.378
40033W        W13101  38.851  10.721   4.505
40034W        W13102  35.793  16.289  13.882
40035W        W13103  33.648   7.119  14.904
40036W        W13104  38.822  33.158  11.332
40037W        W13105  28.976   2.686   1.443
40038W        W13106   3.192  21.970   3.323
40039W        W13107  25.698  17.803   2.626
40040W        W13108   0.244  32.584   3.256
40041W        W13109  18.101  19.030   0.647
40042W        W13110  13.207  23.523  14.470
40043W        W13111  12.766  30.710   4.221
40044W        W13112   8.744   2.472   4.374
40045W        W13113   3.805  28.908  12.849
40046W        W13114  23.968  22.182   2.229
40047W        W13115  36.098  14.282   0.816
40048W        W13116  16.320  30.730  14.523
40049W        W13117  15.267  22.977   4.126
40050W        W13118  32.577  20.934   1.291
40051W        W13119  27.460  16.071  11.120
40052W        W13120  44.284  24.073   2.885
40053W        W13121  10.304  42.845   3.826
40054W        W13122  44.402  40.248   2.694
40055W        W13123  30.453  35.911  12.745
40056W        W13124   0.761  26.489  11.907
40057W        W13125  39.014   6.327  14.293
40058W        W13126  26.550  17.851  11.084
40059W        W13127  14.859  22.572  13.517
40060W        W13128  36.932  38.567   0.222
40061W        W13129   1.990   3.976  12.521
40062W        W13130  26.400  30.558  10.679
40063W        W13131  36.194  29.720   3.619
40064W        W13132   9.277  12.087   4.048
40065W        W13133  21.041  30.080  11.021
40066W        W13134   1.294  16.091  11.528
40067W        W13135  14.658   6.705   4.587
40068W        W13136  32.350  10.901  13.474
40069W        W13137  42.337  23.013  11.054
40070W        W13138  29.057  13.623  14.830
40071W        W13139  16.394  33.502  12.543
40072W        W13140  23.874  36.472   1.811
40073W        W13141  33.133  21.717   0.374
40074W        W13142  30.930  32.837  11.233
40075W        W13143  15.414  42.744   2.612
40076W        W13144  44.009   2.952   4.892
40077W        W13145  31.521  15.865   0.304
40078W        W13146  42.264   1.943  10.932
40079W        W13147  37.251  34.870  14.822
40080W        W13148  30.529   6.274  12.008
40081W        W13149  42.927   7.261   2.969
40082W        W13150  22.230   8.963  14.875
40083W        W13151  37.640  33.443   2.159
40084W        W13152  39.053  31.410  11.642
40085W        W13153  20.365  25.239   4.654
40086W        W13154  14.183   2.955   2.406
40087W        W13155  34.989  25.516   0.741
40088W        W13156   2.748  11.201  12.860
40089W        W13157   4.362  30.423   4.789
40090W        W13158  16.734  30.562   2.978
40091W        W13159  38.970   1.390  12.809
40092W        W13160  38.830  10.840  12.346
40093W        W13161  25.091  27.191   3.124
40094W        W13162   9.447  21.308  14.915
40095W        W13163  29.692  43.993   0.096
40096W        W13164   0.288   4.297  11.108
40097W        W13165   6.868  29.443   4.959
40098W        W13166   7.724  17.635  10.980
40099W        W13167   2.468  22.980  11.608
40100W        W13168  19.675  18.106  11.521
40101W        W13169  36.068  15.405   0.278
40102W        W13170  20.734  22.090   4.091
40103W        W13171  22.254   4.318   3.586
40104W        W13172  13.269  33.741  13.093
40105W        W13173   2.295   7.381   0.118
40106W        W13174   0.344  26.118   0.454
40107W        W13175  29.099  10.241  10.590
40108W        W13176  18.626   4.234   1.781
40109W        W13177   1.036  37.873  12.490
40110W        W13178   0.074  18.287   0.978
40111W        W13179  15.098  11.790  14.413
40112W        W13180  24.767  43.415   0.407
40113W        W13181  42.595  14.723  13.637
40114W        W13182  37.940  18.341   0.135
40115W        W13183  19.527  30.945   1.906
40116W        W13184  28.070  25.474  11.862
40117W        W13185   6.798  27.977  14.290
40118W        W13186   6.752  44.788  10.690
40119W        W13187  29.501  34.941  11.109
40120W        W13188  13.207  18.271   9.963
40121W        W13189   4.653  36.537  14.214
40122W        W13190  31.827  19.635   2.307
40123W        W13191  27.012  20.090  13.810
40124W        W13192  27.070  39.029   3.167
40125W        W13193  31.454   2.283  10.933
40126W        W13194  12.629  43.096  11.103
40127W        W13195  44.068  33.680   2.336
40128W        W13196  26.639  19.509  11.644
40129W        W13197   2.610  40.802  14.382
40130W        W13198  39.496   7.297   1.497
40131W        W13199  28.487  19.080  14.288
40132W        W13200  20.086  15.027   1.696
40133W        W13201  17.420  31.917   0.416
40134W        W13202  26.757  40.125  12.011
40135W        W13203  35.356  41.463   2.669
40136W        W13204  37.079  41.964  14.695
40137W        W13205  38.716   1.187  11.098
40138W        W13206  43.421  29.370   4.155
40139W        W13207  30.896  15.658  12.946
40140W        W13208  31.629   4.302  14.350
40141W        W13209  38.450  24.740   3.545
40142W        W13210   8.754  10.675   2.805
40143W        W13211  12.168   1.387  14.073
40144W        W13212  29.461  17.553  13.827
40145W        W13213  41.931  17.741  14.795
40146W        W13214  33.493  30.031  10.983
40147W        W13215  17.529  17.384   0.921
40148W        W13216   7.933  37.388   4.347
40149W        W13217   4.102   2.951  10.799
40150W        W13218   8.390  12.016   4.170
40151W        W13219  32.420   2.841  13.788
40152W        W13220  29.566   7.649   1.583
40153W        W13221   6.425  44.523   0.524
40154W        W13222  32.669  43.007   3.299
40155W        W13223  15.389   3.333   4.241
40156W        W13224   4.468  26.552  12.135
40157W        W13225  16.023   0.723  14.658
40158W        W13226  35.553  19.508  11.675
40159W        W13227  17.803  23.443   4.512
40160W        W13228  29.511  23.213   0.637
40161W        W13229  21.415  28.469   1.275
40162W        W13230  28.081  39.285   4.197
40163W        W13231   0.870  17.217  14.358
40164W        W13232  34.534  16.350  13.023
40165W        W13233  32.437  22.544  14.430
40166W        W13234  39.252   9.396  10.231
40167W        W13235  23.987   7.672  10.679
40168W        W13236  21.516  26.687   0.329
40169W        W13237  16.549  18.669  11.386
40170W        W13238   2.204  33.023  14.096
40171W        W13239   1.850  34.778   0.538
40172W        W13240  22.439  15.116  13.208
40173W        W13241   3.305  24.232  12.661
40174W        W13242  13.173  43.939   4.501
40175W        W13243  38.380  42.591   3.173
40176W        W13244  20.245   9.645  13.125
40177W        W13245  25.443  30.913  12.091
40178W        W13246  42.066  39.062   3.206
40179W        W13247  37.908  44.035   3.275
40180W        W13248   8.930  41.967   0.321
40181W        W13249  44.984  27.000   0.602
40182W        W13250   6.216  30.522   0.536
40183W        W13251   5.000  35.675   2.733
40184W        W13252  17.105  17.148  12.511
40185W        W13253  38.028  18.983  14.898
40186W        W13254   5.769  25.273  11.519
40187W        W13255   5.222  17.961  14.946
40188W        W13256   0.475  38.399   0.299
40189W        W13257  35.028  36.393   1.653
40190W        W13258  44.274  44.799   3.759
40191W        W13259  20.982  24.122   2.096
40192W        W13260  23.981  27.543   0.802
40193W        W13261  22.551  42.213   0.935
40194W        W13262   4.847  20.146   4.835
40195W        W13263   8.620  30.557  14.382
40196W        W13264  22.975  17.731   1.020
40197W        W13265  37.997  16.546  13.398
40198W        W13266  41.916  42.201  13.341
40199W        W13267  39.019  12.580  14.523
40200W        W13268   9.736  15.668   3.831
40201W        W13269  37.172   4.807  11.300
40202W        W13270   7.376   9.227   2.711
40203W        W13271  19.504  31.013   0.348
40204W        W13272  15.835  18.242   3.686
40205W        W13273  25.016  22.788   3.202
40206W        W13274  22.735  36.816   3.602
40207W        W13275  26.560  21.016   0.080
40208W        W13276  10.207  20.336  12.878
40209W        W13277  25.567  28.880   1.497
40210W        W13278  15.364  33.378  11.469
40211W        W13279  21.694  20.400  12.523
40212W        W13280   6.963  21.501  10.765
40213W        W13281  36.414  34.090   9.999
40214W        W13282  35.058  24.677  14.880
40215W        W13283  21.698   4.047   0.890
40216W        W13284  15.695  22.189   3.098
40217W        W13285  25.990   1.717   2.413
40218W        W13286  20.249  29.715  11.090
40219W        W13287  42.407  39.473   3.602
40220W        W13288  31.052  41.519   0.551
40221W        W13289   4.804  32.606   4.719
40222W        W13290  27.199  10.563  12.954
40223W        W13291  36.345  13.897  11.519
40224W        W13292  15.473   2.490  11.098
40225W        W13293  29.217  29.486  12.061
40226W        W13294  18.585  34.148  14.336
40227W        W13295  23.669  43.238   3.177
40228W        W13296  27.505  44.173   1.157
40229W        W13297   2.303  43.780  11.221
40230W        W13298  19.492  21.094  14.420
40231W        W13299  10.005  31.636   1.080
40232W        W13300   3.918  23.025   2.200
40233W        W13301   5.842  24.546  13.035
40234W        W13302   5.359  35.376  10.814
40235W        W13303   9.494  16.153   3.805
40236W        W13304  11.637  14.125   4.083
40237W        W13305  28.682  24.193  10.767
40238W        W13306   6.732  25.518  13.021
40239W        W13307  30.746  15.743   0.189
40240W        W13308  14.800  44.871  14.983
40241W        W13309  22.970  30.239  12.016
40242W        W13310  33.955  41.971   0.194
40243W        W13311   3.697   7.179   3.644
40244W        W13312  24.411  29.886  12.074
40245W        W13313  21.796  35.575   1.425
40246W        W13314   4.932  43.824  12.652
40247W        W13315  24.536  15.441  11.607
40248W        W13316  13.312  40.355   0.691
40249W        W13317  34.725  22.041  11.309
40250W        W13318  11.572  44.452  11.016
40251W        W13319  27.660   4.958   3.778
40252W        W13320  35.816  15.645  12.979
40253W        W13321  20.594  15.285   3.252
40254W        W13322   9.352  22.683  11.909
40255W        W13323  35.572  15.484  12.520
40256W        W13324  34.089  25.511   4.837
40257W        W13325  39.866  42.931  14.039
40258W        W13326  44.355  29.580   4.523
40259W        W13327  41.032  10.312  10.285
40260W        W13328  44.835  23.705  14.317
40261W        W13329   9.898  27.090  12.365
40262W        W13330  30.028  40.499   2.473
40263W        W13331  26.231  36.494   3.161
40264W        W13332  35.061  19.562  14.250
40265W        W13333   2.049  28.756   0.806
40266W        W13334  39.981   8.936  12.548
40267W        W13335  33.867  29.838  13.371
40268W        W13336  38.358  18.273   4.033
40269W        W13337  18.527  25.355  10.596
40270W        W13338  38.919  42.818  11.637
40271W        W13339  13.394   4.612  12.520
40272W        W13340  16.542  22.898  11.995
40273W        W13341   3.717   1.704  12.069
40274W        W13342  11.156  20.493  12.817
40275W        W13343  35.631  21.655  11.071
40276W        W13344  34.035   9.474   2.313
40277W        W13345   6.632   1.423   3.392
40278W        W13346  42.985  20.495  10.747
40279W        W13347  21.717  31.504   3.933
40280W        W13348  41.326  27.130   0.352
40281W        W13349  39.376  12.751  13.909
40282W        W13350  36.892  15.535  13.963
40283W        W13351  29.667  24.727   2.284
40284W        W13352  38.052  27.197  14.201
40285W        W13353  42.241  19.103   2.394
40286W        W13354  27.186  13.368   1.339
40287W        W13355  39.366  10.860  13.006
40288W        W13356   1.683  24.789   2.669
40289W        W13357  35.028  18.809  12.394
40290W        W13358  41.559  36.258  12.015
40291W        W13359   9.291  39.918  12.942
40292W        W13360   7.314  27.675   1.733
40293W        W13361   5.655   3.048  14.673
40294W        W13362  37.508  13.645   4.663
40295W        W13363  17.820  34.639  12.024
40296W        W13364  10.661  37.567  12.909
40297W        W13365  40.040  41.958   4.666
40298W        W13366  15.195  15.459  11.857
40299W        W13367   9.340  18.515   4.666
40300W        W13368  21.698  35.364  11.943
40301W        W13369  12.200  21.151   0.288
40302W        W13370  42.589  23.660  13.633
40303W        W13371  18.991  38.095   1.748
40304W        W13372   0.726   1.075  14.395
40305W        W13373  25.488   8.511  11.151
40306W        W13374  14.775   3.443   2.002
40307W        W13375   2.220  29.054  10.665
40308W        W13376  28.176  14.261   1.297
40309W        W13377  18.292  38.972   0.888
40310W        W13378  32.410  35.792  14.990
40311W        W13379  26.142  37.398   9.993
40312W        W13380  13.096  39.182   4.545
40313W        W13381  22.503  10.749  14.954
40314W        W13382  37.233  40.961  12.100
40315W        W13383  12.862  17.570  11.463
40316W        W13384  26.630   4.127  11.115
40317W        W13385   2.085  42.007   4.125
40318W        W13386   1.473  34.084  14.111
40319W        W13387  19.267   4.764  10.688
40320W        W13388  15.975  27.003  13.468
40321W        W13389  24.249  39.351   4.022
40322W        W13390   4.197   0.564  11.598
40323W        W13391   0.992  11.673  12.946
40324W        W13392   8.322  34.897   1.364
40325W        W13393  22.415  33.632  13.472
40326W        W13394  20.802  36.399  13.964
40327W        W13395  16.509   6.819  14.878
40328W        W13396  43.488   1.452  14.328
40329W        W13397  12.960  34.842  11.576
40330W        W13398  14.759   8.122  13.040
40331W        W13399  25.737  39.705  10.234
40332W        W13400   2.445  14.346   2.788
40333W        W13401  34.635  20.449   1.888
40334W        W13402   2.868  39.746  10.719
40335W        W13403   8.433  17.574  12.024
40336W        W13404  17.145  18.609  12.862
40337W        W13405  32.640   3.497   4.213
40338W        W13406  21.940  18.613  10.265
40339W        W13407  23.189  38.433   1.575
40340W        W13408   4.424   1.922   4.138
40341W        W13409   8.096  14.598   1.727
40342W        W13410  22.043  33.845   0.328
40343W        W13411  26.965  35.487   2.442
40344W        W13412   3.762  24.962  12.528
40345W        W13413  41.466  13.451   9.510
40346W        W13414  22.230  23.264  12.460
40347W        W13415   7.598  27.574   1.319
40348W        W13416  17.490  11.199  11.616
40349W        W13417  27.677  27.081  14.052
40350W        W13418  12.218  12.357  14.352
40351W        W13419  24.853   4.923  12.494
40352W        W13420  27.215  20.965   4.613
40353W        W13421  13.837  21.229  14.866
40354W        W13422   9.337  32.024   5.118
40355W        W13423   4.437  14.872  12.884
40356W        W13424  21.466  31.626  10.723
40357W        W13425  35.419  33.345   4.578
40358W        W13426  12.642  23.935  12.886
40359W        W13427   2.695  43.942  12.458
40360W        W13428   7.786  22.740   3.164
40361W        W13429  26.903  39.564   0.355
40362W        W13430  20.568  43.741  11.133
40363W        W13431  33.928  15.464   0.820
40364W        W13432   9.370  12.352   1.479
40365W        W13433   9.904  39.132  14.431
40366W        W13434  28.561  11.871   2.888
40367W        W13435  40.998  30.399   1.291
40368W        W13436  39.915  24.505  10.882
40369W        W13437  30.402  18.511  13.732
40370W        W13438   0.360  10.362   3.400
40371W        W13439   2.954   7.051  14.871
40372W        W13440   5.964  38.381  11.977
40373W        W13441  27.993  26.715   4.220
40374W        W13442  17.356  44.846   2.816
40375W        W13443  20.777  43.401  14.883
40376W        W13444  13.112  26.910   0.855
40377W        W13445   2.576  38.407   3.499
40378W        W13446  19.425  12.127   0.458
40379W        W13447  25.723   4.491  14.045
40380W        W13448  24.454  30.549   0.225
40381W        W13449  33.985   8.748   0.788
40382W        W13450   3.388   1.539   0.506
40383W        W13451  12.655  43.797  12.399
40384W        W13452  21.527  19.990   0.500
40385W        W13453   7.410  15.836   0.531
40386W        W13454  42.474  43.343   1.756
40387W        W13455  10.787   3.727   4.032
40388W        W13456  36.650  34.154   4.650
40389W        W13457  18.029  25.473   4.605
40390W        W13458  33.846  13.813  10.970
40391W        W13459  17.370  32.961   3.144
40392W        W13460  19.664  35.033  14.002
40393W        W13461  20.739   5.728   3.679
40394W        W13462  19.020  22.184  13.873
40395W        W13463  37.126  12.296  12.109
40396W        W13464  16.568   9.157   2.630
40397W        W13465   2.823  20.536   3.348
40398W        W13466  39.268  42.357  14.741
40399W        W13467  21.119  43.680   5.027
40400W        W13468  18.291  18.120   1.934
40401W        W13469  28.150  28.434   1.739
40402W        W13470  29.148   4.486  11.299
40403W        W13471  22.566  14.259   3.804
40404W        W13472   0.706  19.558  13.362
40405W        W13473  41.781   6.647   0.671
40406W        W13474  40.120  35.976   4.530
40407W        W13475  16.577  24.289  12.465
40408W        W13476  11.219  23.924  12.821
40409W        W13477  24.596  19.815   2.500
40410W        W13478  38.556   9.802  14.898
40411W        W13479  22.670  12.147   4.333
40412W        W13480   5.417   1.220   0.755
40413W        W13481  20.537  16.234   3.215
40414W        W13482  31.468   6.524  13.052
40415W        W13483  37.288  31.016  11.650
40416W        W13484  17.338  23.252  12.983
40417W        W13485  41.436   1.423  12.986
40418W        W13486  41.852   9.737   0.955
40419W        W13487  16.888  26.716  12.196
40420W        W13488  43.818  23.060  12.471
40421W        W13489  38.048  27.962   4.718
40422W        W13490  25.469  10.634   3.813
40423W        W13491  37.955  12.356  14.037
40424W        W13492  36.031  29.571   3.148
40425W        W13493  14.638   1.994  11.189
40426W        W13494  35.364  25.547  13.395
40427W        W13495  41.814  35.304   4.116
40428W        W13496  21.646  29.991   0.236
40429W        W13497  24.462  37.466  14.561
40430W        W13498   3.070  38.337  11.144
40431W        W13499  11.360  24.931   4.664
40432W        W13500  34.943  37.570  12.879
40433W        W13501  21.474   6.699  12.598
40434W        W13502  40.793  26.491  12.826
40435W        W13503  30.124  26.209   4.376
40436W        W13504  22.684  18.833   2.437
40437W        W13505  22.911  38.558   0.252
40438W        W13506   6.419  21.785  12.023
40439W        W13507  35.677  34.642   2.843
40440W        W13508  13.777  20.589   3.252
40441W        W13509  25.576  40.602   2.273
40442W        W13510  34.471  21.277  11.707
40443W        W13511  29.350  21.703  12.895
40444W        W13512  44.537  39.394   2.347
40445W        W13513   1.745  35.956   2.882
40446W        W13514   6.415  29.255  12.011
40447W        W13515  36.781  32.344  11.490
40448W        W13516  27.601   9.156   0.459
40449W        W13517  43.449  33.603  11.640
40450W        W13518   8.645   5.473  13.999
40451W        W13519   1.417  44.448  14.802
40452W        W13520  23.718   1.375   4.129
40453W        W13521  13.620   1.989  14.316
40454W        W13522  23.451  38.736   2.769
40455W        W13523  25.971   4.410   2.440
40456W        W13524   5.927  22.324   2.246
40457W        W13525  43.217  14.328  13.022
40458W        W13526  21.252  21.687  13.687
40459W        W13527   5.005   8.236  11.430
40460W        W13528   3.684  40.237  11.294
40461W        W13529  13.428   1.786  14.760
40462W        W13530  22.958  24.132  14.500
40463W        W13531   5.217  29.910  14.940
40464W        W13532  44.476  19.719  10.580
40465W        W13533  10.457  21.577   4.921
40466W        W13534  44.059  37.481  10.707
40467W        W13535  10.893  20.956  13.936
40468W        W13536   9.855  43.469   3.375
40469W        W13537  15.865  29.921   4.114
40470W        W13538  22.986  27.702  14.815
40471W        W13539  11.797  33.507   0.869
40472W        W13540  34.124  29.836  14.286
40473W        W13541  16.655  28.434  14.119
40474W        W13542  43.447   0.807  13.511
40475W        W13543   9.143  32.313  11.117
40476W        W13544  32.036   9.713  12.865
40477W        W13545   5.331   8.081  11.795
40478W        W13546  43.033   0.582   2.815
40479W        W13547  33.386  40.211  13.426
40480W        W13548  36.498  20.697  13.435
40481W        W13549  30.731   1.247   2.499
40482W        W13550   5.283  34.436   3.028
40483W        W13551  26.128   5.203   1.763
40484W        W13552  26.186   6.438   4.200
40485W        W13553  34.607   0.418  13.514
40486W        W13554  41.064  19.460   1.072
40487W        W13555   2.824  10.551   4.867
40488W        W13556  28.633  10.960  13.982
40489W        W13557  32.187  12.624   0.980
40490W        W13558  32.207   7.642  11.126
40491W        W13559  33.027  19.139  11.907
40492W        W13560  35.400  38.414  10.830
40493W        W13561   8.279   3.991   2.856
40494W        W13562  18.011  40.962   1.151
40495W        W13563  41.455  27.508  12.292
40496W        W13564  30.624   9.250  13.263
40497W        W13565  10.763  44.204  14.628
40498W        W13566  30.978  31.199   3.968
40499W        W13567   6.298  39.569   1.042
40500W        W13568  32.794  13.598  14.224
40501W        W13569  43.178   8.793   0.969
40502W        W13570  16.453  24.063  12.038
40503W        W13571  19.087  25.934   3.689
40504W        W13572  35.100   3.830   4.133
40505W        W13573  24.444   0.529   1.808
40506W        W13574  37.002  37.857  12.356
40507W        W13575  16.749   1.795   1.850
40508W        W13576   8.243  44.442   1.927
40509W        W13577  36.297  37.902  12.487
40510W        W13578  15.687  43.203  11.719
40511W        W13579  27.708  17.487   2.286
40512W        W13580  18.677  32.070  13.898
40513W        W13581   2.310  28.845   2.094
40514W        W13582  35.841  14.003  11.555
40515W        W13583  29.172  16.707  14.069
40516W        W13584   2.291  40.475   0.378
40517W        W13585  18.815  40.428   4.570
40518W        W13586  44.661  21.795  11.030
40519W        W13587  36.046  12.590  11.528
40520W        W13588  39.014  40.787  11.570
40521W        W13589  14.622  21.544  12.245
40522W        W13590  32.196   4.846   0.896
40523W        W13591   7.499   4.283  12.873
40524W        W13592  19.283  31.487   1.673
40525W        W13593   1.873  11.768  14.436
40526W        W13594  27.171  14.256  12.970
40527W        W13595   2.354  24.200  13.931
40528W        W13596  28.496  29.976   4.670
40529W        W13597  25.623  32.141  11.649
40530W        W13598  42.890   4.800  11.913
40531W        W13599   9.765   7.929   3.822
40532W        W13600  40.520  17.498  11.598
40533W        W13601  35.185  44.382  12.944
40534W        W13602  43.953  17.389   2.360
40535W        W13603  23.534  36.617  14.321
40536W        W13604  17.564  38.866   1.912
40537W        W13605  10.413  33.160  14.949
40538W        W13606   0.838  15.506  13.002
40539W        W13607  41.420  37.890   4.560
40540W        W13608   5.805  31.926   1.791
40541W        W13609  24.056  28.444   0.879
40542W        W13610  31.044  19.692  13.935
40543W        W13611  37.129  36.515   4.579
40544W        W13612  26.613   8.860   2.755
40545W        W13613  10.170  21.239   4.611
40546W        W13614  23.971  42.973   1.359
40547W        W13615   3.678  12.294   3.925
40548W        W13616   4.578  11.796  13.861
40549W        W13617  40.931  17.427  14.920
40550W        W13618  29.873  21.095  11.492
40551W        W13619  41.478   1.515   3.641
40552W        W13620  24.964  24.934   2.703
40553W        W13621  18.636  17.169   4.510
40554W        W13622  37.639  41.772  11.574
40555W        W13623  40.943  40.826  10.747
40556W        W13624  10.162  35.610   3.427
40557W        W13625  13.805  41.898  11.176
40558W        W13626  37.981  14.771  14.388
40559W        W13627  23.443  40.498  11.469
40560W        W13628  23.981  29.555   1.040
40561W        W13629   7.396  43.219  14.031
40562W        W13630  29.695  16.578  12.143
40563W        W13631  26.260   4.813  11.997
40564W        W13632  34.020  20.691   3.542
40565W        W13633  20.479  38.490  14.795
40566W        W13634  29.426  42.985  13.034
40567W        W13635  40.309  18.182  12.090
40568W        W13636  29.817  37.988  13.330
40569W        W13637  27.591   1.947  12.595
40570W        W13638  18.579  11.080  12.403
40571W        W13639   3.791  20.694  10.916
40572W        W13640  18.890  43.220  10.190
40573W        W13641  10.815   2.664  11.143
40574W        W13642  22.529  38.454  11.813
40575W        W13643  44.728  38.112  14.974
40576W        W13644  11.360   3.831   2.941
40577W        W13645  25.013  19.677  11.940
40578W        W13646   8.711   3.297  12.096
40579W        W13647  18.656  18.711   1.286
40580W        W13648   1.498   6.139  12.066
40581W        W13649  37.637   8.955   0.489
40582W        W13650   3.317  19.377  14.909
40583W        W13651  28.144  38.814   0.730
40584W        W13652  16.033  20.205  11.888
40585W        W13653  35.723  30.742  11.455
40586W        W13654  19.322  11.137   3.529
40587W        W13655  33.622  20.329   3.436
40588W        W13656  15.573   5.162   0.859
40589W        W13657   1.746   1.285  13.021
40590W        W13658  17.282  25.295  11.110
40591W        W13659  12.589  33.470  12.972
40592W        W13660  42.960   3.642  14.268
40593W        W13661   8.323  12.743   4.662
40594W        W13662  29.979  35.876  13.472
40595W        W13663  27.952   7.127  11.458
40596W        W13664   9.689  37.453   0.943
40597W        W13665  11.099  26.990   4.147
40598W        W13666   6.449   6.091  14.567
40599W        W13667  27.200  32.800  14.405
40600W        W13668  17.251   4.166  12.110
40601W        W13669  36.681  25.975   0.487
40602W        W13670  38.978  11.354  14.042
40603W        W13671   6.211  13.248   2.202
40604W        W13672  18.063  31.385   0.341
40605W        W13673  18.886  18.494  14.761
40606W        W13674  29.157   5.371  14.547
40607W        W13675   5.649  37.629   3.165
40608W        W13676  29.558  24.663   4.489
40609W        W13677   3.967  19.831   1.270
40610W        W13678   0.463  21.785  12.432
40611W        W13679  32.673  21.741  11.053
40612W        W13680  35.499  10.208  11.357
40613W        W13681  21.139   3.490   3.297
40614W        W13682  10.649  36.497   3.375
40615W        W13683  32.494  21.561  10.585
40616W        W13684   6.157  32.595   2.337
40617W        W13685   0.947  29.168  10.640
40618W        W13686   5.156  39.993  12.052
40619W        W13687  27.513  38.347   0.451
40620W        W13688   7.421  41.313   4.618
40621W        W13689  14.695  19.380   1.405
40622W        W13690  27.252  30.903   1.526
40623W        W13691   8.687  22.800  12.546
40624W        W13692   1.516   1.990   1.851
40625W        W13693  20.866  11.706   4.145
40626W        W13694  43.266  21.837  13.276
40627W        W13695  13.896  41.057   1.710
40628W        W13696   7.785  41.131   1.228
40629W        W13697   2.001  23.694  10.599
40630W        W13698   5.149  29.688   0.800
40631W        W13699  27.707  23.247   4.455
40632W        W13700  27.795   0.472  12.395
40633W        W13701  13.759  17.795   0.569
40634W        W13702   5.451  33.658   2.375
40635W        W13703  11.878  41.720   1.213
40636W        W13704  21.090  23.929   3.338
40637W        W13705  39.856  29.985  14.538
40638W        W13706   8.462   1.538   1.368
40639W        W13707  43.194  36.615   0.989
40640W        W13708   2.589   0.267   4.179
40641W        W13709   1.003  11.597  12.077
40642W        W13710   8.347  10.462  11.843
40643W        W13711  28.478   4.416  10.773
40644W        W13712  10.179  18.261   0.492
40645W        W13713  36.688  36.127  11.003
40646W        W13714  10.793  34.120   4.673
40647W        W13715  23.295  17.507  10.233
40648W        W13716  39.629  26.686  14.823
40649W        W13717  37.632  27.163   4.636
40650W        W13718   6.848  33.313   5.027
40651W        W13719  20.570  42.008  12.066
40652W        W13720  19.335  34.496   1.733
40653W        W13721  30.061  27.247   1.809
40654W        W13722  38.880  34.983  12.532
40655W        W13723  40.309  27.931   3.331
40656W        W13724  32.376  16.589   3.288
40657W        W13725  21.864  25.621   3.519
40658W        W13726   6.813  10.025  14.240
40659W        W13727   5.779  24.729   2.363
40660W        W13728  11.588  31.964  11.121
40661W        W13729  35.565  29.998  10.832
40662W        W13730  38.821   5.274   1.891
40663W        W13731  22.720   6.227   3.164
40664W        W13732  34.573  41.412   3.199
40665W        W13733   5.305  24.207  13.038
40666W        W13734  23.712  12.296  10.599
40667W        W13735  43.289  34.807  10.708
40668W        W13736  33.818  26.533   1.256
40669W        W13737  36.554  38.902   2.387
40670W        W13738  10.329  29.905   3.157
40671W        W13739  27.707  37.855  13.361
40672W        W13740  10.273  33.115   3.356
40673W        W13741  28.649  42.569  11.666
40674W        W13742   1.837  25.515  10.718
40675W        W13743  37.345  44.748  11.724
40676W        W13744   8.421  10.826  14.320
40677W        W13745  27.110   0.911   2.429
40678W        W13746   9.678  32.988  13.523
40679W        W13747  20.988  31.561   2.730
40680W        W13748  36.610  43.947   3.359
40681W        W13749  15.552  13.462   0.539
40682W        W13750  23.587   1.415   0.351
40683W        W13751  28.648  12.399  11.690
40684W        W13752  33.942  25.525  13.452
40685W        W13753   4.196  32.938   1.402
40686W        W13754   9.205  26.404  14.110
40687W        W13755  39.943  23.244   3.916
40688W        W13756  32.089  41.456   1.717
40689W        W13757  19.210  33.667  12.978
40690W        W13758   6.379  21.545  12.941
40691W        W13759  40.012  42.034   0.843
40692W        W13760  29.418  19.198  11.111
40693W        W13761  24.244  23.244   1.351
40694W        W13762  37.972  30.721   0.986
40695W        W13763  40.587  19.516   1.276
40696W        W13764   3.463  36.945  13.925
40697W        W13765  34.850   1.353   3.168
40698W        W13766   2.459  23.029   1.881
40699W        W13767  33.146   4.141   4.827
40700W        W13768  41.540   7.963   2.681
40701W        W13769  19.265   7.721   4.580
40702W        W13770  44.354  39.392   0.811
40703W        W13771   4.880  32.957  13.373
40704W        W13772   7.428  31.516   0.806
40705W        W13773  26.534  22.123  11.982
40706W        W13774   4.747   1.722  12.551
40707W        W13775  38.365  27.585   2.704
40708W        W13776  10.303  24.530  12.979
40709W        W13777   8.422  12.631   0.438
40710W        W13778   2.870  29.309  14.673
40711W        W13779  19.477  17.761   2.021
40712W        W13780  40.463  13.096   4.851
40713W        W13781  21.685  31.493   3.387
40714W        W13782  17.076  34.547   4.169
40715W        W13783  44.060   9.031   2.828
40716W        W13784  29.328  40.084  10.600
40717W        W13785  38.274  36.821  13.384
40718W        W13786  34.343  10.649  14.390
40719W        W13787  16.328   6.280   0.275
40720W        W13788  14.821  20.849  10.010
40721W        W13789  25.762   1.262   2.412
40722W        W13790  28.972   8.979  13.565
40723W        W13791  14.167  17.676  14.432
40724W        W13792  23.255  40.595  13.617
40725W        W13793  44.438  13.712   3.625
40726W        W13794   6.101   8.219   3.647
40727W        W13795  21.022   3.892   1.477
40728W        W13796  22.107  43.391   0.558
40729W        W13797  36.960  37.377   2.383
40730W        W13798  40.425  18.756   2.706
40731W        W13799  39.887  34.456   3.656
40732W        W13800  44.455  39.566   3.847
40733W        W13801  31.159  32.429   0.303
40734W        W13802  16.485  44.219   0.332
40735W        W13803  28.082   4.874   2.007
40736W        W13804   1.957   5.267   3.184
40737W        W13805   7.221  38.908   1.239
40738W        W13806  44.889  29.875   3.212
40739W        W13807  40.973  34.327  11.881
40740W        W13808  44.731  27.231  11.146
40741W        W13809  11.287  20.146   0.431
40742W        W13810   2.945  41.632   4.459
40743W        W13811  30.072  14.378   3.792
40744W        W13812  36.042  24.953   1.871
40745W        W13813  22.081   6.713   4.275
40746W        W13814  34.358   5.690   0.820
40747W        W13815  31.249  20.766  12.465
40748W        W13816   5.812  19.527   4.382
40749W        W13817  10.829   2.526   2.373
40750W        W13818  27.409  33.079  14.787
40751W        W13819  37.985   3.138  14.428
40752W        W13820   3.925   7.471   3.249
40753W        W13821  40.443  34.004  13.613
40754W        W13822   8.804  30.885   4.623
40755W        W13823  17.659   0.913  11.504
40756W        W13824   9.132  25.130   4.626
40757W        W13825  10.802  37.970  13.795
40758W        W13826  11.137  32.376   0.245
40759W        W13827  28.049  23.036  11.415
40760W        W13828  39.062  13.349   0.026
40761W        W13829   8.601  30.605  12.497
40762W        W13830  20.533  10.877   1.169
40763W        W13831  43.033   3.353   3.104
40764W        W13832  34.624  21.647   3.087
40765W        W13833   7.934  43.958   0.407
40766W        W13834  32.155   2.203   1.383
40767W        W13835  37.852  38.363  11.299
40768W        W13836  36.165  14.342  11.321
40769W        W13837  15.157  20.099   4.107
40770W        W13838   1.231   9.369   2.372
40771W        W13839  40.509  38.423  13.023
40772W        W13840  26.533  19.646  11.145
40773W        W13841   0.854  35.892  10.503
40774W        W13842   2.224   6.472  11.373
40775W        W13843  42.804  33.648   4.208
40776W        W13844  13.337  23.902  13.392
40777W        W13845  32.655  44.786   4.621
40778W        W13846  39.031  29.652  10.321
40779W        W13847  22.086  35.054   0.217
40780W        W13848  33.016  17.096   4.976
40781W        W13849  20.018  11.854  14.292
40782W        W13850  30.658  24.120  12.383
40783W        W13851  21.718  17.063  10.527
40784W        W13852  29.642   0.461  14.798
40785W        W13853  28.437  20.529  14.186
40786W        W13854  27.388   3.767   4.337
40787W        W13855  22.405  33.754   2.610
40788W        W13856  18.052  15.657  10.509
40789W        W13857  15.604  25.214  10.778
40790W        W13858  21.089  23.229   0.861
40791W        W13859  20.991  32.694  11.590
40792W        W13860  21.751  19.684   0.901
40793W        W13861  24.624  18.717   3.197
40794W        W13862   6.842  27.791   1.904
40795W        W13863   5.428  17.693  10.642
40796W        W13864  10.818  44.355  11.464
40797W        W13865  14.846  25.801   2.289
40798W        W13866  36.749  28.968  14.391
40799W        W13867  35.319  38.941   0.895
40800W        W13868  34.599  36.904  13.496
40801W        W13869  32.130  12.601   2.919
40802W        W13870   4.224   8.939  13.991
40803W        W13871  22.217  43.751   2.385
40804W        W13872  44.740  27.595   1.925
40805W        W13873  20.703  25.160  13.973
40806W        W13874  37.893  39.515  10.544
40807W        W13875  39.133   4.284   0.988
40808W        W13876  35.017  16.136  14.883
40809W        W13877  13.607  27.496  10.763
40810W        W13878  19.221  30.685  13.167
40811W        W13879  41.824  12.904  12.093
40812W        W13880   1.911   1.457   4.074
40813W        W13881  35.372  39.813   2.440
40814W        W13882  33.123   9.418  11.654
40815W        W13883  42.109  15.013  12.984
40816W        W13884  40.878   3.029  11.659
40817W        W13885  41.202  39.968  11.164
40818W        W13886  11.081  22.019   3.592
40819W        W13887  37.376  17.678   4.640
40820W        W13888   4.058   7.840   0.423
40821W        W13889  12.109   5.908   4.193
40822W        W13890  28.987  37.856  12.480
40823W        W13891  38.233  30.919   4.152
40824W        W13892  20.240  11.639   3.004
40825W        W13893  12.777  25.297  11.046
40826W        W13894  26.926  11.729   2.429
40827W        W13895  10.105  44.942   4.078
40828W        W13896  42.003  30.750   1.294
40829W        W13897  25.001  14.399   2.743
40830W        W13898  23.166  21.507   2.053
40831W        W13899  26.098   4.141  10.617
40832W        W13900  36.341  21.482   1.936
40833W        W13901  16.654  14.394   4.187
40834W        W13902  39.459  38.056   4.740
40835W        W13903   9.243  34.756   0.977
40836W        W13904  35.926  15.784  10.989
40837W        W13905  12.746  32.076  12.632
40838W        W13906  39.035   6.636   0.925
40839W        W13907  25.826  18.408  11.153
40840W        W13908  10.059  22.048  12.576
40841W        W13909  29.229  37.415  12.460
40842W        W13910  16.799  28.592  12.452
40843W        W13911  31.865  42.884  10.241
40844W        W13912  15.111  33.538   1.506
40845W        W13913   8.341  15.202   4.757
40846W        W13914  16.820  17.164  13.835
40847W        W13915   5.323  34.525  11.617
40848W        W13916  19.752   6.639   4.114
40849W        W13917  17.733  38.594   4.692
40850W        W13918  16.473  43.879  11.884
40851W        W13919  15.665  41.515  12.921
40852W        W13920  26.421  44.997   1.584
40853W        W13921  26.886  22.091   1.380
40854W        W13922   7.871  25.036  13.365
40855W        W13923   0.068  34.953   0.321
40856W        W13924  15.688  40.989  12.897
40857W        W13925  19.528  44.268   4.389
40858W        W13926  23.548   8.071   1.387
40859W        W13927  40.872  39.573  11.126
40860W        W13928  24.079  18.490   2.328
40861W        W13929  43.833  14.589  11.454
40862W        W13930   0.222  26.965   3.654
40863W        W13931   8.369  41.615  10.267
40864W        W13932  42.888  25.318  11.069
40865W        W13933  12.171  31.881  10.374
40866W        W13934   5.935   7.475  11.900
40867W        W13935  34.302   2.396  12.087
40868W        W13936  38.328  35.872   4.137
40869W        W13937  32.575  29.580   0.855
40870W        W13938  26.314  33.490  12.103
40871W        W13939  24.542  21.730   4.489
40872W        W13940  16.645   9.193  13.072
40873W        W13941  41.088  37.231   3.665
40874W        W13942  26.264  21.959   2.906
40875W        W13943  27.735   3.274   2.757
40876W        W13944  44.803   8.595   0.952
40877W        W13945  44.550  43.544  12.184
40878W        W13946  27.584  44.247  13.815
40879W        W13947  37.041  21.312   0.334
40880W        W13948   9.720   2.735  13.805
40881W        W13949  23.016  19.522  10.624
40882W        W13950   5.279   5.425   1.725
40883W        W13951  40.602  28.564  10.849
40884W        W13952  31.474   8.235  11.094
40885W        W13953  26.656  39.291   3.902
40886W        W13954  10.171  19.153   2.335
40887W        W13955  33.778  24.015   3.769
40888W        W13956  18.336  34.508  12.133
40889W        W13957  21.073  40.604   3.193
40890W        W13958  41.685  32.778   0.750
40891W        W13959  16.286  16.699   0.831
40892W        W13960  20.068   1.661   3.212
40893W        W13961  27.531  22.546  14.308
40894W        W13962  17.824  21.769   1.154
40895W        W13963  31.436   6.887   0.081
40896W        W13964   9.273  29.981  12.100
40897W        W13965  17.358  20.120   0.078
40898W        W13966  19.245   5.400   3.403
40899W        W13967  19.518  21.943   3.583
40900W        W13968  44.891  18.277   0.356
40901W        W13969  42.061   1.413   3.296
40902W        W13970   3.783   0.298  11.376
40903W        W13971   7.861  32.383  11.646
40904W        W13972  16.585  27.491  13.832
40905W        W13973  25.792  34.158  11.209
40906W        W13974  11.069   2.257   1.606
40907W        W13975  37.379  24.690  11.010
40908W        W13976   8.458  31.654  13.409
40909W        W13977  44.403  17.808  12.061
40910W        W13978  40.991  27.673   3.250
40911W        W13979  33.355   6.784   3.191
40912W        W13980   9.664  14.730   1.696
40913W        W13981   2.407   8.671   4.486
40914W        W13982  13.530   6.487  11.132
40915W        W13983  32.105  22.339  13.525
40916W        W13984   7.157   0.761  14.377
40917W        W13985  39.997  35.536   2.702
40918W        W13986  31.064  28.178   0.732
40919W        W13987   7.070  11.868  14.933
40920W        W13988  20.074  38.908  12.102
40921W        W13989  40.724  15.688   1.634
40922W        W13990  29.430   1.784  14.511
40923W        W13991   0.193  22.670   0.661
40924W        W13992  23.861  27.099   0.204
40925W        W13993  11.540  35.938  13.621
40926W        W13994  25.067  29.967  12.444
40927W        W13995  15.392   0.235   2.348
40928W        W13996  40.635   6.070   5.168
40929W        W13997  10.215  41.816  11.718
40930W        W13998  12.339  34.201   2.689
40931W        W13999  27.095   1.192   4.178
40932W        W14000  26.393   2.344   5.093
40933W        W14001   6.392  37.097   2.995
40934W        W14002   3.077   7.488   0.398
40935W        W14003  25.631  28.368   2.929
40936W        W14004  35.721  38.848   3.344
40937W        W14005  44.782  15.590   4.707
40938W        W14006  40.254  15.696  11.444
40939W        W14007  11.302  44.186  11.386
40940W        W14008  27.189  17.143   0.376
40941W        W14009   8.823  13.535  12.037
40942W        W14010  39.529   5.280   2.379
40943W        W14011  30.226  17.261  14.806
40944W        W14012   5.340  19.753   3.777
40945W        W14013   6.897  23.027  12.198
40946W        W14014  17.073   4.779  11.020
40947W        W14015   7.700  14.940   1.682
40948W        W14016  22.245   8.344  13.593
40949W        W14017  18.346  39.472   1.135
40950W        W14018  34.047  14.520   1.772
40951W        W14019  40.760  25.587  10.713
40952W        W14020  16.283  42.730   2.419
40953W        W14021  23.960  26.451   5.217
40954W        W14022   4.190  30.373  14.314
40955W        W14023   5.271  36.948  13.321
40956W        W14024  24.211  35.499  11.963
40957W        W14025  10.027  22.569  12.682
40958W        W14026  30.579  44.115   4.215
40959W        W14027  17.297   2.289   0.706
40960W        W14028  15.589   2.441   0.745
40961W        W14029   0.843   3.817   4.425
40962W        W14030   6.871  33.958  13.357
40963W        W14031  35.431  11.797   3.380
40964W        W14032  28.475  13.530  12.484
40965W        W14033  26.196  21.789   1.729
40966W        W14034  26.763  39.501  14.818
40967W        W14035  34.055  17.298   1.292
40968W        W14036  20.051   1.882  13.815
40969W        W14037  36.071  10.298   2.248
40970W        W14038   6.831   2.045  11.657
40971W        W14039   4.404   6.889  14.414
40972W        W14040  29.057  28.061  13.674
40973W        W14041  37.573   5.677   1.372
40974W        W14042  13.679  11.149  14.024
40975W        W14043  22.197  39.445  12.034
40976W        W14044  39.435   4.294  10.785
40977W        W14045  14.338  10.800  13.443
40978W        W14046  35.042   3.812   1.621
40979W        W14047  12.835  30.092   4.164
40980W        W14048   3.042  25.965   2.836
40981W        W14049  28.915   0.744  12.486
40982W        W14050  36.874   3.444  13.883
40983W        W14051  43.627  29.585  12.503
40984W        W14052   0.700  37.084   4.531
40985W        W14053  29.400  21.146  13.028
40986W        W14054   2.495  27.082  10.865
40987W        W14055  14.891  10.206  13.747
40988W        W14056  34.322   9.231  12.848
40989W        W14057  11.586  32.060   3.730
40990W        W14058  11.311  19.686   9.606
40991W        W14059  40.269   3.292   4.972
40992W        W14060  39.471  27.353   4.268
40993W        W14061  16.125  17.093  12.059
40994W        W14062  17.795   8.389  13.086
40995W        W14063  27.686  11.677   4.936
40996W        W14064  15.496  32.580   2.202
40997W        W14065  43.771  22.438  13.127
40998W        W14066  39.970  44.363   1.409
40999W        W14067  25.471  29.789  14.722
41000W        W14068   6.818   9.682   0.196
41001W        W14069  38.252  30.239   0.733
41002W        W14070   2.363   8.398   1.322
41003W        W14071  13.411  32.681  11.283
41004W        W14072  34.379   4.896  11.428
41005W        W14073  24.728  44.396  12.009
41006W        W14074  37.043  15.520  10.376
41007W        W14075  18.977  27.728   4.607
41008W        W14076  20.409  40.050   4.186
41009W        W14077  29.336   6.225  10.858
41010W        W14078  30.366  22.744  14.429
41011W        W14079  14.250  34.478  11.524
41012W        W14080  29.131  19.651   3.414
41013W        W14081  13.075  26.187  10.761
41014W        W14082   8.788  41.533   4.631
41015W        W14083  20.734   8.363   3.300
41016W        W14084  13.042  22.011  13.452
41017W        W14085   6.932  28.576   1.401
41018W        W14086  30.162  40.994  11.786
41019W        W14087   1.981  36.956   1.781
41020W        W14088  10.309  33.340   3.846
41021W        W14089   3.865  36.072  10.674
41022W        W14090  27.143  30.083   1.951
41023W        W14091   8.156  26.641   1.405
41024W        W14092  27.880  23.487  11.135
41025W        W14093  27.102   6.183   0.960
41026W        W14094  28.637  30.512  13.586
41027W        W14095  26.496  40.474  12.317
41028W        W14096  17.450   8.454  14.796
41029W        W14097  29.259  12.728  13.092
41030W        W14098  15.147  25.241   2.698
41031W        W14099  37.432  36.491  12.087
41032W        W14100  39.680   1.930  10.173
41033W        W14101  38.729  22.985  14.332
41034W        W14102  29.451  28.955   2.461
41035W        W14103  13.624  20.010  13.805
41036W        W14104  12.799  19.560  13.020
41037W        W14105  14.777  33.995  12.494
41038W        W14106  39.504  30.434   4.535
41039W        W14107  24.336  44.514  13.910
41040W        W14108  10.868  32.648   2.741
41041W        W14109  32.429   9.450   3.617
41042W        W14110  33.975  13.015   0.894
41043W        W14111  12.320  40.842   0.875
41044W        W14112  36.050  26.077  14.942
41045W        W14113  22.915  38.875  13.095
41046W        W14114  30.037  31.766  14.913
41047W        W14115   2.508  21.616  11.664
41048W        W14116  14.223  44.171   1.895
41049W        W14117   7.839  12.822  12.712
41050W        W14118  21.795  35.848  12.153
41051W        W14119  11.315   0.914   1.640
41052W        W14120  44.233  11.281  11.693
41053W        W14121  14.876  38.461  12.890
41054W        W14122  41.391   8.980   2.899
41055W        W14123  16.700   8.784  13.893
41056W        W14124  16.796   7.563   3.553
41057W        W14125  27.881  38.007  11.597
41058W        W14126  22.715  29.494   4.544
41059W        W14127  11.154  17.666   3.157
41060W        W14128  21.629  20.515  14.681
41061W        W14129  31.908   1.468   0.861
41062W        W14130  44.440  39.401   2.870
41063W        W14131  30.185  31.102   2.021
41064W        W14132   1.335  25.496   3.714
41065W        W14133  36.799  34.764   0.990
41066W        W14134  20.166  31.422   2.256
41067W        W14135  21.740  13.491  10.985
41068W        W14136  33.031  21.463   1.723
41069W        W14137  41.745  25.694   3.701
41070W        W14138  22.231  13.626  13.495
41071W        W14139  40.895  44.708  13.736
41072W        W14140  19.580  19.563  14.352
41073W        W14141   7.157   5.705   1.743
41074W        W14142  43.838  34.880   2.634
41075W        W14143  24.525  31.438   2.883
41076W        W14144  25.152   3.810   3.702
41077W        W14145  29.196  13.724   2.883
41078W        W14146  28.386  43.370  14.407
41079W        W14147  25.063   2.992   1.087
41080W        W14148  27.503  17.307   1.860
41081W        W14149   8.718  27.620   2.746
41082W        W14150   9.343  30.099   3.505
41083W        W14151  16.126  42.262   4.629
41084W        W14152  25.662  15.030  11.571
41085W        W14153   6.736  31.970   0.228
41086W        W14154  18.501  37.740  12.594
41087W        W14155  23.113   9.154  10.797
41088W        W14156   0.053  27.273  11.553
41089W        W14157   6.211  20.651  13.358
41090W        W14158   4.301  37.818   2.353
41091W        W14159  16.002  24.092  12.838
41092W        W14160   9.624   4.046  11.167
41093W        W14161   4.527  38.116   4.571
41094W        W14162   6.291  17.296  12.348
41095W        W14163  31.643  11.326  13.270
41096W        W14164  20.026  41.295  12.161
41097W        W14165  28.467  44.837   1.811
41098W        W14166  11.105   3.841   1.492
41099W        W14167  31.922  29.601   4.216
41100W        W14168  18.817   3.171  13.430
41101W        W14169  40.304  28.048   0.995
41102W        W14170   7.190  13.089  10.826
41103W        W14171  23.575  43.696  11.580
41104W        W14172   3.487  44.130   5.060
41105W        W14173  16.147  41.536  14.261
41106W        W14174  44.609  14.314   4.179
41107W        W14175   6.637  44.027  12.465
41108W        W14176  40.543  13.290  13.463
41109W        W14177  33.515  12.541  12.578
41110W        W14178  21.561  22.089   4.709
41111W        W14179  22.984  44.424  10.323
41112W        W14180   4.433  39.490  14.919
41113W        W14181  19.151  30.981  10.881
41114W        W14182   8.632  24.732  10.661
41115W        W14183   7.920  39.457   2.379
41116W        W14184   5.218  43.963   4.471
41117W        W14185  26.145  44.341  12.251
41118W        W14186   1.298  37.610   1.167
41119W        W14187   4.495  43.572   1.252
41120W        W14188  35.313  16.736  11.716
41121W        W14189  31.225  39.276   1.261
41122W        W14190  32.255  44.261   0.121
41123W        W14191  41.622  41.304  11.213
41124W        W14192  40.025  30.113   0.029
41125W        W14193  27.263  30.805  14.297
41126W        W14194  22.076  32.919   0.227
41127W        W14195  26.672  19.554  10.627
41128W        W14196  32.486  27.680   0.310
41129W        W14197  10.056  31.295   3.217
41130W        W14198  11.262  44.065  12.032
41131W        W14199  36.074  34.311   2.003
41132W        W14200  36.175  43.062  14.942
41133W        W14201   9.288   0.522  13.484
41134W        W14202  28.925  33.157  11.141
41135W        W14203  29.233   4.892  11.619
41136W        W14204  39.305  25.487   0.779
41137W        W14205   0.903  21.587  12.569
41138W        W14206  33.500  29.135   3.189
41139W        W14207   8.139  31.536   1.587
41140W        W14208  29.594   2.462  10.737
41141W        W14209  10.398  25.211   3.142
41142W        W14210  31.943   3.857   0.867
41143W        W14211  41.394  36.769  14.485
41144W        W14212  27.923  10.208  12.500
41145W        W14213  35.188  11.693   2.914
41146W        W14214  16.030  16.766   3.690
41147W        W14215  39.302  37.007   0.461
41148W        W14216  44.352  31.234  12.057
41149W        W14217   8.839  10.468   3.280
41150W        W14218  27.248  20.033  11.605
41151W        W14219   3.333  41.556  13.404
41152W        W14220  29.950  28.137  13.446
41153W        W14221  12.803   1.358  10.479
41154W        W14222  28.652   6.949   3.268
41155W        W14223  15.970  34.432   1.349
41156W        W14224  35.148  13.774  14.449
41157W        W14225   3.443   1.879   1.664
41158W        W14226  30.934  13.216   2.824
41159W        W14227  36.626  28.197  12.955
41160W        W14228  42.339   8.264  10.897
41161W        W14229  27.045  17.771  12.878
41162W        W14230   3.685  22.993   2.673
41163W        W14231  35.534  39.139  14.902
41164W        W14232  39.348  19.262  12.436
41165W        W14233  14.908  38.285   1.358
41166W        W14234  43.358  34.961  11.587
41167W        W14235  12.283  15.486  12.312
41168W        W14236   9.107  19.234  13.415
41169W        W14237  44.544  38.540  12.027
41170W        W14238  20.172   3.991   1.370
41171W        W14239  38.930  28.340   1.225
41172W        W14240  13.417  41.387   1.300
41173W        W14241  41.788  29.010  14.440
41174W        W14242   7.279  21.475   3.263
41175W        W14243   3.380  27.136  11.463
41176W        W14244   8.785   5.284   2.349
41177W        W14245  33.084  26.848   0.844
41178W        W14246   8.185  16.284  12.306
41179W        W14247  27.704  25.514   2.795
41180W        W14248  23.209  26.712  14.437
41181W        W14249  39.958  13.999  13.790
41182W        W14250   5.345  35.485   3.126
41183W        W14251  41.538  13.341  10.424
41184W        W14252   1.100  31.387   4.149
41185W        W14253   0.026  28.477   2.387
41186W        W14254  27.754  19.522  11.043
41187W        W14255   3.737  33.361   4.601
41188W        W14256  39.611  33.969   4.727
41189W        W14257   1.499  19.649  13.101
41190W        W14258  29.708  19.748  12.246
41191W        W14259  35.355   9.295  14.848
41192W        W14260   5.999  20.626  14.387
41193W        W14261   5.526  14.327  13.487
41194W        W14262  18.660  36.388  14.298
41195W        W14263  17.203  14.542   3.223
41196W        W14264   2.865  42.100   0.225
41197W        W14265  30.088  41.632  12.002
41198W        W14266   0.455   3.882   2.695
41199W        W14267   4.715   1.298   1.488
41200W        W14268  44.807  40.377  14.865
41201W        W14269  41.407  32.745   0.296
41202W        W14270  36.459  19.750   4.097
41203W        W14271  26.089   2.832   0.699
41204W        W14272  37.951  21.616   3.588
41205W        W14273  13.733  39.515   4.686
41206W        W14274  17.976  40.569  13.027
41207W        W14275  32.659  36.841   0.432
41208W        W14276  39.084  16.815  11.537
41209W        W14277  41.298  25.743  11.425
41210W        W14278   9.447  42.531  14.010
41211W        W14279  39.347   9.383   1.166
41212W        W14280   9.822  40.622   2.177
41213W        W14281  42.415  39.153   4.165
41214W        W14282   1.356  22.277   3.101
41215W        W14283  28.013   3.941   3.521
41216W        W14284  32.480   0.244  14.211
41217W        W14285  38.804  29.968   1.371
41218W        W14286  20.092  34.734  13.318
41219W        W14287  21.680   9.635   1.288
41220W        W14288   1.263  42.918   1.803
41221W        W14289  16.735  14.699   3.408
41222W        W14290  18.361   6.261  12.249
41223W        W14291  22.342  17.399   4.108
41224W        W14292  24.952  35.644  12.495
41225W        W14293   8.152  21.169  14.519
41226W        W14294   0.413  35.356   4.094
41227W        W14295  28.198   3.149  12.260
41228W        W14296   1.575  29.726  14.312
41229W        W14297  42.595  38.106  12.922
41230W        W14298  38.529  28.482   3.283
41231W        W14299  17.790  22.904   0.318
41232W        W14300  41.005  43.993   3.626
41233W        W14301  13.704  27.140   2.364
41234W        W14302  43.062  15.663   4.044
41235W        W14303  18.683  16.076   0.983
41236W        W14304  28.877  19.388   2.647
41237W        W14305  41.494   6.232   2.261
41238W        W14306  31.221  33.148   2.897
41239W        W14307  19.128  32.079  13.101
41240W        W14308  41.537   2.170   4.262
41241W        W14309  16.521   8.944   3.850
41242W        W14310  34.893   8.596   0.376
41243W        W14311  21.666  27.000   1.488
41244W        W14312  40.256  23.168   1.698
41245W        W14313   0.321  11.572  10.964
41246W        W14314  30.535  22.088   4.008
41247W        W14315  35.874  15.888  14.351
41248W        W14316   2.815  20.571  10.485
41249W        W14317  24.979  34.121   0.730
41250W        W14318  15.685  16.331  10.096
41251W        W14319  18.430  35.343   0.753
41252W        W14320  42.658  40.010  11.890
41253W        W14321  21.534   6.721   2.754
41254W        W14322  14.202   1.500  13.294
41255W        W14323  38.865   5.774   1.896
41256W        W14324  21.493   5.716   1.263
41257W        W14325  36.462  26.111  12.209
41258W        W14326  22.143  10.393  12.584
41259W        W14327  30.951  21.704  14.004
41260W        W14328  10.057   9.215  11.721
41261W        W14329  10.003   6.100   2.695
41262W        W14330  22.820  23.547  14.091
41263W        W14331  17.701  38.146   3.741
41264W        W14332  24.242  39.487   0.923
41265W        W14333  33.870  39.214   2.349
41266W        W14334  44.845  14.308  14.860
41267W        W14335   9.662  11.071   0.285
41268W        W14336  31.402  39.903  10.079
41269W        W14337  29.183  11.293  12.366
41270W        W14338  36.440   4.164   3.994
41271W        W14339  34.939  17.583   0.841
41272W        W14340  25.568  29.980   4.539
41273W        W14341  28.042  15.724   2.229
41274W        W14342   3.524  21.126  11.006
41275W        W14343  10.829  17.088  10.975
41276W        W14344   8.845  16.299  11.190
41277W        W14345  44.303  33.468  11.344
41278W        W14346  36.803  19.577  14.946
41279W        W14347   7.963  41.665  14.478
41280W        W14348   0.898  44.768  12.672
41281W        W14349  24.206  43.993  12.836
41282W        W14350  24.189  31.544  12.946
41283W        W14351   3.887  11.893   4.561
41284W        W14352   2.811  30.475   4.545
41285W        W14353  21.213  31.156   3.246
41286W        W14354   3.361  40.552  11.876
41287W        W14355   8.247  13.009  14.393
41288W        W14356  39.080  24.229  13.854
41289W        W14357   8.015  34.466  14.367
41290W        W14358  36.508  42.202   4.083
41291W        W14359  24.843  36.621  11.739
41292W        W14360  42.986  36.305  10.279
41293W        W14361  40.817  18.136  12.134
41294W        W14362  34.912  29.064  11.179
41295W        W14363   3.722  36.246  11.976
41296W        W14364  39.631   0.235  12.545
41297W        W14365  11.307  27.642  14.879
41298W        W14366  44.313  14.064  10.754
41299W        W14367  40.975  44.948   4.148
41300W        W14368  37.296  32.172  12.930
41301W        W14369  43.009  10.461  11.927
41302W        W14370  35.424  35.125   1.065
41303W        W14371   0.920  37.099   0.326
41304W        W14372  25.545  23.034  11.120
41305W        W14373  15.830   1.482   4.176
41306W        W14374  43.381  38.386   2.662
41307W        W14375  43.157  29.192  12.089
41308W        W14376  28.623   3.895  14.314
41309W        W14377   4.261  29.050   2.380
41310W        W14378  27.707   8.857   2.784
41311W        W14379   1.857  22.158   2.868
41312W        W14380  36.495   7.982   3.627
41313W        W14381  40.062  39.976  11.496
41314W        W14382  16.212  40.367   0.259
41315W        W14383  21.000  17.371   4.262
41316W        W14384  26.188  35.524  12.930
41317W        W14385  44.120  19.198   4.708
41318W        W14386  43.057  40.564  11.283
41319W        W14387   4.918  40.642   3.219
41320W        W14388  36.964  13.820  12.016
41321W        W14389  39.504  12.766  11.886
41322W        W14390   7.796  33.621   3.965
41323W        W14391   8.393  38.377   2.397
41324W        W14392  34.687  25.058   2.898
41325W        W14393  33.910  17.816  11.066
41326W        W14394  27.407  19.902   0.527
41327W        W14395  13.624  14.155  11.185
41328W        W14396  26.997  30.072   4.829
41329W        W14397   4.243  36.991   2.683
41330W        W14398  14.988  26.917  10.992
41331W        W14399  11.356  15.761   4.101
41332W        W14400   0.485  22.156  12.039
41333W        W14401  36.480  17.815   3.372
41334W        W14402  29.695  28.944  13.515
41335W        W14403  33.656   7.019   1.298
41336W        W14404   9.682  44.358  13.796
41337W        W14405  31.245  44.578   5.103
41338W        W14406   6.199   0.837  12.211
41339W        W14407  21.119   0.040  10.994
41340W        W14408   6.976   7.021   2.769
41341W        W14409  14.237  34.992   1.763
41342W        W14410  27.130  17.329   3.753
41343W        W14411  26.378  38.521   1.337
41344W        W14412  29.141  18.593   4.237
41345W        W14413  27.704  20.325   0.460
41346W        W14414  28.450  25.716  12.603
41347W        W14415  38.994  42.287   2.306
41348W        W14416  22.009  25.150  10.737
41349W        W14417  11.401  16.470   5.024
41350W        W14418  27.592  15.450  11.930
41351W        W14419  41.885   0.707  10.983
41352W        W14420  27.900  35.041  14.281
41353W        W14421  14.617   1.941   3.197
41354W        W14422  39.738  31.062  12.800
41355W        W14423  38.925   6.247   2.059
41356W        W14424  36.455  29.973  11.609
41357W        W14425  32.582  44.977  11.871
41358W        W14426   8.533   9.052  13.045
41359W        W14427  28.990  44.871   4.088
41360W        W14428  18.319  27.979   2.323
41361W        W14429  35.423  37.968  14.898
41362W        W14430  33.347   8.303  14.364
41363W        W14431  15.844  23.650  12.498
41364W        W14432  22.630   6.880  12.095
41365W        W14433   8.288  12.853  11.795
41366W        W14434  17.966  37.495   0.392
41367W        W14435  33.008   0.837   2.957
41368W        W14436  18.004  22.490  10.916
41369W        W14437  41.575   6.861  13.178
41370W        W14438  33.910   9.408   0.024
41371W        W14439  11.851   5.293   1.804
41372W        W14440  28.776  16.796  12.023
41373W        W14441   0.873  34.896   0.860
41374W        W14442   0.266  31.421   4.537
41375W        W14443   2.791  40.779   1.778
41376W        W14444   8.348  42.892  10.655
41377W        W14445  20.133  14.134  14.542
41378W        W14446  13.912  31.100   1.432
41379W        W14447  37.149  36.886   9.914
41380W        W14448  21.705  30.693  12.565
41381W        W14449   6.675   4.906  12.027
41382W        W14450  42.618  14.754  11.106
41383W        W14451   3.272   0.934  13.538
41384W        W14452  18.550  21.256   1.751
41385W        W14453  44.015  13.800  12.630
41386W        W14454  10.648  10.744  12.530
41387W        W14455  15.351   5.437  14.792
41388W        W14456  35.067  15.301   2.201
41389W        W14457  10.182   1.613  14.915
41390W        W14458  31.147  35.608  14.832
41391W        W14459   8.782  29.947   0.346
41392W        W14460  39.232  19.238  11.574
41393W        W14461   5.209  38.986  13.433
41394W        W14462  10.348  35.525   1.468
41395W        W14463  39.326  10.897  11.462
41396W        W14464   7.049  36.004  10.694
41397W        W14465  38.237  12.726   4.390
41398W        W14466  22.976  42.448   4.210
41399W        W14467  20.580   7.598  14.023
41400W        W14468  35.543  23.720  12.965
41401W        W14469  13.915   7.355   2.129
41402W        W14470  11.208  37.391  14.853
41403W        W14471  30.990   2.189  10.696
41404W        W14472  20.670  12.995   3.740
41405W        W14473   7.323  21.508  12.912
41406W        W14474  31.295   7.424  13.048
41407W        W14475  38.010  25.708  10.592
41408W        W14476  22.468  41.584  13.966
41409W        W14477  15.226   4.455  13.878
41410W        W14478   9.711  25.724   0.526
41411W        W14479   7.808  28.945   4.126
41412W        W14480  43.191   2.388   3.401
41413W        W14481  29.539   4.195   4.270
41414W        W14482  31.435  23.998  14.412
41415W        W14483   1.402  38.463  11.656
41416W        W14484  29.628  44.242   2.178
41417W        W14485  29.940  37.015  12.153
41418W        W14486  22.310  12.907   4.221
41419W        W14487  38.134   9.101   2.313
41420W        W14488   2.219   6.913   0.347
41421W        W14489  17.216  39.373   0.486
41422W        W14490  42.328  35.902  13.937
41423W        W14491  26.924   3.915  14.047
41424W        W14492  40.660  36.786   4.725
41425W        W14493  20.019  34.890   2.896
41426W        W14494   3.150   8.007   0.389
41427W        W14495   2.809  18.042   1.247
41428W        W14496  31.561   0.195   4.346
41429W        W14497   3.968  27.461   2.119
41430W        W14498  36.628  11.598  12.369
41431W        W14499  27.637   4.378  11.193
41432W        W14500  36.435  44.617   3.891
41433W        W14501  40.960  15.779   4.013
41434W        W14502   6.206  17.818  13.164
41435W        W14503  34.981   3.714  13.743
41436W        W14504  40.079  15.854  10.056
41437W        W14505  20.309  17.282  11.622
41438W        W14506  25.452  31.921   2.163
41439W        W14507   0.121   5.241   3.713
41440W        W14508   2.365  26.649  12.563
41441W        W14509  31.523   2.625  13.304
41442W        W14510  40.816  31.854   4.036
41443W        W14511  22.219   5.922  13.432
41444W        W14512   1.671  14.804  12.573
41445W        W14513  20.175  31.288   3.204
41446W        W14514  28.590  25.995  11.224
41447W        W14515  14.252  23.931   4.224
41448W        W14516   6.664  22.736   2.403
41449W        W14517   7.215   5.125  12.456
41450W        W14518  19.736  33.615  12.933
41451W        W14519  17.005  11.217  11.764
41452W        W14520   7.409  27.656  10.609
41453W        W14521  38.766  35.449  14.286
41454W        W14522  27.529   7.735   3.984
41455W        W14523  11.711  11.293   4.608
41456W        W14524  26.694  44.546   1.302
41457W        W14525  29.525  35.104  13.510
41458W        W14526   1.192  16.160   3.732
41459W        W14527  25.056  31.944  13.024
41460W        W14528  20.556  20.033  11.094
41461W        W14529  24.073  41.518  11.244
41462W        W14530  24.278  35.541  11.073
41463W        W14531   0.778  33.176   4.000
41464W        W14532  42.550   3.160   3.262
41465W        W14533  19.134  15.274  14.841
41466W        W14534  28.416   2.516   4.188
41467W        W14535  43.016  14.971   1.893
41468W        W14536  15.985  11.641   1.360
41469W        W14537  18.248  15.977   4.860
41470W        W14538  14.697  38.523  10.632
41471W        W14539  26.591  11.908  12.065
41472W        W14540  39.045  32.893  14.032
41473W        W14541  36.987  13.816  12.866
41474W        W14542  36.101  10.903   4.270
41475W        W14543  11.629   6.654  12.042
41476W        W14544  20.517  24.478  11.683
41477W        W14545  44.416  31.084  11.583
41478W        W14546   8.793  18.177   1.080
41479W        W14547   2.707  22.977  14.397
41480W        W14548  39.032  25.817  12.979
41481W        W14549  29.540  21.613   3.358
41482W        W14550  32.113  19.557   0.090
41483W        W14551   5.281  37.023   0.307
41484W        W14552  18.831  33.153   4.089
41485W        W14553   9.241  14.321  12.540
41486W        W14554  18.618  34.632  10.287
41487W        W14555   2.329  38.378  10.594
41488W        W14556  30.308  26.333  12.337
41489W        W14557  36.801  14.082  13.256
41490W        W14558  23.088  36.484   4.584
41491W        W14559  23.777   3.838   1.815
41492W        W14560  21.979  32.171  12.024
41493W        W14561   4.304  18.023  13.952
41494W        W14562  36.125   9.728  12.956
41495W        W14563  29.625  17.545  10.750
41496W        W14564  14.845  11.330  11.505
41497W        W14565  36.893  16.095   2.322
41498W        W14566   3.270  18.964  10.628
41499W        W14567  15.102  23.307   1.566
41500W        W14568  35.547  24.072  14.477
41501W        W14569  36.640  31.484  12.045
41502W        W14570  36.407  22.742  12.217
41503W        W14571  25.098  27.561   3.500
41504W        W14572  33.844  35.898  10.781
41505W        W14573  40.290  25.309  14.933
41506W        W14574  36.848   6.369   4.107
41507W        W14575  13.766  31.472  10.939
41508W        W14576  36.990  25.703  11.606
41509W        W14577   8.752  16.727   1.834
41510W        W14578  19.264  40.354   1.403
41511W        W14579   7.779  31.887   4.639
41512W        W14580   1.226  15.405  11.023
41513W        W14581  14.346  17.266   3.824
41514W        W14582  27.730  37.528  12.441
41515W        W14583   0.012  22.970  11.590
41516W        W14584  16.599  36.593   3.631
41517W        W14585  44.750   5.390   1.490
41518W        W14586   0.873   7.762  10.359
41519W        W14587   1.454   7.919  14.909
41520W        W14588   5.298  17.706  13.141
41521W        W14589  26.894  36.055  12.480
41522W        W14590   6.742  43.703   0.856
41523W        W14591  20.175  27.630   3.155
41524W        W14592  44.784  29.503   4.814
41525W        W14593   9.357  42.557   1.424
41526W        W14594  42.476   0.355  12.107
41527W        W14595  29.113   4.949  13.774
41528W        W14596  15.364  10.734   4.658
41529W        W14597  28.424  34.677  10.763
41530W        W14598   3.201  39.438  13.908
41531W        W14599  43.421   4.249  14.264
41532W        W14600   6.153  21.786   3.932
41533W        W14601   7.138  25.135  14.487
41534W        W14602  21.200   2.110   4.135
41535W        W14603  27.312  27.100   1.877
41536W        W14604  12.418  35.624  13.954
41537W        W14605  21.470  33.008  11.838
41538W        W14606  21.808  34.879  11.872
41539W        W14607  23.087  36.503  13.600
41540W        W14608  16.891  29.614   4.469
41541W        W14609  32.339  12.439   3.847
41542W        W14610  26.700  38.914   0.196
41543W        W14611  19.966  13.927   3.253
41544W        W14612  30.885  30.364  13.866
41545W        W14613  30.127  36.556   0.734
41546W        W14614  40.800  44.344   2.060
41547W        W14615   8.462  25.435  14.673
41548W        W14616  12.518   3.432   3.874
41549W        W14617  25.591  44.312  11.057
41550W        W14618  25.467  20.275   0.952
41551W        W14619  16.827  29.523  12.464
41552W        W14620   9.185  37.883  12.861
41553W        W14621   3.258  12.861  12.190
41554W        W14622  39.417  38.699  14.287
41555W        W14623  40.042   9.235   3.661
41556W        W14624   3.265  37.080   0.308
41557W        W14625   5.134  20.845  14.349
41558W        W14626  17.904   1.234  14.868
41559W        W14627  16.660  19.056  13.880
41560W        W14628   1.022   5.447   2.268
41561W        W14629   9.000  20.074  13.321
41562W        W14630  17.849  32.551  14.807
41563W        W14631  41.433  19.654   1.409
41564W        W14632  41.927  44.710   4.214
41565W        W14633  31.815  16.592   3.768
41566W        W14634  36.206  16.663  14.789
41567W        W14635  40.892  44.145   3.122
41568W        W14636   7.215  11.275   0.533
41569W        W14637   4.458  39.413   2.678
41570W        W14638   4.310  35.324   1.876
41571W        W14639  34.015  43.279   0.241
41572W        W14640   1.515  41.439   1.198
41573W        W14641   0.290  30.998  11.360
41574W        W14642  10.893   1.327  12.455
41575W        W14643  18.813  15.994  11.911
41576W        W14644  23.777  17.671  13.858
41577W        W14645  31.466   3.891   2.794
41578W        W14646  24.123  17.315   0.544
41579W        W14647  26.539  23.927  12.822
41580W        W14648  19.049  31.042  11.390
41581W        W14649  39.502  23.979   2.130
41582W        W14650  12.784  30.602  12.982
41583W        W14651  16.050  26.033   2.699
41584W        W14652  36.975   8.389  10.619
41585W        W14653  18.934  22.462  11.368
41586W        W14654  25.578  27.384   4.768
41587W        W14655   5.162   5.591  13.326
41588W        W14656   0.311  39.835   1.772
41589W        W14657  30.172  35.117   2.681
41590W        W14658  34.490  29.985  11.121
41591W        W14659  37.351   1.732  13.469
41592W        W14660   2.398   4.659   5.023
41593W        W14661  23.281   9.590  13.603
41594W        W14662  31.699   5.250  12.453
41595W        W14663   2.210  22.343   4.162
41596W        W14664  41.852   8.614   3.352
41597W        W14665   9.383   3.009   2.364
41598W        W14666  27.326   2.042  10.584
41599W        W14667   3.929  21.445   4.858
41600W        W14668   7.252  35.803  11.120
41601W        W14669  17.807  41.471   3.204
41602W        W14670   4.183  17.648   0.858
41603W        W14671   5.915  44.609   0.609
41604W        W14672  19.599  32.373  11.099
41605W        W14673  41.706  42.443   0.418
41606W        W14674  37.776  15.199  13.743
41607W        W14675  20.469  17.224   1.408
41608W        W14676  29.827   4.517   2.413
41609W        W14677  11.711  29.197   3.332
41610W        W14678   7.752  25.959  11.845
41611W        W14679  25.686  18.928  11.127
41612W        W14680  24.187  44.546   0.474
41613W        W14681  29.175  35.556  13.609
41614W        W14682  35.126  11.372   0.792
41615W        W14683  35.418  41.827   1.349
41616W        W14684  33.971  30.968   2.904
41617W        W14685  42.954  25.134   2.271
41618W        W14686  30.090  28.986  13.870
41619W        W14687  34.399  20.867  10.789
41620W        W14688  16.679  16.074   4.763
41621W        W14689  15.588  14.047   1.470
41622W        W14690  25.919   7.274   1.386
41623W        W14691  36.095  37.298   1.732
41624W        W14692  44.711  41.100  12.449
41625W        W14693  44.615   4.977  11.235
41626W        W14694  14.876  34.587  12.188
41627W        W14695  17.733  25.112   3.803
41628W        W14696   4.518   7.392  14.388
41629W        W14697  32.020  36.106  10.899
41630W        W14698   3.203   7.373   3.715
41631W        W14699  12.711  37.806   4.197
41632W        W14700  37.068  42.440   3.282
41633W        W14701   9.776  19.020  13.864
41634W        W14702  20.942  18.796  11.279
41635W        W14703  39.067  13.614  12.895
41636W        W14704  18.763   1.375   3.151
41637W        W14705  40.760  43.367   0.239
41638W        W14706  35.484  10.104   4.386
41639W        W14707  10.379  18.305   1.943
41640W        W14708  24.674  29.188   3.451
41641W        W14709  21.702  41.471   2.229
41642W        W14710  43.315  28.115   3.132
41643W        W14711  20.926   5.367   4.538
41644W        W14712  21.488   2.417  14.389
41645W        W14713  28.522  35.826   3.156
41646W        W14714  15.773  19.270   1.834
41647W        W14715  42.035  44.313  12.949
41648W        W14716  22.756  19.818   3.674
41649W        W14717  36.403  12.881  13.460
41650W        W14718  31.063  24.073  11.572
41651W        W14719   1.973  40.094   4.064
41652W        W14720  21.079  11.397   3.260
41653W        W14721   7.944  43.529   2.594
41654W        W14722   9.453  40.297   4.580
41655W        W14723  42.359  36.571   2.408
41656W        W14724  10.394  39.393  10.699
41657W        W14725  28.073  35.571   4.773
41658W        W14726   8.890  34.360  13.900
41659W        W14727  38.127   0.814   1.102
41660W        W14728  13.619   9.186   2.793
41661W        W14729  37.959  32.589   4.648
41662W        W14730   2.043  43.197   4.617
41663W        W14731  43.907   5.968   1.665
41664W        W14732  43.049  11.890   0.076
41665W        W14733  20.163   8.222   1.183
41666W        W14734  40.730   3.365  12.009
41667W        W14735  25.837  20.255   4.274
41668W        W14736  14.401   5.440  11.092
41669W        W14737  28.249  14.101   1.847
41670W        W14738  35.200  30.806  11.405
41671W        W14739  43.943  18.312  14.051
41672W        W14740  16.208  16.094  13.986
41673W        W14741  29.642  20.018   4.585
41674W        W14742  41.985   3.258  14.177
41675W        W14743  20.064  30.529   5.090
41676W        W14744  38.525  38.445  12.446
41677W        W14745  14.248  31.377  10.666
41678W        W14746  31.169  21.514  11.245
41679W        W14747   2.714  32.589   0.200
41680W        W14748  11.312  41.514  12.495
41681W        W14749  29.486   1.776  10.335
41682W        W14750  42.226  34.808  12.978
41683W        W14751  43.901   4.715   3.230
41684W        W14752  11.916  24.109   1.273
41685W        W14753  43.350  42.726   1.115
41686W        W14754  41.523  15.262   1.821
41687W        W14755  11.764  38.839   3.658
41688W        W14756  19.289   6.122  12.276
41689W        W14757  41.556  31.635  12.101
41690W        W14758  43.019  37.026  12.099
41691W        W14759  19.313   7.933  11.074
41692W        W14760  32.093  29.819  12.622
41693W        W14761   2.267  30.563   2.816
41694W        W14762   4.941  34.662   1.277
41695W        W14763  44.864  10.191   4.105
41696W        W14764  40.942  41.987  14.647
41697W        W14765  40.095   9.653  14.866
41698W        W14766  35.376  16.495  12.679
41699W        W14767  39.319  42.470  11.633
41700W        W14768  40.090  17.631  14.292
41701W        W14769  20.793  20.722   0.317
41702W        W14770   2.415  19.960  10.772
41703W        W14771   7.671  34.546  11.038
41704W        W14772  26.463   0.364   2.359
41705W        W14773   7.065  10.217   4.675
41706W        W14774  32.989  27.130  13.452
41707W        W14775   8.328  24.149  11.166
41708W        W14776  41.377  37.530  13.891
41709W        W14777  41.976  11.581  11.229
41710W        W14778   8.179  11.197   1.455
41711W        W14779  18.244   6.376   3.188
41712W        W14780  15.003  26.650   3.696
41713W        W14781   7.897  28.872   2.640
41714W        W14782   6.251  38.816   5.139
41715W        W14783   1.834  31.200   3.220
41716W        W14784  14.840  26.292   3.371
41717W        W14785  35.244   4.343  12.179
41718W        W14786   9.602   1.624  13.569
41719W        W14787  15.017  24.669  12.012
41720W        W14788   9.203  42.305   1.865
41721W        W14789   7.039  40.758  11.038
41722W        W14790  41.528  39.807  14.534
41723W        W14791  38.672   3.619   5.016
41724W        W14792  21.730  15.643  13.290
41725W        W14793  16.134  22.742  13.088
41726W        W14794  17.997  27.912   4.776
41727W        W14795  43.191  17.449   3.682
41728W        W14796  26.999  23.129   2.833
41729W        W14797  30.901   0.267   2.124
41730W        W14798   2.761  24.588   4.212
41731W        W14799   4.404  24.886   1.385
41732W        W14800  26.648  36.359  14.493
41733W        W14801  24.586   3.251   2.468
41734W        W14802  13.671   7.897   4.956
41735W        W14803  14.312  12.816  14.098
41736W        W14804   0.441   4.242   1.167
41737W        W14805   2.273  37.566   4.482
41738W        W14806  16.536   2.658  14.307
41739W        W14807  29.854   5.254   1.879
41740W        W14808  29.951  14.853   3.659
41741W        W14809   2.136  32.498  14.978
41742W        W14810  32.411  11.290   4.387
41743W        W14811  42.956  43.382   0.984
41744W        W14812  23.220  36.544   4.052
41745W        W14813  39.014   2.433  11.539
41746W        W14814  25.575  19.506  11.183
41747W        W14815  17.413  14.239  10.974
41748W        W14816  20.225  32.069   2.954
41749W        W14817  38.814  30.423  11.987
41750W        W14818   2.011  16.118  12.580
41751W        W14819   6.660  43.324  14.543
41752W        W14820  28.648   9.338  12.215
41753W        W14821  40.830   0.471  13.578
41754W        W14822  43.737  17.598   0.218
41755W        W14823  12.699  16.126   2.889
41756W        W14824  11.257  39.820   4.892
41757W        W14825  16.677  40.605   3.322
41758W        W14826  39.088  37.407   1.360
41759W        W14827  43.588  39.720   2.678
41760W        W14828  34.664  37.849   2.358
41761W        W14829  24.966  20.674  11.509
41762W        W14830  19.056  43.189  12.589
41763W        W14831   0.808   0.153   0.461
41764W        W14832  29.077  14.178   0.390
41765W        W14833  35.590  19.326  11.171
41766W        W14834   0.955   9.742   1.297
41767W        W14835   4.764  16.760  12.938
41768W        W14836   1.768  32.335  13.529
41769W        W14837  12.644  28.503   0.352
41770W        W14838  39.130  43.288  10.040
41771W        W14839   3.961  33.151  14.419
41772W        W14840  40.919  30.040  13.395
41773W        W14841  34.185   7.208   3.172
41774W        W14842  31.195   2.220   2.797
41775W        W14843  15.759  24.097  14.114
41776W        W14844  16.663  32.709  11.680
41777W        W14845  44.811  34.459  12.063
41778W        W14846  29.336  18.720  10.611
41779W        W14847  13.713  32.801  13.049
41780W        W14848   2.025  36.721   3.900
41781W        W14849   3.433  32.473  10.877
41782W        W14850   5.182  41.322   0.984
41783W        W14851  40.929  27.442   3.747
41784W        W14852  30.005   5.820  11.459
41785W        W14853  37.441  25.421   3.545
41786W        W14854  15.800  35.471  14.272
41787W        W14855  20.741  12.725   3.289
41788W        W14856  41.988  25.610  14.544
41789W        W14857  22.052  33.292  10.798
41790W        W14858  30.243  25.245  12.397
41791W        W14859  28.479  42.918  11.342
41792W        W14860  15.398   6.450  10.732
41793W        W14861  37.408  15.841   3.968
41794W        W14862   1.683  34.523  10.664
41795W        W14863   8.412  11.080   4.098
41796W        W14864   4.649  37.841   0.449
41797W        W14865  38.902  43.499  14.855
41798W        W14866   5.644  43.105   0.352
41799W        W14867  23.328  37.518  12.010
41800W        W14868  19.819   7.059   2.876
41801W        W14869  12.132  30.060  12.594
41802W        W14870   8.777  34.515  12.441
41803W        W14871  26.215  14.542  10.524
41804W        W14872  22.826  34.846   0.849
41805W        W14873  17.853  40.490   0.953
41806W        W14874   1.082  23.099   1.936
41807W        W14875  15.055  40.840   3.362
41808W        W14876  17.558  28.453  14.197
41809W        W14877  35.231  17.293   2.307
41810W        W14878  30.051  21.326   2.366
41811W        W14879   0.953  24.884   0.353
41812W        W14880   6.117   1.453  11.590
41813W        W14881   2.155  41.588  11.094
41814W        W14882   3.915   8.586   1.227
41815W        W14883  21.384  38.576   1.446
41816W        W14884  34.377  35.589   0.613
41817W        W14885  27.083  13.560  12.230
41818W        W14886  10.388  36.525  12.162
41819W        W14887   3.785  23.935   3.245
41820W        W14888  23.819  37.617  11.758
41821W        W14889  10.493   3.278  10.229
41822W        W14890  19.566  43.316  10.995
41823W        W14891   8.145   0.018   3.067
41824W        W14892  40.931   8.684   2.941
41825W        W14893  19.656  35.875  11.515
41826W        W14894  17.027   5.640  12.090
41827W        W14895  18.739  25.222   2.390
41828W        W14896   2.868   7.307   3.321
41829W        W14897  16.790  23.056  10.721
41830W        W14898  33.616  12.279  12.104
41831W        W14899  37.054  33.357  11.106
41832W        W14900  36.887  42.844  13.595
41833W        W14901  10.318  16.685   1.437
41834W        W14902  23.270  22.686   0.828
41835W        W14903  14.024  39.482  10.964
41836W        W14904  15.266  36.358  10.537
41837W        W14905  37.864  43.042  13.359
41838W        W14906  23.766  27.371  13.864
41839W        W14907  30.993  24.892  10.705
41840W        W14908  29.260  35.178  13.952
41841W        W14909  16.455  38.920  11.399
41842W        W14910  21.613   9.731  13.472
41843W        W14911  21.226  42.534   3.157
41844W        W14912  41.407  27.956   3.348
41845W        W14913  31.509   6.949  11.579
41846W        W14914  27.219  20.822   2.073
41847W        W14915  11.095  24.142   0.812
41848W        W14916  27.613  25.386  11.040
41849W        W14917   6.396  18.159   1.137
41850W        W14918  25.417  39.055   0.630
41851W        W14919   3.286  12.209  14.383
41852W        W14920  33.151  30.928  13.981
41853W        W14921   9.404  29.675   1.233
41854W        W14922  22.862  17.706   4.709
41855W        W14923  38.088  44.581  11.124
41856W        W14924  15.539  14.371  13.346
41857W        W14925  38.107  21.125  11.199
41858W        W14926  29.445  36.837   4.769
41859W        W14927   2.797  25.102  13.785
41860W        W14928  17.233  22.116  11.298
41861W        W14929  26.192   5.021  13.553
41862W        W14930  35.083  37.915   3.209
41863W        W14931  37.947  37.629   0.342
41864W        W14932  12.827  26.547  10.452
41865W        W14933  41.090  35.854  14.393
41866W        W14934  42.821  10.759  11.562
41867W        W14935  35.394   9.087   4.401
41868W        W14936   0.866  42.726   3.175
41869W        W14937  23.344   5.458   0.653
41870W        W14938  20.283  22.730  11.813
41871W        W14939  31.950  43.721   2.213
41872W        W14940   5.341  37.495   0.807
41873W        W14941  24.187  21.704   0.512
41874W        W14942   1.178  44.277   0.520
41875W        W14943  31.957  25.575   3.590
41876W        W14944  40.879  32.334   1.172
41877W        W14945   9.425  23.592  12.388
41878W        W14946  41.267  24.504  11.110
41879W        W14947  14.235  18.019   2.249
41880W        W14948  28.531  13.811   3.275
41881W        W14949  35.141  23.566   4.686
41882W        W14950   0.801  42.339   0.963
41883W        W14951   7.722  17.204  10.621
41884W        W14952  34.779  22.466   4.024
41885W        W14953  39.998   9.639   1.789
41886W        W14954  44.517  20.609  10.753
41887W        W14955  28.921  14.520   5.250
41888W        W14956  19.002  26.045  12.803
41889W        W14957  30.066  44.178   3.890
41890W        W14958  22.549   3.596  10.704
41891W        W14959  22.029  18.511   1.695
41892W        W14960  12.618  11.160  11.881
41893W        W14961  18.308  14.226   3.376
41894W        W14962  38.336   5.760   1.835
41895W        W14963  19.656  19.368  13.350
41896W        W14964  10.209  41.833   3.856
41897W        W14965  37.956  17.866   2.947
41898W        W14966  19.278  29.048   2.758
41899W        W14967  43.052  29.484  13.876
41900W        W14968  10.459  32.667  13.449
41901W        W14969   2.462  37.988   1.795
41902W        W14970  41.513  39.988  10.716
41903W        W14971  31.476  37.303  13.935
41904W        W14972  11.741  36.068   1.821
41905W        W14973   0.975  14.229  11.594
41906W        W14974  11.640  27.960  11.011
41907W        W14975  27.208  14.664  13.498
41908W        W14976  25.137  19.194  13.169
41909W        W14977  26.655  40.972  10.843
41910W        W14978   6.197  11.867   5.097
41911W        W14979  33.106  11.181  14.450
41912W        W14980  22.225  30.568   0.472
41913W        W14981  14.613  43.579  14.885
41914W        W14982  28.120   8.878   3.576
41915W        W14983  12.290   3.993   3.618
41916W        W14984  12.322   2.408  11.182
41917W        W14985  28.291  42.190  13.355
41918W        W14986  13.608  35.328  14.724
41919W        W14987  27.940  44.738   1.854
41920W        W14988  35.980  27.931   4.546
41921W        W14989   0.361  14.698   1.438
41922W        W14990   9.698   5.778   0.456
41923W        W14991   8.344  41.099  12.885
41924W        W14992  36.834  31.504   0.776
41925W        W14993  34.829  44.512  13.903
41926W        W14994  42.422  22.176  11.474
41927W        W14995  23.942  35.342  12.395
41928W        W14996  13.585  25.609  14.182
41929W        W14997   9.398   3.777  10.600
41930W        W14998  11.954  27.006   3.729
41931W        W14999  22.120  14.068  14.381
41932W        W15000  16.212  28.611  13.861
41933W        W15001  37.310  24.177   3.521
41934W        W15002  34.640  13.899   3.282
41935W        W15003  34.361  31.224   3.685
41936W        W15004  40.542  17.716  14.802
41937W        W15005  30.487  26.588   3.272
41938W        W15006   8.211  38.524  11.081
41939W        W15007  42.887  33.940  13.841
41940W        W15008  12.731  29.046   2.857
41941W        W15009  40.504  41.157  11.615
41942W        W15010  10.167  27.152  13.874
41943W        W15011   7.044  10.293   1.357
41944W        W15012  27.322  27.060   4.691
41945W        W15013  34.365  42.724   1.294
41946W        W15014  38.052   1.925   3.534
41947W        W15015  38.675   2.900   4.662
41948W        W15016  29.506  24.490  11.368
41949W        W15017  27.028  16.832   3.684
41950W        W15018  15.588  14.686  13.797
41951W        W15019  29.241  26.971   0.820
41952W        W15020   3.333   9.625   1.754
41953W        W15021  25.231  43.424   1.251
41954W        W15022   5.861   8.704  14.063
41955W        W15023  26.776  37.850   4.614
41956W        W15024  27.218  37.111  12.412
41957W        W15025  36.082  40.032   0.183
41958W        W15026  25.901  29.984  12.056
41959W        W15027  20.316  31.436  11.576
41960W        W15028  39.493   1.238  13.518
41961W        W15029   4.322  41.527  14.572
41962W        W15030  33.163   7.749   0.185
41963W        W15031  29.722  25.240   0.958
41964W        W15032  15.179  17.827  12.184
41965W        W15033   2.707  38.445   4.694
41966W        W15034  25.620  36.166  12.326
41967W        W15035  41.024  13.640  11.160
41968W        W15036  31.487  35.038   4.599
41969W        W15037  20.954  18.750   1.718
41970W        W15038  10.279  25.589   1.227
41971W        W15039  11.964  18.666   1.942
41972W        W15040  25.164   3.662   1.995
41973W        W15041  39.230  37.977  11.421
41974W        W15042  36.129  21.363   0.494
41975W        W15043  33.678  38.780  10.622
41976W        W15044  24.769  15.714   4.314
41977W        W15045  15.710  28.075   4.139
41978W        W15046   9.280  12.127  12.824
41979W        W15047   9.162   9.678   3.461
41980W        W15048  30.414  44.670   1.054
41981W        W15049  23.509  11.712  11.225
41982W        W15050  12.093  40.829  13.321
41983W        W15051  13.777  34.087   1.197
41984W        W15052  44.313   6.742   2.843
41985W        W15053   4.160  42.298  11.670
41986W        W15054  40.753  10.907  10.606
41987W        W15055  19.104  28.586   2.637
41988W        W15056  28.500  17.150   3.141
41989W        W15057   2.175  43.964  14.419
41990W        W15058  22.637  34.538  13.767
41991W        W15059   6.832  12.138   2.732
41992W        W15060  22.476  32.037  12.967
41993W        W15061  13.156  31.995  12.029
41994W        W15062   9.065  11.903  11.480
41995W        W15063   1.610   9.381  14.697
41996W        W15064  27.031  38.489   2.341
41997W        W15065   0.258   0.550   0.468
41998W        W15066  17.283  21.959  11.781
41999W        W15067  23.704   6.673   3.588
42000W        W15068  29.319  20.441   3.470
42001W        W15069  29.576  31.897   3.694
42002W        W15070  35.623  27.536  12.464
42003W        W15071  20.242  14.552   2.647
42004W        W15072   7.237  36.829  13.279
42005W        W15073   9.794  33.953  13.563
42006W        W15074   7.571  11.897  13.085
42007W        W15075  14.797   7.169   4.361
42008W        W15076   1.300   3.452   1.637
42009W        W15077  30.688   2.913   1.398
42010W        W15078  28.109   1.930   1.434
42011W        W15079   8.057  12.692   3.766
42012W        W15080   5.972  16.419   1.398
42013W        W15081   5.588  31.403   1.937
42014W        W15082  13.418  14.144   5.032
42015W        W15083  31.284   0.886   4.970
42016W        W15084  33.567  12.036  12.549
42017W        W15085  44.033   3.769  11.873
42018W        W15086  42.988  20.568   3.197
42019W        W15087   1.416  19.294   3.046
42020W        W15088   1.743  16.223  13.019
42021W        W15089  34.853  43.001  13.541
42022W        W15090   6.128  44.273  12.497
42023W        W15091  37.462  28.431   4.035
42024W        W15092  11.044   0.494  11.121
42025W        W15093  28.892  31.618   0.408
42026W        W15094  31.385   3.473   1.382
42027W        W15095  22.105   1.555   1.939
42028W        W15096  15.784  33.516  14.853
42029W        W15097  12.159  32.618  13.875
42030W        W15098  28.858  34.062   4.333
42031W        W15099  31.052  41.368   3.721
42032W        W15100   2.210  36.867  13.846
42033W        W15101  35.779   3.476   0.362
42034W        W15102  14.599  36.021   3.840
42035W        W15103   0.371  13.614  14.004
42036W        W15104   5.226  15.137  13.833
42037W        W15105   4.285  44.561  11.930
42038W        W15106  43.853  24.810   0.808
42039W        W15107  33.913  37.605  11.646
42040W        W15108   7.042  44.255   3.139
42041W        W15109  31.514   2.178  11.418
42042W        W15110  32.215  40.361   4.998
42043W        W15111  33.155  24.875  12.166
42044W        W15112  17.678  27.514   4.907
42045W        W15113  26.232  18.959   0.703
42046W        W15114  44.963  19.261   1.227
42047W        W15115   5.841  43.110   3.670
42048W        W15116  15.723  39.409   2.134
42049W        W15117  11.654  42.547   3.761
42050W        W15118  42.606   1.704  12.425
42051W        W15119  15.681  14.405   5.011
42052W        W15120   1.198  28.055   3.168
42053W        W15121  36.649   0.712   2.281
42054W        W15122  33.042  22.305   2.737
42055W        W15123   8.729  44.416   1.789
42056W        W15124  23.480  23.791   0.838
42057W        W15125  24.118  37.870   0.352
42058W        W15126  41.810  19.845  14.294
42059W        W15127   4.335  23.133  14.727
42060W        W15128  41.065  44.291   0.232
42061W        W15129  28.616  44.482  10.656
42062W        W15130  14.244  24.201   0.938
42063W        W15131  12.609   5.376  12.417
42064W        W15132   6.342  10.434  11.411
42065W        W15133   3.831  22.233  10.734
42066W        W15134  32.409  40.817   0.350
42067W        W15135  32.624  36.914   1.918
42068W        W15136  10.731  21.398  13.005
42069W        W15137  20.343  37.310  10.856
42070W        W15138  42.263  14.207   4.634
42071W        W15139  37.468  41.727  13.573
42072W        W15140  16.598   1.457   3.112
42073W        W15141  19.153  14.345   4.296
42074W        W15142   4.466   3.999  10.811
42075W        W15143  14.272  32.466   1.425
42076W        W15144  28.352  35.453  11.155
42077W        W15145  30.348  18.435   2.233
42078W        W15146  42.889  13.233   0.492
42079W        W15147  41.440   6.231  14.380
42080W        W15148  20.765   1.489   5.499
42081W        W15149  13.262  23.201  11.875
42082W        W15150  40.571   2.274   3.972
42083W        W15151  43.994  27.492   0.910
42084W        W15152  12.201  27.148   4.155
42085W        W15153  11.531  40.622  11.928
42086W        W15154  13.054   9.707   4.586
42087W        W15155  32.513   8.271   4.670
42088W        W15156  40.532   6.904  11.058
42089W        W15157  35.323  23.781   3.238
42090W        W15158  31.205  40.515  11.617
42091W        W15159   6.639  25.989  14.318
42092W        W15160  41.787   6.278  12.398
42093W        W15161  12.884   1.957   2.747
42094W        W15162  36.201   6.445  11.914
42095W        W15163   5.156  37.418   4.904
42096W        W15164  22.130  15.661   4.491
42097W        W15165  44.706  35.483   1.706
42098W        W15166   1.203  24.055  10.695
42099W        W15167  21.320  30.402  10.723
42100W        W15168  33.786   5.517   3.740
42101W        W15169  10.452  43.242   3.251
42102W        W15170   6.416  10.062   0.944
42103W        W15171  28.460  11.853  10.873
42104W        W15172  28.155   9.952  12.068
42105W        W15173  16.569  44.216   1.708
42106W        W15174  20.265   9.194   2.155
42107W        W15175  16.296  35.590  14.105
42108W        W15176  34.688   7.687  12.048
42109W        W15177  22.966  22.505   2.424
42110W        W15178   4.876   6.080  11.963
42111W        W15179  18.610   7.875   0.189
42112W        W15180  41.938  42.890  12.426
42113W        W15181  25.211   5.912  11.018
42114W        W15182  14.571  44.729   3.755
42115W        W15183   4.273  12.227   4.647
42116W        W15184   3.817  35.937   4.709
42117W        W15185  14.049  26.655  12.505
42118W        W15186   3.469  14.234   2.838
42119W        W15187  34.448  23.949  12.094
42120W        W15188  42.074  34.837  14.512
42121W        W15189  27.938  34.541  14.967
42122W        W15190   2.127   9.109  13.055
42123W        W15191  21.311  18.603   0.428
42124W        W15192  25.246   8.968   0.825
42125W        W15193  10.334  22.508   3.729
42126W        W15194  21.056  22.614  14.293
42127W        W15195  21.511  25.514  11.159
42128W        W15196  23.319   3.922   3.302
42129W        W15197  19.041  29.036  14.384
42130W        W15198  34.406  13.665  14.740
42131W        W15199  32.484  37.873   0.752
42132W        W15200  27.547  32.522   1.052
42133W        W15201  32.076   5.140   4.432
42134W        W15202  27.031  25.918  13.055
42135W        W15203  42.487  17.784  13.860
42136W        W15204  41.647  10.732  14.685
42137W        W15205  35.637  10.851   3.864
42138W        W15206   8.568  15.079  12.630
42139W        W15207  31.645  18.107  14.502
42140W        W15208  25.114  40.445  14.813
42141W        W15209  22.175  26.203   0.923
42142W        W15210  22.246  17.780  14.809
42143W        W15211  42.257  32.611   4.198
42144W        W15212  36.883  36.495   1.268
42145W        W15213  35.547  24.992  14.253
42146W        W15214  12.062   6.785   2.891
42147W        W15215  10.821  42.278  14.013
42148W        W15216  44.137  28.920   1.516
42149W        W15217  12.880  29.534   1.196
42150W        W15218  32.666  41.404  14.922
42151W        W15219  38.571  27.673   1.682
42152W        W15220  43.404  15.147   2.317
42153W        W15221  19.693  29.791  10.320
42154W        W15222  17.627  21.522  12.382
42155W        W15223  22.477  15.004  11.024
42156W        W15224   4.265  32.336  13.906
42157W        W15225   7.589   1.816  10.710
42158W        W15226  14.636   5.884  10.625
42159W        W15227  42.504  38.113  14.986
42160W        W15228  32.708  38.957  12.663
42161W        W15229  25.002  28.089   0.294
42162W        W15230   9.737  10.583  11.530
42163W        W15231   7.748   5.786  12.181
42164W        W15232  38.856  12.301   4.089
42165W        W15233   4.420  23.696   4.284
42166W        W15234   6.007  42.548   0.948
42167W        W15235  31.002  14.060   2.376
42168W        W15236  41.070  19.573   0.049
42169W        W15237   5.787   3.015   1.673
42170W        W15238  36.659  16.604  13.945
42171W        W15239  24.547  10.173   1.003
42172W        W15240  37.273   2.352  12.835
42173W        W15241  39.072  27.779  12.089
42174W        W15242  23.440  20.345  10.762
42175W        W15243  28.632  20.215   1.261
42176W        W15244  12.132   9.938  13.101
42177W        W15245   5.515  38.492   2.240
42178W        W15246  16.467  27.718   2.245
42179W        W15247  36.452  13.544  12.510
42180W        W15248  30.106  23.212   1.872
42181W        W15249  36.670  17.728   0.201
42182W        W15250  44.302  25.802   2.458
42183W        W15251  33.378  10.699  11.805
42184W        W15252  33.591  19.526   4.995
42185W        W15253  15.182  20.034   0.528
42186W        W15254  37.549  18.027  11.603
42187W        W15255  25.936  35.995  10.879
42188W        W15256  35.211  14.052  11.143
42189W        W15257   7.628  13.373  11.528
42190W        W15258   0.993  27.183   0.837
42191W        W15259  32.508  42.977   0.907
42192W        W15260  34.136  31.995   0.436
42193W        W15261  32.603  16.713   0.756
42194W        W15262  22.530  26.717   1.329
42195W        W15263  30.530  32.807   0.833
42196W        W15264  13.654  10.140  10.422
42197W        W15265   8.341   9.199   0.364
42198W        W15266  26.682  33.068   3.886
42199W        W15267  33.068   0.300   0.990
42200W        W15268   5.381  12.881  11.725
42201W        W15269  16.252   4.900  11.589
42202W        W15270  16.546  19.813  10.553
42203W        W15271   9.731   8.323   0.373
42204W        W15272  42.623  22.044   3.376
42205W        W15273  34.956  29.932  13.361
42206W        W15274  13.480   7.853  12.981
42207W        W15275  16.240  32.993  11.745
42208W        W15276  23.369  12.720  14.753
42209W        W15277   0.965   1.348  14.887
42210W        W15278  15.356  17.516  12.567
42211W        W15279  18.604  44.902   2.631
42212W        W15280   9.992  36.908   4.386
42213W        W15281  13.313   3.857   3.814
42214W        W15282   7.840   4.824  13.813
42215W        W15283  42.846  19.831  11.253
42216W        W15284   5.205  36.424  13.344
42217W        W15285  13.114   3.614  12.565
42218W        W15286   8.204  23.061  13.494
42219W        W15287  43.690  10.392   4.595
42220W        W15288  14.675   4.843  14.878
42221W        W15289  17.650   9.124   3.169
42222W        W15290   3.745   4.498  14.094
42223W        W15291  40.253  27.513  11.395
42224W        W15292  21.954   2.208  10.359
42225W        W15293  10.310  38.876  11.762
42226W        W15294  32.015  12.295   4.250
42227W        W15295  21.974   9.351  13.454
42228W        W15296  10.414  17.729  12.043
42229W        W15297  23.694  28.913  14.089
42230W        W15298  43.492   0.965  14.527
42231W        W15299   9.792  41.793  11.119
42232W        W15300  26.136   9.795  10.717
42233W        W15301  13.558  16.016   4.226
42234W        W15302  28.152  21.745   2.759
42235W        W15303  34.528  31.929  12.579
42236W        W15304  33.850  34.576   1.082
42237W        W15305   0.711  28.652   0.002
42238W        W15306  35.173  26.289  11.125
42239W        W15307  13.318  35.528   3.583
42240W        W15308  40.935   6.304  14.526
42241W        W15309  23.593  22.748  12.059
42242W        W15310  33.912  42.187   4.373
42243W        W15311   1.831  44.222   3.099
42244W        W15312  19.290  43.297   3.607
42245W        W15313  37.877   4.533   3.258
42246W        W15314  25.739  39.081   4.305
42247W        W15315  17.787   9.718   2.791
42248W        W15316  32.185   7.695  11.942
42249W        W15317  13.060  40.640   4.600
42250W        W15318  29.970  20.171  14.517
42251W        W15319  17.168  37.191   3.731
42252W        W15320  15.299  32.249   1.701
42253W        W15321  32.507  30.898   4.162
42254W        W15322  41.446   7.343  13.652
42255W        W15323  40.327  28.680   2.343
42256W        W15324  26.166  36.389  11.142
42257W        W15325  11.381  28.554   2.737
42258W        W15326  11.315  40.908   0.343
42259W        W15327  19.757  25.636  11.598
42260W        W15328  40.339  24.018  12.731
42261W        W15329  17.509  17.624  11.060
42262W        W15330  35.617   3.225  12.541
42263W        W15331  44.258  41.459   0.106
42264W        W15332   4.329  20.497   0.837
42265W        W15333  41.993  10.189  11.419
42266W        W15334   0.312  43.246  11.454
42267W        W15335  43.598   7.011   1.813
42268W        W15336   1.126  15.259  14.130
42269W        W15337  37.972   1.822   0.213
42270W        W15338  11.406  37.343   3.564
42271W        W15339  44.328   4.194   1.170
42272W        W15340  43.525  19.770   5.385
42273W        W15341  12.296  24.965   4.398
42274W        W15342  41.086   6.690  10.252
42275W        W15343  42.924  12.864  13.158
42276W        W15344  32.940   8.153  14.882
42277W        W15345  42.616   4.953  13.847
42278W        W15346   0.934  33.498   0.167
42279W        W15347  10.691   3.188  14.081
42280W        W15348  36.506  16.307   0.524
42281W        W15349   5.387  21.288  11.924
42282W        W15350  23.107  18.184   3.582
42283W        W15351  16.866   8.768  13.368
42284W        W15352  43.732  13.712  14.472
42285W        W15353  12.159   8.293   0.482
42286W        W15354  28.608  20.739  11.409
42287W        W15355  28.170   6.790   0.423
42288W        W15356   4.893  29.231   3.786
42289W        W15357  39.105  21.726  14.827
42290W        W15358  33.910  40.947  12.481
42291W        W15359  32.146  39.808  11.187
42292W        W15360   1.890  22.770   4.197
42293W        W15361  27.129  25.053  11.889
42294W        W15362  26.121   5.665   3.256
42295W        W15363   1.307  40.048   0.879
42296W        W15364   2.815   8.359  12.894
42297W        W15365  44.357  19.500  14.146
42298W        W15366  25.011   6.973   4.021
42299W        W15367   0.033  42.313  14.901
42300W        W15368   6.354  27.382  11.646
42301W        W15369  32.667   9.208   0.016
42302W        W15370  31.274   0.385   4.748
42303W        W15371  37.517  38.443   4.756
42304W        W15372   0.471  34.576  14.196
42305W        W15373  36.614  33.334   3.351
42306W        W15374  28.991   6.147   3.702
42307W        W15375  15.719  16.675  11.114
42308W        W15376  15.901  11.929  12.562
42309W        W15377  31.536  21.734   1.811
42310W        W15378   1.467  10.830  12.905
42311W        W15379   2.711   9.692   4.654
42312W        W15380  39.870  25.512   0.260
42313W        W15381  36.172  41.542   3.069
42314W        W15382  23.210  18.000  13.430
42315W        W15383  21.528  27.159   0.515
42316W        W15384  23.737  30.525   2.788
42317W        W15385  27.757   3.707   0.310
42318W        W15386   2.227  35.622  11.522
42319W        W15387  16.484  40.457   1.711
42320W        W15388   4.702  37.994   3.301
42321W        W15389   5.055  44.975   2.776
42322W        W15390  41.957  37.852  11.663
42323W        W15391  32.719  20.016  13.257
42324W        W15392  10.132  24.328  12.286
42325W        W15393   5.007  31.593  13.516
42326W        W15394   3.304   4.910  14.250
42327W        W15395  11.130  32.440  11.215
42328W        W15396  35.353   7.572  14.463
42329W        W15397  18.640  44.494   3.922
42330W        W15398  34.317  23.882  13.020
42331W        W15399  29.154  44.762   2.348
42332W        W15400  40.317  14.682   1.824
42333W        W15401   1.124  35.995  11.023
42334W        W15402   1.182  34.477  10.756
42335W        W15403  43.768  16.169   2.294
42336W        W15404  18.481  19.263  10.680
42337W        W15405  13.229  37.746   4.355
42338W        W15406  29.662  29.581   1.327
42339W        W15407  17.250  22.240  13.569
42340W        W15408  34.095  12.439   4.162
42341W        W15409  26.001  11.104   1.735
42342W        W15410  32.898   4.764   3.251
42343W        W15411  40.243  27.063  11.140
42344W        W15412   0.955  13.257   1.293
42345W        W15413   1.072  42.777  11.729
42346W        W15414   2.680   3.495  14.318
42347W        W15415  31.210  11.547  10.316
42348W        W15416  25.044  17.860  12.500
42349W        W15417  24.761  24.008   1.802
42350W        W15418  43.989  38.571   2.486
42351W        W15419   8.681  44.035   0.857
42352W        W15420  29.398  29.134   4.560
42353W        W15421  30.123  23.565   4.160
42354W        W15422  18.796  42.811  10.500
42355W        W15423  27.149  17.031  13.925
42356W        W15424  17.599  24.845   1.737
42357W        W15425  23.489  19.609   0.502
42358W        W15426  18.762   2.572   4.902
42359W        W15427  15.531   1.682  10.594
42360W        W15428  31.965  42.764   2.319
42361W        W15429  10.057  28.564  12.535
42362W        W15430  32.030  38.074  14.816
42363W        W15431  15.033  26.038   0.686
42364W        W15432  17.823  40.781   4.712
42365W        W15433   5.918   1.372   0.858
42366W        W15434  36.501  18.893  12.584
42367W        W15435   6.894  26.632  11.171
42368W        W15436  19.213   5.744   2.150
42369W        W15437   0.039   0.921   2.013
42370W        W15438  25.492   2.137   3.253
42371W        W15439  15.289  41.162   0.973
42372W        W15440  14.694  29.526   4.612
42373W        W15441  32.931  25.459   3.324
42374W        W15442  33.702  26.611   2.237
42375W        W15443  21.254  25.420  10.731
42376W        W15444   6.396  11.256  12.991
42377W        W15445  20.036  29.509  12.997
42378W        W15446  32.423  20.172  11.615
42379W        W15447   0.400  19.546   1.243
42380W        W15448   2.848  29.557   4.369
42381W        W15449  25.194  13.846   1.839
42382W        W15450  30.437  21.323  14.623
42383W        W15451  44.944   3.745   4.247
42384W        W15452  13.753  11.942   3.096
42385W        W15453  27.491  23.013  14.547
42386W        W15454   2.781  31.995  10.784
42387W        W15455  42.337  20.452  11.972
42388W        W15456  29.161  39.783  14.319
42389W        W15457  42.000  19.749   3.162
42390W        W15458   7.689  28.507  10.762
42391W        W15459  23.431   9.460   1.738
42392W        W15460  35.220   2.909  13.745
42393W        W15461  24.049  24.510   2.816
42394W        W15462  33.333  43.432   2.431
42395W        W15463  29.630  34.401   0.279
42396W        W15464  24.477   2.168  13.582
42397W        W15465  18.065  29.522  13.886
42398W        W15466  18.254   3.671  12.355
42399W        W15467   5.998  19.056   1.022
42400W        W15468  37.434  26.007   3.591
42401W        W15469  38.259   6.412  12.896
42402W        W15470   0.418   8.318   1.744
42403W        W15471  17.307   8.980  11.536
42404W        W15472   7.140  27.012  10.587
42405W        W15473   9.860  21.074   2.202
42406W        W15474  40.847  43.922  10.558
42407W        W15475  17.582  32.502   2.974
42408W        W15476   4.836  20.397   1.829
42409W        W15477  14.150   2.428  12.986
42410W        W15478   4.268   9.257  11.140
42411W        W15479   2.922   8.794   2.727
42412W        W15480  40.317  10.442  14.856
42413W        W15481  29.548   4.848  10.031
42414W        W15482  21.025  27.279  10.469
42415W        W15483  39.431  12.264  10.536
42416W        W15484  35.378   6.773  12.254
42417W        W15485   6.466  27.179   0.878
42418W        W15486  27.261  23.708  12.876
42419W        W15487  42.285  13.184   4.340
42420W        W15488   7.002  16.734   1.792
42421W        W15489   7.414   5.241   4.622
42422W        W15490  33.159   6.906  11.526
42423W        W15491  36.539  28.087   4.587
42424W        W15492   2.206   4.998   1.027
42425W        W15493  28.667  35.545   3.590
42426W        W15494  26.558   4.481   1.334
42427W        W15495  29.687  16.706  11.130
42428W        W15496  30.473  22.436   3.618
42429W        W15497  15.881  28.756   0.319
42430W        W15498  35.934  13.693   1.517
42431W        W15499  15.739  43.883   2.236
42432W        W15500  40.511  15.757  11.004
42433W        W15501  21.647   4.328  12.802
42434W        W15502  13.070  25.631   0.330
42435W        W15503  43.728  22.716   1.891
42436W        W15504  20.648  15.273   0.932
42437W        W15505  17.091  36.584   3.427
42438W        W15506  19.147  42.786   3.567
42439W        W15507  13.093   0.380  12.378
42440W        W15508  37.315   7.632   1.884
42441W        W15509   4.417  25.532  11.212
42442W        W15510  43.225   7.689   4.032
42443W        W15511  11.383  24.024  13.695
42444W        W15512   8.362  16.709  12.081
42445W        W15513  19.232   5.722   2.678
42446W        W15514  32.908   7.805   3.291
42447W        W15515  40.309  34.908  11.666
42448W        W15516  15.128  33.194   4.890
42449W        W15517  23.610   2.000  12.035
42450W        W15518  30.581  39.479   4.664
42451W        W15519   6.995  40.303   4.677
42452W        W15520  24.149  10.551   4.751
42453W        W15521  31.139  40.422   3.739
42454W        W15522   7.637  13.885   1.223
42455W        W15523  31.968  27.461   1.694
42456W        W15524  36.867  36.605   0.768
42457W        W15525   7.689  12.007  12.601
42458W        W15526   8.345   1.346  12.924
42459W        W15527  19.306  22.081  13.421
42460W        W15528   1.295   4.922   2.262
42461W        W15529   5.058  11.751  12.955
42462W        W15530  21.252  15.675   1.139
42463W        W15531  28.260  43.897   4.771
42464W        W15532  40.304  25.569  12.926
42465W        W15533  12.581  30.219   3.220
42466W        W15534   6.571  12.423   0.434
42467W        W15535  36.279  15.306   2.739
42468W        W15536  26.576   0.572   1.112
42469W        W15537  32.862  33.513   3.476
42470W        W15538  33.698  15.881  13.505
42471W        W15539  29.816  27.775   3.695
42472W        W15540   9.755  14.073  12.585
42473W        W15541  16.361   7.014  12.934
42474W        W15542  10.594  30.384   2.581
42475W        W15543  19.819  27.590  11.069
42476W        W15544  36.897  34.154   2.653
42477W        W15545  27.885  30.626   3.197
42478W        W15546   1.204  10.775   1.171
42479W        W15547  29.461  25.590   4.539
42480W        W15548  38.705  13.581   3.597
42481W        W15549  23.105  41.351  10.952
42482W        W15550   5.707   4.137  11.038
42483W        W15551   3.295  35.395  10.453
42484W        W15552  34.638   0.731  14.586
42485W        W15553  18.259  39.885   2.921
42486W        W15554  25.587   0.238  11.656
42487W        W15555  44.493  21.466  12.368
42488W        W15556  22.571  42.284   2.991
42489W        W15557  23.016  25.766  14.394
42490W        W15558   0.377  44.998   3.348
42491W        W15559  24.266  26.166  11.103
42492W        W15560  25.593   1.657  13.476
42493W        W15561  34.863  36.853  13.993
42494W        W15562  11.322  20.850   0.767
42495W        W15563   5.397  36.553   0.051
42496W        W15564   5.458  11.410  11.658
42497W        W15565  43.794  21.529   4.219
42498W        W15566  25.964   0.289   3.058
42499W        W15567  22.991  26.899   4.122
42500W        W15568  36.475  20.227  13.082
42501W        W15569  36.342  18.303  14.378
42502W        W15570   5.274  18.568  13.737
42503W        W15571  10.594  30.604   1.040
42504W        W15572  26.267  21.574  13.049
42505W        W15573   5.937  23.281  10.689
42506W        W15574   8.662  38.772   3.729
42507W        W15575  22.550  35.434   0.471
42508W        W15576  33.840  27.620  11.172
42509W        W15577  15.150  41.935  11.438
42510W        W15578  32.303  14.288   0.716
42511W        W15579  34.410  23.644   2.359
42512W        W15580  19.352  44.855   1.339
42513W        W15581   4.373  14.132  13.801
42514W        W15582  44.217  35.111  10.724
42515W        W15583   5.700   5.907   3.655
42516W        W15584  37.943  37.150   4.075
42517W        W15585  14.770  40.616  14.716
42518W        W15586   1.670  32.935   2.933
42519W        W15587  23.174  42.491   3.731
42520W        W15588   1.844  38.628  11.884
42521W        W15589   1.702  12.098  14.783
42522W        W15590  14.041  18.704  13.891
42523W        W15591  18.242  24.679   4.919
42524W        W15592  10.811  17.180   5.266
42525W        W15593  38.869  34.061   2.411
42526W        W15594  25.100  36.584  10.751
42527W        W15595  37.255  34.873   2.195
42528W        W15596  15.765  32.962  10.490
42529W        W15597  30.405  41.744  12.401
42530W        W15598  14.550   7.146   4.852
42531W        W15599  26.136  10.064  12.885
42532W        W15600   7.558   7.905  12.448
42533W        W15601   5.871   6.329   3.940
42534W        W15602  32.938  39.069  15.000
42535W        W15603  13.719  22.500  11.996
42536W        W15604  23.118  42.934  11.326
42537W        W15605  20.740  39.871  14.253
42538W        W15606  25.114  18.055  11.939
42539W        W15607  30.996  15.163  14.560
42540W        W15608   0.686  19.295  13.943
42541W        W15609  44.691  19.130   0.804
42542W        W15610  36.561  21.391   3.803
42543W        W15611   6.879  36.438   1.464
42544W        W15612  13.791  16.019   3.768
42545W        W15613   7.797  18.662  11.341
42546W        W15614  32.573  42.352   0.296
42547W        W15615  11.875  42.855   0.703
42548W        W15616   6.847  32.493   2.790
42549W        W15617  41.497  39.316  11.986
42550W        W15618  38.010  14.333  10.617
42551W        W15619   4.643  22.756   5.156
42552W        W15620   3.799  38.358   2.140
42553W        W15621  13.300  31.644  14.268
42554W        W15622  25.434  11.668  12.529
42555W        W15623  35.363   6.213   4.086
42556W        W15624  16.426  25.528   3.739
42557W        W15625  28.679  13.793   4.659
42558W        W15626  43.295  42.782   1.640
42559W        W15627   2.547  40.242   1.289
42560W        W15628  17.306  33.070  14.324
42561W        W15629  43.945   3.343  11.089
42562W        W15630  22.001  19.728   3.208
42563W        W15631  18.132  32.039   3.726
42564W        W15632  39.978  27.158   4.541
42565W        W15633  12.101  26.984  12.456
42566W        W15634   0.957   9.643  12.462
42567W        W15635  18.537  13.557   2.462
42568W        W15636  19.789  41.514  13.446
42569W        W15637  15.199  24.771  14.276
42570W        W15638  32.639   4.597   0.833
42571W        W15639  27.336  33.625  12.960
42572W        W15640   2.080  43.409  12.000
42573W        W15641  40.392  26.102   3.206
42574W        W15642  23.106  25.604   1.034
42575W        W15643  35.151  11.080   3.745
42576W        W15644  31.582  15.318  14.743
42577W        W15645  35.883  11.924  14.369
42578W        W15646  35.193  43.855   3.412
42579W        W15647   5.674  23.586   0.206
42580W        W15648  18.842   0.277   0.941
42581W        W15649   6.527  25.742  13.456
42582W        W15650  30.651  33.926   4.083
42583W        W15651  20.838  37.108   3.698
42584W        W15652  40.319  29.089  14.517
42585W        W15653  15.473  14.491  14.294
42586W        W15654  16.298  11.420  14.447
42587W        W15655  12.141  42.314  11.221
42588W        W15656  35.326   5.395   2.761
42589W        W15657  40.870  39.065   1.774
42590W        W15658   3.666  41.029  11.634
42591W        W15659  35.498  16.070  10.747
42592W        W15660  17.427  15.874   0.104
42593W        W15661  20.221  26.648  12.192
42594W        W15662  30.314  32.400   3.454
42595W        W15663  33.924  15.256   1.288
42596W        W15664  11.796   3.244  13.292
42597W        W15665  42.740  35.918   0.698
42598W        W15666  29.515  25.189  14.069
42599W        W15667   6.899  19.067  14.920
42600W        W15668  37.873  17.683   1.262
42601W        W15669   2.494  42.955   4.533
42602W        W15670  22.609  25.285   3.551
42603W        W15671   9.629  34.101   1.869
42604W        W15672  22.390  29.162  14.095
42605W        W15673  23.237  32.476  12.176
42606W        W15674  35.988  11.140  12.808
42607W        W15675  43.826   0.611   1.204
42608W        W15676  14.604  31.392  13.548
42609W        W15677  11.542  24.507   0.397
42610W        W15678  10.882  13.711  14.350
42611W        W15679   0.377  38.320   1.722
42612W        W15680  30.207   1.262  12.489
42613W        W15681  17.045  34.965  11.228
42614W        W15682   7.271  40.438   1.353
42615W        W15683   6.771  29.541  13.615
42616W        W15684   8.401  16.196  11.853
42617W        W15685   9.815  37.633   4.316
42618W        W15686  16.072   3.911   1.181
42619W        W15687  39.404   0.347   1.430
42620W        W15688  10.154  17.605  12.508
42621W        W15689  16.113  44.690  14.817
42622W        W15690  20.245  41.506  14.997
42623W        W15691  23.501  23.133   0.122
42624W        W15692  41.492  39.526   3.202
42625W        W15693   1.215  10.785   1.684
42626W        W15694  41.962   3.867   4.121
42627W        W15695   2.845   6.798   3.086
42628W        W15696   2.219  15.319   4.176
42629W        W15697  16.606  43.749  13.964
42630W        W15698   5.648  37.484   4.146
42631W        W15699  18.600  44.233  11.835
42632W        W15700  20.511   8.319  13.942
42633W        W15701  42.759  33.818  11.431
42634W        W15702   7.220  33.834  10.506
42635W        W15703  27.744  35.281  11.796
42636W        W15704  21.131   3.594   1.040
42637W        W15705  11.381  35.996   2.888
42638W        W15706  11.256  27.230   1.803
42639W        W15707  29.578  12.051   2.310
42640W        W15708   5.239   0.631  13.379
42641W        W15709  39.733  31.387   1.053
42642W        W15710  31.636  17.735  12.842
42643W        W15711  40.373  44.762   0.814
42644W        W15712  26.545  36.041  13.125
42645W        W15713  40.893   6.286   1.413
42646W        W15714  24.663  26.326  13.984
42647W        W15715   8.127  37.332  13.543
42648W        W15716   6.043  23.551   0.556
42649W        W15717  33.604  31.510  10.804
42650W        W15718  14.683  15.132   3.114
42651W        W15719  39.444  26.415   4.700
42652W        W15720  13.204  40.921  11.494
42653W        W15721  23.262  29.692  14.500
42654W        W15722  44.996  41.888   3.782
42655W        W15723  25.593  20.258  12.382
42656W        W15724  14.083   3.030   4.233
42657W        W15725   0.208  43.346  13.588
42658W        W15726  18.402  15.758   1.846
42659W        W15727  38.362  44.537  12.340
42660W        W15728   7.694  14.134  12.461
42661W        W15729  17.567  43.859   4.083
42662W        W15730  11.227  20.360  10.969
42663W        W15731   8.203  22.697   2.433
42664W        W15732  34.072  29.329  14.366
42665W        W15733  15.319  16.052   0.634
42666W        W15734  23.034  32.910  10.747
42667W        W15735  36.483  26.535   2.195
42668W        W15736  12.701   5.178  11.939
42669W        W15737  13.842  28.916  14.804
42670W        W15738  39.542  16.987  10.107
42671W        W15739  25.719  37.804   1.748
42672W        W15740   8.853   2.708   1.696
42673W        W15741  27.049  44.893   2.235
42674W        W15742  38.292  11.853   3.154
42675W        W15743  22.526  27.916   0.796
42676W        W15744  28.602   3.693   2.229
42677W        W15745  30.030  22.637   1.776
42678W        W15746  22.154  28.785   4.608
42679W        W15747  44.289   8.216  14.588
42680W        W15748  38.015   4.876  13.651
42681W        W15749  30.189   9.662   2.241
42682W        W15750  14.220   1.771   2.931
42683W        W15751   3.075  21.230   4.993
42684W        W15752  37.090   7.093   2.280
42685W        W15753   2.944   6.521   1.349
42686W        W15754  25.934  39.889   2.670
42687W        W15755  20.730  41.282  12.923
42688W        W15756  28.364  22.333  10.770
42689W        W15757  41.845  40.305  11.999
42690W        W15758  27.007  20.240   2.789
42691W        W15759   3.415  28.043  12.788
42692W        W15760  41.026  41.690  13.347
42693W        W15761  29.661   2.249  13.325
42694W        W15762  40.922  15.905  12.207
42695W        W15763  27.832  31.748   0.426
42696W        W15764  29.187  10.162  12.916
42697W        W15765   3.614   8.224   3.670
42698W        W15766  22.976  20.824  12.513
42699W        W15767  33.932  14.525  14.436
42700W        W15768  29.147  30.374  11.248
42701W        W15769  43.048  13.234   2.828
42702W        W15770  16.466  34.609  12.026
42703W        W15771  20.672   0.713  10.416
42704W        W15772  34.419  25.074   1.842
42705W        W15773  29.084  42.824  14.640
42706W        W15774  25.695  30.948  13.391
42707W        W15775  31.532  35.865   4.394
42708W        W15776  16.123   5.941  11.637
42709W        W15777  28.056   8.795  14.303
42710W        W15778  23.499   7.278  14.800
42711W        W15779  22.535  35.750   2.729
42712W        W15780  43.862  40.347  13.019
42713W        W15781   5.660  36.267   3.734
42714W        W15782  15.454  11.574   1.459
42715W        W15783  34.508  43.400  10.686
42716W        W15784  11.107  39.930  13.385
42717W        W15785  20.996   6.198   2.359
42718W        W15786  11.742  37.281   4.195
42719W        W15787  12.612   8.161  13.868
42720W        W15788   2.882  11.237  10.571
42721W        W15789   8.856  14.151   1.765
42722W        W15790   7.181  22.035   1.940
42723W        W15791  34.462  24.475  12.203
42724W        W15792  15.182  15.881   4.986
42725W        W15793  43.196   4.661   2.816
42726W        W15794  28.727  38.992  11.106
42727W        W15795  42.127  36.351  10.713
42728W        W15796  36.492  23.658   4.609
42729W        W15797  17.080  43.281   3.695
42730W        W15798   1.150  37.274  13.311
42731W        W15799  10.460  21.638  11.109
42732W        W15800  40.983  44.611   2.910
42733W        W15801  20.214  26.677   4.652
42734W        W15802  13.371  30.651   0.177
42735W        W15803  19.943   5.435   1.289
42736W        W15804  14.389  20.777  14.105
42737W        W15805  27.518  44.508   4.683
42738W        W15806  36.078  31.690  11.615
42739W        W15807  29.346  35.388  11.341
42740W        W15808  23.478  37.697  10.498
42741W        W15809  28.012   6.343   3.086
42742W        W15810  21.139  43.302   3.800
42743W        W15811   1.378   8.264   0.403
42744W        W15812  12.069  32.930   1.067
42745W        W15813   9.504  44.797  14.788
42746W        W15814  12.390  29.521   3.679
42747W        W15815  15.085   6.426  13.283
42748W        W15816  24.628   8.447   2.434
42749W        W15817   9.394  17.539   2.681
42750W        W15818  30.986  24.483  12.564
42751W        W15819  20.321   6.229   0.773
42752W        W15820  14.907  27.653   0.953
42753W        W15821  15.171  36.287   1.375
42754W        W15822   3.282   1.737  14.023
42755W        W15823  44.194  37.487   4.260
42756W        W15824  24.576  37.622   1.299
42757W        W15825  15.639  15.644   4.783
42758W        W15826  31.859  42.011  14.212
42759W        W15827  25.283   7.672  12.366
42760W        W15828  31.919   0.955  14.015
42761W        W15829  18.604   5.926   3.694
42762W        W15830  34.838  13.783   5.005
42763W        W15831   0.965  38.551   0.010
42764W        W15832  12.166   2.327   1.275
42765W        W15833   1.517  33.147   2.148
42766W        W15834  39.023  31.093   0.356
42767W        W15835  24.000  28.573   3.822
42768W        W15836  28.436  17.297   1.770
42769W        W15837   9.793  27.079  10.843
42770W        W15838  10.251   3.361  12.876
42771W        W15839  30.972   7.366   3.375
42772W        W15840  42.499   5.291  13.019
42773W        W15841  31.370  23.128   1.375
42774W        W15842  16.048  11.234  13.763
42775W        W15843  28.089  31.226  13.104
42776W        W15844  38.888  27.696   5.041
42777W        W15845  15.002  41.369   3.555
42778W        W15846  16.064   1.147  14.338
42779W        W15847  14.361  31.619   2.898
42780W        W15848  37.523  14.383  11.175
42781W        W15849  13.339  29.786  10.613
42782W        W15850  21.976  44.217   2.388
42783W        W15851  24.788   8.751  14.054
42784W        W15852  41.294   0.800   4.385
42785W        W15853  26.083  24.095  12.324
42786W        W15854  27.184  18.991  13.485
42787W        W15855  35.444  13.064  13.419
42788W        W15856   8.879  39.552   3.345
42789W        W15857  24.453  30.702  13.480
42790W        W15858  29.001  22.132  13.995
42791W        W15859  10.110  16.324   2.116
42792W        W15860   2.154   4.198  12.024
42793W        W15861  15.095   7.821   3.875
42794W        W15862  40.498   2.319   3.427
42795W        W15863   2.811   1.061   4.578
42796W        W15864  13.263  31.653   4.500
42797W        W15865  42.477   9.448  12.389
42798W        W15866  29.344   1.499   0.292
42799W        W15867  32.697   3.018  12.003
42800W        W15868  38.836   8.572   2.401
42801W        W15869   5.680   7.312   4.538
42802W        W15870  13.633   6.401   3.007
42803W        W15871  31.149  35.520  13.798
42804W        W15872  41.345  44.812  13.554
42805W        W15873  40.648  41.641  11.478
42806W        W15874  39.432  21.684  12.441
42807W        W15875  23.623  28.532  12.942
42808W        W15876  27.150  40.439  10.760
42809W        W15877  14.385   5.371   2.673
42810W        W15878  13.154  31.567   0.833
42811W        W15879  28.193   5.475  13.848
42812W        W15880  24.130  44.857   0.036
42813W        W15881  39.506  34.597   0.020
42814W        W15882  24.594  10.841   3.820
42815W        W15883  41.808  41.768   2.242
42816W        W15884  35.072  26.717   1.855
42817W        W15885  27.169   9.270   3.778
42818W        W15886  12.167  22.190   4.560
42819W        W15887  40.413  38.136   3.803
42820W        W15888  29.039  15.820  11.133
42821W        W15889   4.974  33.990   2.923
42822W        W15890  32.411  13.753  14.522
42823W        W15891  27.447  22.190   2.398
42824W        W15892   7.682   9.860   0.411
42825W        W15893  37.605  12.024   2.378
42826W        W15894  33.752   4.336   4.221
42827W        W15895  40.948  21.754   3.906
42828W        W15896  28.485  13.179  14.754
42829W        W15897  19.742  22.674   4.751
42830W        W15898  13.826   4.387  14.493
42831W        W15899   1.405   9.815  14.936
42832W        W15900   7.335  15.617  10.632
42833W        W15901  25.955  20.158   1.150
42834W        W15902  26.009  25.412   4.245
42835W        W15903  28.583   2.070  11.571
42836W        W15904   9.842   4.732  11.920
42837W        W15905  33.265  18.749   3.248
42838W        W15906   1.869  12.884  11.099
42839W        W15907  24.981   4.480   1.732
42840W        W15908  16.028  21.076   2.179
42841W        W15909  15.613   2.830  13.254
42842W        W15910  39.049   3.374   3.294
42843W        W15911  39.046  31.707   1.024
42844W        W15912   4.228   4.303  13.978
42845W        W15913  17.864  43.712   1.737
42846W        W15914  41.722  33.506   3.849
42847W        W15915  40.269  12.761  12.443
42848W        W15916  21.327  37.048  12.546
42849W        W15917  23.260  38.881  11.173
42850W        W15918  32.550  12.115   2.403
42851W        W15919   1.662   9.713  10.551
42852W        W15920  43.356   7.958   1.713
42853W        W15921  39.423   2.814   2.486
42854W        W15922   8.626  11.358   0.248
42855W        W15923  18.762   7.498   4.510
42856W        W15924  41.542   3.907   2.740
42857W        W15925  30.684  42.613  12.473
42858W        W15926  29.988  40.412  13.528
42859W        W15927   1.942   0.319  10.464
42860W        W15928  16.942  21.734  11.073
42861W        W15929  30.796   5.816  12.065
42862W        W15930  43.518  20.708  11.972
42863W        W15931  40.785  30.009  14.306
42864W        W15932  25.679   2.186  13.522
42865W        W15933   4.133  17.620   2.918
42866W        W15934  34.067  41.389  11.757
42867W        W15935   2.335  13.287  12.798
42868W        W15936   7.566   1.970   4.232
42869W        W15937  35.067   7.876   0.828
42870W        W15938  30.185  26.042  10.911
42871W        W15939   3.050  26.394   2.365
42872W        W15940  40.280  25.678   4.771
42873W        W15941  26.647  15.123  13.097
42874W        W15942  27.964  16.068  10.937
42875W        W15943  28.029  40.505  10.980
42876W        W15944  11.343   2.413  14.682
42877W        W15945  39.473  25.656  12.307
42878W        W15946  44.857  10.253  12.118
42879W        W15947  41.346  15.200  12.037
42880W        W15948   4.127   0.658  13.796
42881W        W15949   0.191  31.418  11.078
42882W        W15950  42.967   5.798   1.846
42883W        W15951  34.160  28.947   2.100
42884W        W15952  24.129   8.288  14.741
42885W        W15953  32.017  18.095   0.460
42886W        W15954  17.567  25.914   2.691
42887W        W15955  41.885   6.336   1.414
42888W        W15956  24.506  20.254  14.023
42889W        W15957  41.973   4.262   1.205
42890W        W15958  22.670   2.474  11.958
42891W        W15959  39.356  40.665  12.368
42892W        W15960   1.518  25.499   2.331
42893W        W15961   0.951  15.257   0.355
42894W        W15962   7.246   0.542   0.913
42895W        W15963  16.640  37.098   3.716
42896W        W15964  30.638   9.546  12.837
42897W        W15965  42.312  28.474   1.877
42898W        W15966  15.907   4.892  13.810
42899W        W15967  31.014  41.860  12.220
42900W        W15968  39.449  24.352   2.765
42901W        W15969  39.821  19.051   2.787
42902W        W15970   4.151  39.131   2.378
42903W        W15971  21.198   2.180   3.610
42904W        W15972   4.328  36.914  14.421
42905W        W15973  24.473  33.039  13.970
42906W        W15974  13.221   6.938  11.908
42907W        W15975  15.217  33.818  12.703
42908W        W15976  44.755   9.612  12.937
42909W        W15977  22.588  43.402   4.805
42910W        W15978  16.126  21.990  11.626
42911W        W15979  24.585  11.826   3.627
42912W        W15980  37.566  21.168  14.199
42913W        W15981  37.467  19.262  13.362
42914W        W15982  35.521  10.797   1.104
42915W        W15983  41.212  19.520  13.772
42916W        W15984  31.056  17.803  13.108
42917W        W15985  28.694   9.145   2.415
42918W        W15986  29.355   3.351  10.776
42919W        W15987  40.951  21.825   0.728
42920W        W15988  33.509  44.969  14.111
42921W        W15989  25.244  19.968  13.614
42922W        W15990  27.770   8.322  10.706
42923W        W15991   6.316  38.421  14.218
42924W        W15992  29.932  22.383   0.823
42925W        W15993  28.053   9.335   4.416
42926W        W15994  26.914  44.014  10.660
42927W        W15995  19.198  26.743  11.161
42928W        W15996  42.259   5.392   1.631
42929W        W15997  44.937  42.382   3.140
42930W        W15998  42.710  38.654  11.986
42931W        W15999  28.651   1.351   1.876
42932W        W16000  17.972  42.728   1.841
42933W        W16001  17.736  39.814   2.754
42934W        W16002  33.394  27.067   2.924
42935W        W16003   6.258  39.800  12.370
42936W        W16004  38.032  27.646  11.523
42937W        W16005   5.392  44.646   0.521
42938W        W16006   5.568  14.443   0.150
42939W        W16007  35.109  41.915  11.039
42940W        W16008  36.128   6.739  11.525
42941W        W16009  31.847  42.395  11.907
42942W        W16010  25.233  23.696  14.938
42943W        W16011  35.165   2.825  14.303
42944W        W16012   2.996  35.958  13.056
42945W        W16013  37.453  10.649  10.572
42946W        W16014  13.028  41.351   3.549
42947W        W16015  28.625  33.753   3.224
42948W        W16016  34.077   9.274   3.834
42949W        W16017   4.938  26.386  12.036
42950W        W16018  30.437  13.170   1.529
42951W        W16019   9.412   9.217   2.349
42952W        W16020  14.613  24.048   0.596
42953W        W16021   5.843  35.337   3.184
42954W        W16022   6.507  24.983   2.175
42955W        W16023  43.228  13.158  14.781
42956W        W16024  15.193  22.325   3.296
42957W        W16025  39.368  17.755   0.009
42958W        W16026  40.416  23.465   1.232
42959W        W16027   3.908  25.030  13.806
42960W        W16028  14.922  41.788   1.341
42961W        W16029  39.365  16.544   0.856
42962W        W16030  13.682   1.642  13.352
42963W        W16031  15.511  38.307  11.448
42964W        W16032  15.546   1.829  11.619
42965W        W16033   6.912  35.476   1.510
42966W        W16034  31.493  28.172   1.012
42967W        W16035  22.618  26.834   3.057
42968W        W16036  40.346  36.480  11.176
42969W        W16037   9.872  42.592   3.462
42970W        W16038  33.948  28.612   0.467
42971W        W16039  36.085  13.319  14.348
42972W        W16040  32.527  32.164  12.413
42973W        W16041  43.190  12.251  14.694
42974W        W16042  28.911  13.842  12.365
42975W        W16043  43.558  36.535  10.742
42976W        W16044  37.324  40.935  13.912
42977W        W16045   4.248  11.112  12.011
42978W        W16046  32.896  30.438   3.285
42979W        W16047  32.081  33.131   2.882
42980W        W16048  36.006  17.155   1.393
42981W        W16049   0.316  41.958   2.470
42982W        W16050  26.111   5.735   2.404
42983W        W16051  12.495   4.819   5.095
42984W        W16052   3.857   2.946   2.918
42985W        W16053  38.813   3.627  14.493
42986W        W16054  21.447  39.010  11.204
42987W        W16055  11.734  17.593  11.115
42988W        W16056  40.605  38.540   1.280
42989W        W16057  35.118  40.852   0.805
42990W        W16058  12.239  29.202   1.702
42991W        W16059   6.171  12.812   3.622
42992W        W16060  15.758  35.450   3.178
42993W        W16061  22.128  24.186  12.597
42994W        W16062  13.328  11.639  14.935
42995W        W16063  31.716   0.753   2.385
42996W        W16064  23.163  15.782   1.220
42997W        W16065   0.547  12.409  11.999
42998W        W16066   7.206  30.622  14.373
42999W        W16067  42.290  43.001   3.570
43000W        W16068  21.247  13.991  13.084
43001W        W16069  12.488  20.236  10.856
43002W        W16070   9.311  11.972  11.958
43003W        W16071  38.535  22.301   0.326
43004W        W16072  26.534  37.977   4.187
43005W        W16073  30.551   6.440   0.333
43006W        W16074   7.404   0.922  13.161
43007W        W16075  42.349  37.039   1.799
43008W        W16076   3.958  41.425  11.470
43009W        W16077  17.758  19.656  12.007
43010W        W16078  11.875   4.238  10.486
43011W        W16079  14.243  30.682   1.850
43012W        W16080  24.554  24.949   1.039
43013W        W16081  28.144  24.597   1.846
43014W        W16082  43.758   4.888  10.966
43015W        W16083  42.970  17.915  13.110
43016W        W16084  36.101  40.451   4.281
43017W        W16085  43.240  26.727   0.260
43018W        W16086  29.569  22.261   3.095
43019W        W16087  41.750   5.217   2.179
43020W        W16088  30.921  19.897   1.867
43021W        W16089   1.246  33.516  11.217
43022W        W16090  16.049   2.902  12.595
43023W        W16091   6.859  43.277   1.198
43024W        W16092   8.410  42.329   4.790
43025W        W16093  28.569  32.602   1.155
43026W        W16094  44.337  32.612   2.726
43027W        W16095   3.786  44.158   2.412
43028W        W16096   8.264  39.263   4.146
43029W        W16097   7.858   1.949  13.336
43030W        W16098  31.647  10.432   2.120
43031W        W16099   2.313   1.733   1.001
43032W        W16100  22.718  19.117  14.446
43033W        W16101   3.872  12.898   2.702
43034W        W16102  17.382   8.072   0.734
43035W        W16103  33.922  35.646   4.834
43036W        W16104  42.990  16.273   2.789
43037W        W16105  36.633   2.865   1.926
43038W        W16106  31.202  37.997   1.832
43039W        W16107  43.025  39.547   3.091
43040W        W16108  23.703  35.072   3.882
43041W        W16109  23.698   3.980   0.309
43042W        W16110  18.791  18.034   0.018
43043W        W16111  16.375  44.444  10.601
43044W        W16112  34.204   4.417  11.045
43045W        W16113  10.125  15.004   1.701
43046W        W16114  18.808  44.944   1.352
43047W        W16115  35.304  22.534  13.256
43048W        W16116  23.514  17.303   2.134
43049W        W16117  34.367   9.738   3.722
43050W        W16118  16.962   3.756  11.403
43051W        W16119   1.072  21.704   1.322
43052W        W16120  34.906  37.037  11.733
43053W        W16121   5.443  33.946  13.621
43054W        W16122  24.308  35.996  12.090
43055W        W16123  36.362   5.850   0.328
43056W        W16124  37.529  40.963  12.523
43057W        W16125   2.195  19.189  12.128
43058W        W16126   1.854  24.683   1.780
43059W        W16127   9.731   8.903  14.279
43060W        W16128  22.749  19.570  10.182
43061W        W16129  31.144  37.855  13.545
43062W        W16130  21.952  20.073   0.215
43063W        W16131  27.165  39.124   0.392
43064W        W16132   9.632   1.891  11.636
43065W        W16133   4.974  11.575  10.446
43066W        W16134   8.657  39.811  12.914
43067W        W16135   7.111   8.438   3.867
43068W        W16136  36.049  29.639  10.641
43069W        W16137  28.003  25.626  12.853
43070W        W16138  29.871  44.713   4.657
43071W        W16139  35.008  17.503   2.760
43072W        W16140  11.097   4.888   1.245
43073W        W16141  35.674  12.499   3.220
43074W        W16142  21.115  19.550  12.480
43075W        W16143  18.060  13.817  11.928
43076W        W16144  20.143  37.405   4.330
43077W        W16145   1.324   7.128  12.829
43078W        W16146  26.291   1.313  13.818
43079W        W16147  30.312  37.959   1.335
43080W        W16148  36.434  22.938  14.982
43081W        W16149  25.488   1.735  12.607
43082W        W16150  25.072   0.747   2.316
43083W        W16151  26.370  38.011   1.433
43084W        W16152  41.337   8.622   3.260
43085W        W16153  32.962  35.916  14.297
43086W        W16154  26.925   2.405  10.581
43087W        W16155  39.561  43.739  13.420
43088W        W16156  36.478   3.309  11.467
43089W        W16157  28.881   5.997   0.306
43090W        W16158  16.741  27.610   2.875
43091W        W16159   7.676  32.419  13.347
43092W        W16160  25.794  20.828  14.547
43093W        W16161   9.931  33.992  11.155
43094W        W16162   2.729  20.285  11.048
43095W        W16163  17.683   4.056  14.130
43096W        W16164  23.712  27.509   4.107
43097W        W16165   1.382   4.782  11.973
43098W        W16166  41.440   1.162   2.647
43099W        W16167  13.772  44.926   1.785
43100W        W16168  24.642  37.794   0.346
43101W        W16169   2.251   3.362   1.766
43102W        W16170  10.185   2.751   1.308
43103W        W16171   8.118  13.290   3.684
43104W        W16172   6.621  40.013  12.084
43105W        W16173  42.807  22.268  10.218
43106W        W16174  36.309  25.194   1.508
43107W        W16175   7.980  26.970  14.159
43108W        W16176  37.118   1.917   0.037
43109W        W16177  23.076  42.187  14.877
43110W        W16178  15.262  15.814   1.759
43111W        W16179  24.099  16.982  12.285
43112W        W16180  40.859  39.639  13.340
43113W        W16181  33.899  21.562  10.359
43114W        W16182  39.753  22.297   3.658
43115W        W16183  19.433   2.473  13.578
43116W        W16184  23.914   1.581  10.142
43117W        W16185  24.854  33.177   1.888
43118W        W16186  17.199  10.959  13.367
43119W        W16187  25.681  30.880  11.194
43120W        W16188  10.058  19.706   2.310
43121W        W16189  44.818  38.571   4.666
43122W        W16190  43.441  33.748   1.575
43123W        W16191   0.453  25.468  12.806
43124W        W16192  36.990   8.696  11.045
43125W        W16193  27.056   3.389   3.409
43126W        W16194   7.067  31.650   9.904
43127W        W16195  13.695   7.438   4.558
43128W        W16196  42.615  17.863   2.754
43129W        W16197   5.829  29.837  14.377
43130W        W16198  39.849   2.063   4.683
43131W        W16199  36.918  10.445  13.453
43132W        W16200  19.953   6.756  12.688
43133W        W16201  23.458  16.998  13.421
43134W        W16202   2.840   1.170   4.074
43135W        W16203   3.214   0.387  13.559
43136W        W16204  29.493  35.187  14.812
43137W        W16205   7.915  24.981   0.828
43138W        W16206  28.998  42.742   2.955
43139W        W16207  38.517  42.365   3.696
43140W        W16208  23.964   7.973   3.403
43141W        W16209  21.444  41.866   0.460
43142W        W16210  13.752   8.286  12.889
43143W        W16211  21.806  23.925   0.471
43144W        W16212   9.523  37.420  13.439
43145W        W16213  24.242  14.612   1.416
43146W        W16214  17.099  42.340   4.624
43147W        W16215  35.112  18.220  10.745
43148W        W16216  16.037   0.320  11.178
43149W        W16217  29.855  37.351   0.371
43150W        W16218   2.064  13.238  10.703
43151W        W16219  21.260  12.146  14.426
43152W        W16220  31.634  16.360   0.365
43153W        W16221   4.130  32.617  14.999
43154W        W16222  16.200   1.052  12.194
43155W        W16223  36.781  29.378   0.189
43156W        W16224   0.142  42.252   2.090
43157W        W16225   2.987  19.146  11.016
43158W        W16226  30.422  30.029   2.266
43159W        W16227  18.727  22.152   0.794
43160W        W16228  28.688   8.613  14.891
43161W        W16229  23.277  38.323   3.623
43162W        W16230   3.011   6.193   4.226
43163W        W16231   5.505  23.211   1.358
43164W        W16232  12.816  38.608  14.353
43165W        W16233  30.174  36.372  12.576
43166W        W16234  32.488  28.577  14.842
43167W        W16235  18.713  11.310   2.943
43168W        W16236   2.400  44.000   0.556
43169W        W16237  42.728  44.902  14.014
43170W        W16238   4.477  37.311   1.797
43171W        W16239  37.051   5.966  13.968
43172W        W16240  28.651  19.522   3.533
43173W        W16241   0.193   2.397  14.710
43174W        W16242  14.394  12.374   1.473
43175W        W16243   3.279  27.209   0.724
43176W        W16244  38.243   7.142  13.124
43177W        W16245  27.254  39.313  13.368
43178W        W16246  26.619  33.404   2.762
43179W        W16247  26.140  11.759  11.863
43180W        W16248  31.615  13.944   2.881
43181W        W16249  31.060  21.001  12.018
43182W        W16250   8.847  27.636  14.263
43183W        W16251  31.358  36.886  14.795
43184W        W16252  10.195   8.994   4.598
43185W        W16253   9.562   2.266  13.901
43186W        W16254  39.966  14.697   2.315
43187W        W16255  35.999  28.281  13.322
43188W        W16256  28.887  13.298  11.597
43189W        W16257   3.613  26.577  11.784
43190W        W16258  34.638  37.246   5.073
43191W        W16259  26.712  37.875  14.326
43192W        W16260  17.355   3.158   0.061
43193W        W16261  43.176  37.249  11.144
43194W        W16262   2.817   0.714  13.407
43195W        W16263   3.309  10.264  10.982
43196W        W16264  42.542   9.381   0.888
43197W        W16265  22.526  35.794  14.280
43198W        W16266  33.410  32.105   4.478
43199W        W16267  22.529   4.374  11.838
43200W        W16268  39.880  29.692  11.186
43201W        W16269   4.803  11.873  14.893
43202W        W16270  32.630  32.444   1.267
43203W        W16271  20.534  36.942  13.030
43204W        W16272  33.912  18.106   2.657
43205W        W16273  22.526  25.550  11.114
43206W        W16274  32.934  42.276  12.921
43207W        W16275  18.523  29.672  12.079
43208W        W16276   4.201  15.698  14.314
43209W        W16277  40.348  26.531  10.175
43210W        W16278  28.457  13.373   3.573
43211W        W16279   9.796  13.728  12.185
43212W        W16280  34.365   3.970  11.249
43213W        W16281   6.651  30.025  11.542
43214W        W16282  32.073   1.572   0.379
43215W        W16283  13.842  33.475   2.062
43216W        W16284   0.545  43.553  13.916
43217W        W16285  22.353  15.053  12.683
43218W        W16286  27.044   4.768  11.492
43219W        W16287   1.203   7.658   2.337
43220W        W16288  24.620  16.128   1.197
43221W        W16289   6.422   0.310   1.491
43222W        W16290  12.542  21.425  12.544
43223W        W16291  37.607  16.007   1.907
43224W        W16292   7.224  21.419  10.324
43225W        W16293   3.337  44.510  11.574
43226W        W16294  39.590   7.258   4.912
43227W        W16295  34.472  40.979  13.841
43228W        W16296  26.991  10.145  12.727
43229W        W16297  31.090  39.596  11.103
43230W        W16298  35.040  25.758   2.888
43231W        W16299  31.275  25.639   4.902
43232W        W16300   2.667  30.257  13.999
43233W        W16301  35.097  27.014  11.445
43234W        W16302  25.635  17.374   2.937
43235W        W16303  12.865  43.938   1.925
43236W        W16304   0.839   6.158   4.241
43237W        W16305  31.922  42.626  10.969
43238W        W16306  38.210  20.074  12.066
43239W        W16307   1.900  15.335  10.612
43240W        W16308  33.655  12.555  10.866
43241W        W16309  36.133  31.416  12.075
43242W        W16310   0.561   1.790   1.824
43243W        W16311  44.737  21.790   1.781
43244W        W16312  30.009   7.525  12.140
43245W        W16313   3.699  33.871  11.077
43246W        W16314   7.245   1.327  11.276
43247W        W16315  15.877  32.104  10.880
43248W        W16316  10.131   1.637  11.626
43249W        W16317   7.834  19.809   3.819
43250W        W16318  25.181  32.442  13.186
43251W        W16319  23.531  20.091   0.734
43252W        W16320  25.188  31.905  10.672
43253W        W16321  42.230   8.169   2.169
43254W        W16322   3.140  42.885  10.366
43255W        W16323  23.757  10.179   0.530
43256W        W16324  44.440  36.096   4.461
43257W        W16325  15.385   3.817  10.779
43258W        W16326  41.177  26.970   3.831
43259W        W16327  21.064  20.704  13.891
43260W        W16328  24.518   0.670   3.352
43261W        W16329  17.183   6.836  12.382
43262W        W16330   7.247  26.940   2.340
43263W        W16331  32.096  13.095   0.772
43264W        W16332   4.965  12.191   3.885
43265W        W16333  30.436  22.973   3.736
43266W        W16334  23.459  37.595  11.382
43267W        W16335  30.653   7.826  11.994
43268W        W16336  21.623  38.603   4.513
43269W        W16337  32.415   0.562   4.163
43270W        W16338   9.273  15.107   2.469
43271W        W16339  19.731  35.188   2.405
43272W        W16340  15.022   6.758   3.669
43273W        W16341  20.182  35.081   3.751
43274W        W16342   8.667  30.717   0.937
43275W        W16343  18.191  33.961  14.041
43276W        W16344   9.823  16.567  13.896
43277W        W16345  28.384  44.562  14.901
43278W        W16346   1.608  17.696  11.482
43279W        W16347   9.342  44.158   1.325
43280W        W16348  19.738  44.705  11.649
43281W        W16349   3.362  42.940   2.839
43282W        W16350   8.173  28.423   2.589
43283W        W16351  22.644   7.339  10.856
43284W        W16352  31.429  10.328  12.631
43285W        W16353   8.392   6.673   4.589
43286W        W16354  10.345  36.808   1.951
43287W        W16355  15.809  29.355  13.735
43288W        W16356  44.507  18.248  11.213
43289W        W16357  36.542  24.726   0.028
43290W        W16358  15.735  12.311  11.891
43291W        W16359  44.014  42.401   3.207
43292W        W16360  42.632  22.670   2.815
43293W        W16361   3.395  16.571  11.981
43294W        W16362  41.555  28.745  11.270
43295W        W16363  11.391  39.539  13.623
43296W        W16364   3.724  41.933   2.789
43297W        W16365  31.453  44.736   3.608
43298W        W16366  14.677   0.918   1.947
43299W        W16367  25.160   5.891  12.425
43300W        W16368  12.334  42.756  14.059
43301W        W16369  20.257  36.871  14.362
43302W        W16370  25.590  18.827  11.971
43303W        W16371  11.379   8.834  11.585
43304W        W16372  11.757  44.291   0.717
43305W        W16373  14.569   6.927  14.820
43306W        W16374   1.314   4.320   4.442
43307W        W16375   6.190  16.809   0.752
43308W        W16376  15.589  30.194   2.593
43309W        W16377  10.216  39.088  14.857
43310W        W16378  24.587  34.079   3.642
43311W        W16379  18.151  43.615  10.653
43312W        W16380  29.619  13.544  11.973
43313W        W16381  43.939  42.356   4.183
43314W        W16382  27.485  41.837   1.947
43315W        W16383  11.395  39.027   2.063
43316W        W16384   1.823  15.389   0.877
43317W        W16385  16.937  13.648  13.562
43318W        W16386  26.527  23.208  13.181
43319W        W16387  35.357  34.897  14.417
43320W        W16388  21.521  16.390   4.592
43321W        W16389  21.008  39.942  12.823
43322W        W16390   6.342  15.168  14.403
43323W        W16391  10.582   9.669   0.731
43324W        W16392  43.055  34.923  11.156
43325W        W16393  11.399   3.248   4.709
43326W        W16394  25.594  44.312   2.186
43327W        W16395  14.238  35.428   2.481
43328W        W16396  22.986   0.743   0.057
43329W        W16397  17.603  31.071   2.892
43330W        W16398  19.315  19.126  10.736
43331W        W16399  19.208   7.690  12.808
43332W        W16400   4.791   3.124   9.805
43333W        W16401  22.424  26.436  11.133
43334W        W16402  35.612  16.308  11.728
43335W        W16403  13.887  28.407  14.861
43336W        W16404  25.017  13.215   0.714
43337W        W16405  12.179  30.832   3.834
43338W        W16406  35.050   4.955  10.916
43339W        W16407  12.456  42.494   4.094
43340W        W16408   1.683  36.546   3.307
43341W        W16409  31.105  27.476  11.510
43342W        W16410  38.922  18.372   4.808
43343W        W16411  28.005   0.771  12.729
43344W        W16412  36.670  42.990   1.478
43345W        W16413  30.893  17.644  14.604
43346W        W16414  10.731  13.295  13.805
43347W        W16415  21.500  15.882  10.195
43348W        W16416  27.301   5.209  11.639
43349W        W16417  40.353   3.332  11.497
43350W        W16418   2.800  21.842  11.065
43351W        W16419  12.124  23.529  13.185
43352W        W16420  37.010  22.000  14.351
43353W        W16421   2.506  15.073  11.934
43354W        W16422  34.925  36.422   3.591
43355W        W16423  20.359   8.899   0.327
43356W        W16424  35.651  13.333  10.626
43357W        W16425  24.840  39.897   5.015
43358W        W16426  18.659  44.275   2.418
43359W        W16427   0.211  36.886   4.609
43360W        W16428  13.187  26.511  12.694
43361W        W16429  42.003  11.762  14.995
43362W        W16430  32.255  27.995  13.008
43363W        W16431  34.616  36.767  14.442
43364W        W16432  42.301   6.069  10.471
43365W        W16433  34.381  33.230   5.423
43366W        W16434  32.587  22.597   2.742
43367W        W16435   5.421  43.381  11.963
43368W        W16436  37.358  17.269  12.443
43369W        W16437  16.838  40.879  13.983
43370W        W16438  13.430  29.528   1.194
43371W        W16439  21.240  26.389   5.006
43372W        W16440  34.535  26.030  12.533
43373W        W16441  41.830  31.633   3.674
43374W        W16442  11.295  34.684  12.041
43375W        W16443   0.044  15.194  12.580
43376W        W16444  21.999  22.181   3.163
43377W        W16445  10.234   4.272   0.782
43378W        W16446  15.798  29.553  11.550
43379W        W16447   2.272  31.697  12.969
43380W        W16448  34.334  15.217  14.041
43381W        W16449  28.093  34.304   1.263
43382W        W16450  16.131   6.255   0.821
43383W        W16451   0.267  15.692   2.615
43384W        W16452  10.606  30.588  13.255
43385W        W16453  17.439  22.144   4.160
43386W        W16454  44.171   5.647   2.270
43387W        W16455   0.209   3.138  11.498
43388W        W16456   8.776  34.410   2.882
43389W        W16457  11.642  37.524  12.035
43390W        W16458  17.533  43.755   2.156
43391W        W16459  22.853  42.196   3.420
43392W        W16460  26.312  32.346   1.410
43393W        W16461  25.319  30.052   2.167
43394W        W16462  26.000  41.492   2.089
43395W        W16463   0.266  16.738   0.938
43396W        W16464  29.505  18.813   2.259
43397W        W16465   9.900  44.732  10.465
43398W        W16466   8.923   7.384  14.834
43399W        W16467  19.465  40.981  13.435
43400W        W16468  36.920  38.114   1.945
43401W        W16469  24.722  40.712  12.492
43402W        W16470  14.337  24.079  11.877
43403W        W16471  17.147  29.279   0.929
43404W        W16472  31.149   5.990  13.564
43405W        W16473  37.120   0.153  10.426
43406W        W16474  11.622  39.260  10.173
43407W        W16475   8.203   6.534   0.877
43408W        W16476  29.554  39.487  11.416
43409W        W16477  44.301  13.685   2.630
43410W        W16478  23.529  24.712  12.380
43411W        W16479  24.101  27.389  12.561
43412W        W16480  34.086   6.805   1.492
43413W        W16481  17.103  40.485  13.610
43414W        W16482  27.379   9.303   2.773
43415W        W16483  33.876  19.501  11.408
43416W        W16484  15.587  30.671  14.962
43417W        W16485  12.627   1.028   2.926
43418W        W16486  23.171  14.665   2.437
43419W        W16487   9.849  25.782   2.820
43420W        W16488  25.451  16.499   3.253
43421W        W16489  11.567  10.709  12.532
43422W        W16490  39.709   3.293  12.025
43423W        W16491  15.113  42.086  13.527
43424W        W16492  40.400  27.772  10.575
43425W        W16493   3.946  22.140   3.618
43426W        W16494  36.069  43.514   4.115
43427W        W16495  13.189  36.971   3.801
43428W        W16496  24.805  10.514   2.278
43429W        W16497  34.678  28.608  11.262
43430W        W16498  10.936  21.116   1.236
43431W        W16499   9.873  15.703   1.259
43432W        W16500   6.280  10.214  10.401
43433W        W16501   2.527   8.268  14.414
43434W        W16502  19.218  33.465   1.248
43435W        W16503   2.228  34.114   4.079
43436W        W16504  19.865  17.492   0.951
43437W        W16505  16.819  41.473  10.553
43438W        W16506   0.001  39.627   2.219
43439W        W16507   2.365  30.421   2.325
43440W        W16508  21.795  18.716   5.010
43441W        W16509  43.928  28.636  10.832
43442W        W16510  31.985  21.420   4.100
43443W        W16511  25.982  40.809   3.723
43444W        W16512  44.360  11.610  14.824
43445W        W16513   5.410  30.639   2.366
43446W        W16514  32.862  21.957   4.072
43447W        W16515  23.601  13.320   4.244
43448W        W16516   5.748  17.023   0.644
43449W        W16517  19.236  24.636  14.402
43450W        W16518  34.276  11.101  12.603
43451W        W16519  32.879  18.501   4.180
43452W        W16520  35.039  15.554   0.852
43453W        W16521  14.645  21.913   4.020
43454W        W16522  13.763   3.235   0.826
43455W        W16523   8.608  18.650   1.232
43456W        W16524  27.767  13.145  13.928
43457W        W16525  30.379  40.886   4.691
43458W        W16526   9.434  41.551  12.478
43459W        W16527  27.373  22.390   4.024
43460W        W16528  32.174  11.380  14.794
43461W        W16529   3.319  23.711   3.135
43462W        W16530  38.324  43.879  11.183
43463W        W16531  16.830  21.940  10.583
43464W        W16532   8.231   7.842  14.257
43465W        W16533  42.428  23.545   4.793
43466W        W16534  37.854  14.916  11.521
43467W        W16535  34.665  35.984  14.462
43468W        W16536   3.224   1.349   4.422
43469W        W16537  17.146  44.801   1.395
43470W        W16538  40.405  16.641  10.475
43471W        W16539  39.433  23.224   3.785
43472W        W16540  13.015   0.495   4.151
43473W        W16541  26.257  16.352  11.601
43474W        W16542  38.923  11.379  14.993
43475W        W16543  26.722  23.044  11.223
43476W        W16544  23.340  32.873  11.654
43477W        W16545  37.900  29.475   4.773
43478W        W16546  27.531  28.624  13.590
43479W        W16547  42.522  13.209  13.484
43480W        W16548  10.402  28.140  13.587
43481W        W16549  24.760  43.735  11.159
43482W        W16550  21.038  33.551   2.687
43483W        W16551  21.114  30.405   4.494
43484W        W16552  42.350  35.891   0.321
43485W        W16553  30.255   1.195  14.011
43486W        W16554   2.494  30.420   9.832
43487W        W16555  18.036  10.886   1.481
43488W        W16556  35.870  12.789  13.515
43489W        W16557  33.197  14.453   4.536
43490W        W16558  35.303  29.229  13.632
43491W        W16559  15.346   7.174  11.142
43492W        W16560  16.542  41.888  10.700
43493W        W16561  18.753   6.796   3.239
43494W        W16562   3.439   9.861  12.335
43495W        W16563  28.069  40.593  10.452
43496W        W16564  34.900  11.176   4.613
43497W        W16565  14.322  35.002  11.395
43498W        W16566   7.456  16.315  11.509
43499W        W16567  41.972  20.649   3.180
43500W        W16568  41.439  37.641  11.131
43501W        W16569  26.044  28.611   2.753
43502W        W16570  24.162  40.048  11.473
43503W        W16571  21.581  22.515  14.071
43504W        W16572  28.713  23.009  12.679
43505W        W16573  14.762   3.872  11.954
43506W        W16574  41.238   7.440  12.411
43507W        W16575  27.695  35.358   5.059
43508W        W16576  32.665  42.350   1.886
43509W        W16577  21.227  20.785   1.380
43510W        W16578  37.082  27.885   4.650
43511W        W16579  32.597  22.674   0.307
43512W        W16580  17.737  15.198   4.710
43513W        W16581  28.124  27.906  12.604
43514W        W16582  22.629   9.337  14.554
43515W        W16583  36.692  19.937   1.800
43516W        W16584  32.133  28.046  14.718
43517W        W16585  17.196  21.205   0.900
43518W        W16586  17.814   2.362  11.660
43519W        W16587  33.878  39.098   4.172
43520W        W16588  36.037  15.161  13.020
43521W        W16589  39.932  44.399  11.954
43522W        W16590  38.436   7.781  11.300
43523W        W16591  44.778  36.095   2.345
43524W        W16592  29.755   1.964   4.424
43525W        W16593  34.157  26.643  13.044
43526W        W16594   7.341  38.133  10.759
43527W        W16595  17.859  32.841   0.467
43528W        W16596  43.357  20.620   1.666
43529W        W16597  25.021  42.543   3.808
43530W        W16598  32.255  14.381  10.395
43531W        W16599  29.114  16.690  14.581
43532W        W16600  32.174  29.681   4.686
43533W        W16601  44.762   9.546  10.718
43534W        W16602  36.100  21.099   2.892
43535W        W16603  24.914  12.426   4.693
43536W        W16604  37.535  24.049   1.371
43537W        W16605  35.889  21.337  13.636
43538W        W16606  24.764  32.625   0.934
43539W        W16607  13.280  30.744  12.328
43540W        W16608  26.918  38.532   1.332
43541W        W16609  13.336  36.167   2.761
43542W        W16610  34.382  10.664   0.812
43543W        W16611   7.720  27.016   0.492
43544W        W16612   3.195  31.508  11.870
43545W        W16613   4.291   3.689   1.473
43546W        W16614  21.973   6.125  11.946
43547W        W16615   2.002  24.502   3.636
43548W        W16616   1.719  10.362  11.184
43549W        W16617   6.949  33.628   2.276
43550W        W16618  24.603  30.583   2.229
43551W        W16619  31.212  21.527   2.864
43552W        W16620  36.519  40.748  13.536
43553W        W16621  38.952  27.484  12.514
43554W        W16622   2.908  31.046   2.462
43555W        W16623  31.543  23.200  11.530
43556W        W16624   2.264  29.966  13.894
43557W        W16625  43.315  24.196   3.606
43558W        W16626  14.240   8.477  13.804
43559W        W16627   3.209  29.212   4.150
43560W        W16628  39.080   0.879  13.561
43561W        W16629  28.482  38.625   3.034
43562W        W16630   3.276  35.983  14.465
43563W        W16631   9.183  42.072  13.991
43564W        W16632  30.046  21.742  12.426
43565W        W16633   8.801  36.132  10.732
43566W        W16634  31.427   9.817   3.854
43567W        W16635  21.287  15.803  14.798
43568W        W16636  31.968   4.196   1.699
43569W        W16637  18.028  25.964   3.519
43570W        W16638  41.920  22.753  11.167
43571W        W16639  33.435  15.405  13.050
43572W        W16640  38.499  34.846   1.512
43573W        W16641  26.766  16.694  12.040
43574W        W16642  30.609   2.264  11.604
43575W        W16643  37.355   6.928   4.011
43576W        W16644   7.846  30.933  13.484
43577W        W16645  36.700  14.703  10.531
43578W        W16646  39.776  24.036   4.441
43579W        W16647  17.288  21.425  11.967
43580W        W16648   0.842  43.957   3.593
43581W        W16649  33.113   6.450   0.848
43582W        W16650  42.108   9.811   3.953
43583W        W16651  33.564  31.247   4.097
43584W        W16652  38.587  24.498   2.373
43585W        W16653   5.600   9.176   1.915
43586W        W16654  20.686  26.693   4.403
43587W        W16655  43.053  15.287  14.631
43588W        W16656  15.558  35.340   1.115
43589W        W16657  20.202  31.938  11.579
43590W        W16658   9.120  14.928  11.227
43591W        W16659   3.014  15.720   0.021
43592W        W16660  11.706  30.067   1.669
43593W        W16661  33.406  27.631   3.264
43594W        W16662  38.371  42.499   2.649
43595W        W16663  24.164  35.442   2.239
43596W        W16664  14.845  18.263  14.425
43597W        W16665  37.547  36.333  13.085
43598W        W16666  24.533  27.655   4.735
43599W        W16667  33.892  31.283  13.484
43600W        W16668   4.547  31.226   0.433
43601W        W16669  32.227  16.817   1.819
43602W        W16670  39.841   9.151  13.601
43603W        W16671  27.470   2.802   2.714
43604W        W16672  38.984   7.473  13.552
43605W        W16673  42.259   2.919   1.726
43606W        W16674   9.944   2.496  14.333
43607W        W16675  43.110  19.515  10.905
43608W        W16676  41.088  25.225  12.403
43609W        W16677  21.628  40.871  12.756
43610W        W16678  40.113  41.278  14.180
43611W        W16679  41.135   8.651  12.023
43612W        W16680   6.784   9.701  12.466
43613W        W16681   1.344  12.595   4.639
43614W        W16682  13.702  39.283  10.614
43615W        W16683  36.009  27.691  11.573
43616W        W16684  42.083   5.246   4.128
43617W        W16685  23.049  24.247   4.337
43618W        W16686   1.713  10.451   2.734
43619W        W16687   8.128  15.575  11.090
43620W        W16688  38.560  38.862  14.762
43621W        W16689  17.550  10.674  10.568
43622W        W16690  38.992  17.203   1.139
43623W        W16691  14.653  35.650   2.176
43624W        W16692   5.037   5.732   2.858
43625W        W16693  28.988  41.012  13.095
43626W        W16694  12.491  28.209  12.553
43627W        W16695  15.619  21.062   1.364
43628W        W16696   1.823   9.203  10.592
43629W        W16697  18.272  39.912   0.033
43630W        W16698  43.750  37.906  10.702
43631W        W16699  22.520  19.561   3.298
43632W        W16700  26.913  10.843   3.714
43633W        W16701  28.979   0.558   0.455
43634W        W16702  41.200  27.359   4.629
43635W        W16703  33.570  39.074  12.379
43636W        W16704  29.524  33.851   3.671
43637W        W16705  41.451  16.690  14.016
43638W        W16706  42.053  38.071   1.467
43639W        W16707  16.528  39.284   1.376
43640W        W16708  20.449   8.247   2.320
43641W        W16709  28.561  26.523   0.426
43642W        W16710   9.219  15.759   0.387
43643W        W16711  22.274  28.410  12.477
43644W        W16712  11.607  35.642   3.766
43645W        W16713  38.324  25.890  12.530
43646W        W16714  11.411  40.552   3.700
43647W        W16715  12.122  44.318  11.135
43648W        W16716  12.668  13.303  13.942
43649W        W16717   6.802  25.941   3.126
43650W        W16718   6.118  23.660   2.413
43651W        W16719   2.495  15.566  12.078
43652W        W16720   9.136  39.398   9.693
43653W        W16721  24.764  13.547  11.581
43654W        W16722  22.255  30.039   3.153
43655W        W16723  27.990  33.302   4.029
43656W        W16724  37.853  11.130   0.779
43657W        W16725  28.140   1.914   2.832
43658W        W16726  19.671  20.794  14.802
43659W        W16727  11.692   5.671   3.293
43660W        W16728  44.699  32.029  12.100
43661W        W16729  41.503  44.420  11.780
43662W        W16730  34.801  33.842  14.783
43663W        W16731  19.665  40.079  13.126
43664W        W16732   1.344  36.631  12.187
43665W        W16733  23.981  43.064  13.701
43666W        W16734  26.141  42.760  12.852
43667W        W16735  30.502   3.409  12.446
43668W        W16736  18.148  22.953   0.848
43669W        W16737  21.378  40.464   0.403
43670W        W16738  24.703  42.264  13.425
43671W        W16739  33.721  10.193   3.921
43672W        W16740  16.564  16.829  14.996
43673W        W16741  35.586   9.721  12.174
43674W        W16742  17.809  22.769  11.868
43675W        W16743  16.788  22.218  11.017
43676W        W16744  30.638  11.691   3.774
43677W        W16745  31.810  35.044  14.307
43678W        W16746  29.549  29.091  11.209
43679W        W16747  36.298  37.519   2.649
43680W        W16748  35.425   5.728  11.176
43681W        W16749  40.789  26.085  11.854
43682W        W16750  12.599  18.720   5.043
43683W        W16751  22.966  21.161   4.025
43684W        W16752   3.865  30.872   2.213
43685W        W16753  15.054  26.610   2.124
43686W        W16754  25.464  39.337  14.722
43687W        W16755  17.240  23.756   3.173
43688W        W16756   7.322   4.971   0.899
43689W        W16757  18.672  44.835  14.568
43690W        W16758   6.814  36.386   0.431
43691W        W16759   1.312  17.220  10.765
43692W        W16760  11.442  19.241   0.328
43693W        W16761  22.008  24.474   2.784
43694W        W16762  31.906  33.390   1.889
43695W        W16763  21.366  16.701  11.195
43696W        W16764  22.579  27.261  11.461
43697W        W16765  39.768  25.596   1.742
43698W        W16766   2.872  44.409   2.204
43699W        W16767  16.792  44.510   2.092
43700W        W16768  38.665   1.731   2.731
43701W        W16769  33.717  32.694  14.875
43702W        W16770  15.740  36.811   3.149
43703W        W16771   8.315  30.683   1.362
43704W        W16772  32.075  34.476  10.244
43705W        W16773  10.499   6.211  11.537
43706W        W16774  37.338  14.626   1.496
43707W        W16775  28.939  15.736   0.877
43708W        W16776  23.556  37.067  12.049
43709W        W16777  24.530  17.593   0.217
43710W        W16778   0.387   1.370  12.937
43711W        W16779  18.796  36.640   3.824
43712W        W16780  18.202   4.963  14.536
43713W        W16781   6.143  10.889  11.591
43714W        W16782  34.038  10.907  13.014
43715W        W16783  24.673   3.728  11.527
43716W        W16784   4.504  38.393  13.512
43717W        W16785  22.945  41.293  14.026
43718W        W16786  34.975  23.176  11.909
43719W        W16787  34.955  32.887  14.637
43720W        W16788  34.708  15.200  12.531
43721W        W16789  40.949   8.681   1.457
43722W        W16790  35.967   5.220   0.912
43723W        W16791  23.639  20.538   1.001
43724W        W16792  35.534   7.626  13.936
43725W        W16793  33.441  23.623   4.564
43726W        W16794   2.242   2.306  10.721
43727W        W16795  14.193   1.740   3.977
43728W        W16796   8.312  39.778   4.149
43729W        W16797  24.071  36.457   1.197
43730W        W16798  10.206  38.983   3.569
43731W        W16799  25.749  19.739   3.521
43732W        W16800  15.183   7.952   0.756
43733W        W16801  31.621  21.012   2.304
43734W        W16802  36.116  29.216  13.103
43735W        W16803  34.879  10.690   1.895
43736W        W16804  41.442  42.771  12.755
43737W        W16805   0.454   4.834   2.660
43738W        W16806  37.623  36.676   0.226
43739W        W16807  25.974  41.864  12.146
43740W        W16808   3.403  41.054  13.413
43741W        W16809  31.647  11.401   3.837
43742W        W16810  25.165   1.573   1.312
43743W        W16811  31.575  14.401  11.482
43744W        W16812  14.621  29.579  10.157
43745W        W16813  17.401  25.324   2.640
43746W        W16814  35.858   1.480  12.054
43747W        W16815  11.202   2.842   2.794
43748W        W16816  22.108  20.978  11.604
43749W        W16817   1.285  26.512  14.125
43750W        W16818  17.475  15.743   3.733
43751W        W16819  14.537  20.861  13.084
43752W        W16820   4.942  39.913  10.755
43753W        W16821  32.375  34.957  13.980
43754W        W16822  27.000  42.579  14.304
43755W        W16823  31.513   0.909  11.375
43756W        W16824  26.803   6.627  11.092
43757W        W16825  37.611  14.717  13.959
43758W        W16826  22.091  30.155  11.977
43759W        W16827  31.397  21.423   1.000
43760W        W16828  14.652   9.461  13.882
43761W        W16829  28.201  10.850   1.408
43762W        W16830  38.140  39.495   4.370
43763W        W16831  24.984  26.161   4.685
43764W        W16832  22.758  35.942   3.544
43765W        W16833  16.664  34.893  10.701
43766W        W16834  18.051   9.933   1.360
43767W        W16835  42.528  28.299  13.623
43768W        W16836  31.015  17.122   2.924
43769W        W16837  29.531  38.588  10.704
43770W        W16838   4.940  37.411   0.342
43771W        W16839   2.790  40.225  12.054
43772W        W16840  42.799  41.848  14.352
43773W        W16841  30.070  15.735  14.343
43774W        W16842  30.118   3.262  12.109
43775W        W16843   6.782  43.561  14.058
43776W        W16844  27.006  35.095  11.612
43777W        W16845  22.853   7.280   4.612
43778W        W16846  36.119  11.529  12.472
43779W        W16847  28.928  30.069   2.633
43780W        W16848  14.247   9.740  13.296
43781W        W16849  40.562  17.853   0.313
43782W        W16850   6.395  37.961   3.173
43783W        W16851  41.255  40.154   4.075
43784W        W16852  11.577  31.539   3.393
43785W        W16853  14.737  19.894   0.264
43786W        W16854   4.656  16.193  10.778
43787W        W16855  17.369  24.287  11.130
43788W        W16856  37.852  15.281  12.427
43789W        W16857   3.526   8.961  12.883
43790W        W16858  17.707  11.124  13.403
43791W        W16859  41.744   4.864  14.424
43792W        W16860  16.676  22.336  12.468
43793W        W16861  33.451  28.591  10.359
43794W        W16862  35.657  14.159   2.886
43795W        W16863  21.986   7.528   3.663
43796W        W16864  38.875  19.586  14.024
43797W        W16865  32.842   4.777  13.296
43798W        W16866  15.112  27.012  13.565
43799W        W16867  15.511  12.737  11.046
43800W        W16868  25.790   8.890   3.858
43801W        W16869  35.299  33.888  13.828
43802W        W16870  27.544   8.462  13.305
43803W        W16871  13.073  21.948  10.797
43804W        W16872  17.219  21.011  10.707
43805W        W16873  27.062  20.336  10.744
43806W        W16874   2.198   8.575  13.450
43807W        W16875  25.397  13.156   3.790
43808W        W16876  21.942  44.791   0.526
43809W        W16877   8.108  12.019  14.145
43810W        W16878   0.684  33.303   1.687
43811W        W16879  29.146  37.385  13.323
43812W        W16880  15.569  27.830  12.874
43813W        W16881  22.713  15.750   1.456
43814W        W16882  21.609  41.314   1.715
43815W        W16883  15.132   6.353   3.972
43816W        W16884   3.987  33.453  12.990
43817W        W16885  37.588  38.090  14.329
43818W        W16886  19.549   0.748  14.911
43819W        W16887  13.786  32.829   2.799
43820W        W16888  30.934  10.112   4.571
43821W        W16889  28.144   5.751  11.469
43822W        W16890  38.541  36.318   1.345
43823W        W16891   6.245  15.550   3.753
43824W        W16892  16.714  22.195   1.898
43825W        W16893   9.591  37.539   2.452
43826W        W16894  32.557  25.174   0.260
43827W        W16895  39.905   9.520   4.126
43828W        W16896  35.932  41.317   1.803
43829W        W16897   7.100   4.912  14.923
43830W        W16898   4.736  42.156   2.675
43831W        W16899   1.712   4.611   2.281
43832W        W16900  13.097  28.190   3.807
43833W        W16901  11.685  40.819  12.936
43834W        W16902  44.309   4.384  13.414
43835W        W16903  15.284  28.990  11.099
43836W        W16904  13.717  22.979  11.485
43837W        W16905  44.729  42.645   1.285
43838W        W16906  37.940   6.657  12.245
43839W        W16907  38.391  28.184  11.170
43840W        W16908   9.004   3.344  12.532
43841W        W16909   6.403  11.400   0.410
43842W        W16910   0.757  13.179  10.992
43843W        W16911  25.721   7.165  13.474
43844W        W16912  25.178  22.195  10.843
43845W        W16913  42.877  23.520  10.592
43846W        W16914  13.219  30.671  13.733
43847W        W16915  18.459   4.419   2.249
43848W        W16916   5.410  19.074   2.554
43849W        W16917  34.284   7.370   2.284
43850W        W16918  32.574  32.422   4.116
43851W        W16919  21.062  43.998  11.532
43852W        W16920  13.216  14.107   1.759
43853W        W16921  22.575  11.720  14.753
43854W        W16922  30.589  15.773  14.263
43855W        W16923  15.625   1.786  12.562
43856W        W16924  26.955   4.429   2.034
43857W        W16925  42.414  27.824  13.889
43858W        W16926   6.468  19.571  11.401
43859W        W16927   7.323  29.427  12.891
43860W        W16928  19.097  12.813   2.376
43861W        W16929  35.607  34.487   1.854
43862W        W16930  28.493   3.553  10.940
43863W        W16931  22.687  28.191  14.846
43864W        W16932   4.403  40.021   0.866
43865W        W16933  21.765  17.382  12.454
43866W        W16934  16.087   7.650  10.523
43867W        W16935  35.198  41.853   1.849
43868W        W16936  16.708   8.883   3.352
43869W        W16937  23.005  26.970  12.477
43870W        W16938  44.722   0.702   1.035
43871W        W16939  21.915  23.300   4.135
43872W        W16940  29.127  25.747   1.411
43873W        W16941   7.689  18.820  11.822
43874W        W16942  16.162  16.833   2.709
43875W        W16943  11.252  33.290  13.298
43876W        W16944  22.139  38.726   2.652
43877W        W16945  30.127  17.980  11.614
43878W        W16946  13.566  20.198  11.929
43879W        W16947   3.828  44.026   4.690
43880W        W16948  14.772  16.199   0.233
43881W        W16949  40.500  10.574   4.730
43882W        W16950   9.984  17.059   3.714
43883W        W16951  17.630  16.803   2.059
43884W        W16952  23.008  24.504  13.687
43885W        W16953  23.419   0.239   4.870
43886W        W16954  31.923   9.137   0.709
43887W        W16955  30.842   0.909  14.316
43888W        W16956  23.697   4.188  10.533
43889W        W16957  11.355  26.145   0.925
43890W        W16958  34.536  17.313   3.381
43891W        W16959  28.546   9.621  12.860
43892W        W16960  26.633   2.971   4.815
43893W        W16961   8.118  27.159  12.003
43894W        W16962  33.177  17.302   0.356
43895W        W16963  36.837  38.940   4.411
43896W        W16964  22.649  12.000  11.930
43897W        W16965   2.438  34.411   3.679
43898W        W16966  34.330   2.423  12.952
43899W        W16967   8.288   0.950   2.057
43900W        W16968  24.087  10.196  12.143
43901W        W16969   9.701  42.938   2.251
43902W        W16970  17.702  23.189   4.033
43903W        W16971  28.392   2.897  14.906
43904W        W16972   4.317  14.637   4.431
43905W        W16973  44.299  33.088   1.523
43906W        W16974  11.509  21.542  13.404
43907W        W16975  27.431  18.604   4.671
43908W        W16976   7.682   8.179   1.539
43909W        W16977  22.031  40.848   4.338
43910W        W16978   7.778  28.645  11.268
43911W        W16979  41.363  24.069   3.441
43912W        W16980  34.039  35.431  14.813
43913W        W16981   0.926  34.833  10.495
43914W        W16982  30.272  33.637  14.770
43915W        W16983  11.860  12.277   2.417
43916W        W16984  34.925  17.019   0.289
43917W        W16985  35.291  14.148   5.027
43918W        W16986  44.135  36.937   2.319
43919W        W16987  36.346  32.672  11.610
43920W        W16988  41.486  44.879  11.496
43921W        W16989  32.900   5.315   4.125
43922W        W16990  28.453  41.376  14.874
43923W        W16991   0.348  33.391   3.653
43924W        W16992  19.782  43.788  14.176
43925W        W16993  34.971  21.282   0.731
43926W        W16994  19.543  39.795   3.814
43927W        W16995   3.173  27.396   2.582
43928W        W16996  21.968   5.233  11.994
43929W        W16997  22.261   1.351  13.530
43930W        W16998  35.905  26.347   3.754
43931W        W16999  11.762  35.183   1.896
43932W        W17000  28.031  24.499   2.385
43933W        W17001  35.496   2.023  14.513
43934W        W17002   0.413   7.138   2.162
43935W        W17003  24.557  30.646   0.759
43936W        W17004  37.289  43.942  10.266
43937W        W17005  33.330  29.527  12.042
43938W        W17006  25.804  25.490  10.670
43939W        W17007   7.465  25.108  10.725
43940W        W17008  22.600  29.754   4.090
43941W        W17009  18.644  41.762  13.021
43942W        W17010  11.844  11.572   2.847
43943W        W17011  44.319  27.443  10.348
43944W        W17012  16.137  38.476  11.404
43945W        W17013  30.431  38.399   2.831
43946W        W17014  15.276  35.334  11.662
43947W        W17015  10.818  43.474  11.458
43948W        W17016   3.880  19.050  11.883
43949W        W17017  14.720  29.619  12.934
43950W        W17018   0.243  29.582   3.555
43951W        W17019  16.460  33.492   0.741
43952W        W17020  15.208  12.841   2.129
43953W        W17021  41.946   2.975   4.163
43954W        W17022  21.756  31.023  11.517
43955W        W17023  15.566  34.551   0.909
43956W        W17024  32.425  25.226  13.031
43957W        W17025  25.484  30.411  11.183
43958W        W17026  44.129  33.859   3.834
43959W        W17027  42.079  37.484   1.747
43960W        W17028  19.559   5.846  14.086
43961W        W17029   9.940  35.889   1.490
43962W        W17030  31.604  37.873  11.670
43963W        W17031  16.777  12.295   3.769
43964W        W17032   1.974  24.573   1.265
43965W        W17033  23.813  16.113   2.950
43966W        W17034  16.506  16.648   3.559
43967W        W17035  36.703  23.395   1.934
43968W        W17036   9.665  40.404   2.758
43969W        W17037  44.791  16.804  13.370
43970W        W17038   9.846  37.925   1.661
43971W        W17039  33.001  31.715   1.837
43972W        W17040  34.835  41.020  12.568
43973W        W17041  13.541  24.926  11.098
43974W        W17042  28.197  17.324   0.268
43975W        W17043  37.179  31.087   0.774
43976W        W17044  16.672   4.724   3.742
43977W        W17045   4.471   3.268  11.809
43978W        W17046   8.795   9.766   3.826
43979W        W17047  28.991  34.346   0.973
43980W        W17048  37.841  20.091   1.052
43981W        W17049  10.817  24.939  13.854
43982W        W17050   1.744  37.994  10.660
43983W        W17051  31.686  20.759   3.186
43984W        W17052  11.422  32.243  13.416
43985W        W17053  40.798   7.892  11.540
43986W        W17054   9.512   3.434  12.473
43987W        W17055  25.008  30.406   1.915
43988W        W17056  20.265  22.518  11.354
43989W        W17057  22.084  37.653  12.560
43990W        W17058  34.963  43.889   0.866
43991W        W17059  34.803  34.983   5.050
43992W        W17060   1.377  23.329  14.746
43993W        W17061  35.357  12.868  14.812
43994W        W17062  42.377  30.874   1.731
43995W        W17063  15.075   4.898  10.583
43996W        W17064  12.281  20.772   3.219
43997W        W17065  31.089  18.370   0.913
43998W        W17066  44.411  34.597   1.406
43999W        W17067  27.133  29.111   1.928
44000W        W17068  37.802  37.438  14.860
44001W        W17069  34.534  41.123  14.916
44002W        W17070   3.604  42.308  13.023
44003W        W17071  15.321  39.803   0.375
44004W        W17072  24.227  36.919   0.296
44005W        W17073  44.131  43.872   4.060
44006W        W17074  18.060  21.987   2.042
44007W        W17075   3.458  29.941   3.662
44008W        W17076  31.108  20.923  14.429
44009W        W17077  27.578   2.772  13.858
44010W        W17078  28.993  34.698  14.125
44011W        W17079   8.726  30.065  14.760
44012W        W17080  42.354  30.002  13.441
44013W        W17081  28.435   3.688  11.485
44014W        W17082  17.236   3.417  11.013
44015W        W17083  29.463   0.318  11.032
44016W        W17084  24.681   8.334   1.925
44017W        W17085  43.040  17.735  13.770
44018W        W17086  27.425  40.057   0.772
44019W        W17087  10.214   6.641  12.906
44020W        W17088  17.705  41.111   1.557
44021W        W17089   4.499  26.292  13.473
44022W        W17090  25.208  30.424   4.240
44023W        W17091   3.726  17.778   1.145
44024W        W17092  18.199  35.963   2.363
44025W        W17093  42.836  34.561  13.380
44026W        W17094  12.307   0.584   4.378
44027W        W17095  35.964  33.540  14.902
44028W        W17096  26.154  18.260  14.515
44029W        W17097  30.519  10.703  11.341
44030W        W17098  31.913  30.442  14.877
44031W        W17099  15.911   6.286   3.600
44032W        W17100  13.273  33.420   1.059
44033W        W17101  23.754  25.547   2.288
44034W        W17102  30.770   8.673  11.604
44035W        W17103  17.659   1.419  11.423
44036W        W17104   9.083   3.930  13.305
44037W        W17105  28.785  36.444  13.401
44038W        W17106   2.859  23.541   1.244
44039W        W17107  41.603  38.907   0.740
44040W        W17108  11.589  36.949   3.825
44041W        W17109  27.146  16.740   1.734
44042W        W17110  29.433  38.484   2.909
44043W        W17111  17.268  36.865  10.688
44044W        W17112   2.172   2.752   2.213
44045W        W17113  41.735  34.390   2.724
44046W        W17114  15.635  37.302  14.322
44047W        W17115   7.712  24.112   0.430
44048W        W17116   3.704  14.389   3.316
44049W        W17117  26.770  16.380  11.634
44050W        W17118   7.985  25.073   4.440
44051W        W17119  13.272  13.332  13.768
44052W        W17120  20.064   7.851  13.351
44053W        W17121  42.738  21.117  11.642
44054W        W17122   5.946  36.265   0.844
44055W        W17123  22.773  25.478   3.110
44056W        W17124   0.382  44.946   4.675
44057W        W17125  39.320  23.595  11.155
44058W        W17126  29.077  35.434  10.520
44059W        W17127  22.158  23.603  14.344
44060W        W17128  44.346   6.394  14.507
44061W        W17129   6.686  42.331   4.655
44062W        W17130  31.518  36.040   0.577
44063W        W17131  14.212  32.132  14.740
44064W        W17132  18.243  44.753   3.461
44065W        W17133  24.055   8.724   4.887
44066W        W17134   6.758  31.598  11.246
44067W        W17135  35.560  22.275   3.516
44068W        W17136  40.778  30.998   1.901
44069W        W17137  23.379  41.388   1.138
44070W        W17138  28.595  23.235  14.453
44071W        W17139  44.056  33.412  14.760
44072W        W17140  15.205  12.350   2.250
44073W        W17141  42.930  22.314  12.961
44074W        W17142  30.946  34.337  13.435
44075W        W17143  16.521  36.916  12.004
44076W        W17144   3.777   5.133  12.863
44077W        W17145  18.989   7.214   3.033
44078W        W17146  44.728  29.674   1.836
44079W        W17147   4.008  35.925  11.442
44080W        W17148  16.999  43.435   3.182
44081W        W17149  17.753  42.871  12.099
44082W        W17150  29.056  18.314  13.979
44083W        W17151  30.480  31.867  13.411
44084W        W17152   7.600  40.129  12.116
44085W        W17153   2.935  15.112  12.633
44086W        W17154  22.606  17.117   0.028
44087W        W17155  24.683  12.694   1.365
44088W        W17156  21.154  16.293  12.924
44089W        W17157  20.084  10.410  14.366
44090W        W17158  33.918  28.310  13.697
44091W        W17159  11.286  41.872  11.003
44092W        W17160   0.046  43.358  12.222
44093W        W17161  12.597  41.921  11.370
44094W        W17162  33.792   1.984   3.181
44095W        W17163  31.711  42.449   1.981
44096W        W17164  32.030  39.847  12.614
44097W        W17165  38.846  43.078  14.441
44098W        W17166  30.182   9.770   0.563
44099W        W17167  34.424  35.396  13.149
44100W        W17168  17.815  29.503   3.226
44101W        W17169  44.088  15.671   4.136
44102W        W17170  32.216  33.765  11.425
44103W        W17171   0.453  38.017  11.509
44104W        W17172  17.512   0.297  14.723
44105W        W17173  30.447  10.231   4.750
44106W        W17174  16.880  32.994   3.303
44107W        W17175   6.139  21.405   4.937
44108W        W17176  33.800   0.085  13.424
44109W        W17177  37.303  33.595  12.460
44110W        W17178  18.185  32.593   3.782
44111W        W17179   5.859  23.903  13.823
44112W        W17180  17.823   8.369  11.093
44113W        W17181  25.673   6.319  11.493
44114W        W17182   5.281  16.350   2.798
44115W        W17183  44.676  28.013   3.298
44116W        W17184  11.123  11.723   2.287
44117W        W17185  24.623  39.310  14.499
44118W        W17186   0.851  16.194   1.283
44119W        W17187  17.817  14.801   1.489
44120W        W17188  23.433  20.244  13.780
44121W        W17189  36.312   3.841  10.617
44122W        W17190  26.425  27.384   1.231
44123W        W17191  41.000   0.174  11.151
44124W        W17192   0.947  23.924   4.129
44125W        W17193  32.923   5.429   0.841
44126W        W17194  14.812  43.984   3.252
44127W        W17195  13.723  28.527  13.064
44128W        W17196  31.995  10.731   5.251
44129W        W17197   8.517  40.939   2.262
44130W        W17198   5.638  39.314   4.254
44131W        W17199  14.746  33.651  12.119
44132W        W17200  13.401  20.002   2.776
44133W        W17201  31.011   7.249  10.884
44134W        W17202  11.830  38.390   0.941
44135W        W17203  25.240   1.011  14.487
44136W        W17204  15.278  32.023   3.267
44137W        W17205  36.237  29.406  11.996
44138W        W17206   9.646  17.561   0.398
44139W        W17207   5.875  12.957  12.674
44140W        W17208  15.051  14.530  11.001
44141W        W17209  14.029   4.687   4.539
44142W        W17210  27.436   0.566  14.764
44143W        W17211  39.082  29.903  12.061
44144W        W17212   2.347  22.960  13.489
44145W        W17213  21.821   8.870   3.963
44146W        W17214  13.226   5.414  10.491
44147W        W17215  25.490  15.824  10.890
44148W        W17216   7.009  40.340   0.302
44149W        W17217  23.701   1.800  10.693
44150W        W17218  43.234  38.848   2.885
44151W        W17219  23.997   5.186  10.772
44152W        W17220   2.310  13.194  13.353
44153W        W17221  11.307  25.867   1.377
44154W        W17222  28.894  29.555   2.743
44155W        W17223  37.983   4.334  13.556
44156W        W17224  37.497  21.144  13.692
44157W        W17225   5.213  42.756   2.234
44158W        W17226   5.297  25.472   4.450
44159W        W17227  10.709  16.757  14.234
44160W        W17228  19.103  33.439  10.354
44161W        W17229   3.861  44.369  12.582
44162W        W17230  18.562  11.707   4.471
44163W        W17231  40.561  33.603   1.285
44164W        W17232   0.908  39.633  13.561
44165W        W17233  16.246  25.480  14.485
44166W        W17234  37.374  21.514   0.689
44167W        W17235  13.289  30.207   3.850
44168W        W17236  43.070  24.009   1.782
44169W        W17237  42.350  23.115   0.428
44170W        W17238  44.753  41.920   3.326
44171W        W17239  23.311  29.002  14.976
44172W        W17240  44.790  41.020  13.882
44173W        W17241  37.987  30.412  10.066
44174W        W17242   1.978  12.399   3.726
44175W        W17243  12.304   1.526   0.442
44176W        W17244  36.489  14.090  14.573
44177W        W17245  16.235  29.154  12.037
44178W        W17246  10.549  33.614  11.806
44179W        W17247   5.767  12.297   0.138
44180W        W17248  29.138  22.261   3.794
44181W        W17249   8.148  43.616  11.213
44182W        W17250  16.239   9.735  14.934
44183W        W17251  32.665  22.671   0.817
44184W        W17252  10.660   3.313  14.958
44185W        W17253   4.688  43.770  11.232
44186W        W17254  38.355  10.279  14.828
44187W        W17255  31.078  25.297   2.137
44188W        W17256  23.405  11.337  12.403
44189W        W17257  17.309  27.083  10.746
44190W        W17258  19.145  36.287   0.045
44191W        W17259  31.915  41.029   4.497
44192W        W17260   8.029  43.600  12.898
44193W        W17261  28.511  29.167  12.508
44194W        W17262  25.540  16.100  14.141
44195W        W17263  32.554  15.189  14.835
44196W        W17264  43.131  33.337   0.808
44197W        W17265  23.596   1.553  14.844
44198W        W17266  18.966  44.030  10.614
44199W        W17267  10.913  36.979   3.410
44200W        W17268   1.473   3.704  14.937
44201W        W17269   4.842  40.456  12.144
44202W        W17270   0.706   5.452   0.953
44203W        W17271  17.750  36.452   2.051
44204W        W17272   9.061   3.170   1.859
44205W        W17273  22.174  16.626   1.875
44206W        W17274  14.348  34.571   3.622
44207W        W17275  17.288   0.713   2.165
44208W        W17276  10.419   2.605   3.043
44209W        W17277  30.902   9.690  10.600
44210W        W17278  37.983  31.218  12.933
44211W        W17279  13.719  25.048   1.461
44212W        W17280  37.229  38.059   0.278
44213W        W17281   3.287  32.040  10.578
44214W        W17282  10.724  35.361   2.786
44215W        W17283  41.884  17.219  14.877
44216W        W17284   5.728   7.288  13.254
44217W        W17285  10.741  14.184   0.822
44218W        W17286  25.718  10.375  12.932
44219W        W17287  10.197   5.954  13.523
44220W        W17288  24.513  26.113  14.424
44221W        W17289  32.929  26.221   3.125
44222W        W17290  20.019  14.368  13.583
44223W        W17291  29.980  30.905   2.905
44224W        W17292  36.177  13.896  13.388
44225W        W17293  14.880   3.347   4.187
44226W        W17294  10.622  44.260   4.542
44227W        W17295  43.816  26.403   3.698
44228W        W17296  39.686  25.983  12.634
44229W        W17297  18.680  32.147  10.700
44230W        W17298  13.001  43.753  12.785
44231W        W17299  43.797  32.161   0.932
44232W        W17300   1.474  22.590  13.173
44233W        W17301  42.444  24.913   2.267
44234W        W17302  34.506  39.889   4.142
44235W        W17303  18.096  40.776   0.224
44236W        W17304  44.867  36.074   4.165
44237W        W17305  37.704  35.636   3.377
44238W        W17306  11.873  15.793   3.368
44239W        W17307  11.070  29.465  11.576
44240W        W17308  29.247  25.478  12.752
44241W        W17309  34.679   4.081  13.979
44242W        W17310  31.149  32.944   2.416
44243W        W17311  30.732  40.911  10.962
44244W        W17312   5.676  11.152  12.030
44245W        W17313  27.622  23.004  14.049
44246W        W17314   3.945  18.670  14.281
44247W        W17315  25.414  15.075   0.304
44248W        W17316  26.571  17.308   4.504
44249W        W17317   7.852   0.274   0.694
44250W        W17318  12.106  31.459  12.444
44251W        W17319  21.614  18.780   2.246
44252W        W17320  24.834  34.725  13.473
44253W        W17321   3.959  17.700   2.131
44254W        W17322  31.543  35.869  10.730
44255W        W17323  42.462   2.832   4.033
44256W        W17324  29.506  43.486  13.016
44257W        W17325  30.621  34.895   2.448
44258W        W17326  26.277   0.490   1.504
44259W        W17327  38.291  14.633   1.168
44260W        W17328  42.561   1.773  14.969
44261W        W17329   9.746   6.712  13.140
44262W        W17330  33.653  18.391  11.033
44263W        W17331  25.895  33.915   4.689
44264W        W17332   7.175  22.789   0.311
44265W        W17333  43.714   7.829  13.905
44266W        W17334  28.912  27.043   4.699
44267W        W17335  44.255  42.456   1.223
44268W        W17336   6.433  34.597   3.380
44269W        W17337  37.591  32.584  13.086
44270W        W17338  38.195  24.186   3.279
44271W        W17339  38.779  14.091   3.438
44272W        W17340  22.538  31.011  12.025
44273W        W17341  17.058   7.233   4.719
44274W        W17342   0.828   3.393   3.093
44275W        W17343  13.687  31.492   0.686
44276W        W17344  19.283  19.745   2.415
44277W        W17345  11.682  10.162  13.093
44278W        W17346  33.407  21.776   1.487
44279W        W17347  40.086   7.211   0.779
44280W        W17348  18.638  20.763   3.827
44281W        W17349  41.857  19.540   1.685
44282W        W17350   9.375   3.717  14.299
44283W        W17351  24.154  16.479   1.026
44284W        W17352  24.406  11.758   4.719
44285W        W17353  42.455  30.554  12.099
44286W        W17354  19.497   0.352   3.316
44287W        W17355  33.476  30.463  11.266
44288W        W17356  40.443  15.172  13.023
44289W        W17357   1.007  14.272   3.731
44290W        W17358  13.768  28.392  12.192
44291W        W17359  23.702  29.940   0.448
44292W        W17360  11.789  18.069  12.099
44293W        W17361  28.201  41.096  12.454
44294W        W17362   0.759  16.721  13.561
44295W        W17363  22.288  21.068   2.309
44296W        W17364   6.251  40.336  12.406
44297W        W17365  25.001  30.416  12.690
44298W        W17366  25.128  34.975  11.885
44299W        W17367  21.784   6.223  13.463
44300W        W17368   2.741  42.058   4.632
44301W        W17369  27.717  36.000  10.749
44302W        W17370  33.157  36.981   4.088
44303W        W17371   3.279   1.722   3.721
44304W        W17372   4.386  33.538  12.525
44305W        W17373  38.796  33.920   4.298
44306W        W17374  18.291   3.207   2.716
44307W        W17375  38.348  30.177  13.569
44308W        W17376  24.417  28.166  13.926
44309W        W17377  31.354  32.795  13.905
44310W        W17378  18.384  15.016   1.462
44311W        W17379  43.477  37.374   2.029
44312W        W17380  30.400   5.217   0.766
44313W        W17381  30.978  26.434   4.002
44314W        W17382  40.505  39.008   0.811
44315W        W17383   0.378  37.402   3.168
44316W        W17384   0.970   2.770   1.703
44317W        W17385  31.586   9.914  12.850
44318W        W17386  33.513   1.836   0.019
44319W        W17387  44.151  33.546   4.633
44320W        W17388  28.639  21.609   2.901
44321W        W17389  10.261  22.038   3.078
44322W        W17390  28.304  33.563  12.024
44323W        W17391  26.784   1.734  12.369
44324W        W17392  11.596  42.384  11.170
44325W        W17393  19.983  24.001  11.988
44326W        W17394   5.153  22.856   1.455
44327W        W17395  22.624   6.448   5.167
44328W        W17396  22.969  14.195   3.213
44329W        W17397  22.179  40.551  14.775
44330W        W17398  26.672  33.497   0.808
44331W        W17399  22.867  37.432   0.795
44332W        W17400   0.652  15.105   3.249
44333W        W17401  30.494  31.177  10.746
44334W        W17402  32.549  13.727  12.485
44335W        W17403   4.372  13.680  11.559
44336W        W17404  40.460  18.861  11.057
44337W        W17405  42.825   1.276   4.187
44338W        W17406  34.302  18.024  14.495
44339W        W17407  44.375  29.821  10.778
44340W        W17408  44.818  20.238  11.168
44341W        W17409  25.036  17.114   3.628
44342W        W17410  13.129  37.322   4.984
44343W        W17411   1.166   8.772  13.395
44344W        W17412   0.054  12.289  12.064
44345W        W17413  33.147   9.967   0.465
44346W        W17414  29.226  22.965   0.205
44347W        W17415   8.839  32.011  14.756
44348W        W17416  25.058  12.359  11.867
44349W        W17417   3.350  21.071  12.580
44350W        W17418  27.702  16.829  14.835
44351W        W17419  44.127  26.788   2.278
44352W        W17420  34.595  41.476  12.989
44353W        W17421   6.482  16.200  11.246
44354W        W17422  30.610  23.277   1.719
44355W        W17423  26.024  44.785   1.821
44356W        W17424  38.339  33.254   9.569
44357W        W17425  14.596  34.447   0.775
44358W        W17426  41.447  28.634  14.323
44359W        W17427  40.787  14.084   4.083
44360W        W17428   1.453  44.997   1.630
44361W        W17429  30.458  25.677   3.166
44362W        W17430  19.611   6.810  11.430
44363W        W17431   8.166  43.121   2.849
44364W        W17432  42.042  19.543   5.012
44365W        W17433  42.961   6.832  12.078
44366W        W17434  42.050  13.872   3.300
44367W        W17435  38.622  24.954   4.535
44368W        W17436  14.548  20.043  13.479
44369W        W17437   6.442  36.495   1.735
44370W        W17438  37.476  21.297   4.045
44371W        W17439  16.572  25.619  11.552
44372W        W17440  13.678   2.421   3.623
44373W        W17441  13.325  39.317   3.179
44374W        W17442  32.314  34.133  14.487
44375W        W17443  19.334  36.200  13.047
44376W        W17444  42.775  24.949  13.785
44377W        W17445  36.160  29.570   1.810
44378W        W17446  13.036  21.290  12.956
44379W        W17447  29.923  23.161  10.571
44380W        W17448  28.630   0.076   0.823
44381W        W17449  41.867  41.847  13.766
44382W        W17450  19.293   8.200   3.116
44383W        W17451   4.376  28.909   0.399
44384W        W17452  28.564  14.592   1.328
44385W        W17453  11.257  14.293  12.793
44386W        W17454  42.973   2.936  10.635
44387W        W17455  12.391   3.635   3.203
44388W        W17456  36.002  22.177   2.095
44389W        W17457  29.596  44.968  13.916
44390W        W17458  18.130   5.257  11.394
44391W        W17459  16.731   8.089   2.771
44392W        W17460  12.789  24.428   1.723
44393W        W17461  37.987  34.528   1.568
44394W        W17462  38.874  26.533  11.460
44395W        W17463   9.108   3.172   3.764
44396W        W17464  29.593  31.256  11.122
44397W        W17465  18.731  27.771   2.609
44398W        W17466  15.685  19.697   2.812
44399W        W17467  35.404   4.711  12.554
44400W        W17468  12.765  41.987  10.892
44401W        W17469  44.567  28.260  14.395
44402W        W17470  40.270   8.215   1.790
44403W        W17471   3.739  34.317  11.529
44404W        W17472  10.062  33.823  13.101
44405W        W17473  21.725  34.922  11.080
44406W        W17474  35.676  12.257  12.924
44407W        W17475  42.418   7.316  10.950
44408W        W17476  25.073  27.666   4.752
44409W        W17477  11.215  18.577   3.056
44410W        W17478  27.015   3.905   3.316
44411W        W17479  18.019  10.389  14.448
44412W        W17480  34.591  32.343  10.231
44413W        W17481  21.255  35.979  14.467
44414W        W17482  22.212  37.631   2.847
44415W        W17483  29.211  22.016   0.370
44416W        W17484  31.286  13.588  11.634
44417W        W17485  36.437  28.039  14.837
44418W        W17486  29.426  20.519  10.697
44419W        W17487   0.940  10.247   1.797
44420W        W17488  37.898  38.878  13.576
44421W        W17489  19.459  23.145   0.871
44422W        W17490  36.022  18.090  13.772
44423W        W17491  43.487  14.779   4.731
44424W        W17492  39.410   3.529   1.971
44425W        W17493  34.179  11.154  10.933
44426W        W17494  21.574  13.135   2.391
44427W        W17495  28.646   5.204  13.798
44428W        W17496  11.075  28.214   1.853
44429W        W17497   2.900  40.725  12.017
44430W        W17498  13.364  43.201   2.791
44431W        W17499  26.138   7.073  11.581
44432W        W17500   3.855  25.724   3.867
44433W        W17501  42.246  12.812   2.740
44434W        W17502   6.427   2.458   0.811
44435W        W17503  31.203  16.311  14.872
44436W        W17504  33.904  42.491  11.205
44437W        W17505   1.512   7.186   0.854
44438W        W17506  24.522  16.831  13.020
44439W        W17507  23.697  27.650   1.278
44440W        W17508  37.396   3.209   2.209
44441W        W17509  18.016  28.698   0.213
44442W        W17510  41.344  36.802   0.357
44443W        W17511  16.094  16.703   1.326
44444W        W17512  37.609   2.413  11.013
44445W        W17513  31.649  32.349   0.430
44446W        W17514  33.575  21.607  10.763
44447W        W17515  22.892  13.856   3.915
44448W        W17516  21.531  29.898  11.164
44449W        W17517  26.777  36.880   1.802
44450W        W17518  42.428  21.332  13.246
44451W        W17519   9.688  36.968   1.718
44452W        W17520  27.560  25.214   1.379
44453W        W17521  33.325  43.864   2.720
44454W        W17522   5.765  20.089   4.158
44455W        W17523  43.422  26.431   1.372
44456W        W17524   8.282  16.634  11.593
44457W        W17525   5.809  38.034  13.739
44458W        W17526  42.763  20.786   3.626
44459W        W17527  42.725  31.963  11.523
44460W        W17528   9.944  19.518  11.159
44461W        W17529  22.460   8.899   3.245
44462W        W17530   5.431  18.202  11.867
44463W        W17531   4.666  38.329  11.474
44464W        W17532   2.167  33.900   0.574
44465W        W17533  40.984  16.592  10.200
44466W        W17534  18.396   3.632   0.830
44467W        W17535  23.069  43.822   1.749
44468W        W17536   2.964  32.472  10.656
44469W        W17537  44.392   2.825  12.538
44470W        W17538   7.965  27.454  14.365
44471W        W17539  14.151  30.181  13.456
44472W        W17540  18.517  12.080  12.588
44473W        W17541  44.999  34.888   2.344
44474W        W17542  21.097  38.474   4.547
44475W        W17543  24.976  20.815   3.815
44476W        W17544  37.768  35.129   4.272
44477W        W17545  31.315  18.559  11.551
44478W        W17546  41.202  24.458  14.882
44479W        W17547   0.839  32.707   3.829
44480W        W17548   4.683  10.581  13.087
44481W        W17549  33.240  19.235   1.024
44482W        W17550   8.359  17.147   3.898
44483W        W17551  35.032  11.273  14.449
44484W        W17552  11.619  14.227  13.801
44485W        W17553   4.287  44.783   3.898
44486W        W17554  18.233  27.364   3.774
44487W        W17555  33.536  16.581   1.262
44488W        W17556  11.137  37.455   3.147
44489W        W17557  42.066   3.663  12.146
44490W        W17558   8.286  19.532  14.022
44491W        W17559  20.736  19.240  11.537
44492W        W17560  37.401  35.757   1.257
44493W        W17561  13.163  15.630   4.964
44494W        W17562  35.063  39.450   0.916
44495W        W17563   9.379   2.640  12.972
44496W        W17564  12.613  17.696  13.460
44497W        W17565   6.366  18.026  12.333
44498W        W17566  32.805  35.914   3.691
44499W        W17567  32.568  10.176  12.988
44500W        W17568  25.954  20.337   1.783
44501W        W17569  43.385  26.955   1.332
44502W        W17570  40.552   5.365   4.864
44503W        W17571  37.218   7.540  10.724
44504W        W17572  35.501  22.582  13.760
44505W        W17573  42.059  39.287  13.863
44506W        W17574  13.197  15.668  12.880
44507W        W17575  31.496  28.893   5.177
44508W        W17576  44.774   3.420  12.168
44509W        W17577  37.880  18.784   0.380
44510W        W17578  33.961   7.548   2.680
44511W        W17579   5.543   3.724  10.527
44512W        W17580  12.719   6.702  12.649
44513W        W17581  16.213  42.101  14.174
44514W        W17582  22.253  37.822   3.319
44515W        W17583   1.466  32.100  12.983
44516W        W17584  35.568   8.408   1.151
44517W        W17585  25.544  36.491   2.200
44518W        W17586  44.002  17.224   0.463
44519W        W17587  20.610   6.603   3.837
44520W        W17588  26.999  38.822  13.797
44521W        W17589  24.095  16.063   0.706
44522W        W17590  31.985  21.359  13.315
44523W        W17591  15.722  26.142  10.311
44524W        W17592  31.366  23.510  12.558
44525W        W17593  20.291  36.507  12.913
44526W        W17594  33.284  14.906   4.752
44527W        W17595   2.381  20.158  13.895
44528W        W17596  25.232  21.598  14.106
44529W        W17597  40.060  33.649  13.346
44530W        W17598  38.372  31.725  11.193
44531W        W17599  35.800  31.915   3.097
44532W        W17600   5.078  11.327  12.650
44533W        W17601  11.518  41.777   1.902
44534W        W17602  25.452   4.930   0.893
44535W        W17603   0.925  17.723   2.851
44536W        W17604  24.528  44.481   0.864
44537W        W17605  19.759  43.074   4.822
44538W        W17606  44.617  38.910   4.040
44539W        W17607  38.468  44.446  11.849
44540W        W17608  20.227  15.601  12.423
44541W        W17609   9.416  44.817   0.710
44542W        W17610  36.451  15.586   1.733
44543W        W17611  35.348   6.627   3.743
44544W        W17612  30.972  22.303  10.658
44545W        W17613  35.599   2.738  14.027
44546W        W17614   1.263  32.450  13.323
44547W        W17615  24.090  42.091   3.520
44548W        W17616  27.177  41.225  11.115
44549W        W17617  14.546  35.892   3.351
44550W        W17618  39.891  28.220  13.439
44551W        W17619  30.895   4.727   3.173
44552W        W17620  24.347  27.524  11.132
44553W        W17621  13.955  29.012   2.179
44554W        W17622  28.724  17.588   3.332
44555W        W17623  33.157   4.534   0.282
44556W        W17624  24.520   4.275  13.881
44557W        W17625  18.180  25.884   4.012
44558W        W17626  20.294  23.504   2.396
44559W        W17627  12.278  35.647   0.256
44560W        W17628   3.094  34.821  14.899
44561W        W17629   1.824  27.169   4.508
44562W        W17630   9.204  29.022  14.572
44563W        W17631  31.178  30.979   0.868
44564W        W17632  44.485   4.910   1.937
44565W        W17633  10.755  28.456  13.883
44566W        W17634   4.884  15.031  11.867
44567W        W17635  31.603  17.191   5.158
44568W        W17636  29.813  21.531   1.464
44569W        W17637  31.453  35.196  12.143
44570W        W17638  18.972  33.885   1.534
44571W        W17639  30.609  35.045   0.489
44572W        W17640  14.476  11.581  10.757
44573W        W17641  14.854  23.026   4.479
44574W        W17642  12.281   3.613  12.111
44575W        W17643  27.091  27.596   2.148
44576W        W17644   8.602  13.683   4.154
44577W        W17645  33.349   4.094   0.535
44578W        W17646   9.366  29.115   2.828
44579W        W17647  14.872  29.876  14.207
44580W        W17648  14.953  26.898  14.337
44581W        W17649  31.632   4.745  12.615
44582W        W17650  24.753  12.692   4.071
44583W        W17651  14.241   1.511  13.828
44584W        W17652  40.148   9.215   2.313
44585W        W17653  28.504  20.706  13.238
44586W        W17654  20.179  35.250  10.212
44587W        W17655   1.806  23.660   1.944
44588W        W17656  18.168   1.242   2.415
44589W        W17657  30.484   8.938  11.273
44590W        W17658  22.068  41.260   3.701
44591W        W17659   2.510   4.698   0.172
44592W        W17660  27.329  33.602  12.053
44593W        W17661  35.002  10.470   2.348
44594W        W17662   2.269  12.844   3.656
44595W        W17663  30.396  40.555  13.240
44596W        W17664  41.585  25.272  12.286
44597W        W17665  33.506  36.981  11.638
44598W        W17666  34.724  32.833  10.292
44599W        W17667  21.661  31.987   4.092
44600W        W17668  15.018  23.589  10.990
44601W        W17669  29.387  43.804   0.952
44602W        W17670  25.086  33.328   2.321
44603W        W17671  37.659  17.647   0.220
44604W        W17672   4.797  42.935  13.430
44605W        W17673  31.531  27.112  14.375
44606W        W17674   3.296  38.277   2.349
44607W        W17675  13.066  17.103   4.932
44608W        W17676  16.265  16.796  13.438
44609W        W17677  12.135   8.676  11.092
44610W        W17678  27.661  38.884   0.417
44611W        W17679  23.029   1.157  11.574
44612W        W17680  24.460  26.927  11.661
44613W        W17681  44.424   3.321   1.337
44614W        W17682  38.008  38.399  14.301
44615W        W17683   1.870  12.763  10.609
44616W        W17684  29.869   2.014   3.277
44617W        W17685  18.313  42.816  11.226
44618W        W17686  15.562  29.120   0.126
44619W        W17687  20.733  20.814   1.848
44620W        W17688  44.427  34.627   4.393
44621W        W17689  40.763  30.218   2.836
44622W        W17690  18.612  15.346  13.480
44623W        W17691  30.508   7.856  14.447
44624W        W17692  12.163  22.748   3.179
44625W        W17693  38.411  40.591   1.232
44626W        W17694   3.980  44.945  12.058
44627W        W17695  19.918  37.907  13.197
44628W        W17696   5.300  27.445   4.618
44629W        W17697  42.198  27.761   1.283
44630W        W17698  28.428  40.922   4.710
44631W        W17699   7.764  30.631  11.982
44632W        W17700  30.425   3.385   0.393
44633W        W17701  13.594   3.445   3.689
44634W        W17702  39.112  21.090   3.276
44635W        W17703  23.194  36.605   3.537
44636W        W17704   5.866  21.317  12.550
44637W        W17705  17.869  43.497  14.675
44638W        W17706  44.024  36.779   3.825
44639W        W17707  31.681  22.728   1.463
44640W        W17708  38.808   0.755  14.572
44641W        W17709  15.232   3.397  14.868
44642W        W17710  27.264   9.785  12.451
44643W        W17711  31.962   6.143  14.220
44644W        W17712   3.781  25.558   0.623
44645W        W17713  16.584  38.055   1.875
44646W        W17714   0.758  44.381  12.360
44647W        W17715  38.111  30.060  12.284
44648W        W17716   5.724   7.117  11.118
44649W        W17717  18.372  12.124   2.827
44650W        W17718   1.490  44.281   0.936
44651W        W17719  40.378   6.804   0.495
44652W        W17720  41.949  19.253  14.935
44653W        W17721  16.907  13.184  12.354
44654W        W17722  26.185   3.124   3.424
44655W        W17723  18.986  21.614  13.113
44656W        W17724  37.016  12.196  13.208
44657W        W17725  13.348  13.357  14.320
44658W        W17726  31.913  20.566   3.630
44659W        W17727   2.516  23.708  10.537
44660W        W17728  43.025  11.748   3.677
44661W        W17729  24.157  22.139   3.790
44662W        W17730   3.344   5.982  14.132
44663W        W17731  28.033   7.761  12.021
44664W        W17732  30.943  27.068   4.650
44665W        W17733   3.446  31.207   2.289
44666W        W17734  21.716  37.364  10.659
44667W        W17735   4.217  36.660   4.997
44668W        W17736  14.573  28.150   2.225
44669W        W17737   8.417  41.852   1.782
44670W        W17738   2.102  15.809   0.718
44671W        W17739   8.416  34.211   3.855
44672W        W17740   8.195  14.206  12.314
44673W        W17741  10.288  31.378  10.303
44674W        W17742   4.009  14.676   4.839
44675W        W17743   8.027  36.837  12.667
44676W        W17744  27.207  44.467   1.971
44677W        W17745  10.271   8.274  13.907
44678W        W17746  13.357   0.855   4.189
44679W        W17747  26.043  17.551   4.795
44680W        W17748  23.640  16.741  12.422
44681W        W17749  40.445  23.567  12.999
44682W        W17750  24.170  25.972  12.417
44683W        W17751  17.281  23.798  11.169
44684W        W17752   1.969  24.184   3.227
44685W        W17753  10.433   7.580   1.294
44686W        W17754   9.089  33.816   0.023
44687W        W17755  36.291   7.418  11.184
44688W        W17756  28.557  15.212  12.752
44689W        W17757  11.664  43.886   2.550
44690W        W17758  33.876   8.210  13.579
44691W        W17759  30.416   4.202  11.433
44692W        W17760  43.277   4.405   3.733
44693W        W17761  10.710  24.427  13.259
44694W        W17762  22.565  26.918   4.503
44695W        W17763  39.002  33.857   0.399
44696W        W17764  20.307  19.644   2.689
44697W        W17765  14.178  26.636  13.388
44698W        W17766  11.140   8.825   3.163
44699W        W17767   4.461  10.907   3.247
44700W        W17768  29.605  43.356   1.868
44701W        W17769  43.024   7.811  12.656
44702W        W17770  23.702  32.048   3.662
44703W        W17771  17.238  15.295  11.212
44704W        W17772  28.186  32.433   2.311
44705W        W17773  29.701  36.521  14.258
44706W        W17774  11.309  27.650   2.748
44707W        W17775  41.934  26.224  13.912
44708W        W17776   0.794  23.106  10.708
44709W        W17777  13.383  43.292  13.527
44710W        W17778  28.630  12.189  10.440
44711W        W17779   0.262  30.493  11.575
44712W        W17780  31.805  14.148  13.847
44713W        W17781  36.936  39.241  14.422
44714W        W17782  22.499  20.211  13.470
44715W        W17783  22.700  36.355  14.894
44716W        W17784  35.169  23.788  14.238
44717W        W17785  27.167  28.555   1.457
44718W        W17786   4.295  44.535  10.642
44719W        W17787  32.092  40.503   1.376
44720W        W17788  33.539  44.076  12.532
44721W        W17789  19.574  28.570   3.371
44722W        W17790   0.530  39.305  12.043
44723W        W17791  23.962  27.111  11.670
44724W        W17792  33.781  22.269   4.077
44725W        W17793  14.554  43.318  14.422
44726W        W17794  30.031   1.185   1.371
44727W        W17795   3.707  13.363  14.882
44728W        W17796   4.040  27.620   1.639
44729W        W17797  15.398   2.991  12.775
44730W        W17798  12.916  33.534   3.274
44731W        W17799  34.978  14.539  13.381
44732W        W17800  44.365  33.422   3.732
44733W        W17801  39.960  19.805  12.083
44734W        W17802  16.338  28.569  11.350
44735W        W17803  28.485  22.983   3.457
44736W        W17804  43.762  26.087   3.280
44737W        W17805  31.648  19.966  12.498
44738W        W17806  22.113  12.127  12.000
44739W        W17807  10.595  17.749   3.290
44740W        W17808   1.300  33.084   0.199
44741W        W17809  33.880  31.888  12.427
44742W        W17810   6.819   1.058  11.436
44743W        W17811  12.743  40.995   4.841
44744W        W17812   6.578  27.958   3.658
44745W        W17813  13.824  23.014  14.772
44746W        W17814   9.137  13.625   4.142
44747W        W17815  37.068  39.607   2.372
44748W        W17816  36.567   0.448  14.839
44749W        W17817  41.455   2.520   3.851
44750W        W17818  16.890  21.109  12.896
44751W        W17819   6.108  12.228   2.289
44752W        W17820  17.663  29.950   4.264
44753W        W17821  37.954   2.908  13.122
44754W        W17822  40.322  38.988   2.780
44755W        W17823   6.473   3.032   0.383
44756W        W17824   1.923  18.984  14.387
44757W        W17825  30.179  10.194   2.306
44758W        W17826   7.479  19.220  12.209
44759W        W17827  37.572   4.528  14.332
44760W        W17828  40.174  36.732   4.569
44761W        W17829   1.554  13.897  14.463
44762W        W17830  19.705  23.814   3.407
44763W        W17831  29.392  36.536  14.923
44764W        W17832  16.326  23.907  11.179
44765W        W17833  32.415  35.585  11.459
44766W        W17834  40.031   0.940   1.104
44767W        W17835   1.401   2.251   2.314
44768W        W17836   5.388  26.447  13.867
44769W        W17837   0.319  41.809   4.183
44770W        W17838  34.439  35.579  13.864
44771W        W17839  24.073   3.216  13.287
44772W        W17840  17.910  19.929   1.187
44773W        W17841  27.035  15.701  14.937
44774W        W17842  17.826  43.815  11.452
44775W        W17843  35.327  20.011   2.246
44776W        W17844  31.675  28.633   0.800
44777W        W17845  17.142  20.654   0.529
44778W        W17846  19.042  32.578   3.585
44779W        W17847  44.519   7.216  11.076
44780W        W17848  12.836   6.436   4.402
44781W        W17849  24.721  11.632   1.291
44782W        W17850  16.291  26.755   1.322
44783W        W17851   1.927  39.841  12.473
44784W        W17852  23.735  13.885   4.167
44785W        W17853  10.822  26.809  11.442
44786W        W17854   4.144  12.213   4.135
44787W        W17855   6.687  32.908  11.162
44788W        W17856  33.095  16.384   1.477
44789W        W17857  44.798  28.608  11.902
44790W        W17858   6.435  29.189  12.889
44791W        W17859  40.838  14.679  11.602
44792W        W17860   7.876   2.172  10.480
44793W        W17861   7.231  31.977   2.186
44794W        W17862  17.264   7.223  13.484
44795W        W17863  14.881  41.294  12.297
44796W        W17864  17.283  41.816   2.217
44797W        W17865  37.531  12.148  10.480
44798W        W17866   0.192  28.933   0.783
44799W        W17867   6.674  31.634  13.982
44800W        W17868  41.521  30.082  11.588
44801W        W17869  17.268  15.357   0.926
44802W        W17870   7.612  16.970   2.684
44803W        W17871   6.183  10.693  14.577
44804W        W17872   1.539   0.562  14.079
44805W        W17873   6.147  24.653  13.878
44806W        W17874  31.557  34.099   3.608
44807W        W17875  41.246  18.325   1.131
44808W        W17876  10.200   0.440  14.960
44809W        W17877  11.657  38.776  12.549
44810W        W17878   4.502  33.556  13.564
44811W        W17879  26.626  36.395   4.618
44812W        W17880  22.744  29.447  13.752
44813W        W17881  33.944  22.645  14.008
44814W        W17882  30.603  31.718   1.760
44815W        W17883  10.143   5.660  14.557
44816W        W17884  21.194   1.804  12.579
44817W        W17885  21.729   5.943   4.217
44818W        W17886  24.493  40.735   3.815
44819W        W17887   6.838   8.341  11.075
44820W        W17888  17.158   9.857  14.701
44821W        W17889  37.612  25.527  12.172
44822W        W17890  13.152  38.203   2.385
44823W        W17891  34.019   6.482   4.740
44824W        W17892  22.725  13.451   1.781
44825W        W17893   3.748   2.458   2.760
44826W        W17894   1.196   6.936   0.463
44827W        W17895   4.633  17.724   0.035
44828W        W17896  29.973  35.356   1.267
44829W        W17897  25.538  11.247   1.517
44830W        W17898  25.390  18.952  14.839
44831W        W17899  27.657  21.560   1.957
44832W        W17900   9.166   8.605  11.081
44833W        W17901   8.959  33.873   4.665
44834W        W17902  40.995   3.326   0.668
44835W        W17903  24.552  31.904  10.066
44836W        W17904  11.183  14.070   1.072
44837W        W17905   5.643   1.947   0.298
44838W        W17906   0.310  21.282  12.364
44839W        W17907   0.466   1.756  12.551
44840W        W17908   1.694  28.910  12.919
44841W        W17909  17.789   8.870   4.687
44842W        W17910  23.446  21.079  14.795
44843W        W17911   1.019  37.268   0.854
44844W        W17912   0.351  27.652   1.455
44845W        W17913   6.457  30.110  14.002
44846W        W17914   2.428  32.175   4.540
44847W        W17915   8.841  17.319  14.356
44848W        W17916  37.912  37.500  13.756
44849W        W17917   4.284  18.163  13.036
44850W        W17918  23.488  11.085   0.245
44851W        W17919  15.054  14.140  12.320
44852W        W17920  21.251   3.801   0.546
44853W        W17921  25.283  38.320   2.447
44854W        W17922   8.933  40.945  14.051
44855W        W17923   5.240  12.361   2.406
44856W        W17924   7.134  30.904  11.102
44857W        W17925   4.801  39.514   0.269
44858W        W17926  18.661  35.067  11.907
44859W        W17927   4.268  12.444   3.360
44860W        W17928  31.238  34.503   3.791
44861W        W17929  17.736  13.393   1.301
44862W        W17930  35.522  26.457   2.290
44863W        W17931  18.966   9.140  10.705
44864W        W17932  33.459  18.255  14.084
44865W        W17933  41.822  40.461   3.280
44866W        W17934   2.034  12.624   3.246
44867W        W17935  19.833  28.212   4.551
44868W        W17936  14.656  19.843  11.534
44869W        W17937   8.919  23.459  11.157
44870W        W17938  27.714  41.930   3.204
44871W        W17939   4.414  30.694  10.745
44872W        W17940  16.808  23.694  14.607
44873W        W17941  12.826  10.579  12.060
44874W        W17942  26.280  26.993  10.676
44875W        W17943  10.727  28.036  12.626
44876W        W17944  39.867   4.298   4.142
44877W        W17945  42.731  44.129  11.000
44878W        W17946  13.983  11.810   2.057
44879W        W17947  11.254  11.746   0.884
44880W        W17948  42.506  27.199   2.866
44881W        W17949  39.099  40.998  14.318
44882W        W17950  43.769  36.019   2.225
44883W        W17951   1.482  30.422  11.118
44884W        W17952  20.317  40.279   1.369
44885W        W17953   1.476  35.042  13.951
44886W        W17954   4.070  19.536  14.482
44887W        W17955  41.727  14.054   0.960
44888W        W17956  25.152  39.900  14.082
44889W        W17957   3.224  42.643   3.248
44890W        W17958   5.656  40.284   4.445
44891W        W17959  36.471  17.125  13.904
44892W        W17960  44.493  41.015  14.925
44893W        W17961  33.372  36.801   1.302
44894W        W17962  29.200  14.346   4.130
44895W        W17963  20.179   5.743   0.659
44896W        W17964  41.778  14.597   2.732
44897W        W17965  41.368  40.514   4.556
44898W        W17966   0.357  41.186   3.771
44899W        W17967  38.626   8.687  11.447
44900W        W17968  30.169   3.598   4.092
44901W        W17969   5.393  16.328  12.392
44902W        W17970  37.377  29.131   3.694
44903W        W17971  14.153  37.450   0.428
44904W        W17972  44.476   7.209  13.874
44905W        W17973  44.990  42.742  12.284
44906W        W17974  28.391  21.326  14.381
44907W        W17975  18.451  35.606  13.218
44908W        W17976  17.759  23.994   4.498
44909W        W17977  40.696   2.856   3.341
44910W        W17978  14.849  16.484   3.554
44911W        W17979  13.631  26.303  12.468
44912W        W17980  39.541  32.717  14.011
44913W        W17981  30.059   3.582  13.516
44914W        W17982  29.926  30.604  12.820
44915W        W17983  39.565   4.082  14.839
44916W        W17984  31.257   4.168  13.949
44917W        W17985  40.562  34.942   3.125
44918W        W17986  22.421  23.202  12.941
44919W        W17987  44.776   5.150   3.346
44920W        W17988  29.504  36.060  13.102
44921W        W17989  40.531  16.448   4.238
44922W        W17990   0.725  27.053  13.644
44923W        W17991  18.628  36.916   0.914
44924W        W17992  29.663  11.198  11.228
44925W        W17993  31.962  26.687  10.563
44926W        W17994  29.089  18.673   0.577
44927W        W17995  36.565   3.050  11.041
44928W        W17996   5.694  11.236   1.465
44929W        W17997  26.368  35.521   5.078
44930W        W17998  21.997  18.217  11.095
44931W        W17999  26.655  30.860   3.598
44932W        W18000  30.833  18.578   2.298
44933W        W18001  16.207   6.271  10.827
44934W        W18002  27.456  43.994   2.038
44935W        W18003  37.064  21.639  10.983
44936W        W18004  29.584   0.891  12.907
44937W        W18005  27.294   3.805  12.245
44938W        W18006  25.770  31.018   1.737
44939W        W18007  40.001  12.182   0.330
44940W        W18008  40.543  40.178  11.534
44941W        W18009  26.942   8.320  12.539
44942W        W18010  36.631   6.814   1.475
44943W        W18011  32.527  10.851   1.724
44944W        W18012  23.861  29.114   9.756
44945W        W18013  21.687  39.025   4.808
44946W        W18014   1.532  36.227   2.001
44947W        W18015  14.057  31.977  13.873
44948W        W18016  24.929  16.181   2.201
44949W        W18017  41.467  13.756  11.930
44950W        W18018  17.540  44.957  11.562
44951W        W18019  39.572  10.502   2.752
44952W        W18020   7.414  35.519  11.548
44953W        W18021   3.788  30.881   0.033
44954W        W18022  23.002  18.687  14.380
44955W        W18023  18.089  27.005  12.629
44956W        W18024  29.989  10.840   4.525
44957W        W18025  17.299  22.344  14.988
44958W        W18026   3.916  26.998   2.365
44959W        W18027  35.628  44.911   0.973
44960W        W18028  13.180   9.348  12.905
44961W        W18029  19.046   3.479   2.331
44962W        W18030   7.836  14.177   3.875
44963W        W18031  29.396   5.194   1.674
44964W        W18032  42.093   9.991  12.049
44965W        W18033  42.994  29.650   3.248
44966W        W18034  15.740   6.603   0.831
44967W        W18035  41.708  38.794   4.655
44968W        W18036  37.566  32.513   2.347
44969W        W18037  19.479  34.984  11.541
44970W        W18038   8.217  41.643   4.138
44971W        W18039  41.868  13.946  11.639
44972W        W18040  41.531  30.302  12.522
44973W        W18041  18.293  18.338  12.059
44974W        W18042   3.734  41.166  10.454
44975W        W18043   1.214  21.716   2.163
44976W        W18044   1.221  41.736  10.976
44977W        W18045  15.104  15.599  12.811
44978W        W18046  30.736  27.736  14.445
44979W        W18047   0.014  20.028   3.275
44980W        W18048  36.687  17.296  14.350
44981W        W18049  14.924  18.606   1.844
44982W        W18050  29.667   1.389  13.731
44983W        W18051  40.070  34.952   3.424
44984W        W18052  31.673   1.534   2.708
44985W        W18053  32.864  27.742  11.616
44986W        W18054  43.953  26.276   1.936
44987W        W18055  16.763  30.345   1.868
44988W        W18056   6.689  20.099   2.368
44989W        W18057  39.840  31.050   1.929
44990W        W18058  36.613  13.812   2.311
44991W        W18059  24.724  41.938  11.517
44992W        W18060  12.831  34.922  11.089
44993W        W18061  11.772  28.165   2.131
44994W        W18062  38.345  22.577  11.090
44995W        W18063  41.013  13.305  10.301
44996W        W18064   6.071  33.000   2.642
44997W        W18065   6.063  10.892   4.065
44998W        W18066  11.401  10.745  14.257
44999W        W18067   7.020   8.177  13.997
45000W        W18068   3.504  20.246  10.954
45001W        W18069   1.704  20.645   3.720
45002W        W18070   6.272  15.719   2.380
45003W        W18071  40.832  39.105   4.867
45004W        W18072   0.706   8.120   3.930
45005W        W18073  13.135  42.577   0.257
45006W        W18074  38.476  37.329  13.347
45007W        W18075   4.687  38.634   1.607
45008W        W18076   3.305   5.429   0.311
45009W        W18077  43.083  32.388   4.465
45010W        W18078  33.228  19.625   2.814
45011W        W18079  11.395  21.744   4.304
45012W        W18080  15.569  32.642   4.246
45013W        W18081  24.228   6.002  13.468
45014W        W18082  20.193   1.072  11.223
45015W        W18083   4.121  22.487   0.339
45016W        W18084   0.875  11.824  14.499
45017W        W18085  39.023   1.748   4.100
45018W        W18086   3.438  34.354  13.531
45019W        W18087  32.868  41.296   4.878
45020W        W18088  44.378   0.692  13.978
45021W        W18089   2.448  43.774   1.010
45022W        W18090  36.502   7.276  13.805
45023W        W18091   8.401  20.513   0.912
45024W        W18092   2.493  40.818   0.043
45025W        W18093  41.914  23.214  14.323
45026W        W18094  41.421   0.836  12.328
45027W        W18095  39.349  30.737   2.644
45028W        W18096  15.602  25.262   2.942
45029W        W18097   5.257  38.738  12.487
45030W        W18098   2.698  39.080   0.095
45031W        W18099  16.721  16.075  10.661
45032W        W18100  38.006  42.931  11.527
45033W        W18101   6.213  26.668   4.098
45034W        W18102  29.090   8.989   3.160
45035W        W18103  15.271  13.676  13.499
45036W        W18104  31.175   1.783  12.906
45037W        W18105   8.227  28.048  14.090
45038W        W18106  30.382  18.222   1.364
45039W        W18107   8.288  38.222   4.173
45040W        W18108  23.690  40.026  11.631
45041W        W18109   0.909  33.388   1.181
45042W        W18110   0.860  18.335   0.440
45043W        W18111  13.597  41.444  13.597
45044W        W18112  23.111  43.463  11.502
45045W        W18113  34.981  43.944  14.034
45046W        W18114  29.601  14.302   3.565
45047W        W18115   7.092   1.963  10.790
45048W        W18116   8.272  24.749   0.112
45049W        W18117  19.135   5.828   0.679
45050W        W18118  13.847  23.735  13.396
45051W        W18119  39.121   6.119  13.122
45052W        W18120  33.005  15.637  12.316
45053W        W18121   3.177  37.322   4.081
45054W        W18122   3.613  18.021   5.149
45055W        W18123  40.021  20.732   1.868
45056W        W18124   4.283  39.553  11.216
45057W        W18125  22.248  16.818  14.494
45058W        W18126   8.195  37.047   0.902
45059W        W18127   7.148  29.923  14.805
45060W        W18128  20.188  25.882   1.285
45061W        W18129  31.986  39.019  13.760
45062W        W18130  41.736  11.865   2.238
45063W        W18131   8.828  23.504   1.010
45064W        W18132   2.014  18.698  13.907
45065W        W18133   7.650  21.691  12.420
45066W        W18134  21.120  25.731  14.523
45067W        W18135  38.323  23.593  13.933
45068W        W18136  40.620   1.918   4.601
45069W        W18137  34.498   6.368  14.061
45070W        W18138  23.740  25.260  14.350
45071W        W18139  10.593  40.894  11.068
45072W        W18140  43.840   1.415   4.231
45073W        W18141  33.557   2.194   0.933
45074W        W18142   1.146  19.778   3.804
45075W        W18143   5.957   7.710   4.776
45076W        W18144  35.827   8.851   0.667
45077W        W18145   1.235  26.667   0.067
45078W        W18146  43.878  16.697   1.461
45079W        W18147   3.225  11.206   0.359
45080W        W18148   7.609  21.212   3.604
45081W        W18149   0.358  35.033   1.576
45082W        W18150  12.081   2.477  12.947
45083W        W18151  12.130  39.889  11.124
45084W        W18152  22.566  24.181  13.803
45085W        W18153  41.869  15.298  13.795
45086W        W18154  10.121  18.255  12.895
45087W        W18155  32.579  40.998  11.875
45088W        W18156  41.081  11.019   1.753
45089W        W18157  33.610  37.791  14.157
45090W        W18158  14.084  13.185   4.607
45091W        W18159  39.411  28.033  14.293
45092W        W18160  18.430  36.375  11.592
45093W        W18161  20.068   9.479   2.516
45094W        W18162  14.402   8.115  13.443
45095W        W18163  15.878   8.185  12.523
45096W        W18164  29.726   0.244   4.564
45097W        W18165  14.847  20.605   0.025
45098W        W18166  39.285  41.556  12.107
45099W        W18167  28.623  29.537   2.274
45100W        W18168  18.319  30.183   0.847
45101W        W18169  33.298  14.094   0.796
45102W        W18170  39.474  11.140  11.037
45103W        W18171  24.117  33.639   2.386
45104W        W18172  38.801   6.753  12.109
45105W        W18173  27.164  27.681  13.377
45106W        W18174  27.024  21.960  13.331
45107W        W18175  42.589  32.540   3.776
45108W        W18176  16.277  22.667   1.497
45109W        W18177  24.624  29.592   0.357
45110W        W18178  10.955   6.773  13.415
45111W        W18179  24.599  14.368  11.924
45112W        W18180  38.580  26.157  11.222
45113W        W18181  31.412  38.487   2.936
45114W        W18182  25.033  29.635   0.000
45115W        W18183  17.419  32.333  14.003
45116W        W18184   5.120  39.541   0.675
45117W        W18185  20.971   8.451   0.850
45118W        W18186  12.836  35.805  11.207
45119W        W18187  22.201   3.475  14.969
45120W        W18188  13.045  16.679   0.450
45121W        W18189  10.642   5.670  10.921
45122W        W18190  30.606  35.921   4.093
45123W        W18191  20.171  12.281  13.985
45124W        W18192   7.806   6.048   0.319
45125W        W18193  33.457  34.403   2.864
45126W        W18194  32.507  33.638   1.227
45127W        W18195  41.564  31.488   4.166
45128W        W18196   2.177  24.137  13.046
45129W        W18197  25.049  38.618   4.596
45130W        W18198  40.193  19.037  12.725
45131W        W18199   7.376  26.390  11.081
45132W        W18200  42.541  36.519   3.697
45133W        W18201   7.322  20.230  12.125
45134W        W18202  17.579  44.450  11.642
45135W        W18203   8.075  42.995  14.709
45136W        W18204   8.551  20.683   3.230
45137W        W18205  27.245   0.023  11.124
45138W        W18206  40.490  42.384  11.217
45139W        W18207  10.983  30.059  14.502
45140W        W18208  41.388  42.545   2.261
45141W        W18209  43.166   2.760   2.593
45142W        W18210  44.353  12.597  14.536
45143W        W18211  37.105  35.065   0.698
45144W        W18212  22.593  13.148  14.697
45145W        W18213   7.747  40.568   3.109
45146W        W18214  25.102  24.959  13.364
45147W        W18215   1.957  32.866  11.894
45148W        W18216  22.194  10.299   4.907
45149W        W18217  22.225   0.765   0.521
45150W        W18218  10.439  41.015   1.454
45151W        W18219  36.496  41.325   4.135
45152W        W18220   0.915  30.522  14.501
45153W        W18221  34.446  10.279   4.557
45154W        W18222   5.155   1.982   2.702
45155W        W18223  25.715  12.859   0.475
45156W        W18224  21.064  23.485  13.360
45157W        W18225   2.266  38.378  12.549
45158W        W18226  41.428  24.442   2.159
45159W        W18227   8.727  38.058  11.117
45160W        W18228   4.933  13.120  14.576
45161W        W18229  20.769  20.295   3.198
45162W        W18230  20.152  37.650   3.820
45163W        W18231  27.169  44.307   2.452
45164W        W18232   8.372  17.207   4.882
45165W        W18233  32.361  22.158   0.341
45166W        W18234  41.919  30.670  13.268
45167W        W18235  43.263  23.148   2.250
45168W        W18236  43.287  13.060   0.766
45169W        W18237   5.753  39.241  10.637
45170W        W18238  30.439  34.075  14.510
45171W        W18239  40.390   5.064   2.900
45172W        W18240   4.668  16.175   1.748
45173W        W18241   6.421  11.280  11.281
45174W        W18242  24.576  19.195   1.344
45175W        W18243  10.745  25.817   2.831
45176W        W18244   5.347  19.387   1.157
45177W        W18245  13.131  39.032   0.320
45178W        W18246  35.962  13.623  12.918
45179W        W18247  28.058  42.846  13.103
45180W        W18248  13.627  19.668   3.143
45181W        W18249  19.949  18.863   0.867
45182W        W18250   4.894  11.325  10.885
45183W        W18251  43.467  11.514  12.455
45184W        W18252  20.066   8.266   1.941
45185W        W18253  23.817  33.653   0.266
45186W        W18254  14.289  22.180   2.837
45187W        W18255  10.546  16.729   0.970
45188W        W18256  22.125   1.713  13.129
45189W        W18257   7.213   3.823   4.494
45190W        W18258  23.344  30.551   4.162
45191W        W18259   4.917   5.456   2.432
45192W        W18260  19.967  39.959  11.104
45193W        W18261  13.638  38.958   2.203
45194W        W18262   9.818  20.853   2.759
45195W        W18263  42.167  25.784  11.839
45196W        W18264  25.062   8.893   2.838
45197W        W18265  35.913   5.174  11.593
45198W        W18266  21.060   6.497   2.759
45199W        W18267  37.883  10.303  12.121
45200W        W18268  27.469  14.292   0.605
45201W        W18269  22.965  32.977   0.141
45202W        W18270  20.223  29.392   3.151
45203W        W18271  29.326   4.456   1.733
45204W        W18272  10.894  33.712   2.887
45205W        W18273  40.738  30.967  12.885
45206W        W18274   6.192  39.308  10.998
45207W        W18275  22.588   4.748   3.066
45208W        W18276  33.473  36.176   1.928
45209W        W18277  34.611   3.419  12.847
45210W        W18278   1.840  19.621   3.165
45211W        W18279  39.767   5.792  13.266
45212W        W18280  20.736  14.042  13.005
45213W        W18281  38.634  35.933   4.556
45214W        W18282  27.149  35.055  13.339
45215W        W18283  22.071  28.970   4.130
45216W        W18284  17.782  40.361  11.939
45217W        W18285  11.068   0.721   4.576
45218W        W18286  20.801  29.960   3.288
45219W        W18287  41.962  16.085   0.794
45220W        W18288  33.729  22.177  12.416
45221W        W18289  36.596  15.863  14.253
45222W        W18290  21.690  37.313  13.530
45223W        W18291  41.772  38.429  13.423
45224W        W18292  30.505  30.692  10.907
45225W        W18293  29.164  29.497   3.708
45226W        W18294  10.893  12.804  13.619
45227W        W18295  16.477  39.644  14.326
45228W        W18296  43.229  30.620   2.578
45229W        W18297  23.989   4.676  12.529
45230W        W18298  26.181  33.479  11.607
45231W        W18299  30.349  12.601   2.243
45232W        W18300   1.731  35.460   4.832
45233W        W18301  22.691   4.325  12.337
45234W        W18302  43.747  10.421  14.501
45235W        W18303  21.225  37.390   3.887
45236W        W18304  24.956  12.205  10.258
45237W        W18305   4.211   9.267   0.977
45238W        W18306  28.926  13.495  13.328
45239W        W18307   4.248  23.288  11.065
45240W        W18308  14.884  34.383  13.240
45241W        W18309  22.235  15.759   1.911
45242W        W18310  25.989  33.172  11.083
45243W        W18311   4.330  40.363   0.492
45244W        W18312  22.707  33.588  14.913
45245W        W18313  28.142  25.582   0.206
45246W        W18314  44.405  19.216  12.199
45247W        W18315  38.244  36.418  12.540
45248W        W18316  33.133  35.118   3.152
45249W        W18317  30.055  16.831  12.921
45250W        W18318  18.741  15.899  13.272
45251W        W18319  34.430   4.284  14.761
45252W        W18320  12.026  44.392  10.012
45253W        W18321  36.626  37.071  10.542
45254W        W18322  39.821  26.618  11.467
45255W        W18323  10.335   3.910  10.548
45256W        W18324   1.034  12.805   1.053
45257W        W18325  38.441  29.889  12.686
45258W        W18326  16.892  38.023   4.864
45259W        W18327  33.304  19.091   5.078
45260W        W18328  19.651  18.363   2.841
45261W        W18329  16.309   0.531  12.151
45262W        W18330   7.834  40.484   3.604
45263W        W18331  40.999  34.583  12.886
45264W        W18332  24.521  26.258   2.096
45265W        W18333  23.587  39.059  12.571
45266W        W18334  11.647   5.861  12.786
45267W        W18335  28.296   9.225  14.121
45268W        W18336  21.540  28.112  13.285
45269W        W18337   8.757  40.535  14.300
45270W        W18338   6.350  35.599  13.741
45271W        W18339  31.835  30.118   0.915
45272W        W18340  43.348  43.078  11.671
45273W        W18341  22.189  32.854  11.034
45274W        W18342  42.547  28.106  14.320
45275W        W18343  30.688  40.987  11.832
45276W        W18344  29.663   6.003  11.161
45277W        W18345  21.728   0.614   4.552
45278W        W18346  19.243  44.415   1.757
45279W        W18347   8.414   0.089  14.809
45280W        W18348   8.742  32.376  11.416
45281W        W18349  22.156  40.750   2.447
45282W        W18350  36.878  42.039   0.659
45283W        W18351  42.301   3.356   4.181
45284W        W18352  43.459  23.674   1.696
45285W        W18353  43.041  17.161   3.214
45286W        W18354  39.365   8.780  14.274
45287W        W18355  32.709  41.453   1.716
45288W        W18356  35.352   1.405  12.104
45289W        W18357  28.207  14.765  11.310
45290W        W18358   6.692  10.415  13.348
45291W        W18359  12.148  29.914   3.418
45292W        W18360  29.910  13.640  10.646
45293W        W18361  22.672  39.765   3.293
45294W        W18362  29.148  11.334  10.633
45295W        W18363  37.928  41.962  13.480
45296W        W18364   9.418  11.102  11.172
45297W        W18365  34.789  26.113  11.398
45298W        W18366  20.615  30.655   2.801
45299W        W18367  40.339  33.004   2.174
45300W        W18368  36.621  27.544   3.119
45301W        W18369  29.413  25.941  12.614
45302W        W18370  28.465   4.123  14.777
45303W        W18371   7.276   8.159  14.989
45304W        W18372  39.695   3.794   4.166
45305W        W18373  44.448   4.478  14.418
45306W        W18374  17.245  22.214   2.763
45307W        W18375  40.550  26.356  11.077
45308W        W18376  15.679   3.248  14.450
45309W        W18377  28.202  29.428  11.201
45310W        W18378  29.133  24.119   3.778
45311W        W18379  36.027  38.123   2.343
45312W        W18380  39.529  20.757   1.286
45313W        W18381   5.078  34.361  14.882
45314W        W18382   3.869   9.233  11.934
45315W        W18383   1.466  29.218   0.343
45316W        W18384  28.706   9.380  11.069
45317W        W18385  41.158  22.529   1.913
45318W        W18386  33.148   3.385   4.967
45319W        W18387  44.837  24.235  13.538
45320W        W18388   7.431  34.430   3.678
45321W        W18389  21.321   1.106   2.261
45322W        W18390  25.904   5.275   2.270
45323W        W18391  31.086  11.239  12.434
45324W        W18392  44.962  12.069   0.908
45325W        W18393  27.035  23.137  14.772
45326W        W18394  21.030  22.110  13.116
45327W        W18395   4.730  26.262   3.684
45328W        W18396   9.361  10.608  13.651
45329W        W18397  25.339  34.799   1.794
45330W        W18398   7.875  42.014   4.037
45331W        W18399  16.458   9.294  12.533
45332W        W18400  44.783  23.640  10.390
45333W        W18401  21.588  16.326  11.624
45334W        W18402  10.670  18.775  11.602
45335W        W18403  42.642  11.803  10.698
45336W        W18404  35.667  40.877   1.725
45337W        W18405  20.722   6.785  12.184
45338W        W18406  31.329  34.637   4.292
45339W        W18407  16.523  40.595  14.844
45340W        W18408  32.850  41.079   0.310
45341W        W18409  27.025  23.767   4.260
45342W        W18410   0.999  24.006   2.364
45343W        W18411  29.573   7.968  12.803
45344W        W18412   0.856  10.382   3.196
45345W        W18413  22.782  44.037  12.878
45346W        W18414  43.938  18.500  14.906
45347W        W18415  18.757  34.001  13.860
45348W        W18416  36.146  43.424   4.989
45349W        W18417  20.819   0.378  11.694
45350W        W18418  41.453   2.024  14.325
45351W        W18419  16.571  34.038  11.800
45352W        W18420   3.892   2.431  10.895
45353W        W18421  10.708  36.404   4.843
45354W        W18422  23.933   1.144   2.910
45355W        W18423  38.060   4.870   0.012
45356W        W18424  31.108  31.091  14.394
45357W        W18425  41.514  15.893   0.970
45358W        W18426  30.160  16.563   0.408
45359W        W18427  35.054  19.176   1.724
45360W        W18428   4.101  16.997  14.003
45361W        W18429   5.669  38.760   3.270
45362W        W18430   3.645  16.264  10.316
45363W        W18431   1.456  12.098  11.049
45364W        W18432  20.323   3.704  14.449
45365W        W18433  34.196   2.988   3.720
45366W        W18434  38.474  41.915  12.385
45367W        W18435  21.637   7.920   3.594
45368W        W18436  17.584  29.514  10.751
45369W        W18437   2.383   8.322  13.914
45370W        W18438  38.953   6.096   4.770
45371W        W18439  37.347   9.192   1.763
45372W        W18440  22.218   3.449   2.522
45373W        W18441  38.535  33.080   3.417
45374W        W18442  10.275  15.857  11.560
45375W        W18443   5.735   4.446  13.539
45376W        W18444  29.702  43.737  11.060
45377W        W18445  35.071  31.125   0.750
45378W        W18446  36.941  28.249  10.736
45379W        W18447  22.612  42.009  14.701
45380W        W18448   7.410  23.673  13.773
45381W        W18449  40.408  12.483   1.665
45382W        W18450  12.330  36.846   3.291
45383W        W18451  33.816  21.291  13.419
45384W        W18452  44.843  30.297  12.979
45385W        W18453  33.545  30.003  13.745
45386W        W18454  15.152   8.230  13.973
45387W        W18455  26.939  39.168   4.899
45388W        W18456  34.875   8.896   0.893
45389W        W18457  43.869  10.663   4.170
45390W        W18458  34.396  36.585   4.273
45391W        W18459  22.903  27.587  11.946
45392W        W18460  29.538   3.190   5.160
45393W        W18461  25.526  26.148   2.305
45394W        W18462  13.811  21.206   2.711
45395W        W18463  26.004  18.525  12.974
45396W        W18464  12.141  21.545  11.900
45397W        W18465   6.754  33.473   3.131
45398W        W18466  42.357  43.502  10.782
45399W        W18467  16.509  18.765   3.343
45400W        W18468   0.816  35.093  14.799
45401W        W18469  10.235  12.927  10.470
45402W        W18470  37.890  27.105   2.157
45403W        W18471  22.445  25.496  12.015
45404W        W18472   3.750  34.689  12.405
45405W        W18473  24.161  15.716  13.405
45406W        W18474  17.612   8.767  12.793
45407W        W18475  44.627  33.406   4.643
45408W        W18476   8.207  36.343   0.215
45409W        W18477  39.923   6.909  12.624
45410W        W18478  10.671  25.571   0.391
45411W        W18479  41.285  19.983  11.122
45412W        W18480  27.187  33.161   4.650
45413W        W18481  17.003  43.283   4.900
45414W        W18482  43.428   3.790   1.967
45415W        W18483   4.912  38.396  11.014
45416W        W18484  36.017  19.125  14.734
45417W        W18485  24.310  18.819  10.412
45418W        W18486   8.444  11.781   0.503
45419W        W18487  44.826  38.776  14.422
45420W        W18488   4.638  33.021  13.830
45421W        W18489   2.341   6.189  13.480
45422W        W18490  12.287  21.233  10.648
45423W        W18491  11.297   2.256  12.601
45424W        W18492   3.441  37.202  11.902
45425W        W18493  19.524   1.491  14.411
45426W        W18494  21.813  19.638  12.114
45427W        W18495   2.294  21.937   2.688
45428W        W18496   5.101   6.982   0.778
45429W        W18497   4.495  12.245   2.789
45430W        W18498  21.320  25.605   4.115
45431W        W18499  13.552   8.256   1.847
45432W        W18500  11.620  13.616   1.247
45433W        W18501  22.078  33.003   2.939
45434W        W18502  21.473  11.728   1.253
45435W        W18503  20.499  41.591  10.573
45436W        W18504  38.235  40.926   2.398
45437W        W18505   9.306  25.442  12.861
45438W        W18506  12.350  10.775   4.228
45439W        W18507   4.484  41.937  11.427
45440W        W18508  26.812  15.287  10.934
45441W        W18509  42.782  29.073  13.436
45442W        W18510  25.279  33.016  14.384
45443W        W18511  26.168  36.929  11.724
45444W        W18512   6.509  27.433   0.410
45445W        W18513  28.302  31.535   3.215
45446W        W18514  24.291  31.663  12.010
45447W        W18515  27.881  29.155  10.813
45448W        W18516  23.572   2.030  13.752
45449W        W18517  37.149  15.272  11.167
45450W        W18518  30.668  33.813   3.201
45451W        W18519   1.806  43.185  13.073
45452W        W18520  40.796  11.743   3.240
45453W        W18521  41.833  28.134   1.162
45454W        W18522   5.517   2.612   1.428
45455W        W18523  27.623   3.323  12.985
45456W        W18524  42.939  11.274   3.414
45457W        W18525  10.193  14.673  12.031
45458W        W18526  24.630  13.129  11.137
45459W        W18527  13.698   9.917  11.884
45460W        W18528  17.225  23.488  12.514
45461W        W18529  28.529  15.298  13.341
45462W        W18530  14.189  30.362  11.529
45463W        W18531   2.390  12.427   0.820
45464W        W18532  40.336  34.645   0.404
45465W        W18533  27.261  39.367  14.731
45466W        W18534  16.125  41.263  12.971
45467W        W18535   9.341  29.577  14.820
45468W        W18536  42.587   8.649  12.116
45469W        W18537  34.425  29.126   3.729
45470W        W18538  21.171   3.346  14.528
45471W        W18539  28.089  26.091   3.190
45472W        W18540  17.634  17.087  13.190
45473W        W18541  16.763  15.741   3.996
45474W        W18542  12.218  30.996  12.686
45475W        W18543  12.856  31.023  13.897
45476W        W18544   2.891  33.368   4.215
45477W        W18545  41.552  19.676   4.934
45478W        W18546   1.789  13.383  11.101
45479W        W18547  30.623   3.288   3.290
45480W        W18548  28.629  31.912  12.011
45481W        W18549  20.560  41.272  10.967
45482W        W18550  29.184   0.079  13.600
45483W        W18551  25.072  11.610   0.812
45484W        W18552  12.399  10.145  14.537
45485W        W18553  15.134  30.221   1.766
45486W        W18554  19.147  28.892   3.283
45487W        W18555   9.433   2.355   4.912
45488W        W18556  12.296  19.758  14.789
45489W        W18557  40.308  42.902   3.775
45490W        W18558   8.926  10.113   1.780
45491W        W18559   5.952  10.200  13.865
45492W        W18560  24.258  10.520  10.074
45493W        W18561   8.760  29.672   3.789
45494W        W18562  37.672   1.228  14.863
45495W        W18563   5.912  10.174  12.048
45496W        W18564   3.965  12.233   0.235
45497W        W18565  16.579   2.217  12.329
45498W        W18566  42.708  32.241   1.812
45499W        W18567  38.254  35.328   4.133
45500W        W18568  15.907   3.378   4.229
45501W        W18569  24.998  21.602   4.227
45502W        W18570  35.365  25.201  13.802
45503W        W18571  30.875  40.471   3.249
45504W        W18572  43.519  29.970   3.720
45505W        W18573  42.081  15.157  14.228
45506W        W18574  26.672  40.078  13.909
45507W        W18575  17.106  35.073   4.909
45508W        W18576  31.317  16.754   3.861
45509W        W18577  25.556   8.451   1.327
45510W        W18578   6.883  33.436  13.373
45511W        W18579  37.531  26.367   0.815
45512W        W18580  23.651   0.540  14.769
45513W        W18581  13.541  31.980  13.940
45514W        W18582  38.175  27.264  13.366
45515W        W18583  16.896  29.085   2.349
45516W        W18584  30.101  42.634  13.836
45517W        W18585  34.384  17.510  13.300
45518W        W18586  30.013   3.346   2.711
45519W        W18587   0.521  24.515   4.267
45520W        W18588   7.840  28.912  14.441
45521W        W18589  36.245   9.263  11.655
45522W        W18590  44.459  22.112   3.686
45523W        W18591  30.024  39.562   0.785
45524W        W18592  13.056  41.303  11.064
45525W        W18593  10.562  26.780  10.137
45526W        W18594   8.879  43.382   2.868
45527W        W18595  42.976  43.533   4.544
45528W        W18596  20.283  13.833   2.424
45529W        W18597  20.494  40.904  13.463
45530W        W18598  28.087  12.559  13.508
45531W        W18599  33.226  19.789  12.474
45532W        W18600  38.533  40.203   3.463
45533W        W18601  10.652  41.076  12.816
45534W        W18602   1.695   1.557  11.106
45535W        W18603   7.750  39.762   4.575
45536W        W18604  18.201  35.515   0.335
45537W        W18605  38.608   0.968   1.300
45538W        W18606   4.230   3.726   2.390
45539W        W18607  10.294  32.803  11.682
45540W        W18608  27.502  35.067   0.228
45541W        W18609   9.366  18.085  10.461
45542W        W18610  26.147   4.338  14.293
45543W        W18611  41.819   4.748  11.362
45544W        W18612  27.003  30.461   2.411
45545W        W18613  34.471  21.943  13.023
45546W        W18614  37.030  38.304  14.368
45547W        W18615  28.910   1.277   0.502
45548W        W18616   9.228  33.292   1.510
45549W        W18617  37.428  13.592  12.699
45550W        W18618  28.933  11.759  12.408
45551W        W18619  33.874  18.292   1.276
45552W        W18620  18.653  19.462  12.212
45553W        W18621  21.409  18.099  14.674
45554W        W18622  16.237  30.044  11.058
45555W        W18623  21.878   3.510  13.884
45556W        W18624  26.712  27.987   3.328
45557W        W18625  40.463  14.548   0.617
45558W        W18626  28.939   8.387   2.469
45559W        W18627  27.704  40.060  12.990
45560W        W18628  36.838  44.876  11.745
45561W        W18629  26.003  32.925  13.943
45562W        W18630  44.457  41.875   3.773
45563W        W18631  37.921  22.278  11.064
45564W        W18632   2.303  27.554  14.551
45565W        W18633   5.774   3.205   2.902
45566W        W18634  25.531  36.920  10.725
45567W        W18635  35.813  35.921  11.560
45568W        W18636   7.483  13.279  13.997
45569W        W18637  25.346  14.324   1.942
45570W        W18638  26.475  40.281  13.490
45571W        W18639  23.030  25.220   3.860
45572W        W18640  40.338  18.766   1.790
45573W        W18641  31.572  32.823   4.169
45574W        W18642   2.899  41.106  11.123
45575W        W18643   6.168   3.339  11.094
45576W        W18644  31.242  27.667   4.635
45577W        W18645  21.039   4.244  14.020
45578W        W18646  14.875  31.251   4.312
45579W        W18647  36.773  16.385  12.478
45580W        W18648  22.626   0.695  13.793
45581W        W18649  20.570   7.704  11.625
45582W        W18650  40.303  25.388  10.955
45583W        W18651   4.742  17.178   4.528
45584W        W18652  12.332  19.461   0.703
45585W        W18653  16.750  18.264  14.296
45586W        W18654   7.747   5.460   2.894
45587W        W18655  43.003  23.099  12.008
45588W        W18656  37.830  19.092  14.415
45589W        W18657   0.956  18.575  10.689
45590W        W18658  34.127  25.445  11.296
45591W        W18659  20.280  36.603   3.604
45592W        W18660   9.367  24.732   4.888
45593W        W18661  34.951  13.997   2.326
45594W        W18662   8.880  44.937  10.892
45595W        W18663  23.220  10.686  10.546
45596W        W18664  30.955   4.482   0.869
45597W        W18665  19.336  25.157   4.762
45598W        W18666  37.462  14.875   4.075
45599W        W18667   8.728  38.445  11.818
45600W        W18668  20.199  31.068  11.227
45601W        W18669  36.892  44.551   0.639
45602W        W18670  37.796  16.813   4.891
45603W        W18671  18.270  12.631  11.407
45604W        W18672  19.197  40.836   3.314
45605W        W18673  20.620  35.518  14.021
45606W        W18674  35.608   0.138   3.550
45607W        W18675  39.555  38.080   1.786
45608W        W18676  33.571   0.581  10.061
45609W        W18677   7.279  35.535  12.551
45610W        W18678  14.573  32.130  11.600
45611W        W18679  31.973  21.021  11.142
45612W        W18680  18.134   3.702  10.623
45613W        W18681  20.493   1.171   2.429
45614W        W18682  28.619  31.382   0.782
45615W        W18683  44.958  32.360  14.473
45616W        W18684   6.715  36.149   4.623
45617W        W18685  23.497  12.606  13.758
45618W        W18686   2.439  37.833   3.869
45619W        W18687  11.035   4.919  13.397
45620W        W18688   7.874  19.050  12.987
45621W        W18689  12.735  40.921   3.701
45622W        W18690   8.296  41.066  11.222
45623W        W18691  19.711   6.303  13.863
45624W        W18692   7.564  31.418   4.053
45625W        W18693  30.107   3.742  13.014
45626W        W18694  38.380  15.277  12.881
45627W        W18695  40.402   6.657   2.984
45628W        W18696   7.209  28.129  11.514
45629W        W18697  44.284  25.902   1.330
45630W        W18698  29.470  12.528   3.805
45631W        W18699   4.180  20.010  14.264
45632W        W18700   2.856  12.566  11.028
45633W        W18701   5.074   9.814   1.266
45634W        W18702  21.773  19.949  10.788
45635W        W18703  29.062  10.723   2.656
45636W        W18704  15.794  33.062  13.105
45637W        W18705  28.729  42.830   0.634
45638W        W18706  30.559  11.199   3.936
45639W        W18707  25.668  28.045  10.441
45640W        W18708  10.888  37.057   2.273
45641W        W18709  26.995  26.351  10.628
45642W        W18710  19.216  31.987  14.146
45643W        W18711   4.946  12.673  13.389
45644W        W18712   4.407   0.944  12.045
45645W        W18713  11.383  16.300   4.132
45646W        W18714  31.038  37.012   3.639
45647W        W18715  19.963  10.770   2.037
45648W        W18716  35.040  16.396   4.542
45649W        W18717  12.146  33.186   2.742
45650W        W18718   5.133  25.364   2.575
45651W        W18719  23.051  25.179  10.793
45652W        W18720  24.517   4.290  11.997
45653W        W18721   4.237  26.412   1.243
45654W        W18722  24.727  32.092   0.794
45655W        W18723  18.239  44.417  13.879
45656W        W18724  22.073  14.043   2.118
45657W        W18725   9.401  13.756   1.342
45658W        W18726  31.214   6.921  12.799
45659W        W18727  22.754   4.739   1.202
45660W        W18728   8.864   8.734   0.379
45661W        W18729  35.149  12.270  12.962
45662W        W18730  40.477   7.432  10.263
45663W        W18731  38.998  30.616   0.154
45664W        W18732  35.892  21.669   2.186
45665W        W18733  11.173  27.066   0.942
45666W        W18734  18.005  13.193   4.246
45667W        W18735  13.670   4.795  13.479
45668W        W18736  43.208  17.373   0.880
45669W        W18737  31.126  31.015   1.735
45670W        W18738  23.961  41.835   0.975
45671W        W18739  14.122  16.796  13.355
45672W        W18740  35.578   2.949  13.376
45673W        W18741  35.207  42.317   1.243
45674W        W18742  29.782  37.011   3.071
45675W        W18743  32.441  15.554   3.303
45676W        W18744  39.999  23.627   0.349
45677W        W18745  14.094  11.670   4.340
45678W        W18746  34.584  31.526  12.948
45679W        W18747  36.841  12.840   1.416
45680W        W18748  10.495  22.140  14.745
45681W        W18749  32.896   9.802  12.571
45682W        W18750  29.599  27.599   2.686
45683W        W18751  42.061  25.578   3.302
45684W        W18752  31.589  31.655   0.808
45685W        W18753  13.877  37.444   3.789
45686W        W18754  30.583  44.633   3.284
45687W        W18755  34.318  38.951  12.943
45688W        W18756   4.328  24.956   2.793
45689W        W18757  42.960  28.042   5.146
45690W        W18758  39.305  43.007  12.864
45691W        W18759  18.276  22.399   1.793
45692W        W18760  16.238  27.440  12.144
45693W        W18761  23.002  28.485  13.823
45694W        W18762   8.123  20.175  13.510
45695W        W18763   0.145  17.458   2.275
45696W        W18764   5.023   7.575   0.870
45697W        W18765   6.653   1.303  13.345
45698W        W18766  40.744   4.639   0.343
45699W        W18767  35.570  13.144   1.863
45700W        W18768  32.147  40.636  13.045
45701W        W18769  17.534  35.428   3.639
45702W        W18770  10.756  42.727   4.698
45703W        W18771  17.732  17.362   1.433
45704W        W18772  16.017  29.868  13.415
45705W        W18773  34.978   3.195  11.772
45706W        W18774  31.766  28.906   2.353
45707W        W18775  40.857   1.211   9.763
45708W        W18776  20.509  34.702   2.873
45709W        W18777  23.678  10.888  10.723
45710W        W18778   2.318  31.379   3.372
45711W        W18779  35.603  20.720  13.245
45712W        W18780   0.907  32.978   2.017
45713W        W18781  21.686  18.592  13.840
45714W        W18782  21.038  11.604   2.382
45715W        W18783  40.397  34.719   3.759
45716W        W18784  12.228  11.086  11.507
45717W        W18785  22.604  43.583  10.418
45718W        W18786   0.808   3.749   4.965
45719W        W18787  33.569  32.222  13.988
45720W        W18788   0.450   3.976  12.937
45721W        W18789  23.589   4.887   4.983
45722W        W18790  16.219   0.973   3.667
45723W        W18791  35.331  37.864  13.065
45724W        W18792  39.925  14.341   1.756
45725W        W18793  35.956  16.795  12.481
45726W        W18794  42.440  25.476   3.702
45727W        W18795   3.307  21.077  13.563
45728W        W18796   0.369  37.453   1.269
45729W        W18797  22.277  44.474   2.768
45730W        W18798  40.115  26.262   4.383
45731W        W18799   9.058  37.945   3.796
45732W        W18800  44.551  15.024   1.424
45733W        W18801  42.560  27.097   1.947
45734W        W18802  22.977   6.409   0.870
45735W        W18803  10.627  10.044  12.534
45736W        W18804   6.410  38.028  11.551
45737W        W18805  17.621  22.055  13.876
45738W        W18806  27.862  20.890   2.871
45739W        W18807   6.859  40.470   1.026
45740W        W18808  22.573  37.536   4.130
45741W        W18809  40.544  24.632   0.404
45742W        W18810  39.825   2.303  10.952
45743W        W18811  35.787  20.750   3.647
45744W        W18812  33.933  39.821   1.379
45745W        W18813   1.968  33.004  12.971
45746W        W18814  39.513  37.114  12.351
45747W        W18815  26.621  23.917  10.416
45748W        W18816   1.058  28.262   2.196
45749W        W18817  30.313   0.271  11.627
45750W        W18818  17.497  31.434   1.618
45751W        W18819  42.822  19.563  11.710
45752W        W18820  16.102  42.711   0.924
45753W        W18821  19.708   4.789  10.381
45754W        W18822   4.805  42.732   2.722
45755W        W18823   4.727  10.832   2.767
45756W        W18824  37.107  17.448  13.478
45757W        W18825  26.561  41.345   1.347
45758W        W18826  23.523  19.565   2.838
45759W        W18827  13.421  39.426  13.502
45760W        W18828  34.531  12.199  13.949
45761W        W18829  11.891  41.756   4.131
45762W        W18830   2.337   3.205   4.129
45763W        W18831  28.744  34.625   4.059
45764W        W18832  12.100  33.420   2.276
45765W        W18833  36.605  17.403  13.401
45766W        W18834  27.327  24.071   4.606
45767W        W18835   3.993  21.501  11.543
45768W        W18836  34.624  21.116   2.838
45769W        W18837  19.485  24.561   1.439
45770W        W18838  38.594  38.923   0.777
45771W        W18839  15.673  36.512  11.897
45772W        W18840  40.795  43.110   1.001
45773W        W18841  34.810  44.374   4.507
45774W        W18842  31.551  12.115  12.607
45775W        W18843  11.253  31.424   1.728
45776W        W18844  22.317  20.063   3.443
45777W        W18845  27.003  34.543   3.409
45778W        W18846   1.280  43.131  10.526
45779W        W18847  44.245  14.087   4.469
45780W        W18848  16.510  22.464  12.925
45781W        W18849   8.340   5.985   1.967
45782W        W18850  23.193  39.914  11.505
45783W        W18851  44.417  38.894   4.553
45784W        W18852  32.448  16.022  13.722
45785W        W18853  30.583  19.075   4.233
45786W        W18854  37.726  37.382   3.646
45787W        W18855  16.332  10.343   2.745
45788W        W18856  13.853   6.341  10.722
45789W        W18857  37.930  12.912   2.034
45790W        W18858  13.036  42.401  10.740
45791W        W18859  23.931  20.635  14.486
45792W        W18860  38.607   5.930   4.443
45793W        W18861  24.552  19.871   3.034
45794W        W18862  10.134  36.060  13.619
45795W        W18863   2.304  29.367   4.136
45796W        W18864  39.787  16.296  11.708
45797W        W18865  11.226   9.938  13.006
45798W        W18866  39.335  24.553   4.557
45799W        W18867   6.789   6.268  10.815
45800W        W18868  24.320  15.793   2.675
45801W        W18869  35.577  20.597   1.717
45802W        W18870   9.307  26.212   1.778
45803W        W18871  42.289  36.222   3.358
45804W        W18872  26.722  13.148   4.185
45805W        W18873  12.907  15.251   3.330
45806W        W18874  13.359  16.470   0.814
45807W        W18875  34.106  14.225  12.427
45808W        W18876   0.611  28.585   1.485
45809W        W18877   1.838  29.529   0.549
45810W        W18878   5.784  30.176  12.448
45811W        W18879  33.054  43.749  12.087
45812W        W18880   5.745  15.640  13.076
45813W        W18881  33.809  11.755  12.114
45814W        W18882  13.487  32.430  14.764
45815W        W18883  36.825  29.976   0.396
45816W        W18884  37.567  44.517   2.707
45817W        W18885  43.050   1.276  14.538
45818W        W18886   5.710  13.164   2.300
45819W        W18887  27.780   9.713  12.368
45820W        W18888   5.851   3.345  10.677
45821W        W18889  32.639  29.849  11.917
45822W        W18890   7.125  33.316   1.798
45823W        W18891  30.292  32.082  14.481
45824W        W18892  39.611  15.512   3.914
45825W        W18893  38.350  44.799   0.240
45826W        W18894  13.152  28.782   0.281
45827W        W18895   4.639  42.485  11.488
45828W        W18896  15.262   9.786  13.607
45829W        W18897  11.695  21.781   1.996
45830W        W18898  17.397  22.798   2.914
45831W        W18899  44.415  22.462  10.869
45832W        W18900  16.273   8.210   0.505
45833W        W18901  41.877  11.148   4.106
45834W        W18902  35.579   3.645   3.184
45835W        W18903   7.427  16.310   1.394
45836W        W18904  36.938  41.822   2.691
45837W        W18905  24.939  42.219  14.742
45838W        W18906  26.569  24.252  12.438
45839W        W18907   4.421  39.851  13.912
45840W        W18908  22.271  25.034  12.909
45841W        W18909   2.254  31.343   0.416
45842W        W18910  23.033  40.387  12.643
45843W        W18911  36.402  23.007   0.492
45844W        W18912  15.507  42.550  11.159
45845W        W18913  28.383  26.240  11.633
45846W        W18914  12.319  26.266  12.928
45847W        W18915  14.313  36.451   5.108
45848W        W18916  15.787  12.363  14.049
45849W        W18917   8.370  41.382  11.608
45850W        W18918  19.601  34.098  11.837
45851W        W18919  33.065  16.349   3.287
45852W        W18920  15.399  22.185  14.836
45853W        W18921   2.166  31.561  12.143
45854W        W18922  15.570  43.223   4.535
45855W        W18923  24.217  23.085  11.258
45856W        W18924   0.818  21.890  12.962
45857W        W18925  31.894  32.437   3.338
45858W        W18926  20.893  23.580   0.055
45859W        W18927  16.694  25.112  11.591
45860W        W18928   0.470   9.362  14.359
45861W        W18929   7.746  20.272   0.935
45862W        W18930   1.304  32.127  10.817
45863W        W18931  20.612  30.158   3.735
45864W        W18932  15.472  19.993  14.448
45865W        W18933  27.910  16.833  14.369
45866W        W18934  36.294  16.634  13.140
45867W        W18935  43.047  16.092  11.547
45868W        W18936  41.076  10.178   0.029
45869W        W18937  29.919  23.466  14.502
45870W        W18938   2.040  24.117   0.984
45871W        W18939  15.103   1.551  14.357
45872W        W18940  14.470   6.014   5.127
45873W        W18941  12.195  30.537  14.662
45874W        W18942   8.447  23.167   1.271
45875W        W18943  38.593  16.644   2.865
45876W        W18944   6.545  28.997   2.774
45877W        W18945  43.054  39.078   2.243
45878W        W18946  28.492  17.481  13.015
45879W        W18947   5.614  14.583   4.187
45880W        W18948  18.620  24.861  10.794
45881W        W18949  36.549   9.288   2.236
45882W        W18950  26.610   9.314   0.743
45883W        W18951  23.982  18.670   0.767
45884W        W18952  18.341  25.323  11.132
45885W        W18953  31.662  32.688   4.672
45886W        W18954   5.015  31.929  11.861
45887W        W18955  23.337   9.746  11.935
45888W        W18956  29.517  35.841   0.501
45889W        W18957  22.933  44.431   5.012
45890W        W18958  23.261  11.393   2.464
45891W        W18959  10.652  10.366  10.226
45892W        W18960   5.851  34.850   0.800
45893W        W18961   5.753   3.203  12.480
45894W        W18962  22.746  40.405   4.236
45895W        W18963   9.060   9.383  12.114
45896W        W18964  31.001  13.150  14.325
45897W        W18965  28.622   8.663   4.761
45898W        W18966  16.702  38.002  11.015
45899W        W18967  16.818  38.595   3.685
45900W        W18968  28.061  18.098   1.757
45901W        W18969  20.795  28.089   0.786
45902W        W18970   4.419   9.730   0.861
45903W        W18971  39.561  32.894   4.195
45904W        W18972   3.954  25.509  10.931
45905W        W18973  26.413  36.701  14.857
45906W        W18974  15.301   2.999  10.626
45907W        W18975  11.437  17.034   3.714
45908W        W18976  16.906   7.976   0.879
45909W        W18977  23.694  26.983   4.068
45910W        W18978  41.785  34.540  10.644
45911W        W18979  17.919  14.751   2.523
45912W        W18980   7.605  22.745  14.978
45913W        W18981   6.253  19.515   2.052
45914W        W18982  19.608  35.975   1.290
45915W        W18983  14.044  28.991   0.263
45916W        W18984  11.340  20.299   3.230
45917W        W18985  21.541  17.807  11.765
45918W        W18986  22.634  40.757   0.283
45919W        W18987   7.471  43.776   2.806
45920W        W18988  43.226  25.928  14.273
45921W        W18989   3.339  27.241  10.954
45922W        W18990  18.062   4.781  10.786
45923W        W18991  28.672  26.106   4.048
45924W        W18992  33.068  26.174   0.311
45925W        W18993   8.279  25.346  13.445
45926W        W18994  23.113  15.705   3.271
45927W        W18995   3.310  31.560  14.957
45928W        W18996  18.574  13.788   3.450
45929W        W18997  10.972  25.578  12.604
45930W        W18998  26.502   6.809   0.247
45931W        W18999   1.860   6.963  12.033
45932W        W19000  25.560  37.023   3.444
45933W        W19001  44.827  38.618   2.371
45934W        W19002  20.110  18.045  14.079
45935W        W19003   0.566  31.883   4.522
45936W        W19004  40.019  11.780   4.866
45937W        W19005   8.916  31.060   0.618
45938W        W19006  30.960  20.208   1.448
45939W        W19007  15.285  39.509  11.934
45940W        W19008  14.071  31.033   0.317
45941W        W19009  43.324   8.685  11.666
45942W        W19010  11.665  24.733  12.797
45943W        W19011  25.722  31.086   0.771
45944W        W19012   7.716   3.823  11.852
45945W        W19013  12.121  25.660   1.826
45946W        W19014  29.173   3.451  12.487
45947W        W19015  10.780  16.604   4.179
45948W        W19016  38.294   7.411   4.915
45949W        W19017  18.548  10.421  11.620
45950W        W19018   7.498   0.056  12.012
45951W        W19019  44.351  16.788   1.754
45952W        W19020  37.499  22.713  13.014
45953W        W19021  25.662   0.830  11.755
45954W        W19022  19.875   6.048   1.941
45955W        W19023  12.125  27.934  11.190
45956W        W19024   4.725  28.261  12.455
45957W        W19025  36.992  12.768  12.922
45958W        W19026  20.180  43.031   0.255
45959W        W19027  35.591  19.986  11.468
45960W        W19028  15.074  16.500   0.532
45961W        W19029  25.050  33.918  14.871
45962W        W19030  10.894  43.233   4.029
45963W        W19031  31.525  22.190  13.112
45964W        W19032  34.241  33.532   2.858
45965W        W19033  36.666  39.713  14.424
45966W        W19034  10.663  42.272   1.722
45967W        W19035  42.978  31.671  10.481
45968W        W19036  22.737  30.142  11.578
45969W        W19037  42.325  26.220  12.943
45970W        W19038  40.013  38.511  12.933
45971W        W19039   8.248   2.329   2.734
45972W        W19040  40.751  12.659  10.274
45973W        W19041  34.878  22.891   1.805
45974W        W19042   5.978  11.373  11.635
45975W        W19043  33.349  26.619   0.343
45976W        W19044   5.779  13.848  14.334
45977W        W19045   8.428  12.838  13.416
45978W        W19046  28.423  10.095   3.847
45979W        W19047  41.343  11.830  13.466
45980W        W19048  19.698  27.960   0.030
45981W        W19049  16.221  20.248   0.401
45982W        W19050   1.462  35.127  12.489
45983W        W19051  27.917  41.222  14.036
45984W        W19052   9.769  36.405  13.478
45985W        W19053  16.864  44.866  11.098
45986W        W19054  11.316  20.462  13.303
45987W        W19055   9.061  44.411   0.804
45988W        W19056  41.418  23.074   0.207
45989W        W19057  26.388  14.179  12.043
45990W        W19058  10.854  30.563  11.101
45991W        W19059   8.371  34.487  11.545
45992W        W19060  10.739  23.722   0.775
45993W        W19061   9.748  13.891  11.216
45994W        W19062  35.541  44.375  10.540
45995W        W19063  27.986  15.186  14.331
45996W        W19064  43.978  25.715  10.712
45997W        W19065  29.726  25.466   4.076
45998W        W19066  41.176  37.349   1.459
45999W        W19067  14.031  40.121   0.882
46000W        W19068  20.518  14.990   1.361
46001W        W19069   4.977  37.411  11.494
46002W        W19070  36.925  13.780  14.530
46003W        W19071  15.761   8.572   2.376
46004W        W19072  26.464  11.609  14.531
46005W        W19073  12.912  28.582   0.829
46006W        W19074  10.700   6.268  10.607
46007W        W19075  27.208   0.534  11.269
46008W        W19076   9.693  31.716   4.672
46009W        W19077  30.901  25.409  10.590
46010W        W19078  38.925   8.303   3.743
46011W        W19079  25.488  40.339  13.812
46012W        W19080   3.704  16.168   3.759
46013W        W19081  23.808  42.542  11.994
46014W        W19082   9.258   1.731  14.438
46015W        W19083  37.251  33.076  14.229
46016W        W19084  37.970  44.508  14.364
46017W        W19085  44.427   2.434   2.807
46018W        W19086  32.722  11.186  11.382
46019W        W19087   1.746  32.852   3.680
46020W        W19088  44.694  12.203   1.826
46021W        W19089  37.315  44.464  14.927
46022W        W19090  23.626  17.046   1.705
46023W        W19091  39.612  22.786   3.987
46024W        W19092  30.632  10.092  12.905
46025W        W19093  26.912  42.421  13.816
46026W        W19094  15.614  18.809   4.773
46027W        W19095  41.865   2.132  12.300
46028W        W19096  25.015   9.454  11.107
46029W        W19097  13.147  16.544  13.997
46030W        W19098  22.690  44.012  11.890
46031W        W19099  17.882  41.694   0.753
46032W        W19100  11.648  40.360   1.278
46033W        W19101  14.737  21.247   1.659
46034W        W19102  41.998  38.091  11.204
46035W        W19103  41.065  36.021   1.408
46036W        W19104  13.216  44.987  14.112
46037W        W19105   2.688  33.091   2.846
46038W        W19106  28.515   6.653  11.601
46039W        W19107  22.694  27.910  14.436
46040W        W19108  41.239  40.905  14.397
46041W        W19109  39.295  30.434   0.948
46042W        W19110  20.487   2.375  12.474
46043W        W19111  12.061   1.548   4.063
46044W        W19112  37.134  27.630  11.397
46045W        W19113  26.478  27.848   2.877
46046W        W19114  10.947  41.359  13.997
46047W        W19115  34.403  21.099   0.507
46048W        W19116  18.516  19.670   4.614
46049W        W19117  22.186  14.884   4.037
46050W        W19118  24.775   3.733  12.061
46051W        W19119   9.260  15.083   1.557
46052W        W19120  41.398  17.747   4.905
46053W        W19121  41.325  27.585   2.354
46054W        W19122  15.741  32.961  12.555
46055W        W19123   3.791  12.156  10.959
46056W        W19124  41.288  14.241  12.015
46057W        W19125  42.609  38.466   4.067
46058W        W19126  32.376  35.057  10.250
46059W        W19127  13.291  27.314   0.445
46060W        W19128   3.417  17.921  11.681
46061W        W19129  32.988   9.670  12.079
46062W        W19130  31.886   4.776   3.347
46063W        W19131  42.316  25.705  12.851
46064W        W19132  15.193  31.259   4.776
46065W        W19133   6.755  23.901   1.966
46066W        W19134  13.254  16.040  11.917
46067W        W19135  22.781   9.419   3.899
46068W        W19136  12.605  17.986   1.411
46069W        W19137  23.277  40.913  10.588
46070W        W19138  24.700  17.842  14.766
46071W        W19139   1.806  22.566  11.397
46072W        W19140   0.768  33.741   1.903
46073W        W19141   9.580  21.995  12.436
46074W        W19142  14.367  31.478   0.237
46075W        W19143  44.252   5.322  11.395
46076W        W19144  19.060   9.415  14.818
46077W        W19145  41.266   7.701   1.305
46078W        W19146   4.805  37.523   3.530
46079W        W19147  24.982  10.537   3.595
46080W        W19148   6.126  37.850   2.397
46081W        W19149   8.906  14.523  10.256
46082W        W19150  14.417  23.701   0.932
46083W        W19151  12.493  10.363  13.843
46084W        W19152  17.254  18.424   1.888
46085W        W19153  21.048   7.463  11.518
46086W        W19154  39.868  36.587  13.051
46087W        W19155   9.901  37.521   3.833
46088W        W19156  41.046  19.040   3.169
46089W        W19157   4.255  36.830   0.444
46090W        W19158   2.886   0.436  11.215
46091W        W19159  23.616  22.430  14.570
46092W        W19160  19.542  21.599  10.774
46093W        W19161  37.048   5.199  13.500
46094W        W19162   8.873   6.502   3.132
46095W        W19163  34.514  19.480   4.142
46096W        W19164   7.059   1.808   1.530
46097W        W19165   3.732  17.678  12.463
46098W        W19166  15.031  39.787  10.504
46099W        W19167  26.092  37.391   0.480
46100W        W19168  26.399  36.878  11.192
46101W        W19169  23.263  21.450  11.971
46102W        W19170  16.555  15.675  12.879
46103W        W19171  16.806  19.065  12.150
46104W        W19172  28.628  34.930  14.735
46105W        W19173  29.448  37.513  12.910
46106W        W19174  36.502  33.180   4.678
46107W        W19175  29.228  36.398   4.929
46108W        W19176  43.730  23.781   0.789
46109W        W19177  12.594  18.691  10.529
46110W        W19178   8.143  26.759   3.336
46111W        W19179  16.114  18.809   0.052
46112W        W19180  30.497   3.326  14.472
46113W        W19181  38.309  36.343   0.867
46114W        W19182  41.587   3.299   2.278
46115W        W19183   6.790   9.491   0.666
46116W        W19184   6.520  10.865  12.044
46117W        W19185  15.113  38.807  10.806
46118W        W19186  28.909  19.624   0.380
46119W        W19187  33.219   3.761  14.168
46120W        W19188  29.540   0.553   4.960
46121W        W19189  26.548  35.687   0.006
46122W        W19190   2.386  33.658   4.992
46123W        W19191   9.949  41.229   9.891
46124W        W19192  41.468  17.082   1.519
46125W        W19193  41.488  34.568   0.931
46126W        W19194  11.221  40.287  11.151
46127W        W19195  14.101  27.217   0.863
46128W        W19196  12.531  44.349  14.435
46129W        W19197  16.228  42.212   0.987
46130W        W19198  40.523  11.797  13.735
46131W        W19199   8.652  42.370  12.964
46132W        W19200  25.139  35.632   1.842
46133W        W19201  13.634  40.824  12.989
46134W        W19202  20.103  14.679  11.651
46135W        W19203  31.569  17.578   2.398
46136W        W19204  26.261   9.266   1.691
46137W        W19205  31.672   5.267   1.185
46138W        W19206  30.815  17.654  11.435
46139W        W19207  38.262  20.972   0.875
46140W        W19208  10.745   4.253  11.600
46141W        W19209  20.680   0.370   4.549
46142W        W19210  14.161  29.699   4.556
46143W        W19211  19.128  13.231  14.386
46144W        W19212  43.078  13.477   4.138
46145W        W19213  16.888  34.960   2.036
46146W        W19214  44.316   9.859  12.471
46147W        W19215  15.277  27.844  14.587
46148W        W19216  16.026  42.750  12.624
46149W        W19217   7.818  17.575   3.172
46150W        W19218   3.669   8.445   0.798
46151W        W19219   5.749  27.505   3.893
46152W        W19220  32.510   1.952  11.119
46153W        W19221  14.347   7.193   1.350
46154W        W19222  25.010   6.791  12.609
46155W        W19223   2.376  40.535   4.722
46156W        W19224  32.577  28.977   3.104
46157W        W19225  33.065  27.182   1.254
46158W        W19226  40.059  20.958  13.965
46159W        W19227  42.224  26.817   3.832
46160W        W19228  24.236   1.309   4.948
46161W        W19229  43.011  25.926   2.757
46162W        W19230  17.609  10.602  13.529
46163W        W19231  40.491  16.642  14.889
46164W        W19232  26.505  28.976  13.121
46165W        W19233   8.886  14.908   2.769
46166W        W19234  27.217  29.474   4.039
46167W        W19235  37.403  14.254  13.878
46168W        W19236  29.142  11.071  11.088
46169W        W19237  25.613  40.070  12.650
46170W        W19238  27.219   8.263  11.555
46171W        W19239  12.677  37.823  10.738
46172W        W19240  16.157  27.368   0.473
46173W        W19241  38.710  35.171   0.011
46174W        W19242  43.212  36.382   4.085
46175W        W19243  26.681  17.203   0.296
46176W        W19244  13.378   2.015   3.410
46177W        W19245  24.329  16.398   1.516
46178W        W19246   3.623  22.693  10.682
46179W        W19247  17.517  36.728   4.074
46180W        W19248  32.341   2.493   0.407
46181W        W19249  43.141  27.111   2.072
46182W        W19250  43.455   0.528  14.832
46183W        W19251  34.658  14.134  13.384
46184W        W19252  27.502  14.276  14.424
46185W        W19253  11.251  36.703   2.189
46186W        W19254  22.676  15.580  14.986
46187W        W19255  41.870  27.802  11.770
46188W        W19256   1.179  30.401  10.711
46189W        W19257  40.795   6.939  10.621
46190W        W19258  31.989  31.035  12.686
46191W        W19259   0.947  42.976   3.868
46192W        W19260  10.733  18.778  10.234
46193W        W19261  28.967  20.127   3.242
46194W        W19262  23.091  29.182   2.351
46195W        W19263   1.501  42.994   1.339
46196W        W19264  14.537  23.176  12.373
46197W        W19265   6.170  29.760  14.925
46198W        W19266  35.387  33.402  10.672
46199W        W19267  31.448  22.824  13.770
46200W        W19268  32.344   7.356  10.601
46201W        W19269  44.330  12.616   1.327
46202W        W19270  41.120  35.436   4.654
46203W        W19271  20.389  20.973  10.982
46204W        W19272   9.330  27.414   1.302
46205W        W19273  37.622   5.698  11.732
46206W        W19274  41.763  43.398  12.104
46207W        W19275  23.923  31.510  12.520
46208W        W19276   8.674  26.739   1.345
46209W        W19277   2.805  40.127  11.128
46210W        W19278   0.886  41.996   3.622
46211W        W19279  39.629  17.768   0.462
46212W        W19280  10.487  41.602  12.139
46213W        W19281  41.286  30.365   0.867
46214W        W19282  20.453  35.565   3.710
46215W        W19283  26.012   4.419  12.825
46216W        W19284  33.582  21.159  14.570
46217W        W19285   2.832   1.471  14.029
46218W        W19286  29.196   3.451   4.774
46219W        W19287  31.938  13.083   3.716
46220W        W19288  22.928  20.081  13.820
46221W        W19289   9.550  17.518  13.542
46222W        W19290  43.474  31.593   2.819
46223W        W19291  10.208   8.768  14.094
46224W        W19292  40.292   6.720   5.549
46225W        W19293  26.764  12.958  12.843
46226W        W19294  33.792  17.165   2.219
46227W        W19295  44.342  27.988   2.616
46228W        W19296  21.089  35.492  14.478
46229W        W19297  20.778  15.767   0.959
46230W        W19298  25.756  19.403  14.016
46231W        W19299  26.876  39.006  10.754
46232W        W19300   3.664   7.202   2.897
46233W        W19301  28.117  19.982   4.763
46234W        W19302   0.068  41.830  12.909
46235W        W19303  39.657   9.866  11.648
46236W        W19304  29.822   5.264  13.515
46237W        W19305  19.324   9.243   3.585
46238W        W19306  35.238  11.295  12.493
46239W        W19307  41.865   4.811   3.581
46240W        W19308  44.346  40.894   4.220
46241W        W19309   8.358   0.023   0.787
46242W        W19310  13.507  14.625   2.089
46243W        W19311  42.913  39.528   4.844
46244W        W19312  39.269   9.729  13.861
46245W        W19313  37.096  44.671  13.321
46246W        W19314  43.763  12.509  11.889
46247W        W19315  40.343   4.522   2.962
46248W        W19316   2.809  40.982  13.902
46249W        W19317   6.824   4.596  13.912
46250W        W19318   5.923   3.437  12.916
46251W        W19319  22.320  31.068   3.156
46252W        W19320  32.820   9.347   1.894
46253W        W19321  14.178  12.284   0.791
46254W        W19322  26.200  37.330  12.480
46255W        W19323  17.292  15.334  13.833
46256W        W19324  28.660  21.075   3.122
46257W        W19325  33.093   7.863  14.462
46258W        W19326   5.017   4.325   3.758
46259W        W19327  43.337  37.910   3.445
46260W        W19328  14.707  23.971  13.827
46261W        W19329  33.321   7.015   2.223
46262W        W19330  25.795  43.108  13.016
46263W        W19331   1.523   4.338  13.205
46264W        W19332  15.687  43.734   4.534
46265W        W19333  13.867  29.093   3.198
46266W        W19334  20.498  41.458  12.077
46267W        W19335   2.289  29.632   3.696
46268W        W19336  44.997  42.371  12.663
46269W        W19337  22.750  34.078  11.516
46270W        W19338  10.813   8.818   4.380
46271W        W19339  32.853  24.103   3.481
46272W        W19340  35.150  11.912   4.171
46273W        W19341  18.596   6.986   4.535
46274W        W19342  42.506  31.792  12.878
46275W        W19343   0.949  36.407  10.581
46276W        W19344  22.028  26.009   1.386
46277W        W19345  25.630  37.604   2.601
46278W        W19346  16.065  15.556  14.909
46279W        W19347  11.127   3.925   0.295
46280W        W19348  16.123  42.263   3.690
46281W        W19349  32.883  23.142   0.835
46282W        W19350  41.884   1.122   1.801
46283W        W19351  38.850  13.383  11.661
46284W        W19352  14.586   7.933  12.605
46285W        W19353  29.038  29.956  12.032
46286W        W19354  10.869  26.648  13.463
46287W        W19355   9.477  42.404   2.393
46288W        W19356  30.793  39.838   3.940
46289W        W19357   5.686  35.042   2.355
46290W        W19358  44.500  36.999  13.324
46291W        W19359  30.150  41.602   0.013
46292W        W19360  41.906  22.699  14.145
46293W        W19361  17.701  41.463   0.324
46294W        W19362  16.848   7.811  12.346
46295W        W19363   8.338  37.131   0.331
46296W        W19364   1.055   5.216  11.964
46297W        W19365  39.011  21.162   4.668
46298W        W19366  41.002  44.808  14.259
46299W        W19367  39.700  15.260  10.718
46300W        W19368  25.661  33.623  14.863
46301W        W19369  37.356  21.122  11.849
46302W        W19370  35.604   4.608   1.863
46303W        W19371  11.824   6.917   0.835
46304W        W19372  40.779  37.368   4.035
46305W        W19373  17.847  41.865   4.849
46306W        W19374  20.055  39.919   2.862
46307W        W19375  39.596  16.722  11.458
46308W        W19376  32.352  26.532  10.229
46309W        W19377  25.980  36.949   3.134
46310W        W19378  29.911   3.155   4.073
46311W        W19379   5.956  17.754   1.747
46312W        W19380  31.166  36.548  10.801
46313W        W19381  18.646  37.439  14.451
46314W        W19382  25.101  25.116  14.923
46315W        W19383  13.222  13.342  12.348
46316W        W19384   8.686  10.804   0.968
46317W        W19385  24.154   0.688  10.476
46318W        W19386  26.029   9.861  11.573
46319W        W19387  41.993  20.695  12.973
46320W        W19388  11.405  13.366  12.988
46321W        W19389  20.595  38.941   2.447
46322W        W19390  13.947  43.018   1.769
46323W        W19391  39.104  41.199   1.314
46324W        W19392   7.357  15.340   0.358
46325W        W19393  26.524  16.070  12.821
46326W        W19394   5.051  32.323   3.367
46327W        W19395  10.065   3.460  10.472
46328W        W19396  15.276   1.198  10.667
46329W        W19397  44.451  42.297  13.997
46330W        W19398  23.127  26.117   1.729
46331W        W19399   5.719  13.438  12.490
46332W        W19400  17.193  37.805  14.825
46333W        W19401   3.001  36.455   3.876
46334W        W19402  26.414  30.140  13.903
46335W        W19403  31.982  18.632   5.052
46336W        W19404  23.989   0.258  13.470
46337W        W19405  42.422  31.066   4.582
46338W        W19406  21.476  21.583   4.780
46339W        W19407  16.084  25.769  11.588
46340W        W19408   4.924  28.603  12.114
46341W        W19409   9.962  18.134   3.139
46342W        W19410  11.852   1.036  14.777
46343W        W19411  37.990   9.279   0.299
46344W        W19412   1.864  32.205   3.297
46345W        W19413  41.425  35.077   3.683
46346W        W19414  38.004  21.048  11.706
46347W        W19415   1.736  18.524  10.938
46348W        W19416  12.722  28.252  14.472
46349W        W19417  36.469  26.247   0.886
46350W        W19418  15.834  31.660  12.035
46351W        W19419  27.643  19.656  13.088
46352W        W19420  18.424  17.870  12.903
46353W        W19421  33.891   3.803  12.925
46354W        W19422  32.698  30.943   0.828
46355W        W19423  43.750  16.688  14.400
46356W        W19424  37.221   9.413  14.024
46357W        W19425  17.281   2.923  12.639
46358W        W19426  28.472  11.843   0.026
46359W        W19427  22.089  23.714  11.860
46360W        W19428  13.388  27.265   3.606
46361W        W19429  15.845  39.977  10.663
46362W        W19430   1.088  25.670  14.027
46363W        W19431  35.601  33.380   3.228
46364W        W19432   5.211  29.344  14.981
46365W        W19433  35.747  11.112   0.369
46366W        W19434  41.998  14.414   0.355
46367W        W19435  33.480  43.782  13.425
46368W        W19436   9.622   4.420   0.785
46369W        W19437   5.295  43.109   1.843
46370W        W19438  33.578  13.076  13.402
46371W        W19439  41.073  41.021   3.298
46372W        W19440   0.890  39.467   2.683
46373W        W19441   0.380  41.895  10.405
46374W        W19442  41.332  33.012   4.718
46375W        W19443  11.796  43.835   4.568
46376W        W19444   7.131   2.968  12.856
46377W        W19445  35.465  40.324   4.913
46378W        W19446  34.223  27.244   2.544
46379W        W19447  43.980  11.990  11.951
46380W        W19448  27.506   1.518   4.202
46381W        W19449   8.468  20.286   1.400
46382W        W19450  32.873  44.008  13.935
46383W        W19451  35.427   9.161  12.026
46384W        W19452  11.339  10.307   0.462
46385W        W19453  18.244  12.893   2.618
46386W        W19454  21.908  29.148  12.244
46387W        W19455  13.248  18.125   2.488
46388W        W19456  41.434   4.519   3.684
46389W        W19457  13.113  43.973   3.135
46390W        W19458  11.184  31.575  12.879
46391W        W19459  31.057   1.156   1.661
46392W        W19460   4.161  32.626   2.723
46393W        W19461  25.472  13.507   3.442
46394W        W19462  39.280  13.334   2.386
46395W        W19463  33.092  36.341   3.681
46396W        W19464  21.807   1.429   1.174
46397W        W19465   3.975  41.916  11.312
46398W        W19466  41.883  32.832  12.033
46399W        W19467  28.563  43.856  11.860
46400W        W19468  24.740  36.077   4.731
46401W        W19469   9.480   3.325  13.886
46402W        W19470  25.655   9.452  12.211
46403W        W19471   2.532  10.305  13.871
46404W        W19472  19.844  17.705  12.600
46405W        W19473  19.601  11.716  10.707
46406W        W19474  24.636  16.043   1.763
46407W        W19475  14.355  28.537   2.713
46408W        W19476  21.701  13.661  11.480
46409W        W19477   5.738   9.651  11.039
46410W        W19478  17.789   4.191   1.504
46411W        W19479   1.806  34.998   2.678
46412W        W19480  21.959  25.006   2.747
46413W        W19481  40.518  38.607  11.595
46414W        W19482  30.436  32.933  11.238
46415W        W19483  22.169  16.261  14.237
46416W        W19484  11.300  38.598   0.769
46417W        W19485  25.814  18.570   2.101
46418W        W19486   2.854  36.113  12.101
46419W        W19487  23.676  20.246   5.108
46420W        W19488  17.529  42.310  10.899
46421W        W19489  19.741  20.122  11.607
46422W        W19490  23.955   3.551   3.839
46423W        W19491  18.065  21.485   2.916
46424W        W19492   8.902  14.784   1.305
46425W        W19493   4.920  21.047  11.962
46426W        W19494   3.355  38.350  14.510
46427W        W19495  38.488  42.716  14.307
46428W        W19496  38.135  35.144  13.241
46429W        W19497  30.522  16.177   3.102
46430W        W19498   5.994  40.592  11.988
46431W        W19499  23.243  25.295   2.323
46432W        W19500  32.672  31.553   4.710
46433W        W19501  28.100  22.700   2.929
46434W        W19502   8.112  10.721  12.842
46435W        W19503   9.286   8.632   1.730
46436W        W19504   8.909   7.698  11.980
46437W        W19505  37.295  28.568   1.860
46438W        W19506  41.829  36.476  14.951
46439W        W19507  39.496   8.194  12.550
46440W        W19508  41.392   9.800  13.262
46441W        W19509  30.382  13.674  13.421
46442W        W19510  20.158   1.789  11.851
46443W        W19511  42.067  13.096  12.556
46444W        W19512   7.763  19.506  10.141
46445W        W19513  16.863  12.920  14.799
46446W        W19514  28.837  23.751   3.589
46447W        W19515   6.448  15.061   2.447
46448W        W19516  43.836  31.891   4.074
46449W        W19517  41.472  12.269   1.182
46450W        W19518  24.060  23.721  13.806
46451W        W19519  23.582  25.750   0.853
46452W        W19520  43.884  18.318   0.409
46453W        W19521  38.813  28.379  12.549
46454W        W19522  13.623   1.411   0.406
46455W        W19523  21.093  10.881   3.242
46456W        W19524  34.524  20.624  12.148
46457W        W19525  35.427  44.263   1.746
46458W        W19526  44.436  34.067   4.566
46459W        W19527   8.434  24.010   1.852
46460W        W19528  20.254  39.540  11.108
46461W        W19529  31.975   1.500  14.035
46462W        W19530  36.423  14.905   4.056
46463W        W19531  38.412  30.140  11.347
46464W        W19532  23.982   3.044   1.748
46465W        W19533  31.515   7.163   3.413
46466W        W19534  20.033  27.019  13.482
46467W        W19535  24.219  17.645  14.798
46468W        W19536  31.926  28.124  11.748
46469W        W19537   5.858  16.609  14.659
46470W        W19538   2.724  11.377   3.755
46471W        W19539  22.059  31.128   1.753
46472W        W19540  44.282  17.373   4.227
46473W        W19541  34.344   0.054  11.992
46474W        W19542  32.728  16.169  12.988
46475W        W19543  44.034  44.795   1.926
46476W        W19544   1.261  29.952   1.954
46477W        W19545  18.154  44.521  10.998
46478W        W19546  23.062  15.382   0.294
46479W        W19547   8.810  23.662   4.807
46480W        W19548   4.925  41.824   0.791
46481W        W19549   4.957  15.639   1.156
46482W        W19550  40.539  12.176  14.100
46483W        W19551  31.902   6.786   4.170
46484W        W19552  29.444  44.249  13.327
46485W        W19553  27.673  26.208   4.872
46486W        W19554  39.694  39.468  10.913
46487W        W19555   8.238  20.008  11.687
46488W        W19556   0.637  41.969  13.420
46489W        W19557   5.340  18.639   1.745
46490W        W19558  20.464   6.839  12.639
46491W        W19559   8.633  22.176   0.376
46492W        W19560  29.472  31.138   2.516
46493W        W19561   1.718  29.391   1.519
46494W        W19562  19.666  30.108   3.440
46495W        W19563   6.620  15.581  14.274
46496W        W19564  30.504   8.677  12.051
46497W        W19565  26.620  22.659  13.097
46498W        W19566  23.088  29.476  14.936
46499W        W19567   8.339   9.765   1.021
46500W        W19568  43.372  21.852   4.197
46501W        W19569   8.521  11.096  13.470
46502W        W19570   9.467  32.986   3.977
46503W        W19571  10.786  29.357   2.299
46504W        W19572   8.873  21.427   4.510
46505W        W19573  20.545  36.813   2.581
46506W        W19574  10.047   5.399   0.295
46507W        W19575  39.426  25.565  12.799
46508W        W19576  11.910  26.933  13.476
46509W        W19577  28.399   3.709  13.861
46510W        W19578  21.242  28.225   3.758
46511W        W19579  34.477  27.946  11.599
46512W        W19580   1.444  38.561  12.567
46513W        W19581  22.446  17.271   1.445
46514W        W19582  26.096  20.431   0.659
46515W        W19583  18.013  30.114  12.477
46516W        W19584  39.807  11.225   3.676
46517W        W19585  21.338  22.065  10.486
46518W        W19586   3.166  12.163   2.840
46519W        W19587  17.378  16.193  11.451
46520W        W19588   3.097  16.546   2.679
46521W        W19589  22.444  23.889  10.380
46522W        W19590  30.849  37.818   1.041
46523W        W19591  26.606  12.185  11.612
46524W        W19592  33.501  37.838  12.690
46525W        W19593   1.853  34.289   4.622
46526W        W19594   2.529  17.018  12.951
46527W        W19595   0.497   2.985  13.044
46528W        W19596   2.811  29.906  13.113
46529W        W19597  15.107  29.961   0.398
46530W        W19598   8.070  42.175   2.629
46531W        W19599   3.955   6.262  10.645
46532W        W19600   0.538   5.319   4.663
46533W        W19601  42.735  26.642  12.769
46534W        W19602  20.922  24.240   0.896
46535W        W19603   0.446  41.462  10.718
46536W        W19604   8.701  19.812  11.594
46537W        W19605  18.614  43.253  10.703
46538W        W19606   7.658  12.055   4.528
46539W        W19607  38.121  36.059   4.579
46540W        W19608  43.741  15.890   1.852
46541W        W19609  35.531   3.390   3.611
46542W        W19610  19.834  31.039   0.769
46543W        W19611   7.609   7.389  12.453
46544W        W19612  20.039  32.450   4.630
46545W        W19613  31.014   7.599   1.196
46546W        W19614   9.246  38.849   4.931
46547W        W19615  29.117  41.521   4.675
46548W        W19616  18.241   0.699  13.979
46549W        W19617   9.849  32.397  10.728
46550W        W19618  32.016  38.793  12.374
46551W        W19619  17.523  27.431  12.554
46552W        W19620  10.874  39.630  10.738
46553W        W19621  19.670  35.671   2.554
46554W        W19622  17.660  32.787   2.190
46555W        W19623  25.979  25.166   3.760
46556W        W19624  22.602  16.296   2.211
46557W        W19625  41.021  38.585   0.296
46558W        W19626  37.479  20.058  11.599
46559W        W19627  23.978   6.961   3.235
46560W        W19628  17.066  38.776  10.132
46561W        W19629  21.467   9.881   3.212
46562W        W19630  36.311  10.751  12.915
46563W        W19631  30.495  21.025   3.670
46564W        W19632  18.208  34.495   1.231
46565W        W19633  26.038  26.248  14.296
46566W        W19634  36.880  10.636   3.273
46567W        W19635  43.723  29.576   2.652
46568W        W19636  32.955  25.807  10.762
46569W        W19637  11.815  41.825  12.036
46570W        W19638  27.539  23.886  12.371
46571W        W19639  20.527   7.684   0.803
46572W        W19640  25.659   8.597  11.679
46573W        W19641   0.871  18.185  13.938
46574W        W19642  13.953  31.629   1.563
46575W        W19643  44.952   1.754   4.029
46576W        W19644  38.512  43.485   0.736
46577W        W19645  40.492  23.672   3.305
46578W        W19646   3.155   9.333  13.986
46579W        W19647   0.552  20.611  13.593
46580W        W19648   8.508   0.098   2.530
46581W        W19649  39.717  44.822  14.190
46582W        W19650  10.158  33.322  11.666
46583W        W19651  32.017  12.109   1.702
46584W        W19652  35.472   6.976   2.808
46585W        W19653  30.387  16.623   2.292
46586W        W19654   0.973  39.392   1.140
46587W        W19655  23.016  10.527   2.243
46588W        W19656  39.449   2.160  10.564
46589W        W19657  40.630  35.533  12.464
46590W        W19658  18.630  16.064  13.751
46591W        W19659   2.845  33.415   2.142
46592W        W19660  28.415  29.538  10.749
46593W        W19661  31.165  20.477   4.518
46594W        W19662   5.124  42.478  11.213
46595W        W19663  17.997   2.694  10.750
46596W        W19664  41.933  23.243   4.178
46597W        W19665  17.882  44.782  13.825
46598W        W19666  40.978  10.644   0.998
46599W        W19667   4.335   0.809  14.247
46600W        W19668  28.273  17.531   2.233
46601W        W19669  25.127   4.373   1.249
46602W        W19670  24.640  10.173   0.467
46603W        W19671   1.821  10.880  14.416
46604W        W19672   8.009   4.138  13.085
46605W        W19673  27.786  10.126   3.223
46606W        W19674  39.547  37.488  13.582
46607W        W19675  12.813  19.080  13.264
46608W        W19676   0.487  42.347  11.179
46609W        W19677   6.234  12.306   1.430
46610W        W19678  35.643  29.502  11.421
46611W        W19679   2.262  40.217   1.827
46612W        W19680   4.251  44.015   1.831
46613W        W19681  36.972   4.833  13.945
46614W        W19682  22.209   9.364   2.228
46615W        W19683   4.604   5.341  11.269
46616W        W19684  33.764  18.889   3.279
46617W        W19685  35.536  10.348  12.857
46618W        W19686  43.820  44.749   0.332
46619W        W19687  38.002  33.603  13.432
46620W        W19688  14.796  36.806  11.627
46621W        W19689  40.912  29.528   3.461
46622W        W19690  28.020   6.891   2.360
46623W        W19691   5.861  21.075  11.998
46624W        W19692   5.276   6.093  13.314
46625W        W19693  22.931   6.220  11.098
46626W        W19694  17.308   6.149  13.105
46627W        W19695  37.348  31.597  13.346
46628W        W19696   6.904  11.359  12.854
46629W        W19697  11.292   8.818   4.576
46630W        W19698  40.277  22.785  13.730
46631W        W19699  33.325  40.340  14.798
46632W        W19700  30.950  34.899   4.907
46633W        W19701   0.841  15.747   0.468
46634W        W19702  29.870  11.737   0.661
46635W        W19703  25.947  29.918  13.914
46636W        W19704  10.307  36.578   4.596
46637W        W19705  25.511  25.193  13.963
46638W        W19706  30.674   3.394  11.230
46639W        W19707  20.966  37.960  12.907
46640W        W19708   0.836  31.325  12.205
46641W        W19709   6.133  29.981   1.386
46642W        W19710  25.687   2.372   3.682
46643W        W19711  36.832  15.069  14.151
46644W        W19712  28.083   9.839   4.650
46645W        W19713  16.396  10.367  13.844
46646W        W19714  16.050  31.530   3.376
46647W        W19715  34.172   7.453   1.778
46648W        W19716  22.968   2.020   4.514
46649W        W19717   7.567  36.714   2.900
46650W        W19718  29.508  31.352   1.222
46651W        W19719  15.387  20.660  10.714
46652W        W19720  19.515  15.205   3.852
46653W        W19721   1.352  16.584   2.447
46654W        W19722  27.593  42.339   2.753
46655W        W19723  33.396  23.257   2.709
46656W        W19724  26.764  18.417   4.149
46657W        W19725  42.951  40.578   1.530
46658W        W19726  29.199  27.144   1.308
46659W        W19727   2.484  31.976  12.040
46660W        W19728   1.905  38.561   1.335
46661W        W19729  39.722  35.084  14.993
46662W        W19730  10.926  14.951   3.087
46663W        W19731  29.446  21.268  11.172
46664W        W19732  33.121  44.557  13.323
46665W        W19733  14.032  36.461   4.149
46666W        W19734  11.399  20.600  13.791
46667W        W19735   4.405   5.186   3.807
46668W        W19736  12.813   7.247  14.096
46669W        W19737   5.552  22.466  10.171
46670W        W19738  32.073  37.114  11.177
46671W        W19739  22.498  25.940   2.290
46672W        W19740  40.549  21.256   3.729
46673W        W19741  16.900  23.147  11.221
46674W        W19742  37.153  21.818   0.294
46675W        W19743   5.854  12.673   0.474
46676W        W19744  15.613  10.280   1.876
46677W        W19745  15.803  21.346   0.988
46678W        W19746  40.980   6.622   1.787
46679W        W19747   7.247   8.266   0.890
46680W        W19748  42.533   7.470  14.983
46681W        W19749  27.176  32.147   3.916
46682W        W19750  19.267   1.117  14.654
46683W        W19751  26.283   1.714  13.226
46684W        W19752   1.263  24.237  11.178
46685W        W19753  11.722   0.058  12.725
46686W        W19754  21.985  40.858  13.104
46687W        W19755  24.969  30.328  13.427
46688W        W19756  35.434  15.650  11.099
46689W        W19757   4.876  16.321   3.588
46690W        W19758  34.387  29.503  13.785
46691W        W19759   2.742  10.702  10.684
46692W        W19760  23.495  43.845  13.534
46693W        W19761  38.379  30.384  14.502
46694W        W19762  32.348  33.372  11.125
46695W        W19763  24.586   3.220  13.475
46696W        W19764  41.539  19.607   0.898
46697W        W19765  36.489  10.168   1.927
46698W        W19766  41.139   3.987   4.395
46699W        W19767   8.395  16.683  13.638
46700W        W19768  36.547   3.104   1.460
46701W        W19769   9.101  27.148   2.743
46702W        W19770  36.040   6.592   2.784
46703W        W19771  11.732  38.055   4.600
46704W        W19772   9.088  13.743   3.618
46705W        W19773  24.236   6.357   2.670
46706W        W19774   1.719  10.763   1.759
46707W        W19775  20.120  15.589  14.826
46708W        W19776  32.789  11.583   4.132
46709W        W19777  14.389   4.550   4.215
46710W        W19778  25.792  34.637  11.006
46711W        W19779   7.898   5.292  13.531
46712W        W19780   9.293  35.966   0.023
46713W        W19781  24.541  27.618  14.056
46714W        W19782  17.489   1.816   0.692
46715W        W19783   7.310  25.547  13.853
46716W        W19784  13.057  35.948  13.815
46717W        W19785  28.729  16.431   2.833
46718W        W19786  27.735   5.279   1.825
46719W        W19787   3.978  20.586   2.207
46720W        W19788  11.871  18.101  11.113
46721W        W19789  43.541   7.945   4.357
46722W        W19790  20.639  32.733  14.290
46723W        W19791  15.443  26.394  12.238
46724W        W19792  44.722  34.942   2.775
46725W        W19793  30.118  40.096   2.815
46726W        W19794  24.265  14.735  13.624
46727W        W19795  20.133   7.443   4.052
46728W        W19796  28.113  28.092   0.839
46729W        W19797  44.929  22.123   3.440
46730W        W19798  30.150  27.975   2.452
46731W        W19799   3.859   8.684   0.304
46732W        W19800  30.947  35.590  11.478
46733W        W19801  17.449  11.727   1.314
46734W        W19802  25.115  17.014  12.178
46735W        W19803  11.895  36.060   2.882
46736W        W19804  40.841  42.764  11.592
46737W        W19805  40.562  40.862   4.056
46738W        W19806   6.387  31.545  14.404
46739W        W19807  44.016   4.295   4.589
46740W        W19808   7.143  42.484   1.848
46741W        W19809  14.361  21.809  14.031
46742W        W19810  26.501  27.492   0.247
46743W        W19811  18.160  22.185  11.319
46744W        W19812  19.393  21.660  12.057
46745W        W19813  25.930  28.904  10.659
46746W        W19814  33.654   1.748  12.411
46747W        W19815  26.001  21.203   2.278
46748W        W19816  14.212  27.071   3.098
46749W        W19817  13.222   6.710   4.640
46750W        W19818  21.813  25.118   1.362
46751W        W19819  40.887  38.136   4.517
46752W        W19820  40.449  29.561   0.343
46753W        W19821  27.286  38.056  13.615
46754W        W19822   7.377  34.309  10.654
46755W        W19823  33.920   7.840  10.547
46756W        W19824  10.709   1.942  10.621
46757W        W19825   1.396  34.474   4.447
46758W        W19826  29.021  36.420   2.703
46759W        W19827   7.675  11.174   2.418
46760W        W19828  43.645  44.584  11.065
46761W        W19829   0.459  31.005  10.366
46762W        W19830  34.645  30.522   3.273
46763W        W19831  42.314  23.570   1.676
46764W        W19832  36.310  33.833   4.138
46765W        W19833   8.366  16.108   4.532
46766W        W19834  13.162  11.283   0.875
46767W        W19835  19.944  11.950   3.261
46768W        W19836  34.232   7.367  13.265
46769W        W19837  14.284   1.138  11.007
46770W        W19838   8.498  25.191  10.946
46771W        W19839  17.770   9.421   0.205
46772W        W19840  12.791  32.163   3.269
46773W        W19841  43.121  14.154   2.861
46774W        W19842  17.187  17.332   4.617
46775W        W19843  34.764  19.312  12.100
46776W        W19844  22.667   6.968  14.378
46777W        W19845  23.554  38.805   3.665
46778W        W19846  14.739  16.807  11.002
46779W        W19847   8.451  15.001   1.289
46780W        W19848  38.957  33.247   4.999
46781W        W19849  30.391  24.764   3.323
46782W        W19850  37.686   9.982  11.787
46783W        W19851  42.583  38.263  13.820
46784W        W19852   5.470  24.329   4.821
46785W        W19853   5.847  31.445   4.378
46786W        W19854  13.663  31.650  11.466
46787W        W19855  34.611  39.413  11.647
46788W        W19856  22.068  17.184   2.466
46789W        W19857  17.794  12.200   4.071
46790W        W19858   3.002  41.818  12.573
46791W        W19859   1.263   7.166  12.019
46792W        W19860  36.482   8.341   1.047
46793W        W19861  14.637  25.947  11.093
46794W        W19862  34.070   7.400   0.289
46795W        W19863  21.308  11.277  10.857
46796W        W19864  30.369   4.910   0.346
46797W        W19865  13.102   8.101  12.596
46798W        W19866  42.529  15.397  11.527
46799W        W19867   2.179  19.792   0.732
46800W        W19868  44.228  17.258  10.679
46801W        W19869  44.921   6.537   4.980
46802W        W19870  34.064  35.997  12.215
46803W        W19871   0.402  22.994  10.378
46804W        W19872  26.683  14.612   0.251
46805W        W19873  25.927  11.358  11.024
46806W        W19874  25.679  37.492   5.058
46807W        W19875  29.883  14.691   4.160
46808W        W19876   2.401   9.412   1.632
46809W        W19877  24.907  22.536  13.491
46810W        W19878   9.946  40.312   1.775
46811W        W19879  11.133  26.037  14.412
46812W        W19880   7.955   1.352  14.864
46813W        W19881  36.589  15.464  13.312
46814W        W19882  33.573  28.659   0.835
46815W        W19883  42.219  30.117   2.502
46816W        W19884  41.635   3.937   4.554
46817W        W19885  10.584  24.642   0.273
46818W        W19886  34.845   2.923   0.382
46819W        W19887  10.643  19.158  13.560
46820W        W19888  14.344   9.808   4.090
46821W        W19889  27.021  40.081   1.842
46822W        W19890  41.827  35.969  14.827
46823W        W19891   8.745  25.183   0.914
46824W        W19892  43.151   8.291  14.725
46825W        W19893  26.605  21.453   3.266
46826W        W19894  36.423  20.884  12.211
46827W        W19895  10.879  41.943  14.423
46828W        W19896  24.538  32.101  13.051
46829W        W19897  13.291  37.869   4.842
46830W        W19898  29.499  14.608  10.592
46831W        W19899  21.137   3.204   1.934
46832W        W19900   1.976   1.683  10.696
46833W        W19901  31.428  13.212  14.017
46834W        W19902  43.895   9.127   1.969
46835W        W19903  16.193   6.693   4.436
46836W        W19904  26.279  36.857  12.648
46837W        W19905  12.209  44.751  11.413
46838W        W19906  14.666   2.484  12.927
46839W        W19907  23.035  39.503  10.382
46840W        W19908   3.306  22.666  13.090
46841W        W19909  12.280  19.263   3.118
46842W        W19910  41.879  40.758   4.567
46843W        W19911   1.348  21.734   4.506
46844W        W19912   5.723  38.561   1.332
46845W        W19913  24.736  32.647   1.961
46846W        W19914  17.321  32.817  13.849
46847W        W19915  13.381  16.163  14.313
46848W        W19916  33.091  33.747  11.728
46849W        W19917  32.322  22.126   2.248
46850W        W19918   6.266  22.238  13.850
46851W        W19919  32.780  28.187  10.473
46852W        W19920  44.784  18.585   1.594
46853W        W19921  23.564  25.593  12.351
46854W        W19922  37.691  15.678  14.831
46855W        W19923  29.492  40.512   3.943
46856W        W19924   7.735  21.575  11.078
46857W        W19925  22.079  42.815  12.833
46858W        W19926   2.793  26.225   1.502
46859W        W19927  10.371  36.156   1.426
46860W        W19928   3.157  13.433  12.020
46861W        W19929  24.516  41.318  14.904
46862W        W19930   3.249  36.771  13.459
46863W        W19931  10.325   3.169  11.467
46864W        W19932  11.298  25.924  12.411
46865W        W19933  37.315  36.817   1.204
46866W        W19934  19.054  11.857  10.680
46867W        W19935  41.065  15.236  10.523
46868W        W19936   2.383  37.604  13.143
46869W        W19937  29.524  22.473   1.850
46870W        W19938  15.364  44.690   4.634
46871W        W19939  30.377  16.046  11.554
46872W        W19940  22.193  15.922   4.050
46873W        W19941   2.319  16.126  10.930
46874W        W19942  23.519  36.292   0.801
46875W        W19943   7.169  15.832  14.083
46876W        W19944  17.829  41.479  14.406
46877W        W19945  27.596  21.052   1.808
46878W        W19946  32.117  28.413  12.759
46879W        W19947  41.029  15.453   2.594
46880W        W19948  18.158  35.917  13.899
46881W        W19949  15.607  16.252   1.871
46882W        W19950   5.168   0.985  10.788
46883W        W19951  41.356  39.519  10.458
46884W        W19952  33.488  28.748  14.885
46885W        W19953   7.365   4.316   2.314
46886W        W19954   9.165  19.782   3.187
46887W        W19955   5.223  43.050   2.659
46888W        W19956  40.770  32.767   0.829
46889W        W19957  13.112  37.946   3.379
46890W        W19958   1.687   8.633  14.280
46891W        W19959  16.013   1.732  11.838
46892W        W19960   5.199   6.459   4.626
46893W        W19961  16.554  44.982  14.798
46894W        W19962  42.622  21.025   1.350
46895W        W19963  29.604  44.017  14.554
46896W        W19964  44.956  34.793   1.292
46897W        W19965  17.597  39.178  10.696
46898W        W19966  20.058  13.473  12.681
46899W        W19967   3.530  13.593   3.759
46900W        W19968  44.944  24.475   3.397
46901W        W19969  26.572   0.827   0.676
46902W        W19970   1.293  11.685  14.179
46903W        W19971   1.376  12.876  14.817
46904W        W19972  41.456  27.343   3.028
46905W        W19973  32.702   7.818  11.106
46906W        W19974  30.967  41.886   3.238
46907W        W19975   4.581  15.494  13.101
46908W        W19976  38.977  34.622  14.873
46909W        W19977  34.507  29.675   3.647
46910W        W19978  38.026  30.038   1.388
46911W        W19979  44.330  20.486  11.211
46912W        W19980   8.375  38.218  13.556
46913W        W19981  30.515  42.749   4.838
46914W        W19982  17.848  14.391  14.373
46915W        W19983  14.261  27.227  12.519
46916W        W19984   9.936  15.103  13.907
46917W        W19985  40.335   5.667  10.759
46918W        W19986  22.786  23.466  13.566
46919W        W19987  32.055   7.635   2.341
46920W        W19988  20.700  41.024   0.007
46921W        W19989  31.396  40.380   0.903
46922W        W19990  11.124  41.984  13.030
46923W        W19991   6.145  36.709  11.190
46924W        W19992  37.355  38.434  13.018
46925W        W19993  34.827  21.550  11.426
46926W        W19994  18.499  14.124  12.882
46927W        W19995  16.874  24.265   0.944
46928W        W19996  42.375  12.806  13.838
46929W        W19997  30.904   7.909   3.328
46930W        W19998  14.611   5.956   3.385
46931W        W19999  35.462  39.254  14.376
46932W        W20000   5.293  39.545  12.929
46933W        W20001  13.541  17.230  12.645
46934W        W20002   8.327  19.307  11.162
46935W        W20003  29.043  36.016  13.380
46936W        W20004  26.563  22.842   1.308
46937W        W20005  19.299   4.778  12.084
46938W        W20006   0.439   2.791  12.560
46939W        W20007  20.318  12.375   4.978
46940W        W20008  12.146  34.466  10.637
46941W        W20009  27.910   6.250  12.052
46942W        W20010  25.553  20.022  11.165
46943W        W20011  15.520  24.833  11.328
46944W        W20012  13.329  29.145   2.810
46945W        W20013  35.963   1.371   1.260
46946W        W20014  37.210  26.082   1.446
46947W        W20015  20.838  21.899   2.235
46948W        W20016  35.376  44.866   3.185
46949W        W20017  42.687  41.167   2.247
46950W        W20018   1.757  18.579   3.250
46951W        W20019  12.875  34.637   4.115
46952W        W20020   4.527  15.279  14.354
46953W        W20021  40.874  12.122   3.624
46954W        W20022  14.205  18.819  10.749
46955W        W20023  18.544  44.839   0.920
46956W        W20024  10.488  11.229   1.878
46957W        W20025   8.864   8.270  12.634
46958W        W20026  37.795   8.355  11.935
46959W        W20027  12.630  40.753   0.296
46960W        W20028  27.665  39.235   2.806
46961W        W20029   0.705  41.135   1.469
46962W        W20030  21.141   4.827   3.648
46963W        W20031  18.184  21.193  13.435
46964W        W20032  33.381  22.728  14.248
46965W        W20033   9.739  29.255   1.188
46966W        W20034  22.654  29.014  11.663
46967W        W20035  20.508   0.332   3.380
46968W        W20036  34.967  18.667   3.256
46969W        W20037  12.336  40.845   2.364
46970W        W20038   2.258  22.836   2.902
46971W        W20039  41.366   5.746  11.995
46972W        W20040  12.130  33.513  13.369
46973W        W20041  25.564  26.946   0.813
46974W        W20042  30.506  40.247   0.750
46975W        W20043   1.942  44.789  13.976
46976W        W20044   1.489  11.092  12.464
46977W        W20045  42.993   7.917   4.610
46978W        W20046  43.323  22.664  12.985
46979W        W20047  20.027   9.730  11.638
46980W        W20048  24.900  26.206   2.856
46981W        W20049   7.897   0.119   4.577
46982W        W20050  25.432  10.579  11.592
46983W        W20051  11.818  15.603   4.373
46984W        W20052  15.178  21.513   1.823
46985W        W20053   8.102  22.034  14.524
46986W        W20054  38.941  25.974  10.648
46987W        W20055  17.001  31.698  12.889
46988W        W20056  32.883  15.609   4.128
46989W        W20057  44.856  19.251  13.502
46990W        W20058   2.292  27.537   2.328
46991W        W20059  41.799  33.609  11.607
46992W        W20060  39.670  27.180   2.939
46993W        W20061  26.416  24.998   2.759
46994W        W20062  18.651  16.605   0.950
46995W        W20063  33.498  15.555   1.434
46996W        W20064   7.313  11.721  10.686
46997W        W20065  31.079  43.947  10.668
46998W        W20066   7.836  26.209  12.839
46999W        W20067  39.672  16.108   2.648
47000W        W20068   5.280  29.179  13.221
47001W        W20069  35.857   1.872   1.170
47002W        W20070  39.886   4.818  14.001
47003W        W20071  37.575  39.105  14.366
47004W        W20072  35.041  33.695   2.290
47005W        W20073  23.155  11.341  13.584
47006W        W20074  25.601  37.047   5.345
47007W        W20075   9.852  12.358   1.684
47008W        W20076  38.045  18.511  14.656
47009W        W20077  41.430  16.297  14.382
47010W        W20078  14.145  15.783  12.455
47011W        W20079  18.665   8.110  14.421
47012W        W20080  13.717  20.211   4.215
47013W        W20081   0.893  36.593  13.825
47014W        W20082  37.868  11.088  13.166
47015W        W20083  13.864  44.943  12.540
47016W        W20084  30.419  42.565  10.753
47017W        W20085  23.088  36.444  12.497
47018W        W20086  12.966   5.012  12.388
47019W        W20087  21.704  34.080  13.032
47020W        W20088   7.602  16.143  13.988
47021W        W20089  40.799   8.855  10.703
47022W        W20090  32.860  20.514  13.062
47023W        W20091   7.875   2.190   3.444
47024W        W20092  39.534  38.918  11.027
47025W        W20093   9.807  30.456   2.168
47026W        W20094  41.765  23.740  13.967
47027W        W20095  30.253  41.022   2.347
47028W        W20096   0.810  19.736   0.974
47029W        W20097  28.336  25.025  11.228
47030W        W20098  29.996   3.500  14.441
47031W        W20099   4.168  35.230  13.047
47032W        W20100   2.213  43.851  13.551
47033W        W20101   7.785  25.215   2.789
47034W        W20102   2.939  40.106   4.399
47035W        W20103   6.181  19.756  10.068
47036W        W20104  41.436  44.092  13.557
47037W        W20105  22.571  41.916   2.605
47038W        W20106   9.133  18.592   1.239
47039W        W20107   3.373   9.956  11.412
47040W        W20108  42.841  13.890  14.375
47041W        W20109  30.575  41.314   2.703
47042W        W20110  14.702  37.076   4.802
47043W        W20111  19.993  20.830   2.302
47044W        W20112  18.727  21.080   0.722
47045W        W20113  20.913  11.360   1.072
47046W        W20114  21.041  40.263  11.523
47047W        W20115  14.087  36.964   3.784
47048W        W20116   9.391  11.613  11.095
47049W        W20117  39.525  36.320  11.387
47050W        W20118  12.752  12.080   5.067
47051W        W20119  26.159  33.433   0.861
47052W        W20120  32.528  39.654   2.164
47053W        W20121  36.456  16.302  14.489
47054W        W20122  33.195  15.782   4.539
47055W        W20123  32.038  16.006   0.375
47056W        W20124  12.224  21.630  14.055
47057W        W20125  30.465  33.376   2.877
47058W        W20126  36.543  19.918   2.289
47059W        W20127  36.503  12.816  11.619
47060W        W20128  12.883  22.691  11.385
47061W        W20129  23.689  43.848   1.096
47062W        W20130  30.980  19.961   0.481
47063W        W20131  20.323  39.976  13.373
47064W        W20132  24.167  29.870   3.469
47065W        W20133   9.600  38.013   4.607
47066W        W20134  29.629  44.013  12.870
47067W        W20135  15.654  18.790  12.190
47068W        W20136  20.739  42.728  11.256
47069W        W20137  19.112  39.769   3.422
47070W        W20138  23.636  10.800  14.365
47071W        W20139  43.492  23.477  12.550
47072W        W20140  14.522  12.296   3.715
47073W        W20141  26.097  41.919  11.642
47074W        W20142  10.259  18.807  13.789
47075W        W20143  43.983  38.050   0.418
47076W        W20144  14.221  37.195   2.428
47077W        W20145  26.062  37.239   2.708
47078W        W20146  16.495  23.955  12.853
47079W        W20147  23.173  41.950   3.779
47080W        W20148  26.413   9.784   0.878
47081W        W20149  29.546  12.712  12.152
47082W        W20150  34.097  36.280   0.294
47083W        W20151  19.108  42.328   0.329
47084W        W20152   8.386  37.295   4.606
47085W        W20153  31.150  41.011   1.861
47086W        W20154  18.068  20.532   1.452
47087W        W20155   0.473  33.619   1.350
47088W        W20156  29.125  17.792   5.230
47089W        W20157  36.063  25.609  11.730
47090W        W20158  11.719  33.639  11.176
47091W        W20159  30.941  27.083   0.049
47092W        W20160  28.891  37.847   0.384
47093W        W20161  33.535  34.702   2.342
47094W        W20162   0.317  18.594   1.633
47095W        W20163   3.195   3.321   2.633
47096W        W20164  26.039  42.341  11.958
47097W        W20165  21.898  16.975   9.866
47098W        W20166  38.848  14.781  10.972
47099W        W20167  28.130   9.815   1.500
47100W        W20168   4.756  43.282   4.002
47101W        W20169  26.950  43.779   4.566
47102W        W20170  30.383  44.926   2.013
47103W        W20171   3.761   0.421   3.604
47104W        W20172  13.413  44.349  11.440
47105W        W20173  37.940  21.355   1.005
47106W        W20174   9.413   1.104   0.049
47107W        W20175   5.530  15.111   2.334
47108W        W20176  12.075  43.867  13.806
47109W        W20177  31.704  21.307  13.795
47110W        W20178   8.731  10.349   2.388
47111W        W20179  22.210  26.905  10.996
47112W        W20180   3.671  23.086  13.055
47113W        W20181   2.003  26.128   2.849
47114W        W20182  15.599   0.703   0.502
47115W        W20183  33.554  32.207   4.982
47116W        W20184  29.807  35.722  14.396
47117W        W20185   1.753  24.640   3.164
47118W        W20186  33.340  30.084  12.399
47119W        W20187  44.685   7.760   1.844
47120W        W20188  10.645  10.480   1.912
47121W        W20189  23.918  40.011  13.463
47122W        W20190   1.542  28.103   0.342
47123W        W20191   7.612  43.055   2.849
47124W        W20192  21.709  35.486   4.128
47125W        W20193  31.904  24.317   1.106
47126W        W20194  34.027  28.637  14.964
47127W        W20195  40.999  34.370   1.025
47128W        W20196  22.084  16.249  10.595
47129W        W20197  16.087  17.586  13.077
47130W        W20198  21.078   4.605   0.065
47131W        W20199  31.124   8.132   1.098
47132W        W20200  19.073  33.105  14.978
47133W        W20201  12.597  32.889   0.999
47134W        W20202  41.753   6.618  14.189
47135W        W20203   3.780  39.780  11.090
47136W        W20204  24.965  26.980  11.582
47137W        W20205   1.527  21.636  11.453
47138W        W20206  13.762   7.360  10.786
47139W        W20207  42.562   6.968   4.123
47140W        W20208  43.967   7.951  13.435
47141W        W20209  13.200  29.484   4.130
47142W        W20210  41.600  39.510  13.870
47143W        W20211  20.451  35.708   4.575
47144W        W20212  20.194  27.099   2.830
47145W        W20213  22.600  30.378  10.186
47146W        W20214  29.775   6.500   0.840
47147W        W20215  30.199  15.755   3.076
47148W        W20216   5.746  22.958  12.884
47149W        W20217  26.017  28.753   1.752
47150W        W20218  19.640  10.751  13.126
47151W        W20219  41.758  20.045   1.681
47152W        W20220  25.641  43.178   5.149
47153W        W20221   3.769  35.606  13.895
47154W        W20222  19.612  16.078   4.136
47155W        W20223   8.699  15.071  13.911
47156W        W20224  36.965  17.095   2.440
47157W        W20225   9.191   2.355   1.961
47158W        W20226  11.827  29.062  13.833
47159W        W20227  16.601  25.451   2.374
47160W        W20228  11.715   2.304   2.281
47161W        W20229  11.631  27.160  10.479
47162W        W20230   5.521  22.997  10.743
47163W        W20231  25.602   8.902   2.730
47164W        W20232  24.305  41.749  12.929
47165W        W20233   7.475   1.039   4.199
47166W        W20234  29.434  12.750  11.645
47167W        W20235  32.202  28.680   0.957
47168W        W20236  23.606  39.868   3.351
47169W        W20237   6.379  15.762   3.286
47170W        W20238  28.358  34.848   0.774
47171W        W20239  42.396   0.745   0.342
47172W        W20240  13.357   2.893  11.553
47173W        W20241  21.008  28.549   0.928
47174W        W20242   7.614  23.647   0.690
47175W        W20243  31.634   7.897   0.502
47176W        W20244  28.966  33.289   0.007
47177W        W20245  16.116   0.823   1.346
47178W        W20246  27.855   0.297   4.864
47179W        W20247  17.349   3.855   1.893
47180W        W20248  16.985  18.344   2.340
47181W        W20249  30.998  22.779  12.572
47182W        W20250  13.655  37.860  11.525
47183W        W20251  30.806  21.411  12.216
47184W        W20252   1.785  31.934   3.781
47185W        W20253  29.631  39.824  13.848
47186W        W20254  20.083  16.548  14.912
47187W        W20255  32.850   6.476  11.550
47188W        W20256  37.917  14.071  11.057
47189W        W20257  10.242  43.517   1.940
47190W        W20258   2.574  32.657  14.723
47191W        W20259  12.037  40.521  12.019
47192W        W20260  10.202  35.986   0.588
47193W        W20261  18.786  10.726  12.696
47194W        W20262  30.545  41.036   3.153
47195W        W20263   7.239  22.249  13.418
47196W        W20264  16.421   5.383   2.437
47197W        W20265  16.706  39.018   3.980
47198W        W20266   6.003  16.617  11.971
47199W        W20267  16.663  12.311   1.266
47200W        W20268  26.886  33.723  11.126
47201W        W20269  17.595  24.493   0.290
47202W        W20270  31.887  44.420  13.559
47203W        W20271   3.611  16.837  13.825
47204W        W20272  38.488  35.545   3.730
47205W        W20273   7.542  38.982  12.956
47206W        W20274  27.980  29.984  11.171
47207W        W20275   6.303  26.561   2.629
47208W        W20276  39.923  33.147  13.311
47209W        W20277  13.751  19.230  12.361
47210W        W20278  24.595   8.663  13.020
47211W        W20279   1.583  42.822  10.816
47212W        W20280   7.183   6.224   1.894
47213W        W20281  35.338  41.058   0.371
47214W        W20282  10.422  16.051   0.775
47215W        W20283  21.652  29.943  13.859
47216W        W20284  43.749  19.542  11.578
47217W        W20285  15.609  11.651   0.977
47218W        W20286   8.648  20.763  13.803
47219W        W20287  34.889  29.128   1.159
47220W        W20288  38.285  18.746  10.717
47221W        W20289   4.404  43.058   1.858
47222W        W20290   6.457  44.357  11.250
47223W        W20291   5.000   0.042   3.295
47224W        W20292  25.372  14.464  14.732
47225W        W20293  41.638  33.564  14.006
47226W        W20294   9.157   4.189   0.749
47227W        W20295  28.029  11.605   1.776
47228W        W20296  28.457   0.520  13.992
47229W        W20297   2.736   1.245   1.261
47230W        W20298  38.951   3.768  12.807
47231W        W20299  17.156  34.570   0.342
47232W        W20300  15.197  43.331   3.743
47233W        W20301  34.208  28.009   0.884
47234W        W20302   5.792  11.872  10.730
47235W        W20303  29.998  23.052  14.197
47236W        W20304  29.978  36.887  12.647
47237W        W20305  24.022  40.239   0.271
47238W        W20306  43.427   5.558   4.442
47239W        W20307  42.309  21.494  11.925
47240W        W20308  24.021  38.488  13.173
47241W        W20309   6.866  22.285  13.019
47242W        W20310  10.677  19.291  11.579
47243W        W20311  42.807  24.817  12.899
47244W        W20312  10.829   2.335  14.562
47245W        W20313   9.209  15.801   1.854
47246W        W20314  11.404  42.882  13.100
47247W        W20315  22.733  20.979   3.263
47248W        W20316  40.987  27.764  14.035
47249W        W20317  44.241  43.839  12.872
47250W        W20318  15.608  24.149  10.539
47251W        W20319  24.409  28.669   2.205
47252W        W20320  19.063   8.216   2.645
47253W        W20321  19.074  29.726   2.048
47254W        W20322  34.580  33.486  11.017
47255W        W20323  22.184  36.592  14.261
47256W        W20324  44.270   2.609   3.695
47257W        W20325  27.695  36.811   3.755
47258W        W20326  38.000  16.915   3.994
47259W        W20327   8.867  22.960  11.171
47260W        W20328  17.909  12.190  14.437
47261W        W20329  26.068  43.566  13.248
47262W        W20330  11.126  11.359  10.621
47263W        W20331   2.262  14.198   0.170
47264W        W20332  22.215  17.670   2.631
47265W        W20333   6.332   3.717   4.260
47266W        W20334  14.369  40.439  14.432
47267W        W20335  10.381   6.822   2.435
47268W        W20336   0.402   9.404   3.239
47269W        W20337  17.682  18.255  11.623
47270W        W20338  20.661  11.031  14.415
47271W        W20339   4.944   1.869  14.072
47272W        W20340  24.489  20.603   1.625
47273W        W20341  18.271  10.140  13.559
47274W        W20342  28.174  22.576   2.431
47275W        W20343  13.758  25.681  11.143
47276W        W20344  39.063   8.700  11.113
47277W        W20345   5.070   1.414  13.845
47278W        W20346  39.905   6.660   0.656
47279W        W20347  44.899  40.472  12.874
47280W        W20348  28.400  10.279  13.430
47281W        W20349  20.863  22.058  14.492
47282W        W20350   4.205  30.057  14.724
47283W        W20351  11.356  27.101   0.459
47284W        W20352  41.979  21.776   4.368
47285W        W20353  28.451  26.102   3.593
47286W        W20354  19.329  17.582  11.130
47287W        W20355   8.637   0.312  11.154
47288W        W20356  42.780  29.178   3.368
47289W        W20357  24.116  22.968  12.171
47290W        W20358   5.224  36.570  12.853
47291W        W20359  11.685   7.686  13.713
47292W        W20360   9.407   1.152   4.105
47293W        W20361   3.920  23.768  10.236
47294W        W20362  44.095   7.146   2.590
47295W        W20363  40.347   4.389   2.143
47296W        W20364  28.009  26.003   1.680
47297W        W20365  24.279  41.090   3.498
47298W        W20366  21.477  17.924  13.107
47299W        W20367   9.902   4.614   3.581
47300W        W20368   1.577  28.877   1.381
47301W        W20369   2.130  39.388   0.855
47302W        W20370  37.643  14.083   3.847
47303W        W20371   0.231  18.629   3.459
47304W        W20372   7.759  28.788  13.643
47305W        W20373  11.158  15.214   2.308
47306W        W20374  27.565  35.859  14.130
47307W        W20375  23.553  15.298   2.287
47308W        W20376  44.429  41.379  10.761
47309W        W20377  10.660  35.941  10.881
47310W        W20378  14.788  28.122  12.937
47311W        W20379   2.979  32.345  14.789
47312W        W20380  35.069   6.485  11.291
47313W        W20381  25.133  38.390   0.938
47314W        W20382   3.416   1.996   2.889
47315W        W20383   9.450  31.548  12.116
47316W        W20384  31.042  28.914  10.610
47317W        W20385  22.684  16.661  14.793
47318W        W20386  30.671   2.351  13.919
47319W        W20387  19.296  29.942   0.783
47320W        W20388   7.256  11.764  11.675
47321W        W20389  43.082  30.912  12.728
47322W        W20390  36.103  42.843   2.720
47323W        W20391  35.386   0.868   0.914
47324W        W20392  39.860  12.236   4.055
47325W        W20393  31.665  28.682   1.874
47326W        W20394   0.329  26.053  13.344
47327W        W20395  44.401  11.148  13.829
47328W        W20396  12.328  43.327   2.173
47329W        W20397  20.979   0.397   1.930
47330W        W20398  44.226  13.193  11.965
47331W        W20399   8.662  43.939   4.492
47332W        W20400   7.298  31.130  14.363
47333W        W20401  35.924  31.557  12.550
47334W        W20402   6.654  42.955  11.594
47335W        W20403  30.029  14.530  10.610
47336W        W20404  35.924  24.668  11.142
47337W        W20405   4.523  37.532  12.642
47338W        W20406  20.961  42.368  12.072
47339W        W20407  37.558  16.279   0.524
47340W        W20408  43.065   2.070   9.928
47341W        W20409  31.452  43.802  13.758
47342W        W20410  28.183  28.039  10.985
47343W        W20411  42.804   0.339  14.263
47344W        W20412  42.928  21.706  12.431
47345W        W20413  39.300  12.805   2.450
47346W        W20414  29.985  11.368  13.119
47347W        W20415  40.596  18.292   1.755
47348W        W20416  34.005  19.689  11.863
47349W        W20417  26.130  41.310   0.223
47350W        W20418  13.204  36.885   3.278
47351W        W20419   3.885  32.455  13.019
47352W        W20420   6.500  42.371   3.637
47353W        W20421   2.241   4.001  13.006
47354W        W20422   8.090  34.394   4.210
47355W        W20423  43.717  24.080   2.035
47356W        W20424  24.532  15.576  13.784
47357W        W20425   9.922  13.329   2.326
47358W        W20426  27.966  37.269  11.221
47359W        W20427  43.156   0.245   3.671
47360W        W20428  12.968  25.635  13.839
47361W        W20429   7.708  28.293   2.327
47362W        W20430  32.313  35.049   1.497
47363W        W20431  11.297  25.125  13.886
47364W        W20432  10.184  18.610  11.600
47365W        W20433   6.159  16.813  12.465
47366W        W20434   4.204  41.848   4.635
47367W        W20435  30.815  12.266   2.664
47368W        W20436  12.443  13.615  14.602
47369W        W20437  31.114  10.388  14.877
47370W        W20438  32.108  30.124   4.361
47371W        W20439  36.634   9.886  14.534
47372W        W20440   3.768  27.332  13.937
47373W        W20441  44.474  22.796  12.832
47374W        W20442  25.636  13.705  13.125
47375W        W20443  41.560  23.710  13.479
47376W        W20444  43.196  39.001   4.565
47377W        W20445  39.916   1.533   0.439
47378W        W20446  40.449   8.190   3.718
47379W        W20447  36.668  26.718   0.918
47380W        W20448   0.758  37.448  12.564
47381W        W20449  16.258  21.331   4.172
47382W        W20450  22.145  41.956  11.508
47383W        W20451  24.560  23.735   4.089
47384W        W20452  40.455  18.024  11.600
47385W        W20453   0.872   8.311   0.545
47386W        W20454  23.652  44.060   2.413
47387W        W20455  42.900  40.329   4.669
47388W        W20456   3.253  35.052  14.404
47389W        W20457  13.852  31.188  11.572
47390W        W20458  16.188  23.622   2.258
47391W        W20459  16.488  15.634  10.680
47392W        W20460  43.532  44.252   2.905
47393W        W20461  29.035  11.504  13.379
47394W        W20462  34.633   4.238   0.388
47395W        W20463  20.300  34.602   0.779
47396W        W20464  21.295  20.171  10.699
47397W        W20465  25.248  28.616  14.023
47398W        W20466   4.964  10.805   3.214
47399W        W20467  17.312  24.590  13.416
47400W        W20468  35.833  18.301   0.314
47401W        W20469   2.750   9.456  11.054
47402W        W20470  30.928   0.417   2.623
47403W        W20471  40.808  26.489  11.495
47404W        W20472  16.139   9.301  12.950
47405W        W20473   8.230  28.735  13.873
47406W        W20474  16.758  27.187  11.471
47407W        W20475   1.658   1.281  10.640
47408W        W20476   3.850   7.268   1.483
47409W        W20477   4.863  26.008   1.484
47410W        W20478  35.411  15.292   4.297
47411W        W20479   0.805   6.353   3.369
47412W        W20480  17.048  17.588   4.189
47413W        W20481  30.549   6.757  14.912
47414W        W20482  35.098  22.110   3.721
47415W        W20483  27.658  29.561   0.058
47416W        W20484  15.368  31.034   1.236
47417W        W20485  14.801  39.480   0.014
47418W        W20486  16.737  36.294   4.050
47419W        W20487  10.373  39.480   3.331
47420W        W20488  26.811  30.196   0.182
47421W        W20489   4.181  44.959   2.348
47422W        W20490  14.788  17.017   3.646
47423W        W20491  27.109  21.138  14.974
47424W        W20492  27.364  28.083  10.688
47425W        W20493  31.461   6.877   1.821
47426W        W20494   2.220   5.636  14.233
47427W        W20495   0.211  12.777   1.448
47428W        W20496  35.447  44.908   0.509
47429W        W20497  44.719  34.587  10.761
47430W        W20498  12.225  27.939   2.274
47431W        W20499  35.295  44.370   3.286
47432W        W20500   9.107  14.333  13.357
47433W        W20501   3.712  14.298   2.163
47434W        W20502  14.070  39.200   0.659
47435W        W20503  21.615  37.968  14.337
47436W        W20504  29.449  38.043  10.718
47437W        W20505   0.010  28.025   1.699
47438W        W20506  34.997  43.012  11.430
47439W        W20507  23.812  21.689  11.162
47440W        W20508  21.033  33.977  11.093
47441W        W20509  11.128  20.292  12.314
47442W        W20510  17.004  28.597   2.512
47443W        W20511   5.819  31.457   0.431
47444W        W20512  39.687  14.887  12.681
47445W        W20513  25.529  18.331  12.001
47446W        W20514  39.184   2.053   5.469
47447W        W20515  20.132   5.967  11.531
47448W        W20516  36.571  36.313   2.232
47449W        W20517  16.128  31.129   1.842
47450W        W20518  39.586  33.048   2.703
47451W        W20519  36.063  37.902  12.028
47452W        W20520   1.337  23.719   0.668
47453W        W20521  20.054  30.390  14.398
47454W        W20522   8.987   3.469  11.483
47455W        W20523   2.501  43.070  11.931
47456W        W20524  21.980  33.406   1.733
47457W        W20525  33.173  12.069   4.814
47458W        W20526  16.833  32.138   2.390
47459W        W20527  38.915  18.130  11.686
47460W        W20528  14.725  25.833   3.201
47461W        W20529  32.561  27.674   2.778
47462W        W20530   7.392  37.932   3.357
47463W        W20531  22.142  36.198  13.919
47464W        W20532  14.243   7.203  10.447
47465W        W20533  29.699  33.604  13.481
47466W        W20534  17.120  44.799  13.426
47467W        W20535   8.813  41.264   2.652
47468W        W20536  20.207  11.824   0.863
47469W        W20537   4.760  14.123  12.950
47470W        W20538  29.443  19.529  13.978
47471W        W20539  27.957   4.365   4.160
47472W        W20540  19.263  12.187   3.766
47473W        W20541  19.052  40.003   3.880
47474W        W20542  41.834  42.592  14.383
47475W        W20543  26.061  37.335   3.809
47476W        W20544  10.842  32.449  12.495
47477W        W20545  44.465  15.415   2.406
47478W        W20546  41.788  38.530  11.381
47479W        W20547  44.497  12.065  14.593
47480W        W20548  10.387  19.276  12.911
47481W        W20549  32.698   0.701   2.404
47482W        W20550  32.377  44.320   4.687
47483W        W20551  33.589  42.351   0.311
47484W        W20552  41.342  17.777   1.986
47485W        W20553  38.827  29.269   3.209
47486W        W20554   7.190  23.917   3.863
47487W        W20555  34.264   8.443  13.921
47488W        W20556  31.452   9.275   0.533
47489W        W20557  24.059   6.679  14.273
47490W        W20558  17.153  34.066   0.268
47491W        W20559  20.700  21.309   1.702
47492W        W20560   6.830  12.949  11.633
47493W        W20561  17.169  14.588  10.685
47494W        W20562   9.174  16.169  13.314
47495W        W20563  20.250  37.677   1.358
47496W        W20564  19.744  38.515   2.713
47497W        W20565   9.170   8.391   2.714
47498W        W20566  27.946   3.380  14.494
47499W        W20567   4.692   2.479  13.386
47500W        W20568  29.978  21.321   3.268
47501W        W20569   8.238  41.963  13.473
47502W        W20570  17.556  30.771  14.336
47503W        W20571  41.804  29.503   4.014
47504W        W20572  26.229  22.513   0.388
47505W        W20573  13.817  41.176   2.804
47506W        W20574   5.880  27.485  11.492
47507W        W20575   1.013  42.112   4.983
47508W        W20576  30.096  16.491   4.595
47509W        W20577   7.359   4.694   1.353
47510W        W20578  30.069  19.501  11.923
47511W        W20579  43.913  14.619   5.037
47512W        W20580  18.666  26.488   2.195
47513W        W20581  22.535  19.293   2.214
47514W        W20582  30.606  42.968   0.958
47515W        W20583  12.059  39.131  12.019
47516W        W20584  17.089  39.817  12.045
47517W        W20585  21.069  31.056   1.882
47518W        W20586  39.538  21.565  10.404
47519W        W20587  35.893  13.580  14.768
47520W        W20588  41.737  41.792   3.271
47521W        W20589  38.183  24.976  13.398
47522W        W20590   3.523  36.062  11.550
47523W        W20591  42.461  39.805   2.239
47524W        W20592  40.322  13.729   9.963
47525W        W20593  35.321   5.918  13.397
47526W        W20594  14.009  20.724   2.669
47527W        W20595  26.415   1.333  14.894
47528W        W20596  40.896   6.409  10.645
47529W        W20597  22.104  30.392  12.469
47530W        W20598   5.317  17.726  11.663
47531W        W20599  42.524   9.996   3.674
47532W        W20600  28.736   1.613   0.843
47533W        W20601  23.201  21.159   1.661
47534W        W20602  22.932  12.802   3.610
47535W        W20603  36.149  25.235   0.207
47536W        W20604  21.861  22.682   0.265
47537W        W20605   0.140  17.741   3.726
47538W        W20606   3.686  18.281   3.339
47539W        W20607  22.960  42.852   2.385
47540W        W20608  29.097  37.146  14.746
47541W        W20609   9.207   9.607   0.668
47542W        W20610  29.564  42.395   0.669
47543W        W20611   2.578  12.209   1.516
47544W        W20612  31.997  43.859  10.258
47545W        W20613  33.074  42.481   3.802
47546W        W20614   7.596  38.340   1.600
47547W        W20615  13.478  32.929  11.759
47548W        W20616  14.010  34.939   5.040
47549W        W20617   7.981   7.821   1.369
47550W        W20618  18.251  23.938   4.255
47551W        W20619  17.094  42.208   1.936
47552W        W20620  21.207   0.405  12.848
47553W        W20621  11.014  21.642  13.390
47554W        W20622  13.694   1.715   2.343
47555W        W20623  22.638   4.004   4.792
47556W        W20624  29.909  44.223  11.130
47557W        W20625  32.942  21.285  12.498
47558W        W20626   2.113  21.427  10.695
47559W        W20627   9.401  14.540   4.236
47560W        W20628  10.889  34.606   4.541
47561W        W20629  33.454  27.430  14.968
47562W        W20630  38.857  32.072   0.455
47563W        W20631  17.804  24.693   3.149
47564W        W20632  40.897  11.181  14.790
47565W        W20633  36.415   9.406   4.087
47566W        W20634   7.369  44.537  11.996
47567W        W20635  40.557  37.127   3.628
47568W        W20636  29.061  27.878   1.006
47569W        W20637  28.918   9.543   4.529
47570W        W20638   3.084  10.133   0.948
47571W        W20639  18.793  38.949  12.929
47572W        W20640  42.496   4.164  11.676
47573W        W20641  42.992  28.544  11.512
47574W        W20642   6.012   3.857  10.723
47575W        W20643  27.882  33.029  12.623
47576W        W20644  42.398  33.536   2.561
47577W        W20645  11.445  32.811  10.581
47578W        W20646  26.965  41.318  12.512
47579W        W20647  19.575   9.383   2.362
47580W        W20648  32.816  38.856   0.863
47581W        W20649  12.822  40.297  13.444
47582W        W20650  37.791  40.914   2.648
47583W        W20651  22.724  21.968  14.264
47584W        W20652  44.303  11.793  13.437
47585W        W20653  40.781  16.184   3.237
47586W        W20654  26.039  10.510   3.702
47587W        W20655  16.845  19.501   4.903
47588W        W20656  25.965  20.698  11.635
47589W        W20657   0.729  10.177  11.833
47590W        W20658   9.291  44.636   3.028
47591W        W20659  43.753  25.693  14.675
47592W        W20660  12.796   8.407  14.454
47593W        W20661   1.700   4.336   3.163
47594W        W20662  22.786  35.360   0.936
47595W        W20663  27.034  38.986   3.729
47596W        W20664   1.778  20.015  14.525
47597W        W20665  33.249  43.463  11.279
47598W        W20666   7.610  17.984  12.066
47599W        W20667   7.347  40.347   9.964
47600W        W20668  38.559  27.634  12.061
47601W        W20669  41.434  12.672  13.780
47602W        W20670  35.450  17.818  14.296
47603W        W20671  34.371   3.237   3.250
47604W        W20672   4.005  29.082   2.843
47605W        W20673  36.970  23.039   2.835
47606W        W20674   5.481  43.484   3.612
47607W        W20675   0.603  18.979   1.820
47608W        W20676  23.359   0.276   5.516
47609W        W20677  30.105  29.981   0.211
47610W        W20678  34.381  30.675  14.332
47611W        W20679  11.018   8.535   1.391
47612W        W20680  26.921  36.811   3.095
47613W        W20681   9.297  20.204   4.687
47614W        W20682  18.171  23.061  14.006
47615W        W20683  40.113  40.470   2.621
47616W        W20684   6.197  38.761  10.989
47617W        W20685  34.137  19.514   1.950
47618W        W20686  40.602  15.164  11.664
47619W        W20687  12.634   1.321  11.489
47620W        W20688  28.895  20.289  14.848
47621W        W20689  32.458  42.701  12.450
47622W        W20690  29.853  14.221   0.746
47623W        W20691  40.879  18.343  12.595
47624W        W20692  11.125  32.617  14.186
47625W        W20693  11.083  15.767  11.397
47626W        W20694  35.027  16.171  12.878
47627W        W20695  24.644   2.340   3.666
47628W        W20696  42.112  39.996   4.070
47629W        W20697   8.763  30.588  14.878
47630W        W20698  13.680  29.958  12.230
47631W        W20699  44.196  18.218  14.499
47632W        W20700  37.988   1.900  10.914
47633W        W20701  12.233  26.446   2.292
47634W        W20702  34.632  15.258   0.347
47635W        W20703  28.160  20.813   1.014
47636W        W20704  35.635  42.541  11.135
47637W        W20705  24.140  34.149   2.254
47638W        W20706  28.096  12.114   2.844
47639W        W20707   6.259   9.058   5.014
47640W        W20708  43.383  39.509   4.559
47641W        W20709  27.558  13.240   4.700
47642W        W20710  30.929  42.935   5.097
47643W        W20711   7.486  20.671   2.934
47644W        W20712  35.463  23.712  11.198
47645W        W20713  20.972  22.013   3.314
47646W        W20714  17.768  11.111  10.752
47647W        W20715   0.005  15.324   0.087
47648W        W20716  38.092  28.742   1.549
47649W        W20717  22.687  29.333   1.240
47650W        W20718  26.616  31.967  14.907
47651W        W20719  32.450  44.872   0.405
47652W        W20720  41.375  39.473  13.395
47653W        W20721  31.565  23.209   3.287
47654W        W20722  26.916   8.435   2.757
47655W        W20723  39.224  44.490  13.857
47656W        W20724  26.997  15.127   3.132
47657W        W20725  36.798   0.426   0.854
47658W        W20726  24.227  32.507   4.878
47659W        W20727   7.860   5.752  13.816
47660W        W20728  24.681  40.918   1.999
47661W        W20729  38.379  15.894   3.218
47662W        W20730  29.177  34.915   4.132
47663W        W20731  33.604  25.507  12.052
47664W        W20732  16.836  23.437   3.237
47665W        W20733  18.835   8.690   1.823
47666W        W20734   7.870  24.885   1.788
47667W        W20735  21.212   4.022   3.250
47668W        W20736  22.189  38.058  14.683
47669W        W20737  32.842  35.022  13.756
47670W        W20738  24.580  30.964   2.614
47671W        W20739  27.196  19.471  13.299
47672W        W20740  41.431   9.988   2.650
47673W        W20741   4.782  19.105   3.261
47674W        W20742  12.005  41.877   1.721
47675W        W20743  28.908   8.703   1.663
47676W        W20744  20.335  28.077   3.406
47677W        W20745  40.803  10.414  10.750
47678W        W20746  38.745   0.384   4.242
47679W        W20747  28.703  22.498  11.152
47680W        W20748  39.893  35.670   0.823
47681W        W20749  25.565  13.435   1.825
47682W        W20750  33.910  10.021   1.197
47683W        W20751   9.203   3.271   0.310
47684W        W20752  30.075  18.249  10.727
47685W        W20753  33.544   9.701   2.287
47686W        W20754  43.085  16.086  10.703
47687W        W20755  33.023  17.524  14.894
47688W        W20756  25.398  10.684   0.899
47689W        W20757  22.154   0.837  13.444
47690W        W20758   5.078  21.262   3.684
47691W        W20759  41.968  12.774   2.310
47692W        W20760   7.317  21.193   1.111
47693W        W20761  36.427  15.861  11.625
47694W        W20762  25.626  24.665   4.585
47695W        W20763  17.757  14.007  14.693
47696W        W20764  35.075  26.248   2.084
47697W        W20765  37.840  37.465   1.827
47698W        W20766  11.785  29.163  10.336
47699W        W20767  44.907   9.741  12.435
47700W        W20768   4.961  10.641   1.376
47701W        W20769   0.847  36.938   3.772
47702W        W20770  21.294   1.933   1.808
47703W        W20771  44.489  38.567  13.739
47704W        W20772   7.828  14.441  12.853
47705W        W20773  29.120  11.372   4.341
47706W        W20774  39.888  22.068   1.422
47707W        W20775  34.791  10.651   4.637
47708W        W20776  26.681  42.275  13.356
47709W        W20777   1.222   6.317  13.942
47710W        W20778  11.573   8.930  12.501
47711W        W20779   2.274  24.738   3.257
47712W        W20780  39.861   4.853  13.462
47713W        W20781  14.769  21.917   3.079
47714W        W20782  29.959  12.269  13.606
47715W        W20783  11.207  19.298   4.975
47716W        W20784   8.882  25.657   3.719
47717W        W20785  28.643  38.931   0.919
47718W        W20786  39.552  20.092  14.992
47719W        W20787  31.595  36.061   3.155
47720W        W20788  15.103  35.358  10.744
47721W        W20789   2.221  12.075   1.165
47722W        W20790  19.207  14.708  11.569
47723W        W20791  33.601  23.096  14.579
47724W        W20792  24.700  31.155  13.549
47725W        W20793  36.885  30.965   2.757
47726W        W20794  44.927   9.114  10.930
47727W        W20795  12.932  30.552   1.910
47728W        W20796   8.822  17.069  13.546
47729W        W20797  42.709  44.744   0.875
47730W        W20798  41.386  31.553   4.661
47731W        W20799  15.276  18.399   2.676
47732W        W20800  23.883   8.763  11.989
47733W        W20801  27.690  21.199   4.635
47734W        W20802  20.670  21.235  11.318
47735W        W20803   6.787  44.677  13.128
47736W        W20804  15.282  20.533   0.359
47737W        W20805   7.191  26.577   3.705
47738W        W20806  43.980  24.500   1.214
47739W        W20807  29.575  41.758  13.550
47740W        W20808  23.105   4.861   3.055
47741W        W20809  39.005  22.775   2.631
47742W        W20810  42.513   6.875  12.634
47743W        W20811  13.096  13.735   3.203
47744W        W20812  39.732  26.963  11.084
47745W        W20813  32.534  25.981  14.329
47746W        W20814  39.232   8.406  14.961
47747W        W20815  36.133  13.365  10.411
47748W        W20816  17.080  31.608   4.925
47749W        W20817  16.864  39.856   0.261
47750W        W20818  16.778  41.211  13.583
47751W        W20819  12.165   4.243   1.711
47752W        W20820  16.427  30.666  12.594
47753W        W20821  16.743  34.378  10.622
47754W        W20822  12.020  39.637   4.275
47755W        W20823  22.117  14.918  14.028
47756W        W20824  32.501  44.298  14.166
47757W        W20825   1.338  18.250   3.286
47758W        W20826  21.432  24.767   1.410
47759W        W20827   9.053  23.183  12.412
47760W        W20828   0.201  37.621   0.811
47761W        W20829  38.963  21.585   3.289
47762W        W20830  16.749   9.254  12.103
47763W        W20831  19.943  12.110   0.470
47764W        W20832   9.355  20.789  14.885
47765W        W20833   1.934  11.399   4.913
47766W        W20834  22.953   5.365   4.680
47767W        W20835  33.250  22.122  12.640
47768W        W20836  39.552   1.982  14.325
47769W        W20837   3.512  23.566  13.468
47770W        W20838  32.503  20.180   4.288
47771W        W20839   8.924  28.768   2.385
47772W        W20840  20.401  22.113  11.694
47773W        W20841  22.482  14.014   4.236
47774W        W20842  22.658  40.988   0.740
47775W        W20843   4.857  13.645   2.143
47776W        W20844  44.868  42.981  11.039
47777W        W20845  26.585  11.392   0.538
47778W        W20846  26.092  41.000   2.239
47779W        W20847  33.592   7.867   4.507
47780W        W20848   3.127  28.066   2.269
47781W        W20849  15.327  32.703   1.461
47782W        W20850  18.260  35.843  10.691
47783W        W20851  14.728  41.602  10.763
47784W        W20852   0.731  21.766  11.062
47785W        W20853  33.776  15.170  11.532
47786W        W20854  30.015  35.951   4.919
47787W        W20855  44.428   8.861   3.137
47788W        W20856  14.876  13.222  13.007
47789W        W20857  39.512  28.753  11.536
47790W        W20858   5.614  31.046  14.839
47791W        W20859  26.266  16.636  12.076
47792W        W20860  11.937  27.817   0.356
47793W        W20861  11.846  43.407   4.314
47794W        W20862  15.299  16.135   0.122
47795W        W20863  23.579  22.354   0.479
47796W        W20864  39.457   1.675   9.784
47797W        W20865  12.877  12.677   4.789
47798W        W20866  38.039  19.603  12.216
47799W        W20867  16.342  41.395   0.760
47800W        W20868  42.061  31.062  12.500
47801W        W20869  42.824  27.403  12.130
47802W        W20870  41.509  23.572   3.279
47803W        W20871   8.627  13.756  12.492
47804W        W20872  40.172   5.170  13.767
47805W        W20873   5.193  44.800  11.605
47806W        W20874  34.437  11.083  12.069
47807W        W20875  34.856  12.124   4.540
47808W        W20876   5.011  19.111   0.421
47809W        W20877   9.230  29.865  10.666
47810W        W20878  35.523   6.980  10.674
47811W        W20879   4.392  42.857   3.381
47812W        W20880  17.563  21.343  13.395
47813W        W20881  39.322  18.234   0.430
47814W        W20882  21.422  23.322  12.987
47815W        W20883  32.806  15.623  14.705
47816W        W20884   4.930  42.435  11.908
47817W        W20885  19.001   5.215  10.717
47818W        W20886  16.986   1.931   0.936
47819W        W20887  18.173  18.549   0.911
47820W        W20888   5.033  31.021   2.910
47821W        W20889  10.935  13.173  12.822
47822W        W20890   0.342  26.896  13.325
47823W        W20891   8.695  33.460   4.481
47824W        W20892   3.972  18.059  13.430
47825W        W20893   9.140  44.257  12.535
47826W        W20894  11.204  16.731  11.450
47827W        W20895  22.108  40.994  12.555
47828W        W20896   1.036   8.308  12.610
47829W        W20897  22.595  14.762   3.760
47830W        W20898  11.938  30.238  11.441
47831W        W20899  25.871   7.877  10.677
47832W        W20900  35.844  13.462  13.448
47833W        W20901  44.241   4.236  11.128
47834W        W20902  37.115   9.049   4.275
47835W        W20903  15.910  23.819   0.878
47836W        W20904   8.557  30.937  11.010
47837W        W20905  18.451  12.786   1.861
47838W        W20906   2.443  25.391   2.350
47839W        W20907   6.262  18.458  14.315
47840W        W20908  18.566   5.755   1.354
47841W        W20909   4.022  26.252   0.224
47842W        W20910  36.068  26.214  14.381
47843W        W20911  34.382   2.668   4.718
47844W        W20912   6.281  29.927  12.479
47845W        W20913  38.094  19.198  12.932
47846W        W20914  19.936  20.715   1.171
47847W        W20915  34.682  36.388   4.646
47848W        W20916  20.094  38.304  10.737
47849W        W20917  37.896  10.023   3.294
47850W        W20918  25.949  10.541   0.193
47851W        W20919  15.067  15.680   1.275
47852W        W20920   1.801  43.761   3.377
47853W        W20921  43.289  22.100  11.010
47854W        W20922  18.231  15.864  14.935
47855W        W20923  40.133  43.973  14.918
47856W        W20924  42.706   0.333  13.331
47857W        W20925   3.896  36.669  14.554
47858W        W20926  31.444   8.435   4.942
47859W        W20927  36.438  38.978  13.091
47860W        W20928  11.604   0.718  14.448
47861W        W20929   8.463  44.567   3.260
47862W        W20930  16.964  16.329  14.513
47863W        W20931  11.648  33.701   2.341
47864W        W20932  33.532  41.586   3.813
47865W        W20933  43.472  23.603  12.039
47866W        W20934  32.790  40.256  10.137
47867W        W20935  19.019   6.275   3.938
47868W        W20936  12.582  21.328  14.417
47869W        W20937  23.599  42.754  12.509
47870W        W20938  24.547  34.953   0.692
47871W        W20939   4.310  19.454   1.735
47872W        W20940   3.566  19.561  14.425
47873W        W20941  10.302   9.469  13.560
47874W        W20942  26.698  44.956   4.594
47875W        W20943   2.968  28.174  12.528
47876W        W20944   4.122  32.611  12.210
47877W        W20945  34.678   9.685  14.005
47878W        W20946  21.237   9.735  12.559
47879W        W20947  40.500  29.310  11.508
47880W        W20948   2.232  17.730  13.370
47881W        W20949  17.615   4.889   4.703
47882W        W20950  44.684  24.196  14.934
47883W        W20951  26.820  33.875   1.167
47884W        W20952   6.531   3.040  11.537
47885W        W20953  27.081  19.621  14.593
47886W        W20954  33.663   5.433  12.553
47887W        W20955  42.778  40.935  11.084
47888W        W20956  16.116  42.689   1.915
47889W        W20957  24.490   4.769  14.439
47890W        W20958  30.872   8.427  14.545
47891W        W20959  43.966  15.070   4.724
47892W        W20960  22.743  41.990   4.081
47893W        W20961   1.036   1.232  12.116
47894W        W20962   4.281   8.808  13.493
47895W        W20963  28.415  14.018   0.457
47896W        W20964  15.748  13.144   2.785
47897W        W20965  17.690   8.810   1.772
47898W        W20966  28.639  29.229   0.805
47899W        W20967  11.888   1.894  14.937
47900W        W20968   1.081  16.892   4.213
47901W        W20969  22.718  21.560   1.021
47902W        W20970  13.345  44.085   1.838
47903W        W20971   3.341  13.699  10.800
47904W        W20972   5.159   7.310   4.582
47905W        W20973   7.743  31.884  12.544
47906W        W20974  29.933  42.867  11.448
47907W        W20975  30.708  33.062   0.322
47908W        W20976  35.997  19.282  11.505
47909W        W20977  42.078  39.890   4.587
47910W        W20978  38.800  14.787  10.470
47911W        W20979  31.859   0.940   1.002
47912W        W20980   7.718  11.074  13.014
47913W        W20981  28.481  32.860   4.724
47914W        W20982   6.200   7.129  10.928
47915W        W20983   4.399  42.382  10.677
47916W        W20984  23.152  33.393   1.598
47917W        W20985  29.439   9.958  11.429
47918W        W20986  24.028   7.209  14.383
47919W        W20987  37.338  22.439   1.170
47920W        W20988  32.981   9.130   2.773
47921W        W20989  23.247  29.404  11.581
47922W        W20990  32.032  18.235   2.933
47923W        W20991  20.189  11.732  13.797
47924W        W20992  26.859  32.951  12.531
47925W        W20993  40.978   8.896  12.471
47926W        W20994  40.824  32.920   4.660
47927W        W20995   8.211  30.524  13.471
47928W        W20996  39.945  18.116  11.550
47929W        W20997  10.919  39.221   1.854
47930W        W20998  10.286  12.301  11.632
47931W        W20999  37.948  37.831   4.895
47932W        W21000   7.767  14.643   2.135
47933W        W21001  39.509  44.723  12.570
47934W        W21002  42.885   3.815   0.259
47935W        W21003  28.459  28.854   0.428
47936W        W21004   1.465   2.682  12.974
47937W        W21005  27.578  43.735   2.946
47938W        W21006  15.406  16.450   0.956
47939W        W21007  39.746  15.037   3.630
47940W        W21008  42.317  27.630  14.456
47941W        W21009  35.362   4.805   5.137
47942W        W21010  28.912   7.468   1.971
47943W        W21011  36.289  18.601   2.850
47944W        W21012  10.082  23.772   2.439
47945W        W21013  27.359  28.682  14.834
47946W        W21014  19.641  32.875  14.821
47947W        W21015  42.620   5.804  14.420
47948W        W21016  12.372  30.363   4.105
47949W        W21017  25.559   4.437  13.107
47950W        W21018  36.264  33.620   1.618
47951W        W21019   1.880  35.810   0.461
47952W        W21020   8.629  37.144  13.411
47953W        W21021  37.324   4.767  14.977
47954W        W21022  19.669   2.931  14.397
47955W        W21023  41.983   3.153  11.610
47956W        W21024  19.534   4.898   5.075
47957W        W21025  34.696  13.121  14.109
47958W        W21026  19.926  12.618  14.291
47959W        W21027   4.470   8.305  11.479
47960W        W21028  28.610  30.051  12.911
47961W        W21029  29.843  20.464  11.007
47962W        W21030  40.971  16.445  14.882
47963W        W21031   8.753   9.471  11.045
47964W        W21032  20.310  39.178  14.371
47965W        W21033   5.006  21.282   2.373
47966W        W21034   7.130  27.035  14.349
47967W        W21035  26.935  34.945   1.822
47968W        W21036  33.383   4.432  12.539
47969W        W21037   7.219   2.123   1.158
47970W        W21038  18.516  22.956  13.607
47971W        W21039   8.136  41.966  14.032
47972W        W21040   6.422  36.538  14.864
47973W        W21041   3.217  12.097   3.780
47974W        W21042   1.344   1.910   3.235
47975W        W21043  12.377   2.227   0.810
47976W        W21044   2.631  14.000   1.968
47977W        W21045   3.168  41.806  13.865
47978W        W21046   1.172  28.171   4.209
47979W        W21047  42.464   1.292   3.733
47980W        W21048  34.008  27.580  12.158
47981W        W21049  26.958   6.675   2.091
47982W        W21050   7.208  14.283  12.039
47983W        W21051  12.639  44.365   1.772
47984W        W21052  35.549  21.192  14.576
47985W        W21053  30.249  11.477   0.388
47986W        W21054  26.412  16.635  13.513
47987W        W21055  11.706   4.701  13.884
47988W        W21056  27.032  12.789   5.370
47989W        W21057  21.421  34.569  13.450
47990W        W21058  33.393  31.829  14.933
47991W        W21059  27.946   2.050   0.224
47992W        W21060  23.563  31.574  13.553
47993W        W21061  13.850   4.465  13.950
47994W        W21062   5.467  30.740  10.725
47995W        W21063  15.132   4.821   2.179
47996W        W21064  15.399  15.045  11.642
47997W        W21065  40.588  44.970   2.813
47998W        W21066  17.107   8.939  12.925
47999W        W21067  24.600  43.969   0.742
48000W        W21068   7.686  18.219   4.544
48001W        W21069   6.825   3.231   3.552
48002W        W21070  33.572  23.901  10.619
48003W        W21071  22.790  25.062   0.495
48004W        W21072  33.784   2.877  14.226
48005W        W21073  11.369  36.913   3.161
48006W        W21074  23.672  10.655   0.764
48007W        W21075  22.723  15.913  10.809
48008W        W21076   2.599  10.292   3.217
48009W        W21077  19.141  34.460  10.582
48010W        W21078  29.841  35.079  13.939
48011W        W21079   7.222  29.163  14.239
48012W        W21080  35.608   7.885   0.808
48013W        W21081  31.134  40.847   2.442
48014W        W21082  33.485  36.213   0.729
48015W        W21083  13.300   3.332   2.201
48016W        W21084  12.576  15.730  14.469
48017W        W21085  13.594  28.135   2.954
48018W        W21086  38.520  40.284   3.996
48019W        W21087  24.773  24.554   2.357
48020W        W21088  25.751   9.373  12.965
48021W        W21089   8.714  12.931   3.103
48022W        W21090  18.924   6.331  14.390
48023W        W21091  37.366  20.097   0.341
48024W        W21092  33.997  40.029  14.518
48025W        W21093  27.027   7.815   0.502
48026W        W21094   2.777  40.612   4.393
48027W        W21095  27.126   8.684  14.397
48028W        W21096  16.583   0.253   2.743
48029W        W21097  10.465  12.657  11.130
48030W        W21098   9.161  25.081  12.455
48031W        W21099   2.780  42.452   0.982
48032W        W21100  34.530  15.903  14.507
48033W        W21101  44.782  11.810   1.331
48034W        W21102   0.599  28.884  11.970
48035W        W21103  23.520  14.723   4.622
48036W        W21104  43.226   0.375  13.340
48037W        W21105  36.577  21.748   4.297
48038W        W21106  10.093  35.124  14.814
48039W        W21107  12.736  10.156   1.429
48040W        W21108  19.635  14.032  12.904
48041W        W21109   7.703  19.710   3.331
48042W        W21110  36.887  16.304   1.841
48043W        W21111  28.518  34.695  13.883
48044W        W21112  12.814   6.527   1.797
48045W        W21113  39.848  40.983   0.978
48046W        W21114  20.114  31.613  14.401
48047W        W21115  23.394   6.397  14.916
48048W        W21116  42.160  26.417   3.523
48049W        W21117  21.028   3.484  11.355
48050W        W21118  43.627  41.096  12.981
48051W        W21119  23.156  29.138  11.148
48052W        W21120  10.762  21.540   4.513
48053W        W21121  44.369  36.062   3.947
48054W        W21122   4.734  22.610  12.740
48055W        W21123  38.400  14.235  11.077
48056W        W21124  32.826  44.014   2.763
48057W        W21125  33.962   4.675   2.777
48058W        W21126  17.197  30.462   2.753
48059W        W21127  15.598  28.165  11.498
48060W        W21128  34.143   0.277  13.782
48061W        W21129  44.918   3.896   2.723
48062W        W21130  41.320   9.280  12.026
48063W        W21131  12.403  12.250   3.308
48064W        W21132  13.377   2.489  11.223
48065W        W21133   2.032  40.672   5.123
48066W        W21134   2.152  13.751   0.417
48067W        W21135  26.838  28.508  11.175
48068W        W21136  40.772  14.291   2.357
48069W        W21137  15.679  31.458   4.674
48070W        W21138   8.182  12.112   1.287
48071W        W21139   1.051  30.937  12.526
48072W        W21140  28.816   7.885   2.723
48073W        W21141  10.179  35.644  14.776
48074W        W21142  11.180  28.560   0.362
48075W        W21143  26.948   4.503   2.537
48076W        W21144  36.339  42.501   3.704
48077W        W21145  21.131   4.685  12.060
48078W        W21146  34.649  32.564   2.822
48079W        W21147  27.599   0.504  13.332
48080W        W21148   9.370   1.831   2.060
48081W        W21149   2.878  31.494  13.540
48082W        W21150  38.131  31.776   4.191
48083W        W21151  40.433  29.594  11.927
48084W        W21152  23.178  10.820   1.226
48085W        W21153  36.430  10.358  12.125
48086W        W21154  23.545  44.568  10.518
48087W        W21155  33.904  35.120  11.926
48088W        W21156  11.865  41.825   5.056
48089W        W21157  42.125  41.165   1.354
48090W        W21158  41.848  32.127   1.893
48091W        W21159  29.971  34.761   0.424
48092W        W21160  24.411  20.244  10.681
48093W        W21161  20.269   2.894   1.968
48094W        W21162  41.590  21.950  11.122
48095W        W21163   5.384   3.461  14.515
48096W        W21164  30.915   7.706   4.168
48097W        W21165  17.115  22.659   0.346
48098W        W21166  28.968  21.278   5.006
48099W        W21167   3.999   5.914   1.727
48100W        W21168  32.023  43.528   2.907
48101W        W21169   7.918  14.856  11.517
48102W        W21170  24.413  24.474   3.211
48103W        W21171  28.323  23.567   0.949
48104W        W21172  30.294  20.186  11.124
48105W        W21173  10.858  44.896   0.918
48106W        W21174  26.744   8.090   1.998
48107W        W21175  27.062  35.086  10.808
48108W        W21176   4.910   6.919  13.083
48109W        W21177  42.793   8.722  10.866
48110W        W21178   9.893  14.782   2.199
48111W        W21179   1.673  36.642  14.296
48112W        W21180  35.036  14.864   4.182
48113W        W21181  22.187  39.012   1.300
48114W        W21182  32.654   3.915  11.897
48115W        W21183  25.443   2.796  11.498
48116W        W21184  22.903  24.144  12.044
48117W        W21185  29.571  18.239  14.273
48118W        W21186  28.198  11.549  13.477
48119W        W21187   7.300  25.929  12.111
48120W        W21188  30.692  14.932  14.187
48121W        W21189  29.274   1.405  13.365
48122W        W21190  38.933   6.556   4.534
48123W        W21191  32.638   8.305  10.590
48124W        W21192   3.428  35.175   4.402
48125W        W21193  33.500  24.201  12.476
48126W        W21194  10.338  20.301   4.122
48127W        W21195  23.066  12.269   0.879
48128W        W21196  43.933  37.289   4.703
48129W        W21197  23.726  12.171   1.134
48130W        W21198  16.538  11.357  11.923
48131W        W21199  36.513  13.385  11.627
48132W        W21200   5.346  44.947   4.698
48133W        W21201  22.135  28.251  13.869
48134W        W21202  29.878   8.454   0.872
48135W        W21203  33.499  27.275   0.984
48136W        W21204  36.893  24.881   3.173
48137W        W21205  14.530   5.722   2.271
48138W        W21206  33.106   9.034   0.387
48139W        W21207  23.710  42.382   1.887
48140W        W21208  20.474  21.282   4.246
48141W        W21209  11.693  37.816  14.271
48142W        W21210   7.999   7.668  11.176
48143W        W21211   9.571  25.781   2.361
48144W        W21212   7.902   7.085   3.269
48145W        W21213   3.975   0.489   4.075
48146W        W21214   3.868  25.613   1.840
48147W        W21215   8.893  23.745  12.526
48148W        W21216  24.161   3.866  10.654
48149W        W21217  30.229  34.599  10.781
48150W        W21218  32.837   6.737   0.015
48151W        W21219  29.107  31.765  11.708
48152W        W21220   3.042  36.518  10.457
48153W        W21221  14.194  14.654  14.653
48154W        W21222  41.071  20.193  14.896
48155W        W21223  25.996   0.944  14.079
48156W        W21224  37.085  38.806  13.570
48157W        W21225  27.844  15.853  12.126
48158W        W21226  20.141   4.823  13.066
48159W        W21227  34.075  36.309   3.551
48160W        W21228  14.537  12.213  11.364
48161W        W21229  30.429   7.883   4.159
48162W        W21230   1.669   6.910  12.506
48163W        W21231  36.893   2.894   5.127
48164W        W21232  17.838  13.834   0.985
48165W        W21233  41.299  13.260   0.489
48166W        W21234  42.911  17.695   2.369
48167W        W21235  16.160  10.335  11.486
48168W        W21236  40.225  34.667   2.771
48169W        W21237   0.800  20.830   2.345
48170W        W21238  32.481  35.428   3.723
48171W        W21239  21.183  26.732   2.898
48172W        W21240  40.353  15.434   2.956
48173W        W21241   3.796   9.808   2.625
48174W        W21242   6.211  31.892  13.932
48175W        W21243  19.512  27.169  11.122
48176W        W21244  42.967  37.583   1.387
48177W        W21245  24.984  38.893   0.882
48178W        W21246  44.860  29.678  12.243
48179W        W21247  15.618  27.162  11.544
48180W        W21248  43.878  29.701  14.909
48181W        W21249   4.674   4.875   9.772
48182W        W21250  35.886  40.905   1.243
48183W        W21251  29.139  41.505  14.311
48184W        W21252  25.102  39.054  10.422
48185W        W21253  26.953  42.816   4.740
48186W        W21254   4.355   3.414   3.295
48187W        W21255  30.591  33.546   0.175
48188W        W21256   8.622  43.262   0.486
48189W        W21257  26.974  21.231  12.891
48190W        W21258  12.329   8.720   2.918
48191W        W21259  26.910   0.408  14.421
48192W        W21260   4.864  44.054  12.189
48193W        W21261  15.154  36.282   4.652
48194W        W21262  10.678  18.273  10.309
48195W        W21263  29.543  14.635  12.219
48196W        W21264  19.549  10.166   2.623
48197W        W21265  14.290  41.717  11.492
48198W        W21266  34.122  38.717   2.363
48199W        W21267  42.038  30.949  11.154
48200W        W21268  19.014  33.500   0.747
48201W        W21269   3.134  12.648   1.533
48202W        W21270  29.151  16.487   3.578
48203W        W21271  31.889   3.048  11.135
48204W        W21272  10.066   7.623  12.917
48205W        W21273  20.637   9.016  14.134
48206W        W21274  41.900  12.409  11.993
48207W        W21275  23.528  25.875  10.859
48208W        W21276  32.440  25.756  14.765
48209W        W21277  44.022   4.747  11.788
48210W        W21278   4.132   5.806   0.832
48211W        W21279  42.465  30.845  11.651
48212W        W21280  30.493   4.347   1.824
48213W        W21281  42.458   7.230  14.001
48214W        W21282  26.600   3.921  10.643
48215W        W21283  31.022  30.264  11.625
48216W        W21284  19.836  30.925  14.036
48217W        W21285  43.135  10.252   4.515
48218W        W21286  30.959  35.133  12.421
48219W        W21287  31.638  20.097  10.649
48220W        W21288   2.857  16.579  11.657
48221W        W21289  14.834   1.771   4.491
48222W        W21290   2.913   3.305  11.025
48223W        W21291  12.125  28.919   2.125
48224W        W21292   7.319  15.973  11.042
48225W        W21293  15.074  34.431   1.020
48226W        W21294  23.037  11.603  10.965
48227W        W21295   9.223   8.226  12.226
48228W        W21296  27.925  21.753  14.658
48229W        W21297  40.509  39.728   2.317
48230W        W21298  33.143  36.531   2.765
48231W        W21299  16.092  30.367   4.162
48232W        W21300  41.168  36.668  11.012
48233W        W21301   0.432  26.389  14.173
48234W        W21302  25.154  23.818  12.562
48235W        W21303  21.499  18.757  13.337
48236W        W21304  15.139  37.797   1.485
48237W        W21305  18.453  40.694   1.205
48238W        W21306  42.269  43.482  12.053
48239W        W21307   3.918  42.366  10.437
48240W        W21308   4.819  17.530   1.571
48241W        W21309  29.390  33.005  12.685
48242W        W21310   2.883  42.612   0.349
48243W        W21311  36.937  15.953   4.147
48244W        W21312   5.907   3.008   2.162
48245W        W21313  29.031   9.205   4.160
48246W        W21314   7.625  21.257  14.556
48247W        W21315  43.013  44.869   3.240
48248W        W21316  10.854  29.099  14.181
48249W        W21317  12.340  31.701   4.150
48250W        W21318  38.854   7.524   3.407
48251W        W21319  35.297   5.229   4.143
48252W        W21320  21.311  31.224  11.670
48253W        W21321   2.841  34.699  12.213
48254W        W21322   2.829   2.723   0.265
48255W        W21323  19.701  27.941  11.497
48256W        W21324  30.493   6.650   0.833
48257W        W21325  23.720  42.725   3.291
48258W        W21326   6.316   4.599   3.712
48259W        W21327  34.093  41.331  12.995
48260W        W21328  19.030  19.853   0.429
48261W        W21329   2.834   0.559   2.723
48262W        W21330  11.263  13.345   0.543
48263W        W21331   6.484  15.488  14.798
48264W        W21332   1.743  26.818   4.984
48265W        W21333  21.204   9.199   0.465
48266W        W21334   9.856  11.367   2.436
48267W        W21335  15.113  35.921  14.734
48268W        W21336  33.406  33.636   5.171
48269W        W21337   1.715  14.714  11.596
48270W        W21338  44.908  37.302   2.946
48271W        W21339  17.944  12.193  12.759
48272W        W21340  25.964  31.664   3.784
48273W        W21341   9.455   2.327   2.989
48274W        W21342   2.955  25.008   0.432
48275W        W21343  17.339   7.438  12.998
48276W        W21344   2.977  20.666  14.492
48277W        W21345  39.288  29.613  13.843
48278W        W21346  28.023   7.318  10.973
48279W        W21347  24.545  15.143  10.489
48280W        W21348  26.825  23.391  13.619
48281W        W21349   6.739  22.330  13.571
48282W        W21350  35.945  30.420   1.926
48283W        W21351  10.523   9.259  10.710
48284W        W21352   4.692  13.658  10.629
48285W        W21353  35.320  31.555   5.453
48286W        W21354  28.696  16.590  14.225
48287W        W21355  43.707  23.908   3.776
48288W        W21356  26.835  31.624  13.114
48289W        W21357   3.000  34.681  11.023
48290W        W21358  32.411  24.445  14.281
48291W        W21359  16.622  22.819   4.302
48292W        W21360   3.979  20.741  13.492
48293W        W21361   2.342  23.661  11.021
48294W        W21362  36.843  18.475  12.031
48295W        W21363   0.479  32.371   3.684
48296W        W21364  17.512  11.177   0.796
48297W        W21365   4.735   5.923   3.229
48298W        W21366   9.978  41.464  12.476
48299W        W21367  32.585  43.982   0.461
48300W        W21368  33.502   4.158  12.966
48301W        W21369  11.807  23.934  13.406
48302W        W21370   0.395   4.290  14.128
48303W        W21371   1.346  22.099  13.066
48304W        W21372  30.456  22.509  13.919
48305W        W21373   2.159  33.571  10.977
48306W        W21374  15.821  22.994  13.407
48307W        W21375  33.971  24.011   0.474
48308W        W21376  34.084  26.679  10.787
48309W        W21377   8.103  24.128   4.265
48310W        W21378  39.873  32.056   4.929
48311W        W21379  13.727  17.833  12.559
48312W        W21380  32.181   4.295  10.214
48313W        W21381  34.776  40.958  13.434
48314W        W21382  39.600  12.227  11.782
48315W        W21383  23.132  14.278   3.716
48316W        W21384  12.362  39.536  12.170
48317W        W21385  37.555   2.466  13.350
48318W        W21386   1.976  40.676   1.924
48319W        W21387  35.065  24.277  14.136
48320W        W21388  35.568   9.729  14.638
48321W        W21389  21.185  10.121  11.741
48322W        W21390  32.083  39.875  12.076
48323W        W21391  15.215  16.704  11.201
48324W        W21392  19.765  28.708  12.666
48325W        W21393  37.026  35.947   3.974
48326W        W21394  29.113  23.330  11.201
48327W        W21395   6.780  11.420   4.554
48328W        W21396  43.360   6.908   0.837
48329W        W21397  24.028  35.130   3.247
48330W        W21398  26.245  38.627   2.251
48331W        W21399   0.146  39.099  14.044
48332W        W21400   7.172   1.372  12.471
48333W        W21401  42.922  26.728  11.388
48334W        W21402  33.033  23.968  14.954
48335W        W21403  35.130   8.830   4.028
48336W        W21404  13.853  35.139  11.165
48337W        W21405  16.731  25.970   1.376
48338W        W21406  20.158  38.409   0.202
48339W        W21407  28.993   7.176   4.619
48340W        W21408  40.489  27.284  14.967
48341W        W21409   9.420  26.551  14.556
48342W        W21410  21.662  18.906   9.907
48343W        W21411  27.728  15.796   3.066
48344W        W21412  37.277   0.456  13.656
48345W        W21413  19.920   5.773   4.799
48346W        W21414  34.946   9.321   2.268
48347W        W21415  30.460  20.493   3.695
48348W        W21416  21.821  16.227  13.859
48349W        W21417  35.051  20.035   4.502
48350W        W21418  43.775  17.552   4.137
48351W        W21419  44.907  30.437  14.807
48352W        W21420  38.661  32.557  13.056
48353W        W21421  13.226  22.589   0.096
48354W        W21422   6.259  24.121  10.630
48355W        W21423  26.199  44.151  11.075
48356W        W21424  40.316  30.274   1.750
48357W        W21425  21.132  34.912   3.619
48358W        W21426  26.108  33.463   2.656
48359W        W21427   4.975  14.552  12.042
48360W        W21428  42.906  39.783   1.834
48361W        W21429  42.793  41.762  13.285
48362W        W21430   8.394  17.692   1.488
48363W        W21431  13.399  18.669   4.170
48364W        W21432  23.013  44.749  13.102
48365W        W21433   8.174  25.988   4.392
48366W        W21434  34.338  17.749   3.200
48367W        W21435  17.578   3.009   3.242
48368W        W21436   8.887  34.792  13.149
48369W        W21437  40.883  13.545   5.472
48370W        W21438  14.294  21.020   1.800
48371W        W21439  36.846  15.275   4.767
48372W        W21440  16.335   0.991   3.132
48373W        W21441  35.233   4.701   4.133
48374W        W21442  25.000  35.543  13.887
48375W        W21443  26.949  33.205  11.168
48376W        W21444  23.278   3.319  10.473
48377W        W21445  44.598  11.303   1.309
48378W        W21446  11.867   4.602  11.977
48379W        W21447  32.931  31.176   0.436
48380W        W21448   8.152   9.371  14.393
48381W        W21449  18.295  30.570   0.053
48382W        W21450  39.357  41.924   2.242
48383W        W21451  15.082  29.001  12.419
48384W        W21452  18.138  26.192   1.310
48385W        W21453  19.961   5.951   3.282
48386W        W21454  20.269  34.950  12.009
48387W        W21455  21.553   8.904  10.646
48388W        W21456  40.810  39.278  11.525
48389W        W21457  16.366   6.248   2.380
48390W        W21458  20.810  33.688  10.700
48391W        W21459  24.041   2.413  11.176
48392W        W21460  39.950  17.124  14.407
48393W        W21461  26.080   9.919   5.247
48394W        W21462   0.772  11.099   0.725
48395W        W21463  18.268  13.151  11.446
48396W        W21464  42.702  44.489   3.389
48397W        W21465   1.281   6.345  11.049
48398W        W21466   3.630   8.207  13.467
48399W        W21467  34.368  30.042   3.204
48400W        W21468  42.575  38.805  11.065
48401W        W21469  22.196  37.924  12.104
48402W        W21470  13.855  42.926  11.499
48403W        W21471   3.421  31.931   1.526
48404W        W21472  15.089  30.914   0.301
48405W        W21473   1.970  34.819  13.064
48406W        W21474  31.777   7.265   4.442
48407W        W21475  36.919  15.240   0.001
48408W        W21476  14.583  31.157  14.026
48409W        W21477  37.821  40.796  13.832
48410W        W21478   2.849  22.972  11.965
48411W        W21479  41.895   4.666   4.061
48412W        W21480  29.261   5.425   2.655
48413W        W21481  37.869  40.478  10.936
48414W        W21482  36.510  26.219  12.702
48415W        W21483  12.126  34.928   1.352
48416W        W21484  14.052  42.807  14.194
48417W        W21485  10.673  35.583  13.550
48418W        W21486  19.762   2.434   0.826
48419W        W21487  11.763  16.383  10.646
48420W        W21488  11.217   1.882  10.780
48421W        W21489  42.448  33.471  14.536
48422W        W21490  41.304  43.336   1.578
48423W        W21491  10.863  33.181   2.793
48424W        W21492  29.853  38.850   3.310
48425W        W21493  21.139  29.563  13.105
48426W        W21494  42.564   1.478   4.606
48427W        W21495  28.722  22.464  13.424
48428W        W21496   7.114  12.359   2.290
48429W        W21497   0.578  31.868  13.835
48430W        W21498  19.694  37.193   5.113
48431W        W21499   5.397  44.279  11.094
48432W        W21500   4.037  20.947   2.586
48433W        W21501   0.816  30.787  14.947
48434W        W21502   5.908  17.914  14.524
48435W        W21503   3.354  10.752  12.395
48436W        W21504  17.942  28.833   4.698
48437W        W21505  29.061  24.726  11.502
48438W        W21506  44.210  24.914  10.995
48439W        W21507  11.141  16.131   2.158
48440W        W21508   0.296  13.211  13.681
48441W        W21509  20.706  17.162   1.875
48442W        W21510  30.047   6.946   0.761
48443W        W21511  29.630  18.028   4.573
48444W        W21512   8.325   1.122  11.721
48445W        W21513  31.419  32.664   0.785
48446W        W21514  43.578  35.867   1.282
48447W        W21515  22.246  34.181   4.565
48448W        W21516   8.568  33.563  14.371
48449W        W21517  22.708   0.642   1.322
48450W        W21518  31.450  10.946  14.569
48451W        W21519  40.734  25.092  12.066
48452W        W21520  35.979   7.874  13.442
48453W        W21521  13.831  30.496   1.416
48454W        W21522  32.104  15.868  14.074
48455W        W21523  15.266  43.824   3.550
48456W        W21524  21.476   7.763   0.910
48457W        W21525  15.231   1.132   0.268
48458W        W21526  16.996  33.721   3.644
48459W        W21527  20.239  44.726   2.304
48460W        W21528  35.539  19.988   4.675
48461W        W21529  14.772  30.967   2.019
48462W        W21530  11.432  37.461  13.401
48463W        W21531  27.003  13.521   1.806
48464W        W21532  42.331  15.297   4.135
48465W        W21533  13.237  41.346   0.428
48466W        W21534  43.393  34.511   2.622
48467W        W21535  14.650  17.756  12.017
48468W        W21536  14.343  30.766   0.769
48469W        W21537   8.309   7.637   1.705
48470W        W21538  41.960  10.225   0.822
48471W        W21539  17.547  44.783  14.790
48472W        W21540  19.683  29.375  14.925
48473W        W21541   4.589  17.613   4.265
48474W        W21542  34.511  35.334   1.227
48475W        W21543  23.909  18.382   1.512
48476W        W21544   1.587   5.648   0.906
48477W        W21545   9.689  30.663   0.839
48478W        W21546  24.776   9.904  11.132
48479W        W21547   2.701  44.258  14.423
48480W        W21548  18.036  17.272   0.902
48481W        W21549   6.658  26.666   4.448
48482W        W21550  14.358  12.374  13.842
48483W        W21551   3.251  24.133  12.134
48484W        W21552  22.085  22.450  11.532
48485W        W21553   1.771  24.011   0.540
48486W        W21554  14.301  32.627  14.914
48487W        W21555  34.261  40.805   0.288
48488W        W21556   8.372  26.709  11.985
48489W        W21557  40.211  33.002  10.992
48490W        W21558  24.142  29.063  13.757
48491W        W21559  12.767  39.674  10.738
48492W        W21560   2.720   8.161   0.930
48493W        W21561  35.189  26.550  12.897
48494W        W21562  34.420  12.487   4.590
48495W        W21563  14.549  43.051  14.873
48496W        W21564  44.371  32.952   4.601
48497W        W21565  41.022  23.170  12.199
48498W        W21566  42.233  25.512   0.972
48499W        W21567  31.901  17.402  11.111
48500W        W21568  23.696   5.681   2.233
48501W        W21569  16.706  40.325   0.414
48502W        W21570  28.524  31.657   1.235
48503W        W21571  38.744  44.324  13.922
48504W        W21572   1.858  30.016  13.558
48505W        W21573   0.068  40.347   4.356
48506W        W21574  30.816  12.660  14.467
48507W        W21575   5.960  25.032  10.623
48508W        W21576  25.650  11.150   5.261
48509W        W21577  15.584  21.708   3.664
48510W        W21578  42.182  32.893   1.803
48511W        W21579  37.056   3.648  14.510
48512W        W21580  19.282   5.693   0.190
48513W        W21581  21.989  14.124  13.531
48514W        W21582  22.324  20.098   2.451
48515W        W21583   5.671  30.625  11.174
48516W        W21584  21.723  43.574  14.802
48517W        W21585   6.850  41.711   2.419
48518W        W21586  13.131   1.428  14.544
48519W        W21587  25.836  43.932  11.363
48520W        W21588   5.808  15.113   3.547
48521W        W21589  16.555  10.095  11.147
48522W        W21590   5.419  20.824  14.797
48523W        W21591  14.309  29.533  11.061
48524W        W21592  25.090   2.472   2.376
48525W        W21593  20.981  42.052  13.968
48526W        W21594   1.179  11.320   2.839
48527W        W21595  35.991  23.792  11.504
48528W        W21596  36.398  29.393   1.391
48529W        W21597  12.753  38.532   2.245
48530W        W21598  32.997  25.463   2.753
48531W        W21599   8.635  11.207   3.600
48532W        W21600  33.397  18.051   1.273
48533W        W21601   4.881  26.374  13.853
48534W        W21602  13.661  15.255   2.697
48535W        W21603  11.875  35.098  12.632
48536W        W21604  35.078   0.779  13.337
48537W        W21605  31.840  30.057   1.755
48538W        W21606  17.800  15.774  13.450
48539W        W21607  42.726   0.500   4.553
48540W        W21608  14.065   1.550   4.450
48541W        W21609  27.214   2.801  14.251
48542W        W21610  13.763  41.410  14.493
48543W        W21611  12.752  44.726   3.363
48544W        W21612  32.515  32.758  11.574
48545W        W21613  18.870  40.747  14.767
48546W        W21614  34.111  17.560   4.610
48547W        W21615  17.665  37.879  14.544
48548W        W21616  31.070  18.715   0.531
48549W        W21617  36.050  34.322   5.285
48550W        W21618  26.513  25.521  14.999
48551W        W21619  39.092   1.549  11.546
48552W        W21620  29.776  39.432   2.275
48553W        W21621  32.637   6.269   1.023
48554W        W21622  43.516  17.609  14.290
48555W        W21623  19.046  24.644  12.915
48556W        W21624  40.429  15.668  14.952
48557W        W21625  27.686  16.168  12.509
48558W        W21626  22.110  11.293   1.843
48559W        W21627  39.614  38.362   0.427
48560W        W21628  24.126  43.986   0.504
48561W        W21629   3.153  26.421  14.037
48562W        W21630  42.136   3.179  12.569
48563W        W21631   3.750   5.830  11.293
48564W        W21632  18.701  16.305  12.889
48565W        W21633  38.450  28.581   4.331
48566W        W21634  41.973  34.369   0.751
48567W        W21635  29.370  37.952  14.749
48568W        W21636  21.488  43.836   3.685
48569W        W21637  25.357  17.257  11.219
48570W        W21638  12.227  36.476   2.707
48571W        W21639  43.449   2.445  14.055
48572W        W21640  36.316   1.269  11.984
48573W        W21641  33.642  11.363   0.756
48574W        W21642   6.391  23.876   2.804
48575W        W21643  32.227  23.185   2.474
48576W        W21644   7.261   4.740   0.428
48577W        W21645  37.360  21.731  10.555
48578W        W21646   5.449  34.890   1.747
48579W        W21647  25.614  43.449   4.261
48580W        W21648  21.113  37.425  14.423
48581W        W21649  39.484  25.892   2.567
48582W        W21650  13.370   5.257  13.177
48583W        W21651  40.965  18.719  11.122
48584W        W21652  39.095  29.552  13.347
48585W        W21653  20.200  40.321  11.983
48586W        W21654  17.627  10.852   3.926
48587W        W21655  36.933  38.566   2.245
48588W        W21656  38.967  26.229  13.252
48589W        W21657  13.260  10.155  14.506
48590W        W21658  15.126  42.631  13.404
48591W        W21659  32.758   4.306   1.239
48592W        W21660   6.889  29.473   4.381
48593W        W21661   9.005  17.698   1.793
48594W        W21662  36.274  21.059  12.658
48595W        W21663  15.804   5.189  11.460
48596W        W21664  22.581   6.749  10.723
48597W        W21665  10.000  44.460  10.977
48598W        W21666  20.036  10.351  13.846
48599W        W21667  41.956  29.398   1.859
48600W        W21668  39.574  11.851   4.444
48601W        W21669  18.869  38.858  14.297
48602W        W21670   8.324  11.881  11.926
48603W        W21671  40.838  31.822   0.441
48604W        W21672  28.082   5.743   3.823
48605W        W21673  18.281   2.434   0.283
48606W        W21674   5.248   2.934   0.931
48607W        W21675  22.267  16.496  12.401
48608W        W21676  19.081  42.074   1.703
48609W        W21677  18.626   4.422  14.271
48610W        W21678  18.720  36.092   2.308
48611W        W21679  23.122  27.594  11.057
48612W        W21680  11.337  26.977  14.311
48613W        W21681  27.095  40.856  14.082
48614W        W21682  32.910  25.905  12.081
48615W        W21683   7.324  32.906   2.050
48616W        W21684   0.377  19.112  12.584
48617W        W21685   9.801  25.881  13.608
48618W        W21686  11.557   1.886   3.259
48619W        W21687   2.033   1.259  14.958
48620W        W21688   8.798  23.442  13.135
48621W        W21689  22.329  12.184  12.856
48622W        W21690  20.541  32.940   1.261
48623W        W21691  15.328   5.400  11.554
48624W        W21692  12.667   0.938  10.739
48625W        W21693  35.020  16.765  12.393
48626W        W21694  31.087  22.110   2.652
48627W        W21695  27.699  22.264  13.502
48628W        W21696   0.291  40.457   1.398
48629W        W21697  16.874  17.156   2.426
48630W        W21698  14.648  31.093  13.133
48631W        W21699   0.968  14.120   4.956
48632W        W21700  26.100   6.836  12.033
48633W        W21701   6.245  18.137   0.137
48634W        W21702  12.559  26.210  10.782
48635W        W21703  32.908  12.767  11.176
48636W        W21704   2.396   8.260   4.806
48637W        W21705   3.692  24.005  11.610
48638W        W21706  25.479   6.903   4.595
48639W        W21707  25.736  40.789   1.801
48640W        W21708  44.701  34.086   0.733
48641W        W21709  14.837   2.350  13.794
48642W        W21710  39.439  31.889  13.002
48643W        W21711   8.387  39.610  14.730
48644W        W21712   1.944  36.588   2.188
48645W        W21713   9.892   7.435   1.810
48646W        W21714   4.910  36.047  10.388
48647W        W21715  28.111  39.134   0.273
48648W        W21716   5.668  13.841  13.279
48649W        W21717  32.088  35.054   1.979
48650W        W21718  18.958   3.273  12.498
48651W        W21719  31.937  10.388   1.686
48652W        W21720  12.056   2.835  11.068
48653W        W21721  16.854  37.310  13.465
48654W        W21722  22.936  38.004  14.682
48655W        W21723  13.558  24.244  12.501
48656W        W21724  22.973   4.291  10.987
48657W        W21725   9.845   0.921  11.004
48658W        W21726  13.787  34.032  13.951
48659W        W21727  12.684  43.087   0.001
48660W        W21728  32.929  29.043  10.991
48661W        W21729  13.024  44.477   4.608
48662W        W21730  21.122  14.337   4.042
48663W        W21731   5.676  40.008   2.612
48664W        W21732  33.834  17.705   2.314
48665W        W21733  26.683  12.226  14.315
48666W        W21734  29.173  10.351   4.152
48667W        W21735   1.255  29.401  14.895
48668W        W21736  39.726  12.432   3.587
48669W        W21737   8.802  16.495   4.249
48670W        W21738  21.705   0.436  12.630
48671W        W21739  30.752  41.486   4.144
48672W        W21740  40.350  38.068  12.411
48673W        W21741  27.495  33.454   3.877
48674W        W21742  25.545  21.105  10.198
48675W        W21743  20.523  34.171   3.698
48676W        W21744  30.520   8.936  13.640
48677W        W21745   3.003   7.748   0.849
48678W        W21746  29.639   5.190  11.604
48679W        W21747   2.033  20.597   2.253
48680W        W21748  11.244  36.282  13.895
48681W        W21749  34.247  43.949  12.907
48682W        W21750  31.382  11.723   0.029
48683W        W21751  33.137  43.021  13.815
48684W        W21752  31.236  16.725  11.414
48685W        W21753  10.812  10.164   4.143
48686W        W21754  38.938  44.408  12.059
48687W        W21755  17.155  19.995  13.166
48688W        W21756  21.033  39.386   4.403
48689W        W21757   0.354   6.107   1.398
48690W        W21758  10.870  29.079   1.853
48691W        W21759  42.146  20.206   2.907
48692W        W21760  29.049  30.919   3.267
48693W        W21761  24.477  24.418   1.897
48694W        W21762  18.228  11.888   2.383
48695W        W21763  43.302  38.972  14.648
48696W        W21764  37.836  27.940  14.880
48697W        W21765  10.199  20.516   2.811
48698W        W21766  19.096  27.011   3.558
48699W        W21767   0.297   7.251  12.028
48700W        W21768  17.896  29.448  11.190
48701W        W21769   2.057  32.648  10.798
48702W        W21770  39.473  26.815  10.653
48703W        W21771  35.583  38.948   1.339
48704W        W21772  31.139  27.477  10.647
48705W        W21773  21.977   6.174   3.417
48706W        W21774  20.831   4.449   4.074
48707W        W21775  24.693   5.306   4.225
48708W        W21776  18.515  30.877   3.304
48709W        W21777  14.996   4.447  14.800
48710W        W21778  33.569  34.367   3.940
48711W        W21779  34.029  30.032   3.750
48712W        W21780  41.411   9.230   3.897
48713W        W21781  32.109  15.639   2.712
48714W        W21782  21.503  18.444  12.921
48715W        W21783  12.084  20.972  11.154
48716W        W21784  21.405  17.682  14.293
48717W        W21785   1.895  39.589  13.430
48718W        W21786   1.058   5.301   4.750
48719W        W21787  10.196   1.348   0.916
48720W        W21788  33.512  36.402  13.382
48721W        W21789  35.455  38.466   0.643
48722W        W21790  17.323  39.947  10.194
48723W        W21791  11.346  17.904   4.665
48724W        W21792  25.341   0.676  10.977
48725W        W21793  29.553  29.805   4.523
48726W        W21794  12.271  40.909   4.629
48727W        W21795   0.289  44.534  13.303
48728W        W21796  11.109  35.411   0.768
48729W        W21797  26.738  14.536  10.475
48730W        W21798   9.171  27.927   0.669
48731W        W21799  14.034   0.400   2.755
48732W        W21800   0.466  26.960   0.781
48733W        W21801  18.018  27.016  13.419
48734W        W21802  30.145  31.474   1.667
48735W        W21803   2.274  35.534  14.140
48736W        W21804   1.939  17.162   1.467
48737W        W21805  35.451   7.880  11.577
48738W        W21806  28.961  44.857  10.566
48739W        W21807  40.446   5.700  10.249
48740W        W21808  27.908  14.562   4.193
48741W        W21809   7.718  12.129  13.522
48742W        W21810   6.099  33.788   4.357
48743W        W21811  11.639   6.010   2.401
48744W        W21812  36.761  12.745  14.885
48745W        W21813   3.878   9.810   3.139
48746W        W21814  12.320  37.925  13.482
48747W        W21815   1.033  39.348   1.678
48748W        W21816  32.770  43.239  11.337
48749W        W21817   3.610   7.156   5.032
48750W        W21818  25.520  35.629  14.008
48751W        W21819  13.775  32.055   3.375
48752W        W21820  28.714   3.487   3.871
48753W        W21821  11.762  12.932   1.809
48754W        W21822   1.948  37.620   0.396
48755W        W21823  39.954  15.429   1.325
48756W        W21824  29.449  31.011  10.694
48757W        W21825   9.413  36.880   2.363
48758W        W21826   1.200   9.241   4.467
48759W        W21827  19.081  21.990  10.649
48760W        W21828  36.331  41.298  10.970
48761W        W21829  20.662  21.014  11.787
48762W        W21830   1.711  21.178  11.595
48763W        W21831   9.699   8.379  12.399
48764W        W21832  39.558  21.579  13.352
48765W        W21833  11.137  32.893  12.004
48766W        W21834  21.903   7.267  13.360
48767W        W21835   5.176  35.771  11.710
48768W        W21836   5.774  39.224  14.999
48769W        W21837   7.287  17.531   0.900
48770W        W21838   0.459  23.100   0.514
48771W        W21839  26.111  31.268  13.395
48772W        W21840  37.966  21.260   4.705
48773W        W21841  21.039  14.978   3.145
48774W        W21842  33.846  21.982   2.217
48775W        W21843  22.004  13.051   3.595
48776W        W21844  23.582  33.646   2.828
48777W        W21845  44.963   9.562   0.865
48778W        W21846  27.951  31.864  14.212
48779W        W21847  43.916  35.325  14.921
48780W        W21848  35.037  13.247  13.144
48781W        W21849  34.274   1.805   3.261
48782W        W21850  25.237  22.995   2.757
48783W        W21851  33.866  13.561  11.887
48784W        W21852  35.078  13.715  12.398
48785W        W21853  29.501  18.539   4.617
48786W        W21854  43.852  40.992  12.531
48787W        W21855   9.733  42.280   2.831
48788W        W21856   1.839   2.686  10.599
48789W        W21857   1.944   8.464   4.645
48790W        W21858  40.930  34.588  14.021
48791W        W21859  36.132   9.037   1.490
48792W        W21860  23.430  21.092  12.359
48793W        W21861   5.349   4.714   3.748
48794W        W21862  11.835  15.726  12.938
48795W        W21863  15.106  20.093  12.285
48796W        W21864   4.726  36.065  13.956
48797W        W21865  17.358  44.200   1.287
48798W        W21866  39.843  38.169  11.983
48799W        W21867  26.486  17.197  10.459
48800W        W21868   7.396  12.305   1.863
48801W        W21869  15.561  15.702   0.302
48802W        W21870  20.439  13.318   2.348
48803W        W21871  27.447   6.873   2.230
48804W        W21872   3.646   1.033  10.747
48805W        W21873  11.654  20.146  13.097
48806W        W21874   8.282  31.709   3.293
48807W        W21875  37.547  10.309   4.748
48808W        W21876  13.499  26.433  14.133
48809W        W21877  28.183  27.130  11.946
48810W        W21878  29.138  23.986   3.240
48811W        W21879  11.785   0.941   5.115
48812W        W21880  20.032  11.231  11.077
48813W        W21881  43.019  44.887  14.450
48814W        W21882  31.639  30.048  12.769
48815W        W21883  43.210  29.546   3.716
48816W        W21884   9.659   8.541  12.899
48817W        W21885  41.772  20.710  11.127
48818W        W21886  42.208  27.273  12.980
48819W        W21887  22.046   8.659  10.663
48820W        W21888  31.508  14.828   0.185
48821W        W21889  38.300   6.815   2.927
48822W        W21890  21.994  32.109   4.466
48823W        W21891   2.551  13.285   3.614
48824W        W21892  19.421  35.231   2.859
48825W        W21893  11.141  27.226  13.901
48826W        W21894   2.960  38.052   1.918
48827W        W21895  18.614  16.976   2.737
48828W        W21896   6.563  14.762  14.179
48829W        W21897  18.017  16.460   0.438
48830W        W21898  22.797  34.185   3.742
48831W        W21899  43.975  14.843   0.678
48832W        W21900  29.052  34.230  13.285
48833W        W21901  14.257  10.625   3.694
48834W        W21902   3.694  36.971   3.293
48835W        W21903   3.269  34.016  12.130
48836W        W21904   5.436  42.136   4.009
48837W        W21905  27.426  27.429   0.771
48838W        W21906   8.155  17.129  11.801
48839W        W21907  23.517  39.652   2.823
48840W        W21908  41.853  22.058  10.695
48841W        W21909  23.202  30.854   2.611
48842W        W21910  19.697  21.488  12.475
48843W        W21911  14.750  38.217   3.049
48844W        W21912  11.052  10.302   3.710
48845W        W21913  36.486  28.032   0.984
48846W        W21914  38.351  35.123  14.384
48847W        W21915  23.414  28.485   1.776
48848W        W21916  34.952  11.630  14.099
48849W        W21917  18.115  31.887  12.026
48850W        W21918   3.788  30.930   0.910
48851W        W21919  17.920   2.626   3.370
48852W        W21920  37.948   1.707   0.722
48853W        W21921  15.617   2.907   2.451
48854W        W21922  41.776  11.197  14.938
48855W        W21923  14.617  16.876   1.410
48856W        W21924  15.347  11.993  11.745
48857W        W21925  35.405  32.163  14.551
48858W        W21926  39.910   1.370  11.823
48859W        W21927  28.096  40.005   2.666
48860W        W21928  43.425   1.648  13.858
48861W        W21929  16.273  33.967  14.086
48862W        W21930  23.113  10.220   3.668
48863W        W21931  41.345  17.705  13.125
48864W        W21932   8.254  21.199   4.785
48865W        W21933  40.743   5.918  11.637
48866W        W21934  42.945  15.254  12.545
48867W        W21935  17.030   7.267   0.427
48868W        W21936  39.944   4.410  12.517
48869W        W21937  42.869  27.184  14.363
48870W        W21938  20.957   5.927  13.487
48871W        W21939  42.887  36.577   1.420
48872W        W21940  37.138  13.274   4.644
48873W        W21941  18.063  31.673  10.917
48874W        W21942  13.687  19.633   2.612
48875W        W21943  12.813  15.582  14.917
48876W        W21944  44.388   8.912   4.077
48877W        W21945   3.554   3.813  13.515
48878W        W21946  42.699   8.774   2.553
48879W        W21947  40.998  20.015   4.393
48880W        W21948  33.022  24.758  13.575
48881W        W21949  33.530  34.024  11.843
48882W        W21950  23.685  30.559  12.887
48883W        W21951   4.208   4.261   2.203
48884W        W21952  13.772  15.833  13.060
48885W        W21953  38.316   1.453   3.127
48886W        W21954  20.099  41.402   3.270
48887W        W21955  24.168  26.937  13.396
48888W        W21956  33.147  35.369   0.978
48889W        W21957  11.571  27.081  14.985
48890W        W21958  16.235  19.652   3.566
48891W        W21959  25.554   3.831   2.348
48892W        W21960   2.357  34.540  12.366
48893W        W21961  44.832  19.311  11.221
48894W        W21962  29.125   2.823   3.385
48895W        W21963  38.618  18.046  12.970
48896W        W21964  24.097  17.691  11.168
48897W        W21965  40.890   5.190   1.706
48898W        W21966  34.653  28.921   2.279
48899W        W21967  35.897  43.530  13.932
48900W        W21968   4.818   3.560   4.792
48901W        W21969  22.175  41.853   0.928
48902W        W21970  41.390  19.547   1.927
48903W        W21971  43.410  34.387  13.521
48904W        W21972  19.933  14.328   4.661
48905W        W21973  32.318   7.185   3.309
48906W        W21974  41.980  23.066   0.044
48907W        W21975  14.456  27.114   1.223
48908W        W21976  33.471  36.968  10.631
48909W        W21977  21.784  23.640  13.965
48910W        W21978  17.151  20.251   2.870
48911W        W21979  14.827  16.584   2.775
48912W        W21980  18.124   6.815   3.994
48913W        W21981  44.961  17.168  14.209
48914W        W21982  20.651  21.528   2.579
48915W        W21983  20.359  15.832   1.267
48916W        W21984  11.095  39.409  14.769
48917W        W21985   7.245  12.281  11.366
48918W        W21986  20.231  37.293  14.973
48919W        W21987  25.527  28.989   0.422
48920W        W21988  19.097  36.463  12.426
48921W        W21989  17.546   7.720  14.397
48922W        W21990   0.349  12.581  14.263
48923W        W21991  15.107  35.409   2.408
48924W        W21992   3.681  30.688  11.193
48925W        W21993  16.599   4.986  10.934
48926W        W21994  20.954  28.251  11.529
48927W        W21995  29.425  21.790  12.010
48928W        W21996  40.392   6.830   4.741
48929W        W21997  16.154  35.874  13.464
48930W        W21998   3.410  16.489  12.870
48931W        W21999  27.058  33.163  12.067
48932W        W22000   4.668   1.928   4.600
48933W        W22001   3.900  35.125   0.029
48934W        W22002   6.719  25.561   0.835
48935W        W22003  43.693  31.458  13.482
48936W        W22004  42.824  25.662   2.291
48937W        W22005  31.542  13.605   4.179
48938W        W22006   0.729   2.973   0.327
48939W        W22007  23.530  39.356   3.638
48940W        W22008  40.792  18.322  13.345
48941W        W22009  16.292  11.400   1.811
48942W        W22010  12.865   6.006   1.872
48943W        W22011  35.187  41.516  14.178
48944W        W22012  39.549  30.891   0.995
48945W        W22013  24.258  34.035   1.742
48946W        W22014  17.715  17.813   1.166
48947W        W22015   6.794  32.095  13.794
48948W        W22016  39.577  12.719   1.993
48949W        W22017  31.369  30.445  12.981
48950W        W22018  23.463   0.878  12.969
48951W        W22019   6.690  19.080  10.543
48952W        W22020  40.213   6.711   9.832
48953W        W22021  15.924  26.266  11.547
48954W        W22022   4.492  14.710  11.954
48955W        W22023  23.764  32.001  12.503
48956W        W22024  19.594  34.173   4.306
48957W        W22025   0.131  34.905   3.758
48958W        W22026  20.509  15.272  13.356
48959W        W22027   4.459  43.711  12.119
48960W        W22028   7.087  39.097  10.714
48961W        W22029  27.485  39.376   1.449
48962W        W22030  20.574  30.424   3.270
48963W        W22031  44.145  30.928   3.907
48964W        W22032   5.395  16.669   0.521
48965W        W22033  14.829  35.111  11.527
48966W        W22034  18.358  14.627  11.208
48967W        W22035  13.702  35.886   3.022
48968W        W22036  30.556  37.756   3.881
48969W        W22037   9.166  18.137   3.725
48970W        W22038  42.796   7.791   2.326
48971W        W22039  23.919  43.614   2.313
48972W        W22040   2.950  18.691   1.861
48973W        W22041  28.432  13.514  11.637
48974W        W22042  10.064  36.318  10.609
48975W        W22043  38.834  17.506   5.221
48976W        W22044  35.929  34.078  14.742
48977W        W22045  35.190  16.988   2.724
48978W        W22046  12.986   8.596  12.614
48979W        W22047  20.655  14.298  10.701
48980W        W22048  28.651  31.479   4.542
48981W        W22049  40.429  33.457   1.924
48982W        W22050  36.454  40.530   2.017
48983W        W22051   3.881  31.496  11.999
48984W        W22052  23.661  21.102   1.933
48985W        W22053  37.216  12.100   4.227
48986W        W22054   6.486  44.263  11.744
48987W        W22055  33.208   4.306  11.120
48988W        W22056  21.491   5.455   2.520
48989W        W22057   9.341   6.099   0.217
48990W        W22058   2.302  10.069  13.458
48991W        W22059  25.639   5.460   3.197
48992W        W22060   4.927  38.087   0.798
48993W        W22061   3.915  25.245   2.213
48994W        W22062  13.276  32.914   1.222
48995W        W22063  24.891  17.842   1.312
48996W        W22064  20.597  13.729  13.414
48997W        W22065  15.627   6.265   4.524
48998W        W22066  40.512  21.005  11.999
48999W        W22067  43.508  36.106   3.714
49000W        W22068  28.480  39.104   3.906
49001W        W22069   4.868  10.342   0.925
49002W        W22070  15.399  40.926   4.593
49003W        W22071   7.323  38.087  11.444
49004W        W22072  26.730  15.115  13.956
49005W        W22073  39.271  40.964   2.356
49006W        W22074  10.255  28.074   3.273
49007W        W22075  27.840  30.103  13.419
49008W        W22076  24.692  17.818  12.113
49009W        W22077  38.387  24.815   4.070
49010W        W22078  27.902  43.126  12.656
49011W        W22079  27.275   8.801   4.066
49012W        W22080   3.890  29.975  12.057
49013W        W22081  26.402  19.623   1.249
49014W        W22082  23.603  40.186   4.841
49015W        W22083  37.165  26.741   0.820
49016W        W22084  33.461  21.908  13.995
49017W        W22085  14.160  32.214  13.401
49018W        W22086   7.284  26.058   3.735
49019W        W22087  36.979  11.734   3.942
49020W        W22088  26.102  27.751   0.983
49021W        W22089  23.725   7.151  13.905
49022W        W22090   5.730  34.972   3.545
49023W        W22091  16.156  14.211  14.331
49024W        W22092  21.109  36.092  13.357
49025W        W22093  14.226   1.264   1.789
49026W        W22094  19.719  44.097   2.906
49027W        W22095  29.971  35.003  14.937
49028W        W22096  11.369   6.033  13.933
49029W        W22097  31.672  31.442   3.167
49030W        W22098  44.677  24.120   1.109
49031W        W22099  30.972  21.114  11.530
49032W        W22100  37.903  14.780  12.441
49033W        W22101   5.784  12.069  13.932
49034W        W22102  33.516  26.167  12.648
49035W        W22103  29.967  29.466  11.687
49036W        W22104  41.556  35.249   0.363
49037W        W22105  20.443  21.130  12.626
49038W        W22106   3.118  40.645   2.694
49039W        W22107   7.374  28.180  14.060
49040W        W22108  35.073  44.266   0.019
49041W        W22109   3.793  41.523   4.698
49042W        W22110  20.616  41.743   1.770
49043W        W22111  10.228  23.202   3.289
49044W        W22112  40.285  39.834   1.661
49045W        W22113  28.925   6.770   3.809
49046W        W22114   6.739  20.211  12.841
49047W        W22115  19.738  11.639  11.885
49048W        W22116  29.442  13.217  13.271
49049W        W22117  23.727   7.112  12.864
49050W        W22118   4.562   6.365   2.262
49051W        W22119  32.286  37.906   1.245
49052W        W22120  22.512  18.113   4.846
49053W        W22121  28.102  35.614  13.029
49054W        W22122  44.464  16.408  13.458
49055W        W22123   3.816  33.011  12.082
49056W        W22124  32.606  41.805  13.579
49057W        W22125  13.467   6.824   1.378
49058W        W22126  43.281  22.950  11.590
49059W        W22127   0.947   4.160  14.386
49060W        W22128  25.183  14.724   3.547
49061W        W22129   8.375  34.425   2.545
49062W        W22130  22.226   8.689  14.391
49063W        W22131  26.683  36.963   4.350
49064W        W22132  20.787  21.099   4.597
49065W        W22133  42.791  12.575  13.628
49066W        W22134  20.711  19.307  10.720
49067W        W22135  19.120  42.526   1.299
49068W        W22136  15.096   5.671   0.403
49069W        W22137  12.371   8.180  11.125
49070W        W22138  15.375   5.473  14.261
49071W        W22139   3.301  30.264  12.907
49072W        W22140  27.718  18.990  12.752
49073W        W22141  18.605  32.091   0.263
49074W        W22142  18.513  16.784  11.389
49075W        W22143  13.283   9.112   1.474
49076W        W22144  35.039  33.137  12.604
49077W        W22145  27.055  42.705  13.410
49078W        W22146  19.770  41.081   4.886
49079W        W22147  32.087  10.976  12.177
49080W        W22148  15.833   5.661   0.895
49081W        W22149  37.447  40.729   3.317
49082W        W22150  14.642  17.163  13.929
49083W        W22151  38.041  24.015  12.515
49084W        W22152  25.700  41.472   4.972
49085W        W22153   6.939  22.522   2.000
49086W        W22154   1.858  33.016   1.533
49087W        W22155  18.574  43.271  11.227
49088W        W22156  24.036  26.612   0.040
49089W        W22157  19.791  23.076   2.827
49090W        W22158  25.761  28.642  11.108
49091W        W22159  24.695  27.111  11.054
49092W        W22160   4.827  15.198  10.854
49093W        W22161  16.063  32.478  12.503
49094W        W22162   7.587  15.232   1.250
49095W        W22163  38.518  26.369  13.456
49096W        W22164  17.368  34.995   3.903
49097W        W22165   6.218   7.098  13.399
49098W        W22166  30.492  25.720   4.583
49099W        W22167   5.920  21.780   0.591
49100W        W22168  33.596  41.471  13.028
49101W        W22169  33.953  30.952   3.912
49102W        W22170  18.614  26.052   2.793
49103W        W22171  44.906  12.897  12.931
49104W        W22172  21.431   6.115  11.903
49105W        W22173   4.922  31.374  14.371
49106W        W22174  22.197   2.266  11.894
49107W        W22175  36.830   8.311  13.768
49108W        W22176  38.874  40.032  11.069
49109W        W22177  16.163  13.140  13.507
49110W        W22178  11.593   0.510  13.486
49111W        W22179   2.790  14.193   4.401
49112W        W22180  25.429   9.823  14.392
49113W        W22181   4.302  14.559  14.992
49114W        W22182  11.327  28.678   3.692
49115W        W22183  16.146  10.786  14.007
49116W        W22184  15.764  24.557  12.327
49117W        W22185  15.097   3.539   4.626
49118W        W22186  43.569  13.318   4.134
49119W        W22187  38.770  18.129   2.784
49120W        W22188  17.799  10.413  14.976
49121W        W22189   4.525  38.777  13.926
49122W        W22190  40.489  20.499   2.092
49123W        W22191   5.408   4.973  14.085
49124W        W22192   8.288   0.448   3.830
49125W        W22193  28.649   7.217   0.756
49126W        W22194  20.113  24.020   0.419
49127W        W22195  13.592   6.814  10.672
49128W        W22196  17.516  19.088  13.913
49129W        W22197  40.097  10.455  11.172
49130W        W22198  31.369  35.164   1.795
49131W        W22199  15.780  23.523  13.394
49132W        W22200  16.558  20.225   4.471
49133W        W22201   1.019  10.725   2.448
49134W        W22202  38.058  39.346  13.727
49135W        W22203  38.386  43.501  14.732
49136W        W22204  10.659  42.289  11.104
49137W        W22205  38.104   8.057  11.612
49138W        W22206  38.958  38.799   1.455
49139W        W22207   4.145  16.878   4.471
49140W        W22208  23.458  18.591  10.262
49141W        W22209  31.978  21.278   5.228
49142W        W22210  19.785  10.506   1.637
49143W        W22211  23.072  37.548  14.510
49144W        W22212  25.307  39.984   5.213
49145W        W22213  34.917  33.020  11.543
49146W        W22214  13.381  14.116   1.272
49147W        W22215  12.062  39.382  11.209
49148W        W22216  26.434  17.209   2.193
49149W        W22217  13.215  25.713   4.655
49150W        W22218  11.635  18.498   0.978
49151W        W22219  18.371  22.772  10.045
49152W        W22220  39.609  26.422   4.198
49153W        W22221  17.642  32.460  11.475
49154W        W22222  28.033   6.721  11.765
49155W        W22223   3.148  40.450   4.074
49156W        W22224  31.415  25.618  14.898
49157W        W22225  32.158   2.039   0.257
49158W        W22226  41.402  32.078  10.799
49159W        W22227  31.424  32.910  10.608
49160W        W22228  12.401  43.023  12.863
49161W        W22229  17.148   5.075   0.052
49162W        W22230   9.023   5.476   1.224
49163W        W22231  29.416  40.388  12.130
49164W        W22232  31.885  37.056  11.992
49165W        W22233   4.606  32.449  14.974
49166W        W22234   3.821  20.087   4.596
49167W        W22235  32.910  20.646  10.638
49168W        W22236  13.874  10.243  12.737
49169W        W22237  24.739  24.108  12.493
49170W        W22238  18.143   2.039  13.353
49171W        W22239   7.446  41.085   4.168
49172W        W22240  37.476  14.259   2.263
49173W        W22241   0.734  40.090  13.305
49174W        W22242  25.680  11.211  11.608
49175W        W22243  41.087  43.806   1.571
49176W        W22244   5.669  28.445  11.133
49177W        W22245   6.838  34.689   4.013
49178W        W22246  12.602  17.191   4.067
49179W        W22247  42.690  37.029   3.666
49180W        W22248   9.267   4.212  12.873
49181W        W22249  32.920  21.322  13.336
49182W        W22250  36.903  16.135  10.681
49183W        W22251  27.519  25.025  14.557
49184W        W22252   9.847   5.319   2.236
49185W        W22253  41.395  37.982   1.601
49186W        W22254  38.571  34.484  13.871
49187W        W22255  22.569  25.397   1.659
49188W        W22256   8.553  21.726  10.701
49189W        W22257  21.230  22.074   4.289
49190W        W22258   4.231  29.104  12.086
49191W        W22259  16.807  16.295   3.256
49192W        W22260  25.247  15.345  11.561
49193W        W22261  37.020  15.127   3.222
49194W        W22262  36.613  26.546  11.839
49195W        W22263  36.568  17.736   2.863
49196W        W22264  24.513  25.077  11.479
49197W        W22265  41.415   5.879   0.385
49198W        W22266  32.986  27.081  12.462
49199W        W22267   5.308  27.729   2.169
49200W        W22268  39.651  24.023  12.021
49201W        W22269  20.868  19.665  11.228
49202W        W22270  24.984  27.370   3.983
49203W        W22271   0.287  37.298  14.436
49204W        W22272  32.080  27.127   0.913
49205W        W22273  36.139  11.483   4.996
49206W        W22274  29.349   9.830   4.260
49207W        W22275  23.225  28.881  11.589
49208W        W22276  40.303  37.038   4.072
49209W        W22277  44.125  23.068   2.615
49210W        W22278  31.698  42.756  14.001
49211W        W22279  42.811  18.345  12.873
49212W        W22280  19.229  37.009   4.683
49213W        W22281  40.948  42.533  12.906
49214W        W22282  13.094  39.452   1.771
49215W        W22283  33.680  16.385  13.344
49216W        W22284  22.566  22.675  10.542
49217W        W22285   0.446  30.914  11.839
49218W        W22286  11.121  35.906   0.908
49219W        W22287   9.289  34.999   2.413
49220W        W22288   1.276  18.108   0.223
49221W        W22289  28.231  43.000  10.512
49222W        W22290  25.688   6.631   4.195
49223W        W22291  44.889  11.370  14.045
49224W        W22292  11.231  33.847   4.738
49225W        W22293  17.500  17.864  12.838
49226W        W22294  40.909  31.593  13.333
49227W        W22295   6.209  18.117  10.553
49228W        W22296  42.809  37.909   0.962
49229W        W22297  26.567   8.840   1.815
49230W        W22298  37.859  18.991   2.322
49231W        W22299  21.621  27.621   0.302
49232W        W22300  24.243  26.982   0.988
49233W        W22301  19.663   1.294  12.850
49234W        W22302  38.165   0.789  11.938
49235W        W22303  42.390  21.796  12.341
49236W        W22304  15.033  30.763  12.492
49237W        W22305  40.550   1.153  14.320
49238W        W22306   7.418  13.556  11.075
49239W        W22307   9.741  38.403   0.948
49240W        W22308   5.283   4.531  13.857
49241W        W22309  39.090  29.121   1.263
49242W        W22310  38.175  22.415   0.910
49243W        W22311  22.067  20.500  11.756
49244W        W22312  41.186  28.664  11.604
49245W        W22313  29.447   0.382  13.277
49246W        W22314  25.656  39.403  14.218
49247W        W22315  35.435   6.681   1.963
49248W        W22316  35.552   5.879  10.708
49249W        W22317  10.379  44.872   2.297
49250W        W22318  26.387  28.149   4.750
49251W        W22319  16.687  32.543   2.879
49252W        W22320  26.250  33.061   0.465
49253W        W22321  24.509  12.717   4.556
49254W        W22322  27.157  32.035  13.885
49255W        W22323   5.922  28.963  12.051
49256W        W22324  21.755  36.871  10.481
49257W        W22325   4.331  17.630   4.992
49258W        W22326  36.927   8.130  14.698
49259W        W22327   6.359  27.206  12.145
49260W        W22328  21.997   7.173  13.857
49261W        W22329  34.292  22.737   1.277
49262W        W22330  36.517  32.090   1.802
49263W        W22331  39.637  36.626  14.590
49264W        W22332  11.110   9.440   1.884
49265W        W22333   6.643  33.014   2.660
49266W        W22334  15.591  17.296  12.144
49267W        W22335  40.806  38.700  14.814
49268W        W22336   2.974  38.989  14.011
49269W        W22337  17.588  30.177  14.307
49270W        W22338  44.946  19.292  14.471
49271W        W22339  23.008  23.878  14.938
49272W        W22340   6.145  43.009  11.572
49273W        W22341   3.233  43.571   1.709
49274W        W22342  17.671  37.039   3.637
49275W        W22343   1.865   4.193   4.586
49276W        W22344  10.005  11.689  14.427
49277W        W22345   5.978  38.314  13.315
49278W        W22346  36.848   6.935   0.728
49279W        W22347   1.296  13.213   0.838
49280W        W22348  15.580  43.473  14.871
49281W        W22349  28.516   4.997   0.247
49282W        W22350  34.018  33.977   0.431
49283W        W22351  11.622  20.693  12.952
49284W        W22352  29.643  20.213   0.336
49285W        W22353  38.887  21.815  11.080
49286W        W22354  40.793  28.207   2.727
49287W        W22355  15.171  14.750   4.718
49288W        W22356  24.231  32.267   0.873
49289W        W22357  20.080  20.662   1.726
49290W        W22358   6.894   2.155   1.968
49291W        W22359  26.090  12.783   3.272
49292W        W22360  14.575  30.952   0.328
49293W        W22361  11.613  44.291  14.271
49294W        W22362  15.605  32.074  13.810
49295W        W22363  11.669  16.071   2.229
49296W        W22364  40.677  14.309   1.861
49297W        W22365  39.443  43.987  12.012
49298W        W22366  10.552   0.836   0.986
49299W        W22367  17.629   2.461   2.005
49300W        W22368  26.492  13.265   0.698
49301W        W22369  38.567  22.746   2.898
49302W        W22370  43.450  10.185  12.009
49303W        W22371  24.471   2.490   4.166
49304W        W22372  29.059   7.444  13.413
49305W        W22373  17.004   8.979   2.847
49306W        W22374   8.416  11.671   1.430
49307W        W22375  10.683  31.399  12.410
49308W        W22376  29.621   5.628  12.018
49309W        W22377  26.168  14.687  11.520
49310W        W22378  21.267   0.249  12.371
49311W        W22379  33.380  27.355   1.993
49312W        W22380   8.683  15.527   3.270
49313W        W22381  17.372  26.343  14.241
49314W        W22382  18.787  28.051  11.505
49315W        W22383  28.222  26.495   1.880
49316W        W22384  23.843  43.904  11.053
49317W        W22385  43.422  26.415  14.315
49318W        W22386   4.675   8.389   2.335
49319W        W22387  27.080  34.774  11.224
49320W        W22388  27.065  10.373   1.348
49321W        W22389  36.204  41.636   2.154
49322W        W22390   8.424  11.598  13.562
49323W        W22391  19.672  22.667  12.075
49324W        W22392  18.702  39.673   0.282
49325W        W22393   5.546   6.517   3.092
49326W        W22394  28.851   3.196  10.781
49327W        W22395  40.081   1.338  14.430
49328W        W22396  27.192  11.686   2.869
49329W        W22397   0.035  33.290  11.581
49330W        W22398   8.734  33.973  10.662
49331W        W22399  36.549  44.947   1.050
49332W        W22400   5.576  10.218   2.329
49333W        W22401  41.882  17.851   1.298
49334W        W22402  31.937   7.301   4.936
49335W        W22403  23.219  36.940   4.385
49336W        W22404   7.425   9.769   3.986
49337W        W22405   7.504   4.400  10.665
49338W        W22406  21.990  20.073   3.886
49339W        W22407  20.509  22.182   1.346
49340W        W22408  16.675   5.875  14.739
49341W        W22409  13.629  41.096   3.360
49342W        W22410  31.580  39.459   1.921
49343W        W22411   1.242   9.197   0.028
49344W        W22412  18.784  34.984   0.746
49345W        W22413  26.317  23.518  13.614
49346W        W22414  26.422  21.303   0.515
49347W        W22415  16.062  38.628   3.236
49348W        W22416  40.968  40.815   2.817
49349W        W22417  22.334  21.994  13.411
49350W        W22418  38.539  13.257   4.654
49351W        W22419  21.564  33.583  11.533
49352W        W22420  19.534  29.570   1.875
49353W        W22421  20.750  27.539   0.872
49354W        W22422  15.407   3.672  11.418
49355W        W22423  28.811  17.816  11.256
49356W        W22424  12.315  26.936  11.974
49357W        W22425  34.945  13.923  12.979
49358W        W22426  36.525  34.566   0.210
49359W        W22427  18.459  40.387  14.927
49360W        W22428  10.209  31.125   2.303
49361W        W22429  38.484  19.745  10.471
49362W        W22430  20.979  23.035   3.433
49363W        W22431  24.040   8.804  14.851
49364W        W22432  22.445   4.458   2.629
49365W        W22433   0.415  39.987   2.243
49366W        W22434  31.073   8.476  14.055
49367W        W22435  13.210  41.645   1.713
49368W        W22436  43.456  40.230   2.825
49369W        W22437  34.695   3.155  12.427
49370W        W22438  19.327   6.648  14.056
49371W        W22439  29.005  32.845   0.827
49372W        W22440  21.181  43.987   3.288
49373W        W22441  34.930  35.853  12.401
49374W        W22442  28.898  20.345  10.576
49375W        W22443   6.186  11.310  14.936
49376W        W22444   9.273  43.292  10.719
49377W        W22445  23.618  42.900  14.041
49378W        W22446  37.809  28.574   1.941
49379W        W22447  37.870   5.904   3.782
49380W        W22448  14.303  34.900   0.821
49381W        W22449   7.715  12.170  14.447
49382W        W22450  37.154  39.837  14.453
49383W        W22451  44.227  44.478  12.447
49384W        W22452  12.026  35.576   3.307
49385W        W22453  44.191  19.093   0.734
49386W        W22454   6.839  36.240   1.931
49387W        W22455   8.613  30.463   1.855
49388W        W22456  44.483  21.926   4.168
49389W        W22457  42.392  14.055   4.163
49390W        W22458  42.429  42.825   0.513
49391W        W22459  31.383  36.828   3.977
49392W        W22460  18.671   1.140   0.449
49393W        W22461  17.003   3.232   0.446
49394W        W22462  10.417  19.261   3.261
49395W        W22463  37.327  18.931  14.493
49396W        W22464  13.090  35.450  13.129
49397W        W22465  25.949  32.505  12.752
49398W        W22466  11.872  43.023  11.530
49399W        W22467  44.401   1.983   0.279
49400W        W22468   0.009   0.310   0.853
49401W        W22469  24.121   7.845  12.175
49402W        W22470   7.761  16.758  10.324
49403W        W22471  31.080   0.425   4.206
49404W        W22472  18.603  44.377   3.419
49405W        W22473  21.162  16.013  11.836
49406W        W22474  27.978  42.509  11.883
49407W        W22475  38.739  42.554   0.789
49408W        W22476  38.339  23.079   1.882
49409W        W22477  25.172  16.080  12.880
49410W        W22478  10.158  42.010   4.993
49411W        W22479  17.441   4.700   9.868
49412W        W22480  43.719   2.883  11.168
49413W        W22481  12.135  44.533   0.279
49414W        W22482  24.918  34.756   4.267
49415W        W22483  39.336  19.828  14.081
49416W        W22484  12.582  17.702   4.210
49417W        W22485  17.617  42.167  13.926
49418W        W22486  36.337  27.001  12.072
49419W        W22487  26.908  12.276   0.232
49420W        W22488  28.467  24.682   4.438
49421W        W22489  29.992   8.745  14.449
49422W        W22490  41.904  15.925  13.076
49423W        W22491  37.167   2.526  10.751
49424W        W22492  39.530   7.748   5.124
49425W        W22493  35.809  34.404  12.524
49426W        W22494   5.811  14.481  12.300
49427W        W22495  27.395  25.050   1.858
49428W        W22496  31.111  23.997  12.561
49429W        W22497  14.128  26.963   2.074
49430W        W22498   7.352  23.482   4.117
49431W        W22499   6.413  30.815   2.517
49432W        W22500  34.094  21.062  12.994
49433W        W22501   7.411  12.692  11.095
49434W        W22502  29.463  13.148   0.833
49435W        W22503   8.657  44.753  14.392
49436W        W22504  11.823   2.075   3.678
49437W        W22505  28.856  33.463  14.199
49438W        W22506  44.357  36.049  10.300
49439W        W22507  38.342   0.821  14.367
49440W        W22508  18.414   0.849  12.607
49441W        W22509  16.002  26.853   0.353
49442W        W22510  15.217  42.871  13.923
49443W        W22511  23.990  19.064  14.044
49444W        W22512  20.350  29.669  13.838
49445W        W22513  42.940   4.463  10.619
49446W        W22514  20.617   2.384   0.320
49447W        W22515  16.164  29.679  14.363
49448W        W22516  17.179   0.900   1.276
49449W        W22517  15.125  40.888  14.995
49450W        W22518   1.874  36.453   4.715
49451W        W22519  43.218  17.151   4.529
49452W        W22520   5.323  31.399   4.364
49453W        W22521  39.750  21.236   1.820
49454W        W22522  34.625  24.125   2.442
49455W        W22523  27.367  10.706   1.089
49456W        W22524  32.952  22.017   3.161
49457W        W22525  34.971  31.878  12.873
49458W        W22526   1.373  39.276   3.435
49459W        W22527  24.914  40.023   2.806
49460W        W22528   8.019  31.445   2.421
49461W        W22529  26.068  37.767   2.808
49462W        W22530  22.576  27.591  14.042
49463W        W22531  16.606   1.748   1.373
49464W        W22532   0.807  27.368   2.339
49465W        W22533  13.724  36.535   1.824
49466W        W22534  13.326  35.507   2.950
49467W        W22535   8.682   6.247   0.830
49468W        W22536  20.631  39.871   1.466
49469W        W22537  20.664  18.807   2.272
49470W        W22538   8.250  39.778   3.257
49471W        W22539  20.705   4.939  14.942
49472W        W22540  41.326  32.557  13.067
49473W        W22541  34.074  30.103   0.278
49474W        W22542  20.529  19.041   4.151
49475W        W22543  19.494   0.618  12.027
49476W        W22544  21.764  44.501  10.532
49477W        W22545  26.519   2.974   2.327
49478W        W22546  39.901  29.979   0.904
49479W        W22547  41.873  44.043  14.868
49480W        W22548  19.499   4.732  12.542
49481W        W22549  30.474  41.036   0.264
49482W        W22550  44.671  12.362  11.514
49483W        W22551  25.168   9.216   1.880
49484W        W22552  15.652   5.379   3.364
49485W        W22553  43.781  16.987  10.627
49486W        W22554  30.581  36.868   3.833
49487W        W22555  40.390   9.594   0.733
49488W        W22556  39.608  30.913  13.718
49489W        W22557  32.372   8.881   1.925
49490W        W22558  12.817  27.733  13.215
49491W        W22559  44.953   4.510  11.561
49492W        W22560  31.501   6.838  14.527
49493W        W22561  17.147  26.561   1.761
49494W        W22562  14.607  35.793  14.837
49495W        W22563  24.172  35.509   1.710
49496W        W22564  30.964   8.649   2.242
49497W        W22565   1.083  27.169   2.724
49498W        W22566  42.072  33.331  11.205
49499W        W22567  28.877   7.903  10.686
49500W        W22568  41.625  14.839   4.765
49501W        W22569  34.888  33.586   1.798
49502W        W22570  37.997   0.812  13.983
49503W        W22571  41.955   8.815  12.538
49504W        W22572   0.308   3.647  11.487
49505W        W22573  19.126  18.100   4.397
49506W        W22574  22.227  11.339  14.750
49507W        W22575  42.312  24.619   1.801
49508W        W22576  11.595  19.025   2.265
49509W        W22577  42.761  19.061   2.425
49510W        W22578  24.169  42.059   4.555
49511W        W22579  27.572  19.114   4.598
49512W        W22580   1.649  41.871  10.718
49513W        W22581  23.796  37.370   1.883
49514W        W22582  19.414  17.041   0.279
49515W        W22583  21.512  40.037   2.772
49516W        W22584  35.140  17.820   1.366
49517W        W22585  14.541  32.148  13.992
49518W        W22586  29.574   9.400   4.416
49519W        W22587  42.308  35.426   1.203
49520W        W22588   9.092   6.415  12.553
49521W        W22589  35.838  33.902   1.701
49522W        W22590  26.653  38.405   0.837
49523W        W22591  23.103  25.576   4.623
49524W        W22592  38.907  43.357  13.058
49525W        W22593  32.320  10.980   2.664
49526W        W22594   0.229  34.993  14.345
49527W        W22595  25.326  18.657   1.179
49528W        W22596  16.251  36.274  14.751
49529W        W22597  36.650  28.931   1.411
49530W        W22598  41.547  27.511   1.892
49531W        W22599  17.060   8.878   3.720
49532W        W22600  18.139  35.405  13.944
49533W        W22601  25.110  31.429  11.427
49534W        W22602  35.958  20.710  14.943
49535W        W22603  33.422  14.648  14.465
49536W        W22604  31.375  38.880  11.545
49537W        W22605  29.023  24.587   4.507
49538W        W22606  13.742  20.735   4.156
49539W        W22607   0.300  10.595   1.272
49540W        W22608   1.358  35.533  11.703
49541W        W22609  19.067  32.980  12.614
49542W        W22610  16.794  23.665  11.290
49543W        W22611  17.766  19.540  13.819
49544W        W22612  41.356   4.841  12.507
49545W        W22613  10.611  14.346   2.318
49546W        W22614  18.323  16.536   4.568
49547W        W22615  23.350  30.606  11.973
49548W        W22616  42.040  28.550   3.851
49549W        W22617   1.227  14.789   2.738
49550W        W22618  29.460  28.507   2.704
49551W        W22619  24.525   6.899   3.282
49552W        W22620  27.464  26.096  13.330
49553W        W22621  25.199  23.210   4.745
49554W        W22622   9.199  40.269  14.384
49555W        W22623  26.484   3.639  11.155
49556W        W22624  11.598  21.166  11.204
49557W        W22625  17.694  17.315   0.409
49558W        W22626  43.825   7.786   1.588
49559W        W22627   5.204  37.523  12.792
49560W        W22628   9.149  11.352   4.488
49561W        W22629   8.145  33.159   2.818
49562W        W22630   9.326  30.116   2.058
49563W        W22631  41.882  40.837  11.177
49564W        W22632  44.459  44.810   4.575
49565W        W22633  10.677  31.028   4.931
49566W        W22634  29.197  42.955  12.483
49567W        W22635  42.462   5.453   0.166
49568W        W22636   2.906  15.497   4.903
49569W        W22637  21.585   6.972   5.086
49570W        W22638  11.081  38.377   2.166
49571W        W22639   1.406  38.977   1.225
49572W        W22640  25.685   1.937  14.905
49573W        W22641  27.967  11.097  13.434
49574W        W22642  33.416  13.198   3.144
49575W        W22643  15.644  29.820   4.592
49576W        W22644   8.786  31.751   0.969
49577W        W22645  13.596  36.091  11.987
49578W        W22646   5.408  16.771  12.095
49579W        W22647  33.917  32.497  10.712
49580W        W22648  41.893  37.677   4.481
49581W        W22649  39.843  37.399  14.995
49582W        W22650  15.175   6.491  12.396
49583W        W22651  31.106  12.814  10.681
49584W        W22652  17.828   9.203  13.680
49585W        W22653   5.783  30.685   3.771
49586W        W22654  21.121  33.045   2.761
49587W        W22655  42.613  16.178   5.112
49588W        W22656  12.610  39.956  14.335
49589W        W22657  15.791  10.588  12.643
49590W        W22658  41.927  30.247  14.925
49591W        W22659  17.602  41.953   3.848
49592W        W22660   5.325  27.640  13.481
49593W        W22661  11.739  34.269   3.576
49594W        W22662  32.084  29.318  12.457
49595W        W22663  43.948  40.748  12.085
49596W        W22664  24.047  28.153   4.632
49597W        W22665  33.746   4.779   4.523
49598W        W22666  39.371  25.296   0.301
49599W        W22667  21.923  39.086  11.396
49600W        W22668   4.716  21.750  10.177
49601W        W22669  41.331  26.394   1.198
49602W        W22670   2.673  18.479   3.253
49603W        W22671  13.834  33.983   0.692
49604W        W22672  38.061  28.671  11.582
49605W        W22673  17.146  40.731  10.889
49606W        W22674  39.248  44.558   3.708
49607W        W22675  32.910  34.975  12.404
49608W        W22676  13.888  18.062   3.819
49609W        W22677  27.030  40.751  11.150
49610W        W22678  17.590  41.256   2.188
49611W        W22679  14.019  21.688   2.691
49612W        W22680  41.331  26.591  12.837
49613W        W22681  43.533  16.346   1.675
49614W        W22682  34.877  28.604   0.399
49615W        W22683  41.784  40.391  10.906
49616W        W22684  29.392  37.876   5.163
49617W        W22685  12.350  26.763   4.484
49618W        W22686  32.001  29.669   2.662
49619W        W22687   2.260   2.475  14.537
49620W        W22688   4.452  42.846  14.764
49621W        W22689  18.283  23.675  12.102
49622W        W22690   0.313  21.672   0.928
49623W        W22691   7.946   0.986   4.463
49624W        W22692  38.499  18.329  12.017
49625W        W22693  21.963  26.102   4.269
49626W        W22694  33.374  22.801   1.465
49627W        W22695   6.133  33.766  12.574
49628W        W22696  25.630  43.213  12.150
49629W        W22697   3.897   3.282  12.937
49630W        W22698  41.324  21.215  12.437
49631W        W22699  24.613  29.060   1.538
49632W        W22700   0.279  17.324  14.977
49633W        W22701   5.595  29.016  14.888
49634W        W22702   9.559   5.273   0.360
49635W        W22703  40.098   9.741   2.767
49636W        W22704  37.650  11.911   1.593
49637W        W22705   1.212   0.250   1.239
49638W        W22706  33.081  27.600   2.828
49639W        W22707  28.595   7.697  13.501
49640W        W22708  12.091  10.366   0.980
49641W        W22709  43.049  30.948  12.215
49642W        W22710  20.709  41.462  14.706
49643W        W22711  14.792  38.549  14.856
49644W        W22712  30.922  11.531   3.372
49645W        W22713  23.693  38.334  14.868
49646W        W22714  37.808  32.383  14.266
49647W        W22715  38.309  17.950   1.422
49648W        W22716  15.086  16.596   0.002
49649W        W22717  36.434   7.656  12.470
49650W        W22718  39.250   8.977   0.818
49651W        W22719   6.022  41.184   3.321
49652W        W22720   5.695   6.296  12.417
49653W        W22721  17.344  28.844   3.888
49654W        W22722   6.560  31.893  12.815
49655W        W22723   5.687   9.645   3.859
49656W        W22724  13.124  35.483   0.503
49657W        W22725   2.715  10.946   2.070
49658W        W22726  35.505   1.639  11.659
49659W        W22727  44.559  39.331  13.363
49660W        W22728  37.757   4.448  14.888
49661W        W22729   8.847  15.696   3.790
49662W        W22730  37.983  41.017   4.141
49663W        W22731  13.623  11.423  14.468
49664W        W22732  19.280  10.604   2.807
49665W        W22733  29.571  40.490   4.457
49666W        W22734  42.354  38.478   3.609
49667W        W22735  18.040  33.349   2.713
49668W        W22736  41.560   5.906   1.737
49669W        W22737  17.565   1.018  14.491
49670W        W22738  15.794  44.896  10.987
49671W        W22739  22.979  13.291  11.304
49672W        W22740  23.516  18.529  13.323
49673W        W22741   9.455  39.673  14.945
49674W        W22742  40.819  37.751  11.663
49675W        W22743  26.144  29.552  11.945
49676W        W22744  15.700  36.293   3.171
49677W        W22745   2.896  33.616  11.472
49678W        W22746  10.168  34.138   5.068
49679W        W22747  42.696  25.794  11.183
49680W        W22748  22.028  43.277   2.301
49681W        W22749  20.661   2.894  14.887
49682W        W22750   2.960  14.547  13.996
49683W        W22751  17.871  39.907   0.382
49684W        W22752  39.480  42.973   4.169
49685W        W22753  23.456  24.232   4.707
49686W        W22754  35.908   7.674   3.622
49687W        W22755  28.899  16.793   3.218
49688W        W22756  25.058  16.812  11.454
49689W        W22757  42.811  31.551   3.639
49690W        W22758  22.010  31.938  11.145
49691W        W22759  25.755  23.135  11.582
49692W        W22760  42.187  30.458  10.402
49693W        W22761  39.872   9.740   2.296
49694W        W22762  22.096  36.442   0.285
49695W        W22763  39.659  29.551  14.773
49696W        W22764  37.849  10.477  11.571
49697W        W22765  18.966  33.434  12.350
49698W        W22766  42.435  10.419  11.497
49699W        W22767  38.997   1.414   3.699
49700W        W22768  20.841  11.614  14.826
49701W        W22769  23.549  36.165  11.371
49702W        W22770  32.246  44.048  11.062
49703W        W22771  21.287  33.872   1.030
49704W        W22772  13.612  27.546  12.871
49705W        W22773  24.679  36.868  10.546
49706W        W22774   2.853  20.080  12.814
49707W        W22775  32.550  10.874  11.006
49708W        W22776  42.865  20.548   0.778
49709W        W22777   0.805  39.386  12.491
49710W        W22778  41.440  23.960  12.934
49711W        W22779  42.976  22.209   1.861
49712W        W22780  27.865   2.967  14.829
49713W        W22781  12.678   6.597  13.517
49714W        W22782  23.635   7.370   1.659
49715W        W22783   2.646  35.509   1.852
49716W        W22784  28.595  29.187  11.631
49717W        W22785  26.048  42.622  10.996
49718W        W22786  11.446  29.708  12.111
49719W        W22787   6.321  35.284  12.372
49720W        W22788  16.322  40.789  13.908
49721W        W22789  30.258  42.330   2.684
49722W        W22790  16.768   3.564  10.697
49723W        W22791  21.259  14.680   1.203
49724W        W22792  11.130  14.754   4.454
49725W        W22793  27.422  14.653   0.951
49726W        W22794  37.809  12.354   1.793
49727W        W22795   9.628  27.491  12.554
49728W        W22796   1.059  10.705  11.561
49729W        W22797   0.433  11.366   2.072
49730W        W22798   0.356  19.304   4.621
49731W        W22799  41.787  34.137   0.321
49732W        W22800   0.237  10.288  11.652
49733W        W22801  27.203  30.467  11.141
49734W        W22802  14.170   6.600  13.458
49735W        W22803  34.422   4.273  12.082
49736W        W22804   4.182  36.287  14.257
49737W        W22805  27.516   5.879  14.847
49738W        W22806  32.060  41.516   4.664
49739W        W22807  22.117  11.024   2.756
49740W        W22808  12.502  32.193  10.129
49741W        W22809  33.442  28.887   0.398
49742W        W22810  25.690  23.477  12.544
49743W        W22811  24.468   9.934  10.723
49744W        W22812  25.050  28.868   1.792
49745W        W22813  24.366  29.366   0.775
49746W        W22814  11.806  34.215  12.468
49747W        W22815  25.557  10.895   1.884
49748W        W22816  37.213  11.722  13.399
49749W        W22817  24.723  24.599  11.554
49750W        W22818   2.854   1.416  14.934
49751W        W22819   8.597  14.179  13.325
49752W        W22820  27.497  44.286  14.331
49753W        W22821   7.332  14.254  14.483
49754W        W22822  44.407  31.854  10.640
49755W        W22823   5.896  13.650  10.937
49756W        W22824  34.406  28.403   0.238
49757W        W22825  27.055  14.879  10.720
49758W        W22826  32.473  28.285  14.403
49759W        W22827  11.633  12.624   3.420
49760W        W22828  23.271  17.044   5.031
49761W        W22829   3.851  33.472   0.030
49762W        W22830  40.285  20.213  11.248
49763W        W22831  38.888  17.627   1.460
49764W        W22832  12.372   9.623  14.593
49765W        W22833   3.928  19.652   3.193
49766W        W22834   7.102   9.287   1.804
49767W        W22835  21.275  26.728   1.729
49768W        W22836  11.127  28.606  12.546
49769W        W22837  22.124   9.272  14.461
49770W        W22838  28.155  14.731  12.180
49771W        W22839  14.176  11.817   5.277
49772W        W22840  28.519  44.037   2.306
49773W        W22841  27.242   5.012   4.117
49774W        W22842  35.748  17.260   3.265
49775W        W22843  15.510   1.502  11.058
49776W        W22844  36.625   7.711   3.215
49777W        W22845  42.050   4.520   4.862
49778W        W22846   2.938  14.791   2.171
49779W        W22847  40.975  35.167   2.116
49780W        W22848   0.008   1.311  11.564
49781W        W22849  24.477   0.308   2.670
49782W        W22850   0.212  39.808   2.671
49783W        W22851  27.628  31.930   1.893
49784W        W22852  22.718  35.861  10.708
49785W        W22853  15.585  22.556   4.111
49786W        W22854  21.547  26.505  13.894
49787W        W22855  43.335  29.551  12.923
49788W        W22856  30.526  40.392  12.425
49789W        W22857  22.814  36.786   0.483
49790W        W22858  39.246  37.129  11.141
49791W        W22859  24.070   6.787   4.534
49792W        W22860  41.977  13.702  11.206
49793W        W22861  40.472  39.341   3.165
49794W        W22862  31.883  22.708  11.607
49795W        W22863  36.909  11.048   1.627
49796W        W22864  35.378   9.897   2.705
49797W        W22865   9.818  18.308  10.575
49798W        W22866  25.059  35.505   0.756
49799W        W22867  24.509  20.325  13.140
49800W        W22868  15.806  39.389  12.052
49801W        W22869  38.623  14.300  10.614
49802W        W22870   1.785  43.515  11.093
49803W        W22871  30.497  32.697   1.871
49804W        W22872  42.963  34.962   3.185
49805W        W22873  10.592   7.142   4.569
49806W        W22874  41.970  41.148   4.898
49807W        W22875   5.549  29.641   4.177
49808W        W22876  13.144   9.302  10.746
49809W        W22877  23.189  20.498  11.972
49810W        W22878  37.450  44.106  12.591
49811W        W22879  27.148  34.742   2.964
49812W        W22880  19.043  30.777  10.259
49813W        W22881   7.706  16.086  14.818
49814W        W22882  16.566  18.192   0.261
49815W        W22883  12.709  42.424  11.164
49816W        W22884  25.119  11.222  12.694
49817W        W22885   0.937  27.055  13.169
49818W        W22886   7.816  23.999   2.757
49819W        W22887   5.479  44.789  14.428
49820W        W22888  11.337   7.329   3.056
49821W        W22889  41.409   3.433   0.962
49822W        W22890   7.160   0.000   3.722
49823W        W22891  40.395  27.874   2.810
49824W        W22892  39.364  17.012  10.619
49825W        W22893  27.211  31.543   3.225
49826W        W22894  44.504  17.413   2.398
49827W        W22895  29.865   9.413   0.331
49828W        W22896   6.773  30.434   1.274
49829W        W22897  34.398  39.848  14.788
49830W        W22898  23.036  17.133   3.377
49831W        W22899   8.800  38.620   0.787
49832W        W22900   6.830  43.209   0.139
49833W        W22901  44.007   7.646  12.558
49834W        W22902  27.744  31.524   4.105
49835W        W22903   8.200  23.559  14.835
49836W        W22904  41.845  35.361   3.611
49837W        W22905   2.437  17.413   4.156
49838W        W22906  40.960  27.174   3.109
49839W        W22907  44.834  27.522  12.026
49840W        W22908  21.710  33.099  13.289
49841W        W22909  38.965  12.667  11.067
49842W        W22910   2.317  41.130   1.427
49843W        W22911  34.833   3.359   0.027
49844W        W22912  33.170   0.212   2.296
49845W        W22913  37.274  11.588  12.058
49846W        W22914   3.140  25.926  13.214
49847W        W22915  35.469  29.277   4.481
49848W        W22916   4.080  26.050   2.056
49849W        W22917  40.905   4.296   2.160
49850W        W22918  43.653   0.755  10.598
49851W        W22919  17.604   1.805   0.185
49852W        W22920   6.943  38.699  11.927
49853W        W22921  43.311  22.567  13.904
49854W        W22922   9.381   7.584   1.752
49855W        W22923  35.454  40.316   1.884
49856W        W22924  16.699  16.175   4.253
49857W        W22925  37.164  24.763   0.923
49858W        W22926  20.630  15.388  11.520
49859W        W22927   9.756  37.959   2.189
49860W        W22928   7.106  27.140  11.465
49861W        W22929  25.940  16.636   3.636
49862W        W22930   6.866  12.346   1.815
49863W        W22931  25.912  27.050   3.375
49864W        W22932  13.630  33.073   1.814
49865W        W22933  18.317  35.529   2.628
49866W        W22934  39.392  33.874  11.514
49867W        W22935  13.815   3.954   3.892
49868W        W22936  42.651   1.236  13.631
49869W        W22937   8.647   0.042   3.034
49870W        W22938  25.520  41.945   3.876
49871W        W22939  19.623   7.066  10.637
49872W        W22940  20.590  15.789  13.751
49873W        W22941  17.891  22.905   3.644
49874W        W22942  19.108  10.868   2.401
49875W        W22943  37.345   8.010  10.585
49876W        W22944  33.229  40.065   3.150
49877W        W22945  16.518   1.796  12.619
49878W        W22946  36.572   2.878  13.476
49879W        W22947  25.909  15.362  12.630
49880W        W22948  40.206  17.957   3.085
49881W        W22949  40.665  15.849   2.631
49882W        W22950  11.735   3.175   0.213
49883W        W22951   0.942  25.487  14.496
49884W        W22952  19.469   6.355  13.403
49885W        W22953  11.829   9.779   0.309
49886W        W22954  30.250  43.861  13.323
49887W        W22955  19.183   0.264  14.074
49888W        W22956  16.488  36.084  14.270
49889W        W22957  41.543  12.826   3.331
49890W        W22958   8.722   3.118   0.417
49891W        W22959  44.475  13.711  11.113
49892W        W22960  33.876  19.814   2.268
49893W        W22961  23.554   5.123   2.859
49894W        W22962  39.479  21.322   2.262
49895W        W22963  11.949  19.400   2.207
49896W        W22964  33.579  42.505  11.603
49897W        W22965  14.328  20.368  13.802
49898W        W22966   7.975  39.525   9.772
49899W        W22967   8.205   8.189  12.991
49900W        W22968  24.097  16.819   9.995
49901W        W22969  39.366   4.346  13.257
49902W        W22970  13.180  17.776  12.511
49903W        W22971  12.212  35.578  13.472
49904W        W22972  23.443  30.862   1.867
49905W        W22973   0.410   7.670   2.188
49906W        W22974   4.463   4.113   1.148
49907W        W22975  33.636   5.672  14.666
49908W        W22976  20.549  28.682   0.740
49909W        W22977  17.857  12.461  14.011
49910W        W22978  43.443  33.911  12.531
49911W        W22979   4.911  18.182   2.735
49912W        W22980  17.197  14.127   4.107
49913W        W22981  24.506  24.430  11.116
49914W        W22982  37.574  43.731  10.657
49915W        W22983   0.936  40.132  11.153
49916W        W22984  39.911  40.461  10.763
49917W        W22985  16.350  14.664   1.550
49918W        W22986  22.626   3.278  12.568
49919W        W22987  17.122  38.346  14.858
49920W        W22988   0.752  33.193  14.339
49921W        W22989  40.954  30.043  14.828
49922W        W22990   0.731   4.780   1.291
49923W        W22991  39.674  28.716   4.946
49924W        W22992  32.523  10.054   1.364
49925W        W22993  44.758   2.955  14.279
49926W        W22994  33.984  11.396   1.150
49927W        W22995   0.037  38.633   4.194
49928W        W22996  20.282  41.391  13.443
49929W        W22997   9.934   1.247  13.321
49930W        W22998  26.108  35.215   4.280
49931W        W22999  41.395   0.293   4.184
49932W        W23000  29.914  24.228   4.377
49933W        W23001  11.302  27.908   3.223
49934W        W23002   1.084   7.468  13.475
49935W        W23003  23.690  18.595   0.296
49936W        W23004  18.115  22.630   3.197
49937W        W23005  17.037  25.731   4.865
49938W        W23006   8.862   7.968   4.862
49939W        W23007   6.261   4.947  11.695
49940W        W23008  33.962  41.738  11.397
49941W        W23009  23.285  19.485   5.556
49942W        W23010  31.646  11.920  14.087
49943W        W23011  37.543   2.327  12.379
49944W        W23012  10.220  29.623   4.113
49945W        W23013  28.311  41.482   4.188
49946W        W23014  26.638  13.652  11.959
49947W        W23015  14.283  36.809   1.066
49948W        W23016  23.808  43.666   0.233
49949W        W23017   8.921  43.248   2.365
49950W        W23018  42.222  18.100  11.467
49951W        W23019  26.530  43.302  11.006
49952W        W23020  41.881   0.361  12.976
49953W        W23021  26.058  40.287   4.683
49954W        W23022  37.999  21.313   1.840
49955W        W23023  24.019  10.182  10.889
49956W        W23024  30.621  12.760   2.752
49957W        W23025  11.202  32.421   0.775
49958W        W23026  16.759  44.307  11.904
49959W        W23027  39.891   2.713   1.180
49960W        W23028  37.803  17.933  11.064
49961W        W23029  11.935  29.495   4.612
49962W        W23030  33.637  34.449   1.928
49963W        W23031   4.750  14.348  11.104
49964W        W23032   1.184  19.286  14.790
49965W        W23033  11.809  16.293  13.619
49966W        W23034   0.790   3.380   1.643
49967W        W23035  43.825  14.819  12.338
49968W        W23036   3.396   8.406  10.706
49969W        W23037  37.131  11.907  11.141
49970W        W23038  20.217  27.878   0.135
49971W        W23039   6.207  30.396   2.703
49972W        W23040  25.135   2.939   0.522
49973W        W23041  35.678   9.780   0.754
49974W        W23042  18.559  12.731   3.645
49975W        W23043  20.548  37.519  13.539
49976W        W23044  11.885  31.649   3.803
49977W        W23045  44.063  37.450   3.217
49978W        W23046   1.487  20.592  10.787
49979W        W23047  40.283  42.061   1.945
49980W        W23048  21.800  27.427  14.415
49981W        W23049   4.675   9.130   2.766
49982W        W23050   1.027   2.766   3.736
49983W        W23051  30.387  23.779  14.280
49984W        W23052  40.383  43.453   2.033
49985W        W23053   3.515  12.719  14.521
49986W        W23054  23.569  17.634   1.720
49987W        W23055  16.564  38.834   0.473
49988W        W23056  31.610  10.875  12.004
49989W        W23057  33.354  24.009  13.006
49990W        W23058  20.320   1.580  13.422
49991W        W23059  40.531  26.529   2.885
49992W        W23060  23.375  38.840   4.953
49993W        W23061  34.166   6.760  11.525
49994W        W23062  22.210  40.032  14.929
49995W        W23063  36.615  15.499   3.111
49996W        W23064  37.862   8.380   0.823
49997W        W23065  14.025   1.795   0.555
49998W        W23066  37.578  10.668  13.417
49999W        W23067  30.619  30.494  12.556
50000W        W23068  11.113  26.682  13.940
50001W        W23069  30.755   7.431  14.590
50002W        W23070   7.428  23.727  11.981
50003W        W23071  15.539   3.644   2.866
50004W        W23072  25.205  29.861  13.405
50005W        W23073   0.851  29.946  12.133
50006W        W23074  25.992  33.170   4.397
50007W        W23075  32.233   5.956   2.832
50008W        W23076  15.123  21.133   1.159
50009W        W23077  12.599  29.580  11.495
50010W        W23078  19.467  11.765   3.288
50011W        W23079  15.912  19.722  12.113
50012W        W23080  16.061   0.196   2.749
50013W        W23081   1.479  30.195  12.879
50014W        W23082  25.434  24.460   0.938
50015W        W23083   5.207   5.176   0.385
50016W        W23084  14.654   1.257  13.482
50017W        W23085  10.141  22.843  10.772
50018W        W23086   7.875  33.392   3.520
50019W        W23087   5.699  44.835  11.618
50020W        W23088  25.478  32.961  13.880
50021W        W23089   0.290  43.741  11.551
50022W        W23090   2.222   0.249  12.336
50023W        W23091  24.078  41.605  15.000
50024W        W23092  32.957  26.993   3.629
50025W        W23093  35.872  44.447   2.541
50026W        W23094  44.918  15.820   0.241
50027W        W23095  21.723   4.173   3.305
50028W        W23096  31.127  19.846  14.978
50029W        W23097   7.696  39.963   9.889
50030W        W23098   4.673  39.037  13.508
50031W        W23099  38.655  23.999   2.477
50032W        W23100  27.432  39.568   0.474
50033W        W23101  26.531  26.526   1.075
50034W        W23102  22.588  27.754   1.282
50035W        W23103   8.669  13.296  14.284
50036W        W23104  29.652  29.534   3.534
50037W        W23105  34.666  38.734   2.503
50038W        W23106  33.769  19.353  12.431
50039W        W23107  32.409   4.468   1.789
50040W        W23108  15.617  21.239   1.862
50041W        W23109  10.678  25.793  13.002
50042W        W23110  39.962  19.256   2.298
50043W        W23111  42.793  11.291   0.885
50044W        W23112  39.499  38.839  14.770
50045W        W23113   6.759  44.905   1.608
50046W        W23114   1.340  34.018  10.549
50047W        W23115  41.406  32.002   1.672
50048W        W23116  20.253  20.656  12.456
50049W        W23117  18.207  10.715  14.797
50050W        W23118   9.634   5.866   3.207
50051W        W23119  17.612   0.320   0.788
50052W        W23120  43.880  10.852   1.378
50053W        W23121  34.067  24.699  13.870
50054W        W23122   0.663  23.452  10.297
50055W        W23123  28.495  34.003   1.810
50056W        W23124  17.670   3.927   2.302
50057W        W23125  24.773  14.568  11.496
50058W        W23126  33.091  22.842   0.455
50059W        W23127   5.498  13.738  12.108
50060W        W23128  42.997  36.176  11.599
50061W        W23129   6.691  28.251   1.744
50062W        W23130  30.877  38.973   1.727
50063W        W23131  31.981  44.181   3.177
50064W        W23132  14.114   9.296  10.637
50065W        W23133  14.138   9.585   1.233
50066W        W23134  14.561  34.433   0.241
50067W        W23135   3.751  31.064   3.069
50068W        W23136  32.399  12.804  12.469
50069W        W23137  17.316   7.733  10.693
50070W        W23138   7.433  18.759  13.805
50071W        W23139  41.460  19.436  11.653
50072W        W23140  12.595  17.178  12.178
50073W        W23141  12.141  24.610  10.793
50074W        W23142   7.466   9.705   0.853
50075W        W23143   9.464  43.287  11.819
50076W        W23144  34.532  28.466   1.238
50077W        W23145  12.434  23.049   0.386
50078W        W23146  14.408  36.866   3.381
50079W        W23147  39.657  20.294   2.239
50080W        W23148  26.352  38.581  12.121
50081W        W23149  38.329  14.741  10.712
50082W        W23150  30.372  29.099  14.283
50083W        W23151  44.524  34.892  12.063
50084W        W23152  42.762   1.414   1.626
50085W        W23153   5.305  11.319   1.148
50086W        W23154  36.081  25.577  14.772
50087W        W23155   5.895  40.376   2.269
50088W        W23156   2.817   0.562   1.795
50089W        W23157  44.451  33.577   1.527
50090W        W23158  42.240  42.025   0.900
50091W        W23159  17.693  24.694  12.899
50092W        W23160  28.157  17.406   5.107
50093W        W23161  43.312  36.873   1.954
50094W        W23162  27.596  36.620   1.338
50095W        W23163  18.265  38.381   3.773
50096W        W23164   3.280  12.611   3.793
50097W        W23165  21.207  29.779   2.783
50098W        W23166  36.785  32.175   3.278
50099W        W23167  18.729  15.881   4.161
50100W        W23168   7.701  26.698   2.265
50101W        W23169  33.466  12.751   1.497
50102W        W23170  39.878   5.500  12.831
50103W        W23171  29.402   6.327  11.944
50104W        W23172  37.625   7.817   4.270
50105W        W23173   2.679  20.030   3.360
50106W        W23174   0.472   9.843  14.554
50107W        W23175   3.425  41.504  11.500
50108W        W23176  23.213   6.892  14.997
50109W        W23177  32.055  36.461  12.544
50110W        W23178   6.231  42.392   0.359
50111W        W23179  41.714  19.485  12.098
50112W        W23180  25.975  19.520   0.351
50113W        W23181  23.182  26.046   3.353
50114W        W23182  41.787  16.849   4.574
50115W        W23183  36.581  42.042  11.233
50116W        W23184  44.254  15.686  14.739
50117W        W23185  13.791  19.550   0.589
50118W        W23186   5.178   5.972   0.822
50119W        W23187  41.681  34.907   5.104
50120W        W23188  10.805   1.928   4.718
50121W        W23189  17.812  19.352  14.873
50122W        W23190   4.886  18.421  10.775
50123W        W23191  12.084  15.743   2.892
50124W        W23192  13.239  27.030  14.051
50125W        W23193  36.183  33.454  11.111
50126W        W23194  28.264  14.300   0.052
50127W        W23195  34.097  28.967  11.897
50128W        W23196  16.790  30.121   2.355
50129W        W23197  25.763  31.625   2.434
50130W        W23198  34.401  33.948  11.888
50131W        W23199  16.358  16.707   4.553
50132W        W23200  13.767  32.068   2.469
50133W        W23201  23.990  40.337  10.690
50134W        W23202  15.998  35.815   2.301
50135W        W23203  26.263   9.623  11.185
50136W        W23204  14.052  40.791  11.963
50137W        W23205  17.008  44.344   0.313
50138W        W23206   8.949  11.614  11.895
50139W        W23207  14.815  11.263  10.997
50140W        W23208   2.334  23.685   2.481
50141W        W23209  30.121  19.709   4.294
50142W        W23210  16.233  37.835   1.137
50143W        W23211   6.599  41.300   2.633
50144W        W23212  42.494  16.598   3.510
50145W        W23213  19.211  12.074  13.003
50146W        W23214  12.298   9.366   1.387
50147W        W23215  20.166  29.985   0.716
50148W        W23216  12.887  20.657  14.044
50149W        W23217  24.706  38.366   0.022
50150W        W23218  36.177  14.677  13.954
50151W        W23219  25.724  41.035   0.003
50152W        W23220   0.785   1.937   2.273
50153W        W23221   0.831  42.780  13.083
50154W        W23222  39.466  34.943   2.632
50155W        W23223  38.528   5.085   2.382
50156W        W23224  36.466  24.904  12.947
50157W        W23225  29.379  18.763   1.422
50158W        W23226   8.313  37.338  13.033
50159W        W23227  36.052   8.249  10.699
50160W        W23228  28.441  11.835  14.492
50161W        W23229  44.346  40.426  11.612
50162W        W23230   5.167  21.217  12.839
50163W        W23231  37.854  37.122  13.404
50164W        W23232  35.689  31.967  10.701
50165W        W23233   9.915   1.020  12.481
50166W        W23234  36.546  18.452   1.248
50167W        W23235  15.361  33.930  13.924
50168W        W23236  10.201   0.970  12.969
50169W        W23237  24.127  35.108   0.932
50170W        W23238  13.856   8.234   0.865
50171W        W23239  32.335   6.393  10.636
50172W        W23240  23.939  11.349  12.438
50173W        W23241  44.906   2.507  11.161
50174W        W23242  29.143  32.152   1.659
50175W        W23243  15.518  35.113   0.238
50176W        W23244  34.998   0.018   0.761
50177W        W23245  43.055   6.696   0.357
50178W        W23246  26.196   7.932   3.253
50179W        W23247   1.874  23.560   1.438
50180W        W23248   3.573  36.597   1.798
50181W        W23249   3.350  13.144   4.681
50182W        W23250  32.539  24.064  12.618
50183W        W23251   4.494   2.147  11.169
50184W        W23252   9.771  18.732  14.379
50185W        W23253  41.429   2.755   2.933
50186W        W23254  40.969  20.741  11.997
50187W        W23255  33.815  13.351   3.817
50188W        W23256  34.351  24.102  14.938
50189W        W23257  43.445  34.507   4.034
50190W        W23258  12.179  13.292   0.352
50191W        W23259  22.613   8.010   4.954
50192W        W23260  15.719  27.901  13.897
50193W        W23261  38.536  29.416   3.791
50194W        W23262  24.670  32.463   4.600
50195W        W23263   5.433  43.282  13.803
50196W        W23264  18.731  20.157   2.682
50197W        W23265  30.028  17.355   0.882
50198W        W23266  24.465  39.560  10.653
50199W        W23267  13.587  43.236   0.829
50200W        W23268   4.953   9.649  12.933
50201W        W23269  44.437  21.665   1.359
50202W        W23270   4.335  28.598   2.618
50203W        W23271  20.052  17.017   2.711
50204W        W23272  18.701   5.784   2.774
50205W        W23273   9.748  32.578   1.407
50206W        W23274  26.144  38.936   3.562
50207W        W23275  23.285  22.666   2.829
50208W        W23276  18.534   2.709  10.691
50209W        W23277  27.265  36.812   1.950
50210W        W23278  43.806   5.731  10.574
50211W        W23279   4.898   3.526  13.465
50212W        W23280  13.516   9.357   0.544
50213W        W23281   0.812   8.903  10.207
50214W        W23282  23.728   0.569  11.855
50215W        W23283  13.561  21.309   3.673
50216W        W23284  20.992  17.239   1.439
50217W        W23285  15.877  14.166   4.601
50218W        W23286  12.390  19.989   4.560
50219W        W23287  21.532  20.585   4.822
50220W        W23288  43.909  41.552  12.980
50221W        W23289  34.561   3.277   2.324
50222W        W23290  39.330  44.000   1.358
50223W        W23291   7.243   7.775  13.031
50224W        W23292  23.074  23.723   4.861
50225W        W23293  44.993  32.432   3.795
50226W        W23294  38.818   0.863   4.470
50227W        W23295  33.016  40.325  10.918
50228W        W23296  12.296  13.632   1.890
50229W        W23297  41.415  28.890  14.786
50230W        W23298   4.377  33.174  11.385
50231W        W23299  41.402  32.406   1.989
50232W        W23300  10.915  43.087  12.919
50233W        W23301   9.182  32.751   1.514
50234W        W23302   4.485   1.240   2.107
50235W        W23303  20.787  38.630   1.706
50236W        W23304  12.157  40.462   1.491
50237W        W23305   9.197  27.668  11.247
50238W        W23306   7.389  36.056  11.563
50239W        W23307  24.188   0.933  14.509
50240W        W23308  14.989   6.764  13.884
50241W        W23309  31.913  44.817   4.075
50242W        W23310  40.621  32.061  11.068
50243W        W23311  25.980  18.142  12.130
50244W        W23312  38.483  32.580  10.868
50245W        W23313  20.255  21.540   1.666
50246W        W23314  10.626   3.961   2.255
50247W        W23315  44.243  25.233   2.259
50248W        W23316  21.943  13.694   1.741
50249W        W23317  11.420  37.555   4.572
50250W        W23318  24.164  20.269  11.119
50251W        W23319  43.835  23.641   3.119
50252W        W23320  19.116  28.006   3.934
50253W        W23321  15.616  33.674   4.087
50254W        W23322  44.902  43.355  14.855
50255W        W23323  25.764  14.846   0.614
50256W        W23324  12.648   4.034   1.744
50257W        W23325  33.561  42.532   4.140
50258W        W23326   3.264  25.438   4.696
50259W        W23327  15.680  13.355   3.267
50260W        W23328  34.007   3.465   3.738
50261W        W23329   8.538   9.862   4.257
50262W        W23330   1.775  26.070   1.501
50263W        W23331   7.730  11.402  10.752
50264W        W23332   6.774  16.034   4.128
50265W        W23333  32.587  25.485  11.976
50266W        W23334  37.009  26.380  12.590
50267W        W23335  20.014  15.879   4.419
50268W        W23336  18.717  41.784  10.491
50269W        W23337   8.241   8.256  10.707
50270W        W23338  16.084   6.998  12.498
50271W        W23339  44.995  24.329   4.197
50272W        W23340  29.053  10.830  13.728
50273W        W23341  22.114  44.999  13.912
50274W        W23342  41.854  43.717   4.143
50275W        W23343  16.220  17.763   1.311
50276W        W23344  34.335  39.080   1.051
50277W        W23345  18.035  37.884   1.358
50278W        W23346   2.367   3.491  13.752
50279W        W23347  23.928   8.874   1.733
50280W        W23348  27.183   3.069   3.038
50281W        W23349   0.697   5.258   1.894
50282W        W23350  33.795   5.886  13.408
50283W        W23351  30.929  18.688   4.546
50284W        W23352  16.154   5.648  12.108
50285W        W23353   7.266  33.588   3.174
50286W        W23354  42.343   1.198  11.564
50287W        W23355  12.318  39.630  13.063
50288W        W23356  44.976  37.668   3.324
50289W        W23357  30.196  10.893   3.662
50290W        W23358  18.282  31.011   4.594
50291W        W23359   6.794  27.652  11.112
50292W        W23360  10.959  22.207   0.858
50293W        W23361  17.992   0.477  10.524
50294W        W23362  14.279  33.173  13.722
50295W        W23363   1.761   5.636   4.037
50296W        W23364  43.389  19.708   2.261
50297W        W23365  36.768  30.893  11.596
50298W        W23366  20.071   5.505  14.726
50299W        W23367  42.239  20.919   2.825
50300W        W23368  21.673  19.882   5.171
50301W        W23369  30.656  29.873   1.427
50302W        W23370  14.033  25.857  12.071
50303W        W23371  17.519  10.646   1.754
50304W        W23372   8.335  28.992   1.305
50305W        W23373  31.560   9.918  13.375
50306W        W23374  44.407  12.895   0.781
50307W        W23375  17.134  26.337  11.894
50308W        W23376   3.708  27.438   2.566
50309W        W23377  42.057  14.145   2.793
50310W        W23378  12.399  31.069   0.865
50311W        W23379  36.675  27.498  11.644
50312W        W23380  14.685  37.518   0.259
50313W        W23381  14.868  32.093   4.567
50314W        W23382  15.273  31.711  13.005
50315W        W23383   0.799  36.411   1.641
50316W        W23384  43.343  40.820  13.374
50317W        W23385   0.690   7.862  14.835
50318W        W23386  35.582  32.460  10.373
50319W        W23387  16.311  10.735   3.110
50320W        W23388  12.710  12.847  11.688
50321W        W23389  18.871  23.752  12.857
50322W        W23390  11.601   7.178  12.023
50323W        W23391  25.397   5.241   2.267
50324W        W23392  18.891  29.059  12.423
50325W        W23393  20.031   0.351  14.119
50326W        W23394  44.495  44.529   4.152
50327W        W23395  42.264  24.168  12.370
50328W        W23396  34.618  28.269   3.024
50329W        W23397  20.541  32.206  13.540
50330W        W23398   6.719  12.242  13.501
50331W        W23399  21.647  44.278   4.640
50332W        W23400  11.223   3.209   3.294
50333W        W23401   2.882   4.418   0.918
50334W        W23402  24.762   0.451  13.960
50335W        W23403  35.340   8.879   1.146
50336W        W23404  14.755  43.457   2.756
50337W        W23405   7.930  12.155  12.123
50338W        W23406  11.205  44.872   1.295
50339W        W23407  21.113  12.731   3.738
50340W        W23408   4.920  33.852  13.506
50341W        W23409  15.128  22.447  12.164
50342W        W23410  20.712  32.580  12.018
50343W        W23411  11.760  14.231  11.494
50344W        W23412  41.979  17.838  14.280
50345W        W23413  24.124   2.413   4.603
50346W        W23414  41.025  42.477  12.008
50347W        W23415  32.724  25.317  14.788
50348W        W23416  24.183  23.114   4.692
50349W        W23417  24.179  25.680   3.663
50350W        W23418  16.183  23.757   4.127
50351W        W23419  37.373  23.121   4.469
50352W        W23420  27.354   7.301   3.654
50353W        W23421  34.315  43.957   1.839
50354W        W23422   7.286   4.780  12.972
50355W        W23423  30.610  36.376   4.337
50356W        W23424  25.440  10.924   3.326
50357W        W23425  38.052   4.488  14.043
50358W        W23426  18.107  10.652  11.851
50359W        W23427  43.297  25.153   4.556
50360W        W23428  44.762   6.186   0.849
50361W        W23429  23.118   9.484  14.478
50362W        W23430   3.859  10.311   2.812
50363W        W23431   9.445   2.820   1.883
50364W        W23432  43.549  19.266  10.740
50365W        W23433   5.151  42.516   3.796
50366W        W23434  24.436   8.764   1.705
50367W        W23435  22.970  37.876   3.745
50368W        W23436  32.058  11.731  11.347
50369W        W23437   2.772  42.909   3.125
50370W        W23438  26.098  35.331  12.017
50371W        W23439  13.736   5.339  10.577
50372W        W23440   7.109  37.413  14.351
50373W        W23441  32.156   6.354   1.248
50374W        W23442  22.205   4.756  12.054
50375W        W23443   5.757  28.086   2.790
50376W        W23444  18.294  41.630  14.562
50377W        W23445   2.368   0.802   2.641
50378W        W23446  40.286  42.536  14.915
50379W        W23447  31.565  37.379  11.496
50380W        W23448  32.093  39.225   2.968
50381W        W23449  30.060   0.487   4.203
50382W        W23450  26.050  22.694   1.321
50383W        W23451  23.338  31.992   2.957
50384W        W23452  36.870   8.228   3.868
50385W        W23453  39.036  36.636   2.756
50386W        W23454   6.344  35.250   4.123
50387W        W23455  40.975  41.221   4.232
50388W        W23456  13.813  41.008  13.872
50389W        W23457  42.490  42.028   1.898
50390W        W23458  36.369  42.030  13.938
50391W        W23459  14.985  35.120  14.379
50392W        W23460  18.315  27.784  12.947
50393W        W23461  39.073   8.227   1.174
50394W        W23462  33.223  13.225  11.244
50395W        W23463  42.015  16.475   3.627
50396W        W23464  26.001   9.821   2.824
50397W        W23465  27.025  14.898  11.552
50398W        W23466  32.584   6.373   0.531
50399W        W23467  41.801  41.420   0.760
50400W        W23468  14.819  14.529  10.549
50401W        W23469   0.655  34.077   0.457
50402W        W23470  33.869  21.209   0.520
50403W        W23471  29.775  27.226  14.870
50404W        W23472  33.963  19.555   4.064
50405W        W23473   6.322  17.025   3.662
50406W        W23474  14.693  44.782  13.026
50407W        W23475  24.991  37.533   4.627
50408W        W23476  38.351   8.755  14.289
50409W        W23477  17.082  29.633  10.807
50410W        W23478  16.023  33.619  12.058
50411W        W23479  12.595  11.188  13.211
50412W        W23480  19.997  39.339  10.680
50413W        W23481  43.544  21.199   3.320
50414W        W23482  32.413  14.765   1.453
50415W        W23483  35.403  10.878   0.060
50416W        W23484  38.060   3.833  14.862
50417W        W23485   5.831  33.111  12.882
50418W        W23486  19.505   0.575   5.491
50419W        W23487  27.578  36.868  13.029
50420W        W23488   9.862  32.312   3.280
50421W        W23489  41.983   5.317  14.411
50422W        W23490   4.703  25.156  14.378
50423W        W23491  22.584  21.466   4.241
50424W        W23492  43.836   6.115   4.291
50425W        W23493  35.060   1.785   4.352
50426W        W23494   8.925  21.903  10.342
50427W        W23495  15.312  10.669  13.548
50428W        W23496  24.744  41.066  13.920
50429W        W23497  11.817  24.277  14.885
50430W        W23498  41.560  43.346   0.784
50431W        W23499  33.190  13.262  12.544
50432W        W23500  15.244  21.227   3.166
50433W        W23501  34.579  34.404   2.929
50434W        W23502  24.260  26.564  14.564
50435W        W23503  13.734  42.372   4.447
50436W        W23504  24.677  37.560  11.317
50437W        W23505   3.450   6.310  13.324
50438W        W23506  27.931   5.776   1.050
50439W        W23507  20.683  24.755   4.277
50440W        W23508  10.269   5.828   0.481
50441W        W23509  10.266  35.341   5.248
50442W        W23510  19.585   5.882  13.584
50443W        W23511  16.980  16.509   3.737
50444W        W23512  28.748  11.600   2.458
50445W        W23513  35.510  23.665   1.856
50446W        W23514  22.511  34.898  12.487
50447W        W23515  36.018  16.609  11.611
50448W        W23516  34.582  42.869  10.659
50449W        W23517  35.832   9.457   0.001
50450W        W23518  38.172  26.351   0.871
50451W        W23519  28.332  29.159   4.603
50452W        W23520  39.371  16.718  14.863
50453W        W23521  11.682  29.230   4.156
50454W        W23522  21.233  42.404   3.640
50455W        W23523  29.555  15.343   2.670
50456W        W23524   7.981   1.470  11.961
50457W        W23525  23.050  36.927  13.290
50458W        W23526  28.612  30.565  14.087
50459W        W23527  31.616  44.034  13.323
50460W        W23528  40.912  41.308  10.560
50461W        W23529  22.482   5.232  11.989
50462W        W23530  25.936  16.246  12.008
50463W        W23531  44.551  33.505  11.784
50464W        W23532   9.826  20.486   1.154
50465W        W23533  24.668   3.790   4.635
50466W        W23534  16.110  25.008   3.655
50467W        W23535  19.350  16.643  13.562
50468W        W23536  13.376  31.046  11.605
50469W        W23537   9.458  14.158  13.009
50470W        W23538  31.303  23.009   2.295
50471W        W23539  44.858  44.678  14.131
50472W        W23540  35.423  25.539   0.441
50473W        W23541   0.408  11.908  11.913
50474W        W23542  17.716  20.358  14.801
50475W        W23543  43.204   3.863   2.423
50476W        W23544   1.966  37.003   0.996
50477W        W23545   6.220  24.893   2.601
50478W        W23546  25.862  12.299   4.690
50479W        W23547  28.082  18.680  12.543
50480W        W23548   6.846  15.031   3.325
50481W        W23549  43.316   9.130  12.044
50482W        W23550  20.496  19.756  13.459
50483W        W23551  22.948  23.160  13.143
50484W        W23552  18.217  25.988  14.783
50485W        W23553  14.076  38.981  11.648
50486W        W23554  15.813  12.151  14.837
50487W        W23555  10.878  30.599   2.956
50488W        W23556  20.171   9.941   0.522
50489W        W23557  39.989  24.499   3.123
50490W        W23558  38.413  17.723  14.779
50491W        W23559  25.385  17.050   0.408
50492W        W23560   1.957  14.117  12.444
50493W        W23561  27.984  30.132   2.422
50494W        W23562  39.521  16.681  13.943
50495W        W23563  28.935   3.909   4.641
50496W        W23564  25.122   6.372   3.688
50497W        W23565  21.035  33.058  14.390
50498W        W23566  28.111   9.758   0.261
50499W        W23567  39.321  28.065  10.559
50500W        W23568  13.777  21.034   4.592
50501W        W23569  43.687  21.044   1.465
50502W        W23570  39.897  31.627   1.908
50503W        W23571  12.780   1.813   3.597
50504W        W23572  38.653  38.834   3.375
50505W        W23573  28.735  29.590   3.943
50506W        W23574  11.088   1.941   2.796
50507W        W23575   1.730  14.639   1.346
50508W        W23576  23.021  22.745  13.456
50509W        W23577  39.008  16.307   4.611
50510W        W23578  20.673  35.974   2.471
50511W        W23579  31.033  18.783  13.569
50512W        W23580   4.851   4.346   2.784
50513W        W23581  21.160  22.263   2.399
50514W        W23582   7.425  19.823  10.943
50515W        W23583  18.369  34.650   0.738
50516W        W23584   3.908  27.450  13.016
50517W        W23585  21.754   1.952  11.102
50518W        W23586  12.290  10.240   3.315
50519W        W23587  28.478  28.789   3.677
50520W        W23588   4.405  32.840   2.293
50521W        W23589  28.665  16.037  10.543
50522W        W23590  27.460  36.469  10.739
50523W        W23591  19.299  41.673  12.267
50524W        W23592  24.207  37.371  11.005
50525W        W23593  33.847  41.499  14.299
50526W        W23594  18.461   5.247  13.349
50527W        W23595   0.465  12.864   0.437
50528W        W23596  30.457  15.812   2.461
50529W        W23597  25.598  38.377  14.440
50530W        W23598  25.841   1.443   4.552
50531W        W23599  42.547  27.990   2.199
50532W        W23600  32.649   3.726   0.055
50533W        W23601  36.090   7.300  10.672
50534W        W23602  38.279  36.550   4.537
50535W        W23603  25.395  31.929  13.423
50536W        W23604  40.447   0.504   1.777
50537W        W23605   0.555  29.585  12.434
50538W        W23606  34.115  24.070   2.458
50539W        W23607  41.262   8.263  14.562
50540W        W23608  40.344  43.425   2.544
50541W        W23609  23.571  18.754  14.290
50542W        W23610  29.915  17.327  12.978
50543W        W23611   0.117  33.648  13.919
50544W        W23612  39.052   2.527   3.733
50545W        W23613   4.817  40.445  10.718
50546W        W23614  32.854   8.235  13.493
50547W        W23615  18.484  31.059   1.704
50548W        W23616  33.827   8.802  10.678
50549W        W23617  23.218   0.446   1.409
50550W        W23618   9.748  12.147  14.407
50551W        W23619  23.235   6.947  14.044
50552W        W23620  23.207  28.072   0.974
50553W        W23621  42.319  33.530   4.044
50554W        W23622   1.237  40.676  14.502
50555W        W23623  32.310   8.303  14.260
50556W        W23624  44.741  35.860   3.679
50557W        W23625  40.575  24.039   4.142
50558W        W23626  23.170  25.974  12.593
50559W        W23627  29.260  36.052   4.031
50560W        W23628  35.076  34.027   3.707
50561W        W23629  31.538   8.851   4.579
50562W        W23630  11.543  36.196  11.028
50563W        W23631  36.934  25.241   1.766
50564W        W23632  44.441  15.121  13.003
50565W        W23633  43.438  34.268   3.566
50566W        W23634   4.997  19.205  11.962
50567W        W23635  39.383  21.779  13.793
50568W        W23636  37.517  12.080  12.378
50569W        W23637  15.803  30.821  14.367
50570W        W23638  36.331  32.950   3.130
50571W        W23639   6.405  25.204   1.718
50572W        W23640  39.900   4.383   3.185
50573W        W23641  36.063  10.412  14.406
50574W        W23642  21.581   1.697   3.134
50575W        W23643  27.291  34.520  13.104
50576W        W23644  35.464   6.165   1.821
50577W        W23645  16.726   6.154   3.899
50578W        W23646  24.024  11.919   3.708
50579W        W23647  32.182  15.247   0.849
50580W        W23648  36.598   3.461  14.329
50581W        W23649  33.495  41.526  14.685
50582W        W23650  25.962  40.177  13.606
50583W        W23651  18.188  24.196   2.809
50584W        W23652  13.241   1.965   4.483
50585W        W23653  32.463  20.738   2.014
50586W        W23654  37.124   5.714  11.653
50587W        W23655  24.991   0.402   2.686
50588W        W23656  38.334  26.347  14.379
50589W        W23657  13.178   1.839  13.482
50590W        W23658  33.195  18.943  13.864
50591W        W23659   3.284  14.631  14.394
50592W        W23660  18.630  29.976  14.350
50593W        W23661  42.032  14.327  13.454
50594W        W23662  31.906   5.833   0.426
50595W        W23663  32.017  14.624   2.634
50596W        W23664  21.556  25.200   4.298
50597W        W23665  15.609   1.793  13.611
50598W        W23666   1.874  42.379  10.736
50599W        W23667  20.018  35.060   1.469
50600W        W23668  42.860  37.983  10.683
50601W        W23669  37.131  29.032  12.988
50602W        W23670  35.443  42.960  13.559
50603W        W23671  14.294  43.796  11.015
50604W        W23672   2.485  44.041   2.279
50605W        W23673   1.944  38.964   3.556
50606W        W23674  18.109   1.917   0.289
50607W        W23675   2.027  15.620  14.207
50608W        W23676  19.483  40.250  13.977
50609W        W23677  19.154   8.151  12.998
50610W        W23678  29.432  24.656  14.175
50611W        W23679   4.442  39.903   1.821
50612W        W23680  37.775  40.069  12.478
50613W        W23681  43.902  32.462   1.406
50614W        W23682   7.018  33.374   2.710
50615W        W23683   7.850  19.624  10.680
50616W        W23684  35.335  26.997  13.673
50617W        W23685  12.651  29.130  13.352
50618W        W23686  23.942  26.564   3.367
50619W        W23687  16.233  11.742   4.172
50620W        W23688  27.697  11.593   1.337
50621W        W23689  29.614  13.599  14.938
50622W        W23690  20.808   6.764   1.360
50623W        W23691   7.147  32.062   3.799
50624W        W23692   6.724  36.582  11.232
50625W        W23693  34.593  39.057  12.026
50626W        W23694  24.461  16.026   0.288
50627W        W23695  21.728   4.760   2.175
50628W        W23696  19.811  22.254  13.467
50629W        W23697  42.484  33.099   4.330
50630W        W23698  20.718   8.271  11.973
50631W        W23699  17.093  38.828   3.195
50632W        W23700  13.508   2.145  10.828
50633W        W23701   9.151  18.561  14.546
50634W        W23702  40.467  31.615   3.666
50635W        W23703  36.462   6.701   1.014
50636W        W23704  14.611  44.505  10.842
50637W        W23705  19.382  32.658   3.193
50638W        W23706  30.028  16.121   4.139
50639W        W23707  40.892  40.443   1.248
50640W        W23708  11.317  21.085   0.299
50641W        W23709  36.576  27.012   1.338
50642W        W23710   5.333  15.847  13.378
50643W        W23711  23.003  19.061  14.026
50644W        W23712   8.704  30.185   3.718
50645W        W23713  41.367  28.066  11.076
50646W        W23714   6.083  20.958   3.622
50647W        W23715  22.804   7.358  13.157
50648W        W23716  25.348   4.798  12.476
50649W        W23717  24.552  30.165   3.163
50650W        W23718  14.665  10.233  12.092
50651W        W23719  20.032  35.219  13.422
50652W        W23720  34.594   1.691  12.559
50653W        W23721  26.766  42.579  14.997
50654W        W23722  35.106   7.104   2.218
50655W        W23723  11.923  39.936   2.725
50656W        W23724   0.728  11.277  12.749
50657W        W23725  11.662  24.076   1.716
50658W        W23726  41.809  11.598   4.347
50659W        W23727   2.978  32.775   4.934
50660W        W23728  11.252  22.004  10.723
50661W        W23729  37.045   6.458  12.366
50662W        W23730  10.734  19.640   3.446
50663W        W23731  14.106   7.767   4.716
50664W        W23732  37.293  17.020   4.949
50665W        W23733  41.160  15.648  11.810
50666W        W23734  35.328  34.187   4.564
50667W        W23735  41.433  41.165   3.896
50668W        W23736  26.798  21.617   4.672
50669W        W23737  11.863  34.953   0.900
50670W        W23738   3.420  15.742  10.946
50671W        W23739  23.293  34.572   0.916
50672W        W23740  23.790  13.892  12.976
50673W        W23741  10.439  21.040   1.329
50674W        W23742  17.983  18.725  10.425
50675W        W23743  11.802  44.838   3.212
50676W        W23744  17.939  40.359  14.931
50677W        W23745  36.393  34.411  13.178
50678W        W23746  42.899   6.359   2.175
50679W        W23747  11.234  12.138   1.255
50680W        W23748  25.210  25.321  11.830
50681W        W23749  18.054   1.167  12.811
50682W        W23750  14.129  30.230   4.640
50683W        W23751  33.440   8.702   3.221
50684W        W23752  24.595  15.726  11.184
50685W        W23753  10.172  38.249   2.396
50686W        W23754   2.353  26.854   0.994
50687W        W23755  40.396  19.544  12.011
50688W        W23756   6.646   5.023  13.523
50689W        W23757  29.429  18.614  13.751
50690W        W23758  10.202  42.092  12.152
50691W        W23759   6.284   1.269   0.457
50692W        W23760  19.651  11.125   0.167
50693W        W23761   6.560  25.681   4.055
50694W        W23762  28.023  20.917  13.219
50695W        W23763  22.755  30.667   1.893
50696W        W23764  33.925   9.166  11.100
50697W        W23765  40.697  32.622   4.264
50698W        W23766  15.299  31.579  10.689
50699W        W23767  21.623   3.771  12.529
50700W        W23768  27.595   3.200  10.170
50701W        W23769  29.178   6.792  14.412
50702W        W23770  19.285  13.988  11.106
50703W        W23771   2.813   7.693  10.731
50704W        W23772  20.689  20.733  13.261
50705W        W23773  20.438   4.003  14.868
50706W        W23774  26.429  27.091   3.269
50707W        W23775  30.206   4.480  12.958
50708W        W23776  10.439  15.922  14.930
50709W        W23777  40.767  16.747   0.942
50710W        W23778  12.643  38.372  11.597
50711W        W23779   6.320   7.919  13.178
50712W        W23780  26.461   9.800  14.542
50713W        W23781  25.914  16.759   3.125
50714W        W23782  25.313  43.820   2.466
50715W        W23783  11.677  41.845   0.761
50716W        W23784  30.108  36.462   4.196
50717W        W23785   2.231  43.915   3.621
50718W        W23786   0.315  30.430  12.442
50719W        W23787  26.565  17.409   3.119
50720W        W23788  38.371   0.484  12.326
50721W        W23789  10.204  24.416  14.522
50722W        W23790  11.540  18.942   5.174
50723W        W23791  20.657   3.223  14.416
50724W        W23792   3.262  42.840  10.875
50725W        W23793  39.312  24.990   4.229
50726W        W23794  16.127   4.782   1.243
50727W        W23795  19.540  44.558  12.116
50728W        W23796  38.413   0.137   5.005
50729W        W23797  28.435  22.630  11.597
50730W        W23798  30.992  27.707  11.080
50731W        W23799  36.403   6.786  13.992
50732W        W23800  29.971  28.244   2.022
50733W        W23801   9.814  43.916   2.128
50734W        W23802   0.285  26.625  11.000
50735W        W23803  12.049  35.927  12.513
50736W        W23804  26.203   5.019  12.476
50737W        W23805   0.471  17.712   4.766
50738W        W23806  30.078  40.788   3.324
50739W        W23807  19.551   7.656   0.835
50740W        W23808  41.544  13.741   2.402
50741W        W23809   1.440  42.510  11.990
50742W        W23810   4.916   6.379  11.074
50743W        W23811   3.977  19.483  12.577
50744W        W23812  23.747   2.662   1.303
50745W        W23813   9.636  42.641   1.833
50746W        W23814  34.567  24.480  10.793
50747W        W23815  34.923  12.802  10.830
50748W        W23816  18.014  25.299  14.402
50749W        W23817  38.514  39.423   1.423
50750W        W23818  24.047  23.613   0.740
50751W        W23819  17.755  31.922  12.732
50752W        W23820   9.095  21.099  12.603
50753W        W23821  24.311  37.910  13.526
50754W        W23822  22.080  20.139  11.368
50755W        W23823  42.205  36.907   0.314
50756W        W23824   3.639  17.150  11.136
50757W        W23825  28.051   9.240   0.223
50758W        W23826  39.044  36.453   1.299
50759W        W23827  16.178  24.930   1.737
50760W        W23828  37.863  37.653   4.043
50761W        W23829  21.095  27.456   2.217
50762W        W23830  36.484  16.441   4.046
50763W        W23831  22.167   7.849   1.336
50764W        W23832  16.757   3.920  14.900
50765W        W23833  44.391  32.318  13.469
50766W        W23834  43.865  26.694  10.958
50767W        W23835  27.897  42.968   4.498
50768W        W23836  34.302  20.599  13.115
50769W        W23837  14.181  36.320   0.947
50770W        W23838  23.989  11.201   3.170
50771W        W23839  16.579  17.854  11.958
50772W        W23840  20.889  24.922   1.284
50773W        W23841  40.026  11.614   1.025
50774W        W23842   1.958  29.059   0.335
50775W        W23843  37.777  34.416  12.039
50776W        W23844  34.381   8.126   4.175
50777W        W23845   1.721  20.038   4.828
50778W        W23846  20.549  29.464   0.053
50779W        W23847  30.486  21.703  14.292
50780W        W23848  35.995  38.141   1.348
50781W        W23849  42.577  29.475  13.670
50782W        W23850  42.429  24.532  13.732
50783W        W23851  33.008  39.259   2.192
50784W        W23852  44.242  43.355  12.578
50785W        W23853  26.507  10.094   5.002
50786W        W23854   0.426  31.471  13.485
50787W        W23855  11.811  30.361   1.270
50788W        W23856  38.572  44.331   2.730
50789W        W23857  40.414  26.735   3.914
50790W        W23858  40.349  34.210   3.658
50791W        W23859  25.907  11.783  12.782
50792W        W23860  44.856  30.815  11.573
50793W        W23861  15.670  42.075   2.662
50794W        W23862  21.964   5.898   4.737
50795W        W23863  12.517  14.028   0.826
50796W        W23864  19.467  28.104   1.796
50797W        W23865   3.375  24.094  13.588
50798W        W23866  32.527  26.245  11.438
50799W        W23867  15.248  32.708   3.827
50800W        W23868  23.471  42.435   2.741
50801W        W23869   4.358  21.790   2.740
50802W        W23870  39.064   6.139   4.246
50803W        W23871  30.536  20.708   0.471
50804W        W23872  39.540  32.128   2.673
50805W        W23873  26.645   4.376  14.110
50806W        W23874  34.909  40.433   3.642
50807W        W23875  40.700  37.019   3.146
50808W        W23876  36.464  35.764   2.163
50809W        W23877   1.794  23.090   3.809
50810W        W23878  26.101  39.682   3.139
50811W        W23879  41.010  17.588   3.356
50812W        W23880  42.235  18.099   4.428
50813W        W23881  22.972   8.324  14.990
50814W        W23882  44.509  15.111   4.702
50815W        W23883  33.304  40.935   0.513
50816W        W23884  19.739   2.664  14.825
50817W        W23885  35.945  34.723  12.109
50818W        W23886  35.636  37.983  14.418
50819W        W23887  44.004   7.317  11.050
50820W        W23888  30.128   4.980  12.972
50821W        W23889   4.910  35.843  11.268
50822W        W23890   7.386  10.304  11.633
50823W        W23891  10.675  12.355  13.806
50824W        W23892  43.755  30.639   2.668
50825W        W23893  11.113  29.949  11.782
50826W        W23894  41.314  40.554   3.110
50827W        W23895  12.608  37.386   2.978
50828W        W23896  31.322  14.195  14.770
50829W        W23897  24.728   0.225  12.694
50830W        W23898  39.268   8.807   3.706
50831W        W23899   3.071  10.745  11.080
50832W        W23900  43.498  27.637  10.993
50833W        W23901   5.879   3.401  14.342
50834W        W23902   0.317  23.117  12.332
50835W        W23903  25.812  29.508  13.139
50836W        W23904  16.393  15.107  11.677
50837W        W23905  40.499  37.032   2.217
50838W        W23906  19.103  14.770  10.737
50839W        W23907  44.969  11.261   1.828
50840W        W23908  22.313  37.030   4.371
50841W        W23909   4.674  15.486  11.715
50842W        W23910  32.902  21.794  12.482
50843W        W23911  25.502  30.414   1.231
50844W        W23912  17.784  16.584  11.292
50845W        W23913  41.536  22.527  14.458
50846W        W23914   0.407  15.222   2.793
50847W        W23915  18.301   1.429  12.124
50848W        W23916   3.429  25.444   3.672
50849W        W23917   8.273  34.856   1.992
50850W        W23918  41.873  32.018  14.455
50851W        W23919  13.658  17.084   2.364
50852W        W23920   9.138  22.450   4.501
50853W        W23921  34.142  24.389   2.858
50854W        W23922  37.603   8.695  12.648
50855W        W23923  43.918  42.244  14.054
50856W        W23924  11.323  18.569  11.628
50857W        W23925  31.601  41.449   4.409
50858W        W23926  15.615  10.818  13.954
50859W        W23927  24.897   7.869   1.738
50860W        W23928  34.673  27.494   1.307
50861W        W23929   3.519   9.317   4.842
50862W        W23930  37.566  32.058  11.537
50863W        W23931  15.083  34.576  11.186
50864W        W23932   2.462  32.612  14.239
50865W        W23933  44.867  16.855   1.828
50866W        W23934  15.175  30.729   1.791
50867W        W23935  35.364   4.805   3.657
50868W        W23936   2.919   9.764  13.291
50869W        W23937   6.869  25.241  13.842
50870W        W23938   8.468  26.235   0.861
50871W        W23939  21.169  20.168  13.870
50872W        W23940  15.478  36.426   0.481
50873W        W23941  13.683   8.255   2.763
50874W        W23942   8.930  22.105   0.865
50875W        W23943  29.571  10.513   0.097
50876W        W23944  19.306  25.274  11.195
50877W        W23945  44.310  32.908  14.845
50878W        W23946   0.356  39.526   3.884
50879W        W23947  34.690  14.080   2.803
50880W        W23948  38.820  27.640  12.973
50881W        W23949   4.364   3.467  10.829
50882W        W23950  29.601  19.649   2.623
50883W        W23951  22.674  22.989  12.042
50884W        W23952  38.098   8.610   4.114
50885W        W23953  35.619  31.519   3.374
50886W        W23954  17.371  41.822  14.932
50887W        W23955  20.129  23.683   1.907
50888W        W23956  39.584  28.914  10.614
50889W        W23957  35.982  13.504  11.414
50890W        W23958  33.264  20.793  14.344
50891W        W23959  21.531  21.393  12.249
50892W        W23960  15.645  24.740   2.265
50893W        W23961  10.357  17.284   1.901
50894W        W23962  12.650  34.615  10.737
50895W        W23963  36.818   5.409  10.993
50896W        W23964   0.896  19.608   5.160
50897W        W23965   5.486   8.561  13.715
50898W        W23966  43.251   1.851   2.699
50899W        W23967   1.842   1.886  13.096
50900W        W23968   5.503  12.768   0.889
50901W        W23969  35.816  38.056  13.847
50902W        W23970   5.224   9.706  11.001
50903W        W23971  23.689  20.699  12.919
50904W        W23972  27.548  27.101  13.541
50905W        W23973   1.989  15.704   2.136
50906W        W23974   0.353   8.253   0.418
50907W        W23975  33.607  18.241  13.590
50908W        W23976  14.201   8.158   2.824
50909W        W23977  21.187   7.566  10.644
50910W        W23978   2.166  20.617  12.795
50911W        W23979  17.068  11.671  11.974
50912W        W23980  22.267   0.635   1.018
50913W        W23981  43.819  34.322  13.897
50914W        W23982  30.429  26.914  11.526
50915W        W23983  11.278  21.742  14.436
50916W        W23984   6.321   6.277  13.551
50917W        W23985  28.977   4.790   3.913
50918W        W23986   4.994  22.802   0.555
50919W        W23987  14.129  37.593  11.518
50920W        W23988  35.419  33.555   1.750
50921W        W23989  29.036  43.692   3.377
50922W        W23990   7.723   7.871  14.935
50923W        W23991  18.844  28.297   4.668
50924W        W23992  36.545  43.360  10.629
50925W        W23993   2.701  44.141   4.257
50926W        W23994  14.401  25.119  10.906
50927W        W23995   3.321   6.280  11.447
50928W        W23996  42.780  33.869   2.397
50929W        W23997  30.511   4.972  11.293
50930W        W23998   3.986  22.269  14.623
50931W        W23999   6.326  27.192  13.154
50932W        W24000  15.628  20.548  14.978
50933W        W24001  35.902   5.401  12.715
50934W        W24002  39.888  26.084   4.814
50935W        W24003  38.991  37.810  13.935
50936W        W24004  37.750   3.880  11.622
50937W        W24005  38.624  23.440   4.101
50938W        W24006  43.014   3.156   1.614
50939W        W24007   2.009  35.287   2.277
50940W        W24008  30.442  35.934  13.254
50941W        W24009   4.511   6.381   3.162
50942W        W24010  12.991  43.329  10.731
50943W        W24011   0.357  18.592  11.386
50944W        W24012  27.357  30.988   4.515
50945W        W24013  17.027  38.333   3.298
50946W        W24014  36.889   9.827  14.084
50947W        W24015   6.774  13.323   0.869
50948W        W24016  19.279  17.197  11.611
50949W        W24017  40.390  10.162  12.499
50950W        W24018  15.769  30.544   2.892
50951W        W24019  21.348  19.005  11.505
50952W        W24020   2.472  39.384   1.311
50953W        W24021   3.453  28.196  13.306
50954W        W24022   7.871  38.483  10.669
50955W        W24023  38.337  27.844  14.455
50956W        W24024  44.567  37.892  12.360
50957W        W24025  35.365  29.209   3.558
50958W        W24026  15.396  32.492  14.019
50959W        W24027  12.655  16.716  14.365
50960W        W24028   4.712  19.470   2.704
50961W        W24029  40.225  14.999   4.449
50962W        W24030   1.715  22.427  10.583
50963W        W24031  11.074  13.909  13.495
50964W        W24032  39.969  19.123  13.176
50965W        W24033   9.822  17.062   0.388
50966W        W24034  36.752  17.258  10.885
50967W        W24035  30.151  41.392   0.474
50968W        W24036  40.521  41.767  13.157
50969W        W24037  29.167  34.922   4.802
50970W        W24038  22.075  14.707   4.519
50971W        W24039  17.703  30.088  12.034
50972W        W24040  16.254  12.374  14.988
50973W        W24041  14.733  28.014  12.445
50974W        W24042  13.310  20.765  12.000
50975W        W24043  31.310  21.528  12.101
50976W        W24044   9.207   0.245   3.612
50977W        W24045   3.345   4.217  12.774
50978W        W24046  25.641   2.940  12.019
50979W        W24047  41.814  39.612  12.449
50980W        W24048   2.663   6.438  10.666
50981W        W24049  17.068  39.622   4.256
50982W        W24050   8.837  30.019   2.839
50983W        W24051  13.827  42.466   1.946
50984W        W24052  10.267  19.051  12.393
50985W        W24053  27.622   9.285  14.925
50986W        W24054  13.538  24.421  11.967
50987W        W24055   5.406  29.675  10.777
50988W        W24056  19.144  24.610   0.473
50989W        W24057  43.305  19.101  11.152
50990W        W24058  28.968  26.196   2.801
50991W        W24059   3.961  31.548  14.363
50992W        W24060   7.451  43.017   1.158
50993W        W24061  18.718   5.651  13.522
50994W        W24062  17.214  11.825   0.282
50995W        W24063  44.961   5.363  10.539
50996W        W24064   8.435   2.555   0.735
50997W        W24065  39.290  40.133  12.346
50998W        W24066  38.992  38.634  14.589
50999W        W24067  19.085  33.096   3.634
51000W        W24068   0.788  42.267  14.444
51001W        W24069  28.589  10.633  14.358
51002W        W24070  33.559   2.414  10.634
51003W        W24071   3.343  25.563  14.295
51004W        W24072   2.902  36.146  13.835
51005W        W24073   7.423  20.553  14.468
51006W        W24074  32.054  24.432  13.912
51007W        W24075  37.184  30.571  11.435
51008W        W24076   5.452   5.129   3.128
51009W        W24077  20.537   0.382  10.782
51010W        W24078  42.394  11.444   2.724
51011W        W24079   5.775  17.280   1.600
51012W        W24080   4.862  35.329  11.060
51013W        W24081  20.087  33.415   1.506
51014W        W24082  10.181   8.964   1.788
51015W        W24083  38.096  14.306  12.454
51016W        W24084   0.927   2.378   2.456
51017W        W24085  16.366  44.285   2.320
51018W        W24086  27.063  13.313  13.260
51019W        W24087   6.424  19.098   2.307
51020W        W24088  24.719  20.519   0.283
51021W        W24089  24.293  39.097   2.792
51022W        W24090  33.946  18.303  14.271
51023W        W24091  18.140  24.188   5.024
51024W        W24092   6.895  37.994   3.272
51025W        W24093  14.352  39.455   2.114
51026W        W24094   9.597  19.753  11.509
51027W        W24095  28.201  10.352  12.938
51028W        W24096   3.754  38.842   1.182
51029W        W24097  28.428   8.996  11.908
51030W        W24098   3.510  43.468  13.357
51031W        W24099   4.869  27.457   2.161
51032W        W24100  39.067  16.067  12.028
51033W        W24101  22.116   7.928  11.391
51034W        W24102  35.591  31.430  13.885
51035W        W24103  30.976  43.256  12.025
51036W        W24104  44.469  43.849  13.349
51037W        W24105  12.723  24.121  14.359
51038W        W24106  14.059  34.947   1.262
51039W        W24107  25.211  38.804   2.349
51040W        W24108  34.035  26.811   4.613
51041W        W24109  20.312  22.091  13.495
51042W        W24110  13.374  40.080  11.484
51043W        W24111   0.281  12.676   4.715
51044W        W24112  32.613   8.354  11.103
51045W        W24113  35.785  10.246   2.733
51046W        W24114   7.227  38.294  13.268
51047W        W24115  44.811   3.199   2.620
51048W        W24116  29.528  28.662   0.820
51049W        W24117  12.657  26.401   1.978
51050W        W24118   0.552  17.132   2.285
51051W        W24119   1.448   7.736   0.450
51052W        W24120   2.333  30.452  10.937
51053W        W24121  28.039  27.620  11.244
51054W        W24122  41.219  34.558   2.832
51055W        W24123  41.488   2.788  12.975
51056W        W24124  23.009  13.666   0.377
51057W        W24125  34.085   7.995  14.825
51058W        W24126  23.640   6.613  13.950
51059W        W24127  35.455  37.877  10.697
51060W        W24128  17.209  26.751   1.158
51061W        W24129  12.892  39.705   1.330
51062W        W24130  25.699  13.235  13.354
51063W        W24131  37.971  42.866  12.460
51064W        W24132  38.972  13.794  13.814
51065W        W24133   1.809  41.650   1.618
51066W        W24134  15.915   7.324  12.941
51067W        W24135   7.373  28.659   2.506
51068W        W24136  39.996  39.012   1.010
51069W        W24137  15.126  21.775  13.012
51070W        W24138  28.372  27.095  12.429
51071W        W24139  28.447  25.742   1.136
51072W        W24140  23.063   0.145  11.282
51073W        W24141  33.442  30.107   4.952
51074W        W24142  15.816  23.492   2.631
51075W        W24143  26.423  32.583  12.926
51076W        W24144   9.210   4.710   0.921
51077W        W24145  41.492  34.417  12.922
51078W        W24146  36.540  31.069  11.162
51079W        W24147  34.894  20.106  10.544
51080W        W24148  29.412  19.822  13.086
51081W        W24149   6.464  29.188   3.240
51082W        W24150  26.456  20.473  12.510
51083W        W24151  41.952  40.095  12.509
51084W        W24152  31.069   4.997  13.409
51085W        W24153  14.615  26.836   3.978
51086W        W24154  31.113   8.767  12.795
51087W        W24155   7.331  15.535   2.872
51088W        W24156   6.504   9.998   2.277
51089W        W24157  24.113  32.405  11.693
51090W        W24158  18.017  10.614  13.203
51091W        W24159  21.228  34.035  14.493
51092W        W24160  40.972  15.753   3.047
51093W        W24161   3.680  37.508  13.912
51094W        W24162  25.445   8.641   4.183
51095W        W24163  10.888  17.180  11.474
51096W        W24164   4.156  25.491  14.682
51097W        W24165  16.172  10.194   3.236
51098W        W24166  26.194  16.611   0.795
51099W        W24167   0.028  39.533   1.475
51100W        W24168  27.201  18.845  12.976
51101W        W24169  28.678  36.564   2.281
51102W        W24170   2.831   7.271  12.051
51103W        W24171  17.113  22.477   3.212
51104W        W24172  44.348  22.983  10.898
51105W        W24173  27.725  15.467   2.638
51106W        W24174  12.755  28.219   3.308
51107W        W24175  19.009  42.925   2.022
51108W        W24176   3.731   2.035  13.858
51109W        W24177  38.489   9.616  10.729
51110W        W24178  27.195  26.483  12.186
51111W        W24179   1.229  35.082  14.406
51112W        W24180  30.373   9.685  10.591
51113W        W24181   8.803   5.329  14.925
51114W        W24182   3.753  34.225  14.908
51115W        W24183  40.986   8.357   5.133
51116W        W24184  26.640  38.790   4.685
51117W        W24185  36.073   0.738  12.487
51118W        W24186  40.673  30.481  14.856
51119W        W24187  10.508  42.467   5.097
51120W        W24188  20.666  18.788  10.663
51121W        W24189   6.134  10.838   2.684
51122W        W24190  22.674   6.865   0.249
51123W        W24191  28.141  27.965  13.992
51124W        W24192  14.635  14.039   1.728
51125W        W24193  22.428  31.709  12.481
51126W        W24194   2.553   6.415   3.719
51127W        W24195  13.842  25.647  14.738
51128W        W24196  29.882  38.127   4.571
51129W        W24197  37.859  17.174  11.573
51130W        W24198  37.782  23.806  10.977
51131W        W24199  12.878  31.024  11.599
51132W        W24200  29.931  35.588   4.072
51133W        W24201   7.604  30.983  13.964
51134W        W24202  10.610   4.147  12.078
51135W        W24203  22.237  28.249   2.870
51136W        W24204  13.715  23.991   2.839
51137W        W24205   2.290  38.399  13.972
51138W        W24206  42.240  38.261  12.524
51139W        W24207  38.031  30.108  10.502
51140W        W24208  34.101   5.741  13.846
51141W        W24209   3.410  17.648  14.238
51142W        W24210  29.097  12.119   1.306
51143W        W24211   8.804   9.961  14.814
51144W        W24212   3.407  27.566   0.344
51145W        W24213  39.331  27.189   1.142
51146W        W24214  19.228   5.920  11.413
51147W        W24215  21.748  26.497   1.750
51148W        W24216   8.236   7.201   4.549
51149W        W24217   1.287   9.789  10.896
51150W        W24218  24.077  30.007  14.191
51151W        W24219  26.622  34.712  14.831
51152W        W24220   0.481  21.546  10.663
51153W        W24221   0.849  39.361  10.765
51154W        W24222  14.616  17.270  14.836
51155W        W24223  19.866  21.226   3.658
51156W        W24224  40.502  30.590   1.294
51157W        W24225   9.690  19.124   0.140
51158W        W24226  28.132   4.995   4.968
51159W        W24227  41.871  44.202   4.328
51160W        W24228  26.763  40.507   4.474
51161W        W24229   9.807   5.374  12.090
51162W        W24230  10.319  28.753  12.960
51163W        W24231  28.155  19.822  13.084
51164W        W24232   8.442  12.337  13.867
51165W        W24233  15.133  33.881  14.814
51166W        W24234  37.088  31.203  13.006
51167W        W24235  30.631  14.306  10.775
51168W        W24236  38.298   7.852  14.464
51169W        W24237  36.032   5.684  10.753
51170W        W24238  25.831   6.823   0.711
51171W        W24239  24.697   9.292  11.932
51172W        W24240  14.322  31.938  12.063
51173W        W24241  12.116  22.160   0.295
51174W        W24242  18.792  34.486  11.277
51175W        W24243   7.961   3.910   4.752
51176W        W24244  42.536  43.711   0.293
51177W        W24245  27.019   3.544   2.260
51178W        W24246  14.294   2.461  13.875
51179W        W24247  38.238  24.961  12.575
51180W        W24248  16.138  26.908   3.609
51181W        W24249   2.719  41.515  13.883
51182W        W24250  25.200   6.274   1.694
51183W        W24251  21.572  23.016  13.918
51184W        W24252  22.510  15.847  14.252
51185W        W24253  20.517  39.458  13.973
51186W        W24254  15.659   3.210   3.817
51187W        W24255   7.162  43.343   2.850
51188W        W24256  39.436   2.939  12.350
51189W        W24257   7.866   2.237  12.915
51190W        W24258   7.028   0.952  13.913
51191W        W24259  21.042  33.100   1.311
51192W        W24260  38.997   5.146   4.513
51193W        W24261  14.430  27.769  11.609
51194W        W24262   9.898   6.370   1.806
51195W        W24263  21.194  17.011  11.557
51196W        W24264  31.864   2.547   4.483
51197W        W24265  35.671  42.988   0.026
51198W        W24266  29.929   3.875  11.110
51199W        W24267  22.495   0.303  14.165
51200W        W24268  34.928  16.804   1.278
51201W        W24269  11.770   4.289  14.857
51202W        W24270  25.568  24.032   4.200
51203W        W24271   9.836  16.062  11.761
51204W        W24272  20.094   7.938   3.218
51205W        W24273   2.807  39.033  14.598
51206W        W24274  27.963   0.965   3.683
51207W        W24275  23.733  14.854   4.160
51208W        W24276   2.662  11.097  11.013
51209W        W24277   6.165  12.816  10.604
51210W        W24278   9.072   8.413   4.118
51211W        W24279  43.937  16.147   1.414
51212W        W24280  15.889  17.477  12.574
51213W        W24281   1.828  39.441  10.913
51214W        W24282  40.659  34.164  14.062
51215W        W24283   4.002  20.456  12.374
51216W        W24284  38.764  35.324   3.351
51217W        W24285  27.260  43.099  11.585
51218W        W24286  42.309  17.309  13.031
51219W        W24287  14.002  16.753   4.108
51220W        W24288  31.853   5.914   3.323
51221W        W24289  13.441  41.945  11.573
51222W        W24290  11.184  20.962  13.086
51223W        W24291  41.459   4.423  14.396
51224W        W24292  40.898   3.396   1.179
51225W        W24293  19.751  26.102   4.873
51226W        W24294   9.458  21.623  13.419
51227W        W24295  26.993  29.697  11.564
51228W        W24296  37.751  20.648   0.950
51229W        W24297  24.059   5.879   3.083
51230W        W24298   3.778  44.375   3.372
51231W        W24299  43.172  39.507  14.800
51232W        W24300  44.461   3.301  13.855
51233W        W24301   8.626  11.271  10.793
51234W        W24302  21.050  16.026   3.208
51235W        W24303  24.371  17.894   2.786
51236W        W24304  20.042   8.240  13.015
51237W        W24305  14.314  31.593   1.978
51238W        W24306   9.637   7.195   1.396
51239W        W24307  30.092  10.710   2.638
51240W        W24308   0.553  26.949  11.997
51241W        W24309  18.808  14.837  12.539
51242W        W24310  34.427  17.248  14.990
51243W        W24311  19.095  10.335   2.409
51244W        W24312  43.915   1.844  10.516
51245W        W24313  35.689   9.271  11.550
51246W        W24314   1.097  26.098  11.123
51247W        W24315  40.317  27.131   0.439
51248W        W24316  30.742  12.416   4.116
51249W        W24317  28.149  19.213  12.476
51250W        W24318   7.937   3.398  12.626
51251W        W24319  12.503   7.236   2.274
51252W        W24320  41.034  12.908  14.021
51253W        W24321  41.853  15.181  12.059
51254W        W24322  11.588  17.594   4.339
51255W        W24323   8.705  26.868  10.329
51256W        W24324  10.912  32.895  13.275
51257W        W24325  14.587  13.249   2.631
51258W        W24326  15.281  39.536   3.765
51259W        W24327  40.312  19.732  10.483
51260W        W24328  37.997   6.836  12.762
51261W        W24329  37.981   4.485   4.545
51262W        W24330  42.643  12.666  12.764
51263W        W24331  18.602  35.583  14.963
51264W        W24332  43.036  14.461   1.888
51265W        W24333  20.333  43.286  11.612
51266W        W24334   9.583   3.192   3.560
51267W        W24335  16.211  32.896  14.625
51268W        W24336  14.140  24.293   4.588
51269W        W24337  31.561  31.203   1.924
51270W        W24338  34.572  10.291  11.741
51271W        W24339   0.780  30.751  10.682
51272W        W24340  23.041  42.873  10.356
51273W        W24341  25.560  41.294   1.890
51274W        W24342   9.100  43.765  14.622
51275W        W24343  12.160  12.124   1.760
51276W        W24344   4.891  17.272  12.948
51277W        W24345  30.062  26.579  14.026
51278W        W24346  22.719  22.968   4.437
51279W        W24347  15.554   0.998  11.059
51280W        W24348  21.505   7.273  13.689
51281W        W24349  38.839  19.833   3.203
51282W        W24350  25.696  28.360   1.688
51283W        W24351  37.879  40.280  12.940
51284W        W24352  23.687  24.704   4.622
51285W        W24353  34.430  18.657   3.184
51286W        W24354  40.550  11.629  11.038
51287W        W24355  19.726  14.348  12.358
51288W        W24356  31.622  12.583  11.531
51289W        W24357  36.952  23.661   0.570
51290W        W24358  25.745  42.545   3.213
51291W        W24359  43.432  14.146  14.396
51292W        W24360  32.157  25.733  13.374
51293W        W24361   3.257  32.179   4.321
51294W        W24362  44.490  31.630  12.948
51295W        W24363  36.392  39.547   3.081
51296W        W24364  25.066  37.476   1.388
51297W        W24365  23.935  18.681  10.104
51298W        W24366  21.540  40.998   4.487
51299W        W24367  30.820  30.024  13.434
51300W        W24368  25.776  12.738  11.378
51301W        W24369   8.986  30.452   5.129
51302W        W24370  19.537  29.871  14.880
51303W        W24371  37.986  12.575  13.057
51304W        W24372  12.055   3.432   1.249
51305W        W24373   4.412  15.570   4.435
51306W        W24374  29.057  41.059  14.095
51307W        W24375  28.565  15.598   2.296
51308W        W24376   8.848  12.775   4.604
51309W        W24377  43.517  26.156   0.896
51310W        W24378  10.860  36.899   4.799
51311W        W24379  10.451  24.373   5.156
51312W        W24380  17.269   4.791  10.395
51313W        W24381  23.687  24.403  10.895
51314W        W24382   9.919  33.008  14.008
51315W        W24383  11.240  43.240   0.036
51316W        W24384  12.921  44.466  10.668
51317W        W24385   2.667  28.015   3.148
51318W        W24386  20.055  17.708  12.114
51319W        W24387   6.187  35.108   4.587
51320W        W24388   7.280  33.858  11.023
51321W        W24389   1.955  14.125  14.757
51322W        W24390  35.037  22.308   2.769
51323W        W24391   5.419  32.798  12.919
51324W        W24392  30.008  22.856   1.285
51325W        W24393  10.359  32.446  10.838
51326W        W24394  35.564  11.823  14.761
51327W        W24395  23.582   5.170  11.100
51328W        W24396  30.475  16.985   1.591
51329W        W24397   3.752  16.222  14.960
51330W        W24398  16.713  19.974   1.283
51331W        W24399  43.505  14.754   4.206
51332W        W24400  13.197  11.812  10.310
51333W        W24401  28.092  17.119  10.320
51334W        W24402  23.981  16.658  11.489
51335W        W24403  19.637   0.706  10.713
51336W        W24404  39.419  33.936   0.738
51337W        W24405  36.399   8.173  12.531
51338W        W24406   7.279  41.247   1.008
51339W        W24407  20.771  39.759  13.243
51340W        W24408  27.177  19.705   3.849
51341W        W24409  15.785  40.420  14.312
51342W        W24410  20.172  37.663   2.300
51343W        W24411  25.022  32.963   4.097
51344W        W24412  26.910  29.598   1.838
51345W        W24413  21.069   1.551  12.074
51346W        W24414   5.983  24.167  11.220
51347W        W24415  29.612  10.161  10.451
51348W        W24416  11.824  13.195  10.863
51349W        W24417  44.378  27.029   2.889
51350W        W24418  40.447  15.268  11.183
51351W        W24419  32.481  34.401  10.843
51352W        W24420  43.933  13.692   3.848
51353W        W24421  36.917   3.247   3.377
51354W        W24422  13.090   0.786   3.747
51355W        W24423   4.323  26.178   0.785
51356W        W24424  20.728   7.415   0.381
51357W        W24425  36.589  37.863   4.889
51358W        W24426   4.144  44.501   2.585
51359W        W24427  42.572  30.510  14.994
51360W        W24428   2.937  35.800  14.810
51361W        W24429  42.244  35.754   3.119
51362W        W24430  33.335  20.251   1.457
51363W        W24431  12.788   7.926  14.801
51364W        W24432  44.804  44.305  14.494
51365W        W24433  17.811  18.271  13.512
51366W        W24434  16.553   3.000   2.465
51367W        W24435  41.995  30.120   4.569
51368W        W24436   5.436  12.773   4.233
51369W        W24437   2.399  18.941  10.660
51370W        W24438  23.059  10.733   3.746
51371W        W24439  27.177   4.217   3.696
51372W        W24440  19.880  29.089  14.480
51373W        W24441  22.230   4.203   1.310
51374W        W24442   8.670   4.287  14.479
51375W        W24443  19.008  25.011  14.955
51376W        W24444  20.117  20.030  13.227
51377W        W24445   6.732   8.216   4.194
51378W        W24446  28.651  29.538   4.434
51379W        W24447  28.678  41.279  13.423
51380W        W24448  14.081  39.490  14.804
51381W        W24449  16.561  38.876   4.801
51382W        W24450  21.137  34.838   2.606
51383W        W24451  14.818  36.631  10.466
51384W        W24452  11.725  40.742  14.712
51385W        W24453  17.331  16.871   3.786
51386W        W24454  31.779  39.094   5.012
51387W        W24455  20.832  13.517  11.820
51388W        W24456  12.746  22.603   1.965
51389W        W24457  33.885  20.926   4.997
51390W        W24458   2.003  18.670   3.710
51391W        W24459  40.145  13.910  11.540
51392W        W24460   3.865   7.296  13.501
51393W        W24461  43.724   9.066  13.450
51394W        W24462  29.865  12.756  14.486
51395W        W24463  14.910  35.371  14.824
51396W        W24464  14.140  12.274   2.886
51397W        W24465  42.785  17.029  11.596
51398W        W24466   3.259   4.962   4.653
51399W        W24467  16.426   4.928   0.829
51400W        W24468  27.021   3.359  14.806
51401W        W24469   2.415  38.634  12.102
51402W        W24470   9.862  10.379  11.049
51403W        W24471  22.555  38.851  14.942
51404W        W24472  32.436   8.611  12.943
51405W        W24473   5.396  43.307  10.678
51406W        W24474   3.673  16.343  13.884
51407W        W24475  44.375  18.159   0.463
51408W        W24476  44.258  28.905  11.220
51409W        W24477  44.801  27.685   1.372
51410W        W24478   1.954  36.079   3.331
51411W        W24479  12.141   4.281   4.067
51412W        W24480  33.021  36.371  12.583
51413W        W24481  27.589   0.580  11.586
51414W        W24482  16.867  28.159   2.821
51415W        W24483  39.328  42.492  10.678
51416W        W24484   3.596  11.699  12.540
51417W        W24485   6.925  42.803   0.454
51418W        W24486   9.884   1.382  12.818
51419W        W24487   1.473  20.687   0.053
51420W        W24488  20.299  31.183  14.205
51421W        W24489  38.536  12.258   4.486
51422W        W24490  10.171   3.254   1.346
51423W        W24491  17.964  12.648   1.823
51424W        W24492  13.893  23.441   5.037
51425W        W24493  33.129  33.853  11.082
51426W        W24494   7.699  11.231   1.267
51427W        W24495  16.130  27.243   4.920
51428W        W24496   8.374  30.718   3.236
51429W        W24497  29.291   6.224   0.776
51430W        W24498  42.316  24.209   0.491
51431W        W24499  31.631  19.679  14.882
51432W        W24500  18.538  22.511   0.409
51433W        W24501  31.438  14.730  12.464
51434W        W24502  19.611  16.858   3.652
51435W        W24503  26.437  30.610  11.607
51436W        W24504  17.407   1.047  12.846
51437W        W24505  29.648  32.024   1.636
51438W        W24506  43.405  28.909   0.972
51439W        W24507  26.579  41.372   1.874
51440W        W24508   8.615  36.091   1.783
51441W        W24509  35.475  36.555  11.216
51442W        W24510  25.237  31.416   4.318
51443W        W24511  24.006  25.212   3.461
51444W        W24512   9.661  35.455  10.909
51445W        W24513   3.011   9.682   0.193
51446W        W24514  17.587   3.551  11.597
51447W        W24515  13.553  12.553  11.261
51448W        W24516   7.387   0.031   0.819
51449W        W24517  18.804   7.405  12.027
51450W        W24518  27.125  30.383   1.451
51451W        W24519  38.604  34.538   4.127
51452W        W24520   9.351  18.721  14.086
51453W        W24521   8.759  41.332   3.599
51454W        W24522  29.237  36.693   3.685
51455W        W24523  36.669  30.041   2.718
51456W        W24524  38.436  36.568   2.184
51457W        W24525  40.717  16.251  14.001
51458W        W24526   9.196  42.512  14.926
51459W        W24527  24.017  16.870  12.778
51460W        W24528   1.749  42.541  11.204
51461W        W24529  17.026  43.211   2.315
51462W        W24530  11.180   2.877   0.959
51463W        W24531  28.598  13.318   0.871
51464W        W24532  25.806  10.372  13.841
51465W        W24533  35.895  19.546  13.954
51466W        W24534  31.492  17.138   3.204
51467W        W24535  34.137  21.700  13.407
51468W        W24536  35.561  40.509   0.414
51469W        W24537  25.668   7.158   5.004
51470W        W24538  18.532   2.753   2.811
51471W        W24539  23.432   3.232  12.839
51472W        W24540   5.852  26.046   1.896
51473W        W24541  33.776  32.150   4.094
51474W        W24542  30.745  13.646   1.446
51475W        W24543   8.374  16.178  11.341
51476W        W24544  36.042  27.986   0.240
51477W        W24545  28.436  29.551  13.878
51478W        W24546  22.298  30.478   5.219
51479W        W24547   8.207  38.966  11.844
51480W        W24548  40.112  24.741   1.381
51481W        W24549  22.427   2.231  10.579
51482W        W24550  12.725  22.464  13.400
51483W        W24551  18.642  27.494  13.782
51484W        W24552  13.297  30.152  11.535
51485W        W24553   7.443  25.164   1.937
51486W        W24554  37.566  27.475   2.292
51487W        W24555  30.855   9.229   3.647
51488W        W24556  39.355  11.245   1.417
51489W        W24557   4.082  12.306   1.780
51490W        W24558  23.992  39.072  11.431
51491W        W24559  28.614  27.076   1.193
51492W        W24560  27.476  26.524   4.094
51493W        W24561  30.432   6.459  14.469
51494W        W24562  28.106   2.008  12.533
51495W        W24563  13.233   7.679  14.618
51496W        W24564  14.083  12.568  12.129
51497W        W24565  10.119   8.260   4.163
51498W        W24566  36.579  38.670   0.774
51499W        W24567  44.254  41.866  14.790
51500W        W24568  10.252  32.271   3.715
51501W        W24569  11.874  41.455   0.461
51502W        W24570   3.757   5.237   0.121
51503W        W24571  37.285   2.456   4.213
51504W        W24572  30.858  16.246  11.496
51505W        W24573  11.778   1.093   3.855
51506W        W24574  16.390   2.149  13.052
51507W        W24575  36.972  27.088   2.568
51508W        W24576   9.767  30.359   1.256
51509W        W24577  44.551  42.425  13.490
51510W        W24578  15.061  20.599   4.217
51511W        W24579  21.983  31.865   0.373
51512W        W24580  13.842   5.842   3.738
51513W        W24581  14.918   5.354  11.082
51514W        W24582  18.996   1.547  14.606
51515W        W24583   7.003   2.812   3.247
51516W        W24584  26.365   3.553   1.390
51517W        W24585  15.091  14.014   3.398
51518W        W24586  44.213  18.568   4.950
51519W        W24587  41.432  43.957   1.187
51520W        W24588   6.356  24.066   2.254
51521W        W24589  20.071  15.398  13.066
51522W        W24590  15.347  28.205   1.035
51523W        W24591  41.913   0.544   0.380
51524W        W24592  43.234  17.676   0.300
51525W        W24593   7.557   1.096  14.542
51526W        W24594  33.970  44.592  13.393
51527W        W24595   4.691  42.749  11.008
51528W        W24596  19.232   6.654   0.369
51529W        W24597  44.869   0.486  11.200
51530W        W24598  13.136  36.906  11.227
51531W        W24599  39.236   0.256   2.813
51532W        W24600  31.473   6.883   0.591
51533W        W24601  24.639   7.560   4.024
51534W        W24602  35.876  23.250   0.862
51535W        W24603  25.167  23.985   1.301
51536W        W24604   0.675  23.601   2.371
51537W        W24605   2.400  20.736   4.201
51538W        W24606  38.036  43.401   0.525
51539W        W24607  19.763  10.290   0.736
51540W        W24608   7.204  27.688  14.000
51541W        W24609  36.601  24.490  11.604
51542W        W24610  43.358  34.617   3.143
51543W        W24611  28.381  27.072   2.724
51544W        W24612   5.354  24.054  13.537
51545W        W24613  30.973  34.448   4.609
51546W        W24614  17.653  30.628   0.736
51547W        W24615  31.231  20.541   3.137
51548W        W24616  20.818  16.216   2.778
51549W        W24617  21.568  24.248   4.174
51550W        W24618  19.776  11.718  12.812
51551W        W24619   0.969  41.135   3.203
51552W        W24620  41.683  22.481   1.943
51553W        W24621  25.612  17.095   1.331
51554W        W24622  41.568  30.822   0.003
51555W        W24623  10.408   1.422   4.145
51556W        W24624  38.332  33.442   3.102
51557W        W24625   9.894   1.872  13.910
51558W        W24626   8.602  26.799   2.312
51559W        W24627  38.798  38.637   4.990
51560W        W24628  19.330  23.585   1.399
51561W        W24629   1.756   5.123  14.644
51562W        W24630  37.862  25.545   4.178
51563W        W24631  24.977  29.603   4.574
51564W        W24632   5.960  42.360  12.066
51565W        W24633  26.041  31.396  10.475
51566W        W24634   9.746   5.833  12.309
51567W        W24635  20.538  22.943   2.412
51568W        W24636  14.743   6.410   3.188
51569W        W24637  37.609  38.010   3.705
51570W        W24638  31.905  41.617  13.356
51571W        W24639  11.181  21.604  11.861
51572W        W24640   3.254  27.449  14.016
51573W        W24641   6.618   8.345   3.704
51574W        W24642  37.792  14.909   2.848
51575W        W24643   6.652  24.710  13.702
51576W        W24644  11.229  13.382   2.755
51577W        W24645  32.188  29.092  13.842
51578W        W24646  43.935  15.267   2.280
51579W        W24647  34.018  44.433   1.805
51580W        W24648   7.881  21.829   3.637
51581W        W24649  34.908  13.085  12.059
51582W        W24650   9.226  41.256  10.412
51583W        W24651   5.356   9.356  10.578
51584W        W24652  25.961   7.912   3.737
51585W        W24653   7.179  19.715   3.301
51586W        W24654  38.280  20.700  13.160
51587W        W24655  39.811  38.499  11.145
51588W        W24656   2.335  24.174  11.029
51589W        W24657  40.010  36.152  13.678
51590W        W24658  15.205   6.712   1.208
51591W        W24659  12.049  31.435   2.404
51592W        W24660   8.757  25.153   3.668
51593W        W24661   9.147   7.685  13.014
51594W        W24662  29.694  32.107  13.022
51595W        W24663  22.358  28.585  10.084
51596W        W24664  22.735  19.690  13.481
51597W        W24665  29.470  44.774   3.875
51598W        W24666  25.221  43.477  11.143
51599W        W24667  29.840  11.125   2.822
51600W        W24668  22.741  43.146  10.685
51601W        W24669  10.176  35.147  12.915
51602W        W24670  28.984   7.915   2.235
51603W        W24671  29.894   5.776   0.049
51604W        W24672   9.431  27.084  14.602
51605W        W24673  23.950  22.083   0.239
51606W        W24674  33.108  24.107   2.388
51607W        W24675  33.720  34.478  11.652
51608W        W24676  41.467   9.902  11.139
51609W        W24677  20.708  24.670   4.800
51610W        W24678  29.621   2.269  11.635
51611W        W24679  11.090  11.044  14.893
51612W        W24680  26.523  19.154  10.904
51613W        W24681  39.040  29.039  11.477
51614W        W24682  37.498   8.828  11.151
51615W        W24683  34.378  37.202   1.719
51616W        W24684  15.836  36.968  11.688
51617W        W24685  32.212  14.257  12.582
51618W        W24686   8.392  43.609   2.842
51619W        W24687   6.860  39.151   1.612
51620W        W24688  37.780  33.623  11.578
51621W        W24689  17.179  13.685   2.119
51622W        W24690   7.879  37.459   1.017
51623W        W24691   9.179   6.912  14.777
51624W        W24692  31.122  34.438   3.290
51625W        W24693   4.201   0.873   1.857
51626W        W24694   0.384  41.096  13.562
51627W        W24695  28.546  12.680  11.264
51628W        W24696   8.712  26.027   0.452
51629W        W24697   7.312  29.832  11.972
51630W        W24698  41.608  44.851  12.013
51631W        W24699   1.948  38.851   4.055
51632W        W24700   5.467  18.255   3.812
51633W        W24701   7.725  39.326   0.433
51634W        W24702  15.535   0.214   3.788
51635W        W24703  42.792  18.979  12.544
51636W        W24704   1.875  26.736  12.944
51637W        W24705   8.653  41.435   2.121
51638W        W24706  21.287  30.675   1.590
51639W        W24707  44.190  21.112  12.619
51640W        W24708  29.996  41.016  13.939
51641W        W24709  40.260  35.368   3.170
51642W        W24710  39.211   8.009  13.657
51643W        W24711  26.599  33.953  12.494
51644W        W24712  26.219  20.129  12.220
51645W        W24713  29.873   4.235  12.159
51646W        W24714  33.880  28.105   4.198
51647W        W24715  26.591   1.565   1.344
51648W        W24716  10.863  38.407   3.594
51649W        W24717  29.520  25.994   1.730
51650W        W24718  15.655   2.232   0.257
51651W        W24719  38.512  19.231   4.691
51652W        W24720  16.553  25.944   2.685
51653W        W24721  34.095  15.571  13.391
51654W        W24722  16.247  41.333   3.546
51655W        W24723  23.113   0.925  12.560
51656W        W24724  37.387  19.272  13.883
51657W        W24725   7.599  34.124  14.866
51658W        W24726  41.602  40.392  11.377
51659W        W24727  42.924  12.125   1.321
51660W        W24728  36.961  34.701  10.291
51661W        W24729  32.549  40.858  13.457
51662W        W24730   5.347   6.298  11.942
51663W        W24731  29.555   0.494   2.781
51664W        W24732  32.969  26.249  13.457
51665W        W24733  15.539  33.603   0.916
51666W        W24734  35.045  24.133  14.629
51667W        W24735  22.935  11.160   4.065
51668W        W24736  36.422  13.722  10.665
51669W        W24737   4.185  41.883  13.066
51670W        W24738  11.600  39.365   5.053
51671W        W24739  15.402  22.213  12.999
51672W        W24740  23.674  22.869   0.548
51673W        W24741   2.005   2.291   4.546
51674W        W24742  15.787  23.038   4.193
51675W        W24743  42.493  14.421   1.249
51676W        W24744  15.589  13.892   0.040
51677W        W24745  21.655  13.756  13.368
51678W        W24746  39.475  35.562  14.963
51679W        W24747   4.118  13.832  11.972
51680W        W24748  10.273  14.557   2.887
51681W        W24749   5.490  19.562  11.555
51682W        W24750  33.870  30.666  11.024
51683W        W24751  23.039  41.350   3.183
51684W        W24752  35.564  11.582   4.313
51685W        W24753  24.129  20.072   3.269
51686W        W24754  40.089  12.778   1.994
51687W        W24755   8.225  27.366  14.994
51688W        W24756  15.097  20.220   3.212
51689W        W24757  11.285  29.060   2.643
51690W        W24758  19.432  37.991  10.809
51691W        W24759  30.222  22.166  11.606
51692W        W24760  43.046  27.487  14.877
51693W        W24761  40.069  12.746   4.374
51694W        W24762   0.930  17.329   0.310
51695W        W24763   6.823  40.303  12.917
51696W        W24764   3.929  25.091   0.751
51697W        W24765   3.744   3.276  10.621
51698W        W24766  15.115  22.578  13.980
51699W        W24767  31.461   8.085   1.489
51700W        W24768  22.743  42.757   4.645
51701W        W24769  40.826  18.525  13.844
51702W        W24770  14.611  35.159   4.244
51703W        W24771  31.519  33.977  10.876
51704W        W24772  36.951   7.251   4.809
51705W        W24773  38.962   1.404   0.376
51706W        W24774  27.618  31.765  14.867
51707W        W24775  42.898   0.003   0.420
51708W        W24776  16.330  20.582  10.747
51709W        W24777  16.894   5.422   0.334
51710W        W24778  30.194   4.343   4.731
51711W        W24779  11.911   3.316   4.616
51712W        W24780  21.584  21.948   2.321
51713W        W24781  17.318  44.589   3.513
51714W        W24782  11.332   2.555  11.109
51715W        W24783  39.334  40.868   0.767
51716W        W24784   4.443  38.633  11.125
51717W        W24785  19.206  25.191   3.335
51718W        W24786  33.578  14.127   4.578
51719W        W24787   5.937   4.937   3.371
51720W        W24788  18.210  16.343   3.420
51721W        W24789  18.002   8.579  14.872
51722W        W24790  14.165  30.753   4.657
51723W        W24791  42.438  20.669   4.629
51724W        W24792  25.840   8.198  13.281
51725W        W24793  28.306  16.316  13.440
51726W        W24794  14.354  37.429   1.410
51727W        W24795  44.382   9.268  10.989
51728W        W24796   9.728  18.142   1.304
51729W        W24797   4.144  16.957  11.228
51730W        W24798  40.937  33.979  14.476
51731W        W24799  23.775  27.571   2.625
51732W        W24800  25.166  11.302  14.729
51733W        W24801   8.055   6.240  12.044
51734W        W24802  16.125  22.669   4.154
51735W        W24803   0.535  41.853  14.267
51736W        W24804  11.554  36.422   2.648
51737W        W24805  14.863  41.795  12.396
51738W        W24806  15.764  17.559   1.200
51739W        W24807  35.900   4.409  13.458
51740W        W24808  12.353  12.285   0.421
51741W        W24809  11.815   1.815   1.879
51742W        W24810  40.003  15.863  10.957
51743W        W24811  43.554  21.327  14.297
51744W        W24812  22.743  37.883   4.703
51745W        W24813   4.468  26.260   1.726
51746W        W24814  17.025  35.236   3.582
51747W        W24815   7.149  29.411  11.171
51748W        W24816  22.094   5.689  13.879
51749W        W24817  41.372   7.973   0.500
51750W        W24818  20.958  13.062   2.360
51751W        W24819   6.173  22.113   1.758
51752W        W24820  12.222  25.744  12.918
51753W        W24821  24.413   2.025  10.991
51754W        W24822  40.895  38.092  12.896
51755W        W24823   8.469  10.956  12.499
51756W        W24824  28.213   5.980   2.482
51757W        W24825   8.822  41.860  10.180
51758W        W24826   4.085  30.440   0.062
51759W        W24827  40.497  41.083   3.602
51760W        W24828  25.590  32.711  13.036
51761W        W24829  34.666  32.078   9.792
51762W        W24830  35.136  30.585  10.162
51763W        W24831  18.963  38.027  11.577
51764W        W24832  29.655  31.989   0.225
51765W        W24833  20.199  12.899  13.935
51766W        W24834  22.681  23.479   4.620
51767W        W24835  24.983   3.106   1.574
51768W        W24836  34.424   1.351   3.445
51769W        W24837  37.502  31.188   4.494
51770W        W24838  25.419  16.339   2.239
51771W        W24839  39.191   3.304   0.284
51772W        W24840  29.043  11.513   4.829
51773W        W24841  12.333  13.227   2.253
51774W        W24842  20.685   8.260  10.902
51775W        W24843   7.752  26.463  10.052
51776W        W24844  32.051  21.254   0.007
51777W        W24845  18.555   7.467  11.585
51778W        W24846   5.617  16.454  12.896
51779W        W24847  26.649  30.557   2.776
51780W        W24848  34.363  25.518  14.368
51781W        W24849  23.994  31.523   3.757
51782W        W24850  13.932  22.439   2.404
51783W        W24851  32.857  28.129   0.338
51784W        W24852  26.240   8.435   3.266
51785W        W24853  43.750  44.756   4.359
51786W        W24854  31.848  11.153   3.093
51787W        W24855   6.650  38.865  12.801
51788W        W24856  40.410  25.728  11.907
51789W        W24857  42.314  44.395   0.791
51790W        W24858   8.915  13.602   1.422
51791W        W24859   1.387  27.636  10.669
51792W        W24860   7.474  27.905  11.900
51793W        W24861   6.287  14.805  12.568
51794W        W24862  22.053  39.840   2.731
51795W        W24863  42.915   8.677   1.993
51796W        W24864  29.046   6.563   1.938
51797W        W24865  39.410  38.664  12.458
51798W        W24866  23.578  21.957  14.350
51799W        W24867  29.445  20.334  14.277
51800W        W24868  18.120   2.921   4.362
51801W        W24869  24.244   9.833  11.201
51802W        W24870   0.019   3.732  13.100
51803W        W24871  43.299  37.725   4.309
51804W        W24872  24.098  10.181  14.572
51805W        W24873  39.028   3.214   0.782
51806W        W24874  32.077  27.377   4.163
51807W        W24875  32.702  13.215  12.515
51808W        W24876   7.418  44.565  10.585
51809W        W24877   0.312   3.342  11.047
51810W        W24878  17.684  33.441   3.366
51811W        W24879  43.528  16.211   2.764
51812W        W24880  35.839  27.923   3.275
51813W        W24881  25.814  16.860   1.755
51814W        W24882  31.563  24.758   4.008
51815W        W24883   0.048  43.081   4.176
51816W        W24884  14.383  20.323   1.222
51817W        W24885  41.272  33.405   3.081
51818W        W24886  15.097  18.688  12.940
51819W        W24887  21.455  18.101   4.567
51820W        W24888   0.404  31.462  14.535
51821W        W24889  36.480  16.367   3.352
51822W        W24890  16.566  17.934  12.972
51823W        W24891  35.894   5.456  12.051
51824W        W24892  40.484  44.511  12.587
51825W        W24893  18.637  29.235  14.022
51826W        W24894   3.980  19.196  10.520
51827W        W24895  22.988  29.645   3.792
51828W        W24896  16.226  40.527  11.256
51829W        W24897  21.966  18.066   4.727
51830W        W24898  20.978  42.782   3.889
51831W        W24899  37.490  21.095   0.990
51832W        W24900  19.547  23.254  13.325
51833W        W24901   5.800  14.671   1.840
51834W        W24902  38.557  31.852   3.713
51835W        W24903   5.969   1.108  10.329
51836W        W24904  17.030  10.299   0.466
51837W        W24905   6.315  22.552  10.412
51838W        W24906   2.132   9.511   4.841
51839W        W24907  36.170  40.286   3.794
51840W        W24908   7.583  22.749  11.478
51841W        W24909  28.764   0.033   3.254
51842W        W24910  34.252  21.865  14.384
51843W        W24911  33.405   7.374  11.618
51844W        W24912  19.186  30.980   2.299
51845W        W24913  32.732   3.426  11.174
51846W        W24914  12.849   2.430  11.219
51847W        W24915  22.323  16.979  11.110
51848W        W24916   0.049   1.789   1.899
51849W        W24917  35.698   6.607   0.547
51850W        W24918  32.159  41.837  13.821
51851W        W24919  37.372  20.301   1.149
51852W        W24920   6.959   5.344  10.463
51853W        W24921  14.627  20.555  12.652
51854W        W24922  31.957  43.377  11.675
51855W        W24923  16.083   8.928  14.696
51856W        W24924  27.392  41.355   9.897
51857W        W24925   4.434   3.877  13.762
51858W        W24926  43.529  38.739  10.727
51859W        W24927  43.817   9.380  13.882
51860W        W24928   5.742  15.424   1.356
51861W        W24929  44.722  18.771  11.111
51862W        W24930  34.919   7.776   4.553
51863W        W24931  12.607  26.099  12.204
51864W        W24932   9.053  36.005   3.846
51865W        W24933   9.846  24.751  12.971
51866W        W24934   2.213  37.216   1.383
51867W        W24935  16.747   0.157   4.567
51868W        W24936  27.080  41.514   4.033
51869W        W24937  36.400  13.606   0.755
51870W        W24938  25.024   1.971  12.460
51871W        W24939   9.449  32.120   2.519
51872W        W24940   9.241   8.746   4.504
51873W        W24941  37.729  23.948   3.246
51874W        W24942  37.130  21.249   2.166
51875W        W24943   7.692  40.903  11.978
51876W        W24944   0.256  37.891  13.619
51877W        W24945  12.690  41.050   3.214
51878W        W24946  15.652  44.764   0.525
51879W        W24947   2.911   5.972  10.661
51880W        W24948  31.581  28.441  12.824
51881W        W24949   7.061  31.581   4.037
51882W        W24950  25.253  37.429   3.307
51883W        W24951  16.626  33.359   3.655
51884W        W24952   3.198   5.670  11.617
51885W        W24953  26.443   3.031  13.980
51886W        W24954  21.599  24.269   1.302
51887W        W24955  41.398  21.096   0.894
51888W        W24956  13.212  18.731  14.951
51889W        W24957   9.083  36.841  11.605
51890W        W24958  28.615  16.200   3.293
51891W        W24959  39.064   5.887   1.092
51892W        W24960  27.074  33.204   2.630
51893W        W24961   9.940  27.940  13.428
51894W        W24962   3.306  40.529   4.561
51895W        W24963  36.864   0.434  12.346
51896W        W24964  36.440   4.978   2.728
51897W        W24965   4.010   1.669   3.211
51898W        W24966  43.655   7.004   2.343
51899W        W24967  15.077  40.788   2.850
51900W        W24968   0.299   6.447   3.293
51901W        W24969  15.607  18.677  10.728
51902W        W24970  26.747  25.278  13.218
51903W        W24971  44.371  14.065  13.984
51904W        W24972  18.689  15.433  14.598
51905W        W24973  22.456  13.752   4.705
51906W        W24974  23.571   5.478   1.542
51907W        W24975  30.464  23.394  11.220
51908W        W24976  21.351  27.265   3.658
51909W        W24977  38.102  23.624  10.613
51910W        W24978   7.484  25.771  12.581
51911W        W24979  41.034  17.181   2.298
51912W        W24980  14.762  19.443  14.022
51913W        W24981  26.520  35.057  10.714
51914W        W24982  27.202   5.257   4.559
51915W        W24983  41.183  26.634   0.315
51916W        W24984  22.996  13.394   2.408
51917W        W24985   5.812   7.428  14.234
51918W        W24986  20.008  39.459  14.059
51919W        W24987  39.113  42.206   0.609
51920W        W24988  14.757  38.954   2.673
51921W        W24989   6.690  29.715  14.956
51922W        W24990   7.252  13.097   1.203
51923W        W24991  29.120  44.940   1.103
51924W        W24992  37.169  15.653  14.785
51925W        W24993  20.605   7.878  13.579
51926W        W24994   7.662  17.116  11.656
51927W        W24995  28.912  23.646  12.313
51928W        W24996  40.858   2.918   1.414
51929W        W24997  27.222  37.622  12.452
51930W        W24998  36.833   0.817  14.317
51931W        W24999  17.228  39.377  14.949
51932W        W25000  26.638   3.654   0.913
51933W        W25001  39.357  10.961   2.779
51934W        W25002  23.269   5.723  12.879
51935W        W25003  41.976  15.811  10.074
51936W        W25004  15.363  42.372   4.799
51937W        W25005  31.393  44.491  13.468
51938W        W25006  37.356   4.026  13.486
51939W        W25007  14.663  29.984   1.740
51940W        W25008  12.306  40.108  11.561
51941W        W25009  21.618   3.428  13.458
51942W        W25010  19.309  37.098   3.856
51943W        W25011  19.272  37.639   1.746
51944W        W25012  28.134  32.866  14.332
51945W        W25013   7.258  37.070   1.724
51946W        W25014   5.214  18.177   3.133
51947W        W25015  21.271  23.968  11.025
51948W        W25016  38.468  42.275  12.025
51949W        W25017  22.116   5.171   0.416
51950W        W25018  11.286  37.536   4.057
51951W        W25019  40.471  22.448   2.124
51952W        W25020  31.317  28.512  12.331
51953W        W25021   2.500  10.224  10.775
51954W        W25022  29.129  12.574   0.004
51955W        W25023  40.740   9.908  10.773
51956W        W25024  44.315  31.342  10.607
51957W        W25025  28.137  41.949  10.503
51958W        W25026  41.302  32.969   3.342
51959W        W25027  10.216  36.242   4.217
51960W        W25028  30.967  25.545   4.453
51961W        W25029  21.119  42.862  13.884
51962W        W25030  29.602   3.990   2.447
51963W        W25031   7.475   8.833  12.435
51964W        W25032   9.830   4.282   2.167
51965W        W25033  29.655  22.510   1.364
51966W        W25034  19.554  17.036  14.405
51967W        W25035  23.930  38.389  11.829
51968W        W25036  21.208  15.394   4.085
51969W        W25037  23.148  32.345  14.891
51970W        W25038  36.553  19.223  14.261
51971W        W25039  11.869   2.425  13.422
51972W        W25040  35.540  19.710  12.976
51973W        W25041  18.161   7.321  14.748
51974W        W25042  24.605  29.646   3.231
51975W        W25043  41.435  41.006   4.399
51976W        W25044  33.032   9.638   2.948
51977W        W25045  12.384   6.352  11.703
51978W        W25046   7.341   0.563  11.866
51979W        W25047   7.168  21.787   2.415
51980W        W25048   2.243   5.841   2.277
51981W        W25049  26.791  44.773  11.126
51982W        W25050  43.887  14.604   1.613
51983W        W25051  39.835  10.110  12.925
51984W        W25052  25.971   8.297  12.252
51985W        W25053  18.803  14.161   4.661
51986W        W25054  21.313   8.859   0.840
51987W        W25055  16.162  19.563  14.585
51988W        W25056  38.385  18.779   2.787
51989W        W25057  32.101  23.054   1.967
51990W        W25058  15.736  36.843   4.114
51991W        W25059  21.545  36.509   4.399
51992W        W25060   8.765   0.325   1.544
51993W        W25061   1.758   6.396   4.514
51994W        W25062   6.905  30.922   2.640
51995W        W25063  21.695   4.341   3.808
51996W        W25064   7.160   9.345   4.141
51997W        W25065  37.323  19.564   4.528
51998W        W25066  13.728  35.558   2.203
51999W        W25067   5.470  39.460  13.393
52000W        W25068  39.991  17.949   0.105
52001W        W25069  10.949  27.446   0.548
52002W        W25070   4.852   8.415   1.407
52003W        W25071   2.933  28.069   4.237
52004W        W25072  16.731  11.110  14.324
52005W        W25073  24.170  12.262  13.473
52006W        W25074  16.741  34.319  13.583
52007W        W25075  34.044  12.161  12.354
52008W        W25076  15.646  24.957  14.088
52009W        W25077   1.738  42.751  12.329
52010W        W25078  10.688  35.934   4.194
52011W        W25079  21.221   0.276  14.312
52012W        W25080   0.783  42.003  12.146
52013W        W25081   9.263  37.613   1.276
52014W        W25082  17.337  28.029   0.389
52015W        W25083  33.645  17.814   0.886
52016W        W25084   6.816  16.542   3.153
52017W        W25085  42.233  30.973   4.106
52018W        W25086  10.305  28.476  10.102
52019W        W25087  15.859  44.012  11.174
52020W        W25088  31.437  17.707   4.452
52021W        W25089  32.815  38.446  13.409
52022W        W25090   0.968  14.088  10.739
52023W        W25091  14.522  31.828  10.650
52024W        W25092  10.940  11.662   1.324
52025W        W25093  34.898  15.008   2.629
52026W        W25094  19.232  40.631  14.261
52027W        W25095  11.864  23.211   1.208
52028W        W25096  11.803  24.035  14.405
52029W        W25097  10.718  41.501   0.854
52030W        W25098  37.487  17.611   3.723
52031W        W25099  28.567  36.880  13.122
52032W        W25100   9.136  28.668  12.544
52033W        W25101  28.084  37.022   4.964
52034W        W25102  14.643  30.057  11.887
52035W        W25103  20.777   2.284   0.882
52036W        W25104  24.523  22.300   2.246
52037W        W25105  13.311   8.950  10.328
52038W        W25106  25.615  22.453   1.925
52039W        W25107  39.839  42.292   2.972
52040W        W25108  29.413  12.637   0.860
52041W        W25109  10.794   8.203   1.913
52042W        W25110  41.085   0.140  10.277
52043W        W25111  40.707  28.716   2.707
52044W        W25112  23.648  16.692  10.196
52045W        W25113  19.065  34.556   2.168
52046W        W25114  36.824  28.434   1.396
52047W        W25115   9.232  40.965  14.943
52048W        W25116   9.209  35.294   1.007
52049W        W25117  43.406  14.766  12.019
52050W        W25118  30.440  38.973  12.406
52051W        W25119  43.782  26.582  12.620
52052W        W25120   6.141  30.906  11.130
52053W        W25121  21.659  13.708  12.852
52054W        W25122  15.105   6.172  11.981
52055W        W25123   5.112  43.373  11.122
52056W        W25124  40.834  44.277   1.517
52057W        W25125  32.556  36.552  12.475
52058W        W25126  35.449  30.541   2.770
52059W        W25127   7.675  14.589  13.324
52060W        W25128  32.578  21.241   3.337
52061W        W25129  15.834  28.931  11.087
52062W        W25130  44.035  42.323  13.551
52063W        W25131  20.909  40.747  11.547
52064W        W25132  32.412  11.154  10.592
52065W        W25133  22.706  30.471  13.825
52066W        W25134  10.589   7.334   2.386
52067W        W25135   5.639  30.038   1.309
52068W        W25136   7.367  23.055  13.115
52069W        W25137  17.097  35.582   3.189
52070W        W25138  15.562  40.062   0.845
52071W        W25139  18.598  11.293  11.018
52072W        W25140   6.656  41.962  14.919
52073W        W25141   2.701  41.994  10.720
52074W        W25142  40.579  10.662  13.068
52075W        W25143  39.507   8.671  10.855
52076W        W25144  30.095   7.254  12.579
52077W        W25145  12.306  43.010   0.389
52078W        W25146  14.273  25.608   1.000
52079W        W25147   4.395  21.264   2.770
52080W        W25148  44.519  11.962   0.172
52081W        W25149  40.596   0.420   3.735
52082W        W25150  30.085  27.587   1.416
52083W        W25151   0.819  32.217  10.611
52084W        W25152   7.760  27.869  13.883
52085W        W25153  10.620   8.850   4.885
52086W        W25154  31.457  13.801   2.408
52087W        W25155  33.804  35.937   2.630
52088W        W25156  12.343  11.860  14.497
52089W        W25157   5.986  20.037  11.914
52090W        W25158   7.808  44.685  12.253
52091W        W25159  18.897  15.692   1.936
52092W        W25160  13.743  20.684  10.579
52093W        W25161  34.941  26.338   0.779
52094W        W25162   8.167   8.181   1.784
52095W        W25163   1.973   8.950  11.017
52096W        W25164  40.346  18.236   2.668
52097W        W25165  30.422  28.299   1.219
52098W        W25166   2.324  12.293  13.964
52099W        W25167   6.742   8.955  13.122
52100W        W25168  11.596  39.370  14.876
52101W        W25169  34.545   4.806  10.934
52102W        W25170  44.561   9.666   3.738
52103W        W25171  20.169  38.490  13.374
52104W        W25172  33.487  29.659   2.231
52105W        W25173   0.159  24.170   1.346
52106W        W25174  31.846   8.999  12.412
52107W        W25175   5.268   2.811   4.554
52108W        W25176  30.532   3.020   0.031
52109W        W25177   7.624  15.916   1.674
52110W        W25178  37.014  44.264  12.909
52111W        W25179  30.356   6.334   3.861
52112W        W25180  20.989  13.011  11.085
52113W        W25181  19.746  40.027  12.613
52114W        W25182  16.871  33.081  14.027
52115W        W25183   6.664   9.525  14.276
52116W        W25184  31.612  15.127   4.048
52117W        W25185  42.460  40.808  10.429
52118W        W25186   4.791  24.715   0.122
52119W        W25187  24.637   8.434  10.771
52120W        W25188  26.439   5.867  13.414
52121W        W25189   6.174  30.086   4.663
52122W        W25190   4.541  41.495  10.688
52123W        W25191  37.297   7.828   2.367
52124W        W25192  17.523   4.591   4.255
52125W        W25193   3.355   3.001   0.323
52126W        W25194  23.628  20.150  12.236
52127W        W25195  29.545   0.411  12.011
52128W        W25196  18.410  34.634   3.072
52129W        W25197  34.040  30.693  11.923
52130W        W25198  11.859   1.406  10.300
52131W        W25199  17.258   3.358   4.377
52132W        W25200  11.420  22.212  12.277
52133W        W25201  44.096  13.345  13.331
52134W        W25202  10.185  35.136   3.255
52135W        W25203  22.983  18.336  14.763
52136W        W25204  35.620  27.461   3.179
52137W        W25205  32.409  34.224  11.316
52138W        W25206   2.256  29.156  13.040
52139W        W25207  27.397  19.552   1.452
52140W        W25208   7.335  38.923   4.916
52141W        W25209  32.426  13.704  11.001
52142W        W25210  43.908  20.154  14.067
52143W        W25211  32.088  37.461  10.809
52144W        W25212   4.474  28.077  13.620
52145W        W25213  16.394  12.263  13.464
52146W        W25214  28.216  35.821   0.023
52147W        W25215  26.580  33.528  14.325
52148W        W25216  42.753  30.487   1.718
52149W        W25217  32.375  28.751  14.182
52150W        W25218  31.389   3.687  13.510
52151W        W25219  34.527  10.847   1.324
52152W        W25220  33.566   0.161   4.469
52153W        W25221  12.917  17.151   2.776
52154W        W25222  21.746  28.708  12.481
52155W        W25223  37.252  44.189   2.153
52156W        W25224  29.437  34.162  14.866
52157W        W25225  43.848  19.002  14.883
52158W        W25226  21.211  28.034  11.907
52159W        W25227   5.192  11.108   2.627
52160W        W25228  31.017   4.080   3.250
52161W        W25229  26.563  31.554   1.778
52162W        W25230  26.468  44.282  10.653
52163W        W25231  41.879  35.384   0.860
52164W        W25232  16.004  32.460   2.236
52165W        W25233  39.018  35.382  11.555
52166W        W25234  11.414  21.277   1.152
52167W        W25235   7.111  39.622   1.712
52168W        W25236  21.440  15.202   0.456
52169W        W25237  22.188   9.897   2.275
52170W        W25238  36.185   5.940  12.013
52171W        W25239  39.289  14.675  11.228
52172W        W25240   0.367   1.038   3.318
52173W        W25241  20.296  14.690   0.342
52174W        W25242   9.822  25.261  14.347
52175W        W25243  35.601  37.004  10.936
52176W        W25244  14.492  16.806   4.195
52177W        W25245  25.411  21.545  13.582
52178W        W25246  11.437  18.375  11.161
52179W        W25247  30.495  29.697   0.946
52180W        W25248  26.183   4.928  13.037
52181W        W25249  30.404  15.283  11.996
52182W        W25250   6.404   8.851   4.553
52183W        W25251  17.241   4.716   5.116
52184W        W25252  42.824   2.794   4.395
52185W        W25253  27.618  32.367   4.634
52186W        W25254   8.470  34.765   4.093
52187W        W25255  43.487  30.653  12.976
52188W        W25256  11.173  20.564  11.489
52189W        W25257   0.964  10.468   4.989
52190W        W25258  44.721  14.005   0.294
52191W        W25259  32.311  34.573  14.744
52192W        W25260   3.896  44.289  13.104
52193W        W25261  37.918   6.898  13.770
52194W        W25262  34.380  34.148  14.874
52195W        W25263  14.211  20.952  12.698
52196W        W25264  12.721  20.502   3.131
52197W        W25265  13.570  37.775  10.564
52198W        W25266   2.794   3.204  13.791
52199W        W25267  42.784  32.702   4.198
52200W        W25268  11.904  11.801  11.981
52201W        W25269   0.353  26.279   3.148
52202W        W25270  39.532  28.488  12.016
52203W        W25271  29.286  25.993   3.249
52204W        W25272  42.287   4.701   2.126
52205W        W25273  36.678   4.965  14.379
52206W        W25274  31.337  23.519   2.186
52207W        W25275  15.868  33.907   3.598
52208W        W25276  36.451  37.055  11.073
52209W        W25277   7.797  44.657  13.121
52210W        W25278  15.829  29.580   0.252
52211W        W25279   7.838  24.999   0.292
52212W        W25280  30.127   6.462  13.899
52213W        W25281  39.876   9.771  10.791
52214W        W25282  26.929  34.987   2.524
52215W        W25283  28.119   3.653   1.617
52216W        W25284  37.492  40.452   1.858
52217W        W25285  22.048  26.226   0.416
52218W        W25286   2.932   2.594   4.273
52219W        W25287  23.054  27.498   1.271
52220W        W25288  42.368  25.948  13.820
52221W        W25289  35.422  15.828   0.020
52222W        W25290  41.435  20.232  10.695
52223W        W25291   4.260  16.135  11.163
52224W        W25292  14.611  33.988  14.427
52225W        W25293  20.827  34.546  14.891
52226W        W25294  43.971  26.160  12.195
52227W        W25295  14.377   3.700  11.604
52228W        W25296   7.664  27.078  12.690
52229W        W25297  41.856  24.992  14.880
52230W        W25298  31.657  15.835   2.705
52231W        W25299  23.669  44.354   3.361
52232W        W25300   9.520   4.426   3.922
52233W        W25301   6.375  18.074   1.657
52234W        W25302  27.694  32.539  12.695
52235W        W25303   4.015  25.423  12.561
52236W        W25304   9.701  43.035  10.575
52237W        W25305   2.005   8.786   1.474
52238W        W25306  12.319  44.961   3.221
52239W        W25307   1.372  14.096   4.556
52240W        W25308  33.928  12.334  12.798
52241W        W25309   6.946  30.546  11.600
52242W        W25310  25.247  42.060  11.022
52243W        W25311  11.770  28.625   1.865
52244W        W25312  23.777  12.461   0.142
52245W        W25313   7.760   2.348   0.042
52246W        W25314  40.029  10.546  13.933
52247W        W25315   1.977   4.129   2.223
52248W        W25316  24.155   0.008   1.413
52249W        W25317   9.125  27.956  13.832
52250W        W25318  12.160  43.655   3.177
52251W        W25319  30.630  14.740  13.313
52252W        W25320  18.024  25.034  12.122
52253W        W25321   1.941  19.592   4.069
52254W        W25322  23.480  37.046  12.990
52255W        W25323  37.018  42.331   2.650
52256W        W25324  10.404   4.012   4.958
52257W        W25325  11.647  18.083   1.300
52258W        W25326  28.664  10.667  11.879
52259W        W25327  19.624  27.698   3.826
52260W        W25328  35.495  42.055  12.845
52261W        W25329   8.774  12.211   2.715
52262W        W25330   6.673  19.800   1.878
52263W        W25331   1.404   9.311  13.103
52264W        W25332  41.262   9.103   4.662
52265W        W25333   8.861  44.817  11.890
52266W        W25334  21.782  31.671  13.351
52267W        W25335  33.812  38.462  13.666
52268W        W25336  19.769   3.975   2.235
52269W        W25337  40.716  35.865  11.642
52270W        W25338  28.813  24.423   4.076
52271W        W25339  24.785   1.408   1.699
52272W        W25340  42.952  10.646  14.023
52273W        W25341  27.680  34.322   0.376
52274W        W25342  10.189  38.980   4.597
52275W        W25343  26.371  10.617  10.646
52276W        W25344  40.497  19.108  13.147
52277W        W25345  35.867  34.449   0.576
52278W        W25346  34.781  16.004   0.772
52279W        W25347  20.339  34.511  14.744
52280W        W25348  31.872  37.039  14.750
52281W        W25349  23.463  11.889   3.711
52282W        W25350  41.608  35.098   3.177
52283W        W25351  40.922   6.822   2.659
52284W        W25352  18.778  14.696   1.298
52285W        W25353  39.040   2.734  12.029
52286W        W25354  25.674  37.094  14.308
52287W        W25355  17.513   6.615   0.676
52288W        W25356   1.178   6.774  10.784
52289W        W25357  24.589  19.081   4.595
52290W        W25358   0.035   0.724   2.954
52291W        W25359  15.758  41.302   0.103
52292W        W25360  16.377  10.122  11.941
52293W        W25361   3.932  43.238   1.986
52294W        W25362  30.852  14.348   0.831
52295W        W25363  22.761  36.864  12.442
52296W        W25364   1.267  11.256  14.962
52297W        W25365  18.344  41.568   3.263
52298W        W25366  33.869  13.348   2.873
52299W        W25367  13.136  20.429   2.818
52300W        W25368  36.285   9.405   1.806
52301W        W25369   8.884  30.990  14.231
52302W        W25370   1.850   3.273   4.207
52303W        W25371  23.610  14.528  14.288
52304W        W25372  15.610   9.293   4.161
52305W        W25373  35.382  21.067   1.523
52306W        W25374  36.059  19.606   0.721
52307W        W25375   4.240  36.014   1.440
52308W        W25376   9.535  19.584   0.338
52309W        W25377  44.827  22.469  11.544
52310W        W25378  22.650  39.289  12.242
52311W        W25379  24.657   4.486   0.468
52312W        W25380  14.071  40.530   4.640
52313W        W25381  20.096   1.363  13.834
52314W        W25382   5.952  12.873   1.838
52315W        W25383  30.013   5.970   3.389
52316W        W25384  23.191  35.791   1.484
52317W        W25385  14.698  22.911  10.010
52318W        W25386   2.097  12.455   1.482
52319W        W25387  32.021  43.176  13.848
52320W        W25388  25.507  42.408   3.645
52321W        W25389  12.400  40.325   2.334
52322W        W25390  11.914  24.971  14.449
52323W        W25391  28.670   8.952   0.507
52324W        W25392   0.017  40.514  10.866
52325W        W25393  39.871  28.529  13.901
52326W        W25394   6.212   7.613  14.987
52327W        W25395  33.146  42.742  12.943
52328W        W25396  22.774  35.500   1.426
52329W        W25397  10.257  12.156  11.143
52330W        W25398   9.571  38.535   1.466
52331W        W25399  10.061  36.488  12.557
52332W        W25400  40.874   0.541   3.158
52333W        W25401  13.071  33.898  11.380
52334W        W25402  20.567   5.809  13.827
52335W        W25403  27.165  27.591  11.195
52336W        W25404  39.086  24.756  13.885
52337W        W25405  31.042  38.951   4.549
52338W        W25406   0.899  44.914   4.892
52339W        W25407   4.016  32.581   4.137
52340W        W25408   3.984   6.484   4.004
52341W        W25409  12.243  22.046  11.871
52342W        W25410  32.368  22.201  13.113
52343W        W25411  30.095   2.464  11.579
52344W        W25412  18.232  11.154   1.925
52345W        W25413  38.641   1.738  12.013
52346W        W25414  28.569  20.094  14.496
52347W        W25415  40.490  40.969   1.791
52348W        W25416   0.980   7.150   4.090
52349W        W25417  20.546   8.791  13.676
52350W        W25418  29.871  32.898  12.532
52351W        W25419  14.759   2.923  12.009
52352W        W25420  41.048   5.628   3.734
52353W        W25421  30.385  34.081   0.064
52354W        W25422  43.952  13.628   4.354
52355W        W25423  37.802  18.393   2.981
52356W        W25424  41.723  29.550  11.483
52357W        W25425  30.841  43.457   1.048
52358W        W25426  23.807  44.698   1.728
52359W        W25427  26.027   1.826   0.286
52360W        W25428   8.185  24.018   1.381
52361W        W25429  43.706   0.997   0.008
52362W        W25430  18.310  40.529  12.619
52363W        W25431  29.859  22.378  13.031
52364W        W25432  38.048  28.615  10.670
52365W        W25433  26.024  39.955   9.859
52366W        W25434   0.745  44.979   2.755
52367W        W25435  15.736  34.925  10.568
52368W        W25436  27.627  14.558   2.393
52369W        W25437  15.043  17.100   1.724
52370W        W25438  17.308  17.172  14.037
52371W        W25439  35.646  17.837   1.491
52372W        W25440   3.943  31.587   3.182
52373W        W25441  13.814  44.779  13.029
52374W        W25442  38.540  10.769  14.891
52375W        W25443  25.276  14.535   1.448
52376W        W25444   5.915   6.127  11.113
52377W        W25445  21.317  44.303   0.250
52378W        W25446  39.095  15.081   3.292
52379W        W25447  18.935  31.351   0.208
52380W        W25448   9.186  13.011   2.864
52381W        W25449  22.290  12.476   0.373
52382W        W25450  16.330  28.578   3.660
52383W        W25451  25.702  43.963   4.392
52384W        W25452  23.929  13.752   3.699
52385W        W25453  39.723  30.845  11.976
52386W        W25454   5.286   2.590   2.295
52387W        W25455  43.405   6.911  12.884
52388W        W25456  30.115   2.750   3.813
52389W        W25457   5.691   0.571   2.922
52390W        W25458   8.294   8.370  14.321
52391W        W25459  26.465  43.633  14.855
52392W        W25460   8.248  18.218  14.790
52393W        W25461   2.789  10.616   3.583
52394W        W25462   0.355  10.205  14.215
52395W        W25463  34.814  24.612  13.143
52396W        W25464  39.670  13.104   1.191
52397W        W25465   8.287  16.951   1.381
52398W        W25466  28.459  34.191   4.035
52399W        W25467  14.141  43.985  11.479
52400W        W25468  10.626   3.869   4.497
52401W        W25469  42.392  29.369  10.573
52402W        W25470  20.769  38.364   0.812
52403W        W25471  17.165   7.751   0.332
52404W        W25472  11.767  15.034  11.211
52405W        W25473   8.300   2.182  10.780
52406W        W25474  38.274  29.696  11.873
52407W        W25475  15.840  10.528   3.062
52408W        W25476  35.877  44.873  14.747
52409W        W25477  27.307   2.571   3.150
52410W        W25478  27.253  22.536   3.535
52411W        W25479  31.582  10.794   1.722
52412W        W25480  26.144  15.275  14.000
52413W        W25481  37.685  21.179   1.464
52414W        W25482  30.009  32.617   3.084
52415W        W25483   8.846  27.111   4.495
52416W        W25484  28.732  33.857  13.694
52417W        W25485  22.109   2.875   1.943
52418W        W25486  39.101  32.728   5.059
52419W        W25487  21.926  18.187  13.016
52420W        W25488  43.862  33.120   4.550
52421W        W25489   6.832  40.821  13.017
52422W        W25490  20.004  33.411   2.749
52423W        W25491  13.037  31.990  13.054
52424W        W25492  34.975  36.850   0.289
52425W        W25493  26.747   1.215  12.397
52426W        W25494  16.876  33.162  10.798
52427W        W25495  21.644  10.088  11.523
52428W        W25496  28.088   2.332   0.636
52429W        W25497  26.181   9.845  10.179
52430W        W25498  20.009  31.456  13.862
52431W        W25499  13.961  27.604   2.619
52432W        W25500  21.646   3.111   1.796
52433W        W25501  12.675  10.240  10.637
52434W        W25502   2.774  21.113  14.717
52435W        W25503  32.171  26.339  14.417
52436W        W25504   6.467  33.392  12.538
52437W        W25505  33.359  43.883   3.959
52438W        W25506  13.649   3.590  13.848
52439W        W25507  31.142  12.719   3.209
52440W        W25508  12.180  19.753   3.079
52441W        W25509  32.214  20.054  13.267
52442W        W25510  29.071  33.279  11.653
52443W        W25511  26.623  42.685   1.516
52444W        W25512  39.858   0.935  11.529
52445W        W25513  12.245  15.845   1.325
52446W        W25514  11.117  41.391  13.491
52447W        W25515  17.476   2.741   0.855
52448W        W25516   9.368  12.839   1.158
52449W        W25517  22.627  30.621   0.120
52450W        W25518  30.858   8.933   3.209
52451W        W25519  20.637  41.090   0.530
52452W        W25520   9.182   6.230   4.183
52453W        W25521  44.780  36.598  14.943
52454W        W25522  34.078  20.167   3.577
52455W        W25523  13.238  18.521   2.876
52456W        W25524  44.423  10.201  14.717
52457W        W25525  36.173  36.835  14.839
52458W        W25526  34.057  31.903  14.255
52459W        W25527  18.293  35.545  12.736
52460W        W25528  44.033  40.270   1.980
52461W        W25529  11.491   4.690  13.418
52462W        W25530   2.954  23.477   3.394
52463W        W25531  32.458  20.961  11.361
52464W        W25532  26.489  29.655  10.755
52465W        W25533  44.941  40.286  11.332
52466W        W25534  24.149  27.695   3.887
52467W        W25535  44.991  31.483  12.840
52468W        W25536  25.503  33.602   2.623
52469W        W25537   8.169  28.297  10.914
52470W        W25538  34.409  22.492   4.603
52471W        W25539  22.251  16.665   2.394
52472W        W25540  13.602  39.265   0.887
52473W        W25541  40.832  13.877  13.830
52474W        W25542  30.615   9.332   0.826
52475W        W25543  40.748  13.758  13.341
52476W        W25544  39.070  22.234   4.573
52477W        W25545  32.835  24.573   2.318
52478W        W25546  41.377  25.995   3.014
52479W        W25547  39.420  25.182   1.652
52480W        W25548   2.566  43.198  14.079
52481W        W25549  31.224  43.307   1.469
52482W        W25550  17.477  44.306  10.761
52483W        W25551  37.426  18.459  12.122
52484W        W25552  14.302   2.684   1.978
52485W        W25553  31.994  17.949  10.259
52486W        W25554  17.224   6.282   3.845
52487W        W25555  19.685   2.035  13.485
52488W        W25556  17.548   3.826   2.806
52489W        W25557  35.130  24.563  11.672
52490W        W25558  19.091  22.949  12.628
52491W        W25559   3.760  16.831   4.137
52492W        W25560  21.332   5.832  14.304
52493W        W25561  37.845  12.792   1.491
52494W        W25562  35.431  42.796  14.587
52495W        W25563  11.268  43.316   3.634
52496W        W25564   3.405  35.856   3.153
52497W        W25565   9.668  13.240   2.779
52498W        W25566  43.672  18.595  12.926
52499W        W25567   2.292  11.275  12.604
52500W        W25568  29.919  38.063  14.186
52501W        W25569  21.034   1.918  13.921
52502W        W25570  11.630  27.853  14.489
52503W        W25571   4.006  38.325  10.991
52504W        W25572   3.171  10.774   1.645
52505W        W25573   4.998  30.448   3.296
52506W        W25574  27.821  22.299   4.793
52507W        W25575  39.388  42.467   1.510
52508W        W25576  32.374  38.924   3.255
52509W        W25577  41.318  32.215   4.239
52510W        W25578  22.981   5.139   0.398
52511W        W25579  31.026  20.514   0.525
52512W        W25580   9.560  13.456  14.852
52513W        W25581  10.294  40.291  11.705
52514W        W25582  16.808   9.910   3.629
52515W        W25583  12.748  41.372   1.653
52516W        W25584  42.557  34.894   0.374
52517W        W25585  13.652  30.333   0.942
52518W        W25586  41.318  11.171  10.832
52519W        W25587  40.365  31.286   3.270
52520W        W25588   3.963  41.291   2.294
52521W        W25589   5.917  20.221   0.289
52522W        W25590  43.531  29.181  11.724
52523W        W25591  25.735  27.060   2.303
52524W        W25592   0.173   4.736  13.082
52525W        W25593  30.112  17.735   1.931
52526W        W25594  20.533  44.003  11.571
52527W        W25595  22.902  24.693   4.120
52528W        W25596  19.320  21.177  13.075
52529W        W25597   1.364  27.903  12.684
52530W        W25598   0.775  37.440   2.839
52531W        W25599   5.046  33.180   3.634
52532W        W25600  20.038   1.389   2.482
52533W        W25601  35.140  32.612   2.663
52534W        W25602  23.487  39.465   9.828
52535W        W25603   7.761  31.406   1.228
52536W        W25604  41.914  22.764   2.328
52537W        W25605  37.236  21.255   3.151
52538W        W25606   8.300  18.181   2.752
52539W        W25607   7.378  27.932  13.564
52540W        W25608  33.221  15.729  13.415
52541W        W25609  41.604  22.584   3.862
52542W        W25610  25.110  37.600  12.556
52543W        W25611  19.605   1.471   2.226
52544W        W25612  37.509  39.450   0.245
52545W        W25613  37.467  24.963   3.810
52546W        W25614  34.507  15.284   0.854
52547W        W25615   2.710  27.602   1.191
52548W        W25616  23.251   1.701  13.402
52549W        W25617  30.930   9.198   2.205
52550W        W25618  17.315  25.929  11.607
52551W        W25619  11.747  12.424   1.924
52552W        W25620  19.072  30.475   0.638
52553W        W25621  19.280  25.542  12.490
52554W        W25622  16.771   2.728  11.924
52555W        W25623  12.761  17.174  13.541
52556W        W25624  39.715  26.257  14.538
52557W        W25625  30.939  21.005   3.278
52558W        W25626  35.080  28.174   1.152
52559W        W25627   2.439  30.359   0.278
52560W        W25628  17.145  39.907   1.213
52561W        W25629   9.267  27.179  11.130
52562W        W25630   3.568  35.407  10.892
52563W        W25631   1.862  25.549  12.097
52564W        W25632  28.176   5.771   2.011
52565W        W25633  18.828  12.900   3.237
52566W        W25634  26.140  27.471  12.514
52567W        W25635  40.256  22.256   3.707
52568W        W25636   7.120   0.912  12.216
52569W        W25637  32.654  28.520   4.579
52570W        W25638  23.704  33.824  12.439
52571W        W25639   6.463   0.914  10.292
52572W        W25640  16.639  17.073  11.471
52573W        W25641  14.645  28.180   0.265
52574W        W25642  25.267  32.283  12.702
52575W        W25643  41.015  30.163  12.492
52576W        W25644  36.081  38.036   3.310
52577W        W25645  38.373   6.023   0.495
52578W        W25646  37.928  36.648  12.194
52579W        W25647  11.620  38.024   0.633
52580W        W25648  18.278  13.714   0.728
52581W        W25649  25.730  11.209   2.981
52582W        W25650  34.544  43.338   0.244
52583W        W25651  41.962  11.699   0.899
52584W        W25652  18.679  31.158   2.350
52585W        W25653  11.709  37.010  12.062
52586W        W25654   6.271   2.423   1.333
52587W        W25655  19.369  34.355   0.727
52588W        W25656  37.107  31.428   3.645
52589W        W25657   7.231  15.210  12.820
52590W        W25658  29.739  44.483  10.723
52591W        W25659  33.737  37.129   2.911
52592W        W25660  20.313  13.092  14.889
52593W        W25661  23.435  24.222   3.368
52594W        W25662   1.296  19.691   1.717
52595W        W25663  11.110  38.389  10.567
52596W        W25664   6.947   4.706  12.566
52597W        W25665  44.290  20.796  11.614
52598W        W25666  37.050  37.014   4.808
52599W        W25667   4.706  20.370  13.162
52600W        W25668  40.113  38.120  13.248
52601W        W25669   4.755  34.555  13.089
52602W        W25670  20.593  24.007  14.895
52603W        W25671   5.250  12.831   2.221
52604W        W25672  30.603  13.353   1.055
52605W        W25673  37.822   2.850   0.676
52606W        W25674  19.591  31.230  12.966
52607W        W25675  31.454  24.429   3.633
52608W        W25676  40.494  11.851   5.206
52609W        W25677  36.348  10.780  12.388
52610W        W25678  33.906   3.025   3.299
52611W        W25679  29.835  30.052   1.174
52612W        W25680  30.953  39.647  11.673
52613W        W25681   4.528  15.865   1.333
52614W        W25682   6.437   4.220   2.196
52615W        W25683  37.405  35.877   2.263
52616W        W25684  38.050  43.885   2.362
52617W        W25685  26.094  23.999   2.337
52618W        W25686   5.132  25.791   2.935
52619W        W25687  18.608  21.318   4.044
52620W        W25688  36.597  14.138   0.996
52621W        W25689  42.753  36.849   0.811
52622W        W25690  43.339  40.064  12.041
52623W        W25691  25.208   3.441  14.235
52624W        W25692  36.853  13.796  11.442
52625W        W25693   8.640  33.314  13.337
52626W        W25694   4.803   6.395   2.717
52627W        W25695   5.969  44.327  11.693
52628W        W25696  29.496  21.545   2.355
52629W        W25697   3.943   6.750   1.376
52630W        W25698  10.422  37.335  13.657
52631W        W25699  16.659  11.863  12.785
52632W        W25700  13.292  38.630  11.734
52633W        W25701  42.497  28.476  11.595
52634W        W25702  16.988   0.311  14.848
52635W        W25703  37.931  13.753  14.421
52636W        W25704   2.048  40.119   1.348
52637W        W25705  42.397  16.322   4.122
52638W        W25706  23.716  34.328   4.539
52639W        W25707  31.429   9.315  12.093
52640W        W25708  28.567  33.649   4.213
52641W        W25709   1.312  26.543   1.762
52642W        W25710  23.773   5.728  12.784
52643W        W25711  27.480  30.246   2.314
52644W        W25712   4.388  22.382   3.503
52645W        W25713  43.021  11.444  11.880
52646W        W25714  23.762  39.151   2.758
52647W        W25715  26.510   6.964  10.734
52648W        W25716  18.643   4.644  11.990
52649W        W25717  43.360  11.214  14.739
52650W        W25718  13.402  14.599   0.668
52651W        W25719  11.480  11.706   0.359
52652W        W25720   0.008  18.628   3.949
52653W        W25721  38.407  17.214   3.753
52654W        W25722  42.745  13.088   4.033
52655W        W25723  20.203   5.260  13.784
52656W        W25724   1.404  32.417   1.505
52657W        W25725  21.019  36.066  12.447
52658W        W25726  30.584   1.049  11.158
52659W        W25727   2.366  28.343   2.152
52660W        W25728  22.640  15.563   9.965
52661W        W25729  10.049  17.584  13.467
52662W        W25730  26.044  32.121   2.038
52663W        W25731  38.848   7.438   2.682
52664W        W25732  28.219   8.610  10.767
52665W        W25733  30.251  17.763   3.254
52666W        W25734   1.287   0.456   3.172
52667W        W25735   7.476  39.311   5.226
52668W        W25736  18.113  36.629   1.719
52669W        W25737  25.026  20.699   1.531
52670W        W25738   1.852  15.283   2.467
52671W        W25739  39.080  30.936  10.471
52672W        W25740   5.976  32.462  11.137
52673W        W25741  12.294  20.696   2.293
52674W        W25742  37.542  22.105   1.947
52675W        W25743  36.875  39.210   1.459
52676W        W25744  43.757  40.077  11.080
52677W        W25745  42.768   6.823  14.888
52678W        W25746  26.004   0.507  10.773
52679W        W25747   9.431  22.016   4.513
52680W        W25748  26.255   6.037   3.617
52681W        W25749   4.285   9.816  14.321
52682W        W25750  25.683  25.174  12.457
52683W        W25751  35.908  12.790   4.958
52684W        W25752  19.003  11.362   2.484
52685W        W25753   1.298  35.474   3.324
52686W        W25754  24.575  23.969   0.238
52687W        W25755   6.695   9.658  10.933
52688W        W25756  34.458  17.236  13.988
52689W        W25757  21.826  33.097   0.864
52690W        W25758  23.201  10.197  10.702
52691W        W25759  26.182   3.642  10.746
52692W        W25760  10.280  21.723   4.422
52693W        W25761  28.415   7.671  11.621
52694W        W25762  35.102   1.844  11.929
52695W        W25763  11.456   1.385  13.352
52696W        W25764  41.352  12.901   1.815
52697W        W25765   5.825  37.047  14.485
52698W        W25766   3.364  18.966   5.044
52699W        W25767   2.454  35.149   2.495
52700W        W25768  23.943  19.548  13.200
52701W        W25769  30.319  15.818  12.845
52702W        W25770   9.694  24.926   3.762
52703W        W25771  35.853   5.935  12.635
52704W        W25772  16.185  11.397  11.525
52705W        W25773  35.261  39.455  11.155
52706W        W25774  40.739  22.747  12.073
52707W        W25775  17.612  19.535  10.635
52708W        W25776  43.538   1.738   3.124
52709W        W25777  12.484  35.356  11.119
52710W        W25778  27.433  23.683   3.662
52711W        W25779  24.598  36.511   1.250
52712W        W25780   2.842  22.756  13.359
52713W        W25781  33.024  37.983  13.456
52714W        W25782  37.115  34.722   1.397
52715W        W25783  28.698  21.509   0.862
52716W        W25784  11.142  13.753  12.056
52717W        W25785  15.576  36.910   2.214
52718W        W25786  16.683  23.430   2.401
52719W        W25787   9.340   2.679   0.977
52720W        W25788  29.649   5.293  10.308
52721W        W25789  21.302  10.775   0.658
52722W        W25790  42.896  11.439  14.870
52723W        W25791  35.390   1.725  10.732
52724W        W25792  25.913  15.696   1.523
52725W        W25793  14.147  29.354  11.557
52726W        W25794  10.992   3.554   2.277
52727W        W25795  39.651  44.940  12.102
52728W        W25796  12.842  43.319  12.557
52729W        W25797  32.515  15.306   1.850
52730W        W25798  11.029  25.242  13.467
52731W        W25799  18.450   5.093  12.139
52732W        W25800  30.735  33.839  13.404
52733W        W25801  21.263  39.350   0.383
52734W        W25802   3.758   1.468   2.803
52735W        W25803   5.646   2.653   3.606
52736W        W25804  38.517  16.067   1.826
52737W        W25805  18.933   5.110  11.981
52738W        W25806   5.339  10.606  14.830
52739W        W25807  43.928   8.790  10.446
52740W        W25808  16.620  21.854  14.517
52741W        W25809  30.098   0.735   3.728
52742W        W25810  18.677  10.861  14.052
52743W        W25811  15.078  27.220   4.788
52744W        W25812  40.551  20.768  13.893
52745W        W25813  15.686   3.403  12.719
52746W        W25814  10.804   6.774   1.791
52747W        W25815  17.714  14.614   0.395
52748W        W25816  37.269  44.772  14.500
52749W        W25817  38.781   9.273   1.127
52750W        W25818  13.350  33.842   1.392
52751W        W25819  17.699   3.977  13.628
52752W        W25820   9.183   4.785   4.643
52753W        W25821  28.135  31.537  12.523
52754W        W25822  39.785  29.029  14.461
52755W        W25823   1.092   3.107  12.125
52756W        W25824  34.207   5.221  13.852
52757W        W25825  22.675  24.015   4.654
52758W        W25826   7.166  24.699   2.808
52759W        W25827   5.381  19.807  13.604
52760W        W25828  35.814  41.270   4.677
52761W        W25829  14.810   4.513   3.904
52762W        W25830  29.988  27.455   2.333
52763W        W25831   4.229  38.511   1.854
52764W        W25832  32.052  35.463  13.082
52765W        W25833  19.633  20.364  12.055
52766W        W25834   8.736  27.278  12.961
52767W        W25835  20.218  24.549  14.081
52768W        W25836  11.637  36.457  12.923
52769W        W25837  37.363  37.040   2.952
52770W        W25838  20.613  35.699  14.519
52771W        W25839  33.305  11.620   5.111
52772W        W25840  44.162  21.987   2.326
52773W        W25841   4.923  15.343  12.276
52774W        W25842  44.345  10.127  12.018
52775W        W25843  37.315  13.602  11.620
52776W        W25844  11.120  27.934   1.418
52777W        W25845   9.715  31.610  13.803
52778W        W25846  14.838  16.211  14.293
52779W        W25847  28.354   2.312   3.426
52780W        W25848  42.120  21.129   3.281
52781W        W25849  43.806  36.203  12.029
52782W        W25850  27.814  32.566   2.675
52783W        W25851   4.332  18.936   1.794
52784W        W25852  41.569   4.246   4.143
52785W        W25853  14.115  19.604   4.657
52786W        W25854  16.372  22.450   0.774
52787W        W25855  12.565  24.625   3.191
52788W        W25856  38.488   4.027  12.094
52789W        W25857  12.690  24.990   0.813
52790W        W25858  35.045  41.340   4.065
52791W        W25859  41.779   6.816   1.153
52792W        W25860  43.898  29.074  14.257
52793W        W25861  34.061  25.309  12.115
52794W        W25862  22.168  18.630  12.934
52795W        W25863  28.597  11.877   0.568
52796W        W25864  11.433  41.157   2.698
52797W        W25865  28.128  11.348  14.398
52798W        W25866   4.509   2.371  14.834
52799W        W25867  39.168  44.891   1.471
52800W        W25868  16.974  40.421   1.889
52801W        W25869  21.613  43.534  12.838
52802W        W25870  28.533   6.249   3.217
52803W        W25871   5.171   6.805  13.862
52804W        W25872  28.932  39.857  10.864
52805W        W25873  16.215  24.496   4.734
52806W        W25874  42.866  14.095  11.774
52807W        W25875  31.232  31.428  13.493
52808W        W25876  24.581  22.696   1.912
52809W        W25877  35.485  22.735  11.154
52810W        W25878  42.500  26.618   4.807
52811W        W25879   0.036  19.545   2.055
52812W        W25880  30.534  34.962  11.982
52813W        W25881  39.667  22.142  11.992
52814W        W25882  41.820  42.925   3.778
52815W        W25883   6.721  23.271  11.205
52816W        W25884   2.948  39.473  14.361
52817W        W25885  34.538  28.200   1.777
52818W        W25886  15.357  12.201  10.962
52819W        W25887  31.809   0.737   4.877
52820W        W25888  37.398  27.137   1.873
52821W        W25889  25.663  20.154  13.329
52822W        W25890  38.790  21.854   0.395
52823W        W25891  25.675   4.500   1.966
52824W        W25892  35.357  32.798   3.368
52825W        W25893  38.914  21.013  10.705
52826W        W25894   5.221  33.487  12.310
52827W        W25895  42.427  12.663   0.872
52828W        W25896   3.773  16.316   0.496
52829W        W25897  11.470  14.087  12.376
52830W        W25898  28.084   4.829   1.517
52831W        W25899  44.390  19.564   0.628
52832W        W25900   0.556  43.804   2.322
52833W        W25901  44.464  35.688   2.596
52834W        W25902  22.777  40.584  14.476
52835W        W25903   9.715  41.481   1.863
52836W        W25904  29.622  35.460   1.827
52837W        W25905   8.335  38.104  12.315
52838W        W25906  36.849   9.472   0.831
52839W        W25907  21.080  37.419   4.396
52840W        W25908  18.132   7.318   3.671
52841W        W25909  12.158  22.363   4.072
52842W        W25910   8.598  11.693  11.536
52843W        W25911  16.531  40.410  12.563
52844W        W25912  20.622  17.799   0.304
52845W        W25913  17.871  16.556  10.767
52846W        W25914   5.743  36.362  11.130
52847W        W25915  25.399  10.852  10.275
52848W        W25916  11.562   9.183   1.886
52849W        W25917  11.802  10.036   3.322
52850W        W25918  30.705  11.412   0.775
52851W        W25919  18.255  29.125   4.356
52852W        W25920  10.480  13.269   3.097
52853W        W25921  14.194  10.051  12.022
52854W        W25922  21.195  24.360   3.605
52855W        W25923  43.895  15.226  13.039
52856W        W25924  28.026  40.281   3.090
52857W        W25925   9.194   9.319  14.416
52858W        W25926  11.719  14.601  14.584
52859W        W25927  29.441  15.330   1.252
52860W        W25928  19.131  37.796   2.729
52861W        W25929  12.146   7.930  13.782
52862W        W25930  44.235   7.802  13.877
52863W        W25931  44.028  22.067  13.932
52864W        W25932  22.114  30.500   4.288
52865W        W25933  33.053  44.067  13.465
52866W        W25934  12.241  22.121  13.869
52867W        W25935  44.709  26.762  14.784
52868W        W25936  15.967  29.946  14.815
52869W        W25937   4.347   2.507  10.681
52870W        W25938  17.072   0.864  10.656
52871W        W25939  22.082  24.726   1.922
52872W        W25940  38.772  33.152   4.548
52873W        W25941  32.439  35.802  10.997
52874W        W25942  11.979  14.079   9.651
52875W        W25943  42.152  20.059  12.806
52876W        W25944  10.753  31.102   2.939
52877W        W25945  31.565  37.359   1.183
52878W        W25946  39.478   5.887   0.769
52879W        W25947   5.749  26.296  13.164
52880W        W25948  19.133  33.844  13.506
52881W        W25949   7.168  37.520   5.059
52882W        W25950  26.445  44.615   5.374
52883W        W25951  42.916   1.889  13.326
52884W        W25952  10.883  26.019   0.644
52885W        W25953   5.787   1.438   0.285
52886W        W25954  44.780  24.594  11.463
52887W        W25955  25.700  13.352   4.166
52888W        W25956  23.450   4.728  14.323
52889W        W25957  42.886  36.514   2.318
52890W        W25958  37.634  33.402  14.613
52891W        W25959  41.824  41.271   1.772
52892W        W25960  15.214  18.059  14.062
52893W        W25961   8.772  34.151  14.398
52894W        W25962  10.871  42.483  14.475
52895W        W25963  32.453  27.026  12.391
52896W        W25964  39.013   6.945  11.443
52897W        W25965   0.345  38.822  13.632
52898W        W25966   2.812  38.802   4.325
52899W        W25967  42.301  28.861  10.531
52900W        W25968  42.329   5.463   3.277
52901W        W25969  14.260  14.043   2.443
52902W        W25970  41.190  32.017   4.839
52903W        W25971  21.645  35.114   4.485
52904W        W25972  40.531  13.866   3.257
52905W        W25973  43.873  16.648   2.453
52906W        W25974   0.763  25.839  13.633
52907W        W25975   6.472  33.931   2.772
52908W        W25976  28.343  30.142  13.331
52909W        W25977  41.311  10.275  14.501
52910W        W25978   8.809  19.788   2.728
52911W        W25979  20.759  12.057  11.265
52912W        W25980  32.905  35.508  11.639
52913W        W25981   4.275   5.933  14.199
52914W        W25982  12.271  12.915  12.005
52915W        W25983  36.663  30.987   0.761
52916W        W25984  24.559  22.567   3.397
52917W        W25985   6.943  25.120  10.666
52918W        W25986  35.959  24.595  12.118
52919W        W25987  13.668  39.449   2.811
52920W        W25988  42.559  15.231  14.402
52921W        W25989   8.082  13.275  13.459
52922W        W25990  16.075  19.293   1.338
52923W        W25991  29.496  41.565  10.535
52924W        W25992  41.651  32.597   3.358
52925W        W25993   6.127  38.933   1.198
52926W        W25994  39.471   8.465   2.023
52927W        W25995   0.787  25.999  13.121
52928W        W25996  19.012  39.393   0.592
52929W        W25997   1.338  40.454   3.999
52930W        W25998  12.844  16.839   1.889
52931W        W25999  25.233  22.652  10.555
52932W        W26000  29.479   0.506   0.336
52933W        W26001  31.125  23.117  10.460
52934W        W26002  13.618   2.395  13.016
52935W        W26003  20.521  23.223   3.333
52936W        W26004  27.605   1.294  12.068
52937W        W26005  28.678  35.510  13.473
52938W        W26006  13.585  10.725  10.989
52939W        W26007  12.421  30.441  11.409
52940W        W26008  22.467   3.857  11.893
52941W        W26009  37.288   2.842  10.357
52942W        W26010  41.340  43.751  10.631
52943W        W26011  39.330   1.482   2.232
52944W        W26012  28.140  13.946  11.041
52945W        W26013  44.392   4.209  13.924
52946W        W26014   7.569   0.993  11.065
52947W        W26015  11.869  27.714   1.822
52948W        W26016   3.924   0.774  10.409
52949W        W26017   7.400  23.748   2.559
52950W        W26018  33.927  14.130   3.231
52951W        W26019  18.055  28.039   1.898
52952W        W26020  44.951  10.562  10.902
52953W        W26021  12.437  27.872  12.162
52954W        W26022  35.403  23.095   3.693
52955W        W26023   4.655  26.876  12.594
52956W        W26024  13.600  11.698   1.665
52957W        W26025   0.450  33.084   2.328
52958W        W26026  12.230  39.003  11.535
52959W        W26027   3.360  40.656   0.172
52960W        W26028   5.828  22.494  14.483
52961W        W26029  42.304  32.486  12.312
52962W        W26030  41.995  40.921  14.842
52963W        W26031  42.152  39.908  12.056
52964W        W26032   4.390  35.922   3.748
52965W        W26033   6.324  16.756   1.246
52966W        W26034  37.897  15.689  13.841
52967W        W26035  35.855  19.103   4.825
52968W        W26036  41.256   1.677  13.965
52969W        W26037   2.726  36.408   4.338
52970W        W26038   6.397  22.097  12.920
52971W        W26039  10.384  40.653  12.526
52972W        W26040  25.771   3.302   1.896
52973W        W26041  42.794   8.679  10.363
52974W        W26042  40.884  24.255   0.466
52975W        W26043  37.184  13.434  13.670
52976W        W26044  11.244  43.966  14.429
52977W        W26045   4.744  25.435  11.996
52978W        W26046  44.103   9.936   1.299
52979W        W26047  34.236  32.092  10.693
52980W        W26048  40.809  25.958  11.347
52981W        W26049  16.132   5.815   0.478
52982W        W26050  26.322   5.060  14.811
52983W        W26051  20.796  33.500   3.142
52984W        W26052  42.738  23.137   2.215
52985W        W26053  21.135  16.506  14.358
52986W        W26054  13.375  36.377   2.229
52987W        W26055  38.780  12.002   3.215
52988W        W26056  26.958  15.652   3.229
52989W        W26057  21.590  13.456  11.954
52990W        W26058  34.358  14.621   2.226
52991W        W26059  29.587  22.677  14.928
52992W        W26060   9.269   4.006  11.927
52993W        W26061  15.549  26.048   2.801
52994W        W26062  40.359  11.892  11.438
52995W        W26063  14.208  32.897   0.875
52996W        W26064  23.208  10.629  13.817
52997W        W26065  27.555  22.571  12.763
52998W        W26066  18.275  11.341   1.435
52999W        W26067  27.821  13.563   2.451
53000W        W26068   3.795  44.951  14.059
53001W        W26069   7.729  20.317  14.822
53002W        W26070  19.974   8.768  12.945
53003W        W26071  17.002  13.338  14.529
53004W        W26072  22.246  15.664   3.604
53005W        W26073  34.526  16.248   4.584
53006W        W26074   5.349  11.828   1.268
53007W        W26075  22.547  30.889   1.462
53008W        W26076   6.851  36.958  14.264
53009W        W26077   2.137  22.715  10.722
53010W        W26078   0.131  43.777  10.439
53011W        W26079   2.664  25.957   4.145
53012W        W26080  27.501  13.323  13.529
53013W        W26081  23.725  18.755   3.253
53014W        W26082  37.430  29.006   3.193
53015W        W26083   4.774  18.729  11.948
53016W        W26084  25.828   6.124   2.221
53017W        W26085  42.800  41.434  12.878
53018W        W26086   2.767   2.306   1.298
53019W        W26087  20.097  12.878   3.206
53020W        W26088  44.967   0.833  12.653
53021W        W26089  31.522  17.628   3.448
53022W        W26090  38.649  17.825  12.495
53023W        W26091  27.459   0.131   3.573
53024W        W26092  14.761  21.609  13.754
53025W        W26093  11.720  37.452  13.887
53026W        W26094   9.748   7.897   0.911
53027W        W26095  25.995  40.455  10.543
53028W        W26096  29.045  11.012  11.954
53029W        W26097  13.300  38.307   0.897
53030W        W26098  15.134   9.391   2.775
53031W        W26099  40.802   3.750   0.436
53032W        W26100  19.599  11.658   0.255
53033W        W26101  20.283  14.887  11.162
53034W        W26102  26.245  12.071  13.452
53035W        W26103  14.799   9.581  11.589
53036W        W26104  22.894  44.991   4.696
53037W        W26105   2.772   3.816  12.122
53038W        W26106  43.746   4.360  11.052
53039W        W26107  31.477  32.008  11.172
53040W        W26108  19.296  30.877   4.526
53041W        W26109  33.361  19.510  12.057
53042W        W26110  17.259   1.353  10.681
53043W        W26111  27.599  12.208   4.823
53044W        W26112   1.842  44.901  11.695
53045W        W26113  42.427  44.580   2.612
53046W        W26114  14.715  26.138  12.863
53047W        W26115  14.343   6.180  14.962
53048W        W26116  26.427  42.317  12.884
53049W        W26117  25.547  14.171  11.874
53050W        W26118  40.500  30.166  12.410
53051W        W26119   1.421  31.556  14.905
53052W        W26120  13.766   0.786  13.114
53053W        W26121  35.642   2.942  12.091
53054W        W26122  31.618   7.274  14.810
53055W        W26123  16.305  44.849   3.089
53056W        W26124  43.763  34.461  12.126
53057W        W26125  10.742  35.836   1.255
53058W        W26126  18.959   5.802   3.217
53059W        W26127   0.362  25.406   0.937
53060W        W26128  35.889  17.883  11.134
53061W        W26129   7.218  12.787   1.933
53062W        W26130  25.458  20.499   4.587
53063W        W26131   2.437  24.795   4.573
53064W        W26132  31.026  21.146   1.355
53065W        W26133   8.252  37.933   1.405
53066W        W26134  40.196  15.210   4.925
53067W        W26135  15.164  41.860  10.932
53068W        W26136  20.504   1.028  14.751
53069W        W26137  34.371  15.230   1.832
53070W        W26138  34.969  10.430   3.215
53071W        W26139  30.892   1.898  10.258
53072W        W26140   4.652  42.812  10.498
53073W        W26141  11.208   4.759   2.705
53074W        W26142  17.348  14.217  14.251
53075W        W26143   4.292  33.569   0.770
53076W        W26144  30.069  19.970   1.471
53077W        W26145  28.590  12.854  14.108
53078W        W26146  44.386   6.178  14.973
53079W        W26147  26.195  42.567  13.332
53080W        W26148  25.412  28.338   3.785
53081W        W26149  33.092  19.045  11.408
53082W        W26150  24.648  39.002   2.297
53083W        W26151  10.718   0.359   3.681
53084W        W26152  32.494  29.902   2.272
53085W        W26153  42.951  30.141  10.758
53086W        W26154  32.715  30.357  11.972
53087W        W26155  24.907   4.484   4.799
53088W        W26156  16.381  16.847   1.722
53089W        W26157   0.415   7.822   3.117
53090W        W26158  30.931  36.124  10.602
53091W        W26159  42.760  29.200  12.465
53092W        W26160  22.524  34.255  11.976
53093W        W26161   4.872  19.311   4.732
53094W        W26162  37.336  40.715   4.158
53095W        W26163  40.798  38.474  14.333
53096W        W26164  14.780  13.471  13.458
53097W        W26165  37.136  43.946   3.400
53098W        W26166  15.948  36.054   0.434
53099W        W26167  14.787   4.449   1.328
53100W        W26168  24.596  15.800  11.977
53101W        W26169  11.613   8.699  11.128
53102W        W26170   4.426  15.710   1.849
53103W        W26171  40.268   8.578   0.901
53104W        W26172  38.352  40.177  13.155
53105W        W26173  44.993  32.605   4.763
53106W        W26174  10.772  10.152  13.065
53107W        W26175  32.421  26.188  13.544
53108W        W26176   5.419  44.644  13.346
53109W        W26177   3.878   3.717  14.803
53110W        W26178  25.225   4.771  11.979
53111W        W26179  12.896  25.077   2.212
53112W        W26180  31.842  39.662  11.598
53113W        W26181  40.937  29.065  11.432
53114W        W26182  33.197   3.533  11.377
53115W        W26183   9.830  40.020   0.001
53116W        W26184  15.788  11.955  11.162
53117W        W26185  40.791  18.389   4.218
53118W        W26186  33.589  29.937  12.821
53119W        W26187  13.866   8.719   2.759
53120W        W26188  38.969  15.205   1.166
53121W        W26189  24.772  39.392   0.955
53122W        W26190  43.967   2.372  13.953
53123W        W26191  10.250  18.479   2.815
53124W        W26192  42.244  13.669  10.380
53125W        W26193   1.755  44.939  11.198
53126W        W26194  26.838  36.559   5.044
53127W        W26195  31.114  31.744   0.152
53128W        W26196  27.875  26.750   0.952
53129W        W26197  21.608  41.439  11.130
53130W        W26198   0.905  43.737   3.135
53131W        W26199  25.043  44.453   2.909
53132W        W26200  12.723  27.039   4.158
53133W        W26201  19.987  27.562  10.520
53134W        W26202  30.413  35.037  10.601
53135W        W26203  31.188  33.819   0.046
53136W        W26204  30.890  23.029   2.647
53137W        W26205  35.186  14.000   2.807
53138W        W26206  17.022   2.817  13.562
53139W        W26207  16.586   0.724   1.853
53140W        W26208   6.537  20.690  12.967
53141W        W26209  14.213  16.240   0.443
53142W        W26210  21.037  26.004   0.625
53143W        W26211  44.276  41.709   1.641
53144W        W26212  13.890  15.034  11.813
53145W        W26213   2.767  40.257   1.770
53146W        W26214  13.327   0.915  13.368
53147W        W26215   2.929  36.028  10.644
53148W        W26216   2.227  15.647  12.515
53149W        W26217  27.256  30.425   5.189
53150W        W26218  24.986  41.066  11.068
53151W        W26219  18.663  10.695  12.035
53152W        W26220   8.605  18.825   0.367
53153W        W26221  30.926  29.089   2.302
53154W        W26222  41.338  37.261  14.398
53155W        W26223  10.876  41.811   1.263
53156W        W26224  10.550   8.424   2.794
53157W        W26225   0.414   6.335  12.455
53158W        W26226  30.179  42.661   0.078
53159W        W26227  42.084  31.435  12.929
53160W        W26228  37.342  28.663  13.331
53161W        W26229  29.740  36.055   4.258
53162W        W26230  35.804  22.625  13.333
53163W        W26231  15.763   3.237  11.473
53164W        W26232  10.311  43.750  13.947
53165W        W26233  13.384  37.382  12.552
53166W        W26234  11.910  17.535  12.908
53167W        W26235   6.650   4.718   2.464
53168W        W26236  27.965  17.600   1.813
53169W        W26237  20.001  36.513   2.177
53170W        W26238  18.374  23.652  12.968
53171W        W26239  24.894  11.635  11.419
53172W        W26240  19.775  30.521  14.851
53173W        W26241  39.016  24.645   2.124
53174W        W26242  37.479  23.336  12.359
53175W        W26243  24.325  44.034  13.336
53176W        W26244  15.781   7.977  10.840
53177W        W26245   3.516  27.719   2.166
53178W        W26246  13.154  37.889   3.878
53179W        W26247  19.757  38.681  13.638
53180W        W26248  20.194  26.144  12.000
53181W        W26249   0.273  13.315  10.805
53182W        W26250  29.568  30.218  12.805
53183W        W26251  21.837  25.602   4.131
53184W        W26252  32.893   7.266  11.785
53185W        W26253   4.863  22.427   3.208
53186W        W26254  23.191  41.405  13.574
53187W        W26255   0.939  38.931   1.387
53188W        W26256  26.026  35.316   3.758
53189W        W26257   6.358   5.152   0.757
53190W        W26258  37.783   5.423  10.965
53191W        W26259   1.873   5.229  11.774
53192W        W26260  15.728  18.966   2.261
53193W        W26261   0.827  33.672   2.807
53194W        W26262  16.790   2.247   2.803
53195W        W26263   9.495   4.284  10.705
53196W        W26264  31.202  20.348   4.013
53197W        W26265  35.897  14.012   2.340
53198W        W26266  19.241  16.014  13.923
53199W        W26267  35.173  39.021  13.340
53200W        W26268  26.027  17.125   2.635
53201W        W26269  28.519   4.776  13.480
53202W        W26270  38.867  31.129  14.309
53203W        W26271  42.981  32.671  14.422
53204W        W26272   4.358  11.899   0.181
53205W        W26273  14.303  39.263  13.114
53206W        W26274  17.697  37.425  11.907
53207W        W26275  10.236  11.938   0.377
53208W        W26276   4.395  29.027  11.020
53209W        W26277   9.285  27.516  10.751
53210W        W26278  25.379   7.163  12.527
53211W        W26279   4.914   4.907  13.797
53212W        W26280  29.496   9.317   3.920
53213W        W26281  24.284   3.908  12.861
53214W        W26282   1.876  24.590  10.639
53215W        W26283  15.089  39.536  11.457
53216W        W26284  41.339   8.749   3.741
53217W        W26285  38.104   5.166  14.572
53218W        W26286  39.595   4.498   3.745
53219W        W26287  27.908  41.437  10.416
53220W        W26288   1.314  16.130   4.594
53221W        W26289  15.234   9.343   1.150
53222W        W26290  25.399  17.557   3.371
53223W        W26291  43.313   2.713   1.899
53224W        W26292  38.809  28.964   2.355
53225W        W26293  20.786   4.750   0.513
53226W        W26294  26.587  17.128   2.683
53227W        W26295   3.725  32.824   1.233
53228W        W26296   4.256  22.715  12.973
53229W        W26297   7.884  44.792  10.727
53230W        W26298  17.828  44.342  12.619
53231W        W26299  28.527  13.593  13.010
53232W        W26300  31.432  13.433   2.765
53233W        W26301  34.908  31.039   4.359
53234W        W26302   4.185   7.970   3.102
53235W        W26303  31.477  41.162   1.255
53236W        W26304  16.164  11.977  14.489
53237W        W26305  33.266   4.629   4.631
53238W        W26306  35.474  15.088   1.009
53239W        W26307   7.474  29.590  11.547
53240W        W26308  30.141  44.131  12.894
53241W        W26309  31.916  11.897  12.336
53242W        W26310  15.164   3.802   4.174
53243W        W26311  42.254   2.833  11.211
53244W        W26312  24.983   4.460   3.366
53245W        W26313  26.668  40.582  11.774
53246W        W26314   8.920  39.874   2.806
53247W        W26315  36.464  28.229  12.071
53248W        W26316   8.766   5.857  13.370
53249W        W26317  25.422  28.107  13.802
53250W        W26318   3.225  38.277  13.598
53251W        W26319   0.410  30.910   1.845
53252W        W26320   1.234   5.729  12.997
53253W        W26321  20.501  35.095  11.397
53254W        W26322  26.606  37.566  11.692
53255W        W26323  26.654   5.447   1.282
53256W        W26324  41.491  30.804   3.680
53257W        W26325  42.810  38.751   3.687
53258W        W26326  31.518  27.607  12.177
53259W        W26327  31.197   1.866   4.379
53260W        W26328  18.620   8.171  10.745
53261W        W26329  36.171  36.516   4.100
53262W        W26330   5.464  15.359  13.426
53263W        W26331  19.352   3.236  11.082
53264W        W26332  32.525  24.131  12.116
53265W        W26333   3.681   3.658   3.975
53266W        W26334   1.478   3.383   3.885
53267W        W26335  37.071  43.889   1.145
53268W        W26336  42.759  16.583  10.666
53269W        W26337   4.200  36.562  12.916
53270W        W26338  40.326  37.973   2.064
53271W        W26339  44.473  18.548  13.221
53272W        W26340  10.089  40.073  13.374
53273W        W26341   0.002  33.111  14.976
53274W        W26342  12.413   5.292   4.917
53275W        W26343  13.734  39.259  11.355
53276W        W26344  21.554  21.319  13.467
53277W        W26345   1.505  22.248  11.055
53278W        W26346  44.642  33.884   3.711
53279W        W26347  20.022  43.401  14.440
53280W        W26348  36.523  25.171   2.987
53281W        W26349  42.842  34.885  12.024
53282W        W26350  15.484  30.114  14.978
53283W        W26351  42.295  42.676  11.643
53284W        W26352  29.875  12.617  11.452
53285W        W26353   9.188  37.328   2.196
53286W        W26354  13.984  23.502  12.950
53287W        W26355  21.295  36.306  13.801
53288W        W26356  24.240  37.816  12.472
53289W        W26357  40.943   7.564  12.860
53290W        W26358  37.337  32.727  10.261
53291W        W26359  25.691  11.996   5.078
53292W        W26360   1.348  42.070  13.928
53293W        W26361   7.642  19.866   4.829
53294W        W26362  33.344   6.713  14.952
53295W        W26363  20.650  11.676   3.311
53296W        W26364  13.745  28.537  14.014
53297W        W26365  26.125  34.879  14.775
53298W        W26366  38.997  29.692   3.785
53299W        W26367  18.475  22.593  14.541
53300W        W26368  42.533  21.664  11.497
53301W        W26369  34.529   8.255   3.653
53302W        W26370  27.181  19.120  14.517
53303W        W26371  43.272  22.666  12.052
53304W        W26372  19.727   1.837  11.198
53305W        W26373  10.863   3.289   0.956
53306W        W26374  29.138  21.069   1.827
53307W        W26375  26.169  30.166   1.913
53308W        W26376  32.340  30.092   0.897
53309W        W26377  28.021  22.216  10.398
53310W        W26378  27.230  25.489  13.288
53311W        W26379  11.716  19.383   4.919
53312W        W26380   2.237  35.083   2.950
53313W        W26381  33.260  12.814  13.718
53314W        W26382   4.195   8.729  14.896
53315W        W26383  25.631   7.465   2.872
53316W        W26384  33.906  37.553  14.884
53317W        W26385  19.517  10.717  11.633
53318W        W26386   4.961  11.269   4.803
53319W        W26387  27.997  37.576   3.508
53320W        W26388  19.523  22.248  13.896
53321W        W26389  22.587  11.426   0.548
53322W        W26390  11.747   1.776   9.888
53323W        W26391  23.491   5.302  12.046
53324W        W26392  44.775  33.778   1.152
53325W        W26393  32.387  16.081   3.312
53326W        W26394  28.494  26.545  11.217
53327W        W26395  23.691  21.084   0.376
53328W        W26396  28.941  37.491   1.258
53329W        W26397   5.946  38.923   1.698
53330W        W26398   1.949  22.459  12.538
53331W        W26399  14.924  17.609   2.751
53332W        W26400   2.423  24.937  13.468
53333W        W26401  18.370   1.622   0.630
53334W        W26402   7.240  36.807  11.052
53335W        W26403   2.143  20.347  14.451
53336W        W26404  35.901  15.710   3.419
53337W        W26405  19.762   9.145   4.793
53338W        W26406   8.765  20.296   2.601
53339W        W26407  37.962   8.768   5.049
53340W        W26408  36.441  25.594   4.823
53341W        W26409  20.494  36.850   4.018
53342W        W26410  13.291   0.717   2.365
53343W        W26411   0.936  10.786  12.935
53344W        W26412  16.008  23.418  14.903
53345W        W26413  21.111  27.128  14.469
53346W        W26414  30.901  35.344   1.128
53347W        W26415  25.971  31.627   2.914
53348W        W26416  36.840  11.879  12.002
53349W        W26417  19.265  27.359  14.959
53350W        W26418   6.191  27.443  13.967
53351W        W26419  34.068  25.014   2.222
53352W        W26420  22.563  10.161   4.562
53353W        W26421   6.786  20.031  11.389
53354W        W26422   5.259  28.652   2.607
53355W        W26423  20.274  20.167   4.569
53356W        W26424   2.844  40.498   3.667
53357W        W26425  34.899   7.458  12.915
53358W        W26426  39.834  14.486  13.651
53359W        W26427   0.715  22.651  10.966
53360W        W26428  28.170  20.967  10.698
53361W        W26429   9.220  18.374  10.013
53362W        W26430  32.685  29.468  11.220
53363W        W26431  41.590   5.779   2.752
53364W        W26432  10.261  19.070  11.869
53365W        W26433  40.634   6.194  13.436
53366W        W26434  19.559  41.895   1.856
53367W        W26435  15.853   0.943   3.317
53368W        W26436  22.089  39.944  11.841
53369W        W26437  22.975   7.937  13.142
53370W        W26438  23.230  41.123   4.240
53371W        W26439  35.572  41.807   3.853
53372W        W26440   0.406  39.812  11.987
53373W        W26441  15.927  43.613   1.676
53374W        W26442   1.696  37.088  10.611
53375W        W26443  18.691   3.346  14.035
53376W        W26444  29.546  14.389   0.385
53377W        W26445  36.292  34.762  10.491
53378W        W26446  22.793  20.042   3.230
53379W        W26447  40.801  20.996   4.151
53380W        W26448  38.952  36.938   2.330
53381W        W26449  40.469  42.969  13.047
53382W        W26450  38.940  42.433   3.981
53383W        W26451  36.158  41.017   4.980
53384W        W26452  10.052   3.671  12.483
53385W        W26453  15.041  36.240  10.086
53386W        W26454  36.001  34.870  11.476
53387W        W26455  25.911  15.532   2.026
53388W        W26456   3.194  33.358   3.780
53389W        W26457  24.249   7.218  12.816
53390W        W26458  43.411  13.651   3.735
53391W        W26459  43.476   3.133   2.808
53392W        W26460  41.901  11.167  11.542
53393W        W26461  29.911  41.966  12.326
53394W        W26462   9.046  31.897   2.770
53395W        W26463   7.802  12.614   4.677
53396W        W26464  30.400  16.601   3.372
53397W        W26465   2.198   9.336  13.964
53398W        W26466  25.696  39.392  12.537
53399W        W26467  18.403  21.751  11.242
53400W        W26468   8.833  44.339  12.110
53401W        W26469  23.806  19.167   0.902
53402W        W26470   5.166  21.595   1.531
53403W        W26471  43.291  26.639   2.301
53404W        W26472  21.794   2.923  12.310
53405W        W26473  12.727   0.387   2.569
53406W        W26474  42.481  17.627  14.372
53407W        W26475   7.869   8.662  14.349
53408W        W26476  43.815  15.594  10.519
53409W        W26477  14.682  42.864  11.065
53410W        W26478  19.741  21.580   3.283
53411W        W26479  25.404  36.889  13.905
53412W        W26480  34.017   6.383  13.250
53413W        W26481  11.172  38.822  12.327
53414W        W26482  28.271  41.759   0.924
53415W        W26483  37.940  16.701  14.334
53416W        W26484   1.950  30.540  11.274
53417W        W26485  25.751   2.444   0.796
53418W        W26486  17.229  35.943   2.338
53419W        W26487  30.725  28.463  11.680
53420W        W26488  31.199  33.460   2.407
53421W        W26489  11.843  40.538   4.601
53422W        W26490   5.016  22.233  10.839
53423W        W26491  23.069   7.838   1.369
53424W        W26492   1.260  13.635   3.290
53425W        W26493  10.860   6.135  13.817
53426W        W26494  26.874   4.921   3.306
53427W        W26495  15.789   2.833   4.865
53428W        W26496  22.491  14.790   0.887
53429W        W26497  27.433  13.241   3.813
53430W        W26498  20.721  26.065  12.669
53431W        W26499   5.511  31.500  13.508
53432W        W26500  21.532  21.323   4.304
53433W        W26501  27.703  44.774  11.168
53434W        W26502  39.511  43.346   4.821
53435W        W26503  34.560  38.422   0.733
53436W        W26504  33.443  26.864   1.886
53437W        W26505  29.771  34.539  11.575
53438W        W26506  42.724  33.532   3.705
53439W        W26507  35.823  21.543   0.861
53440W        W26508  28.644  18.826   2.808
53441W        W26509  18.273  23.750   3.364
53442W        W26510  27.949  37.259   3.923
53443W        W26511  37.942  22.904  14.046
53444W        W26512   2.473  19.786   1.163
53445W        W26513  23.274   3.836   1.767
53446W        W26514   3.887  38.805  11.144
53447W        W26515  11.376  12.892   4.373
53448W        W26516  39.382  43.733   3.152
53449W        W26517  18.788  20.333  12.420
53450W        W26518   9.635   3.482   0.539
53451W        W26519  17.846   6.490  13.889
53452W        W26520  43.156  41.017   0.763
53453W        W26521  29.925  32.567   0.773
53454W        W26522  21.186  34.137   1.454
53455W        W26523  36.521   6.327   0.201
53456W        W26524  18.368  29.549   4.785
53457W        W26525  31.011   7.446  12.102
53458W        W26526  23.986  17.194   2.425
53459W        W26527  26.692  16.616   2.772
53460W        W26528   8.950  34.361  10.375
53461W        W26529  19.141  19.481  14.925
53462W        W26530  32.436   8.169  12.086
53463W        W26531   4.811  19.082  12.429
53464W        W26532   0.259  42.303  14.410
53465W        W26533  40.626  30.129   4.121
53466W        W26534  35.252  21.289  11.092
53467W        W26535  19.785   5.271  11.069
53468W        W26536  43.430  15.537   9.979
53469W        W26537  34.377  37.518  11.417
53470W        W26538  30.484  29.196   0.822
53471W        W26539  16.440  33.385  13.474
53472W        W26540  42.205   0.395   4.637
53473W        W26541  44.562  29.985  12.541
53474W        W26542  42.993   8.826  13.536
53475W        W26543  27.196  34.480   1.754
53476W        W26544   9.701  35.407  12.971
53477W        W26545  30.390  28.421   2.289
53478W        W26546  36.567  13.005  12.511
53479W        W26547  21.384  24.755  11.537
53480W        W26548  10.337   3.216   2.897
53481W        W26549  42.720  17.757   3.652
53482W        W26550  24.181  39.556  14.636
53483W        W26551  34.744  40.106  10.292
53484W        W26552  17.046  18.810  11.394
53485W        W26553  39.415  29.743  11.562
53486W        W26554   8.912  31.421   1.921
53487W        W26555  15.528  16.800  14.778
53488W        W26556  26.939  23.363   1.650
53489W        W26557  32.609   9.910   0.515
53490W        W26558  44.339  42.905  13.449
53491W        W26559  15.646   4.838   4.384
53492W        W26560   8.805  37.648   0.954
53493W        W26561  16.213  16.560  12.088
53494W        W26562   7.844  41.300  14.811
53495W        W26563  28.559   1.446  10.692
53496W        W26564  42.166  41.063   0.546
53497W        W26565  10.616   1.674  14.291
53498W        W26566  11.656  42.841   5.062
53499W        W26567  35.162  20.529   2.028
53500W        W26568  40.706  16.317   2.345
53501W        W26569  24.243  12.196  11.626
53502W        W26570  12.703   4.191   4.284
53503W        W26571  24.599   9.361   4.722
53504W        W26572   5.642  18.346  14.552
53505W        W26573  39.453  34.209  13.739
53506W        W26574  39.044  23.158  12.976
53507W        W26575  16.744  38.445  12.607
53508W        W26576  44.303  36.990  10.405
53509W        W26577  41.363  15.833   2.716
53510W        W26578   8.768  10.603   1.925
53511W        W26579  36.894  10.126   1.450
53512W        W26580   3.397  25.314  12.447
53513W        W26581  37.318   3.308   3.787
53514W        W26582  33.595  44.814  11.692
53515W        W26583   7.187  10.374  11.126
53516W        W26584  28.887  36.616  14.775
53517W        W26585  10.870   4.274   4.708
53518W        W26586   0.378   8.683  10.973
53519W        W26587  14.169  25.116  13.556
53520W        W26588  27.712  10.306   0.703
53521W        W26589  36.407  30.179  12.482
53522W        W26590  31.400  21.648  14.438
53523W        W26591  41.288  24.955   3.228
53524W        W26592   5.423  22.149   2.342
53525W        W26593  26.250  33.900   4.315
53526W        W26594  33.491  16.790  11.620
53527W        W26595   1.280  44.415  10.626
53528W        W26596  29.409  17.652   3.662
53529W        W26597  14.867  14.104   2.942
53530W        W26598  20.258  12.273  14.509
53531W        W26599  40.875  32.924  14.042
53532W        W26600  22.151  35.572  14.573
53533W        W26601  17.264  16.139   3.078
53534W        W26602   8.299  36.951  14.400
53535W        W26603  17.366  36.103   2.801
53536W        W26604  36.755  13.400   5.003
53537W        W26605   4.409  38.307   0.442
53538W        W26606   1.309  30.550  14.866
53539W        W26607  44.358  22.773   9.639
53540W        W26608  23.092  12.313   3.463
53541W        W26609  41.874  21.235  14.798
53542W        W26610   1.230   2.516  13.997
53543W        W26611  41.317  38.648  11.170
53544W        W26612  44.197  24.102   3.728
53545W        W26613  16.842  33.575   4.533
53546W        W26614   0.792  28.924  12.791
53547W        W26615  30.956   5.346   4.031
53548W        W26616  30.939  27.482   0.419
53549W        W26617  22.154   6.065   2.426
53550W        W26618  21.205   5.826  14.804
53551W        W26619  34.307  15.094  10.653
53552W        W26620   3.611  29.954  13.817
53553W        W26621  23.510  21.806   3.310
53554W        W26622  38.851   1.698  11.119
53555W        W26623  27.730  10.478  14.237
53556W        W26624  36.837  40.624  10.977
53557W        W26625  25.013  19.210  12.597
53558W        W26626  21.036  36.341   3.164
53559W        W26627  11.694  34.424  11.863
53560W        W26628  16.241  21.468   3.193
53561W        W26629  31.651  44.388   2.823
53562W        W26630  43.288  44.458   4.236
53563W        W26631   1.385  11.843  10.565
53564W        W26632  12.548  21.246  12.058
53565W        W26633   1.278   3.872   4.138
53566W        W26634   7.271  26.435  14.823
53567W        W26635  29.736  27.109   1.394
53568W        W26636  27.667   1.735  14.934
53569W        W26637  29.394  29.459   2.649
53570W        W26638   6.296   1.939  14.155
53571W        W26639  19.029  12.017   3.334
53572W        W26640  18.400  20.170  11.683
53573W        W26641  37.490  12.584  13.884
53574W        W26642  10.222  15.744   3.614
53575W        W26643   7.189  43.258  11.073
53576W        W26644  14.850  10.698   4.490
53577W        W26645  33.857   9.756   3.665
53578W        W26646  34.963  28.732  10.459
53579W        W26647  26.171  15.102   1.910
53580W        W26648  17.086  19.828  10.552
53581W        W26649  19.089  28.907  12.875
53582W        W26650   5.006  39.486  14.361
53583W        W26651  37.087  14.742  14.973
53584W        W26652  15.030  33.478   2.020
53585W        W26653  26.063  32.583   0.252
53586W        W26654  25.323  27.524   4.328
53587W        W26655  38.297   6.281  12.334
53588W        W26656  10.800  23.633  14.246
53589W        W26657   0.379  29.077  12.396
53590W        W26658   6.846  43.871   3.737
53591W        W26659  42.776  35.096   1.821
53592W        W26660  31.040  43.275   2.364
53593W        W26661   7.114   7.705  11.605
53594W        W26662  26.599  28.907   2.779
53595W        W26663   3.237  11.512   2.383
53596W        W26664  14.168  10.159  10.592
53597W        W26665  35.069  35.579   2.945
53598W        W26666  37.308  32.137   4.982
53599W        W26667  10.852  26.887   1.899
53600W        W26668  32.147   5.093  11.554
53601W        W26669  14.139  16.334   1.901
53602W        W26670  21.575  42.843   1.681
53603W        W26671  21.940   7.017  11.675
53604W        W26672  37.761  10.345   1.167
53605W        W26673  26.896   1.350   0.105
53606W        W26674  14.759   4.291  14.034
53607W        W26675   2.443   7.129   3.042
53608W        W26676  26.022  35.973   0.431
53609W        W26677  26.513  28.632   4.038
53610W        W26678  39.308  33.897  13.334
53611W        W26679  10.177  11.139  13.061
53612W        W26680  17.304  16.199  12.853
53613W        W26681  11.169  21.622   1.911
53614W        W26682  34.995   0.502  12.392
53615W        W26683   1.722  40.352   0.980
53616W        W26684  41.315  39.460  14.830
53617W        W26685  41.472  17.674   0.070
53618W        W26686  12.480   0.651  13.372
53619W        W26687  10.256  43.359   3.753
53620W        W26688   5.446  32.044  13.466
53621W        W26689   4.881  34.623   3.301
53622W        W26690  19.151  29.924  14.330
53623W        W26691  24.938   5.670  14.321
53624W        W26692  18.524  10.554  14.429
53625W        W26693  28.537   3.406  11.977
53626W        W26694   1.473  31.044  14.838
53627W        W26695  12.522  35.123  10.669
53628W        W26696  23.208  23.012  12.711
53629W        W26697  12.728   5.330  10.375
53630W        W26698  23.760   7.811   2.662
53631W        W26699  24.206  36.026   3.547
53632W        W26700  36.492   8.869   2.848
53633W        W26701  30.704  15.901  10.267
53634W        W26702  28.064   0.930  14.065
53635W        W26703   7.382  41.540  12.065
53636W        W26704   6.851  39.519  14.867
53637W        W26705  10.581   2.959  14.588
53638W        W26706  43.437  35.111   3.330
53639W        W26707   6.213  11.549   3.322
53640W        W26708  38.411  24.960  13.862
53641W        W26709  25.538  26.956   3.006
53642W        W26710  39.910  40.077   4.354
53643W        W26711  44.503  25.600  10.681
53644W        W26712  14.345   9.200   0.929
53645W        W26713  12.598  25.604   4.540
53646W        W26714  37.567  26.462  13.185
53647W        W26715  39.932   9.252  11.946
53648W        W26716  26.584  32.361   3.261
53649W        W26717  21.820  16.903  11.062
53650W        W26718  17.771  41.806   4.331
53651W        W26719  39.930  27.984  11.541
53652W        W26720  34.058  12.874  10.788
53653W        W26721   5.466  20.473   0.335
53654W        W26722  21.073  31.913  12.957
53655W        W26723  21.146  43.563   2.425
53656W        W26724   1.586  29.516  13.435
53657W        W26725   9.386   7.377   2.677
53658W        W26726  21.875   7.714  14.472
53659W        W26727  32.577   2.796  11.504
53660W        W26728  13.411  21.655  12.830
53661W        W26729  23.631  33.483   1.852
53662W        W26730  27.514  16.567   1.375
53663W        W26731  38.022  15.821   4.519
53664W        W26732  28.522  12.912   2.870
53665W        W26733  26.650  15.741   0.289
53666W        W26734  27.050  24.418  13.459
53667W        W26735  16.865  15.615   1.638
53668W        W26736   5.843  41.344   2.863
53669W        W26737   3.816  26.221  10.428
53670W        W26738  32.213   9.172  13.458
53671W        W26739  17.849  22.579  10.032
53672W        W26740  27.973  43.775  11.118
53673W        W26741  30.685  43.133  12.543
53674W        W26742   8.650  41.029  12.473
53675W        W26743   3.386  32.626   0.819
53676W        W26744   2.760  20.271  13.272
53677W        W26745   3.842   1.488  10.900
53678W        W26746  32.469  27.738   4.039
53679W        W26747   9.206  21.776  14.838
53680W        W26748  18.914  16.132   0.221
53681W        W26749   2.021  25.937  11.320
53682W        W26750   4.344  20.222   1.256
53683W        W26751   9.792  28.701   1.062
53684W        W26752  20.273  28.108   2.903
53685W        W26753  40.001  32.524  14.173
53686W        W26754  16.375  42.633   2.926
53687W        W26755   5.804  24.644   1.297
53688W        W26756   2.885  37.994   0.318
53689W        W26757  23.876  23.052   3.780
53690W        W26758  42.360   7.791   3.593
53691W        W26759  36.096  11.743   2.797
53692W        W26760  14.846   7.811  14.259
53693W        W26761  21.995  40.055  13.252
53694W        W26762  28.164  10.695   4.141
53695W        W26763   0.231  22.571   1.154
53696W        W26764  40.966  22.560   3.313
53697W        W26765  37.993  35.712  10.645
53698W        W26766  42.066  31.161  11.618
53699W        W26767   8.208  16.349   4.094
53700W        W26768  22.081  13.061   2.199
53701W        W26769  41.777   2.378   1.474
53702W        W26770  17.643  26.657   3.790
53703W        W26771  28.590  33.957  14.912
53704W        W26772  20.153   0.738  10.267
53705W        W26773  18.656  15.280  10.474
53706W        W26774  27.380  31.942   0.291
53707W        W26775  21.276  24.769  14.565
53708W        W26776  28.103  27.484   0.270
53709W        W26777   5.368  10.213   4.878
53710W        W26778   0.950  38.435   2.636
53711W        W26779   5.991   2.738   4.016
53712W        W26780  17.331  20.833  14.001
53713W        W26781   9.866  20.613  13.464
53714W        W26782  39.901  10.704   0.801
53715W        W26783  25.179  22.483  11.956
53716W        W26784  18.690   8.592   2.374
53717W        W26785  11.116   5.756  11.144
53718W        W26786  33.848   2.462  13.934
53719W        W26787  11.087  21.171  12.616
53720W        W26788  35.605   4.433  13.032
53721W        W26789  31.640  29.917  14.490
53722W        W26790  30.722  28.542   0.880
53723W        W26791  21.546   1.263  13.845
53724W        W26792   0.416  15.064  11.336
53725W        W26793   9.912  15.191  10.790
53726W        W26794   3.208   6.336   0.112
53727W        W26795  19.569  33.495  10.641
53728W        W26796  19.952  19.625  11.717
53729W        W26797  14.458  35.133  13.592
53730W        W26798  14.775  12.120  14.834
53731W        W26799   9.887   6.957   5.152
53732W        W26800   1.241  25.614  11.057
53733W        W26801  27.768  38.459   1.745
53734W        W26802  33.573  29.987   1.391
53735W        W26803   4.647   3.757   3.689
53736W        W26804   5.790  11.897   0.774
53737W        W26805  41.473  22.732  11.453
53738W        W26806  19.545  36.128   2.732
53739W        W26807  41.406  15.618  11.369
53740W        W26808   4.864  17.024  14.679
53741W        W26809  19.192  20.998  10.655
53742W        W26810  25.211  40.115   3.604
53743W        W26811  32.288  28.587  13.665
53744W        W26812  12.829  23.138  12.178
53745W        W26813   6.786  17.968   4.345
53746W        W26814  22.621   5.150  14.752
53747W        W26815  32.816   8.352   4.251
53748W        W26816   5.437  19.073   2.040
53749W        W26817  41.261  22.680   2.915
53750W        W26818  37.402  18.604   4.540
53751W        W26819  22.813  17.583   4.225
53752W        W26820  24.096  31.674   4.680
53753W        W26821   5.861   0.555  12.582
53754W        W26822  44.412  28.670  13.475
53755W        W26823   8.738  20.528   4.247
53756W        W26824  35.052  21.566   2.763
53757W        W26825  35.309  19.133   2.253
53758W        W26826  35.085  38.290  11.239
53759W        W26827  14.031  38.052  11.253
53760W        W26828   0.075  19.343  10.738
53761W        W26829  29.623  31.574   2.262
53762W        W26830  42.797  37.480  13.338
53763W        W26831  38.598  36.903   2.700
53764W        W26832   3.870   9.983   4.170
53765W        W26833  28.054  12.722   5.029
53766W        W26834   5.390  30.682  14.504
53767W        W26835  19.868   4.849  13.529
53768W        W26836  33.667  34.074  10.912
53769W        W26837   5.497   2.110   2.310
53770W        W26838  31.656  31.809  14.368
53771W        W26839  13.093  39.388  14.969
53772W        W26840   5.245  20.441   3.194
53773W        W26841   3.341  40.395  14.195
53774W        W26842  40.330  19.744   1.655
53775W        W26843  22.251  17.287   5.342
53776W        W26844  43.933   1.774   0.457
53777W        W26845  23.526  29.435   0.826
53778W        W26846  23.989  18.733   2.797
53779W        W26847  29.971  34.648   2.537
53780W        W26848   8.887  20.980   3.496
53781W        W26849  14.400  11.172   2.246
53782W        W26850  25.947  31.927   4.238
53783W        W26851  12.158   6.714  12.064
53784W        W26852  19.513  19.637  10.780
53785W        W26853  36.489  41.070   2.881
53786W        W26854  17.010   5.146  10.669
53787W        W26855  21.959  36.547  11.681
53788W        W26856  44.545  22.877  11.373
53789W        W26857  38.262  43.995   4.563
53790W        W26858  37.073  40.155  10.825
53791W        W26859  38.953  16.810   0.714
53792W        W26860   9.159   5.976  11.177
53793W        W26861   2.405  28.695   1.201
53794W        W26862   6.979  43.434   2.328
53795W        W26863  20.559   9.883  13.869
53796W        W26864   4.835   6.478   5.038
53797W        W26865  18.617  32.462   0.651
53798W        W26866  11.753  33.984  11.548
53799W        W26867   4.693  42.444  12.637
53800W        W26868  16.122  42.781   3.777
53801W        W26869   8.629  42.875  12.808
53802W        W26870  27.659   9.648  13.245
53803W        W26871   4.166  16.457  13.970
53804W        W26872  11.165  26.742  11.063
53805W        W26873  12.855  40.004  13.882
53806W        W26874  28.437  18.481  12.901
53807W        W26875  11.219   6.508  13.823
53808W        W26876  32.479  27.629  13.346
53809W        W26877  12.565  10.221   3.737
53810W        W26878  11.762  33.525  10.307
53811W        W26879  22.767  25.595  10.658
53812W        W26880  11.614  18.306  10.682
53813W        W26881  20.121  34.111   2.236
53814W        W26882  19.984  11.324  14.830
53815W        W26883  11.292  44.420  12.396
53816W        W26884  39.149  41.702   1.171
53817W        W26885  26.655  15.642   2.695
53818W        W26886  13.523  41.425   4.687
53819W        W26887   5.641  24.196   3.847
53820W        W26888  42.791  33.362  12.611
53821W        W26889  14.518   0.309  13.792
53822W        W26890   2.317  17.227  10.341
53823W        W26891  17.018   9.206  10.725
53824W        W26892  30.276  35.521  14.502
53825W        W26893  38.669  31.376   3.586
53826W        W26894  34.367   9.764   4.616
53827W        W26895  18.655  16.872   4.084
53828W        W26896   5.654   4.634   3.075
53829W        W26897  23.183  37.035  10.660
53830W        W26898   4.236  41.280   0.543
53831W        W26899  16.308  37.338   1.922
53832W        W26900  15.259  39.284  14.912
53833W        W26901  34.561  23.027  11.135
53834W        W26902   6.835   6.769  12.577
53835W        W26903  33.118   0.818   4.258
53836W        W26904   3.917  24.648  10.667
53837W        W26905  34.343  17.299   2.922
53838W        W26906  31.956   9.133   4.458
53839W        W26907  28.093   8.348   3.595
53840W        W26908   9.385  39.510   4.258
53841W        W26909  26.295  28.295   0.168
53842W        W26910  44.359  41.286  13.166
53843W        W26911  33.294  31.738   1.408
53844W        W26912  15.818  25.770   0.297
53845W        W26913  43.350   3.299  14.009
53846W        W26914  15.872  37.057  13.898
53847W        W26915  11.831  32.870  10.930
53848W        W26916  25.647  34.731   0.655
53849W        W26917  20.271   7.069   2.645
53850W        W26918  34.996  34.922  11.159
53851W        W26919   0.731  39.648  14.053
53852W        W26920  15.453   2.774  11.508
53853W        W26921   6.174  22.330  12.506
53854W        W26922  16.793  32.639   0.851
53855W        W26923   0.084  29.622  14.353
53856W        W26924   7.884  15.158   4.483
53857W        W26925  24.580  10.159  12.008
53858W        W26926  27.918  44.737  13.133
53859W        W26927  38.929   2.788  12.989
53860W        W26928  17.273  43.056   4.137
53861W        W26929  30.150  35.548  13.975
53862W        W26930  41.280  37.518  11.634
53863W        W26931  41.233  29.356   0.685
53864W        W26932  28.535  33.386  13.818
53865W        W26933  42.049  19.338   1.227
53866W        W26934   6.193  39.288  13.263
53867W        W26935  35.001  22.159  12.155
53868W        W26936  26.907  12.082   9.921
53869W        W26937  17.853  11.405  11.983
53870W        W26938  31.127  24.013   1.705
53871W        W26939  35.650  36.926   4.134
53872W        W26940   7.134   1.922  12.054
53873W        W26941  15.943  10.939  14.869
53874W        W26942  20.976  33.609  13.572
53875W        W26943  39.990   8.513  11.585
53876W        W26944  39.078  10.627   3.099
53877W        W26945  37.911  42.081   4.340
53878W        W26946  37.314   3.217  13.845
53879W        W26947   3.016  33.011   0.947
53880W        W26948  33.859  13.759  13.217
53881W        W26949  28.604  40.646   3.843
53882W        W26950  26.965  31.016   4.850
53883W        W26951  10.257   7.201   2.791
53884W        W26952  24.017  43.354  11.611
53885W        W26953  40.671  19.158  12.659
53886W        W26954  13.607  39.055   4.917
53887W        W26955  10.884  30.390  11.932
53888W        W26956  17.768   7.722   1.493
53889W        W26957  21.620  21.641   1.868
53890W        W26958  16.106  26.957   2.669
53891W        W26959  16.465  25.034  12.024
53892W        W26960  28.933  33.664   1.323
53893W        W26961  41.418  41.739  14.013
53894W        W26962  41.553  14.197   3.659
53895W        W26963   0.961  35.724  11.448
53896W        W26964  29.818  12.554   2.962
53897W        W26965  13.348  17.289   4.515
53898W        W26966  13.779  11.749   1.188
53899W        W26967  40.247  25.538  14.480
53900W        W26968   1.474  44.777   1.156
53901W        W26969  22.147  22.667  12.892
53902W        W26970   9.978  16.110  14.038
53903W        W26971  39.891  17.754  13.262
53904W        W26972   0.701  19.024  11.227
53905W        W26973   1.824  39.940   2.547
53906W        W26974  39.020  23.704   4.614
53907W        W26975  37.478   4.825  12.287
53908W        W26976  21.130   2.628   1.188
53909W        W26977   3.017  44.479   1.682
53910W        W26978  42.546  33.133  11.008
53911W        W26979   2.166  24.238   4.978
53912W        W26980   4.027  24.904   4.368
53913W        W26981  28.489  34.414  11.197
53914W        W26982  22.225  35.992   3.639
53915W        W26983  32.424  18.706  10.721
53916W        W26984  26.204  43.321  11.433
53917W        W26985  19.184  44.701  14.413
53918W        W26986  23.279   8.564   3.623
53919W        W26987  14.966   0.825  10.454
53920W        W26988  39.080  10.575  14.354
53921W        W26989   8.213  17.717   0.453
53922W        W26990  21.521  28.283   2.157
53923W        W26991  16.154   6.739   2.409
53924W        W26992   0.466  37.014   2.191
53925W        W26993  30.911  33.913   4.550
53926W        W26994   5.262  32.458  14.091
53927W        W26995  14.855   5.337  14.890
53928W        W26996   9.938   4.928  14.185
53929W        W26997  22.089   6.288  10.956
53930W        W26998  27.943  41.258  14.963
53931W        W26999  26.523  43.229  10.472
53932W        W27000  32.514  33.138  10.694
53933W        W27001   5.454  20.169  11.067
53934W        W27002  13.496   6.897  14.022
53935W        W27003   7.671  20.977  13.586
53936W        W27004  35.058  40.258  13.182
53937W        W27005  43.808  20.195   2.893
53938W        W27006  24.193  31.917   0.423
53939W        W27007  21.702  37.863   1.802
53940W        W27008  43.823  18.601  11.675
53941W        W27009  40.216   3.314  11.983
53942W        W27010  21.909  17.823  14.324
53943W        W27011  35.840  44.440  10.961
53944W        W27012  35.183   0.670   4.936
53945W        W27013  14.674  36.086  14.442
53946W        W27014  29.992  32.891  10.730
53947W        W27015  38.339  32.536   0.860
53948W        W27016   6.207  10.566  12.417
53949W        W27017  22.051   3.885  12.236
53950W        W27018  31.534  24.271  11.835
53951W        W27019  32.409   7.364  12.456
53952W        W27020  11.963   9.145   0.278
53953W        W27021  11.475   4.418  10.175
53954W        W27022  26.680  21.456  13.377
53955W        W27023  27.632   0.054   2.143
53956W        W27024  38.514  23.179   1.405
53957W        W27025  21.175  19.579   0.996
53958W        W27026  11.656  16.816   4.743
53959W        W27027  30.730  22.037   1.435
53960W        W27028  10.342   6.933   1.919
53961W        W27029  12.892  32.088  11.134
53962W        W27030  42.386  31.175   1.266
53963W        W27031  31.203  17.856  14.989
53964W        W27032   8.952  25.128   4.144
53965W        W27033  38.509   8.838  13.358
53966W        W27034   3.924  21.501   3.811
53967W        W27035  11.132   7.740   3.296
53968W        W27036  26.948  18.346  11.071
53969W        W27037  29.177  29.859  14.261
53970W        W27038  18.655  41.156   3.355
53971W        W27039  15.041  33.978   3.821
53972W        W27040  31.397   7.660  12.401
53973W        W27041  13.256  32.363   1.829
53974W        W27042   5.621  24.459   2.790
53975W        W27043  26.861  25.297   4.074
53976W        W27044  35.502  27.541   2.684
53977W        W27045  27.092   4.672  13.340
53978W        W27046  16.453  36.070  12.989
53979W        W27047  22.512  41.161   1.473
53980W        W27048   6.364   0.470   0.956
53981W        W27049  36.403  32.403  14.370
53982W        W27050  10.227   6.848  13.827
53983W        W27051   4.877   3.405  14.373
53984W        W27052  34.394  18.642   1.197
53985W        W27053  22.026  22.164  13.011
53986W        W27054  37.464  31.425   1.428
53987W        W27055  15.717  32.158  12.173
53988W        W27056   6.680   5.776   0.897
53989W        W27057  41.443   7.891  14.106
53990W        W27058  37.347  27.617  14.256
53991W        W27059  31.613  29.971   0.018
53992W        W27060  41.816   4.703   2.313
53993W        W27061  41.519  33.967   4.345
53994W        W27062   7.527  24.656  11.633
53995W        W27063  28.951  22.583  12.924
53996W        W27064  11.113  21.836  11.415
53997W        W27065  37.572   0.438  10.535
53998W        W27066   3.762   4.829  14.487
53999W        W27067  10.696  20.282  12.656
54000W        W27068  27.204  16.520  11.014
54001W        W27069  17.211  37.930  11.087
54002W        W27070  10.727  30.372   3.960
54003W        W27071   6.951  33.840   1.804
54004W        W27072   3.801   8.890  11.538
54005W        W27073  23.573  11.835   2.493
54006W        W27074   6.679  10.100  10.685
54007W        W27075  23.517   7.370   2.840
54008W        W27076  23.979   1.340  12.197
54009W        W27077   0.461  36.372   0.321
54010W        W27078  35.777  32.021  12.792
54011W        W27079  19.542  15.692   4.586
54012W        W27080   8.680  38.944  11.618
54013W        W27081  17.540  17.713   3.923
54014W        W27082  32.303  35.959   3.648
54015W        W27083  19.731   1.949  12.180
54016W        W27084  21.101  35.924   2.813
54017W        W27085  10.908   9.148   1.276
54018W        W27086  21.081  18.586  12.179
54019W        W27087   7.617  35.067   4.520
54020W        W27088  43.960   7.598   1.122
54021W        W27089  19.843  17.080   2.189
54022W        W27090  44.508   5.413  10.972
54023W        W27091  20.577  20.670   3.579
54024W        W27092  28.892  44.016  12.669
54025W        W27093  28.718  29.560   3.254
54026W        W27094  42.990  31.908   0.426
54027W        W27095  31.639  11.399  14.729
54028W        W27096  40.381  43.241   4.486
54029W        W27097  39.186  42.866  14.767
54030W        W27098  18.752   5.502  14.041
54031W        W27099  38.673  28.599  14.695
54032W        W27100  30.712  41.858  11.422
54033W        W27101   4.312  44.790   4.408
54034W        W27102  17.739  17.968  14.446
54035W        W27103  35.833  39.983  14.736
54036W        W27104  29.545  34.073  13.309
54037W        W27105  13.184  26.034  12.444
54038W        W27106  29.114   2.066  13.957
54039W        W27107  25.664  35.658  12.145
54040W        W27108  20.587  18.268  10.619
54041W        W27109  37.316   6.630   1.688
54042W        W27110  43.655  10.907  13.316
54043W        W27111  19.254  15.208   4.780
54044W        W27112  21.093   2.933  14.187
54045W        W27113  15.848  39.626   0.850
54046W        W27114  40.460   9.862  13.396
54047W        W27115  22.461  11.795   1.464
54048W        W27116   4.196  36.443  11.472
54049W        W27117  19.103   5.973  13.359
54050W        W27118  37.092  31.499   9.976
54051W        W27119  22.184  27.491   1.521
54052W        W27120  13.128  43.813  10.857
54053W        W27121  38.864  37.766  12.605
54054W        W27122  44.983  35.092   3.257
54055W        W27123  34.531  27.088  13.254
54056W        W27124   9.183  33.005   1.967
54057W        W27125  12.821  40.957   0.774
54058W        W27126  24.048  18.474   4.117
54059W        W27127   9.747   3.683   0.061
54060W        W27128  26.290  33.019   2.905
54061W        W27129   3.901  38.353  13.307
54062W        W27130   7.656  44.831   3.774
54063W        W27131  25.957  30.790   2.500
54064W        W27132  22.078  43.351  14.048
54065W        W27133  31.293  37.064   2.653
54066W        W27134  24.102  35.112  10.778
54067W        W27135  35.679  17.108   2.780
54068W        W27136  44.767  21.580  11.927
54069W        W27137  18.179  25.963  11.118
54070W        W27138  37.821   8.171  10.680
54071W        W27139  43.446  32.927  14.252
54072W        W27140  33.968  27.419  12.656
54073W        W27141   4.709  35.904  11.933
54074W        W27142  31.095  25.115   3.100
54075W        W27143  32.695   5.290   1.299
54076W        W27144  41.805  15.645  10.534
54077W        W27145  21.324  37.290  13.924
54078W        W27146   6.854  41.462  12.333
54079W        W27147   4.329  15.090  14.939
54080W        W27148  13.321  19.086   5.090
54081W        W27149  20.083  35.534  14.355
54082W        W27150   7.739  27.975   1.707
54083W        W27151  31.993  13.337   4.187
54084W        W27152  43.303  30.148  12.085
54085W        W27153   0.742   1.265   3.616
54086W        W27154  24.158   1.122   4.208
54087W        W27155  35.124   4.349   3.564
54088W        W27156  41.981   0.265  11.230
54089W        W27157   6.857  42.472  11.550
54090W        W27158  30.381  21.011   0.051
54091W        W27159  30.770  18.155  14.936
54092W        W27160  42.289   7.749   0.364
54093W        W27161  10.136   2.751   2.642
54094W        W27162   9.746   8.831   1.000
54095W        W27163  18.112   7.592  13.416
54096W        W27164   5.795  37.500   2.150
54097W        W27165  22.788   8.309  13.777
54098W        W27166  19.499   8.050   2.416
54099W        W27167   3.924   5.776  10.827
54100W        W27168  27.148  39.632  11.228
54101W        W27169   0.845  21.254  11.841
54102W        W27170  28.597  11.314   5.039
54103W        W27171   0.973  22.870  13.944
54104W        W27172  33.080  26.252   4.274
54105W        W27173   0.847   6.383  10.686
54106W        W27174  19.350  41.270   2.772
54107W        W27175  13.597  19.771   0.167
54108W        W27176  18.076   1.937   1.824
54109W        W27177  26.463  14.190  14.409
54110W        W27178  41.469  30.552  12.959
54111W        W27179  14.148  43.800   0.395
54112W        W27180  34.045  20.405   3.111
54113W        W27181   9.846  23.529  13.389
54114W        W27182  40.050  26.639  11.948
54115W        W27183  25.501  20.007  12.832
54116W        W27184  40.511  33.319  11.249
54117W        W27185  12.142  16.522   5.614
54118W        W27186   9.740  44.747  13.363
54119W        W27187  30.189  30.646   4.158
54120W        W27188  32.490  19.207  14.934
54121W        W27189  24.728  17.295   4.660
54122W        W27190   7.690  14.716   4.751
54123W        W27191  40.999  43.567  11.019
54124W        W27192  30.124   3.837  10.636
54125W        W27193  27.780  28.685  11.631
54126W        W27194  12.688  17.722  11.010
54127W        W27195  34.406  42.032   2.396
54128W        W27196  14.479  11.780   3.574
54129W        W27197  26.996  29.407   0.491
54130W        W27198   9.261   8.895  12.076
54131W        W27199  34.901  18.411   1.288
54132W        W27200  37.475  26.832  12.291
54133W        W27201  27.560  24.209   2.482
54134W        W27202  40.326  30.584  12.055
54135W        W27203  44.432  32.695   1.223
54136W        W27204  22.680  11.619   4.114
54137W        W27205  43.465  11.205  12.006
54138W        W27206   5.108   0.929   3.714
54139W        W27207  16.826   0.474  14.386
54140W        W27208  32.410  17.327   1.823
54141W        W27209  23.175   8.750  10.490
54142W        W27210  28.542  16.785   0.912
54143W        W27211  23.581  42.987  12.060
54144W        W27212  32.952  22.995  10.826
54145W        W27213  30.932  27.857   4.097
54146W        W27214   5.778  33.651  13.004
54147W        W27215   8.592  16.662   3.816
54148W        W27216   3.209  41.296  13.834
54149W        W27217  37.518  37.269  12.886
54150W        W27218  43.164  37.490   3.088
54151W        W27219  19.528  10.343   0.265
54152W        W27220  43.881  42.906   0.477
54153W        W27221   5.352   8.188   4.410
54154W        W27222  28.632  42.361   2.839
54155W        W27223  27.391   6.359  12.067
54156W        W27224   8.183  38.968  12.844
54157W        W27225  29.969   8.364  11.948
54158W        W27226  22.014  32.152   0.820
54159W        W27227  26.406  14.118   4.757
54160W        W27228  36.650  33.633  11.266
54161W        W27229  19.712  36.190  13.399
54162W        W27230  23.228  32.942  13.407
54163W        W27231  15.802   3.521  10.083
54164W        W27232  35.555  38.262   1.642
54165W        W27233  44.996  36.363   4.597
54166W        W27234  13.815  35.540  10.836
54167W        W27235  19.573  21.569   3.931
54168W        W27236  10.408  36.820  12.746
54169W        W27237   6.722  13.471  10.696
54170W        W27238  37.444  25.522   4.483
54171W        W27239   7.624   4.405  14.395
54172W        W27240  13.208   1.005  12.879
54173W        W27241  22.841  33.828  12.434
54174W        W27242   1.881  32.964   0.495
54175W        W27243  39.767  23.012  14.526
54176W        W27244   9.604  36.759  11.558
54177W        W27245  16.250  23.461   0.855
54178W        W27246  12.111   9.365  12.019
54179W        W27247  11.686  17.072  10.211
54180W        W27248  27.787  35.934   1.940
54181W        W27249   6.223  24.574  11.411
54182W        W27250  10.053   1.333   2.268
54183W        W27251  18.572   0.645   1.715
54184W        W27252   0.435  38.894   3.167
54185W        W27253   3.257  29.583  13.902
54186W        W27254  22.123  41.930   1.818
54187W        W27255   0.426  21.972   3.189
54188W        W27256  15.811   7.935   5.082
54189W        W27257  33.085  39.860  13.984
54190W        W27258  42.067  35.551  12.383
54191W        W27259  29.928  43.575   0.993
54192W        W27260  21.041   1.309   1.005
54193W        W27261  30.955   0.778   2.055
54194W        W27262  38.128   8.094   2.944
54195W        W27263   6.000  14.301   4.453
54196W        W27264   1.279  35.419   0.426
54197W        W27265  17.067   6.773   0.491
54198W        W27266  14.215  29.856  11.624
54199W        W27267  33.438  28.610  10.891
54200W        W27268  20.602   9.890   1.776
54201W        W27269  23.798  20.831   4.251
54202W        W27270  10.593  30.057  11.661
54203W        W27271  23.875  42.483   0.438
54204W        W27272  11.122  23.694  14.938
54205W        W27273  38.703  39.409   0.933
54206W        W27274  42.501  23.304   1.251
54207W        W27275  13.299  32.111   3.175
54208W        W27276  37.863  38.871   4.616
54209W        W27277   3.316  16.127   2.205
54210W        W27278  32.282  37.836  12.038
54211W        W27279  18.502  44.719   0.034
54212W        W27280  15.329  23.343   3.301
54213W        W27281  30.470  14.685  13.798
54214W        W27282  30.962  26.959  10.646
54215W        W27283  38.339  13.862  12.422
54216W        W27284  10.398   5.272  14.362
54217W        W27285  13.899  38.904  14.565
54218W        W27286  34.670   4.744  14.704
54219W        W27287  21.201  28.699  11.645
54220W        W27288   6.753  15.637  13.762
54221W        W27289  25.592  14.099  12.784
54222W        W27290  43.750  21.889   0.281
54223W        W27291  29.636   9.286   4.904
54224W        W27292  13.570  26.481   3.197
54225W        W27293  15.209  42.879   4.620
54226W        W27294   3.368  23.412   1.212
54227W        W27295  10.756  26.492   1.530
54228W        W27296  22.296  21.058   1.743
54229W        W27297   9.780   1.766  13.114
54230W        W27298  19.596   9.148  11.138
54231W        W27299  20.137  42.422  14.489
54232W        W27300   3.023  19.208  13.381
54233W        W27301  20.308  44.284   0.638
54234W        W27302  28.940  38.318   2.267
54235W        W27303  17.680  28.562  11.224
54236W        W27304  44.452  27.665   0.732
54237W        W27305   7.466   1.471   1.673
54238W        W27306  15.208   7.327  10.569
54239W        W27307  30.291   2.867  14.535
54240W        W27308  25.448  42.099   2.511
54241W        W27309  16.166  44.086   3.274
54242W        W27310  15.841   9.765  13.477
54243W        W27311  29.585  13.344   4.670
54244W        W27312  23.405  39.855   5.197
54245W        W27313  28.039  24.137  12.549
54246W        W27314   3.250   8.423  12.159
54247W        W27315  37.465  30.958   1.673
54248W        W27316  15.891  41.391   1.108
54249W        W27317   8.245  30.304  12.710
54250W        W27318  30.828  42.768  11.900
54251W        W27319  25.937  28.493  12.404
54252W        W27320   4.145  19.049  12.334
54253W        W27321  44.356  26.131   3.850
54254W        W27322  23.549   5.799  12.341
54255W        W27323  25.559  22.973   1.963
54256W        W27324  21.153  18.610  10.737
54257W        W27325   4.558  32.096   0.692
54258W        W27326  29.755  14.715  11.040
54259W        W27327  38.498  39.752  12.261
54260W        W27328  34.858  38.092   4.176
54261W        W27329  28.612  21.211   0.251
54262W        W27330  24.277  43.483  12.955
54263W        W27331  11.239  40.385  13.083
54264W        W27332  40.066  18.579  12.525
54265W        W27333  32.811  38.045   1.152
54266W        W27334  24.292   5.278   1.919
54267W        W27335  38.203   7.388  11.560
54268W        W27336  25.468  20.819  11.599
54269W        W27337  28.481  33.820   2.295
54270W        W27338  31.710  30.907  11.248
54271W        W27339   7.919  13.152   1.695
54272W        W27340   4.301  39.291   3.163
54273W        W27341  13.428  43.973  12.954
54274W        W27342  21.158   7.759   1.315
54275W        W27343  23.658  21.097   1.420
54276W        W27344   1.983  35.337   3.866
54277W        W27345  18.646  13.256  14.225
54278W        W27346  35.077  41.119  14.902
54279W        W27347  42.899  18.586   4.571
54280W        W27348  21.617   5.475  14.528
54281W        W27349  32.056  34.011   2.541
54282W        W27350  23.095   0.950  14.550
54283W        W27351   5.805   3.479   1.436
54284W        W27352  20.686   6.330  13.695
54285W        W27353  27.692  15.329   3.816
54286W        W27354  19.109  16.252   4.092
54287W        W27355  31.380  25.701  11.517
54288W        W27356   8.891   9.828  12.847
54289W        W27357  26.244   8.849  13.931
54290W        W27358  27.464  10.501   3.329
54291W        W27359  18.688  21.393  13.454
54292W        W27360  33.859   6.827   3.326
54293W        W27361  41.241  20.016   1.717
54294W        W27362  10.881   5.616   1.894
54295W        W27363  16.138  19.789   1.412
54296W        W27364  44.622  34.387   3.613
54297W        W27365  35.800  28.467   0.319
54298W        W27366  19.813   7.343   0.515
54299W        W27367  44.196   0.863  12.164
54300W        W27368  30.087  25.635   1.225
54301W        W27369  16.257   1.474   3.858
54302W        W27370  43.460  26.187   2.871
54303W        W27371  28.967   6.349   1.236
54304W        W27372  40.988  43.032  12.865
54305W        W27373   5.224  35.358   4.653
54306W        W27374  43.754  11.180  11.572
54307W        W27375  32.394   7.151  11.077
54308W        W27376  28.582  37.824   1.984
54309W        W27377  43.721  19.784   3.654
54310W        W27378  35.001  38.241   0.486
54311W        W27379  43.069   0.773   4.213
54312W        W27380  39.404  28.573   1.136
54313W        W27381  28.153  19.696   3.071
54314W        W27382  20.646  16.262   1.116
54315W        W27383  19.667  26.948  14.055
54316W        W27384  37.620  23.211   0.288
54317W        W27385  18.616  17.945  12.109
54318W        W27386  20.272   5.761   2.113
54319W        W27387  32.876  22.689  11.526
54320W        W27388  38.262  43.347   3.710
54321W        W27389   3.359  18.469  10.764
54322W        W27390  29.527  11.377  11.992
54323W        W27391  39.540   9.222   3.534
54324W        W27392  28.653  21.711  14.114
54325W        W27393   3.254  43.003  13.466
54326W        W27394  15.659   6.290  14.516
54327W        W27395  34.669  27.413  14.431
54328W        W27396  39.602   2.000   3.188
54329W        W27397   3.928  40.892   4.419
54330W        W27398  15.685  34.996   2.964
54331W        W27399  29.303  23.177  11.993
54332W        W27400  16.142  14.739   1.070
54333W        W27401  32.134  19.011  14.113
54334W        W27402  39.251  26.122  12.348
54335W        W27403  18.207  27.874  14.872
54336W        W27404   2.691  31.507  12.052
54337W        W27405  29.911  32.028   4.705
54338W        W27406  14.589  34.968  11.972
54339W        W27407   1.523   8.920   1.664
54340W        W27408   3.849  15.405   3.298
54341W        W27409  21.526   5.353   2.010
54342W        W27410  33.853   9.942  14.962
54343W        W27411  44.909  18.362   3.160
54344W        W27412  31.837   5.670  13.940
54345W        W27413  43.021  25.914   1.743
54346W        W27414   0.491   4.514   2.252
54347W        W27415  34.010  20.746  12.581
54348W        W27416   5.500  19.180  11.955
54349W        W27417  10.108  31.225   1.370
54350W        W27418  31.450  19.226  13.564
54351W        W27419  15.018  36.394  12.941
54352W        W27420  24.262  29.015   3.733
54353W        W27421  21.392  25.690   2.646
54354W        W27422  44.500  29.162   3.824
54355W        W27423  10.202  22.734  12.218
54356W        W27424  26.158  40.003  10.358
54357W        W27425  30.597   5.758  13.125
54358W        W27426  10.696  40.167   0.172
54359W        W27427  14.905  23.088   5.007
54360W        W27428  17.144   4.410   3.274
54361W        W27429  15.113   4.285  12.990
54362W        W27430  24.433  23.140   0.832
54363W        W27431  16.755  42.857   2.593
54364W        W27432  27.013  28.606   1.935
54365W        W27433  44.262   5.681  14.022
54366W        W27434  12.711  30.583   0.026
54367W        W27435  13.097  22.167  14.347
54368W        W27436  26.505   7.132   4.627
54369W        W27437  20.807  13.405   1.993
54370W        W27438  37.383  25.008  10.611
54371W        W27439  10.626  14.103   4.075
54372W        W27440  36.726  39.950   4.673
54373W        W27441  40.484  20.022  12.169
54374W        W27442  21.268  27.997  14.033
54375W        W27443  27.118   8.746  11.590
54376W        W27444  23.788  35.807  12.148
54377W        W27445  19.776  33.300   4.033
54378W        W27446  19.239  13.501  10.986
54379W        W27447  29.019  28.579  12.351
54380W        W27448  26.223  27.328  11.087
54381W        W27449  42.436  37.416  10.673
54382W        W27450   9.069  35.136  13.493
54383W        W27451  35.463  19.523  12.498
54384W        W27452  39.942  25.916  14.898
54385W        W27453   5.408  38.720  13.957
54386W        W27454  27.624  29.168   3.301
54387W        W27455  40.354  18.290  13.972
54388W        W27456  36.331  13.239  12.105
54389W        W27457   2.167  41.168   5.012
54390W        W27458  29.496  21.156   3.105
54391W        W27459  10.123  21.837  11.631
54392W        W27460  23.169  37.529   4.059
54393W        W27461  13.875  24.065  11.176
54394W        W27462  33.477  36.548  10.317
54395W        W27463  44.185  36.033   0.399
54396W        W27464  42.121  34.975   1.389
54397W        W27465  39.807  35.664   1.809
54398W        W27466  42.509   4.138  10.613
54399W        W27467  17.222  33.228   4.506
54400W        W27468   7.708  41.957  13.637
54401W        W27469  14.304  15.874   3.779
54402W        W27470  24.555  21.288  14.847
54403W        W27471  35.885  31.444   5.547
54404W        W27472  42.414  37.273  12.877
54405W        W27473  19.491   2.348  12.402
54406W        W27474  26.086  20.681  11.141
54407W        W27475  22.295  22.601   0.561
54408W        W27476   6.356  28.245   3.272
54409W        W27477  14.527  42.613  12.380
54410W        W27478  34.665  15.011   2.181
54411W        W27479  22.182  35.196   4.251
54412W        W27480  10.670  36.808   2.932
54413W        W27481  34.364  30.931   0.196
54414W        W27482  42.525   2.207  13.445
54415W        W27483   6.647  16.970  12.537
54416W        W27484   5.262  31.107   2.215
54417W        W27485   9.162  24.629   2.845
54418W        W27486  26.211  40.711  10.927
54419W        W27487   0.319  30.629   0.224
54420W        W27488   0.655  30.068  12.594
54421W        W27489  42.869  39.852  12.554
54422W        W27490   3.269  15.509  10.367
54423W        W27491  38.828  23.201   1.923
54424W        W27492  44.243  16.809   2.795
54425W        W27493  13.548  42.344  12.539
54426W        W27494  25.123  25.449   3.751
54427W        W27495  38.109  37.827   3.623
54428W        W27496  42.899  27.133   0.259
54429W        W27497   7.624  40.246  13.465
54430W        W27498  29.876  17.266  13.818
54431W        W27499  14.093   3.242   3.723
54432W        W27500   3.276   7.307   0.970
54433W        W27501  38.970  13.843   1.761
54434W        W27502  38.017  30.703  12.912
54435W        W27503  44.941  41.377  14.917
54436W        W27504  38.647  30.891  13.884
54437W        W27505  10.758   8.360  12.330
54438W        W27506   7.878  17.515  12.007
54439W        W27507  32.766  20.758   3.313
54440W        W27508  37.197  29.553   5.003
54441W        W27509  36.318  28.089  11.599
54442W        W27510   8.683  19.616   4.350
54443W        W27511  18.688  42.242   1.261
54444W        W27512  39.781  19.067   1.436
54445W        W27513  41.270   3.704  14.950
54446W        W27514   4.231  10.243  13.504
54447W        W27515  29.443  20.624  12.450
54448W        W27516  29.426  39.560   2.731
54449W        W27517  15.322  25.294   4.985
54450W        W27518  12.298  32.462  10.541
54451W        W27519   1.458   7.975   1.854
54452W        W27520  30.127  10.321  12.985
54453W        W27521  36.989  26.244   0.919
54454W        W27522  21.956  40.878   0.942
54455W        W27523   1.393  23.196  11.939
54456W        W27524  11.134  44.120  13.931
54457W        W27525  15.129  15.340   3.936
54458W        W27526  40.069  10.352   4.567
54459W        W27527  23.709  29.979  14.587
54460W        W27528  26.545  42.235   1.171
54461W        W27529  25.422  36.367  12.836
54462W        W27530  27.919   7.380  12.957
54463W        W27531   4.806  13.904  12.446
54464W        W27532  29.254  22.519   0.460
54465W        W27533  28.886  34.837   0.787
54466W        W27534  13.710  40.519   1.001
54467W        W27535  20.706   9.896   1.217
54468W        W27536  38.321  17.082  14.310
54469W        W27537  26.762  32.835  13.247
54470W        W27538  31.970  21.464   1.860
54471W        W27539  30.254  32.457   1.169
54472W        W27540  27.005   6.729   0.177
54473W        W27541  13.128  10.703  11.192
54474W        W27542   1.491  17.045  14.441
54475W        W27543  35.442  18.006  12.423
54476W        W27544  33.065   6.276  14.809
54477W        W27545  40.782  35.966   0.976
54478W        W27546   9.656  19.234  14.316
54479W        W27547   6.488  27.028   2.703
54480W        W27548  15.811  34.209   0.603
54481W        W27549   9.509  35.909  13.009
54482W        W27550   0.313   4.922  10.706
54483W        W27551  27.029   7.055  11.672
54484W        W27552  31.378  10.018   1.201
54485W        W27553  18.490  16.122   2.913
54486W        W27554   1.063  30.125   0.025
54487W        W27555  14.778   6.910   3.248
54488W        W27556  41.685  16.125   5.057
54489W        W27557  41.756  32.471   4.048
54490W        W27558  27.216  36.368  11.170
54491W        W27559  30.997  35.381   0.642
54492W        W27560  22.174  37.184  13.648
54493W        W27561  39.208  23.834  14.757
54494W        W27562  20.559  13.249   3.278
54495W        W27563  41.845  16.997  12.025
54496W        W27564  33.094   3.262   0.366
54497W        W27565  21.738  44.856  13.284
54498W        W27566   1.023  32.631  11.795
54499W        W27567   7.496   5.507   1.313
54500W        W27568   1.641  25.985  10.947
54501W        W27569  35.180   3.008  12.419
54502W        W27570  35.454   3.866   4.521
54503W        W27571  32.372  42.361  14.807
54504W        W27572  42.890  32.116  10.191
54505W        W27573  29.356   2.361  11.205
54506W        W27574  43.217  14.253  12.151
54507W        W27575  20.247   2.258   2.758
54508W        W27576  21.292  39.727  12.434
54509W        W27577  38.358   6.577  11.918
54510W        W27578   1.514  12.653   3.310
54511W        W27579  24.065   2.276  12.052
54512W        W27580  31.217   9.172  13.474
54513W        W27581  13.591   8.288  10.896
54514W        W27582  12.993  34.387  10.407
54515W        W27583  32.843  44.774  12.323
54516W        W27584  44.339  22.069   4.645
54517W        W27585  18.939  32.472   1.932
54518W        W27586  19.297  10.243   3.958
54519W        W27587  27.043  36.821  13.975
54520W        W27588   1.600   2.005  11.339
54521W        W27589   6.420   5.937   4.190
54522W        W27590  25.514   7.981   2.943
54523W        W27591   8.115  12.627   1.459
54524W        W27592  28.597  14.822  10.999
54525W        W27593  14.733  32.923  13.719
54526W        W27594  17.589  12.434  11.109
54527W        W27595   7.367  20.636   4.842
54528W        W27596   1.355   3.721   0.712
54529W        W27597  14.247  29.727   1.952
54530W        W27598   1.450  39.466   1.368
54531W        W27599  12.863  27.131  11.135
54532W        W27600  21.885  17.873  12.147
54533W        W27601  42.318   3.152  14.972
54534W        W27602  35.294  27.544  11.135
54535W        W27603   3.450  41.513   2.686
54536W        W27604  43.373  23.812  13.531
54537W        W27605  32.756  18.728   3.302
54538W        W27606  25.249  27.395  11.692
54539W        W27607   5.733  19.734  11.099
54540W        W27608   4.745  26.234   0.461
54541W        W27609  24.039  38.655  12.671
54542W        W27610  36.321  24.231   3.014
54543W        W27611  29.370  15.558  10.495
54544W        W27612  33.857  16.659   4.086
54545W        W27613  12.825   2.906   1.662
54546W        W27614  24.717   3.608  14.950
54547W        W27615  23.689   3.164   1.334
54548W        W27616  24.509  10.910  10.311
54549W        W27617  17.586   0.431  11.299
54550W        W27618  33.433  36.724   3.157
54551W        W27619  42.415  20.990  12.865
54552W        W27620  16.836   5.845  13.320
54553W        W27621  39.394  41.285   4.982
54554W        W27622  18.952   6.485  13.504
54555W        W27623  10.235  16.172  12.070
54556W        W27624  24.625   7.123   2.803
54557W        W27625  32.017  14.211   1.709
54558W        W27626  37.556  30.080  14.933
54559W        W27627  16.325  33.498  11.606
54560W        W27628  13.271  16.222   0.379
54561W        W27629  34.737  23.524   0.167
54562W        W27630   9.802  28.069   2.929
54563W        W27631  27.614  31.426   0.785
54564W        W27632  18.699  39.848  10.492
54565W        W27633  37.817   6.672   2.739
54566W        W27634  42.539  10.264  14.934
54567W        W27635   4.831  11.273   3.375
54568W        W27636  21.119   2.955  12.811
54569W        W27637  27.458  20.552   2.946
54570W        W27638  22.032   3.291  11.651
54571W        W27639  10.342  26.417   2.429
54572W        W27640  12.357  21.747   2.333
54573W        W27641   2.874  22.229   2.364
54574W        W27642   4.822  12.128   5.172
54575W        W27643  35.387   0.433   4.229
54576W        W27644  42.998  38.097   1.407
54577W        W27645  18.539  25.794  11.440
54578W        W27646   3.683  10.219  11.718
54579W        W27647  42.430   9.635  11.925
54580W        W27648   8.815   3.421  13.504
54581W        W27649  12.384  30.271  13.797
54582W        W27650  40.761  41.113  14.431
54583W        W27651  17.253  28.181   2.353
54584W        W27652   6.294  32.878  12.974
54585W        W27653  13.217  42.048   0.218
54586W        W27654   8.942  25.687  13.507
54587W        W27655  29.539   4.349  14.120
54588W        W27656  27.513  15.499  13.087
54589W        W27657  22.487  37.439   4.615
54590W        W27658  33.261  20.024  11.996
54591W        W27659   4.648   8.108   3.722
54592W        W27660  12.158  24.322   3.492
54593W        W27661  31.479  14.105  14.254
54594W        W27662   4.831   4.936   2.420
54595W        W27663   0.180  15.621  13.790
54596W        W27664  40.842  14.264   0.822
54597W        W27665  38.882   8.656  11.978
54598W        W27666   1.274  28.922  12.604
54599W        W27667   2.972   6.874   1.000
54600W        W27668  19.829   4.751   3.288
54601W        W27669  28.971   3.422   3.407
54602W        W27670  22.398   8.896  12.064
54603W        W27671   7.820  14.263  14.072
54604W        W27672   9.918  32.954   0.930
54605W        W27673  17.313  32.606   0.682
54606W        W27674  29.536   3.154   2.801
54607W        W27675   3.023  27.813   5.067
54608W        W27676   1.230  40.823   2.362
54609W        W27677  13.147  19.148   1.779
54610W        W27678   5.392  40.437  11.945
54611W        W27679  14.476   9.972  13.954
54612W        W27680  27.631  11.061   3.404
54613W        W27681  30.870   2.396   1.324
54614W        W27682   9.170  41.674   5.466
54615W        W27683   6.199  21.538  11.567
54616W        W27684  11.759   8.933   2.283
54617W        W27685  30.538  17.983   1.798
54618W        W27686  23.237  18.765  14.897
54619W        W27687  30.608  10.422  14.992
54620W        W27688  31.039  14.962  13.643
54621W        W27689   4.446  25.138   0.900
54622W        W27690  33.459  15.185  12.121
54623W        W27691  26.027  31.922  10.473
54624W        W27692  20.767  30.482  14.105
54625W        W27693   4.782  21.688   3.895
54626W        W27694  33.182  39.028  10.657
54627W        W27695   2.420   8.926   4.047
54628W        W27696   9.898  31.427   3.813
54629W        W27697  21.248  16.929   4.279
54630W        W27698   1.291  10.121  10.283
54631W        W27699  18.192  39.442  11.231
54632W        W27700  31.550  18.500   2.867
54633W        W27701  14.323  20.338   2.927
54634W        W27702  35.114  41.061   2.934
54635W        W27703  28.116  31.405   4.619
54636W        W27704  26.770  37.121   1.274
54637W        W27705  13.831   3.874   4.914
54638W        W27706  35.871  12.368   4.048
54639W        W27707  44.825  25.132  12.597
54640W        W27708  34.911  24.075  10.739
54641W        W27709   6.323   3.837   0.976
54642W        W27710   6.245  33.410  13.002
54643W        W27711   4.638  13.845  11.101
54644W        W27712   1.262  29.590   3.660
54645W        W27713  38.630   6.284   4.057
54646W        W27714  31.441  39.449   2.820
54647W        W27715   4.515  14.541   4.954
54648W        W27716  32.022  13.791  12.526
54649W        W27717  15.255  28.338  14.699
54650W        W27718  42.584   7.861   0.903
54651W        W27719   6.286   4.375  12.427
54652W        W27720  10.204  44.063   4.233
54653W        W27721  27.752  22.782   0.463
54654W        W27722  33.476  37.443  11.409
54655W        W27723  36.065  32.422  11.982
54656W        W27724  44.009  39.306  14.570
54657W        W27725  39.006   4.783   0.812
54658W        W27726  21.570  27.432  13.938
54659W        W27727  30.877  23.263   2.175
54660W        W27728  35.567  31.344   1.204
54661W        W27729  19.229  41.869   4.361
54662W        W27730  44.542   5.384  13.070
54663W        W27731  29.690  29.201  13.051
54664W        W27732  27.667  44.805   0.387
54665W        W27733  44.413   1.007   0.248
54666W        W27734  13.584  39.096   4.378
54667W        W27735  11.630  24.169   0.822
54668W        W27736  33.127  33.003   3.314
54669W        W27737   3.199  32.124  14.045
54670W        W27738   6.711   7.794   1.296
54671W        W27739  18.288   2.471   4.131
54672W        W27740  28.223  22.364  13.472
54673W        W27741  28.507  32.579   1.670
54674W        W27742  22.958   0.654  12.975
54675W        W27743  35.097  26.633  14.373
54676W        W27744  37.737  36.399  12.610
54677W        W27745  35.280  19.618   1.902
54678W        W27746  16.198  43.866   4.575
54679W        W27747  11.831  43.752   0.640
54680W        W27748  32.994   2.971  12.442
54681W        W27749  43.524  29.149   2.877
54682W        W27750  40.737  30.945   3.101
54683W        W27751  42.935  23.588  14.521
54684W        W27752  38.506  24.620  12.326
54685W        W27753  27.771   2.889  12.146
54686W        W27754  44.998  36.159   0.123
54687W        W27755  12.203  31.191   0.411
54688W        W27756  28.468  17.053   4.609
54689W        W27757  19.368  21.374   1.888
54690W        W27758  20.678  14.321   0.517
54691W        W27759  25.559  25.049  11.566
54692W        W27760  31.545   0.913  14.853
54693W        W27761   8.378  37.421   1.687
54694W        W27762  14.573  29.038   4.778
54695W        W27763   0.849  12.369  14.006
54696W        W27764  24.195   0.846   4.657
54697W        W27765  24.547  16.772   5.885
54698W        W27766  25.936  30.890  10.548
54699W        W27767  35.436  18.534  11.538
54700W        W27768  35.027   3.424  10.822
54701W        W27769   6.709  19.813   0.183
54702W        W27770  43.266  32.011  11.669
54703W        W27771  37.345  25.430   2.250
54704W        W27772  22.054  19.510  10.663
54705W        W27773  20.638  44.406   2.387
54706W        W27774  38.983  17.590  12.892
54707W        W27775  26.996  28.101   3.755
54708W        W27776  36.487  16.783   2.496
54709W        W27777  38.496  44.449  14.364
54710W        W27778   0.867  33.229   0.644
54711W        W27779   1.457  23.446  14.250
54712W        W27780  14.042   6.445  11.182
54713W        W27781  30.821  41.810  10.922
54714W        W27782  32.622  18.131  14.223
54715W        W27783   6.677  33.638   1.410
54716W        W27784   5.730  31.258  12.395
54717W        W27785  20.803  39.396   2.726
54718W        W27786   6.245  28.608  10.960
54719W        W27787  13.652  35.934  10.564
54720W        W27788   9.171   9.602  14.846
54721W        W27789   9.943   2.004   4.314
54722W        W27790  38.824  32.706   3.718
54723W        W27791  41.278  20.780   0.199
54724W        W27792  23.729  16.755   0.845
54725W        W27793  35.070  39.431   2.651
54726W        W27794  33.353   6.937  12.482
54727W        W27795  19.159  28.984  11.975
54728W        W27796  38.815  23.208   2.851
54729W        W27797  33.614  20.743  11.804
54730W        W27798  14.652  17.082   0.831
54731W        W27799  25.603   6.292  13.762
54732W        W27800  31.510   6.422   0.308
54733W        W27801  41.214  25.552   4.371
54734W        W27802  39.406  19.740  11.446
54735W        W27803  16.061  23.656  14.087
54736W        W27804  10.897  30.327   2.165
54737W        W27805  28.805  24.522  12.868
54738W        W27806  22.671   8.888  13.416
54739W        W27807  21.546  41.781  10.721
54740W        W27808  31.760  29.356   1.275
54741W        W27809  24.368  19.791  13.876
54742W        W27810  32.495  42.387   3.762
54743W        W27811  17.144  18.998  13.505
54744W        W27812   8.002  18.179  13.941
54745W        W27813   7.597   9.871  11.884
54746W        W27814  25.292  40.496  11.909
54747W        W27815  10.111  23.730   4.198
54748W        W27816  14.321  36.353  11.708
54749W        W27817  25.491  34.967  14.353
54750W        W27818  32.910  28.077   1.267
54751W        W27819  14.744  37.021   0.401
54752W        W27820  44.929  21.689  12.938
54753W        W27821  10.724  38.945  11.086
54754W        W27822  41.975  16.598  13.872
54755W        W27823  16.298  38.515   2.211
54756W        W27824   3.934  33.803   1.456
54757W        W27825  28.935   5.971  12.562
54758W        W27826  37.345  10.325  11.551
54759W        W27827  41.290   6.407  12.378
54760W        W27828  34.226  41.864  13.074
54761W        W27829  36.046  27.781   2.789
54762W        W27830  11.191  27.968  12.371
54763W        W27831  43.866  38.573   0.461
54764W        W27832  24.143  25.454  14.088
54765W        W27833  26.946  30.398  14.361
54766W        W27834  44.950  10.655   0.477
54767W        W27835   1.217  41.719  10.435
54768W        W27836  27.039  22.794  14.369
54769W        W27837  36.244  34.759   4.709
54770W        W27838   3.922   5.162  11.972
54771W        W27839  22.531  17.294   2.261
54772W        W27840   9.810  16.880   0.915
54773W        W27841  30.671  23.775   1.685
54774W        W27842  37.083  43.769  13.134
54775W        W27843   5.789  44.705   4.569
54776W        W27844   9.357  19.963   1.439
54777W        W27845  39.492  25.496   4.549
54778W        W27846  44.725  15.570  12.419
54779W        W27847  17.576  37.542  11.434
54780W        W27848  35.639  40.881   0.784
54781W        W27849  21.966  39.830  12.809
54782W        W27850  39.135   1.866  11.948
54783W        W27851   8.434  41.866  10.771
54784W        W27852  42.380  31.119   0.406
54785W        W27853  18.116  24.374   4.521
54786W        W27854  12.918  26.209   3.894
54787W        W27855  42.335   8.446  12.510
54788W        W27856  29.166  16.167   0.746
54789W        W27857   1.714  41.314   0.749
54790W        W27858   7.658  29.443   0.847
54791W        W27859  32.834  40.363   0.015
54792W        W27860  11.344  15.774  13.083
54793W        W27861  10.417  14.808  12.488
54794W        W27862  10.182  25.144   0.896
54795W        W27863  25.115  13.354  11.955
54796W        W27864  29.159   5.813  13.799
54797W        W27865  10.088   8.098   1.306
54798W        W27866  10.138   5.770  10.891
54799W        W27867  33.307  30.583   5.161
54800W        W27868  39.574  28.949  13.981
54801W        W27869  21.624  29.926  12.085
54802W        W27870  10.704  14.387  14.002
54803W        W27871   5.242   6.731   1.240
54804W        W27872  12.556  36.464   0.845
54805W        W27873  33.985  36.321  12.624
54806W        W27874  33.628  11.125  14.349
54807W        W27875  18.607  28.216   4.206
54808W        W27876  26.217  42.782   4.156
54809W        W27877  15.839  39.887   0.418
54810W        W27878   1.262  42.518   1.260
54811W        W27879   5.366  24.957  11.423
54812W        W27880  22.260  25.680   4.415
54813W        W27881   5.881   3.694  12.459
54814W        W27882  32.562  41.101  12.387
54815W        W27883  30.152   3.318   2.213
54816W        W27884  36.363  35.177   2.053
54817W        W27885   3.032   3.000   1.745
54818W        W27886  15.103  32.150   2.165
54819W        W27887  34.364  39.604  12.052
54820W        W27888  44.839  16.329  13.115
54821W        W27889  36.527   8.387  10.887
54822W        W27890  15.998  42.617  14.900
54823W        W27891  23.222  35.894  12.891
54824W        W27892  15.120  37.861   4.719
54825W        W27893  34.036  19.895   3.137
54826W        W27894  24.616  27.198  13.458
54827W        W27895   2.601  37.579  10.120
54828W        W27896  32.594   6.844  14.286
54829W        W27897   2.815  19.560  11.739
54830W        W27898  31.876  26.086  13.633
54831W        W27899  42.621   6.501  11.622
54832W        W27900  29.884  25.763  13.474
54833W        W27901  17.277  26.152  10.670
54834W        W27902  19.298   2.979  13.550
54835W        W27903  42.811  35.923  12.025
54836W        W27904  37.020   2.733  14.592
54837W        W27905  27.179  33.959   4.879
54838W        W27906   2.727   6.982   2.102
54839W        W27907  37.584  17.087  11.139
54840W        W27908  36.951  37.456  10.655
54841W        W27909  18.154  10.903  14.266
54842W        W27910  42.331   9.798   3.171
54843W        W27911  40.387  12.409  11.460
54844W        W27912  36.965  16.149  14.792
54845W        W27913   6.223  40.098   0.703
54846W        W27914  12.374   3.237  11.030
54847W        W27915  14.601  36.422  13.304
54848W        W27916  35.543   8.957  13.355
54849W        W27917  15.593   6.266  14.006
54850W        W27918   7.929  37.348  10.670
54851W        W27919  19.550  14.703   0.000
54852W        W27920  40.226  12.420  14.892
54853W        W27921   4.728  13.877   4.617
54854W        W27922  39.370  24.075   4.785
54855W        W27923   2.902  24.100   1.332
54856W        W27924  14.901   3.425   2.575
54857W        W27925   3.758   1.205  12.338
54858W        W27926  44.847   9.374  11.519
54859W        W27927  35.931  15.579  11.469
54860W        W27928  10.807  31.469   3.714
54861W        W27929   8.352   8.621  11.146
54862W        W27930  31.177  14.168  11.694
54863W        W27931  38.910  33.033  12.982
54864W        W27932   5.922  42.836   4.644
54865W        W27933  23.642  27.176  13.397
54866W        W27934  33.252  23.699   4.069
54867W        W27935  23.095  10.021   2.288
54868W        W27936  14.348  31.709   3.899
54869W        W27937  26.041   4.795   4.297
54870W        W27938   5.213  36.461   2.896
54871W        W27939  29.389  44.443   2.743
54872W        W27940  35.279  35.727  10.975
54873W        W27941   2.499   7.385  12.451
54874W        W27942  37.833   1.673   1.281
54875W        W27943   7.775  25.795  11.372
54876W        W27944  43.320  20.097   1.886
54877W        W27945  13.094   6.791   2.678
54878W        W27946   5.879   8.455  10.647
54879W        W27947  31.816  10.642  12.487
54880W        W27948  27.007  28.260  11.598
54881W        W27949   3.494  23.169  11.336
54882W        W27950  37.635  28.138  13.999
54883W        W27951  42.772  10.159   4.104
54884W        W27952  27.051   4.330   1.257
54885W        W27953   7.064   5.104  11.266
54886W        W27954  40.585  21.505   4.177
54887W        W27955   9.371  24.272   3.762
54888W        W27956  17.272  34.147   2.510
54889W        W27957  35.148   6.724  10.404
54890W        W27958  35.575  26.500   3.372
54891W        W27959   6.974  34.782   2.751
54892W        W27960  21.145  14.798  10.954
54893W        W27961  43.472  19.430  14.447
54894W        W27962  40.812  19.501   3.203
54895W        W27963   3.369   1.226   3.584
54896W        W27964   0.383  33.091  11.910
54897W        W27965  41.752  10.657   3.325
54898W        W27966  19.154   1.870   4.805
54899W        W27967  26.511  11.297  10.247
54900W        W27968  32.562  15.347   3.781
54901W        W27969  24.032  25.066   5.389
54902W        W27970  28.544  14.296  14.639
54903W        W27971  27.498  21.451   1.463
54904W        W27972  37.302   0.964  14.549
54905W        W27973  16.015  26.275  14.469
54906W        W27974  27.541  33.557  13.444
54907W        W27975   0.314  39.500  10.702
54908W        W27976   0.754  18.791   2.309
54909W        W27977   8.664  30.622  10.584
54910W        W27978   2.795  42.305  12.548
54911W        W27979   2.374  30.027  10.625
54912W        W27980  28.872  37.823   2.987
54913W        W27981  20.530  41.976   2.675
54914W        W27982  42.099  22.755  14.640
54915W        W27983  19.795  13.540  13.110
54916W        W27984   2.298   7.619  12.969
54917W        W27985   6.123  28.958   1.113
54918W        W27986   0.836  40.741  12.389
54919W        W27987  30.659   2.815  12.893
54920W        W27988  43.494  43.728   1.459
54921W        W27989  44.024  36.134   1.246
54922W        W27990  14.760  43.764   3.734
54923W        W27991  31.075  13.727  14.957
54924W        W27992  22.736  32.956  12.490
54925W        W27993  25.252  38.371   3.233
54926W        W27994  41.109  11.224   4.922
54927W        W27995  26.449  31.982   4.237
54928W        W27996  13.145   5.774   0.180
54929W        W27997  31.145  25.977   4.188
54930W        W27998  18.828   3.988   0.623
54931W        W27999   3.767  23.678  11.177
54932W        W28000  24.463  10.701  13.345
54933W        W28001  16.549  29.960   0.566
54934W        W28002  23.552  42.773  13.534
54935W        W28003   1.930  10.959   4.636
54936W        W28004  19.513   8.778   4.457
54937W        W28005   8.143  13.752   3.936
54938W        W28006  30.428  14.647  11.674
54939W        W28007  34.509   4.365   3.713
54940W        W28008  41.062  39.847   3.612
54941W        W28009   7.372  21.239  11.957
54942W        W28010  44.513  36.611  10.753
54943W        W28011   6.966  24.720   0.439
54944W        W28012  43.306  43.936  14.812
54945W        W28013  10.742  36.928  13.589
54946W        W28014  37.830  31.848   3.180
54947W        W28015  10.631  40.037  14.269
54948W        W28016  44.221  37.072  11.877
54949W        W28017   2.863  39.951  11.624
54950W        W28018  17.250  30.450  14.595
54951W        W28019  26.810  43.993  11.511
54952W        W28020  39.713  17.509   3.701
54953W        W28021  15.906  21.488   1.490
54954W        W28022  11.459  29.132  11.524
54955W        W28023  10.177  40.874  14.496
54956W        W28024   8.201  40.556  11.127
54957W        W28025  30.677  41.562   1.788
54958W        W28026  44.392  21.702   5.027
54959W        W28027  36.195   8.906   2.373
54960W        W28028  23.172  19.208   3.799
54961W        W28029  30.593  30.239   2.751
54962W        W28030  10.794  28.901  12.269
54963W        W28031  27.919  37.998   3.192
54964W        W28032   2.505  12.684   4.070
54965W        W28033  34.485   7.119   4.097
54966W        W28034  27.160   2.080  12.332
54967W        W28035  25.488  39.535  11.508
54968W        W28036  36.401   4.880   0.907
54969W        W28037  41.801  31.947   4.095
54970W        W28038  14.086   2.633   0.984
54971W        W28039  33.758   8.240   4.900
54972W        W28040  11.656  43.443   3.306
54973W        W28041   9.631   2.316  12.003
54974W        W28042  21.887  39.428  13.996
54975W        W28043  12.499  21.308  11.112
54976W        W28044  18.105  26.097  12.301
54977W        W28045  12.521  43.878  12.903
54978W        W28046  18.281  10.403   1.435
54979W        W28047  32.021  27.188  10.570
54980W        W28048  20.223   4.792   4.588
54981W        W28049  19.802  39.419   2.367
54982W        W28050  23.073  31.820  14.958
54983W        W28051  10.960  13.722   0.749
54984W        W28052  15.740  43.449  12.167
54985W        W28053  29.637  29.747  11.983
54986W        W28054  40.195  15.408  10.770
54987W        W28055  44.794  18.353  10.778
54988W        W28056  23.444   2.198   4.677
54989W        W28057  39.456   3.483  12.423
54990W        W28058   9.848  23.540   3.212
54991W        W28059  32.190  37.364   4.645
54992W        W28060  28.640  10.151   2.374
54993W        W28061  36.048  29.935   2.174
54994W        W28062  29.931   0.438  13.468
54995W        W28063  22.996  43.281  14.068
54996W        W28064  15.268   7.236   1.171
54997W        W28065  27.080   9.815   3.693
54998W        W28066  43.221  15.943   1.843
54999W        W28067  27.980   7.197   3.729
55000W        W28068   4.403   1.244  11.209
55001W        W28069  41.497  18.298   2.887
55002W        W28070  28.362  20.744   2.845
55003W        W28071  25.153   6.823  14.924
55004W        W28072  31.032  17.633  13.639
55005W        W28073   1.068  21.268   3.670
55006W        W28074   8.169  42.101  11.149
55007W        W28075  14.657   2.275   0.286
55008W        W28076   7.928  41.965  10.153
55009W        W28077  14.926  23.589   0.777
55010W        W28078  13.433  17.320   3.688
55011W        W28079  35.103  24.860   4.703
55012W        W28080  44.268  22.871   4.241
55013W        W28081  34.447   3.734   0.231
55014W        W28082  28.563  28.763  13.513
55015W        W28083  22.012  38.708  13.453
55016W        W28084  41.951  29.975  12.490
55017W        W28085  13.203  14.629   1.678
55018W        W28086  28.584  14.726  12.567
55019W        W28087  17.737  22.367   2.921
55020W        W28088  37.420  32.691  12.607
55021W        W28089   1.421   2.168  12.992
55022W        W28090  34.425   3.644   0.751
55023W        W28091  37.575   4.909  10.956
55024W        W28092  36.599  30.165  13.863
55025W        W28093   1.779  26.612   2.668
55026W        W28094  16.166  44.267  14.521
55027W        W28095  38.061  23.702   2.439
55028W        W28096  14.810  21.247   2.671
55029W        W28097  38.815  30.409   1.654
55030W        W28098   4.733  33.564  10.613
55031W        W28099   4.535  44.406  10.195
55032W        W28100  44.781   6.773  10.949
55033W        W28101  23.706   1.771  14.233
55034W        W28102   7.497  35.402  12.045
55035W        W28103  12.570  19.304  14.550
55036W        W28104  30.101  25.072   4.093
55037W        W28105  18.757  14.448  11.669
55038W        W28106   8.436  43.953  13.640
55039W        W28107  25.068  34.019  10.649
55040W        W28108  29.018   9.840   2.567
55041W        W28109  38.494  24.571  12.848
55042W        W28110  18.709  28.667   3.932
55043W        W28111   0.834  30.502  12.372
55044W        W28112  21.894  11.671   2.247
55045W        W28113  38.308  27.113   3.128
55046W        W28114  10.426  37.411  12.434
55047W        W28115  26.756  37.036   4.877
55048W        W28116  23.083   1.775   0.030
55049W        W28117   6.733  11.554  10.638
55050W        W28118  13.392  39.460  12.044
55051W        W28119  32.434   3.486  12.124
55052W        W28120  21.454  20.144  14.997
55053W        W28121  28.387  16.999  14.364
55054W        W28122  41.954  25.614  10.648
55055W        W28123  28.434  38.921  11.544
55056W        W28124  16.270   1.916   3.592
55057W        W28125  38.789  25.433  14.846
55058W        W28126  41.222  12.203  14.777
55059W        W28127  15.868  18.125  14.476
55060W        W28128  29.521   7.256  12.199
55061W        W28129  23.618  35.836  13.952
55062W        W28130  11.317  24.106  14.213
55063W        W28131  27.496   2.368   1.832
55064W        W28132  26.991  18.158   2.405
55065W        W28133  16.717  32.518   1.354
55066W        W28134  32.001  27.864  13.425
55067W        W28135  44.470  15.904  13.297
55068W        W28136  30.637  31.133  14.923
55069W        W28137   2.672  23.751  13.942
55070W        W28138  23.006  16.174  11.156
55071W        W28139  10.120   8.448  12.115
55072W        W28140  14.257  30.406  12.921
55073W        W28141  11.744  18.240  11.594
55074W        W28142  44.068  17.272  13.626
55075W        W28143   8.817  13.277   4.398
55076W        W28144  22.229  29.633   0.370
55077W        W28145   3.779   1.571   3.643
55078W        W28146   9.289  10.637  12.089
55079W        W28147  19.640   1.455  12.357
55080W        W28148  20.117  40.875   3.276
55081W        W28149   1.509  18.849   3.632
55082W        W28150   1.881   2.231   1.134
55083W        W28151  41.903   7.293   0.921
55084W        W28152   6.607  41.491   4.222
55085W        W28153  42.754  29.605   2.788
55086W        W28154  27.883  26.529   3.338
55087W        W28155  22.065   1.469  14.464
55088W        W28156   6.342   9.709   0.568
55089W        W28157  15.869  19.591  13.437
55090W        W28158   9.026  12.605  12.028
55091W        W28159   8.107  44.604   3.866
55092W        W28160  40.532  13.217  12.565
55093W        W28161   0.266  32.854  10.907
55094W        W28162  15.272   9.910  11.643
55095W        W28163  31.581   2.984   3.129
55096W        W28164  21.258  11.959   3.348
55097W        W28165  25.531   2.218  11.382
55098W        W28166  37.869  18.581  10.979
55099W        W28167  44.985  41.420   4.014
55100W        W28168  35.129  12.712   3.708
55101W        W28169  32.207  21.507  11.027
55102W        W28170  33.109  28.106  11.380
55103W        W28171  16.644  23.419   1.205
55104W        W28172  26.571  30.453  13.446
55105W        W28173  24.655  39.280  12.618
55106W        W28174  44.799  20.184  10.653
55107W        W28175  19.527  15.761  12.843
55108W        W28176  18.131  34.042  14.988
55109W        W28177  20.772  44.931   3.241
55110W        W28178  17.011  41.129  14.460
55111W        W28179  31.618  34.900   1.223
55112W        W28180  24.961  13.085   2.348
55113W        W28181   3.849   5.950  13.910
55114W        W28182  12.079  36.306  11.044
55115W        W28183  19.429   0.175   5.130
55116W        W28184  24.903   1.161   2.638
55117W        W28185  20.862  44.542   4.111
55118W        W28186  10.334  44.373  12.202
55119W        W28187   9.822   6.916  10.709
55120W        W28188  13.088   1.204   3.056
55121W        W28189  28.924  33.556   0.448
55122W        W28190   4.468  33.228  12.908
55123W        W28191  17.138   3.085   4.831
55124W        W28192  24.961  39.370   4.102
55125W        W28193  14.014  28.089   4.381
55126W        W28194  42.249   1.314  12.431
55127W        W28195   5.757  37.108   3.199
55128W        W28196   8.473  24.457   1.342
55129W        W28197  26.440  15.080  14.411
55130W        W28198  28.184   5.333   1.204
55131W        W28199  37.857   5.326   1.054
55132W        W28200  14.286   8.382  11.677
55133W        W28201  13.152  33.850   3.673
55134W        W28202  39.530  25.020   4.729
55135W        W28203   5.730  25.292  14.464
55136W        W28204  44.455  32.099  11.659
55137W        W28205  13.319  15.469   2.347
55138W        W28206   7.649   3.868  13.355
55139W        W28207  41.607  12.869  11.203
55140W        W28208  14.283  23.964  10.883
55141W        W28209  27.598  10.222   1.210
55142W        W28210  24.557  36.262   0.254
55143W        W28211  28.009  43.333   0.863
55144W        W28212  39.374  36.491  10.532
55145W        W28213   2.837  26.647  13.529
55146W        W28214   0.883  38.554  11.215
55147W        W28215  15.586  29.074  12.432
55148W        W28216   3.585  35.562   2.733
55149W        W28217   3.306   8.705   1.929
55150W        W28218  33.032  40.556   1.827
55151W        W28219   2.706  36.182  10.216
55152W        W28220  13.109  39.955  12.460
55153W        W28221  21.005  18.176   0.441
55154W        W28222  15.786   3.875  12.879
55155W        W28223  38.856  14.838   3.664
55156W        W28224  32.243  24.967  11.151
55157W        W28225  15.394  17.503   1.685
55158W        W28226  42.721  17.508   0.770
55159W        W28227   4.095  26.625   1.690
55160W        W28228   3.260  13.461   2.300
55161W        W28229  38.998  16.578   4.147
55162W        W28230   5.787  40.438   1.743
55163W        W28231  41.551  27.704   4.819
55164W        W28232  43.565  11.713   0.956
55165W        W28233   7.624  12.723   1.602
55166W        W28234   5.294  29.110   2.364
55167W        W28235  26.472  20.399   3.163
55168W        W28236   2.081  25.051   4.256
55169W        W28237  37.567  44.903  12.184
55170W        W28238  10.466   9.970  13.449
55171W        W28239  30.159  21.492   0.021
55172W        W28240  18.749  36.590   2.452
55173W        W28241  28.401  36.435  13.858
55174W        W28242  18.484  37.501   3.785
55175W        W28243  18.887   7.306  12.890
55176W        W28244  39.459  37.804   2.204
55177W        W28245  17.287  23.152   0.347
55178W        W28246   2.321  10.778  13.885
55179W        W28247  42.346  44.431   4.368
55180W        W28248  27.045  25.912  10.369
55181W        W28249   4.247  41.027  13.649
55182W        W28250  34.883  19.689   0.206
55183W        W28251  30.696  16.538   0.368
55184W        W28252  44.998   2.235  11.589
55185W        W28253  22.109  35.209   1.236
55186W        W28254  37.891   2.910   0.138
55187W        W28255  21.241  38.170  12.103
55188W        W28256   7.776   8.426  12.804
55189W        W28257  43.710  39.760  11.902
55190W        W28258   3.688  37.621   1.630
55191W        W28259  33.499  37.428  10.395
55192W        W28260  44.321  34.856   1.838
55193W        W28261  22.603  12.950   1.826
55194W        W28262   5.742  23.773  13.326
55195W        W28263  39.863  22.042  13.779
55196W        W28264  40.877  37.537   1.873
55197W        W28265  32.135   6.727  12.823
55198W        W28266  23.677  41.961   0.037
55199W        W28267  18.112   1.402   1.913
55200W        W28268  31.845   6.490  11.531
55201W        W28269  39.453  20.979   3.729
55202W        W28270  28.026  26.549  12.049
55203W        W28271  34.189  44.892  12.517
55204W        W28272  22.918  27.121  14.140
55205W        W28273  24.040  36.911  11.191
55206W        W28274  17.761  24.345   1.819
55207W        W28275  21.508  31.971  12.076
55208W        W28276  27.595  40.545   3.212
55209W        W28277   5.362  13.112  12.185
55210W        W28278  37.978  34.445   5.164
55211W        W28279  26.009  40.553  13.948
55212W        W28280  14.142  34.383  11.022
55213W        W28281  21.232   5.638   0.807
55214W        W28282  36.648  32.019   4.157
55215W        W28283   8.387  32.302  12.522
55216W        W28284  28.683  34.473   0.446
55217W        W28285  43.820   9.657  12.603
55218W        W28286   2.207  42.076  12.880
55219W        W28287  33.457  39.571  10.933
55220W        W28288  18.183  43.300  14.306
55221W        W28289  18.177  41.324   1.497
55222W        W28290  43.307  20.994  12.811
55223W        W28291  39.864  33.887   0.425
55224W        W28292  13.084  43.247   0.834
55225W        W28293  16.689  35.558  14.911
55226W        W28294  38.368  32.839  12.186
55227W        W28295  39.194  32.104  14.659
55228W        W28296   7.126  14.705  14.919
55229W        W28297   9.510  11.486  11.973
55230W        W28298  25.950  37.450  14.037
55231W        W28299   2.199   5.518  11.006
55232W        W28300  17.833  23.877  11.119
55233W        W28301  34.386  26.280  11.107
55234W        W28302  18.161  32.156   1.881
55235W        W28303  39.903  30.964  11.495
55236W        W28304  17.323   0.583  14.263
55237W        W28305  19.289  34.367  13.492
55238W        W28306  42.407  35.401   4.086
55239W        W28307  28.130  32.169   1.875
55240W        W28308  13.266  24.640  10.612
55241W        W28309  43.315  26.382  11.542
55242W        W28310   9.738  34.129  10.709
55243W        W28311  20.755  15.101  11.112
55244W        W28312   4.367  31.720   4.066
55245W        W28313   6.900   0.636   3.075
55246W        W28314  16.579  16.005  12.431
55247W        W28315   5.277  31.772  10.618
55248W        W28316  44.964  44.692   3.239
55249W        W28317  25.640  26.241  13.041
55250W        W28318  26.097  22.225   4.686
55251W        W28319   3.937  10.761  12.489
55252W        W28320  24.875  27.550  14.543
55253W        W28321  12.466   7.261   3.668
55254W        W28322  42.297  19.713   1.485
55255W        W28323  13.297  10.628   4.765
55256W        W28324   1.949  11.138  12.183
55257W        W28325  40.047   4.151   0.705
55258W        W28326  18.767  33.231   0.376
55259W        W28327  17.030  34.319   0.792
55260W        W28328  13.682  41.070  11.660
55261W        W28329   0.560   7.299   4.341
55262W        W28330  28.679  13.497   2.228
55263W        W28331  15.092  23.019  12.188
55264W        W28332  10.808  20.120  13.591
55265W        W28333   1.259  17.300  11.528
55266W        W28334  13.830  24.760  13.326
55267W        W28335  15.651  28.587   4.127
55268W        W28336  16.854   9.385   2.242
55269W        W28337  31.647   3.007   1.418
55270W        W28338   5.273  12.177   4.837
55271W        W28339  41.601  30.129  14.100
55272W        W28340  11.573  12.172   0.868
55273W        W28341  19.052  21.481  10.616
55274W        W28342  37.437  10.264   0.763
55275W        W28343  42.432  13.429   5.790
55276W        W28344  15.274  28.857  14.783
55277W        W28345  13.100  37.529   3.012
55278W        W28346  37.858  33.109  11.585
55279W        W28347  27.578  24.957   4.516
55280W        W28348   2.560  35.586   2.778
55281W        W28349   6.380  23.741  13.770
55282W        W28350  25.739  17.602  11.190
55283W        W28351   9.804  44.510  14.271
55284W        W28352   7.824   7.726   2.440
55285W        W28353  11.729  14.806  10.734
55286W        W28354  43.084  12.881  12.588
55287W        W28355  16.292  17.603   2.032
55288W        W28356   3.741   1.494  13.911
55289W        W28357  44.063   4.253   2.424
55290W        W28358  39.747  28.138   0.971
55291W        W28359   0.969  20.543   4.866
55292W        W28360  42.408  21.039   4.121
55293W        W28361  17.411  32.618  12.083
55294W        W28362  10.166  13.358  12.193
55295W        W28363  41.339  37.486   3.319
55296W        W28364   8.110  12.608   2.390
55297W        W28365  11.915  15.617   2.172
55298W        W28366  41.385   8.391  12.368
55299W        W28367  23.643  15.776   3.318
55300W        W28368  35.582   6.212  13.002
55301W        W28369  13.076   8.941   4.118
55302W        W28370  10.157  30.688   1.318
55303W        W28371  30.499  22.653  11.956
55304W        W28372  21.473  34.472   4.013
55305W        W28373   9.328  19.058   1.397
55306W        W28374  38.910   5.966   2.897
55307W        W28375   4.573  37.713  13.473
55308W        W28376  24.660  37.947   4.259
55309W        W28377  43.228   5.974  14.665
55310W        W28378  33.409  35.403   0.283
55311W        W28379   9.223  19.791  11.157
55312W        W28380  28.975  43.933   2.903
55313W        W28381  34.097  14.199   4.599
55314W        W28382   4.888   7.737   4.696
55315W        W28383  28.891  11.856   3.269
55316W        W28384   8.150  32.504  12.087
55317W        W28385  16.398   9.899   1.729
55318W        W28386  31.111   0.314  14.917
55319W        W28387   8.103  27.056   2.910
55320W        W28388  28.698   5.532   3.332
55321W        W28389  12.269  21.202   2.332
55322W        W28390  28.655  28.112   4.219
55323W        W28391  29.357  29.563   0.183
55324W        W28392   6.352  21.080  10.790
55325W        W28393   2.265  16.058   0.267
55326W        W28394  23.578  41.490   0.224
55327W        W28395  22.570  12.704  13.998
55328W        W28396  15.635   1.985  12.090
55329W        W28397  11.688  36.885  12.591
55330W        W28398  27.396  14.514   4.183
55331W        W28399  36.002   3.921   4.170
55332W        W28400   0.390  42.265   2.881
55333W        W28401  32.399  16.211   0.753
55334W        W28402  36.229  14.031  12.573
55335W        W28403   1.298  38.857  12.971
55336W        W28404  44.286  42.642   5.074
55337W        W28405   4.507  43.872   2.999
55338W        W28406  37.471  31.044  14.844
55339W        W28407  14.763  43.229   1.234
55340W        W28408  33.523  19.776  11.638
55341W        W28409  40.047  10.967  11.141
55342W        W28410  40.856  24.139  13.628
55343W        W28411  15.429   1.300  11.526
55344W        W28412  43.024  28.222  14.578
55345W        W28413  19.223  13.202   2.003
55346W        W28414  32.973  23.523  13.126
55347W        W28415  13.242   3.340  11.265
55348W        W28416  30.967  34.952   3.340
55349W        W28417   2.315  44.746   0.695
55350W        W28418  37.058  43.923  11.707
55351W        W28419  31.635   9.417   2.391
55352W        W28420  34.855  34.198   0.263
55353W        W28421  37.393   2.867  12.901
55354W        W28422  16.618  11.357  11.051
55355W        W28423  12.091  13.658  10.948
55356W        W28424  10.871  19.523  10.870
55357W        W28425  18.072   7.647  11.621
55358W        W28426  30.623  41.760  11.921
55359W        W28427  21.686  24.723  13.779
55360W        W28428  15.628  19.007  14.294
55361W        W28429   8.236  40.293   4.147
55362W        W28430  36.515  27.944  10.664
55363W        W28431   5.849  14.419  13.913
55364W        W28432  19.610  36.125   4.355
55365W        W28433   9.502  32.077   1.699
55366W        W28434   5.850  36.137  13.267
55367W        W28435  24.655  30.922  14.028
55368W        W28436   8.254  28.663   4.224
55369W        W28437  16.237   5.212  12.414
55370W        W28438  14.155  40.271   1.895
55371W        W28439  38.322  11.681  10.648
55372W        W28440   2.196   1.593   3.046
55373W        W28441  14.609   2.802  13.360
55374W        W28442  27.175  26.963  13.965
55375W        W28443  26.411  13.135   2.736
55376W        W28444  17.317   6.782   4.664
55377W        W28445  14.876   6.625  12.834
55378W        W28446  41.021  42.571   3.367
55379W        W28447  11.836  16.750  13.315
55380W        W28448  42.066  32.577  10.507
55381W        W28449   5.284  28.602   1.080
55382W        W28450  26.714   8.019   2.537
55383W        W28451  29.475  33.702  10.087
55384W        W28452  36.852  38.635   3.602
55385W        W28453  24.478  33.052  14.833
55386W        W28454  14.242  21.556   2.246
55387W        W28455  25.581  42.249  12.157
55388W        W28456  27.178  38.366   0.908
55389W        W28457  38.011  21.044   2.285
55390W        W28458   8.642   0.416  14.043
55391W        W28459   4.758  26.038  12.936
55392W        W28460  43.382  40.529  13.819
55393W        W28461  18.273  10.089   1.854
55394W        W28462  36.965   4.685  13.443
55395W        W28463  14.096  32.195   4.156
55396W        W28464   3.239  42.377   0.704
55397W        W28465  14.301  31.237   3.705
55398W        W28466  35.954  40.611  12.958
55399W        W28467  32.480  33.413   2.710
55400W        W28468  25.294  35.337  11.141
55401W        W28469  44.761   9.081   0.774
55402W        W28470  43.393  13.288  13.832
55403W        W28471  27.662  39.490   2.345
55404W        W28472  25.319  19.398  13.675
55405W        W28473  27.058  19.975  13.304
55406W        W28474   0.362  19.498   2.468
55407W        W28475  30.386  37.822  14.214
55408W        W28476  44.148  32.955   2.368
55409W        W28477  24.273  16.300   2.719
55410W        W28478  26.212   6.854   1.305
55411W        W28479  34.875  29.380   2.400
55412W        W28480  41.830  43.744  11.299
55413W        W28481  30.520  29.256  12.954
55414W        W28482  23.712   0.003   2.220
55415W        W28483   5.545   1.250  13.862
55416W        W28484  20.154   9.381   3.002
55417W        W28485  16.316  38.026  13.803
55418W        W28486  36.394  25.212  11.802
55419W        W28487  35.612   8.227   1.633
55420W        W28488  40.640  31.011  12.072
55421W        W28489   6.768   5.740  10.740
55422W        W28490  40.056   1.662  11.033
55423W        W28491   3.712  42.358  11.377
55424W        W28492  27.117  36.032   4.543
55425W        W28493  34.792  19.470   3.698
55426W        W28494  18.937   4.410  13.037
55427W        W28495   8.832  29.132  14.249
55428W        W28496  26.337   8.039  11.491
55429W        W28497  13.569   7.381   1.643
55430W        W28498  31.899  29.385  12.920
55431W        W28499  30.976  15.342   3.231
55432W        W28500  37.823  20.440   4.065
55433W        W28501  12.245  37.036  10.545
55434W        W28502  43.315  11.713   2.021
55435W        W28503  28.187  21.985   4.590
55436W        W28504   1.898   5.372   1.246
55437W        W28505  20.004  18.538  11.629
55438W        W28506  40.013  42.951   1.400
55439W        W28507   9.207  25.740  14.880
55440W        W28508  37.594  29.005   1.710
55441W        W28509   7.885  17.685   1.681
55442W        W28510   7.390  16.686  12.414
55443W        W28511  25.598  43.225  13.952
55444W        W28512  42.871   9.756  13.785
55445W        W28513   4.209  38.799  13.376
55446W        W28514   4.640   4.336   0.381
55447W        W28515  14.253  13.372  13.400
55448W        W28516  41.996   3.388   0.537
55449W        W28517  44.615  11.500   0.390
55450W        W28518  43.816  14.405   4.576
55451W        W28519  20.952  11.997   2.024
55452W        W28520   0.884  19.218  12.693
55453W        W28521  44.288  16.731  10.608
55454W        W28522  35.967   1.749   4.234
55455W        W28523  18.146  34.948   0.350
55456W        W28524  22.789   5.685   2.708
55457W        W28525   1.462  14.688  12.075
55458W        W28526  36.376  23.704  12.348
55459W        W28527   4.752  27.863  12.794
55460W        W28528  34.917   4.309   4.043
55461W        W28529   2.479  30.525  10.442
55462W        W28530   2.666  14.224   4.933
55463W        W28531  14.644  12.720  12.073
55464W        W28532  44.315  15.769   5.150
55465W        W28533  25.804  34.493  12.820
55466W        W28534  17.670  28.563  10.714
55467W        W28535  43.009  37.075   1.223
55468W        W28536  26.535  40.060   4.598
55469W        W28537  21.807   5.753   2.234
55470W        W28538  35.299  31.961   3.189
55471W        W28539  17.090   5.339   3.355
55472W        W28540   5.794  23.227   0.895
55473W        W28541  18.779   5.233  11.177
55474W        W28542   3.451  24.416   3.639
55475W        W28543  44.423  18.909   3.218
55476W        W28544  17.393   3.198  13.471
55477W        W28545  21.095  21.293   2.680
55478W        W28546  18.122  29.996   4.574
55479W        W28547  20.631  25.733  13.081
55480W        W28548  28.022  12.371   5.480
55481W        W28549  17.204  38.807  10.633
55482W        W28550  10.195  37.761  12.991
55483W        W28551  28.394  18.213   2.141
55484W        W28552  27.589  40.025  14.740
55485W        W28553  31.905  13.505  12.933
55486W        W28554  17.609  20.727   3.245
55487W        W28555   7.270  18.228   0.073
55488W        W28556  42.049   3.857  10.850
55489W        W28557  28.756  44.544  12.964
55490W        W28558  23.091   0.983   2.373
55491W        W28559  32.606  42.348  11.450
55492W        W28560   9.751  39.253  10.956
55493W        W28561  40.532   5.371  13.464
55494W        W28562  23.939  27.494  12.072
55495W        W28563  16.108  30.697   3.793
55496W        W28564  22.516   5.113   3.709
55497W        W28565  19.802  38.827   4.893
55498W        W28566  33.830  41.441   4.569
55499W        W28567  31.646  37.893   3.897
55500W        W28568  37.455   4.845   3.371
55501W        W28569  24.217   3.758   0.685
55502W        W28570  33.921   1.920  11.041
55503W        W28571   0.770  25.999   2.242
55504W        W28572  25.600   1.890  13.959
55505W        W28573  20.386  36.531  11.475
55506W        W28574   0.487  25.630   1.414
55507W        W28575   4.403  17.523  11.607
55508W        W28576  19.149  34.079   1.991
55509W        W28577  27.963  14.315   3.717
55510W        W28578  18.211  11.808   0.536
55511W        W28579  42.097  40.583  14.455
55512W        W28580  30.599  11.387  14.973
55513W        W28581   8.663  14.488   4.481
55514W        W28582   8.550   5.797  14.897
55515W        W28583   4.011   3.248   2.263
55516W        W28584  30.149  36.336   2.131
55517W        W28585   7.713   3.021   4.634
55518W        W28586  29.089  23.014   4.673
55519W        W28587  39.377  25.136  10.626
55520W        W28588  38.342  19.194  14.384
55521W        W28589  14.702  26.758  11.432
55522W        W28590   8.372  43.168  11.096
55523W        W28591  34.540   6.014   2.861
55524W        W28592  36.053   4.730  10.541
55525W        W28593   8.241  26.033  14.014
55526W        W28594  24.884  10.591  12.098
55527W        W28595  14.287   2.077   0.946
55528W        W28596  17.202  39.048   5.065
55529W        W28597   5.399  15.199  12.627
55530W        W28598  26.743  27.236  10.540
55531W        W28599  40.458   4.483   0.805
55532W        W28600  20.716  20.849  12.295
55533W        W28601  36.434   8.902   1.897
55534W        W28602  31.274  15.553  14.336
55535W        W28603   1.223  27.902   1.253
55536W        W28604  42.357   9.500   3.612
55537W        W28605  31.619  36.500  10.553
55538W        W28606  22.420   6.676  11.641
55539W        W28607   3.947  30.192   3.627
55540W        W28608  15.847  27.921   2.764
55541W        W28609  44.687  41.868   4.708
55542W        W28610  38.513  24.615  11.806
55543W        W28611   0.062  16.461   2.566
55544W        W28612  33.094   1.210   1.200
55545W        W28613  37.530   6.993  11.990
55546W        W28614  30.640  44.095  13.570
55547W        W28615  40.373  11.301  10.632
55548W        W28616   3.730  28.080   1.593
55549W        W28617   7.636  40.015  13.925
55550W        W28618  42.896  35.428  11.176
55551W        W28619  42.707   1.203  11.107
55552W        W28620  10.236  14.271  13.776
55553W        W28621  31.539  39.108   2.306
55554W        W28622  12.040   9.342   1.860
55555W        W28623  34.136  41.098   3.192
55556W        W28624  44.364  28.976  12.560
55557W        W28625  22.250  21.977   1.836
55558W        W28626   7.385  18.469  10.633
55559W        W28627  28.162  40.261   1.398
55560W        W28628  19.479   7.257   3.234
55561W        W28629  33.511  11.558  13.533
55562W        W28630  21.450   6.035   4.652
55563W        W28631  26.535  26.135  14.362
55564W        W28632  15.154  19.188   1.221
55565W        W28633   1.628  40.996  11.934
55566W        W28634  17.762  26.602  14.707
55567W        W28635  30.686  16.732  14.012
55568W        W28636   1.749  22.034  14.382
55569W        W28637   1.343  18.440  12.186
55570W        W28638   7.586  25.295   3.279
55571W        W28639  18.202  14.311   2.869
55572W        W28640   0.583  38.816  14.094
55573W        W28641  25.393  16.533   0.398
55574W        W28642  38.407  24.088  14.121
55575W        W28643   1.958   6.564   0.057
55576W        W28644  22.556  12.956  12.098
55577W        W28645  17.803   0.718  12.721
55578W        W28646  23.934  30.051   0.937
55579W        W28647  22.254   4.708   1.313
55580W        W28648  31.604  30.674   1.868
55581W        W28649  12.441  13.575   4.736
55582W        W28650   8.444  20.189  10.818
55583W        W28651  14.880   5.119  11.522
55584W        W28652   2.870  28.980  10.869
55585W        W28653  17.397  22.779   3.823
55586W        W28654   4.218   0.754   4.911
55587W        W28655   5.623  10.219   3.347
55588W        W28656  23.828  17.323   4.989
55589W        W28657  38.487  26.109  13.013
55590W        W28658  12.791   1.803   2.222
55591W        W28659  34.444  41.473  13.987
55592W        W28660  28.538  42.924  12.009
55593W        W28661  39.932  19.135   4.054
55594W        W28662  15.846  30.133  10.671
55595W        W28663   8.656   3.279   3.416
55596W        W28664  20.623   4.757   3.683
55597W        W28665  25.937  30.510  14.466
55598W        W28666   0.980  25.706   4.788
55599W        W28667  28.910   0.909   2.672
55600W        W28668  30.019   0.035  13.143
55601W        W28669  16.783  27.311   2.414
55602W        W28670  39.937  38.750   0.559
55603W        W28671   0.421  11.162  14.332
55604W        W28672   5.389   5.971   4.421
55605W        W28673   0.796  29.044   5.350
55606W        W28674  23.744  34.710   2.803
55607W        W28675  18.260  10.663  12.340
55608W        W28676  17.144  28.694  14.464
55609W        W28677  28.112   7.274  14.869
55610W        W28678  23.447  12.832   3.613
55611W        W28679  10.562  19.747   1.765
55612W        W28680  20.171  37.389   4.951
55613W        W28681   5.143   9.364   1.006
55614W        W28682  16.188  26.523   0.858
55615W        W28683  15.062  10.217   4.585
55616W        W28684  41.570  30.467  11.194
55617W        W28685  39.178  27.985  10.040
55618W        W28686  23.269  25.606   3.582
55619W        W28687   9.644  43.747  11.982
55620W        W28688  38.311  44.556   3.125
55621W        W28689  39.634  20.537  11.845
55622W        W28690  17.428  18.611  10.171
55623W        W28691   7.826  15.534  12.269
55624W        W28692  10.856  34.297   0.226
55625W        W28693  28.353  10.268   2.820
55626W        W28694  43.732  28.014  11.940
55627W        W28695  15.107  39.020   3.603
55628W        W28696  36.165  10.658  13.965
55629W        W28697   6.405  23.088  10.576
55630W        W28698  37.913  25.120  14.787
55631W        W28699  26.996   7.156   3.188
55632W        W28700  18.770  24.184  12.544
55633W        W28701  10.678   1.802  12.443
55634W        W28702  43.076  35.928   1.096
55635W        W28703  43.548  11.353   3.717
55636W        W28704  37.735  31.207   0.819
55637W        W28705  40.947   0.056  13.295
55638W        W28706   1.750  23.720   3.277
55639W        W28707  41.051   8.110  11.157
55640W        W28708  41.740   6.292   2.811
55641W        W28709  28.658  35.584  14.504
55642W        W28710  22.253  11.877  12.428
55643W        W28711  33.506  33.894   3.760
55644W        W28712  23.116  17.542   2.993
55645W        W28713   9.713  36.946  14.735
55646W        W28714  42.519  30.190   3.888
55647W        W28715  16.096   1.527   4.861
55648W        W28716  37.856  24.074  11.413
55649W        W28717   9.939  14.580  12.500
55650W        W28718  23.185  14.741  14.529
55651W        W28719  24.786  38.478   2.349
55652W        W28720   3.586   5.973   0.120
55653W        W28721  33.460  18.621   4.956
55654W        W28722  43.447  29.635  12.023
55655W        W28723   2.827  24.367  14.230
55656W        W28724   8.445  31.496   4.350
55657W        W28725   7.463   0.429   3.745
55658W        W28726  26.631  33.157   3.360
55659W        W28727  23.028  18.695   1.858
55660W        W28728  36.534   2.789  12.361
55661W        W28729  13.871  17.027   3.702
55662W        W28730   6.700  42.385   0.678
55663W        W28731  44.828   5.226   4.126
55664W        W28732  30.139  19.748  13.586
55665W        W28733   5.075  13.441  11.922
55666W        W28734   6.798  21.638   2.076
55667W        W28735  40.068  15.161  14.909
55668W        W28736  17.430  34.260   4.516
55669W        W28737  15.478  35.879  12.849
55670W        W28738  40.504   7.385  13.245
55671W        W28739   6.830  41.670   3.795
55672W        W28740  34.094   3.209   1.648
55673W        W28741  26.450  20.516  13.398
55674W        W28742  11.638  39.841   3.970
55675W        W28743  25.103  14.402  13.096
55676W        W28744  36.510  17.199   4.480
55677W        W28745  20.216   5.904   1.163
55678W        W28746  12.385   1.823   4.367
55679W        W28747  14.749  11.177  10.506
55680W        W28748  15.606  12.833   3.287
55681W        W28749  29.177  29.372  10.964
55682W        W28750  27.991   8.370  13.064
55683W        W28751  19.511   6.832   1.844
55684W        W28752   1.192  19.467   0.713
55685W        W28753  35.335  17.967   3.839
55686W        W28754   5.968  34.923   2.807
55687W        W28755  14.808  12.604  13.998
55688W        W28756  22.586   0.909   3.137
55689W        W28757   6.433  44.269   5.039
55690W        W28758   7.242  17.994  10.758
55691W        W28759  10.397   1.880  11.233
55692W        W28760  37.155  20.762   2.370
55693W        W28761  21.481  38.391   3.264
55694W        W28762  24.714  37.528  11.813
55695W        W28763  30.049  12.143   2.058
55696W        W28764  43.763  15.545  12.048
55697W        W28765  39.780  43.705   2.777
55698W        W28766  18.780  37.465  13.092
55699W        W28767   8.676  10.441  14.648
55700W        W28768  36.050  18.582  14.023
55701W        W28769  13.189  43.988  13.858
55702W        W28770   9.711   7.205  13.980
55703W        W28771  36.034  36.924  12.441
55704W        W28772  43.746   3.010   0.829
55705W        W28773   7.870  23.804  12.911
55706W        W28774   1.743  22.846  13.982
55707W        W28775  33.425   8.929   4.408
55708W        W28776  18.950  40.762   1.339
55709W        W28777  35.357   7.593   3.676
55710W        W28778   1.504  44.437  12.013
55711W        W28779   5.988   5.846   1.318
55712W        W28780  28.071   0.741  10.560
55713W        W28781  39.524  11.199  11.822
55714W        W28782  44.985  22.148  11.928
55715W        W28783  18.271  24.252   1.899
55716W        W28784   8.712  24.577   3.133
55717W        W28785  26.509  22.966   0.410
55718W        W28786  23.250  23.193  13.602
55719W        W28787  36.342  22.659   3.580
55720W        W28788  44.496  26.606   3.178
55721W        W28789  17.425  26.616  12.879
55722W        W28790  28.992   7.783   3.591
55723W        W28791  27.966  32.894  11.593
55724W        W28792  39.713  12.795  13.481
55725W        W28793  33.531   5.923   2.912
55726W        W28794  14.674  21.572  10.881
55727W        W28795  15.308   8.335  11.601
55728W        W28796  17.226   1.515  12.665
55729W        W28797  29.584  25.352  13.565
55730W        W28798  34.175   6.791  12.026
55731W        W28799   8.622  29.129  11.066
55732W        W28800   6.672   3.466   5.038
55733W        W28801   1.357  39.832   2.741
55734W        W28802  20.034   5.166   2.760
55735W        W28803  22.635  39.598   2.427
55736W        W28804  29.208   0.510   3.765
55737W        W28805  39.850  39.243   0.455
55738W        W28806  19.769  42.269  14.825
55739W        W28807  36.840   1.785  13.540
55740W        W28808  24.933  17.802   3.332
55741W        W28809  15.133  34.916   2.190
55742W        W28810  44.567  39.064  10.967
55743W        W28811  34.386  15.315  12.150
55744W        W28812  23.513  33.035  12.971
55745W        W28813   8.373  11.678  14.552
55746W        W28814  32.058  29.938   0.471
55747W        W28815  42.533  24.689   0.463
55748W        W28816   2.925  11.061   4.676
55749W        W28817  39.438  25.995   1.012
55750W        W28818  29.444  28.935  12.680
55751W        W28819  28.692  32.637  10.780
55752W        W28820  22.115  34.428  13.722
55753W        W28821  27.993  33.687   0.977
55754W        W28822  17.200  11.458  13.478
55755W        W28823  42.239  30.060  12.079
55756W        W28824  11.664  19.802  14.115
55757W        W28825   7.810   4.940   4.471
55758W        W28826  36.832  25.511   2.275
55759W        W28827  13.699  36.085   0.986
55760W        W28828  29.615  28.387  14.292
55761W        W28829  37.163  37.804  14.281
55762W        W28830  43.401  11.303   4.388
55763W        W28831  42.813  19.220   3.617
55764W        W28832  25.147  26.195   3.298
55765W        W28833  36.108  26.578   3.334
55766W        W28834  38.386  12.235  11.690
55767W        W28835  15.182   5.033   4.560
55768W        W28836   2.995  22.972  10.499
55769W        W28837  29.760  12.825  13.060
55770W        W28838  23.897  28.717   2.275
55771W        W28839  39.372   5.978   2.133
55772W        W28840  44.242   0.487  12.503
55773W        W28841   2.054   9.937  12.747
55774W        W28842   8.653  34.718  13.600
55775W        W28843  29.472  11.031   1.848
55776W        W28844  36.599   2.831   3.580
55777W        W28845  23.656  28.200  12.559
55778W        W28846   7.376  41.493  13.057
55779W        W28847   5.432   6.539   0.201
55780W        W28848  10.785  31.436  13.379
55781W        W28849  20.194  15.671  11.519
55782W        W28850  42.003  22.799  10.255
55783W        W28851  22.961   9.609  12.258
55784W        W28852  30.935  10.678   2.310
55785W        W28853  19.212  38.935  10.555
55786W        W28854  42.450  22.212  12.001
55787W        W28855  20.697  19.065   4.645
55788W        W28856   1.942  30.240  12.610
55789W        W28857  17.086  19.413  13.837
55790W        W28858  27.142  17.508  10.652
55791W        W28859  35.448   2.781   4.403
55792W        W28860   5.326  37.911  13.509
55793W        W28861  30.195  43.847  11.929
55794W        W28862  33.894  36.843  10.359
55795W        W28863   3.770  27.423  10.719
55796W        W28864   0.876  30.925  14.121
55797W        W28865   4.911  13.960   1.738
55798W        W28866  37.029  32.631  12.926
55799W        W28867  28.393   6.446  12.084
55800W        W28868   1.788  17.253  11.677
55801W        W28869  23.447  15.357   1.419
55802W        W28870  41.064   3.793   2.884
55803W        W28871   5.663   2.478   0.322
55804W        W28872  43.670   4.980  10.095
55805W        W28873   6.893   2.463  10.771
55806W        W28874  43.255  16.322  12.006
55807W        W28875  42.299  37.863  14.060
55808W        W28876  14.560  26.585   4.460
55809W        W28877  18.610  44.182   1.421
55810W        W28878  24.049   9.119  10.652
55811W        W28879  27.652  38.483  11.582
55812W        W28880  43.237  32.964  11.525
55813W        W28881  39.901  37.879   3.430
55814W        W28882  36.152  32.869  14.023
55815W        W28883  42.926  19.094  14.030
55816W        W28884  33.468  27.473   0.500
55817W        W28885  13.224  39.681   4.577
55818W        W28886  16.945  44.538  14.410
55819W        W28887  15.136  13.750  14.502
55820W        W28888   7.675  26.461   1.387
55821W        W28889  39.609   5.756   2.572
55822W        W28890  15.172  25.208   0.993
55823W        W28891  23.513  32.486   2.721
55824W        W28892  32.425  33.577   3.203
55825W        W28893  35.507  30.359   4.960
55826W        W28894   6.226  12.565  12.803
55827W        W28895  14.462  10.930  12.539
55828W        W28896  44.893  23.069   0.547
55829W        W28897  44.412  35.103   3.185
55830W        W28898  19.262  24.518   2.799
55831W        W28899  12.205  12.622   1.762
55832W        W28900  44.361   3.315   3.398
55833W        W28901  29.476  25.004   1.337
55834W        W28902  14.124   9.447  13.798
55835W        W28903   6.386   1.997  14.657
55836W        W28904  36.521  33.450  12.123
55837W        W28905  16.051  25.760   1.353
55838W        W28906  31.822  12.595   3.875
55839W        W28907   6.790   3.719  12.326
55840W        W28908   6.695   0.606  14.137
55841W        W28909   4.467  20.670  12.288
55842W        W28910  26.385   6.164   2.472
55843W        W28911  35.896  32.662  14.454
55844W        W28912  13.486  12.174  11.605
55845W        W28913  36.851  43.744   3.790
55846W        W28914  43.496  36.021  11.588
55847W        W28915  12.551  44.988   3.756
55848W        W28916   4.253  18.167   0.907
55849W        W28917  20.220  22.272   2.795
55850W        W28918  19.768  13.968   1.817
55851W        W28919  43.768  24.031   4.605
55852W        W28920  33.685  40.842   4.253
55853W        W28921  16.554   3.848  11.067
55854W        W28922  12.826   6.155  11.509
55855W        W28923   8.027   7.227   5.234
55856W        W28924  24.201   4.804   2.111
55857W        W28925   3.294  22.840   5.068
55858W        W28926  23.273  41.750   1.518
55859W        W28927  27.648  40.025  13.762
55860W        W28928   7.084  23.467   4.598
55861W        W28929  36.916  33.973  11.592
55862W        W28930  22.662  34.409   3.250
55863W        W28931  16.011  20.349   4.460
55864W        W28932  44.480   3.275   0.392
55865W        W28933  40.459   2.286  13.397
55866W        W28934  17.736  23.720   4.072
55867W        W28935  15.146  13.650   4.244
55868W        W28936  37.984  36.372   1.277
55869W        W28937  34.672  36.189   1.333
55870W        W28938  36.923  27.747   3.474
55871W        W28939  27.932  28.223   1.315
55872W        W28940  27.395  30.733   2.224
55873W        W28941  36.424   8.495   3.637
55874W        W28942  19.127  27.648  13.819
55875W        W28943   4.190   4.960  14.258
55876W        W28944   0.436  38.935   2.259
55877W        W28945   2.487  44.748   3.020
55878W        W28946  15.321   1.954  14.956
55879W        W28947   3.816  35.046   0.592
55880W        W28948  18.351  25.709  13.348
55881W        W28949  14.456  37.912   0.506
55882W        W28950  25.547  24.951   0.831
55883W        W28951  21.225  42.922   0.876
55884W        W28952  38.014  25.583   0.469
55885W        W28953  41.256  44.340  11.336
55886W        W28954  10.394  11.675  10.558
55887W        W28955  17.099  18.508  13.356
55888W        W28956  11.875   0.953  10.022
55889W        W28957   9.120   2.807   2.779
55890W        W28958   5.283  31.023  11.683
55891W        W28959  39.363   7.012   4.054
55892W        W28960   0.694  31.126  11.040
55893W        W28961  22.094  21.818  10.713
55894W        W28962   6.002  35.643   1.528
55895W        W28963  31.916  32.042  13.821
55896W        W28964  30.113  30.524   1.399
55897W        W28965  22.699  30.068   3.675
55898W        W28966  39.474   3.384  10.236
55899W        W28967  35.540  13.002  12.533
55900W        W28968  42.703  33.952  10.630
55901W        W28969  38.326   8.629   2.228
55902W        W28970  28.668  37.211   3.677
55903W        W28971  10.582  39.369  13.808
55904W        W28972   1.690  35.216   1.817
55905W        W28973  40.600  16.148   0.076
55906W        W28974  33.166  42.777   3.397
55907W        W28975  38.657  35.668   0.142
55908W        W28976  40.770   1.068  12.479
55909W        W28977  15.934   0.806   4.066
55910W        W28978  21.160  34.996  14.330
55911W        W28979  43.527   9.188   0.874
55912W        W28980   7.888   1.724   3.667
55913W        W28981  39.804   3.290  10.637
55914W        W28982   2.701  43.966   3.396
55915W        W28983  14.061   4.996   1.875
55916W        W28984  21.120   4.500   4.511
55917W        W28985  15.827  22.713   4.586
55918W        W28986   6.150  43.355   2.754
55919W        W28987   7.176  14.617   3.393
55920W        W28988  32.946  32.218  13.346
55921W        W28989   4.710  16.247  12.100
55922W        W28990  42.104  24.234   4.405
55923W        W28991  15.817  23.610   0.392
55924W        W28992  23.802   5.811   3.531
55925W        W28993  14.783  22.102   3.557
55926W        W28994  36.446   8.682  12.390
55927W        W28995  31.631  41.931   1.060
55928W        W28996  25.345  40.117  13.118
55929W        W28997  17.244  26.560  14.758
55930W        W28998   1.500   7.373   1.374
55931W        W28999  16.688  16.273  14.955
55932W        W29000  15.655  43.884  10.690
55933W        W29001  20.009   9.425  13.547
55934W        W29002  39.965  14.499   0.477
55935W        W29003  19.471  18.701   3.210
55936W        W29004  25.112  22.626   1.905
55937W        W29005   3.840  24.092   3.733
55938W        W29006  19.231  29.854  11.887
55939W        W29007  40.812  13.365  13.916
55940W        W29008   4.788  10.597  14.450
55941W        W29009  25.766  41.732  14.333
55942W        W29010  31.648  21.880   1.300
55943W        W29011   6.581  41.642   5.631
55944W        W29012   1.946  27.202  13.755
55945W        W29013  34.967  19.768   3.218
55946W        W29014  28.696  15.232   3.705
55947W        W29015   3.345  36.332  12.338
55948W        W29016  35.510  22.751   0.024
55949W        W29017  42.726  43.791   2.705
55950W        W29018  42.515  40.076   1.742
55951W        W29019   3.547  23.549   0.338
55952W        W29020   1.187  34.967   2.185
55953W        W29021   1.840  11.300  10.686
55954W        W29022  15.845  27.334   3.619
55955W        W29023  22.130  10.412   2.353
55956W        W29024  14.744   3.180  14.856
55957W        W29025   4.419  27.085  14.980
55958W        W29026  23.763   2.432   2.877
55959W        W29027  41.401  17.237  12.949
55960W        W29028  38.238  11.909  14.319
55961W        W29029  14.218  22.162   4.329
55962W        W29030  40.478  43.329  12.447
55963W        W29031  30.060  42.900   3.350
55964W        W29032  15.903  31.197  11.004
55965W        W29033  32.384  44.324  13.664
55966W        W29034  44.116  25.743  14.290
55967W        W29035  24.742  33.602  12.881
55968W        W29036   2.953  41.385   4.934
55969W        W29037  26.440  30.474  14.309
55970W        W29038   1.815  34.109  13.291
55971W        W29039  18.509  35.062   2.811
55972W        W29040  10.552  23.222   0.738
55973W        W29041  17.130  23.137   3.565
55974W        W29042  17.476   3.414  12.839
55975W        W29043  20.217  22.660   4.567
55976W        W29044   1.475  27.143  10.798
55977W        W29045   3.725  35.429   4.738
55978W        W29046  14.282  27.874   3.664
55979W        W29047  28.746  44.213   1.506
55980W        W29048   8.430  11.446  12.662
55981W        W29049  28.442   6.941   3.807
55982W        W29050   8.998   7.150  14.346
55983W        W29051  21.353  23.409  14.784
55984W        W29052  22.180  29.462   2.302
55985W        W29053  38.087  44.671   3.766
55986W        W29054  15.542  20.165  10.642
55987W        W29055  32.017  34.498  13.459
55988W        W29056   0.410  30.554  14.701
55989W        W29057  19.662  28.870   1.278
55990W        W29058  43.897  31.925   1.368
55991W        W29059  29.883  18.656  14.356
55992W        W29060  22.690  38.967   1.334
55993W        W29061  15.623  13.300   0.057
55994W        W29062  32.456  27.159  12.907
55995W        W29063  37.324  29.672  11.941
55996W        W29064  22.684  35.553   3.212
55997W        W29065  27.870  13.642  10.662
55998W        W29066  10.414  33.145  12.618
55999W        W29067  19.136   1.980  10.737
56000W        W29068  33.448  33.589  13.006
56001W        W29069  34.854  10.932   0.792
56002W        W29070  27.052  22.842   1.613
56003W        W29071  11.921  33.884   0.492
56004W        W29072  22.722   9.461   0.476
56005W        W29073  23.291   5.750   3.591
56006W        W29074  14.851  22.652   3.565
56007W        W29075  14.716  29.100   2.666
56008W        W29076  17.812   9.875  12.055
56009W        W29077  38.540  30.643  14.914
56010W        W29078  44.278  17.237   0.946
56011W        W29079  14.713  31.996   1.248
56012W        W29080  31.053  21.544   0.411
56013W        W29081  16.546  28.704   1.126
56014W        W29082  39.308   8.630  10.167
56015W        W29083   2.884   9.327  13.546
56016W        W29084  27.513  17.634  14.373
56017W        W29085  24.686  40.322   4.074
56018W        W29086  16.443  44.886   3.644
56019W        W29087  10.584  35.071  14.935
56020W        W29088   5.635   6.172  11.535
56021W        W29089  10.903  37.900   3.321
56022W        W29090  44.283   7.467   3.283
56023W        W29091  44.056  27.450  14.054
56024W        W29092  40.101  43.763  13.415
56025W        W29093  14.718  15.586  11.657
56026W        W29094  31.928  24.009  13.659
56027W        W29095  26.069   2.914   4.063
56028W        W29096  25.025  17.129  14.988
56029W        W29097  27.242  36.559   0.285
56030W        W29098  10.973  43.898  11.676
56031W        W29099  17.723  24.611  14.788
56032W        W29100   8.253   4.148  11.181
56033W        W29101  21.228  19.967  11.536
56034W        W29102  21.719  41.938  12.967
56035W        W29103   9.601  14.734   0.773
56036W        W29104  40.946   7.692  10.238
56037W        W29105  15.779   8.905  13.896
56038W        W29106  28.168  11.154  13.905
56039W        W29107  14.888   0.529   3.194
56040W        W29108  35.038  29.243  10.292
56041W        W29109  40.488  40.828   0.616
56042W        W29110  30.148  28.286   3.820
56043W        W29111  44.728  40.064   4.634
56044W        W29112  12.442  30.698   1.812
56045W        W29113  20.320  16.725  13.359
56046W        W29114  43.930   0.342   2.600
56047W        W29115  43.950  36.594  14.489
56048W        W29116   7.657  43.220  12.033
56049W        W29117  39.416  32.122   4.144
56050W        W29118  12.821  14.675   1.345
56051W        W29119  21.011  28.155  12.855
56052W        W29120   5.506  34.931   3.054
56053W        W29121  31.995  15.026   1.303
56054W        W29122  19.396  23.160  13.817
56055W        W29123   3.028   5.367   2.307
56056W        W29124  17.331  28.973  10.035
56057W        W29125   3.853   5.702   1.260
56058W        W29126   5.767  35.434   4.591
56059W        W29127  29.860   8.843   3.873
56060W        W29128  32.340  25.709  12.344
56061W        W29129  36.044  43.758  12.367
56062W        W29130  11.364  16.044  13.587
56063W        W29131   4.735  29.135  11.374
56064W        W29132  26.144  24.666   3.847
56065W        W29133  14.319  42.488  12.948
56066W        W29134  14.016   8.253  11.262
56067W        W29135  18.860  11.120   2.026
56068W        W29136  25.708  35.084   4.575
56069W        W29137  35.484  36.296   0.410
56070W        W29138  14.752  42.300  14.289
56071W        W29139  31.373  33.668   4.526
56072W        W29140   8.877   9.201   2.306
56073W        W29141   9.934  19.326  10.664
56074W        W29142  10.637  31.051   1.960
56075W        W29143   7.350  43.993   4.081
56076W        W29144  26.685  14.615  11.000
56077W        W29145  31.724   4.444   0.419
56078W        W29146  16.081  16.650   2.220
56079W        W29147  14.373  11.370  11.241
56080W        W29148   4.565  22.761  14.288
56081W        W29149   8.487  23.090   2.197
56082W        W29150  11.886  21.954   0.712
56083W        W29151  16.058  40.381  14.766
56084W        W29152  26.528  33.606   3.623
56085W        W29153   4.098  21.497   2.366
56086W        W29154  36.635  21.237   2.283
56087W        W29155  44.639  26.681   2.219
56088W        W29156  28.169  33.871  10.227
56089W        W29157  27.037  32.676   3.389
56090W        W29158   7.650   9.288  12.627
56091W        W29159   8.679  31.923   1.893
56092W        W29160  21.675   0.902  13.099
56093W        W29161  19.979  32.434   0.871
56094W        W29162  16.915  21.999   3.287
56095W        W29163  44.987   2.333   4.642
56096W        W29164  13.885  15.566   3.559
56097W        W29165  40.273  44.868   2.420
56098W        W29166  36.809   3.936  11.752
56099W        W29167  31.600  23.121  12.909
56100W        W29168   3.957  34.943  11.572
56101W        W29169  37.608  17.163   0.011
56102W        W29170  33.032  19.834   0.293
56103W        W29171  33.886  34.480   0.565
56104W        W29172  20.739  38.023   0.309
56105W        W29173  19.557   4.409  11.663
56106W        W29174  12.625  18.542   0.795
56107W        W29175  13.840  15.626   1.265
56108W        W29176  23.121   0.475   2.359
56109W        W29177  13.051  25.653  13.315
56110W        W29178  11.228  26.955   2.269
56111W        W29179   1.950  28.253   1.784
56112W        W29180  15.927  30.647  11.012
56113W        W29181  10.393  42.739   3.350
56114W        W29182  40.821  10.734   0.038
56115W        W29183  33.327   8.736  10.584
56116W        W29184  33.865  25.005   3.099
56117W        W29185  34.796  19.289  14.828
56118W        W29186   7.878   1.478  14.349
56119W        W29187  29.242  12.276  12.409
56120W        W29188   5.130  23.892   1.449
56121W        W29189  28.580   9.769   4.875
56122W        W29190  25.658  35.596   2.139
56123W        W29191  40.501  23.241  11.381
56124W        W29192  42.503  24.599  11.654
56125W        W29193   9.113  18.111  12.926
56126W        W29194   9.276  29.057   4.615
56127W        W29195  14.294  15.897  11.512
56128W        W29196   4.459  11.346  12.977
56129W        W29197  19.790   4.976  14.029
56130W        W29198   5.379  22.536   4.099
56131W        W29199  26.522  44.853   3.592
56132W        W29200  44.730  21.234   1.338
56133W        W29201  32.571  11.683  10.599
56134W        W29202  16.978  34.989  14.461
56135W        W29203  37.268  17.120  10.720
56136W        W29204   3.926  10.045  10.160
56137W        W29205  15.298  23.614   2.590
56138W        W29206  28.485  27.987  12.950
56139W        W29207  34.984   2.689   4.643
56140W        W29208   1.825   7.454  12.822
56141W        W29209  20.582   0.341  13.533
56142W        W29210  43.830   3.253   4.146
56143W        W29211   4.764   0.814   2.377
56144W        W29212  13.629  39.004   0.415
56145W        W29213  12.699  15.559   4.244
56146W        W29214  10.563  29.545  11.534
56147W        W29215  35.056  34.535  12.982
56148W        W29216  23.723  30.864  14.770
56149W        W29217  10.912  12.701  13.114
56150W        W29218   6.472  13.912  13.535
56151W        W29219  35.682  43.041  13.075
56152W        W29220   8.869   9.673  13.357
56153W        W29221  36.798  32.460   2.650
56154W        W29222  27.137  16.294   1.004
56155W        W29223  21.166  11.468  13.711
56156W        W29224   5.655  25.244  13.051
56157W        W29225   6.167  17.687  12.666
56158W        W29226  18.484  12.227   1.376
56159W        W29227   6.742  41.602  11.492
56160W        W29228  31.629  15.345  10.458
56161W        W29229  34.533   9.648   2.352
56162W        W29230   9.662  28.597  10.661
56163W        W29231  14.633   1.358  14.498
56164W        W29232   4.427  17.186  14.954
56165W        W29233  23.065  44.350  11.939
56166W        W29234  29.697  29.898  14.360
56167W        W29235  16.270  26.888  13.045
56168W        W29236  20.026  23.966   2.331
56169W        W29237  14.948   2.744  11.571
56170W        W29238  37.388   0.561  12.299
56171W        W29239  41.218  16.773   4.706
56172W        W29240  20.752   7.136   1.729
56173W        W29241  26.223  20.755  13.795
56174W        W29242  42.914  23.457   4.314
56175W        W29243  34.828  36.452   2.114
56176W        W29244   2.153  25.409   3.547
56177W        W29245   1.710   3.696   2.351
56178W        W29246  30.630   5.277  13.310
56179W        W29247  30.693  44.098  12.525
56180W        W29248  39.261   9.043   9.846
56181W        W29249  36.399   0.814   0.925
56182W        W29250  12.732  11.161  14.988
56183W        W29251  27.494  38.067  12.404
56184W        W29252  44.297  22.201   1.478
56185W        W29253   8.809  12.311  14.751
56186W        W29254  38.361  21.178  12.917
56187W        W29255  17.449   6.344  12.478
56188W        W29256  31.004   8.355   0.051
56189W        W29257  14.203  38.558   4.536
56190W        W29258  38.590  20.780   1.298
56191W        W29259  23.160  38.388   3.091
56192W        W29260  19.016  31.154   4.114
56193W        W29261  19.058  40.938   0.485
56194W        W29262  38.040  13.072  11.705
56195W        W29263   5.415  29.442   4.638
56196W        W29264  20.719  39.923  13.727
56197W        W29265  17.366  44.795  13.949
56198W        W29266   8.553  35.196  13.441
56199W        W29267  29.963   1.757   1.809
56200W        W29268  22.293   1.332  14.902
56201W        W29269  17.208  30.463  10.632
56202W        W29270   9.848  31.933  11.935
56203W        W29271   8.197   2.852   1.528
56204W        W29272  44.945   8.145  13.752
56205W        W29273  30.461   5.951   4.562
56206W        W29274  13.250  23.239   2.923
56207W        W29275  30.522  32.899  14.316
56208W        W29276  25.507   0.606  13.458
56209W        W29277  19.601  14.731   1.972
56210W        W29278  23.191  27.713   4.484
56211W        W29279   9.931   2.555   5.027
56212W        W29280  34.074  18.904  12.332
56213W        W29281  36.385  30.998   2.642
56214W        W29282  32.198  24.999   2.818
56215W        W29283  11.683   8.449   0.720
56216W        W29284  41.711  21.690  13.889
56217W        W29285  17.712  14.030  13.919
56218W        W29286  40.794  42.467  14.800
56219W        W29287  10.182   1.438  13.931
56220W        W29288  14.886   0.179   0.393
56221W        W29289  30.086   0.400  12.062
56222W        W29290  32.151  20.649  12.573
56223W        W29291  16.152   3.058   0.717
56224W        W29292   4.299  25.846  11.610
56225W        W29293   1.154  40.863   3.737
56226W        W29294  13.449  20.473   1.948
56227W        W29295  24.780  44.889   3.745
56228W        W29296  34.093  31.689   2.784
56229W        W29297  22.558  12.475   0.916
56230W        W29298  26.687  31.030  11.455
56231W        W29299  29.583  23.270  12.929
56232W        W29300   6.144  10.380   2.224
56233W        W29301  16.099  39.335   4.129
56234W        W29302  20.710  27.597   1.891
56235W        W29303  35.914  21.995   4.166
56236W        W29304   5.393  38.506   4.123
56237W        W29305  14.816   8.188   0.485
56238W        W29306  18.261  10.162  14.865
56239W        W29307  39.890  36.053  13.172
56240W        W29308  27.102   6.168   0.052
56241W        W29309  16.554  28.078  11.573
56242W        W29310  36.784  16.694   3.682
56243W        W29311  20.444  33.092  11.446
56244W        W29312   2.432  41.821   0.290
56245W        W29313  30.049  42.994   1.904
56246W        W29314  23.639   6.608  13.026
56247W        W29315   5.675  40.577  13.901
56248W        W29316  26.181  32.132   3.798
56249W        W29317  37.926  26.743  12.767
56250W        W29318  38.203  12.237  13.524
56251W        W29319  40.380  36.988   1.281
56252W        W29320  18.609  32.844   4.515
56253W        W29321  33.155  11.856  13.774
56254W        W29322  32.315  13.593  12.012
56255W        W29323  19.163  43.594   5.569
56256W        W29324  10.823  36.985  14.103
56257W        W29325  30.711  10.320   0.939
56258W        W29326  14.731  27.240   0.236
56259W        W29327  31.502   1.277  13.996
56260W        W29328  11.072  31.423   0.898
56261W        W29329  26.855  43.975   4.089
56262W        W29330  10.167   2.666  11.553
56263W        W29331  10.696  43.293   1.721
56264W        W29332  28.007  30.618  11.557
56265W        W29333  37.194  17.389  14.328
56266W        W29334   9.880  43.389   1.362
56267W        W29335  28.066  33.443  13.453
56268W        W29336   5.861  35.422  10.696
56269W        W29337  11.156  27.660  11.921
56270W        W29338  27.975  22.165  14.317
56271W        W29339   8.373   8.654   0.277
56272W        W29340  17.147  27.079   1.598
56273W        W29341  23.045   2.293  12.923
56274W        W29342  21.365   8.310  13.812
56275W        W29343  25.061  25.594  13.003
56276W        W29344  31.394   1.203   3.791
56277W        W29345  33.342  15.192   4.163
56278W        W29346  15.965  15.607  13.944
56279W        W29347  24.251  37.368  11.533
56280W        W29348  35.570  21.853   3.810
56281W        W29349  24.584  23.776  12.928
56282W        W29350   1.277  10.216   3.664
56283W        W29351  11.661  16.349   5.618
56284W        W29352   3.460  32.371  14.420
56285W        W29353  22.661  29.579   2.470
56286W        W29354   4.019  37.385  12.658
56287W        W29355   9.279  14.610   2.679
56288W        W29356  42.417  18.988  14.856
56289W        W29357   1.202  15.337   1.848
56290W        W29358   7.367  19.750  13.916
56291W        W29359  28.579  18.052  14.676
56292W        W29360  14.377  19.168   2.375
56293W        W29361  23.793  41.921  13.024
56294W        W29362   1.885  14.259   4.413
56295W        W29363   3.752   0.046   0.339
56296W        W29364  17.694   1.983   2.168
56297W        W29365  24.656  22.024  13.550
56298W        W29366  24.955  29.580   2.796
56299W        W29367  43.490  10.633   3.143
56300W        W29368  24.145  36.007  13.931
56301W        W29369  13.814  44.518   2.811
56302W        W29370   9.090  10.422   4.639
56303W        W29371  18.101  39.556  12.890
56304W        W29372  43.394   9.940  12.473
56305W        W29373   9.149  21.059   1.640
56306W        W29374  20.289  38.925   0.303
56307W        W29375  17.312  25.478  12.464
56308W        W29376  25.569  22.984  13.361
56309W        W29377   3.514   0.223   3.137
56310W        W29378   8.197  25.918   3.900
56311W        W29379   0.601   3.898  11.171
56312W        W29380  28.567  29.022   2.154
56313W        W29381  34.826  34.954   1.820
56314W        W29382  10.847  31.517   4.763
56315W        W29383  41.026  22.583  11.665
56316W        W29384   5.291  31.465  12.623
56317W        W29385  37.475  11.876  11.555
56318W        W29386  24.159  18.470   3.226
56319W        W29387  36.654  35.926  11.929
56320W        W29388  34.012  26.981  12.396
56321W        W29389  29.649  25.038  10.712
56322W        W29390   2.489  12.398   4.501
56323W        W29391   0.539   2.940   3.656
56324W        W29392   9.363  19.100   1.900
56325W        W29393  15.248  35.997  13.280
56326W        W29394  29.925  16.825   2.228
56327W        W29395  23.024  32.916  12.062
56328W        W29396  26.483   2.236  14.355
56329W        W29397  28.538  34.009   1.292
56330W        W29398  35.907  21.442   4.662
56331W        W29399  37.124   8.769  12.861
56332W        W29400  27.426  36.590   4.172
56333W        W29401  44.130  41.377   4.255
56334W        W29402  33.402  29.565  13.529
56335W        W29403  27.569  26.960  11.125
56336W        W29404  11.288  14.991  10.955
56337W        W29405   5.788  43.516  12.861
56338W        W29406  21.762  26.018  11.212
56339W        W29407  22.462  35.922  14.779
56340W        W29408   9.815  31.630  11.187
56341W        W29409  10.280  23.250   4.170
56342W        W29410  10.557  11.851  11.672
56343W        W29411  32.464  30.394  14.767
56344W        W29412  32.841  29.417  12.124
56345W        W29413   9.354  20.310   1.049
56346W        W29414   2.000   9.775  11.468
56347W        W29415  19.690  18.225  14.800
56348W        W29416  33.584   2.831  13.394
56349W        W29417  29.904   5.047   2.345
56350W        W29418  28.023  22.333  11.940
56351W        W29419  39.442   0.225   1.928
56352W        W29420  15.789   2.496   3.379
56353W        W29421  37.581  39.580  13.810
56354W        W29422  41.380  44.792   3.796
56355W        W29423  26.162   8.933  11.682
56356W        W29424   9.932  30.866   0.431
56357W        W29425  15.411  34.118   0.236
56358W        W29426  17.472  26.909  14.335
56359W        W29427  39.241  14.529  12.605
56360W        W29428   1.666  14.886   2.187
56361W        W29429  23.583  40.465   0.367
56362W        W29430  43.410  18.308  10.545
56363W        W29431  33.496  42.559  13.830
56364W        W29432  29.087  25.679   1.948
56365W        W29433  37.700  26.418  11.022
56366W        W29434  18.234  35.199  13.476
56367W        W29435   1.847  18.075   3.176
56368W        W29436   3.903  13.738  12.422
56369W        W29437   3.427  17.294   3.267
56370W        W29438   5.250   8.946  11.656
56371W        W29439  36.322  40.181   2.367
56372W        W29440  16.527  25.059  14.387
56373W        W29441   1.662  11.341  14.239
56374W        W29442   0.589  13.371   0.338
56375W        W29443  30.808  39.106   0.880
56376W        W29444  20.491  37.088  12.161
56377W        W29445  42.810  37.386   0.852
56378W        W29446  37.304  30.729   2.545
56379W        W29447  14.058  34.137   3.734
56380W        W29448   8.309  17.191  13.462
56381W        W29449  30.092  18.176  14.346
56382W        W29450  22.670   3.332  11.146
56383W        W29451  39.482   3.322  11.570
56384W        W29452  22.455  28.642  14.805
56385W        W29453  11.249  43.745   3.263
56386W        W29454  24.742  26.705   1.143
56387W        W29455  16.225  36.294  11.434
56388W        W29456  21.707  32.390   2.416
56389W        W29457   4.334   8.456  10.690
56390W        W29458  16.242   3.397  11.348
56391W        W29459  32.148  36.855  11.595
56392W        W29460   2.830  44.219   0.332
56393W        W29461  23.575  12.824   4.583
56394W        W29462   7.859   4.399  13.490
56395W        W29463  36.075  30.097  14.866
56396W        W29464  23.029  30.516   2.282
56397W        W29465  43.494  42.068  14.987
56398W        W29466  35.371  41.745  11.502
56399W        W29467   8.672  11.879   1.870
56400W        W29468  19.716  40.904   0.934
56401W        W29469  13.667  40.877  14.988
56402W        W29470   2.218  40.296   0.880
56403W        W29471  16.977   4.378  14.765
56404W        W29472  35.035  39.952   2.828
56405W        W29473  10.384  22.693  14.318
56406W        W29474  37.229  23.083  13.328
56407W        W29475   1.797  42.521   1.471
56408W        W29476  37.842   8.157  14.828
56409W        W29477  19.999  11.362   0.728
56410W        W29478  30.057   9.843   3.001
56411W        W29479  10.144  10.715   2.783
56412W        W29480  30.449  38.257   3.740
56413W        W29481  12.780   1.024  14.534
56414W        W29482  17.809  40.349   4.402
56415W        W29483  34.860  11.724  10.582
56416W        W29484   2.804  43.936  11.950
56417W        W29485  31.186  10.499   1.869
56418W        W29486  30.546  17.064   3.927
56419W        W29487  11.661   2.769  13.086
56420W        W29488  32.309   0.810  11.739
56421W        W29489  24.113  34.359   4.886
56422W        W29490   9.120  36.070  13.511
56423W        W29491  15.197  35.781   4.773
56424W        W29492  17.801  39.331   1.879
56425W        W29493  24.717  39.847   3.339
56426W        W29494  35.231   9.582   1.909
56427W        W29495   6.177  38.997   0.260
56428W        W29496  41.566  28.504   3.303
56429W        W29497  25.677  30.154   1.743
56430W        W29498   2.339  18.103   0.960
56431W        W29499   0.469  43.473   4.883
56432W        W29500  16.102  37.828   1.896
56433W        W29501  42.799  21.751   0.922
56434W        W29502  18.162  11.725   3.623
56435W        W29503  18.769   0.456   4.588
56436W        W29504   0.272   5.006   2.154
56437W        W29505  44.676  19.057  13.960
56438W        W29506  33.470  23.780  11.519
56439W        W29507   4.608  29.987   1.467
56440W        W29508   0.315  27.421  14.845
56441W        W29509   8.427   9.321   3.636
56442W        W29510  30.938  16.875   0.827
56443W        W29511   3.665  43.909  11.970
56444W        W29512  41.060  28.179  12.766
56445W        W29513  36.954  13.767   4.645
56446W        W29514  28.100  23.244   3.190
56447W        W29515   9.290  15.043   4.299
56448W        W29516  23.713   6.241   3.250
56449W        W29517   9.644  33.189  14.425
56450W        W29518  31.418  35.809   3.889
56451W        W29519  35.756  19.609   3.631
56452W        W29520  31.319  39.234   4.186
56453W        W29521  12.109  36.791   0.929
56454W        W29522   1.708  22.469   2.480
56455W        W29523  24.448  38.883   1.829
56456W        W29524  22.160  44.476  10.151
56457W        W29525  33.928  36.013   2.136
56458W        W29526  14.580  17.570  10.684
56459W        W29527   0.966  23.313  13.045
56460W        W29528  15.582   8.903  14.802
56461W        W29529  13.846   3.014   1.304
56462W        W29530   0.725  33.450  10.351
56463W        W29531   4.371  22.744   3.996
56464W        W29532  22.406  15.544   0.436
56465W        W29533  30.851   0.850   1.268
56466W        W29534   7.353  36.938   2.216
56467W        W29535  26.799  39.888  13.370
56468W        W29536   0.584   7.629  13.366
56469W        W29537  13.245   5.685  13.481
56470W        W29538  13.254   8.324  13.046
56471W        W29539  20.088  39.017   2.509
56472W        W29540  41.954  13.286  14.217
56473W        W29541  28.385  33.920  10.690
56474W        W29542  29.422  10.245   4.583
56475W        W29543  34.901  28.940   3.836
56476W        W29544  11.478  13.749   4.704
56477W        W29545  42.342  17.949   0.078
56478W        W29546  13.361  15.598   4.483
56479W        W29547  28.399   8.067  10.808
56480W        W29548  32.100  11.695   1.399
56481W        W29549  28.948  25.181   1.970
56482W        W29550  10.660  29.139   0.972
56483W        W29551  16.519  10.232   0.443
56484W        W29552  17.015  21.288   3.706
56485W        W29553   4.160   1.069  11.628
56486W        W29554  27.373  15.823   0.874
56487W        W29555  36.439  14.074   1.492
56488W        W29556  38.511   7.768   0.438
56489W        W29557  13.312   4.031   0.897
56490W        W29558  14.516  19.107   2.903
56491W        W29559   6.730  37.921  13.094
56492W        W29560  20.268  13.553   4.155
56493W        W29561  23.194  20.307   4.550
56494W        W29562  23.695  16.825   2.199
56495W        W29563   2.253   0.027  14.349
56496W        W29564  22.544  13.959   3.390
56497W        W29565   1.667  33.446  14.305
56498W        W29566  33.917  19.322   2.422
56499W        W29567  19.373  32.111   3.176
56500W        W29568   9.931   9.114   2.470
56501W        W29569  11.686  33.510  13.077
56502W        W29570  44.016  16.059  11.639
56503W        W29571  34.054  42.961  11.149
56504W        W29572  24.227  34.987  12.171
56505W        W29573  12.565  27.139  11.557
56506W        W29574   7.893  43.337   4.665
56507W        W29575  20.115  22.268  10.595
56508W        W29576  23.646  39.203  12.059
56509W        W29577  16.533   6.248  12.538
56510W        W29578  34.829  17.171   5.247
56511W        W29579  16.293   0.845   2.268
56512W        W29580  35.932   1.757  13.459
56513W        W29581  40.900  11.586  13.393
56514W        W29582  31.973  24.140   5.387
56515W        W29583  38.974  33.707   2.777
56516W        W29584  32.345   8.845  12.483
56517W        W29585  18.052  29.868   2.668
56518W        W29586  41.895  31.223   1.096
56519W        W29587   5.458  37.449  13.254
56520W        W29588   8.794  29.194  10.566
56521W        W29589  38.955  12.065   2.266
56522W        W29590  30.632  23.863   4.867
56523W        W29591   7.319  24.546  13.907
56524W        W29592   3.853   9.379  11.435
56525W        W29593  35.107   8.409   0.812
56526W        W29594  27.416  16.593  14.394
56527W        W29595  39.053  21.055   0.448
56528W        W29596  24.593  42.602  14.399
56529W        W29597   4.711  24.742  12.382
56530W        W29598  25.697  35.458   1.190
56531W        W29599  12.907   2.653  11.701
56532W        W29600  31.054  17.492  12.300
56533W        W29601  38.481  35.301   2.912
56534W        W29602  36.478  33.013   0.775
56535W        W29603  30.586  44.820  10.430
56536W        W29604  40.111  10.883   4.585
56537W        W29605  28.315  11.881   2.449
56538W        W29606  42.419  23.029   4.346
56539W        W29607  12.257  35.191   0.548
56540W        W29608  22.500  11.259  12.527
56541W        W29609  43.845  26.163   1.429
56542W        W29610  39.585   0.810  11.947
56543W        W29611  44.355  32.474   1.690
56544W        W29612   1.317  39.775   1.752
56545W        W29613  43.476   9.115  11.170
56546W        W29614  19.739  18.804  10.574
56547W        W29615  25.004   8.383   4.192
56548W        W29616  16.226  15.668  14.405
56549W        W29617  30.171  24.260  10.761
56550W        W29618   4.123  15.267  13.006
56551W        W29619  32.307   5.360   2.633
56552W        W29620  26.955  27.223   0.890
56553W        W29621  19.121  19.801  14.499
56554W        W29622  22.264  29.117  13.083
56555W        W29623  44.378   8.735   4.568
56556W        W29624   0.449  24.618   2.255
56557W        W29625  22.119   0.213  13.008
56558W        W29626  39.332   5.870  10.679
56559W        W29627  15.157  10.741  13.053
56560W        W29628   3.427  22.781  14.116
56561W        W29629  18.322  34.380   3.859
56562W        W29630   2.741   4.295  13.924
56563W        W29631  35.014  27.010   4.719
56564W        W29632  21.190  32.361   1.853
56565W        W29633  24.134  42.187   0.112
56566W        W29634  37.593  40.120  14.562
56567W        W29635   7.399   7.051  12.112
56568W        W29636  15.120  32.121   5.126
56569W        W29637  22.465   8.173   2.771
56570W        W29638  36.035   4.900  11.143
56571W        W29639  24.364  37.859  11.009
56572W        W29640  41.592  29.208  13.977
56573W        W29641   4.755  14.241   3.132
56574W        W29642   9.944  10.740   1.371
56575W        W29643   4.183   1.704   4.534
56576W        W29644  15.327  40.526  12.116
56577W        W29645  38.769  23.001   3.317
56578W        W29646  19.004  34.884   2.869
56579W        W29647  10.364  12.244   2.395
56580W        W29648  16.893  24.131   4.119
56581W        W29649  21.093  27.733   3.633
56582W        W29650  26.966  22.070   2.109
56583W        W29651  17.723  29.610   0.188
56584W        W29652  17.869   4.264   0.822
56585W        W29653  31.500  32.863  11.491
56586W        W29654  35.065  44.593   2.842
56587W        W29655  42.997  42.342   1.016
56588W        W29656   7.922  23.551   1.628
56589W        W29657   7.951   7.807   3.653
56590W        W29658  36.961   7.459  14.012
56591W        W29659  25.709   1.971   4.234
56592W        W29660   1.428  44.408   2.826
56593W        W29661  42.384  26.448  14.578
56594W        W29662  17.566   7.403   4.455
56595W        W29663  42.819  17.616   3.178
56596W        W29664  21.245  13.371   1.703
56597W        W29665  16.711  36.399   4.558
56598W        W29666  43.929   2.535   1.875
56599W        W29667  39.720   5.398   3.759
56600W        W29668  33.049   1.773  14.804
56601W        W29669  19.880  37.920  11.043
56602W        W29670  33.365  42.263  12.002
56603W        W29671  14.379  27.528   2.909
56604W        W29672  10.259  39.036   4.092
56605W        W29673  25.569  38.120  12.033
56606W        W29674  44.577  20.820  10.246
56607W        W29675   9.654  13.272  11.997
56608W        W29676  31.777   8.340  11.499
56609W        W29677  12.947  20.620  11.618
56610W        W29678  16.798  30.496  11.571
56611W        W29679   1.823   0.598  13.603
56612W        W29680  15.558  21.249  12.044
56613W        W29681  42.972  19.492  12.550
56614W        W29682  15.090  39.819   4.179
56615W        W29683  17.271  39.312  11.373
56616W        W29684  17.376   2.664  14.878
56617W        W29685  29.698  10.196   4.165
56618W        W29686  19.005  21.592   0.372
56619W        W29687  40.888  24.594   4.848
56620W        W29688   2.914  34.174  10.934
56621W        W29689  33.603  32.481  12.090
56622W        W29690  31.832  33.168  11.198
56623W        W29691   4.927  39.284   2.866
56624W        W29692  16.247  40.392   3.131
56625W        W29693  16.624   5.927  10.882
56626W        W29694   6.421   2.430  13.847
56627W        W29695  41.286  44.242   1.767
56628W        W29696   7.284  20.013   0.090
56629W        W29697  42.963  41.906   1.311
56630W        W29698  15.835  37.077  14.766
56631W        W29699  21.934  42.955  11.361
56632W        W29700  14.213  23.510   1.411
56633W        W29701  14.263  38.616  14.799
56634W        W29702  19.979  12.878   2.365
56635W        W29703   9.300  29.067  11.632
56636W        W29704   3.216  44.256   0.691
56637W        W29705  41.331  39.142   0.365
56638W        W29706  13.738  33.874   0.191
56639W        W29707  39.059  36.951  10.695
56640W        W29708  22.250  42.917   4.490
56641W        W29709  16.179  31.498  14.573
56642W        W29710  23.692  22.202  11.192
56643W        W29711  42.459  26.787   1.379
56644W        W29712  21.089   5.746  12.920
56645W        W29713   6.237   3.249   1.798
56646W        W29714  34.421  23.615   1.201
56647W        W29715  25.660  11.830  11.018
56648W        W29716   6.021   4.031  12.096
56649W        W29717  26.781  10.264   3.285
56650W        W29718  25.615  40.243  14.746
56651W        W29719  26.827   7.299   3.703
56652W        W29720   4.412  33.724  13.071
56653W        W29721  10.787  27.161  13.447
56654W        W29722  18.381  31.786   4.123
56655W        W29723  36.529   9.270  10.653
56656W        W29724  10.392  15.649   0.385
56657W        W29725   0.368  13.203   4.052
56658W        W29726  38.051   2.363  12.502
56659W        W29727   7.950  44.278  11.604
56660W        W29728   9.486  28.575   4.631
56661W        W29729  26.595   0.856   4.584
56662W        W29730  12.392  26.429  13.420
56663W        W29731  11.271   5.389   3.489
56664W        W29732  18.443   2.433  14.423
56665W        W29733  18.300  20.054   0.076
56666W        W29734  43.659   0.512   0.717
56667W        W29735  25.552   1.063  14.917
56668W        W29736  41.564   9.444   0.590
56669W        W29737  29.618  38.353  11.153
56670W        W29738  13.150  13.073  10.592
56671W        W29739  33.622  37.194   3.926
56672W        W29740  29.908  20.741   1.853
56673W        W29741  36.588  31.496   9.793
56674W        W29742  12.264  11.842   2.739
56675W        W29743  39.373   1.157  10.645
56676W        W29744   1.499  27.487   3.363
56677W        W29745   0.267  27.919   4.131
56678W        W29746  39.903  16.764  11.905
56679W        W29747  28.126  40.533   4.936
56680W        W29748  34.930  18.148   2.346
56681W        W29749  39.407   3.690  10.679
56682W        W29750  33.488  40.331  10.465
56683W        W29751  16.160  35.011   3.230
56684W        W29752   0.902  37.577  14.976
56685W        W29753  11.859  40.979   2.203
56686W        W29754  30.325  21.024  13.687
56687W        W29755   9.196  36.452  10.878
56688W        W29756  38.492  14.286  13.048
56689W        W29757  19.337   6.291  11.792
56690W        W29758  10.113  29.525  10.674
56691W        W29759   9.364   2.998  13.494
56692W        W29760   0.941  38.298  10.764
56693W        W29761  42.599   0.387  11.413
56694W        W29762   3.402  35.859  10.658
56695W        W29763  16.572   9.232  11.608
56696W        W29764  31.145  21.050  10.674
56697W        W29765  35.701  15.215   0.570
56698W        W29766  38.808  17.107  12.909
56699W        W29767  40.249   6.781   1.051
56700W        W29768  20.585  37.646   2.729
56701W        W29769  29.212  10.161  14.345
56702W        W29770  37.913  10.823  14.260
56703W        W29771   8.749  28.409   0.532
56704W        W29772  12.251   3.045   0.469
56705W        W29773  22.228  17.297   2.973
56706W        W29774   0.441  13.278   2.216
56707W        W29775   7.349  24.702  12.897
56708W        W29776  29.070  40.013  13.313
56709W        W29777  10.780  24.759  12.865
56710W        W29778  18.579  10.281  12.531
56711W        W29779  29.008  42.642  12.049
56712W        W29780  20.717  12.561   2.761
56713W        W29781  37.470  23.644  13.743
56714W        W29782  20.275  17.800   3.162
56715W        W29783  21.526  41.254  13.852
56716W        W29784  26.107  31.025  11.512
56717W        W29785  26.239  10.042   3.667
56718W        W29786  24.940  22.260  14.920
56719W        W29787   0.443  31.810   1.718
56720W        W29788  39.464   6.937   0.810
56721W        W29789  38.971  31.628  14.499
56722W        W29790  27.685  38.801  11.145
56723W        W29791  44.476  27.166   2.412
56724W        W29792  25.523  33.512   3.655
56725W        W29793  37.469  13.742   1.488
56726W        W29794  32.426  44.415   0.668
56727W        W29795  26.297   4.446  12.367
56728W        W29796   2.142  31.510   2.877
56729W        W29797  12.144  12.267  13.831
56730W        W29798  13.682  37.399  10.223
56731W        W29799  25.574  25.804  11.009
56732W        W29800  12.204   3.388   5.061
56733W        W29801  14.343  18.690  13.463
56734W        W29802  31.161   3.667   4.581
56735W        W29803  33.046  21.006  12.937
56736W        W29804  16.100   6.688   0.483
56737W        W29805   1.594  23.201   4.271
56738W        W29806  12.270  38.064   2.779
56739W        W29807  32.518  31.950  13.283
56740W        W29808  27.014  36.360  12.021
56741W        W29809  43.480  28.359  11.562
56742W        W29810  20.458  13.244  13.593
56743W        W29811   4.237   2.768   1.201
56744W        W29812  44.836  29.071  12.341
56745W        W29813  35.143   2.574   2.802
56746W        W29814  21.034  32.108  11.197
56747W        W29815   2.792  28.743   1.938
56748W        W29816   9.569  18.571   9.686
56749W        W29817  33.972   7.429   3.665
56750W        W29818  29.410   4.948  13.337
56751W        W29819  43.894  19.612   2.392
56752W        W29820  35.607   6.776   0.038
56753W        W29821  22.707  32.040   0.308
56754W        W29822  12.881  16.593   0.969
56755W        W29823  10.289   2.545  14.734
56756W        W29824  15.196  20.889  11.956
56757W        W29825  15.080  22.607   4.817
56758W        W29826   1.756   7.987   4.530
56759W        W29827  15.078  39.777   1.758
56760W        W29828  39.014   8.456   4.222
56761W        W29829  18.030  36.050   3.332
56762W        W29830  22.091  17.167  13.853
56763W        W29831  25.467  40.069  11.619
56764W        W29832  17.578  11.714   4.796
56765W        W29833  31.813  23.709   9.948
56766W        W29834   1.932   3.480   1.386
56767W        W29835  40.894  29.165   1.425
56768W        W29836   3.194  15.784   4.580
56769W        W29837  27.493  31.992  11.480
56770W        W29838  20.992  29.039   3.335
56771W        W29839   6.878  18.862   4.786
56772W        W29840   9.639   9.769   0.415
56773W        W29841  11.138  32.017   4.040
56774W        W29842   3.321  33.013  13.529
56775W        W29843  41.791  39.225  13.208
56776W        W29844   6.215  23.409  10.183
56777W        W29845   6.679   6.398  12.239
56778W        W29846  40.704  32.126  12.621
56779W        W29847  21.523   3.206  11.271
56780W        W29848  27.124  44.808   4.844
56781W        W29849  15.989  30.970   2.724
56782W        W29850  37.948  35.823   1.944
56783W        W29851  41.874  22.204   4.083
56784W        W29852  37.874  22.813  11.107
56785W        W29853  27.443  24.103   0.374
56786W        W29854   2.376  43.190   2.704
56787W        W29855  36.391  29.952   3.173
56788W        W29856  30.079  10.784  11.868
56789W        W29857  27.862   1.537  12.435
56790W        W29858  20.616  44.979  13.108
56791W        W29859  36.932   0.931   1.784
56792W        W29860  24.639  27.587   2.633
56793W        W29861  21.085  20.700  11.992
56794W        W29862  17.156  17.642  14.774
56795W        W29863  26.475  14.571   2.837
56796W        W29864  21.521  19.334   4.232
56797W        W29865  11.136  43.230  11.150
56798W        W29866  20.911   4.410  11.151
56799W        W29867  33.854   9.928  13.073
56800W        W29868  10.262  20.417  11.040
56801W        W29869  42.512  14.501   0.434
56802W        W29870  42.495  43.482   3.678
56803W        W29871  12.178  11.165   3.695
56804W        W29872  16.208  32.904  14.099
56805W        W29873   4.376  28.122  11.270
56806W        W29874  12.731  34.594   4.647
56807W        W29875  22.042   7.401  12.578
56808W        W29876  31.079  28.606  14.503
56809W        W29877  20.454  18.791  11.554
56810W        W29878  10.779  12.704   1.702
56811W        W29879  26.557  43.459  12.407
56812W        W29880  17.635  13.380   2.820
56813W        W29881  34.263   6.238   3.236
56814W        W29882  39.753  40.094  11.104
56815W        W29883  21.198  29.241  11.661
56816W        W29884  41.712  44.460  10.984
56817W        W29885  42.218   6.818   3.187
56818W        W29886  29.510  22.686   0.894
56819W        W29887  16.184  41.811   3.362
56820W        W29888   7.128  17.119   2.827
56821W        W29889  31.065  27.402  12.008
56822W        W29890  30.581  37.707   2.134
56823W        W29891  32.130  34.604  11.546
56824W        W29892  21.391  30.309   0.674
56825W        W29893   2.786   2.436   2.707
56826W        W29894  17.113  38.555   0.332
56827W        W29895  14.689  26.508  11.926
56828W        W29896  12.379   0.032   0.722
56829W        W29897   6.198   6.717   3.765
56830W        W29898  30.496  19.459  13.338
56831W        W29899  23.222   8.789   0.850
56832W        W29900   0.296  32.399  10.643
56833W        W29901  39.492  13.920   4.646
56834W        W29902  28.615  23.169   0.318
56835W        W29903  34.924  10.116   0.368
56836W        W29904  16.855  36.046   2.772
56837W        W29905  18.783  10.267  13.421
56838W        W29906  29.636   9.172  12.149
56839W        W29907   5.968  40.613   1.267
56840W        W29908   1.489   0.359   2.676
56841W        W29909  25.029  24.215   0.270
56842W        W29910  15.005  24.438  14.734
56843W        W29911  31.601  25.769  13.939
56844W        W29912  30.342  31.971  11.180
56845W        W29913   0.714  14.415   1.139
56846W        W29914  41.096  37.415   2.877
56847W        W29915  30.081   8.419   3.611
56848W        W29916  26.579  14.353   1.962
56849W        W29917  13.246  39.944   1.662
56850W        W29918  41.260   4.494   0.315
56851W        W29919  20.197   6.574  14.456
56852W        W29920  12.310  34.108  12.756
56853W        W29921  32.499  12.884   3.131
56854W        W29922   4.248  42.824   4.847
56855W        W29923  33.517  23.668  13.866
56856W        W29924  28.797   7.273   2.802
56857W        W29925   4.856  38.109   1.592
56858W        W29926  39.386  19.792   3.124
56859W        W29927  24.626   2.779   1.377
56860W        W29928  29.637  17.171   3.025
56861W        W29929  27.659  30.655   1.305
56862W        W29930  14.902  17.248  14.382
56863W        W29931  12.678  29.579   4.168
56864W        W29932  41.848  36.186  13.430
56865W        W29933  40.747  19.853   0.828
56866W        W29934   0.658  41.650   1.472
56867W        W29935  43.027  38.407  10.436
56868W        W29936  41.273  23.148   3.574
56869W        W29937  31.532  29.957   0.521
56870W        W29938  34.002   4.491  11.869
56871W        W29939  26.140   8.419  11.777
56872W        W29940  32.943   0.361   2.755
56873W        W29941   4.054  36.232  13.322
56874W        W29942   0.826  42.088  13.931
56875W        W29943   2.891  10.314   0.516
56876W        W29944   5.941  14.191   3.454
56877W        W29945  29.733   1.617  13.248
56878W        W29946  20.243   4.445  11.959
56879W        W29947  24.121  28.583  12.662
56880W        W29948  40.022   5.440  10.427
56881W        W29949  39.332  39.080   1.719
56882W        W29950   8.771  40.417  13.779
56883W        W29951  27.619  29.106  12.906
56884W        W29952  21.222  19.776   4.398
56885W        W29953  26.522   4.689  12.734
56886W        W29954   3.331  38.342   2.980
56887W        W29955  23.133  29.654   4.297
56888W        W29956  27.161  19.080  13.995
56889W        W29957  30.084  40.944  13.416
56890W        W29958  15.221  36.145  12.505
56891W        W29959  37.714   1.991  10.063
56892W        W29960   3.316  17.228   1.692
56893W        W29961  16.529   4.775  12.458
56894W        W29962   7.143  20.276   2.191
56895W        W29963  22.486  31.484  12.934
56896W        W29964  22.197  21.568   3.560
56897W        W29965  36.988  28.058  14.556
56898W        W29966  11.717  27.695   2.335
56899W        W29967  41.926   6.184   1.955
56900W        W29968  33.635   7.376  12.540
56901W        W29969  27.037   5.742  12.394
56902W        W29970  31.076   0.654   0.332
56903W        W29971  16.027  39.258   1.147
56904W        W29972  30.636  13.107  12.568
56905W        W29973  32.584  40.345  10.616
56906W        W29974  25.488  38.799  14.749
56907W        W29975  19.460  12.872  12.082
56908W        W29976   9.235  33.535   3.235
56909W        W29977   2.222  32.118   5.023
56910W        W29978  15.568  13.175  10.789
56911W        W29979  33.942  30.945   3.414
56912W        W29980  22.618   4.963   4.578
56913W        W29981  23.692  30.198  11.622
56914W        W29982  25.909  30.256   3.225
56915W        W29983  32.287  14.613   3.470
56916W        W29984  16.101   8.387  11.898
56917W        W29985  12.668   5.677  12.822
56918W        W29986  32.990  38.075  14.825
56919W        W29987   1.956  19.619  12.340
56920W        W29988   8.910  11.769  14.570
56921W        W29989  19.201   2.197  13.995
56922W        W29990  14.398  19.057  14.031
56923W        W29991  17.302  30.277   4.051
56924W        W29992   3.734  36.862   0.428
56925W        W29993  30.192  18.541  11.144
56926W        W29994  34.866  24.309   1.413
56927W        W29995   7.839  18.607  10.838
56928W        W29996  16.052   8.454   1.897
56929W        W29997  44.422  14.842   3.273
56930W        W29998  10.377  31.835  11.977
56931W        W29999  21.602  32.092   1.134
56932W        W30000  36.673  44.116  11.138
56933W        W30001  19.735  31.894  11.336
56934W        W30002  25.017  44.241   4.239
56935W        W30003  25.032  11.358   3.287
56936W        W30004   9.850  31.929   3.643
56937W        W30005  30.702  39.445  13.124
56938W        W30006  32.920   9.192   4.520
56939W        W30007  15.233  27.875  10.721
56940W        W30008   4.403  40.922   4.176
56941W        W30009   4.297  30.244   0.510
56942W        W30010   8.197  35.910  11.490
56943W        W30011  15.701  12.884  13.564
56944W        W30012  10.926  19.154   3.440
56945W        W30013   0.018  37.915  12.616
56946W        W30014  25.974   7.241  14.771
56947W        W30015  31.956   9.693   4.423
56948W        W30016  36.666  30.413  12.877
56949W        W30017   9.655  34.304   2.450
56950W        W30018  10.131  42.915  14.195
56951W        W30019  39.424  26.027   2.063
56952W        W30020  41.639  40.307   2.789
56953W        W30021  32.172  41.980   4.417
56954W        W30022   9.353  29.770  12.590
56955W        W30023   6.667  21.209  11.585
56956W        W30024  30.139  23.009   0.252
56957W        W30025  16.124  31.644   0.561
56958W        W30026   5.203  21.301   4.572
56959W        W30027   5.524   8.625  12.479
56960W        W30028  30.725   6.259  14.859
56961W        W30029  31.144  29.620  13.422
56962W        W30030  40.204  30.811   3.178
56963W        W30031  38.467  12.618   0.297
56964W        W30032  43.242   9.829   4.813
56965W        W30033  35.347  26.697   1.370
56966W        W30034  16.054   5.189   1.576
56967W        W30035  39.888  19.108   3.533
56968W        W30036  42.987  41.528  12.288
56969W        W30037  44.394   2.746  11.052
56970W        W30038  39.900  38.854  12.560
56971W        W30039  14.563  20.838   0.387
56972W        W30040  36.422  19.426  12.438
56973W        W30041   2.777  37.486  12.856
56974W        W30042  38.259  42.011   2.504
56975W        W30043   3.567  19.177  13.413
56976W        W30044  40.577  34.671  14.961
56977W        W30045  18.985   7.855  14.795
56978W        W30046  23.652  12.258  13.419
56979W        W30047   7.445  27.210   0.897
56980W        W30048   2.039  15.404  11.911
56981W        W30049  36.323   8.584  14.465
56982W        W30050   1.787   6.701  11.611
56983W        W30051  21.786  26.516  14.350
56984W        W30052  37.704  38.970   0.388
56985W        W30053  14.783  19.960  13.961
56986W        W30054  22.779  16.755   0.339
56987W        W30055   7.396  18.797  11.030
56988W        W30056   4.700  27.179  11.605
56989W        W30057  30.920  31.501   0.954
56990W        W30058   6.291  16.507  13.448
56991W        W30059   6.749  30.396  14.313
56992W        W30060   1.108  28.724   1.513
56993W        W30061  17.775   7.962   4.524
56994W        W30062  39.130  10.236   2.726
56995W        W30063  41.879  29.944  14.487
56996W        W30064  25.497  10.160  12.507
56997W        W30065   3.830  32.734   3.648
56998W        W30066  27.091  13.292   0.000
56999W        W30067  22.204  20.755   0.886
57000W        W30068   2.538  39.324  10.897
57001W        W30069   8.539  31.995   2.907
57002W        W30070  22.292  34.082   3.719
57003W        W30071  10.212  21.320  13.096
57004W        W30072  35.569  11.893   3.878
57005W        W30073   2.510   1.944   2.756
57006W        W30074  44.096   2.852  12.081
57007W        W30075  15.705  32.421   1.249
57008W        W30076   2.852  13.346  14.975
57009W        W30077  32.573  12.774   4.595
57010W        W30078  36.743  37.713   3.667
57011W        W30079  34.951   0.326   4.610
57012W        W30080  31.196  29.985   4.406
57013W        W30081   7.619  37.476  14.351
57014W        W30082  28.405  14.578  10.591
57015W        W30083   0.458  20.707   1.133
57016W        W30084  31.931  15.830   3.260
57017W        W30085  31.038  23.021  13.395
57018W        W30086  26.014  21.140  12.865
57019W        W30087   8.800   7.647  13.446
57020W        W30088   2.223   4.316   3.217
57021W        W30089  36.029   7.954   1.798
57022W        W30090  17.770  35.173   4.182
57023W        W30091  25.131   7.149  14.503
57024W        W30092  11.255  16.325   2.741
57025W        W30093  26.019   1.653  14.195
57026W        W30094  13.520   3.453  12.218
57027W        W30095  16.906  22.765  12.328
57028W        W30096  17.118  40.752  11.396
57029W        W30097   7.894  23.161  11.449
57030W        W30098  27.618   5.637   3.196
57031W        W30099  33.643  35.266   3.191
57032W        W30100  11.671  38.600   3.199
57033W        W30101  22.761  20.555   1.145
57034W        W30102  22.176  12.127   0.832
57035W        W30103  34.001   0.947   2.935
57036W        W30104  31.928  22.620  13.915
57037W        W30105   2.510  15.659   3.619
57038W        W30106  12.368  40.168   2.860
57039W        W30107  24.933  11.904   2.563
57040W        W30108  32.797  25.071  13.944
57041W        W30109  30.472   0.825   4.675
57042W        W30110  21.525  18.771  12.003
57043W        W30111  21.764  41.759   3.195
57044W        W30112  10.210  13.745  11.392
57045W        W30113   5.735   8.525  10.149
57046W        W30114  13.423  14.878   0.210
57047W        W30115  19.998  11.644  12.364
57048W        W30116  28.093  24.973   1.280
57049W        W30117   7.646  36.484  12.424
57050W        W30118  23.557  36.085   1.695
57051W        W30119  11.406  39.585  14.297
57052W        W30120   9.327  13.852  13.815
57053W        W30121  16.980  35.966  12.901
57054W        W30122  15.163  13.178  12.559
57055W        W30123  32.179  42.559  10.536
57056W        W30124  15.102  32.404   4.207
57057W        W30125  11.094  37.443   1.834
57058W        W30126  10.142  44.760   1.450
57059W        W30127  31.456  40.363  12.602
57060W        W30128  17.765  16.325   3.135
57061W        W30129  12.951   1.312   1.253
57062W        W30130  19.712  44.208  13.863
57063W        W30131   6.480  38.450   3.349
57064W        W30132  36.336  24.130   3.528
57065W        W30133  24.834  38.060  13.562
57066W        W30134   3.414  37.909   4.862
57067W        W30135  40.021  40.964  11.521
57068W        W30136  33.580  12.069   4.505
57069W        W30137  12.784   9.605   1.928
57070W        W30138  28.897  39.524   1.851
57071W        W30139  12.472   1.786  11.765
57072W        W30140  16.669   8.401   3.174
57073W        W30141  37.294  40.617   2.363
57074W        W30142  31.033  44.482  12.502
57075W        W30143  17.204  31.451  10.734
57076W        W30144   1.433  33.911  11.476
57077W        W30145  13.543  37.953   1.211
57078W        W30146   5.157   3.862  13.087
57079W        W30147  22.253  28.025   2.407
57080W        W30148  27.154   6.056   4.066
57081W        W30149  22.183   8.941  12.613
57082W        W30150  33.557  38.525  11.059
57083W        W30151  18.257  24.417  14.392
57084W        W30152  41.912   9.844   4.843
57085W        W30153   6.235   5.913  11.446
57086W        W30154   0.694   7.840   1.638
57087W        W30155  37.687  29.692  12.387
57088W        W30156  36.657   5.701  11.399
57089W        W30157  19.269  24.625   1.913
57090W        W30158  35.938  33.891  11.134
57091W        W30159  15.119  34.436   4.543
57092W        W30160  38.974  10.636  12.788
57093W        W30161  38.505  44.345  11.353
57094W        W30162  30.031  36.102   3.386
57095W        W30163  30.170  39.347  14.911
57096W        W30164  21.522  35.676   3.307
57097W        W30165  17.133   0.586   0.849
57098W        W30166   8.265   3.290  11.396
57099W        W30167   7.890  12.337   0.527
57100W        W30168  13.583  27.535  12.003
57101W        W30169   6.166  11.838  14.854
57102W        W30170  35.140  21.501   0.251
57103W        W30171   8.281   0.592  14.682
57104W        W30172  10.915   1.955  13.941
57105W        W30173   7.998  34.331  13.006
57106W        W30174   7.669  39.755   5.419
57107W        W30175  15.209  30.163   3.676
57108W        W30176  25.546  23.593  11.669
57109W        W30177  10.323   8.974  10.283
57110W        W30178  15.596  19.094  11.510
57111W        W30179  12.127  26.026  10.537
57112W        W30180  14.353  21.689   3.627
57113W        W30181   0.950  11.677   0.002
57114W        W30182   9.292  30.613   1.295
57115W        W30183  28.187  13.331   2.185
57116W        W30184  17.354   0.016  11.097
57117W        W30185  35.325  24.494  13.287
57118W        W30186  39.911  14.216  12.405
57119W        W30187  43.061   6.211   0.569
57120W        W30188  20.606  11.139   0.663
57121W        W30189  17.195   4.065   0.176
57122W        W30190  13.102   1.936  14.374
57123W        W30191  39.448  30.330  14.344
57124W        W30192  10.927  13.347   1.833
57125W        W30193  15.684  15.771   2.042
57126W        W30194  21.951  11.179   4.432
57127W        W30195  28.102   4.892   2.509
57128W        W30196  14.583  18.158   0.917
57129W        W30197  44.924  42.822   0.739
57130W        W30198  28.034  36.056   4.590
57131W        W30199  35.625   7.275  12.011
57132W        W30200  26.804  28.557   3.119
57133W        W30201  39.071  28.624   0.293
57134W        W30202  36.676  40.961   4.769
57135W        W30203   4.293   5.193   4.594
57136W        W30204  34.031  23.244  11.090
57137W        W30205  23.663   9.747   0.220
57138W        W30206  16.679   5.795   4.270
57139W        W30207  39.337  11.658  10.977
57140W        W30208  16.160  32.067  11.863
57141W        W30209   1.225  17.922  14.736
57142W        W30210  13.816  23.885   4.746
57143W        W30211  25.014  35.445   3.819
57144W        W30212  42.462  21.453  11.036
57145W        W30213  25.509  32.363  12.121
57146W        W30214  17.799  27.034   0.444
57147W        W30215  15.826   5.472   0.027
57148W        W30216  28.552  12.423   4.043
57149W        W30217  23.794  21.567   0.184
57150W        W30218  41.453  16.390  10.257
57151W        W30219  20.930  13.841  10.848
57152W        W30220   1.520  10.194  10.735
57153W        W30221   6.113  40.569   4.291
57154W        W30222   4.326  41.919  10.920
57155W        W30223  12.735   7.843  13.440
57156W        W30224  19.162  34.109   3.525
57157W        W30225  17.728  13.539   4.731
57158W        W30226   9.252   1.035  13.493
57159W        W30227  38.470  15.568   2.774
57160W        W30228  32.859  28.958   1.567
57161W        W30229  34.469  27.894   4.766
57162W        W30230   1.423   9.179  13.592
57163W        W30231  22.477  29.778   1.484
57164W        W30232  42.560  22.634   3.697
57165W        W30233   6.595  10.026   1.455
57166W        W30234  26.396  42.523   5.011
57167W        W30235  41.346  10.692   1.375
57168W        W30236  10.991  39.185   3.171
57169W        W30237  26.172  30.764  13.334
57170W        W30238  43.973  20.773   3.057
57171W        W30239  40.691  26.953   2.642
57172W        W30240  14.101  43.109  14.611
57173W        W30241  10.535   3.317   2.258
57174W        W30242  15.102  30.885  11.991
57175W        W30243   5.358  16.428   2.260
57176W        W30244   7.293  15.793   3.337
57177W        W30245  37.802  13.421   0.294
57178W        W30246  22.108  18.568   2.281
57179W        W30247  35.908  31.499  14.293
57180W        W30248  20.743  20.061   4.776
57181W        W30249  41.286  34.465   4.416
57182W        W30250   5.502  25.517  13.968
57183W        W30251  37.516  41.899  11.093
57184W        W30252  26.087  13.329  10.421
57185W        W30253  15.276  25.007   0.508
57186W        W30254   9.261  25.163   1.703
57187W        W30255  17.996  25.125   3.372
57188W        W30256  35.988   7.122   2.729
57189W        W30257   3.276   8.855  11.520
57190W        W30258   2.672   8.723  14.272
57191W        W30259   7.364   4.444   0.877
57192W        W30260  31.939   0.594   0.573
57193W        W30261  19.795  19.308  10.506
57194W        W30262  12.388   9.728   3.689
57195W        W30263  34.830  42.292   2.271
57196W        W30264  44.325  23.622  10.695
57197W        W30265  26.376  16.387   3.114
57198W        W30266  26.627  12.480   5.220
57199W        W30267  22.802  17.620  12.107
57200W        W30268  37.833   3.924   2.432
57201W        W30269  16.354  19.305   4.195
57202W        W30270   6.280  16.283  13.938
57203W        W30271  42.451  25.028   0.874
57204W        W30272  31.395   9.575   1.501
57205W        W30273  16.684  30.529  14.926
57206W        W30274  29.884  12.903   4.621
57207W        W30275   0.522  31.586   3.275
57208W        W30276  12.923  42.682   4.224
57209W        W30277  17.410   9.822   1.964
57210W        W30278  42.460  34.428   0.557
57211W        W30279  32.908   0.364   4.145
57212W        W30280  33.425   2.754   2.832
57213W        W30281   6.645  34.741  13.979
57214W        W30282   7.618  22.166  14.383
57215W        W30283  25.477  35.291   1.659
57216W        W30284  36.912  31.585   2.773
57217W        W30285   1.617   9.892  11.852
57218W        W30286   3.700  43.840   0.329
57219W        W30287  23.030  24.937  11.690
57220W        W30288  14.572   9.700  12.025
57221W        W30289  43.962  23.534  12.323
57222W        W30290   7.273  20.283   4.020
57223W        W30291  44.791  22.573  14.208
57224W        W30292   7.885   7.360  10.172
57225W        W30293  21.116  25.829  13.431
57226W        W30294  33.847  22.988   0.971
57227W        W30295   1.100  13.870   0.456
57228W        W30296  14.858  18.182   5.029
57229W        W30297  41.601  41.999  11.501
57230W        W30298  13.091  18.637   5.183
57231W        W30299  40.016  31.497  13.516
57232W        W30300   8.400   3.840  14.514
57233W        W30301   3.817  26.603   2.722
57234W        W30302  36.478  37.345   2.163
57235W        W30303  21.342   4.639   4.071
57236W        W30304   3.540  25.322   1.037
57237W        W30305  35.874   4.377  10.220
57238W        W30306  34.420  16.770  11.176
57239W        W30307  24.033   4.514   3.809
57240W        W30308  11.157  19.680   1.016
57241W        W30309  35.987  26.261  10.981
57242W        W30310  27.475   5.597   1.275
57243W        W30311  44.598  39.485  10.183
57244W        W30312  29.970  32.448   3.869
57245W        W30313  42.569  41.395   4.152
57246W        W30314  32.687  34.701  12.880
57247W        W30315  41.867  38.768   2.822
57248W        W30316  35.985  35.691   3.178
57249W        W30317  22.358  33.941  12.434
57250W        W30318  13.284  28.287   0.236
57251W        W30319  23.615  23.268   3.147
57252W        W30320   9.554   9.630   4.314
57253W        W30321   6.403  16.313  12.562
57254W        W30322  23.599  18.301   0.890
57255W        W30323  14.326  33.389  11.345
57256W        W30324  21.638  27.472   0.900
57257W        W30325  23.965   3.351  12.018
57258W        W30326   9.469   0.421  12.075
57259W        W30327  41.262  38.246  12.121
57260W        W30328  41.434  26.409   4.408
57261W        W30329  26.938  21.072   0.471
57262W        W30330   7.395  12.307  10.374
57263W        W30331  36.325   5.359  11.087
57264W        W30332  35.143  21.868   3.205
57265W        W30333  23.965  33.013  13.867
57266W        W30334  22.542  26.044  10.624
57267W        W30335  19.022  37.499   0.435
57268W        W30336   4.295   7.277   4.285
57269W        W30337  28.743  41.552   3.933
57270W        W30338  15.144   7.606  10.999
57271W        W30339  43.924  17.042   4.110
57272W        W30340   1.949  38.844   4.560
57273W        W30341  34.418  37.884  12.184
57274W        W30342  10.384  17.709  10.208
57275W        W30343  16.009  25.419  12.867
57276W        W30344  24.644   1.588   2.326
57277W        W30345   9.958  35.045  11.163
57278W        W30346  35.758   0.627  11.674
57279W        W30347   0.797  43.522  14.383
57280W        W30348  26.018  12.171  11.392
57281W        W30349  26.529   4.226  11.973
57282W        W30350  38.629  20.802   4.778
57283W        W30351  25.439   6.770   3.756
57284W        W30352   6.235  15.735   0.471
57285W        W30353  19.100  34.346   4.142
57286W        W30354  42.394   6.265   2.254
57287W        W30355  43.884  27.177   1.336
57288W        W30356  42.743  28.016   3.990
57289W        W30357  25.063  17.702  11.140
57290W        W30358  19.157  19.685   1.272
57291W        W30359  28.676   2.924  11.974
57292W        W30360  19.425   2.956   2.512
57293W        W30361  30.720  15.235   0.455
57294W        W30362   1.391   6.359  11.584
57295W        W30363  43.448  35.436   4.168
57296W        W30364  18.258   3.408  14.329
57297W        W30365  21.008   4.199   1.919
57298W        W30366  27.219   8.777   1.010
57299W        W30367  15.194  11.259   3.802
57300W        W30368  23.955   0.444  14.357
57301W        W30369  43.783  41.654  14.861
57302W        W30370  13.129   2.201  11.626
57303W        W30371  31.685  26.736   2.702
57304W        W30372  36.835   7.579  11.612
57305W        W30373  44.544  30.794   1.743
57306W        W30374  22.002   6.879   4.761
57307W        W30375  13.237   4.120  12.548
57308W        W30376   8.310  44.664   0.400
57309W        W30377   1.784  13.104   3.241
57310W        W30378  42.383  30.971  13.487
57311W        W30379  40.438  26.600  12.420
57312W        W30380   5.895  31.671   2.241
57313W        W30381  34.289  15.250  11.527
57314W        W30382   3.911  28.680  12.389
57315W        W30383  13.455  19.689  12.202
57316W        W30384   9.468   2.848   3.175
57317W        W30385  17.218  35.074   0.331
57318W        W30386  41.756  29.549   2.645
57319W        W30387  16.010  11.507  12.897
57320W        W30388  36.898  21.751  11.444
57321W        W30389  30.573  27.157  12.000
57322W        W30390  11.897  23.295  14.889
57323W        W30391  39.951  21.577  12.429
57324W        W30392  17.623  42.115   0.949
57325W        W30393  16.837  43.790  11.010
57326W        W30394  42.005  22.242  11.160
57327W        W30395  36.516  19.126  11.526
57328W        W30396  43.924   3.827  10.383
57329W        W30397  33.960  34.075   2.263
57330W        W30398  19.601  32.542  13.393
57331W        W30399  41.854  20.024  12.228
57332W        W30400  32.240  17.630   1.217
57333W        W30401   1.030  18.076  11.007
57334W        W30402  41.418  32.342  11.668
57335W        W30403  32.502  27.680  14.808
57336W        W30404   1.926  17.115  13.536
57337W        W30405   0.775  44.288   1.331
57338W        W30406  19.031   8.843   4.246
57339W        W30407  36.166  14.798  12.674
57340W        W30408   0.469  23.468   2.815
57341W        W30409  11.422  23.299   4.873
57342W        W30410  19.979  22.198   4.945
57343W        W30411   4.583  21.942  12.014
57344W        W30412  43.240  33.370   4.998
57345W        W30413  33.998  17.093   4.370
57346W        W30414  43.919   6.793   0.802
57347W        W30415   2.391  14.075   4.082
57348W        W30416  27.011   7.900   4.716
57349W        W30417  19.529   8.856   0.469
57350W        W30418   4.964   9.320   3.259
57351W        W30419  22.300   8.188   4.327
57352W        W30420   6.336  29.628  10.675
57353W        W30421  21.840  40.774  13.960
57354W        W30422  40.089   7.699   0.480
57355W        W30423   3.879  35.462   4.236
57356W        W30424  21.253  37.568  10.622
57357W        W30425  34.360   8.948  11.372
57358W        W30426  33.405  42.032  12.465
57359W        W30427   4.659   4.809   2.905
57360W        W30428  20.128  41.744   3.777
57361W        W30429  15.838   0.503   2.365
57362W        W30430  26.085   9.631   3.373
57363W        W30431  28.996  41.507  13.814
57364W        W30432   5.900  33.656  13.925
57365W        W30433   9.279  22.531   4.967
57366W        W30434  32.350  32.073  10.660
57367W        W30435  16.676  30.364  12.047
57368W        W30436  43.227  19.517  13.940
57369W        W30437  31.529  20.710  12.939
57370W        W30438   0.083  35.500  10.499
57371W        W30439  12.406   1.859  14.920
57372W        W30440   1.081  17.582   1.743
57373W        W30441  40.097   7.940  14.821
57374W        W30442  16.261  31.851   5.107
57375W        W30443  36.623  33.230   0.340
57376W        W30444  31.355  32.364   3.338
57377W        W30445  34.485  12.218   2.832
57378W        W30446  25.566   1.422  13.009
57379W        W30447  19.597  38.606  14.552
57380W        W30448  10.801  32.177  10.800
57381W        W30449  34.687   1.006  10.631
57382W        W30450  40.548  42.897  14.630
57383W        W30451  31.184   1.342   2.717
57384W        W30452  35.643  15.781   1.509
57385W        W30453  37.194  23.912   2.493
57386W        W30454  41.005  10.277   4.884
57387W        W30455   0.511  28.899  10.733
57388W        W30456  28.525  14.745  14.913
57389W        W30457  17.768  31.818   1.822
57390W        W30458  23.187  10.571   3.229
57391W        W30459  37.707  20.170  12.043
57392W        W30460   6.273   5.416  11.468
57393W        W30461  37.097  41.580  12.390
57394W        W30462  35.430  32.950   4.257
57395W        W30463  34.137  26.522  13.542
57396W        W30464  24.665  24.505   0.503
57397W        W30465  23.701  14.198  10.996
57398W        W30466  30.558  15.179  12.476
57399W        W30467   8.296  36.031  13.941
57400W        W30468  44.687   4.476  11.131
57401W        W30469  32.394  20.238   1.123
57402W        W30470   3.432  15.964  12.847
57403W        W30471  44.281  29.073   3.328
57404W        W30472  32.389  43.428   2.140
57405W        W30473  41.060  31.149  11.598
57406W        W30474  28.534  32.332   4.737
57407W        W30475   5.882  37.514  13.581
57408W        W30476   3.011   0.424  14.948
57409W        W30477   4.203  23.629   2.327
57410W        W30478  39.827  42.408  10.731
57411W        W30479  12.332   5.588   0.790
57412W        W30480  25.488  40.474  10.562
57413W        W30481  17.642  42.706  14.818
57414W        W30482  44.176   0.781  10.554
57415W        W30483   8.353  35.292   1.712
57416W        W30484  21.059  27.406  13.894
57417W        W30485  33.897  22.500   2.453
57418W        W30486  44.846  40.317   0.446
57419W        W30487   2.543  25.657  12.448
57420W        W30488  33.336  39.040   4.133
57421W        W30489   8.310  44.765  13.995
57422W        W30490  25.534  43.406   3.739
57423W        W30491  22.595  35.040   1.286
57424W        W30492  17.662  33.400   0.211
57425W        W30493  23.210  30.093   1.320
57426W        W30494  10.565  39.932  11.041
57427W        W30495   5.717  21.877  12.508
57428W        W30496  30.951  14.543  13.982
57429W        W30497   6.883  28.662  11.261
57430W        W30498  43.032  22.582  12.533
57431W        W30499  38.917   4.770  14.480
57432W        W30500   0.885  21.862  13.796
57433W        W30501  23.868  38.433  10.110
57434W        W30502  18.641  16.238   1.861
57435W        W30503  43.230   4.316  11.020
57436W        W30504   2.266   4.838   3.197
57437W        W30505   5.283  21.763   0.004
57438W        W30506  17.317  39.541   2.449
57439W        W30507  21.955  42.407  11.184
57440W        W30508  43.667  33.597  12.139
57441W        W30509  40.557  31.348  11.683
57442W        W30510   9.287  11.102  14.905
57443W        W30511   3.210  28.005  14.139
57444W        W30512   4.209  29.219   4.123
57445W        W30513   3.506  32.019  12.077
57446W        W30514  19.568  42.039   0.474
57447W        W30515   8.809   5.332   9.955
57448W        W30516  29.944  19.248  13.506
57449W        W30517  37.477   8.560   4.998
57450W        W30518  13.154  34.623  12.596
57451W        W30519  38.070  30.006  14.926
57452W        W30520  23.388  34.304   4.110
57453W        W30521  30.716   7.310   2.237
57454W        W30522  28.088  18.780  11.667
57455W        W30523  22.678   1.834  10.800
57456W        W30524  22.771  16.384   0.711
57457W        W30525   6.271   1.571   2.236
57458W        W30526  19.789  44.961   2.243
57459W        W30527  35.472   2.243   3.007
57460W        W30528   0.690  20.046  14.988
57461W        W30529  40.992  41.282  11.646
57462W        W30530  37.874  41.343   2.363
57463W        W30531  10.764  11.233  12.380
57464W        W30532   5.265  43.424   4.133
57465W        W30533  44.048  12.372  11.093
57466W        W30534   1.390   1.623   1.466
57467W        W30535  24.941  40.913  13.042
57468W        W30536  15.724  21.183   3.888
57469W        W30537  28.675  32.025  12.892
57470W        W30538  25.628  36.053  14.652
57471W        W30539  18.247  22.959   2.368
57472W        W30540  36.010  38.657   1.351
57473W        W30541  18.965  19.563  11.462
57474W        W30542   7.731  31.060   0.787
57475W        W30543   3.821  19.542  14.948
57476W        W30544  11.774  36.509  11.934
57477W        W30545   1.436   0.885   2.830
57478W        W30546  11.813  42.525  13.066
57479W        W30547   5.033   3.430   3.866
57480W        W30548   8.259   0.888  13.176
57481W        W30549   8.871   4.642   2.805
57482W        W30550  19.466  22.544  14.319
57483W        W30551  42.728  28.731   2.777
57484W        W30552  12.380  12.107  14.936
57485W        W30553  41.259   6.498  13.944
57486W        W30554  36.993  37.881   4.554
57487W        W30555  35.820  32.628   3.731
57488W        W30556   9.906   8.806   0.498
57489W        W30557  40.731  13.233  11.623
57490W        W30558  36.844  21.622   1.919
57491W        W30559  44.171  41.602  10.362
57492W        W30560  10.896  38.786   2.841
57493W        W30561  24.253  13.812   2.246
57494W        W30562  23.491   1.997  12.946
57495W        W30563   2.397  17.725   1.290
57496W        W30564  33.483  16.808   0.786
57497W        W30565  15.601  28.914   4.540
57498W        W30566  32.183  41.256  14.873
57499W        W30567  31.365  29.347  11.525
57500W        W30568  22.541   5.718  11.573
57501W        W30569  25.529  27.956   2.618
57502W        W30570  12.134  33.635  12.850
57503W        W30571  21.778  23.355  11.697
57504W        W30572  15.489  33.860  10.914
57505W        W30573  32.116  34.305   3.152
57506W        W30574  30.066  22.234   3.366
57507W        W30575  37.069  35.979  14.190
57508W        W30576  43.332  24.049   3.106
57509W        W30577  16.971  35.980  11.015
57510W        W30578  19.606  35.609   0.364
57511W        W30579  24.859   3.716   4.127
57512W        W30580  33.045   7.388   0.542
57513W        W30581  38.856  43.568   4.138
57514W        W30582  11.825  24.054  12.028
57515W        W30583  38.320   6.857  14.463
57516W        W30584  15.826   3.350  13.493
57517W        W30585  15.101   9.209   4.903
57518W        W30586  32.849   7.140  12.281
57519W        W30587   7.075  18.567  12.508
57520W        W30588  20.109   5.421  11.468
57521W        W30589  29.481   3.869   4.673
57522W        W30590   0.563  34.922   0.212
57523W        W30591  14.677  39.072   3.302
57524W        W30592  27.726   3.188   0.324
57525W        W30593  26.648  22.176  14.954
57526W        W30594  20.155  18.533  10.736
57527W        W30595  39.312  27.681  10.906
57528W        W30596  20.770  32.441   4.182
57529W        W30597  37.417   1.379  12.945
57530W        W30598  40.597  17.337   0.402
57531W        W30599  22.965  14.698   5.041
57532W        W30600  29.019   5.399  14.065
57533W        W30601   7.769  28.535   1.731
57534W        W30602  41.648  14.681   1.302
57535W        W30603  34.198  18.660  11.869
57536W        W30604  12.225  19.068  11.383
57537W        W30605  44.005  25.333  13.053
57538W        W30606  11.851  36.792  10.212
57539W        W30607  24.615  38.125  10.642
57540W        W30608  35.547  15.602   1.029
57541W        W30609  38.906  29.739   0.905
57542W        W30610  14.033  10.308  14.033
57543W        W30611  24.598  23.246  14.247
57544W        W30612  31.282  14.152  10.183
57545W        W30613  30.060  29.069   3.236
57546W        W30614  14.385   2.901  12.886
57547W        W30615  41.414  37.441  14.867
57548W        W30616  12.054   1.809   0.934
57549W        W30617  43.535  34.057   4.516
57550W        W30618  18.206  35.047   4.528
57551W        W30619  18.140  17.009   0.443
57552W        W30620  33.056  32.473   3.909
57553W        W30621   0.789  33.960  10.521
57554W        W30622  36.591  10.447   2.352
57555W        W30623  27.407  42.940  11.114
57556W        W30624  22.223  31.607   1.806
57557W        W30625  34.456  34.945   2.189
57558W        W30626  13.174  32.587  10.811
57559W        W30627  11.824  31.431   4.788
57560W        W30628  23.975  24.724  12.653
57561W        W30629  26.472  44.423   2.803
57562W        W30630  34.281  32.315   4.097
57563W        W30631   8.211  22.011   3.195
57564W        W30632   4.457   9.989  10.570
57565W        W30633  40.925   6.909   4.968
57566W        W30634  22.204  29.428  11.082
57567W        W30635  39.614  39.368  13.520
57568W        W30636  12.764  13.455  14.986
57569W        W30637  15.709  38.125   2.781
57570W        W30638  42.930  15.059   3.625
57571W        W30639  13.525  44.069   2.724
57572W        W30640   7.371  23.024   1.409
57573W        W30641  41.726  36.061  11.497
57574W        W30642  28.931   4.175  10.940
57575W        W30643  26.048  34.064  10.779
57576W        W30644   3.677  22.324  12.027
57577W        W30645  44.516  27.427  14.752
57578W        W30646   1.236  14.925   3.240
57579W        W30647  10.653  20.027   4.487
57580W        W30648  30.380  37.000  10.825
57581W        W30649  39.222  41.279   3.690
57582W        W30650  38.301  18.724  11.732
57583W        W30651  38.889   3.181   5.226
57584W        W30652  12.242   1.813   4.891
57585W        W30653   9.350  28.799   0.411
57586W        W30654   3.756  38.863   2.149
57587W        W30655  33.904  38.615  12.036
57588W        W30656  15.831  32.568  12.969
57589W        W30657  16.879   1.302   2.699
57590W        W30658  27.988  37.780   1.792
57591W        W30659  13.552   0.540   2.841
57592W        W30660  22.562  34.457   0.666
57593W        W30661  20.388  23.411  14.349
57594W        W30662  42.467  12.884   4.730
57595W        W30663   1.239   1.782   0.992
57596W        W30664  18.934  42.425   0.804
57597W        W30665  19.547   9.255   0.816
57598W        W30666  14.652   1.503  13.002
57599W        W30667  31.336   0.812  13.800
57600W        W30668  11.130  22.091   0.397
57601W        W30669   3.490  43.457   2.140
57602W        W30670  22.072  24.763   4.488
57603W        W30671  33.465  28.189  13.485
57604W        W30672  21.484  28.489  12.087
57605W        W30673  14.288  25.223   2.164
57606W        W30674  33.510   3.174   0.705
57607W        W30675  18.081   7.922  11.135
57608W        W30676   0.932  22.855  10.034
57609W        W30677  15.090   5.080  14.492
57610W        W30678  40.768  18.105   1.215
57611W        W30679   9.005  29.221   1.838
57612W        W30680  11.901  24.459  13.437
57613W        W30681   6.100  17.659  14.928
57614W        W30682  27.090  26.134   2.671
57615W        W30683  13.162  43.198   3.650
57616W        W30684  43.756  21.812  14.402
57617W        W30685   2.529  17.483   4.931
57618W        W30686  19.575  12.825   3.712
57619W        W30687  43.478  18.453  14.222
57620W        W30688  38.138   4.665   4.087
57621W        W30689  34.072  27.946   1.767
57622W        W30690  14.197  13.281  11.470
57623W        W30691  30.208   6.203   0.839
57624W        W30692  32.781  22.784  12.078
57625W        W30693   8.662  11.838   0.015
57626W        W30694  20.182   4.709  10.183
57627W        W30695  34.651  21.662  13.430
57628W        W30696  44.509  26.493  13.306
57629W        W30697  22.553  28.617   2.654
57630W        W30698  43.991   7.877  14.334
57631W        W30699  16.147   6.525   1.927
57632W        W30700  28.889  19.205  11.874
57633W        W30701  10.356  38.027   1.462
57634W        W30702  39.116  25.523   3.214
57635W        W30703  36.795   2.221   4.253
57636W        W30704   1.315  31.684   3.793
57637W        W30705  35.589   3.622   4.081
57638W        W30706   4.752  36.318  11.125
57639W        W30707  14.316  12.190   1.942
57640W        W30708   4.750  44.611  14.014
57641W        W30709  26.181  12.423   2.185
57642W        W30710  11.151  36.925   0.067
57643W        W30711   3.507   9.062   0.256
57644W        W30712   4.778  28.138  11.964
57645W        W30713  14.852   8.365  13.502
57646W        W30714  15.352  41.024   3.754
57647W        W30715  13.718  12.708   1.423
57648W        W30716   7.788  38.948   2.256
57649W        W30717  25.651   7.264  10.521
57650W        W30718   4.842   0.115   4.620
57651W        W30719   3.002  24.974   4.501
57652W        W30720   3.685  38.837  13.430
57653W        W30721  15.496  35.050  14.316
57654W        W30722  22.068  23.193  11.026
57655W        W30723  26.081  42.480   1.805
57656W        W30724  27.097  25.163   4.527
57657W        W30725  40.566  38.512   4.216
57658W        W30726  36.055  33.879   4.995
57659W        W30727  37.113   2.157  13.290
57660W        W30728  19.282  35.987  10.721
57661W        W30729  28.312  13.958  12.719
57662W        W30730  43.052  30.421   1.275
57663W        W30731  21.450  24.190   0.804
57664W        W30732  31.831   6.484  10.425
57665W        W30733  34.882  26.652   0.363
57666W        W30734   9.942  34.485   2.034
57667W        W30735  32.956   7.609   1.484
57668W        W30736  22.506   1.744   2.192
57669W        W30737  24.715  20.460   1.157
57670W        W30738  42.112   1.409   0.797
57671W        W30739  37.404  32.434   1.852
57672W        W30740  32.560  33.117  13.072
57673W        W30741  28.023  27.720   3.124
57674W        W30742  44.018  38.450  14.998
57675W        W30743   6.877  25.637   0.245
57676W        W30744   1.305   5.474  14.715
57677W        W30745  38.803  22.833  10.999
57678W        W30746  27.241  31.942   1.341
57679W        W30747  27.529  22.431  11.807
57680W        W30748  11.406  20.723  12.429
57681W        W30749   4.867  40.696   4.065
57682W        W30750   0.661  19.544   2.913
57683W        W30751  19.614  20.256  14.759
57684W        W30752  37.843   7.265  13.413
57685W        W30753  22.956   7.192   3.534
57686W        W30754  22.764   8.196   3.613
57687W        W30755  20.159  43.417  11.159
57688W        W30756  17.301  37.703   4.931
57689W        W30757  34.425  14.070  12.935
57690W        W30758  25.092  43.090  13.835
57691W        W30759   7.185  23.278   0.488
57692W        W30760   5.250  39.914  14.248
57693W        W30761  25.691  37.400  10.900
57694W        W30762  30.345  19.263  11.131
57695W        W30763  14.290  23.194   0.842
57696W        W30764  24.947  18.484   4.070
57697W        W30765  30.915   6.925   1.790
57698W        W30766  41.360  21.666  14.362
57699W        W30767  21.784   9.216  14.861
57700W        W30768  38.796  40.461   0.367
57701W        W30769  29.768  43.204   3.708
57702W        W30770  28.007  23.203   0.234
57703W        W30771  33.192  25.049  11.230
57704W        W30772  30.082  32.732  14.909
57705W        W30773  21.096   1.127   9.770
57706W        W30774  13.771  26.590   4.274
57707W        W30775  43.274   6.814  14.883
57708W        W30776   9.966  21.624   2.946
57709W        W30777  27.639   1.001  14.359
57710W        W30778  34.374  41.295  13.442
57711W        W30779  26.039   3.523  12.438
57712W        W30780   5.843  32.826   4.349
57713W        W30781  29.051   5.648   2.163
57714W        W30782  26.013  33.546   2.161
57715W        W30783  20.775  26.095  13.981
57716W        W30784  41.481  41.415  11.685
57717W        W30785  14.216  14.075   0.414
57718W        W30786  24.699  43.541   1.861
57719W        W30787  18.603  38.524   0.910
57720W        W30788  41.933  37.604   5.027
57721W        W30789  14.863  24.433  12.445
57722W        W30790  43.075  27.511   1.735
57723W        W30791   1.546  32.955  13.277
57724W        W30792  38.916  24.780  12.074
57725W        W30793  21.741  39.962   1.300
57726W        W30794  43.955   4.725  10.487
57727W        W30795  38.684  22.479  12.467
57728W        W30796   3.401  35.920   1.441
57729W        W30797  19.793  35.043   3.317
57730W        W30798  30.368  28.404  12.518
57731W        W30799  30.076  20.284   1.989
57732W        W30800  43.502  39.798  13.280
57733W        W30801  12.137  31.802   4.964
57734W        W30802  24.183  32.705  12.096
57735W        W30803  39.502  14.092  13.501
57736W        W30804  27.227   5.141   1.922
57737W        W30805  14.429  37.132   0.002
57738W        W30806  26.681  26.960   1.369
57739W        W30807  11.184  42.329  11.856
57740W        W30808   7.737  32.908  13.782
57741W        W30809  22.568  12.612   4.576
57742W        W30810  26.197  11.257  11.547
57743W        W30811  14.046  18.364  12.222
57744W        W30812  35.349  39.848   4.149
57745W        W30813  22.976  35.467   2.766
57746W        W30814   0.239  13.264   1.701
57747W        W30815  34.435  34.842   2.704
57748W        W30816  32.304  26.650   4.218
57749W        W30817  36.876  19.281   0.365
57750W        W30818  11.453  41.422  14.153
57751W        W30819  23.848  34.191   0.356
57752W        W30820  30.602  12.650   1.304
57753W        W30821  31.932  24.158   3.454
57754W        W30822  41.086   8.597  11.048
57755W        W30823  10.772  32.937  14.659
57756W        W30824  16.563  29.026   4.835
57757W        W30825  16.567  36.785   0.459
57758W        W30826   7.904  35.738   2.698
57759W        W30827  27.951  36.160   2.389
57760W        W30828  19.212  20.551  14.921
57761W        W30829   9.167  22.920  12.877
57762W        W30830   6.728  30.973  12.037
57763W        W30831  28.989  38.644   2.680
57764W        W30832   9.357  34.467  11.750
57765W        W30833  19.605   7.097   0.904
57766W        W30834  17.828  17.650  12.384
57767W        W30835   4.833  21.589   2.866
57768W        W30836   9.189   3.714  11.060
57769W        W30837   3.978   4.332  13.095
57770W        W30838  36.861  23.660   4.995
57771W        W30839  38.563   4.784  11.209
57772W        W30840  19.689  32.690  11.946
57773W        W30841  22.318   6.953  13.420
57774W        W30842   4.494  14.238  10.678
57775W        W30843  31.930  29.539  13.907
57776W        W30844  21.043  16.800  13.920
57777W        W30845   2.780  30.023   3.231
57778W        W30846  39.561  18.392   0.914
57779W        W30847  10.390  41.442   2.309
57780W        W30848  33.868  39.535  14.403
57781W        W30849  19.687  28.941  11.946
57782W        W30850  34.500   1.908  13.037
57783W        W30851  38.468  17.549  12.880
57784W        W30852  27.430  20.551   1.434
57785W        W30853  25.390  25.699  13.738
57786W        W30854   2.466  29.053  12.189
57787W        W30855  16.333   4.904  13.504
57788W        W30856  28.149  37.920  11.173
57789W        W30857  29.982   8.899   3.382
57790W        W30858  17.090  42.242   3.761
57791W        W30859  32.208   5.498  10.754
57792W        W30860  28.336  27.620  14.809
57793W        W30861  11.156  36.925   0.912
57794W        W30862  26.830  19.232  13.006
57795W        W30863  43.966  25.483   5.014
57796W        W30864  27.127  16.067  10.724
57797W        W30865  33.548  20.842   0.001
57798W        W30866  40.397   8.687  13.476
57799W        W30867  22.609   7.603   1.304
57800W        W30868   7.861  36.199   1.369
57801W        W30869  39.026   9.071   3.316
57802W        W30870  27.605  33.341   3.152
57803W        W30871   0.264  39.005   0.026
57804W        W30872  31.562  12.320  11.100
57805W        W30873  43.027  37.955  12.614
57806W        W30874   1.222  39.361  12.781
57807W        W30875  13.191  23.614   4.107
57808W        W30876  31.426  19.725   0.398
57809W        W30877   0.342  27.430  11.964
57810W        W30878  26.113   5.917   4.092
57811W        W30879  21.167  24.385   3.061
57812W        W30880  42.918  30.981  13.953
57813W        W30881  31.666   0.759  10.395
57814W        W30882  34.707  41.127  11.098
57815W        W30883  10.182  43.395  12.656
57816W        W30884   8.023  33.549   2.015
57817W        W30885  11.462  31.480  14.176
57818W        W30886  34.955  16.205  14.370
57819W        W30887  44.257  30.106   4.307
57820W        W30888  20.300  42.518   1.771
57821W        W30889  18.987  17.846   2.897
57822W        W30890   9.272   7.818  13.502
57823W        W30891  27.438  31.876  10.047
57824W        W30892  35.096  28.744  11.556
57825W        W30893  10.185  29.037  11.930
57826W        W30894   4.170  32.589  13.441
57827W        W30895  24.105  20.561   2.332
57828W        W30896   9.885   0.832   2.340
57829W        W30897  44.343  39.367   0.272
57830W        W30898  31.579  15.354   0.258
57831W        W30899  32.427  41.050   0.807
57832W        W30900  42.522  26.398  14.088
57833W        W30901  33.364  30.461  13.884
57834W        W30902   0.930  11.126   3.854
57835W        W30903  36.933  24.209   0.308
57836W        W30904  25.525  31.840  12.098
57837W        W30905  20.314  40.825  10.886
57838W        W30906  12.244  40.927  11.086
57839W        W30907   9.804  27.589   2.138
57840W        W30908   4.442   3.955  11.571
57841W        W30909  39.475  22.978  12.009
57842W        W30910  17.765  34.477  14.918
57843W        W30911  36.223   6.319   5.347
57844W        W30912   8.625  12.445   3.171
57845W        W30913  31.992  33.065  10.721
57846W        W30914  20.164  40.629  14.407
57847W        W30915  11.786  39.298   1.617
57848W        W30916   5.837   1.657  11.197
57849W        W30917  42.258   9.140  11.455
57850W        W30918  18.037  40.325   3.582
57851W        W30919   9.769  17.970  13.754
57852W        W30920  19.592  44.851  10.195
57853W        W30921  20.631   5.356  10.760
57854W        W30922  38.472   5.702   4.898
57855W        W30923  11.928  43.033   2.011
57856W        W30924   8.240  40.102  12.817
57857W        W30925  21.704  12.205   1.422
57858W        W30926  21.553  31.731   0.743
57859W        W30927  21.641  24.462   1.859
57860W        W30928  13.745  11.813   4.713
57861W        W30929   6.084  37.494  14.503
57862W        W30930   5.438  30.539  11.641
57863W        W30931   7.437  30.471  13.929
57864W        W30932  37.562  24.442   3.881
57865W        W30933  41.630  26.655  13.902
57866W        W30934  17.233   7.869   3.630
57867W        W30935  37.408  39.235  12.439
57868W        W30936  27.951  12.653  10.495
57869W        W30937  42.477  32.464  14.528
57870W        W30938   7.758   4.133   0.746
57871W        W30939  11.269  17.188  12.431
57872W        W30940  24.968  22.275   3.198
57873W        W30941  18.705  30.654  13.098
57874W        W30942  14.687  19.229  11.263
57875W        W30943  30.407  30.466   3.202
57876W        W30944  15.120  33.339  11.959
57877W        W30945  21.829  33.798   3.690
57878W        W30946  37.583  20.823  12.592
57879W        W30947  22.496  28.098   0.305
57880W        W30948  37.829  27.618  13.973
57881W        W30949  38.523   0.334  14.462
57882W        W30950  22.080  42.900   0.388
57883W        W30951  36.648   8.060   4.511
57884W        W30952  43.986  32.082  10.902
57885W        W30953  11.697   9.464   0.994
57886W        W30954  18.760  21.808   4.141
57887W        W30955  32.186  44.888  11.351
57888W        W30956  43.933  26.533   4.643
57889W        W30957   8.643  28.171   4.644
57890W        W30958  31.720  29.409   2.330
57891W        W30959  23.218  27.088  11.131
57892W        W30960  11.458  30.866  13.468
57893W        W30961   1.660  22.001  12.663
57894W        W30962  41.073  21.098   3.714
57895W        W30963  23.009  28.594   0.800
57896W        W30964  30.644  15.291   4.154
57897W        W30965  43.483  38.487  14.944
57898W        W30966  15.866  10.182   3.671
57899W        W30967  39.614  23.683   4.078
57900W        W30968   3.759  12.824  12.501
57901W        W30969  40.619  21.512  10.772
57902W        W30970  44.376  24.746   3.601
57903W        W30971  22.034  26.540   1.306
57904W        W30972  16.704  18.847  10.910
57905W        W30973  31.590  32.211   4.847
57906W        W30974  21.775  39.265   3.114
57907W        W30975  36.917  14.271  13.725
57908W        W30976  37.989  42.988   1.418
57909W        W30977  29.220  31.966  10.302
57910W        W30978   1.733  28.144  12.366
57911W        W30979  34.545  19.838  14.056
57912W        W30980  22.776  30.067   2.251
57913W        W30981  31.875   8.313  13.598
57914W        W30982   6.987  34.575  13.144
57915W        W30983  37.405  24.356   2.661
57916W        W30984  14.608  20.799   4.068
57917W        W30985  18.054  23.371  11.097
57918W        W30986   0.002   9.971   3.668
57919W        W30987  20.760  16.772   4.200
57920W        W30988  40.445  34.947   1.711
57921W        W30989  36.147  16.957   2.925
57922W        W30990  18.477  28.123  14.406
57923W        W30991  21.736  33.095  13.808
57924W        W30992  28.204  22.579   3.920
57925W        W30993  37.370  41.441  11.957
57926W        W30994   5.900   1.169  11.958
57927W        W30995  34.984   1.504  10.964
57928W        W30996   5.739   8.294   1.635
57929W        W30997   2.180   0.333  13.336
57930W        W30998  44.366  32.167  14.235
57931W        W30999   0.956  28.625   2.565
57932W        W31000  39.489  10.268  14.402
57933W        W31001  17.493   6.849   1.126
57934W        W31002  41.788  19.340  14.428
57935W        W31003  22.792  34.253   2.755
57936W        W31004  40.870  27.861   2.218
57937W        W31005  43.782  25.674   1.255
57938W        W31006  14.500  11.439   4.598
57939W        W31007  20.698  22.024   2.736
57940W        W31008  18.008  31.499  13.817
57941W        W31009   7.311  16.386  12.846
57942W        W31010  43.357  31.224  13.837
57943W        W31011  37.432   8.265  14.535
57944W        W31012  10.152  29.566  12.477
57945W        W31013  16.342  25.562  12.032
57946W        W31014  36.927  37.576   1.903
57947W        W31015  31.162  30.805  14.840
57948W        W31016   4.882  10.271  14.010
57949W        W31017  14.863  11.897  12.583
57950W        W31018  20.692  30.624   0.861
57951W        W31019   6.807   4.217  12.504
57952W        W31020  34.156  22.632  13.030
57953W        W31021  15.624  12.235  13.426
57954W        W31022  42.085  12.045   4.308
57955W        W31023   7.922  23.238   0.777
57956W        W31024  38.975  18.705   3.651
57957W        W31025   9.768  36.010  14.847
57958W        W31026  17.442   7.135   5.083
57959W        W31027  12.142   6.688  14.354
57960W        W31028   1.968  34.550   4.200
57961W        W31029  18.138  42.775  14.272
57962W        W31030  35.052   5.634  11.524
57963W        W31031  11.113  24.602   0.039
57964W        W31032  11.632  44.717   0.312
57965W        W31033  41.489  17.760   0.604
57966W        W31034  30.310  17.658  13.101
57967W        W31035   9.848  35.350   2.273
57968W        W31036  21.075  30.732  14.475
57969W        W31037  32.604  27.649  12.832
57970W        W31038   3.400  35.312  14.846
57971W        W31039   0.179  12.121   3.169
57972W        W31040  33.914   2.983   4.173
57973W        W31041  42.378  11.287  10.734
57974W        W31042  13.351  33.484  11.529
57975W        W31043  19.522   8.722  11.455
57976W        W31044  42.045  26.090  13.418
57977W        W31045   0.203  22.703   1.644
57978W        W31046  29.528  14.151  13.349
57979W        W31047  24.039   8.092  14.281
57980W        W31048  34.723  19.516  11.094
57981W        W31049  13.125  22.660   1.061
57982W        W31050   5.892   3.446  12.022
57983W        W31051  39.088  32.351   2.817
57984W        W31052  10.100  25.646   0.149
57985W        W31053   2.829  40.529   0.325
57986W        W31054  18.360  32.066   3.272
57987W        W31055  37.308  32.071  14.289
57988W        W31056  10.658   3.395   1.421
57989W        W31057  21.035   3.999   4.605
57990W        W31058  16.618  25.198  13.300
57991W        W31059  31.443  26.658   0.245
57992W        W31060  14.176  29.013  11.106
57993W        W31061  29.745  37.382  12.461
57994W        W31062   2.814  10.101  12.112
57995W        W31063  20.655  40.250  13.051
57996W        W31064   4.938  15.285   3.350
57997W        W31065  30.208  25.917   3.555
57998W        W31066  19.242  11.098  11.309
57999W        W31067  24.672  36.724   2.380
58000W        W31068  38.236  35.439   0.309
58001W        W31069  11.381  30.601   0.397
58002W        W31070   4.941  41.941  13.937
58003W        W31071  37.457  31.882   1.834
58004W        W31072  35.309   4.461  13.469
58005W        W31073  26.016   7.322   1.898
58006W        W31074   1.175  27.055   3.268
58007W        W31075  26.818   7.036   2.475
58008W        W31076  24.815   3.263   2.024
58009W        W31077  18.919  11.256   3.815
58010W        W31078  18.416  36.370   3.545
58011W        W31079   8.350  36.329  10.581
58012W        W31080  29.847  18.298   1.339
58013W        W31081  26.337  11.347   2.943
58014W        W31082  37.842  39.876   0.849
58015W        W31083   7.734   9.763  12.409
58016W        W31084  37.100  27.270  10.983
58017W        W31085  40.079  27.348   2.159
58018W        W31086  35.783  39.525   2.321
58019W        W31087  43.224  23.178  12.956
58020W        W31088   5.080   7.343  12.246
58021W        W31089  28.123  18.663  14.035
58022W        W31090   1.011  11.181  11.780
58023W        W31091  41.564  23.461  12.067
58024W        W31092  15.491   0.963   4.964
58025W        W31093  24.122  12.369  10.276
58026W        W31094   0.582  37.719  14.568
58027W        W31095  42.852   8.313  11.152
58028W        W31096  15.029  32.534  12.460
58029W        W31097   5.751  22.005  14.648
58030W        W31098   8.752  11.291   0.744
58031W        W31099  17.092  29.171   4.669
58032W        W31100  23.580  29.615  13.786
58033W        W31101   1.790  13.429  13.459
58034W        W31102  27.585  45.000  10.726
58035W        W31103  25.961  18.399  14.031
58036W        W31104  17.845   0.579  13.606
58037W        W31105  26.407  38.872  11.674
58038W        W31106  44.408   7.954  10.666
58039W        W31107  22.783  11.226  11.707
58040W        W31108   6.985   0.254  11.627
58041W        W31109  36.034  38.906   5.135
58042W        W31110  15.723  26.481  11.087
58043W        W31111   0.858  36.445  11.891
58044W        W31112  39.831   4.308   2.105
58045W        W31113  29.138  18.693   1.896
58046W        W31114  10.598  35.999  13.849
58047W        W31115  40.567  25.305   1.971
58048W        W31116  37.035  12.408  14.100
58049W        W31117  41.047  25.811  14.026
58050W        W31118  37.452   2.242   2.370
58051W        W31119  33.407  38.515   1.276
58052W        W31120   3.274   8.239   1.683
58053W        W31121   8.851  42.482   1.217
58054W        W31122  24.748  23.636   1.456
58055W        W31123  28.280  10.109  13.928
58056W        W31124  27.175  27.783  11.697
58057W        W31125  22.933  14.016   1.718
58058W        W31126  25.956   9.346  11.475
58059W        W31127  20.621  20.253   0.521
58060W        W31128  32.139  14.453  13.044
58061W        W31129   1.403  42.225  11.008
58062W        W31130   6.031  43.840   1.842
58063W        W31131  34.192  14.177   2.787
58064W        W31132  29.403  18.011  12.082
58065W        W31133  15.263  31.133   3.978
58066W        W31134  27.581   2.450  13.366
58067W        W31135  15.868  39.485   4.579
58068W        W31136  22.773  38.830  12.068
58069W        W31137  13.997  41.974   1.788
58070W        W31138  27.183   7.461  10.947
58071W        W31139   6.477  26.722   1.794
58072W        W31140  42.871  26.681  10.885
58073W        W31141  11.485  34.342   2.948
58074W        W31142  23.558   8.819   3.077
58075W        W31143  42.912  20.065  14.964
58076W        W31144  30.643  19.333  11.549
58077W        W31145  37.067  14.779   4.602
58078W        W31146  33.444  36.434   4.038
58079W        W31147  25.716  31.212   3.204
58080W        W31148   9.794  14.870   4.213
58081W        W31149  26.849  13.122  12.351
58082W        W31150   2.921  38.930   1.943
58083W        W31151  10.168  36.113  14.491
58084W        W31152  34.859   4.823   2.395
58085W        W31153  22.059  27.994  11.118
58086W        W31154   6.365  14.245  11.615
58087W        W31155  40.401  12.286   3.767
58088W        W31156  17.286  11.957  13.384
58089W        W31157   1.875  31.652  12.590
58090W        W31158  41.601   1.283   0.871
58091W        W31159  12.759  25.268  10.509
58092W        W31160  34.963  29.951   3.777
58093W        W31161   2.356  35.499   1.384
58094W        W31162  32.809  36.954  14.925
58095W        W31163  32.287  28.913   2.197
58096W        W31164  14.380  19.638   4.209
58097W        W31165  20.868  39.543   3.538
58098W        W31166  42.390  44.430  14.831
58099W        W31167  31.256  21.407   5.102
58100W        W31168  17.099   8.827  14.780
58101W        W31169   0.789  25.992  14.563
58102W        W31170  30.069  25.190   0.284
58103W        W31171  25.416  41.446  14.944
58104W        W31172  21.893   9.014  13.065
58105W        W31173  37.523  42.627  10.712
58106W        W31174  16.951  32.456  13.783
58107W        W31175  25.950  44.992  10.832
58108W        W31176  20.110  16.020   1.823
58109W        W31177  19.380   8.800  10.710
58110W        W31178  19.056  43.938   1.518
58111W        W31179   3.344  42.285   4.606
58112W        W31180   3.392  25.950  13.939
58113W        W31181  20.239  35.550  10.633
58114W        W31182   5.140   7.236   1.242
58115W        W31183  34.253  12.044  11.060
58116W        W31184   4.039   6.350   2.194
58117W        W31185  34.099  11.034   2.297
58118W        W31186  16.303   3.539   0.873
58119W        W31187   2.008   6.317   2.252
58120W        W31188  37.912  21.666  10.668
58121W        W31189  16.122  21.677   4.538
58122W        W31190   4.498  28.477  11.684
58123W        W31191  41.524  31.025   2.157
58124W        W31192  24.061  11.690  13.999
58125W        W31193  25.202  44.715  14.522
58126W        W31194  18.577  34.690   2.108
58127W        W31195  18.492  12.215   0.659
58128W        W31196  11.449  20.441  14.376
58129W        W31197  39.216   1.206   1.777
58130W        W31198  20.572   5.271   3.833
58131W        W31199  40.560   1.968  12.153
58132W        W31200   2.359   6.821  14.826
58133W        W31201   4.540  13.155  12.724
58134W        W31202  19.205  21.051   4.585
58135W        W31203  27.667   4.367   4.575
58136W        W31204  31.129   0.001  13.432
58137W        W31205  37.926  11.761   4.856
58138W        W31206   2.190  36.437  14.970
58139W        W31207  22.245  34.859   2.082
58140W        W31208   9.116  37.535   3.184
58141W        W31209  23.128   9.385   1.350
58142W        W31210   4.293  30.690   3.828
58143W        W31211  30.626   6.455  11.161
58144W        W31212  35.310  25.164   4.164
58145W        W31213  26.444   2.220  10.726
58146W        W31214  31.400  27.661   0.869
58147W        W31215  21.376  42.903  10.196
58148W        W31216  25.450  34.484  11.392
58149W        W31217  24.038  11.549  13.090
58150W        W31218  27.115  32.883   1.205
58151W        W31219  37.836   9.740  14.418
58152W        W31220  26.698   5.208   1.789
58153W        W31221  44.028  35.838  14.920
58154W        W31222  32.535   8.745   0.818
58155W        W31223   6.685  29.100  13.351
58156W        W31224  16.319  30.559  13.093
58157W        W31225   3.916   5.966   4.052
58158W        W31226  31.034  32.875   3.304
58159W        W31227  40.536  39.524   1.326
58160W        W31228  34.363   2.645   0.378
58161W        W31229  19.727  33.195  12.620
58162W        W31230  22.038  35.074  14.711
58163W        W31231  40.415   7.086   5.171
58164W        W31232  19.544   6.798  14.904
58165W        W31233  12.136  29.457   3.197
58166W        W31234  30.565  17.468   1.728
58167W        W31235  30.107   0.047   2.450
58168W        W31236  35.954  23.050   4.242
58169W        W31237   2.297  13.817  13.948
58170W        W31238   1.191  18.515   2.318
58171W        W31239  11.138  18.334   3.992
58172W        W31240   1.342  37.101   2.681
58173W        W31241  37.098  22.345   0.146
58174W        W31242  14.745  20.296   2.010
58175W        W31243  14.614  31.054  10.434
58176W        W31244  36.217  43.869   4.673
58177W        W31245   4.419  30.446   3.375
58178W        W31246  44.991  32.708   0.353
58179W        W31247  44.485   7.635   0.959
58180W        W31248   7.175  40.412  11.400
58181W        W31249  25.018   8.912  11.980
58182W        W31250  36.954  30.409  13.542
58183W        W31251   5.421  33.120   0.773
58184W        W31252  19.270  17.231   3.675
58185W        W31253  19.306  21.041   2.735
58186W        W31254  12.954  43.042   1.929
58187W        W31255  25.785  25.429   0.787
58188W        W31256  23.035  43.401  14.570
58189W        W31257  25.232   4.611  10.927
58190W        W31258  13.954   2.301   1.854
58191W        W31259  39.780  41.838  13.401
58192W        W31260  12.233   3.719   1.798
58193W        W31261  30.095  27.616   2.811
58194W        W31262  18.564  44.219   0.192
58195W        W31263  16.290  29.332   3.117
58196W        W31264  44.820   4.990  13.376
58197W        W31265  37.499  10.145   3.724
58198W        W31266  38.430   2.271   4.441
58199W        W31267  37.560  18.233   4.202
58200W        W31268  30.314  24.609  13.852
58201W        W31269  29.806  32.058  14.332
58202W        W31270  25.154  19.804  14.968
58203W        W31271  35.060  20.014   2.744
58204W        W31272  37.444  38.935  12.854
58205W        W31273  23.536  25.181   3.661
58206W        W31274  19.595  33.116   4.472
58207W        W31275  14.776  26.633  13.925
58208W        W31276   0.954  26.532  11.355
58209W        W31277  44.648   9.261   9.891
58210W        W31278  30.080   4.899  11.625
58211W        W31279   8.505  42.317   5.315
58212W        W31280  13.881   3.745  13.008
58213W        W31281  31.924   3.423  14.260
58214W        W31282   2.724   7.478   4.397
58215W        W31283  44.205  33.973  13.885
58216W        W31284  29.603  39.152   4.699
58217W        W31285  12.549  28.227   0.922
58218W        W31286  41.801  34.467  14.296
58219W        W31287  30.806  41.937  12.670
58220W        W31288  22.038  20.596   3.988
58221W        W31289  22.709  27.944   4.617
58222W        W31290   5.836  17.270   2.452
58223W        W31291  22.163  42.341  14.688
58224W        W31292   5.249  17.498   2.309
58225W        W31293  16.546   4.325  13.693
58226W        W31294  35.739   8.070   4.901
58227W        W31295   2.511  34.996   1.450
58228W        W31296  24.059   1.323   0.025
58229W        W31297  35.967  15.102  14.848
58230W        W31298  39.466  30.534  13.369
58231W        W31299  10.250  16.707   5.077
58232W        W31300  28.585  20.118  13.084
58233W        W31301  16.140  38.022   0.185
58234W        W31302  43.803  44.237   4.297
58235W        W31303  24.716  11.061  12.009
58236W        W31304  20.652  29.439   3.397
58237W        W31305  15.558   0.391   0.974
58238W        W31306  29.705  37.582   2.347
58239W        W31307   6.238  22.061  11.622
58240W        W31308  10.368  22.268  12.933
58241W        W31309  40.502  12.880   3.071
58242W        W31310  19.034  22.039   3.460
58243W        W31311  14.891  34.931   4.630
58244W        W31312   9.390   0.691   3.833
58245W        W31313  12.884  36.405  12.489
58246W        W31314  21.948   5.283  12.872
58247W        W31315  34.381  13.339   0.753
58248W        W31316  22.717  12.736  11.246
58249W        W31317  43.675  13.212  14.293
58250W        W31318   5.625  34.574  12.045
58251W        W31319  25.501  26.684  13.801
58252W        W31320  11.869  17.106  14.569
58253W        W31321  17.707  42.964   3.206
58254W        W31322  26.395  23.349   0.739
58255W        W31323  33.207  23.584  11.939
58256W        W31324  41.820  35.892  13.888
58257W        W31325  22.522  38.315   1.289
58258W        W31326   4.929  35.192  13.180
58259W        W31327  43.920  30.902   1.417
58260W        W31328  17.081   9.340   4.607
58261W        W31329  43.005  16.177  14.364
58262W        W31330   7.781  30.419  12.518
58263W        W31331  29.460  26.549  14.343
58264W        W31332   0.639  26.046  11.661
58265W        W31333  35.978  28.418  12.000
58266W        W31334  27.662  18.416   1.661
58267W        W31335  24.968  18.687   3.588
58268W        W31336  23.958  40.503   5.063
58269W        W31337  38.626  31.483   4.988
58270W        W31338  32.385   4.394   4.216
58271W        W31339  17.277   5.250  14.536
58272W        W31340  11.040   8.386  10.531
58273W        W31341  35.748  23.032   2.888
58274W        W31342  18.166  17.763   2.328
58275W        W31343  38.417   6.775  12.439
58276W        W31344  14.792  36.344  13.923
58277W        W31345  26.394  16.755   0.325
58278W        W31346   6.566  23.481   0.654
58279W        W31347  34.365  15.569  12.609
58280W        W31348  22.513  11.578   3.239
58281W        W31349  22.262  18.032   1.827
58282W        W31350  38.034  35.799   3.738
58283W        W31351  18.700  16.478   2.624
58284W        W31352  33.127  34.471   1.931
58285W        W31353  32.688  35.210  12.825
58286W        W31354  23.645  25.696  13.375
58287W        W31355  13.020  24.378  10.981
58288W        W31356   2.431  36.035   3.149
58289W        W31357  43.866  42.905  12.384
58290W        W31358  20.676   3.257  11.021
58291W        W31359  33.643  33.940   2.662
58292W        W31360  16.697  44.105   4.613
58293W        W31361  38.963  20.221   1.727
58294W        W31362  35.162  14.049  13.462
58295W        W31363  39.879  24.933   3.394
58296W        W31364   9.977  39.855   2.654
58297W        W31365   6.180   2.236   3.244
58298W        W31366   9.934  29.066  13.972
58299W        W31367  36.404  26.493   3.742
58300W        W31368  33.880  38.086  13.339
58301W        W31369   4.526  40.489   0.036
58302W        W31370  41.914  13.432  13.720
58303W        W31371   0.771  30.287  10.423
58304W        W31372   8.722  38.591  14.841
58305W        W31373  19.212  19.173  11.665
58306W        W31374  33.141  39.547   3.207
58307W        W31375   5.831   9.634   1.826
58308W        W31376  35.145   2.168  11.538
58309W        W31377  39.273  38.440   0.039
58310W        W31378  18.268  23.676  14.767
58311W        W31379  27.082  18.769   4.339
58312W        W31380  11.698  23.270  12.972
58313W        W31381   7.558   4.812   3.066
58314W        W31382  13.338  40.739  13.949
58315W        W31383  16.284  11.300  10.623
58316W        W31384  21.759  17.192   0.287
58317W        W31385  34.421  17.301  11.118
58318W        W31386  14.665  34.538  13.694
58319W        W31387  29.147  38.795   2.221
58320W        W31388  30.071  36.597  13.063
58321W        W31389  13.616   7.645   3.962
58322W        W31390  44.394  10.631  11.992
58323W        W31391   1.988  38.480  14.864
58324W        W31392  16.840   7.254  11.235
58325W        W31393  34.460  40.280   2.840
58326W        W31394  29.955  35.051   0.840
58327W        W31395  42.276   4.434  10.961
58328W        W31396  17.429  14.679   2.413
58329W        W31397  11.365  15.361  13.385
58330W        W31398   1.499  17.063   2.262
58331W        W31399  12.464  36.837   1.947
58332W        W31400  34.071   0.789  12.892
58333W        W31401  18.049  34.884  13.863
58334W        W31402  36.969  13.530  12.452
58335W        W31403   9.914  16.743  10.654
58336W        W31404  24.838  31.225  12.619
58337W        W31405  20.130  17.707  13.080
58338W        W31406  43.785   6.754  14.820
58339W        W31407  21.801  18.445   0.481
58340W        W31408  30.025   9.032   4.671
58341W        W31409   9.747  41.806  12.144
58342W        W31410  32.657   5.885   3.843
58343W        W31411  23.071   9.927  13.276
58344W        W31412  32.239  20.555   4.579
58345W        W31413  20.206  40.634  10.422
58346W        W31414  13.363  35.495  12.471
58347W        W31415  40.448  33.322   4.667
58348W        W31416  31.551  12.245   1.925
58349W        W31417  26.296  20.042  14.414
58350W        W31418  23.129  33.063   4.296
58351W        W31419  28.923  15.026  13.073
58352W        W31420   8.644  33.022   2.703
58353W        W31421  23.952  12.026   4.570
58354W        W31422   1.957  23.170   1.788
58355W        W31423  27.509  28.449   1.103
58356W        W31424   3.665  30.371   2.265
58357W        W31425   5.583  41.285   4.514
58358W        W31426   8.411  34.041   2.934
58359W        W31427  30.720   3.801  11.548
58360W        W31428  39.387   8.997  10.489
58361W        W31429  34.407  16.052   3.706
58362W        W31430  11.392  43.468   4.088
58363W        W31431  25.473  30.973   2.176
58364W        W31432  21.239   0.502  11.924
58365W        W31433  19.506  32.953   1.366
58366W        W31434  13.339  14.859  11.543
58367W        W31435  27.223   1.442  11.427
58368W        W31436  42.548  16.305   0.274
58369W        W31437  40.961  12.921   4.811
58370W        W31438  37.042  21.190   2.670
58371W        W31439  10.057  36.402   1.751
58372W        W31440  13.803  27.764  12.427
58373W        W31441  41.931  44.469  14.591
58374W        W31442  36.079   3.318   1.299
58375W        W31443  44.500  14.513  10.899
58376W        W31444  27.053  39.355   2.371
58377W        W31445  33.539  29.938   0.324
58378W        W31446   2.276  34.302   3.183
58379W        W31447  44.914   7.182  12.388
58380W        W31448   2.707  19.403   2.681
58381W        W31449   1.711   4.442  13.658
58382W        W31450   5.139  14.453   4.014
58383W        W31451  35.228  29.168  10.767
58384W        W31452  11.262  15.308   3.282
58385W        W31453  26.618  12.402  10.210
58386W        W31454  19.786  36.485   3.430
58387W        W31455  39.770  29.207   2.106
58388W        W31456  15.557  39.954   2.240
58389W        W31457  25.628  17.731  10.711
58390W        W31458  39.451  41.328   0.958
58391W        W31459  25.560   7.376   0.441
58392W        W31460  37.552   8.340   4.166
58393W        W31461  21.617   3.730   2.269
58394W        W31462  26.028  21.241  12.359
58395W        W31463  30.639  36.177   1.963
58396W        W31464  30.645  22.545   1.367
58397W        W31465   6.108  31.037   4.835
58398W        W31466  25.132  21.093  13.346
58399W        W31467  14.043   8.860  13.525
58400W        W31468  19.528  24.781  13.431
58401W        W31469  17.694  32.624  14.311
58402W        W31470  14.608  11.832  12.134
58403W        W31471  19.545  13.507   0.889
58404W        W31472  10.767   7.177   0.429
58405W        W31473  36.525  23.949   0.507
58406W        W31474   2.517   8.477  11.727
58407W        W31475  31.239  34.105  11.315
58408W        W31476  35.123  33.404   4.148
58409W        W31477  28.530   6.418   0.306
58410W        W31478  34.837  17.630   2.263
58411W        W31479   9.460   4.775   0.441
58412W        W31480  26.060  28.218  11.173
58413W        W31481  44.345  43.812   3.607
58414W        W31482  31.047  13.967  13.310
58415W        W31483   1.201  27.342   3.768
58416W        W31484   7.685   7.635  11.577
58417W        W31485  15.570   6.741  14.748
58418W        W31486  33.431  39.527   3.657
58419W        W31487  41.517   5.579  13.726
58420W        W31488   0.974  32.184  12.077
58421W        W31489  15.339  14.204  14.722
58422W        W31490  13.239  43.837   2.271
58423W        W31491  30.638  38.532  12.572
58424W        W31492   1.956  18.297   1.713
58425W        W31493  26.646  28.141  12.503
58426W        W31494  30.261  30.134   4.122
58427W        W31495   4.308  25.038  11.299
58428W        W31496   4.934  39.279  10.745
58429W        W31497  22.012  38.433   0.417
58430W        W31498  40.573  22.700   3.620
58431W        W31499  29.409  33.484   1.380
58432W        W31500  17.857  26.012   2.247
58433W        W31501  31.576  18.062   3.157
58434W        W31502   5.314  38.938  10.714
58435W        W31503  24.703   0.084   1.753
58436W        W31504  14.865   3.893  10.682
58437W        W31505  10.986  21.230  14.931
58438W        W31506   8.245  28.451  11.433
58439W        W31507  39.350  34.403   0.991
58440W        W31508   9.161  28.132   4.641
58441W        W31509  28.401  22.224   1.289
58442W        W31510  27.112  27.142  14.462
58443W        W31511  36.849   8.886  10.585
58444W        W31512  28.988  32.080   3.048
58445W        W31513   6.768  25.641   4.533
58446W        W31514  24.141  36.980   1.787
58447W        W31515   1.478  13.662   1.051
58448W        W31516  35.483  11.403  13.810
58449W        W31517  12.208   2.542   2.242
58450W        W31518  40.847  32.709  14.920
58451W        W31519  36.567  23.405   5.336
58452W        W31520  34.053  14.639   2.655
58453W        W31521  41.755   6.741   2.163
58454W        W31522  14.305   9.948  12.840
58455W        W31523  27.125  39.866  13.860
58456W        W31524   8.000  40.492  12.056
58457W        W31525  22.199  35.043   3.712
58458W        W31526  16.981  13.378  11.047
58459W        W31527   7.780  39.194  11.168
58460W        W31528  42.435  31.225  10.976
58461W        W31529  14.315  33.581  13.394
58462W        W31530  11.919  11.311  10.275
58463W        W31531  30.468  19.098  14.448
58464W        W31532  25.484  40.543  11.425
58465W        W31533  13.326  39.041   2.733
58466W        W31534   8.370  26.403   4.118
58467W        W31535  12.367  20.647  13.959
58468W        W31536  28.304  32.716   2.755
58469W        W31537  22.966  35.542   3.769
58470W        W31538  31.607  36.787   1.727
58471W        W31539  19.027  23.002  10.780
58472W        W31540   8.339   9.955   2.336
58473W        W31541   7.792  16.738  10.839
58474W        W31542  12.786   0.737   1.995
58475W        W31543  36.525  11.782   4.240
58476W        W31544  15.604  21.252   2.392
58477W        W31545   8.423   8.271   4.918
58478W        W31546  13.158  18.466   0.763
58479W        W31547  25.917   1.784   3.379
58480W        W31548  26.492  20.790   0.545
58481W        W31549   7.880   7.774  12.068
58482W        W31550  33.543  37.988   1.585
58483W        W31551  28.545  10.668   0.747
58484W        W31552  38.679  23.750   3.652
58485W        W31553  20.491  12.795   2.331
58486W        W31554  34.655  23.940   4.657
58487W        W31555  19.147  20.208   3.629
58488W        W31556   7.127  11.235   4.031
58489W        W31557  39.073  15.811  14.729
58490W        W31558  35.915  31.086  13.478
58491W        W31559  28.539  44.338   4.762
58492W        W31560  29.131  17.542  13.391
58493W        W31561  35.132  41.916  12.500
58494W        W31562  23.116  37.465  10.980
58495W        W31563   2.999   5.238   1.290
58496W        W31564  15.460  41.428  10.277
58497W        W31565  27.221   1.623   3.007
58498W        W31566  13.668   6.835  13.013
58499W        W31567  32.391  32.431  13.133
58500W        W31568  42.567   6.421   3.160
58501W        W31569  24.545  15.633  10.675
58502W        W31570  12.101  39.982   0.225
58503W        W31571  20.016  29.253   1.178
58504W        W31572  16.549  28.131  13.227
58505W        W31573  36.346  40.407  10.996
58506W        W31574  16.674  38.787   2.435
58507W        W31575   0.060  15.268  10.537
58508W        W31576  11.506  35.621   1.696
58509W        W31577  27.582  17.540   1.397
58510W        W31578  21.862  16.127  12.400
58511W        W31579  31.470  39.987   2.707
58512W        W31580   2.158   8.713  11.447
58513W        W31581  19.012  13.323   4.279
58514W        W31582  17.170  25.956  12.235
58515W        W31583   5.978  19.507  14.043
58516W        W31584   0.947  20.625  10.810
58517W        W31585  21.535   4.381  11.937
58518W        W31586   3.347  31.949   0.525
58519W        W31587  32.945  39.520   4.727
58520W        W31588  32.642  40.860  14.013
58521W        W31589  39.013  35.984   0.342
58522W        W31590  29.123  18.069   4.410
58523W        W31591  32.468   5.955  11.616
58524W        W31592  13.177   9.323  13.810
58525W        W31593   2.422  42.343   4.910
58526W        W31594  22.789  42.458  14.496
58527W        W31595  43.719  27.499  12.651
58528W        W31596   3.234  11.658   2.873
58529W        W31597   4.924  36.557   1.644
58530W        W31598  43.874  26.194  14.537
58531W        W31599  35.032  32.405   1.154
58532W        W31600  22.049  16.332  12.837
58533W        W31601  19.319  25.663   1.687
58534W        W31602  29.603   3.288  13.427
58535W        W31603  10.281  27.939   0.969
58536W        W31604   8.233  28.137   4.300
58537W        W31605  17.989  20.664  12.081
58538W        W31606  10.851   2.570  12.713
58539W        W31607   8.510   4.300   2.418
58540W        W31608  40.541  18.534  11.443
58541W        W31609  17.361   1.397   0.413
58542W        W31610  34.883  32.662   4.569
58543W        W31611  11.108  18.272  14.989
58544W        W31612   8.465  38.999   1.769
58545W        W31613  18.015  40.791  11.793
58546W        W31614  30.612  33.525   2.388
58547W        W31615  31.206  35.868   1.443
58548W        W31616   1.668  36.779   1.398
58549W        W31617  36.552  24.611  12.521
58550W        W31618  37.904   6.954   3.711
58551W        W31619  30.406  16.819   4.357
58552W        W31620   8.141  23.064   0.326
58553W        W31621  32.405  24.628   0.281
58554W        W31622  28.719  20.639  11.907
58555W        W31623  20.564  25.046   2.703
58556W        W31624  40.960   7.189  10.206
58557W        W31625  27.605  24.642   2.754
58558W        W31626  30.371  17.113  11.624
58559W        W31627  39.020  44.791  12.435
58560W        W31628  25.538  29.898   1.280
58561W        W31629  44.701  43.350   0.754
58562W        W31630  30.942  43.497   1.888
58563W        W31631  42.805   2.320   4.107
58564W        W31632   8.806   4.045  13.725
58565W        W31633  39.960   0.472  13.435
58566W        W31634  25.488  12.428   0.751
58567W        W31635  18.263  33.541  11.685
58568W        W31636  42.662  25.222  14.498
58569W        W31637  10.643  38.113  12.874
58570W        W31638  38.016  38.522   0.447
58571W        W31639  13.075  15.120   1.430
58572W        W31640  32.551  34.457   0.207
58573W        W31641  17.635  14.651  13.021
58574W        W31642  44.460   9.233  14.358
58575W        W31643  25.675  23.195   4.526
58576W        W31644  33.909  29.094  11.045
58577W        W31645  27.564  18.222  14.832
58578W        W31646  31.068  25.178  12.312
58579W        W31647  33.835   4.429  13.486
58580W        W31648  11.144  19.539   3.727
58581W        W31649   0.704  23.053   0.992
58582W        W31650  42.367   3.928   3.785
58583W        W31651  18.222  18.153  11.589
58584W        W31652  11.733  16.941   2.414
58585W        W31653  43.775   8.661  11.394
58586W        W31654  17.065   4.257   2.079
58587W        W31655  13.707   6.713  11.597
58588W        W31656   9.691  38.323  14.989
58589W        W31657  20.496   2.553  13.401
58590W        W31658  20.758   4.860   4.596
58591W        W31659   6.020  42.977   0.679
58592W        W31660  16.735  42.944  12.075
58593W        W31661  40.757  43.427  12.007
58594W        W31662  30.103  44.805   0.286
58595W        W31663  29.958   8.823  12.897
58596W        W31664  34.669  17.188  14.451
58597W        W31665  40.867  28.601   3.908
58598W        W31666   5.286  31.978  12.586
58599W        W31667  33.469  36.425  12.821
58600W        W31668  17.400  28.511   2.840
58601W        W31669  43.982  41.771  14.339
58602W        W31670   1.376  29.443  13.909
58603W        W31671  22.109   7.970  14.924
58604W        W31672  15.385  27.280  12.819
58605W        W31673   1.831  13.875   4.765
58606W        W31674   9.391  21.495   4.581
58607W        W31675  34.776  40.758  11.867
58608W        W31676   7.271  39.983  11.708
58609W        W31677   9.307  31.573  11.193
58610W        W31678   2.769  34.151   3.965
58611W        W31679   0.950   0.328   4.108
58612W        W31680   1.534  28.646   0.895
58613W        W31681  40.315  31.578  12.124
58614W        W31682  39.426  18.876   4.124
58615W        W31683  20.661  39.147   4.656
58616W        W31684  11.922  15.863  12.434
58617W        W31685  41.570  23.900   5.081
58618W        W31686  19.938  16.985  10.725
58619W        W31687   4.000  10.312   4.588
58620W        W31688  40.656  38.825   2.205
58621W        W31689  36.430   6.437  10.682
58622W        W31690  30.345  32.579  11.628
58623W        W31691  28.245  25.273   0.866
58624W        W31692  41.510  27.822  14.002
58625W        W31693  23.948  37.891   1.150
58626W        W31694  14.366  16.272   3.460
58627W        W31695  44.362   5.838  12.253
58628W        W31696  24.711  20.930  11.119
58629W        W31697  13.370  28.953   3.300
58630W        W31698  37.123  42.998  12.014
58631W        W31699  40.022  10.600  12.956
58632W        W31700  38.066  13.140  13.584
58633W        W31701   4.005  14.102  11.553
58634W        W31702   2.379  23.211  14.825
58635W        W31703  21.089   0.456   4.218
58636W        W31704   7.914  16.215   1.155
58637W        W31705  43.331  10.524  13.417
58638W        W31706  32.996  11.519  10.367
58639W        W31707  39.402  20.538   2.650
58640W        W31708  28.934  12.798  11.602
58641W        W31709  42.738  11.124  13.868
58642W        W31710  27.001  27.403  12.025
58643W        W31711  29.014  12.640   2.667
58644W        W31712  38.578  40.295   0.841
58645W        W31713  39.383  42.451   2.022
58646W        W31714  14.531   9.782   1.478
58647W        W31715  15.051  38.970   1.652
58648W        W31716  24.973  27.857   4.107
58649W        W31717   8.271  43.728   4.785
58650W        W31718  39.088   7.919  14.867
58651W        W31719   7.792  35.503  12.451
58652W        W31720  33.440  19.193   0.540
58653W        W31721  32.924  42.316   1.223
58654W        W31722  26.399   1.860  14.949
58655W        W31723  21.513   8.675   1.274
58656W        W31724  41.466  12.005  12.991
58657W        W31725  16.958  37.597  13.886
58658W        W31726  22.726   8.949   0.511
58659W        W31727  31.127  14.741   4.656
58660W        W31728  42.310   4.334   0.836
58661W        W31729  38.352   6.366  14.859
58662W        W31730   8.795  21.949  11.923
58663W        W31731  36.952  16.357  14.303
58664W        W31732  31.282  42.953  11.715
58665W        W31733  10.785  14.082  12.935
58666W        W31734  38.971  36.917  11.522
58667W        W31735  18.266  33.021  11.022
58668W        W31736  13.285  12.823  12.515
58669W        W31737  17.325  38.503   3.709
58670W        W31738  23.455  37.060  11.201
58671W        W31739  44.435  27.339   1.123
58672W        W31740   8.375   3.807   2.362
58673W        W31741  21.257   2.688  10.125
58674W        W31742  29.007  29.997   0.774
58675W        W31743  25.089   0.495   4.853
58676W        W31744  36.771  29.920  14.321
58677W        W31745  34.908   1.240  12.951
58678W        W31746   3.792  42.041  10.845
58679W        W31747   2.132  21.581  13.621
58680W        W31748  30.555  41.316  14.820
58681W        W31749  31.271   8.146   3.052
58682W        W31750  34.618  44.695  11.140
58683W        W31751  35.051  37.365   0.805
58684W        W31752  35.949  39.841   3.644
58685W        W31753  38.259  39.083   3.125
58686W        W31754  41.232  29.841  11.231
58687W        W31755  27.506  21.635  11.335
58688W        W31756  38.085  25.047   0.796
58689W        W31757   5.875  20.112  14.358
58690W        W31758  12.697   7.663   3.407
58691W        W31759  33.108  29.546   3.133
58692W        W31760  42.311  26.721   4.340
58693W        W31761   2.503  16.573   3.569
58694W        W31762  42.003  12.860   3.598
58695W        W31763  21.256  26.964  14.950
58696W        W31764   3.654  13.796   1.993
58697W        W31765  20.487  15.700  14.452
58698W        W31766  22.434   5.272  13.866
58699W        W31767  25.023  12.156   0.733
58700W        W31768  43.428  22.016   2.745
58701W        W31769  21.256   6.644  10.517
58702W        W31770  42.422   7.251  13.061
58703W        W31771  31.190  20.208   2.257
58704W        W31772  38.509  33.812   1.709
58705W        W31773  27.050   6.518  11.644
58706W        W31774   2.003  10.326  10.735
58707W        W31775  21.427  28.623  13.311
58708W        W31776  13.058   7.282  14.924
58709W        W31777  28.623  19.683  11.298
58710W        W31778  26.125  44.786  14.864
58711W        W31779  40.569   9.630   2.956
58712W        W31780   8.673  38.982  12.570
58713W        W31781  15.559   0.401  14.807
58714W        W31782   4.442  16.879   0.410
58715W        W31783  33.558   8.791  14.441
58716W        W31784  41.781   9.580   1.873
58717W        W31785  16.310  22.543   4.619
58718W        W31786  25.414  17.171  13.533
58719W        W31787  17.161  24.206  14.524
58720W        W31788   6.239  19.554   0.310
58721W        W31789   4.333  22.532   1.102
58722W        W31790  15.284  10.324  14.526
58723W        W31791  28.188  19.604  10.447
58724W        W31792  17.647  25.975   1.328
58725W        W31793  21.575  10.004  12.102
58726W        W31794  37.897  22.050   2.365
58727W        W31795   3.749  41.093  13.915
58728W        W31796  43.718   1.911   1.270
58729W        W31797  41.826  26.726   2.415
58730W        W31798  44.856  20.695   3.270
58731W        W31799   5.422   3.965  12.361
58732W        W31800   3.194  20.217  11.372
58733W        W31801  16.789  25.346  12.414
58734W        W31802  40.475  43.869   3.251
58735W        W31803  18.763   5.607   4.067
58736W        W31804  19.178  18.586  13.534
58737W        W31805  10.529   8.248  13.432
58738W        W31806  14.163  39.760   0.520
58739W        W31807  36.478   1.340   0.330
58740W        W31808  10.217  25.618   0.669
58741W        W31809  37.502  16.525   1.884
58742W        W31810  44.815  28.853   1.148
58743W        W31811   9.298  41.434   4.125
58744W        W31812  37.569  20.574   0.239
58745W        W31813  34.837  13.644  13.419
58746W        W31814  20.289  23.128  11.023
58747W        W31815   3.854   6.918  12.657
58748W        W31816  38.406  29.853   1.038
58749W        W31817  23.308  40.527   2.570
58750W        W31818  18.797  41.214   2.147
58751W        W31819  36.976  33.153   1.848
58752W        W31820   1.813  44.315  10.675
58753W        W31821   2.183  32.593  12.754
58754W        W31822  15.672  23.980   1.300
58755W        W31823  40.864  40.879  13.979
58756W        W31824  40.027  40.284  13.464
58757W        W31825  34.118  20.364  11.016
58758W        W31826   6.779   7.696   4.117
58759W        W31827   6.420  12.335   3.738
58760W        W31828  20.575  36.087   3.509
58761W        W31829  44.231  11.707  14.332
58762W        W31830  22.808  33.147   3.843
58763W        W31831  14.093  23.743   3.592
58764W        W31832  26.051  40.527   5.129
58765W        W31833  19.591  23.770   4.248
58766W        W31834  37.647  28.005   2.298
58767W        W31835   0.527  37.405  11.422
58768W        W31836  39.478  14.306   0.401
58769W        W31837  25.661  44.996  13.936
58770W        W31838   5.468  29.244  12.058
58771W        W31839  21.284  33.059  11.350
58772W        W31840  44.023  26.145  12.692
58773W        W31841  31.077   1.390  12.379
58774W        W31842  28.671  14.479   0.334
58775W        W31843  31.215   6.472  14.857
58776W        W31844  43.117   6.760   1.638
58777W        W31845  11.581  15.042  10.309
58778W        W31846   9.323  28.667  14.915
58779W        W31847   2.777  20.657   1.376
58780W        W31848  13.047  44.883   1.405
58781W        W31849  17.768  41.982  11.243
58782W        W31850  26.197  37.359  11.447
58783W        W31851   6.750   6.796  14.478
58784W        W31852  14.472   9.272  13.391
58785W        W31853  24.600  20.336  12.112
58786W        W31854  37.424   2.707  13.809
58787W        W31855  29.954  28.257   3.345
58788W        W31856  28.165  16.744   3.660
58789W        W31857  20.748  14.125  12.199
58790W        W31858  34.997  26.031   4.903
58791W        W31859  37.309   3.724  11.395
58792W        W31860   2.804  20.014  12.289
58793W        W31861   7.984   9.134   5.147
58794W        W31862   2.314  10.343   2.114
58795W        W31863  13.264  14.065   2.276
58796W        W31864  29.225   8.357   0.244
58797W        W31865  25.382   7.692  10.723
58798W        W31866   1.443  34.389  11.662
58799W        W31867  18.881  15.889   1.472
58800W        W31868  13.627  15.148   4.284
58801W        W31869  34.599   5.296   4.532
58802W        W31870  28.987  12.052   2.669
58803W        W31871   4.192  23.595   0.920
58804W        W31872  19.281  29.748  13.410
58805W        W31873  35.371  39.990  13.799
58806W        W31874  39.284   1.406  11.091
58807W        W31875  10.170  24.763   3.208
58808W        W31876  32.547  14.679   2.912
58809W        W31877  23.462   0.191  11.633
58810W        W31878  26.181  34.817   2.885
58811W        W31879  39.582   8.274   1.208
58812W        W31880  32.407  33.104  12.570
58813W        W31881  13.551  25.343   3.747
58814W        W31882  13.781  12.824   2.264
58815W        W31883  34.569  14.990  14.903
58816W        W31884  17.198  34.554   2.147
58817W        W31885   0.256  13.788   2.308
58818W        W31886  41.204  41.273  13.980
58819W        W31887  24.103  32.868   0.802
58820W        W31888   4.572  17.922   1.809
58821W        W31889  20.942  42.548  14.246
58822W        W31890  21.237  14.062   5.380
58823W        W31891   3.072  39.996   4.899
58824W        W31892  31.570  28.059   3.196
58825W        W31893  44.436  14.175  13.365
58826W        W31894  18.253  27.525   2.768
58827W        W31895   1.758  21.326  13.891
58828W        W31896  14.010  11.834  10.641
58829W        W31897  38.442   5.181   3.342
58830W        W31898   0.450  37.217   3.640
58831W        W31899   8.208  27.960  11.319
58832W        W31900   3.844  27.285   3.792
58833W        W31901   7.560  25.207   4.711
58834W        W31902  21.574  34.504  13.960
58835W        W31903  40.962  16.068  10.221
58836W        W31904  44.019  16.235   4.641
58837W        W31905  12.798  16.538   1.468
58838W        W31906  30.179  43.026  10.606
58839W        W31907  36.850  41.184  10.820
58840W        W31908   1.176  43.412   2.023
58841W        W31909   5.696   1.382  13.376
58842W        W31910  26.548  18.500  12.236
58843W        W31911   5.433  12.285  11.791
58844W        W31912  42.436  14.322  10.581
58845W        W31913  17.236  19.667   0.679
58846W        W31914  30.259  28.550  10.479
58847W        W31915  33.617  21.038   4.548
58848W        W31916  34.339   4.369  12.586
58849W        W31917  14.611  35.570  11.391
58850W        W31918  10.625  24.771   2.889
58851W        W31919  21.236  40.445  12.857
58852W        W31920  11.918   1.481  12.335
58853W        W31921  15.648   9.179   2.689
58854W        W31922  28.861  11.622  14.716
58855W        W31923   4.848  38.720  13.148
58856W        W31924   0.334  10.141   4.921
58857W        W31925  29.053  40.289   4.147
58858W        W31926  30.206   1.022   3.289
58859W        W31927   0.340   3.772   3.190
58860W        W31928   1.505  24.694  13.758
58861W        W31929  20.062  11.660   1.963
58862W        W31930  27.047  10.219   4.931
58863W        W31931  14.367  39.017  11.221
58864W        W31932  43.349  43.898   3.395
58865W        W31933  20.123  34.057  14.583
58866W        W31934  26.534   7.902   4.465
58867W        W31935  39.039   1.180  14.369
58868W        W31936  19.166  43.318   4.172
58869W        W31937  21.249  15.654   5.051
58870W        W31938  41.086  17.327  14.421
58871W        W31939   2.215  10.786   1.860
58872W        W31940   2.186   1.512  13.316
58873W        W31941   8.661  40.308   3.679
58874W        W31942  23.478  29.033   0.470
58875W        W31943  27.490   1.500  12.874
58876W        W31944  41.790  31.530  12.528
58877W        W31945  36.883  24.173  11.895
58878W        W31946  42.564  25.143   2.730
58879W        W31947   7.795  33.583   4.472
58880W        W31948  10.712  18.143  11.085
58881W        W31949   4.209  20.500   1.726
58882W        W31950   0.671  34.111   4.007
58883W        W31951  18.708  13.712   0.037
58884W        W31952  15.265  14.279  11.882
58885W        W31953  12.393  40.313  14.037
58886W        W31954  40.972  34.799  13.531
58887W        W31955  15.294   7.083   1.676
58888W        W31956  17.759  42.821   2.317
58889W        W31957  34.841  23.140  10.709
58890W        W31958  21.694  17.322   2.132
58891W        W31959   4.865   3.729  10.622
58892W        W31960  40.902  39.889   0.916
58893W        W31961  29.749  37.108  11.681
58894W        W31962  30.242  14.910  11.167
58895W        W31963  27.217  37.553  14.234
58896W        W31964   8.759   9.394   0.916
58897W        W31965   7.675   7.137  13.476
58898W        W31966  36.125  27.478   3.202
58899W        W31967  10.196  37.474  11.971
58900W        W31968   5.462  12.718  13.453
58901W        W31969  27.585  37.092   1.119
58902W        W31970   2.725   9.348   0.445
58903W        W31971  12.543  13.782  10.460
58904W        W31972  19.027  23.966   4.886
58905W        W31973  40.947  36.834  10.564
58906W        W31974  30.852   5.390  13.762
58907W        W31975  14.541   6.306  11.149
58908W        W31976   0.564  27.273  12.409
58909W        W31977   4.255  12.661   4.363
58910W        W31978  44.792   7.431   1.367
58911W        W31979  29.204  23.262   1.551
58912W        W31980   5.181  20.600   0.752
58913W        W31981   2.324  24.410  13.461
58914W        W31982  31.873  18.335  11.072
58915W        W31983  41.111  13.897   9.728
58916W        W31984  32.720   4.276   3.255
58917W        W31985  36.787   1.162   4.815
58918W        W31986  18.884  26.417   1.685
58919W        W31987  28.046  36.423   1.947
58920W        W31988   1.474  23.606   3.724
58921W        W31989  33.990   0.484   2.728
58922W        W31990  31.379  21.999   2.229
58923W        W31991  40.555  44.457  14.027
58924W        W31992   2.207   9.837   1.907
58925W        W31993  12.111  15.534   1.705
58926W        W31994  10.921  19.138   0.337
58927W        W31995  20.106   1.469   3.840
58928W        W31996  21.870  35.821   0.958
58929W        W31997  42.633   8.390  14.752
58930W        W31998  22.421   2.428  11.466
58931W        W31999  23.138   7.961  13.955
58932W        W32000  11.197   3.758  10.572
58933W        W32001  40.371   5.894   0.991
58934W        W32002  27.482   1.989  13.092
58935W        W32003   9.772  32.090  11.448
58936W        W32004  15.224  23.232   1.053
58937W        W32005   7.321  31.825  12.003
58938W        W32006  29.330  14.040  12.029
58939W        W32007  16.831  26.178   4.051
58940W        W32008  34.352   8.040  11.882
58941W        W32009   9.729   0.268   4.258
58942W        W32010  26.097   2.476  13.386
58943W        W32011   7.940   1.943  11.081
58944W        W32012  33.098  25.591  11.229
58945W        W32013  10.129  31.665  12.585
58946W        W32014   9.294   8.792   1.251
58947W        W32015  44.037  30.915   2.311
58948W        W32016  36.566  19.054  11.011
58949W        W32017  35.054  22.180  12.734
58950W        W32018  15.726  35.419  12.809
58951W        W32019  39.284   4.826   0.373
58952W        W32020   8.965  34.279  12.022
58953W        W32021  20.618  36.508  13.329
58954W        W32022  15.258   2.844   0.635
58955W        W32023   8.908  40.467  11.649
58956W        W32024  25.550  28.152  12.431
58957W        W32025  10.553  14.201  10.401
58958W        W32026   6.239  44.712   2.862
58959W        W32027   5.906   8.299   3.165
58960W        W32028  16.725  40.004   4.188
58961W        W32029  25.747  19.521   4.627
58962W        W32030  14.220   6.012  11.463
58963W        W32031   3.514  33.044   1.826
58964W        W32032  10.534  15.315  12.571
58965W        W32033   7.867  19.627  13.672
58966W        W32034  18.592   8.727  12.812
58967W        W32035  38.319   1.515  13.785
58968W        W32036  21.174  38.831   3.668
58969W        W32037  19.169  12.317   2.172
58970W        W32038  38.879  22.229  13.094
58971W        W32039  23.706  12.830   4.077
58972W        W32040   4.407  25.088   4.701
58973W        W32041   2.312  16.736   4.603
58974W        W32042   0.412  19.076   3.231
58975W        W32043  16.611  37.564  11.274
58976W        W32044   7.691  19.857  12.816
58977W        W32045  10.941  26.042   3.601
58978W        W32046  21.207  34.538  14.548
58979W        W32047  40.944   8.639  13.577
58980W        W32048  44.472  23.440  13.516
58981W        W32049  29.222  36.574   2.245
58982W        W32050  33.900  15.999   0.793
58983W        W32051   3.397  36.915  12.992
58984W        W32052  12.162   7.665   1.391
58985W        W32053  38.673   2.823  11.667
58986W        W32054  38.106  32.099   2.799
58987W        W32055  14.867  41.268   1.277
58988W        W32056   4.241  38.758   3.268
58989W        W32057   3.781  43.261  12.968
58990W        W32058  22.791  20.775  13.062
58991W        W32059  23.394  36.407  10.682
58992W        W32060   9.261   0.263   4.986
58993W        W32061   3.468  39.302  13.489
58994W        W32062  18.006  28.607  13.972
58995W        W32063  25.788  28.275   3.427
58996W        W32064  43.357  22.243   1.435
58997W        W32065  39.864   8.275   5.711
58998W        W32066  29.864  44.037   1.746
58999W        W32067  31.192  15.417   4.178
59000W        W32068  40.036  12.849   2.876
59001W        W32069  37.653  18.305  12.602
59002W        W32070  23.527   2.798   1.773
59003W        W32071  40.581  30.058   0.197
59004W        W32072  44.930  27.828   4.586
59005W        W32073  28.748  24.295   2.330
59006W        W32074  31.551  26.497   2.286
59007W        W32075  42.473  40.519  14.809
59008W        W32076  12.050   9.824  12.543
59009W        W32077  18.665  32.026   1.998
59010W        W32078  21.170  12.646  12.115
59011W        W32079  40.595   0.410  14.274
59012W        W32080   1.248  19.994   0.787
59013W        W32081  38.467  20.747   2.840
59014W        W32082   2.378  44.127  10.258
59015W        W32083  13.225  26.441  11.184
59016W        W32084  34.122  25.233   0.455
59017W        W32085  27.685  42.176  10.686
59018W        W32086  21.807  32.962  11.441
59019W        W32087  16.051   0.974   0.422
59020W        W32088  35.799  38.637   0.278
59021W        W32089  33.503  23.235   4.218
59022W        W32090   0.550  42.976   3.502
59023W        W32091  34.070  32.869  14.539
59024W        W32092   5.849  20.004  13.307
59025W        W32093   4.066  38.153  14.442
59026W        W32094   9.816  43.520  11.512
59027W        W32095  36.972  14.739   0.499
59028W        W32096  10.968  15.593  12.463
59029W        W32097  30.612  21.798   1.882
59030W        W32098  41.592  39.346   4.509
59031W        W32099  29.169  29.328  12.917
59032W        W32100  15.666  23.126  12.409
59033W        W32101  18.292  35.077   2.355
59034W        W32102   4.604  20.413  14.990
59035W        W32103  42.323   4.513   0.000
59036W        W32104   5.691   8.183   4.848
59037W        W32105  13.591  33.874  12.624
59038W        W32106  25.909  16.250   3.266
59039W        W32107  26.400  12.394   3.423
59040W        W32108   9.412  37.327  14.470
59041W        W32109   5.217  14.223  12.360
59042W        W32110  44.296   6.045   1.010
59043W        W32111  22.257   9.174   0.385
59044W        W32112  14.615  37.756  11.504
59045W        W32113  44.987   1.283   1.094
59046W        W32114  36.125  17.848  11.591
59047W        W32115   2.738  37.793  14.830
59048W        W32116  33.071   6.223  14.272
59049W        W32117   8.314   3.498   3.061
59050W        W32118   6.755  15.973   2.248
59051W        W32119  35.112  20.553   1.499
59052W        W32120  25.911  44.768   0.858
59053W        W32121   6.664  14.333  12.769
59054W        W32122  32.188  35.129   4.091
59055W        W32123  42.556   5.220   1.230
59056W        W32124  30.095   5.820   4.878
59057W        W32125   6.942   2.952   2.230
59058W        W32126  16.537  44.919  12.485
59059W        W32127  40.174  24.091  11.075
59060W        W32128  25.194  12.915   0.276
59061W        W32129  19.093  38.265  12.057
59062W        W32130  44.986  15.082   4.935
59063W        W32131  39.781  36.958  11.914
59064W        W32132  40.627  40.845   1.095
59065W        W32133  10.078  29.515   0.339
59066W        W32134  33.599  26.661   3.192
59067W        W32135  17.237  16.555   4.195
59068W        W32136  34.308  17.574   1.643
59069W        W32137   0.964  22.399  12.905
59070W        W32138  44.474  26.085  12.434
59071W        W32139  18.027  40.301  13.496
59072W        W32140  18.669  35.100  11.042
59073W        W32141  22.016   2.484   2.353
59074W        W32142  31.976   2.915  13.360
59075W        W32143  40.039  36.855  10.523
59076W        W32144  26.755  28.735  11.649
59077W        W32145  13.229  22.464  12.581
59078W        W32146  41.965  29.468   5.534
59079W        W32147  28.247  40.393  11.497
59080W        W32148  37.828  17.306   3.029
59081W        W32149   5.670   4.828  14.505
59082W        W32150   2.433   3.750   2.612
59083W        W32151   5.391  15.537   3.287
59084W        W32152  32.122   2.515   2.639
59085W        W32153  28.395  14.871   0.901
59086W        W32154  33.393  14.629  13.553
59087W        W32155   3.451  42.453   1.827
59088W        W32156  35.387  19.337   5.002
59089W        W32157  18.208  34.148   0.840
59090W        W32158   9.589  33.917   4.245
59091W        W32159  15.850  10.205   1.380
59092W        W32160   8.477  13.240  13.778
59093W        W32161   4.794  15.664  11.238
59094W        W32162  23.429  38.459  11.815
59095W        W32163  10.519  33.631   1.718
59096W        W32164  19.164  13.598  14.753
59097W        W32165  32.811  23.542   4.327
59098W        W32166   7.072  25.457  12.061
59099W        W32167  38.499  34.441  12.871
59100W        W32168   4.562   1.444   4.270
59101W        W32169  31.615   0.027  11.908
59102W        W32170   1.366  31.839   0.883
59103W        W32171  44.496  21.607   2.273
59104W        W32172  43.661  43.379  11.995
59105W        W32173  14.884  28.582  10.053
59106W        W32174  32.000  12.088   3.692
59107W        W32175  13.147  42.567   5.116
59108W        W32176  44.823   0.308   4.743
59109W        W32177  15.738  16.564   2.685
59110W        W32178  16.990  39.713  14.305
59111W        W32179   1.166  39.004   2.616
59112W        W32180  34.595   5.310   1.348
59113W        W32181  36.032  27.456   1.367
59114W        W32182  23.231  12.466   3.919
59115W        W32183  18.785  16.101  10.407
59116W        W32184   2.307  30.252  14.365
59117W        W32185  39.852  16.906   0.963
59118W        W32186  13.821   5.471   2.779
59119W        W32187  16.519  22.343   4.145
59120W        W32188  14.021  38.469  12.440
59121W        W32189   8.790  24.096   2.215
59122W        W32190  39.834  14.754   5.315
59123W        W32191   6.271   4.855  13.163
59124W        W32192  16.335  32.438  12.945
59125W        W32193  38.998  34.689   2.636
59126W        W32194  19.747  37.480   4.685
59127W        W32195   4.918  20.760  12.893
59128W        W32196  17.247  42.002  11.231
59129W        W32197  29.060  40.789   4.119
59130W        W32198  19.204  16.940  13.953
59131W        W32199   8.745  40.062   0.699
59132W        W32200  30.941   7.960   1.594
59133W        W32201  30.187   2.881   1.340
59134W        W32202  38.344  34.909  13.667
59135W        W32203  11.752   3.929   4.716
59136W        W32204  40.048  17.745   2.389
59137W        W32205  15.054  26.929   0.528
59138W        W32206  22.394  16.042   0.615
59139W        W32207  21.551   7.744   1.901
59140W        W32208  20.973  21.535   3.535
59141W        W32209  18.498  15.076   3.754
59142W        W32210  24.489   4.534  12.487
59143W        W32211  18.819  38.931   0.690
59144W        W32212   5.244  13.737  14.890
59145W        W32213   1.804  19.590   2.199
59146W        W32214  15.849  12.662   3.831
59147W        W32215  39.958  29.705   0.373
59148W        W32216  35.991  18.751  10.786
59149W        W32217  18.126  21.546  12.180
59150W        W32218  10.334   4.912  11.964
59151W        W32219  13.254  38.436   1.914
59152W        W32220   5.702   0.578   0.262
59153W        W32221  39.615  43.286   3.354
59154W        W32222  44.281   1.703  13.233
59155W        W32223  42.703  25.484   0.786
59156W        W32224   8.925  32.879  14.804
59157W        W32225  28.023  10.695   2.767
59158W        W32226   4.446   9.553  12.973
59159W        W32227  38.023  20.001   3.268
59160W        W32228  26.027   7.741   0.354
59161W        W32229  41.489  18.008   3.338
59162W        W32230   0.366  36.358  11.709
59163W        W32231  27.432  12.455  12.834
59164W        W32232  15.748  31.495  12.952
59165W        W32233  39.416  17.248  12.133
59166W        W32234   7.370  44.967   4.209
59167W        W32235  33.210  10.096   3.215
59168W        W32236  34.344  14.795   0.355
59169W        W32237  14.593  11.887  14.411
59170W        W32238  36.416   0.043   1.628
59171W        W32239   8.364  41.864   2.310
59172W        W32240  25.664  23.224   1.162
59173W        W32241   7.100  12.127   3.187
59174W        W32242  21.988  29.615  14.900
59175W        W32243  11.840  13.292  13.369
59176W        W32244   3.368  19.680   0.926
59177W        W32245   5.646  17.612  13.519
59178W        W32246  27.574   4.317  14.551
59179W        W32247  20.559  34.902  10.190
59180W        W32248  11.313  38.540   4.939
59181W        W32249   2.457  27.057   2.279
59182W        W32250  22.616  34.566   1.817
59183W        W32251  22.421  10.266  10.280
59184W        W32252   2.650  43.348  14.889
59185W        W32253  15.802  44.620  10.095
59186W        W32254   1.860  25.475   0.407
59187W        W32255   2.295  19.161   2.420
59188W        W32256  34.635  18.601   3.654
59189W        W32257  21.697  18.188   3.217
59190W        W32258  43.291  21.335   4.318
59191W        W32259  42.999   6.282   4.649
59192W        W32260  23.214  24.084   1.972
59193W        W32261  13.556  39.617  14.841
59194W        W32262  28.720  20.938  12.517
59195W        W32263  19.166   3.470  14.769
59196W        W32264  41.755   1.976   0.411
59197W        W32265   2.309  41.990  12.009
59198W        W32266   7.697   9.728  13.536
59199W        W32267  21.144  16.526   3.274
59200W        W32268  44.237   3.779   2.278
59201W        W32269  13.082  23.747   3.258
59202W        W32270  42.262  19.021  12.851
59203W        W32271  44.835  28.086   2.779
59204W        W32272  17.273  13.839  12.610
59205W        W32273  30.387   8.662   1.489
59206W        W32274  16.026  23.518   1.751
59207W        W32275  25.765   7.419  10.998
59208W        W32276  18.758  37.889   0.675
59209W        W32277   8.071  44.534   2.857
59210W        W32278   8.677  20.751  10.643
59211W        W32279  20.365  21.707  11.369
59212W        W32280  30.118   9.265  14.351
59213W        W32281   7.110  21.650  12.425
59214W        W32282   5.645  15.707  14.607
59215W        W32283  43.478  13.738  10.545
59216W        W32284  12.642  43.954   4.670
59217W        W32285  24.945  37.007  12.965
59218W        W32286  43.980  38.457  13.990
59219W        W32287   9.111  31.170   3.187
59220W        W32288  34.558   8.877  14.019
59221W        W32289  43.689   9.368   4.530
59222W        W32290   5.282  20.665  11.939
59223W        W32291  10.388  28.617  12.125
59224W        W32292   9.471  12.461  14.084
59225W        W32293  32.641  30.640  11.536
59226W        W32294  24.894  36.019  11.567
59227W        W32295  38.893  24.236  12.953
59228W        W32296  25.887  26.502   2.189
59229W        W32297  41.912  23.818   4.148
59230W        W32298  26.208   5.921  14.841
59231W        W32299   9.721  22.507   2.163
59232W        W32300   9.654   7.602  13.205
59233W        W32301  17.211   9.179   4.113
59234W        W32302  34.772  41.934  14.826
59235W        W32303  33.008   0.986  12.550
59236W        W32304  10.385  20.026   0.416
59237W        W32305  22.035  26.110  14.549
59238W        W32306  37.328  28.114  14.988
59239W        W32307   4.687  33.288   5.139
59240W        W32308  41.358   5.810  10.983
59241W        W32309  44.223  35.089   4.200
59242W        W32310  36.395  33.700   4.636
59243W        W32311   7.310  18.296   4.196
59244W        W32312  20.803  43.544  11.601
59245W        W32313  40.872  29.904   2.444
59246W        W32314   3.595   9.043  10.270
59247W        W32315  29.872  29.350   4.625
59248W        W32316  26.026  34.362   3.124
59249W        W32317   9.677  40.938   1.799
59250W        W32318  28.912  12.142  14.744
59251W        W32319  13.852  13.927   3.733
59252W        W32320  31.567   2.717   0.010
59253W        W32321  17.313   8.203   4.470
59254W        W32322  35.064  19.680  11.809
59255W        W32323  29.945  29.169   3.732
59256W        W32324  34.993  27.967   4.711
59257W        W32325   0.226  25.423   2.713
59258W        W32326  27.993  37.995   4.588
59259W        W32327  36.918  32.630   1.763
59260W        W32328   5.186  25.587  13.538
59261W        W32329   4.238  18.256  10.229
59262W        W32330   0.577  41.871  12.895
59263W        W32331  20.190  20.856  12.974
59264W        W32332   6.894   2.239  14.006
59265W        W32333   6.896  23.725  13.761
59266W        W32334  16.192  38.384   1.731
59267W        W32335  22.004   9.378   4.003
59268W        W32336  35.386   5.233  12.790
59269W        W32337  30.123   8.909  13.960
59270W        W32338   9.761  40.514  14.325
59271W        W32339  44.307  14.020   4.987
59272W        W32340  38.814  37.892   4.839
59273W        W32341  14.288  24.752   1.905
59274W        W32342  12.116  29.870  13.564
59275W        W32343  17.078  24.977   0.844
59276W        W32344  28.198  12.054  13.481
59277W        W32345  38.837  41.780  14.004
59278W        W32346   0.676  17.175   5.058
59279W        W32347   2.617  43.016  12.661
59280W        W32348  21.563  29.005  13.957
59281W        W32349  19.782  33.778   2.457
59282W        W32350  39.399   3.526  14.824
59283W        W32351  12.287  25.696  14.916
59284W        W32352  20.242  16.290  13.042
59285W        W32353  23.994  25.109  10.633
59286W        W32354  35.365  43.112  12.693
59287W        W32355  29.248  41.957  13.106
59288W        W32356  39.921   0.449   0.958
59289W        W32357  18.726  29.128   3.605
59290W        W32358  11.889  21.949  11.063
59291W        W32359  31.627  42.064   2.351
59292W        W32360  35.601  42.686  12.020
59293W        W32361  35.521   6.664   4.763
59294W        W32362  12.033  31.592  13.864
59295W        W32363   6.390  38.481   1.207
59296W        W32364  23.462   0.244  14.363
59297W        W32365  35.812  31.890  13.966
59298W        W32366   2.179   3.027   1.349
59299W        W32367  17.058  42.862   1.922
59300W        W32368  12.152  26.056   4.328
59301W        W32369   1.715   4.747   0.380
59302W        W32370  43.562  13.442   4.626
59303W        W32371  27.576  12.716   4.635
59304W        W32372  10.365  20.083  11.872
59305W        W32373  27.436  11.729  12.426
59306W        W32374   3.353  36.243  13.354
59307W        W32375  26.558  22.179   1.792
59308W        W32376  32.216  42.715  13.980
59309W        W32377   0.711  23.191   4.628
59310W        W32378  15.756  11.701  11.602
59311W        W32379  16.616   0.598   0.931
59312W        W32380  14.103   1.769   1.905
59313W        W32381  10.155  15.237   2.164
59314W        W32382  21.326  44.198  12.378
59315W        W32383  43.883  44.887   2.821
59316W        W32384  44.564  25.773  14.968
59317W        W32385   3.478  22.964   3.579
59318W        W32386  28.586  23.075  11.208
59319W        W32387  23.058  37.576   4.973
59320W        W32388  13.722  36.069   0.294
59321W        W32389   1.857  44.040  11.112
59322W        W32390  24.462  42.367   2.388
59323W        W32391   4.541   7.656  12.859
59324W        W32392   4.656   2.049   2.730
59325W        W32393  41.943  11.213   2.648
59326W        W32394  33.849  44.870   0.036
59327W        W32395   5.819  43.004  13.978
59328W        W32396  34.904   5.951   4.094
59329W        W32397   1.064  19.062  10.866
59330W        W32398  39.035  28.062   2.224
59331W        W32399  20.781  10.645   0.746
59332W        W32400  22.295   2.243  14.861
59333W        W32401  31.147  12.245   4.396
59334W        W32402  17.856  36.396  12.151
59335W        W32403   7.805  18.130  13.470
59336W        W32404  34.862  16.289   1.227
59337W        W32405  13.600  26.037   1.325
59338W        W32406   5.799  25.197   2.579
59339W        W32407  30.781  33.681  14.701
59340W        W32408   6.630  39.383  12.675
59341W        W32409  22.195  28.476  10.983
59342W        W32410  36.224  36.868   1.984
59343W        W32411  43.539  44.282   3.838
59344W        W32412  30.539   6.349   1.243
59345W        W32413  16.379  29.575   4.544
59346W        W32414  38.741  30.518  11.473
59347W        W32415  16.527  25.739   1.922
59348W        W32416  14.181  26.194   1.225
59349W        W32417  10.980  44.900   3.717
59350W        W32418  20.328   7.835   2.041
59351W        W32419  34.069   9.662  14.593
59352W        W32420  23.578  38.568  10.885
59353W        W32421  13.348  31.614   5.034
59354W        W32422   8.905  31.920  13.321
59355W        W32423  14.405  20.005   1.685
59356W        W32424  33.069  28.591   1.258
59357W        W32425  44.574  27.195  11.707
59358W        W32426  42.920  30.933   4.559
59359W        W32427  26.431  27.820  11.195
59360W        W32428   6.682  36.930   1.478
59361W        W32429   3.076  13.277  10.682
59362W        W32430  37.976  24.731   3.735
59363W        W32431   1.435  34.561   3.467
59364W        W32432  18.628  16.056  14.248
59365W        W32433  30.422  39.943   3.569
59366W        W32434   5.852  38.911  10.195
59367W        W32435   5.422  37.129   2.331
59368W        W32436  28.507   7.390   4.133
59369W        W32437  32.874  22.658  13.114
59370W        W32438  40.481  29.108  12.662
59371W        W32439  40.376   9.092  10.941
59372W        W32440   9.308  19.245  13.895
59373W        W32441  31.288   6.398  10.248
59374W        W32442  33.041  12.342   2.594
59375W        W32443  40.269  12.040   1.921
59376W        W32444  29.023  28.667   2.394
59377W        W32445  37.631  40.349  11.875
59378W        W32446   3.008  28.707   2.872
59379W        W32447  34.580  14.947  11.864
59380W        W32448  19.098  16.750   1.221
59381W        W32449   6.317  20.183  13.543
59382W        W32450  32.308  11.341  11.114
59383W        W32451  39.821  24.176  12.898
59384W        W32452  39.622  12.499  14.328
59385W        W32453  10.157   2.470  12.023
59386W        W32454  28.635   2.680   2.664
59387W        W32455  13.382   5.560   0.678
59388W        W32456  37.883  21.142  10.733
59389W        W32457  44.311  37.408  13.548
59390W        W32458  38.296  44.255   3.537
59391W        W32459  44.002  11.587  10.636
59392W        W32460   5.539  33.925  14.234
59393W        W32461  26.731  20.478  14.402
59394W        W32462  37.026   1.133  10.668
59395W        W32463   4.866  18.130   0.303
59396W        W32464  23.686  29.955  12.923
59397W        W32465  43.072  15.201  10.637
59398W        W32466  43.534  38.313   3.142
59399W        W32467  13.079  41.590  14.974
59400W        W32468   6.441  36.213  14.447
59401W        W32469  22.046  23.196  14.028
59402W        W32470  44.024  12.199  14.409
59403W        W32471  31.433  40.231   4.156
59404W        W32472  24.959   9.186  10.684
59405W        W32473  14.782  15.295  13.823
59406W        W32474  10.497  22.107   1.873
59407W        W32475  29.601  17.300  13.373
59408W        W32476   8.797  37.232  11.341
59409W        W32477  41.797  11.561   3.236
59410W        W32478  22.142  25.512   1.411
59411W        W32479  15.376  31.628  13.942
59412W        W32480   9.694  35.391   3.248
59413W        W32481  28.068  16.099  13.850
59414W        W32482  30.919  29.460   4.455
59415W        W32483  16.992  35.478   2.288
59416W        W32484   9.656  15.174   1.982
59417W        W32485   4.086  14.761  13.307
59418W        W32486  13.902  15.450  13.413
59419W        W32487  21.765   1.001   1.714
59420W        W32488  39.131  31.131   1.240
59421W        W32489  32.984  34.062   3.571
59422W        W32490  13.821  10.296   3.632
59423W        W32491  25.910  13.741   3.189
59424W        W32492  28.096  31.706   0.910
59425W        W32493  40.944   7.835  13.354
59426W        W32494   7.468   2.966   0.828
59427W        W32495  39.545   1.422   2.697
59428W        W32496   3.846  43.556   4.470
59429W        W32497  26.221   1.204   3.719
59430W        W32498  37.749  43.196   3.635
59431W        W32499  18.229  24.210   0.283
59432W        W32500  25.846  18.764   1.145
59433W        W32501  28.689  14.807   3.401
59434W        W32502  18.500  37.012   4.069
59435W        W32503  37.638  34.589  13.403
59436W        W32504  15.933  21.734  11.219
59437W        W32505  18.245  12.411   2.425
59438W        W32506   2.261   8.816  13.961
59439W        W32507  22.539  20.698  14.735
59440W        W32508  42.587  44.864  11.885
59441W        W32509  32.145  40.456   3.625
59442W        W32510  37.160  40.905   4.614
59443W        W32511  21.540  44.275  11.918
59444W        W32512  34.047   5.331  11.912
59445W        W32513  10.773  21.446  12.118
59446W        W32514  37.420   9.079   0.027
59447W        W32515  39.576  42.790   4.632
59448W        W32516  13.028   9.201   0.555
59449W        W32517  16.499  43.546   0.738
59450W        W32518  40.095  12.032  12.994
59451W        W32519  34.715  10.124  12.585
59452W        W32520  23.082  13.515   1.069
59453W        W32521  39.001  11.926  12.104
59454W        W32522   4.689  27.659   0.849
59455W        W32523   3.427  44.838   4.387
59456W        W32524  39.280  40.908   4.648
59457W        W32525  27.896  19.526   4.625
59458W        W32526  18.042  10.815   3.559
59459W        W32527  20.949   2.291  14.335
59460W        W32528  13.787  23.307   3.658
59461W        W32529   5.896  41.516   1.191
59462W        W32530  10.735  12.259  11.357
59463W        W32531  40.461  38.363   2.372
59464W        W32532   9.865  10.790   3.237
59465W        W32533  28.527  24.883  12.586
59466W        W32534  39.449   2.773  13.157
59467W        W32535  10.380  29.018  11.467
59468W        W32536  21.222  19.486   2.536
59469W        W32537  24.627  18.731   5.000
59470W        W32538  43.408  23.654   3.441
59471W        W32539  31.110  23.722  12.128
59472W        W32540  15.259  13.272   1.852
59473W        W32541   6.216  28.895  12.473
59474W        W32542   3.908  42.109  12.680
59475W        W32543  27.623  11.405  14.560
59476W        W32544  42.994  43.920   1.706
59477W        W32545  43.122   9.398   0.283
59478W        W32546  23.455  36.189   2.728
59479W        W32547  34.475   9.245   4.672
59480W        W32548  38.417   5.755  11.548
59481W        W32549  44.021  23.023   3.101
59482W        W32550   5.706  32.975  11.112
59483W        W32551  10.998  42.896   2.608
59484W        W32552  20.797  31.307  11.712
59485W        W32553  10.413   7.767  11.572
59486W        W32554   2.905  37.971   4.681
59487W        W32555  34.935  15.681   0.334
59488W        W32556  37.569  16.720  11.583
59489W        W32557  25.071   1.728   3.979
59490W        W32558  22.104  42.357   0.690
59491W        W32559  33.699  33.470   3.098
59492W        W32560  31.534  13.079   4.085
59493W        W32561  44.946   0.929   1.454
59494W        W32562  12.736  18.626   2.627
59495W        W32563  43.942  12.614   4.730
59496W        W32564  39.298  14.831   1.036
59497W        W32565  23.053   5.050   0.889
59498W        W32566  22.524  18.684   5.075
59499W        W32567   1.630  35.869  10.999
59500W        W32568   8.006  29.560   4.759
59501W        W32569  36.460  21.474   4.726
59502W        W32570   8.513  13.544   2.347
59503W        W32571  41.995  17.226   3.245
59504W        W32572   4.254  44.801   4.957
59505W        W32573  17.676  22.531  13.554
59506W        W32574   5.812  38.559  14.272
59507W        W32575  43.827  42.401  12.001
59508W        W32576   3.284   1.207  14.042
59509W        W32577   1.699  22.957   0.364
59510W        W32578  26.543  11.915  12.884
59511W        W32579   3.947  21.463  12.508
59512W        W32580  23.911  10.597  13.409
59513W        W32581  21.473  24.606  11.054
59514W        W32582  42.700  25.178   0.385
59515W        W32583  34.283   1.325   0.768
59516W        W32584   2.358  35.991   0.286
59517W        W32585  11.114  39.985   3.329
59518W        W32586  34.358  36.669  11.104
59519W        W32587  14.751  11.874   4.548
59520W        W32588  20.271  20.140  12.452
59521W        W32589  12.191  16.228  10.988
59522W        W32590   6.880   5.668   0.422
59523W        W32591   0.651  38.625  12.837
59524W        W32592  15.657  35.201   5.164
59525W        W32593  38.089  14.800  13.860
59526W        W32594  33.585   3.323   1.674
59527W        W32595  10.643  15.187   0.351
59528W        W32596   0.236  42.774   4.570
59529W        W32597  36.543   2.178  11.572
59530W        W32598  27.509  32.735   1.803
59531W        W32599  25.989  34.363   0.794
59532W        W32600   2.733   2.862  12.160
59533W        W32601  30.172  40.752  14.940
59534W        W32602  26.213  30.666   3.797
59535W        W32603  39.591  30.133  10.780
59536W        W32604  19.352   5.456  14.461
59537W        W32605  12.679  42.568   2.534
59538W        W32606  19.859  25.211   4.754
59539W        W32607  20.021  43.662   3.859
59540W        W32608  24.377  16.699  14.383
59541W        W32609  27.369  38.027  14.109
59542W        W32610  27.961  15.548   0.025
59543W        W32611  27.502  27.265  12.627
59544W        W32612  38.896  15.854  10.163
59545W        W32613   0.012  17.230  13.700
59546W        W32614  39.132  27.436  14.890
59547W        W32615  30.879  40.523  12.044
59548W        W32616   1.164  23.960  13.118
59549W        W32617  15.002  13.326   1.399
59550W        W32618  26.902  18.050  13.281
59551W        W32619   9.710  40.131   2.327
59552W        W32620  10.713  42.307   1.211
59553W        W32621  16.806  26.895   0.783
59554W        W32622  27.547  30.675  12.967
59555W        W32623  13.675   6.532   1.765
59556W        W32624  33.452  19.027  12.183
59557W        W32625  27.044  32.550   0.252
59558W        W32626  23.068  12.305  11.701
59559W        W32627  29.010   6.750   0.820
59560W        W32628  14.356   1.873   4.725
59561W        W32629  19.990  19.454  14.744
59562W        W32630   5.349  18.580  12.821
59563W        W32631  10.673  30.115   0.276
59564W        W32632  39.340  18.539   5.065
59565W        W32633   6.930   9.825   4.099
59566W        W32634  13.685  41.880   3.674
59567W        W32635  43.081   8.535  12.107
59568W        W32636  17.440  14.777  13.475
59569W        W32637  14.878  18.079   1.805
59570W        W32638  31.689  32.726  10.996
59571W        W32639  22.566  37.760  14.391
59572W        W32640  24.555  16.325   0.721
59573W        W32641  20.786  16.145  11.006
59574W        W32642  20.075   6.650   4.527
59575W        W32643  34.629  44.395  11.577
59576W        W32644  18.958  15.656  13.696
59577W        W32645  21.427   8.232   0.689
59578W        W32646  38.862  10.923   3.510
59579W        W32647  22.971  12.884  12.498
59580W        W32648  22.191  44.714  12.894
59581W        W32649  27.974   8.748  11.899
59582W        W32650   7.358  29.689   4.213
59583W        W32651  26.101  24.308  10.839
59584W        W32652  20.639  37.206  14.409
59585W        W32653  17.038  29.473   2.765
59586W        W32654  31.090  38.687  11.965
59587W        W32655  21.404  42.759  14.434
59588W        W32656  27.545  10.202   2.237
59589W        W32657  14.816  37.286  11.262
59590W        W32658  32.919  41.922  10.649
59591W        W32659  22.792  16.224   1.215
59592W        W32660  29.939  27.249  10.726
59593W        W32661   4.158  19.115  14.953
59594W        W32662  29.184  33.552  14.582
59595W        W32663  20.481   4.673  12.444
59596W        W32664  20.015  35.154  12.429
59597W        W32665  24.053  16.195  11.260
59598W        W32666  17.099  43.782   4.773
59599W        W32667  44.854  30.162  10.830
59600W        W32668  12.834   1.439  13.381
59601W        W32669  30.516  41.604   3.137
59602W        W32670  31.021  41.328   1.452
59603W        W32671  15.570  32.902   0.336
59604W        W32672  17.185   7.123   4.223
59605W        W32673  15.810  29.569   3.166
59606W        W32674   1.665  12.230  11.510
59607W        W32675  34.979  22.603   4.951
59608W        W32676   0.223  10.901  10.635
59609W        W32677  21.988  11.795   1.253
59610W        W32678   9.204  38.588  12.489
59611W        W32679  36.509  23.751   1.224
59612W        W32680  20.033  34.062  12.109
59613W        W32681  26.274  20.829   2.028
59614W        W32682  10.898  28.303  14.832
59615W        W32683  35.678  44.894  11.661
59616W        W32684  44.517   5.268   2.365
59617W        W32685   9.260  27.253   1.849
59618W        W32686  25.149  17.187   2.717
59619W        W32687  16.706  43.501  13.024
59620W        W32688   1.845   3.065  12.799
59621W        W32689  42.996  23.528  13.314
59622W        W32690   5.716   9.677  13.978
59623W        W32691  12.222  21.149   0.806
59624W        W32692  34.317  34.112   3.267
59625W        W32693  30.010  12.122   4.197
59626W        W32694  23.610  42.906   0.065
59627W        W32695   6.718   4.112  14.126
59628W        W32696  37.570  27.183  10.783
59629W        W32697   6.352  26.457  11.550
59630W        W32698  35.619   8.729   4.126
59631W        W32699   7.778  34.030  12.412
59632W        W32700   6.328  22.560   0.783
59633W        W32701  39.104   9.246   4.606
59634W        W32702  42.352  10.751   4.706
59635W        W32703  33.574  20.259   4.798
59636W        W32704  13.879  36.529   1.315
59637W        W32705  25.027   7.936   1.198
59638W        W32706   1.918  29.563   1.057
59639W        W32707  21.298  26.622  14.438
59640W        W32708  42.967  20.040   3.232
59641W        W32709   6.215  26.932   2.232
59642W        W32710  29.003  42.833   3.466
59643W        W32711  24.061  27.063   3.209
59644W        W32712  39.363  29.880  13.038
59645W        W32713   8.362  18.138  12.586
59646W        W32714  23.632  26.094   4.116
59647W        W32715  24.019  22.752   1.348
59648W        W32716   6.697  33.676  12.961
59649W        W32717  10.848   7.606  13.862
59650W        W32718  24.721  23.555  12.475
59651W        W32719  28.623   7.947  14.497
59652W        W32720  16.718  14.347  10.763
59653W        W32721  39.022  38.916  11.173
59654W        W32722  44.872  32.498   2.444
59655W        W32723   2.520  14.147  14.723
59656W        W32724  25.037   6.171  14.363
59657W        W32725  10.432  34.450   1.891
59658W        W32726  31.581   7.964   2.291
59659W        W32727  36.870   2.694   4.542
59660W        W32728  19.496  33.404   3.604
59661W        W32729  16.248  23.118   2.393
59662W        W32730   3.910  16.289   2.429
59663W        W32731  24.646  31.212  11.495
59664W        W32732  43.130  12.173   4.575
59665W        W32733  37.489   6.700   3.547
59666W        W32734   1.902   2.778   4.384
59667W        W32735  39.151  13.076   1.289
59668W        W32736  15.541  25.816   3.765
59669W        W32737  14.250  24.470   1.413
59670W        W32738  36.360  12.213   3.893
59671W        W32739  33.343  22.618   1.950
59672W        W32740  10.465  12.551  13.360
59673W        W32741  42.835  42.378  14.309
59674W        W32742  12.224  13.410  13.018
59675W        W32743  21.060  36.468   4.066
59676W        W32744  13.183  23.062   1.950
59677W        W32745   4.226   8.269  11.938
59678W        W32746  12.808  12.410  14.989
59679W        W32747   6.721  29.431  14.121
59680W        W32748   6.694  25.452  14.795
59681W        W32749   9.275  37.282  12.102
59682W        W32750  39.027  13.412  11.191
59683W        W32751  16.552  43.030   0.698
59684W        W32752   0.489  16.512  12.798
59685W        W32753  26.517  28.411   0.647
59686W        W32754  16.810  42.230  13.493
59687W        W32755   7.797  10.833   1.642
59688W        W32756  37.448   0.932   0.948
59689W        W32757  19.292  27.623  11.949
59690W        W32758  12.784   1.182  12.438
59691W        W32759  38.146  29.106  12.910
59692W        W32760  39.034  40.530  13.447
59693W        W32761   7.358  41.425  11.545
59694W        W32762  26.350  21.297   1.832
59695W        W32763  23.639  18.158   4.173
59696W        W32764  26.589  34.915   3.477
59697W        W32765   5.207   1.995  12.020
59698W        W32766  41.069  12.645  14.995
59699W        W32767  33.903  18.516  11.467
59700W        W32768  35.932  22.199   0.249
59701W        W32769  33.400   4.691  14.356
59702W        W32770  43.251  12.452  11.471
59703W        W32771   9.328   1.103  11.663
59704W        W32772  42.676  12.879  14.301
59705W        W32773   4.234  22.374  11.997
59706W        W32774  26.964  23.203   0.277
59707W        W32775  44.927  16.644   4.843
59708W        W32776  24.081  33.042   3.245
59709W        W32777   9.868  42.970  12.732
59710W        W32778  36.273  39.116   0.817
59711W        W32779  28.560   0.032  14.089
59712W        W32780  30.116  33.360   2.493
59713W        W32781  15.274  34.901   1.155
59714W        W32782  10.245  32.544   0.758
59715W        W32783  20.976  29.514  10.335
59716W        W32784  23.151  22.540  12.993
59717W        W32785  17.306   6.407   0.233
59718W        W32786   5.938   2.203   4.761
59719W        W32787  14.189  40.811  12.953
59720W        W32788  43.371  16.622   0.321
59721W        W32789  12.287  18.669   1.173
59722W        W32790  17.843  19.870  14.833
59723W        W32791  12.204  37.757   2.351
59724W        W32792   9.716  39.017   4.820
59725W        W32793  30.117  38.645   3.709
59726W        W32794  29.609   9.159  14.341
59727W        W32795  20.605   2.175  11.609
59728W        W32796  32.087  35.426  14.099
59729W        W32797   1.890  42.043  11.148
59730W        W32798  40.260  41.361   2.690
59731W        W32799  11.896  18.931   3.123
59732W        W32800  39.645   3.277   4.119
59733W        W32801   5.000  22.230  12.997
59734W        W32802  41.476   1.427   1.732
59735W        W32803  24.094  10.100   4.984
59736W        W32804  13.696  38.062   4.543
59737W        W32805  44.433   3.275  11.050
59738W        W32806  22.429  44.028  10.212
59739W        W32807  33.447  16.274   0.840
59740W        W32808  15.071   0.292   1.879
59741W        W32809  19.973  42.242  13.312
59742W        W32810   7.151  44.748   2.967
59743W        W32811  32.414  40.649  12.603
59744W        W32812   3.852  28.441  10.655
59745W        W32813  42.255  24.718  14.731
59746W        W32814  26.535  35.429  10.356
59747W        W32815  19.074  44.073   9.832
59748W        W32816   1.761  31.883   2.174
59749W        W32817  41.287   2.260  14.794
59750W        W32818  18.987  36.037  12.692
59751W        W32819   6.522  20.030   3.659
59752W        W32820  27.564   2.941   1.642
59753W        W32821  27.170   3.419  11.487
59754W        W32822  43.104  35.084  14.023
59755W        W32823  20.285   7.127   0.480
59756W        W32824  43.988  36.421  13.495
59757W        W32825  19.524  26.403  14.106
59758W        W32826  29.325  28.031  11.683
59759W        W32827  41.448   2.023   3.710
59760W        W32828  38.339  10.185   3.066
59761W        W32829  30.508  29.986   3.697
59762W        W32830   2.994   5.705   2.748
59763W        W32831  26.150  39.323  14.383
59764W        W32832  37.974  31.684   5.426
59765W        W32833  39.400  24.472  12.977
59766W        W32834  22.403   4.945   1.731
59767W        W32835  33.449   8.935  11.076
59768W        W32836  32.102  20.931   3.960
59769W        W32837  23.303   6.621   1.967
59770W        W32838  38.340  17.847  13.894
59771W        W32839   2.316  29.821   3.207
59772W        W32840   2.845  26.459   4.109
59773W        W32841   2.512  14.091  11.629
59774W        W32842  37.080   1.456   3.509
59775W        W32843  14.230  40.363  13.487
59776W        W32844  21.511  24.033   2.140
59777W        W32845   7.592  26.654  10.664
59778W        W32846  30.509   1.510  10.415
59779W        W32847   2.310  44.666  14.787
59780W        W32848   4.740  31.635  13.961
59781W        W32849  33.457  28.054  13.994
59782W        W32850  37.415  18.008   0.480
59783W        W32851  19.420  21.725   0.068
59784W        W32852  32.062  35.970   4.508
59785W        W32853  35.783  19.554   4.591
59786W        W32854  17.740  44.818   3.202
59787W        W32855  18.045  11.895   3.159
59788W        W32856  21.338  10.453   2.365
59789W        W32857   0.823  23.908  11.108
59790W        W32858  34.886  10.628   3.691
59791W        W32859  11.997  25.250   5.160
59792W        W32860   0.754   3.011   1.259
59793W        W32861   7.737  39.111  12.040
59794W        W32862  18.321  15.115  13.848
59795W        W32863  35.671   3.722   0.927
59796W        W32864  18.263   1.224   3.333
59797W        W32865  27.924  31.970   2.346
59798W        W32866  33.666  35.050   1.400
59799W        W32867   7.780  40.960   4.534
59800W        W32868   1.656  31.612  12.087
59801W        W32869  41.898  44.903   2.673
59802W        W32870  15.018  40.275  10.682
59803W        W32871  25.159  25.670   1.943
59804W        W32872  40.900  20.491   4.250
59805W        W32873  36.087  12.294  10.710
59806W        W32874  11.619  21.975   0.261
59807W        W32875  41.538   7.289  11.027
59808W        W32876  21.175   7.701   0.332
59809W        W32877   6.125  26.415   2.161
59810W        W32878   4.336  10.924  11.517
59811W        W32879  39.795   7.312  13.915
59812W        W32880   3.449  18.440  11.556
59813W        W32881  21.001  17.725   3.566
59814W        W32882  25.802  18.614   4.930
59815W        W32883  42.373  21.961  14.360
59816W        W32884  25.936  17.729  12.449
59817W        W32885  39.609  27.596   3.249
59818W        W32886   6.602  17.794   2.518
59819W        W32887  22.714  43.327  13.341
59820W        W32888  10.559  30.977   1.435
59821W        W32889  27.167  37.069  14.423
59822W        W32890  13.751  27.866   1.472
59823W        W32891  11.157  44.095   1.887
59824W        W32892  10.157   0.287  10.918
59825W        W32893  15.342  33.166  12.817
59826W        W32894  24.156  24.277   1.494
59827W        W32895   3.957  25.773   2.954
59828W        W32896  12.270  33.690   2.718
59829W        W32897  28.584  31.115   3.185
59830W        W32898  10.153   7.797  14.699
59831W        W32899   5.596  21.573   0.991
59832W        W32900   5.122   5.459   4.538
59833W        W32901   7.343  25.734   4.566
59834W        W32902  32.080  13.177  13.299
59835W        W32903   2.483  40.074   4.156
59836W        W32904   7.873  26.232  11.021
59837W        W32905  24.532  44.989  13.922
59838W        W32906  26.760  29.510  12.803
59839W        W32907  37.966  34.561  13.819
59840W        W32908  29.028  20.484  11.057
59841W        W32909  27.408  23.006  10.684
59842W        W32910   7.840   6.541  10.565
59843W        W32911  12.862  39.116  14.342
59844W        W32912  39.952   9.126   1.830
59845W        W32913  32.520  24.953  14.395
59846W        W32914  41.643  39.031   2.415
59847W        W32915  27.070  40.317  14.956
59848W        W32916   4.226  36.616   4.415
59849W        W32917  25.792  39.450  11.057
59850W        W32918  18.223  44.532  12.049
59851W        W32919  35.361   0.314  12.852
59852W        W32920  35.353  41.320  11.871
59853W        W32921  34.668   0.482  10.654
59854W        W32922  26.141  14.211   3.233
59855W        W32923  27.968   0.383   2.359
59856W        W32924  23.500  14.569   2.813
59857W        W32925  19.932  40.996   4.166
59858W        W32926  40.310   6.132  13.840
59859W        W32927  34.247  37.618   2.170
59860W        W32928  13.274  44.503   4.155
59861W        W32929   3.395  41.378   0.231
59862W        W32930   2.938   0.626   3.997
59863W        W32931  42.088  10.512  14.853
59864W        W32932  36.031  30.591  14.723
59865W        W32933  21.168   6.117  11.180
59866W        W32934  23.725  27.098  11.197
59867W        W32935  44.177  18.289  10.246
59868W        W32936  35.054   0.130   2.759
59869W        W32937  14.886  40.978   4.630
59870W        W32938  30.946   3.426  13.486
59871W        W32939  27.182  35.578  11.577
59872W        W32940  15.671  28.369  12.923
59873W        W32941  37.881   0.018   4.097
59874W        W32942  19.353   8.272   3.651
59875W        W32943  31.214  14.976  14.129
59876W        W32944   0.504  20.644  14.107
59877W        W32945  39.220  41.038  11.983
59878W        W32946  42.011  42.557   3.481
59879W        W32947  37.222  15.570  11.623
59880W        W32948  37.859  23.729   0.428
59881W        W32949   4.391  10.664  10.544
59882W        W32950  40.028  13.278   2.578
59883W        W32951   9.380  37.559  10.180
59884W        W32952  30.791  23.518  10.421
59885W        W32953  13.299  20.894  10.781
59886W        W32954  29.002  22.928   2.387
59887W        W32955  19.642  22.191   4.564
59888W        W32956   8.865  42.349  14.300
59889W        W32957  25.486   3.442  12.026
59890W        W32958   6.662   0.797  14.612
59891W        W32959   1.452  17.519  11.951
59892W        W32960   5.229  24.439  13.913
59893W        W32961  40.794  31.245  11.160
59894W        W32962  17.701  30.143   3.753
59895W        W32963  24.626  11.559  11.867
59896W        W32964  31.044   6.333  12.036
59897W        W32965  36.648  38.236  12.301
59898W        W32966  41.843  26.073   4.323
59899W        W32967  23.532  44.747  12.941
59900W        W32968  40.476  14.291  11.663
59901W        W32969  21.195  32.456   2.421
59902W        W32970  31.469  24.988  13.494
59903W        W32971  33.285  10.850   2.881
59904W        W32972   4.454  30.015   1.968
59905W        W32973  14.175   5.967   4.320
59906W        W32974  19.675  38.431  13.181
59907W        W32975   9.759  15.616   4.718
59908W        W32976  12.622  39.626   0.032
59909W        W32977  11.397  35.122  14.405
59910W        W32978   0.162   0.031  11.090
59911W        W32979  38.695  17.871   4.063
59912W        W32980  11.010  41.437  11.907
59913W        W32981  18.725  11.948  12.099
59914W        W32982  39.042  20.641  12.644
59915W        W32983  27.654  27.639  13.446
59916W        W32984  34.355  36.915  13.949
59917W        W32985  36.252  30.447   4.066
59918W        W32986  38.278  38.016  13.067
59919W        W32987  37.352  25.882   0.970
59920W        W32988   5.610  22.508  12.092
59921W        W32989  29.674  18.103  12.500
59922W        W32990  31.816  39.183   4.097
59923W        W32991   8.156  36.092   4.710
59924W        W32992   0.337  37.532  14.993
59925W        W32993  18.245  41.332   0.012
59926W        W32994  17.346  32.488   0.168
59927W        W32995  15.552  16.640   2.228
59928W        W32996   7.695  15.849  10.300
59929W        W32997  11.351  19.273  12.129
59930W        W32998  39.564  38.814   3.252
59931W        W32999   0.949  41.002  13.390
59932W        W33000  19.696   0.467   2.404
59933W        W33001  23.284  21.030   2.680
59934W        W33002  16.063  31.181  11.881
59935W        W33003  27.019  36.051  14.297
59936W        W33004  32.431  19.398   0.759
59937W        W33005   5.371  29.476  13.624
59938W        W33006   6.481  37.304   0.304
59939W        W33007  44.894  15.234   3.926
59940W        W33008  41.257  16.753  12.475
59941W        W33009   8.862  10.327  12.961
59942W        W33010  42.711  13.690  13.471
59943W        W33011  29.946  39.009  13.956
59944W        W33012  27.375   1.812   0.942
59945W        W33013  42.760  22.140   3.885
59946W        W33014  22.582  19.437   4.584
59947W        W33015  30.118  42.602   0.876
59948W        W33016  14.132   2.058  12.135
59949W        W33017  28.208  15.522   4.246
59950W        W33018  25.984  39.869   0.386
59951W        W33019  12.538   2.307   2.900
59952W        W33020  11.157  37.927  10.812
59953W        W33021  37.644  14.421   5.004
59954W        W33022   8.680  31.018   2.926
59955W        W33023  26.007  22.996   0.302
59956W        W33024  34.053   6.182   2.725
59957W        W33025   2.947  41.861   3.799
59958W        W33026  21.743   8.086   2.229
59959W        W33027  38.110  38.841   0.045
59960W        W33028  31.359  33.609  11.252
59961W        W33029  36.880  31.405  12.515
59962W        W33030  28.574   0.825   1.794
59963W        W33031  42.789  35.645   3.838
59964W        W33032  33.928   1.333  11.630
59965W        W33033  31.407   6.159   3.235
59966W        W33034  16.310  16.124  12.990
59967W        W33035  24.204  12.311   2.840
59968W        W33036  18.737   2.422  12.005
59969W        W33037  43.928  40.541   4.693
59970W        W33038  23.747  11.330   2.686
59971W        W33039  33.466   4.312  11.589
59972W        W33040  13.255  10.523   3.113
59973W        W33041  26.719  36.384   0.278
59974W        W33042   5.527  12.742   0.029
59975W        W33043  27.129  19.514  12.406
59976W        W33044  39.814  44.195  13.354
59977W        W33045  12.849  44.717  13.045
59978W        W33046  13.016  20.268   3.528
59979W        W33047  26.652   1.324   0.839
59980W        W33048  40.902   4.411  14.418
59981W        W33049  10.798  16.963  12.529
59982W        W33050  12.971  38.566  12.602
59983W        W33051  10.760  26.756   2.438
59984W        W33052   0.233   7.770  14.092
59985W        W33053  42.934  38.473   4.515
59986W        W33054  31.012  13.167  11.168
59987W        W33055  39.376  26.911   1.573
59988W        W33056   9.216  19.279  11.200
59989W        W33057  21.107  42.973   3.402
59990W        W33058  24.889  38.602   3.608
59991W        W33059  21.130  41.917   1.900
59992W        W33060  35.123  30.970  12.861
59993W        W33061  27.949  39.608   3.831
59994W        W33062  17.252  37.491   2.850
59995W        W33063  23.948  14.630  11.129
59996W        W33064  15.685   1.640   1.029
59997W        W33065  27.625  37.332  13.330
59998W        W33066  44.406  25.533   0.981
59999W        W33067  19.210  21.538   3.282
60000W        W33068   7.523  40.965   4.982
60001W        W33069  44.276  26.409  11.873
60002W        W33070  10.357  38.076  11.139
60003W        W33071  40.338  40.503   1.352
60004W        W33072  15.615  22.266   3.597
60005W        W33073   2.838  14.207   0.976
60006W        W33074  19.777  24.943   1.235
60007W        W33075   5.897  43.817   2.751
60008W        W33076   7.149  39.481   2.642
60009W        W33077   8.730  29.624  14.055
60010W        W33078  13.249  39.283   2.242
60011W        W33079  18.540   0.969  12.119
60012W        W33080  32.130  34.450  14.021
60013W        W33081  13.636  15.172  12.225
60014W        W33082  28.058  44.995   0.906
60015W        W33083  32.019  43.896  11.648
60016W        W33084   9.780  24.040  11.113
60017W        W33085  39.645  14.989  11.427
60018W        W33086  18.995   8.900  14.898
60019W        W33087  13.075  15.533   1.746
60020W        W33088  42.893  23.481  12.393
60021W        W33089  31.887  44.985   3.569
60022W        W33090  32.005  32.056   5.111
60023W        W33091  42.441  16.850  13.825
60024W        W33092   9.714  22.659  14.940
60025W        W33093  34.564  34.989  10.874
60026W        W33094  27.724  12.725  11.388
60027W        W33095  13.534  31.212  14.444
60028W        W33096   5.832  14.593   0.960
60029W        W33097  34.059  43.009  14.325
60030W        W33098  30.362   8.345  14.423
60031W        W33099  35.183   7.653   3.183
60032W        W33100  27.467   4.405  10.708
60033W        W33101   1.491  41.952  14.464
60034W        W33102   2.422  34.473   1.423
60035W        W33103  18.824   5.129   3.535
60036W        W33104  26.937  20.615  13.802
60037W        W33105   5.744  31.962   0.312
60038W        W33106  37.577  24.979   2.112
60039W        W33107  30.830  26.196   2.346
60040W        W33108  37.661   4.695  11.415
60041W        W33109   9.441  10.881  14.465
60042W        W33110  13.605   2.870   3.179
60043W        W33111  24.763  44.873   2.235
60044W        W33112  37.373  19.561   0.341
60045W        W33113  16.619   5.866   0.243
60046W        W33114   3.741  23.458   1.931
60047W        W33115  36.009   6.520  13.080
60048W        W33116   3.383  16.989   2.692
60049W        W33117  38.125  42.838   9.861
60050W        W33118  26.075  23.136  12.454
60051W        W33119   4.996  33.360  13.666
60052W        W33120  28.459  21.707  12.109
60053W        W33121  11.783  19.714  12.848
60054W        W33122  33.541   0.686   4.575
60055W        W33123  35.419  31.910  13.114
60056W        W33124  28.352  43.402  12.637
60057W        W33125  24.117  41.268  12.893
60058W        W33126  20.479   7.183  11.521
60059W        W33127  29.921  16.315  13.478
60060W        W33128  33.340  41.396  10.000
60061W        W33129  27.035  43.286  11.148
60062W        W33130   0.751  17.287  12.420
60063W        W33131  22.593  24.089  12.925
60064W        W33132  20.285  15.560   2.701
60065W        W33133  15.182  16.904   0.836
60066W        W33134   8.846  25.460   1.907
60067W        W33135   6.755  11.404   3.697
60068W        W33136  41.855  16.823   1.272
60069W        W33137  19.587   9.678  14.896
60070W        W33138  32.968  16.091  11.431
60071W        W33139  37.585  33.774  13.714
60072W        W33140   0.279  41.967   3.330
60073W        W33141  32.441  12.916   3.645
60074W        W33142   1.900  37.554   0.978
60075W        W33143  14.553   6.778  10.436
60076W        W33144   2.789  18.216   0.744
60077W        W33145  37.489  29.064  14.711
60078W        W33146  12.717   4.639  12.049
60079W        W33147   2.119  36.482  14.472
60080W        W33148   5.378   5.203   4.156
60081W        W33149  15.898   7.428  12.023
60082W        W33150  14.642  33.328   1.680
60083W        W33151  28.917  12.047  11.978
60084W        W33152  23.532  35.607  13.229
60085W        W33153   2.051  42.975   1.344
60086W        W33154   2.324  32.236  14.547
60087W        W33155   9.219  31.971  14.373
60088W        W33156  34.964  42.094   3.142
60089W        W33157  21.463   4.907  11.616
60090W        W33158  14.224  37.940  13.218
60091W        W33159  18.201  35.896   4.863
60092W        W33160   0.693  37.060   1.210
60093W        W33161  12.708  12.273  11.077
60094W        W33162  26.702  11.859  11.050
60095W        W33163   6.343  27.702   1.731
60096W        W33164  31.186  31.606  14.434
60097W        W33165  15.647  42.945   0.804
60098W        W33166   5.469  24.996  14.011
60099W        W33167  16.330  32.521  12.054
60100W        W33168  19.576   2.831   3.519
60101W        W33169  33.958   2.953   0.535
60102W        W33170  30.746   8.638  10.342
60103W        W33171  23.659  14.964  14.579
60104W        W33172  40.364   8.300   5.881
60105W        W33173  26.068  33.607  13.436
60106W        W33174   1.680   6.839   1.279
60107W        W33175  27.631  33.404  10.757
60108W        W33176   3.319  14.841   4.338
60109W        W33177  29.952  22.924   5.472
60110W        W33178  44.025  42.029  11.711
60111W        W33179   4.811  26.680  11.071
60112W        W33180  18.141  13.771  12.979
60113W        W33181  44.635  17.138   2.829
60114W        W33182  12.340  29.805  14.016
60115W        W33183  35.130  23.663   3.728
60116W        W33184  22.058  34.043   2.338
60117W        W33185  30.190  10.220   0.900
60118W        W33186   3.673  26.926   4.136
60119W        W33187  34.348  21.042  14.325
60120W        W33188  18.537   8.831  12.326
60121W        W33189  20.941  39.467   4.942
60122W        W33190  36.075  17.453   2.782
60123W        W33191  31.114  16.675  14.321
60124W        W33192  27.427  31.089  10.622
60125W        W33193   5.317   3.433   2.734
60126W        W33194  23.712   9.265   0.001
60127W        W33195   8.599  21.616   4.103
60128W        W33196  17.579  36.307  11.113
60129W        W33197  41.646  33.496  14.941
60130W        W33198   9.316  28.076   1.177
60131W        W33199  41.815  15.527   4.116
60132W        W33200   2.947  39.122   2.959
60133W        W33201   2.770  34.600  12.737
60134W        W33202  37.032  25.011   2.242
60135W        W33203   5.441  38.853   3.725
60136W        W33204  26.416  19.121  11.918
60137W        W33205  13.570  10.062  14.118
60138W        W33206   7.771  18.096  10.756
60139W        W33207   6.523  34.750  13.381
60140W        W33208   0.320   2.026  12.116
60141W        W33209  23.362  37.504   0.980
60142W        W33210  40.477  23.443  10.623
60143W        W33211  39.978  18.256   2.303
60144W        W33212  16.795  12.231  12.427
60145W        W33213  39.541  17.541   2.413
60146W        W33214  32.045  12.158   2.214
60147W        W33215  42.785   7.917  11.476
60148W        W33216   7.495  15.492  11.113
60149W        W33217  26.872  29.219  10.794
60150W        W33218  40.705   7.799   4.616
60151W        W33219  26.905  10.069   5.393
60152W        W33220  10.861  38.404  11.942
60153W        W33221  29.110  30.093   3.109
60154W        W33222  13.679   6.869   2.777
60155W        W33223  25.548   4.730  14.512
60156W        W33224  15.531  42.963  13.498
60157W        W33225  19.081  16.718   2.904
60158W        W33226  40.530  13.267   2.707
60159W        W33227  41.309  18.236  12.359
60160W        W33228  11.857  42.557   2.184
60161W        W33229  22.501  18.657   1.936
60162W        W33230  29.401  15.332  12.875
60163W        W33231  16.728  38.365  14.514
60164W        W33232   8.654  23.973  11.980
60165W        W33233  41.786  13.351   4.483
60166W        W33234  17.125  11.249   4.200
60167W        W33235  33.443  31.698  12.620
60168W        W33236  21.765  25.672  14.744
60169W        W33237   6.592  25.029  12.981
60170W        W33238   6.518   4.905  11.232
60171W        W33239   8.283  42.910  13.772
60172W        W33240  44.961  39.378   2.677
60173W        W33241  38.604  10.328  13.460
60174W        W33242  10.877  24.958  11.997
60175W        W33243   1.007  12.581   3.308
60176W        W33244  38.874  35.828  12.951
60177W        W33245  32.945   0.119  14.429
60178W        W33246   3.462  28.084   1.116
60179W        W33247  19.173  36.990  12.472
60180W        W33248  26.446   3.841  12.482
60181W        W33249  17.811  36.837   0.396
60182W        W33250  34.382  16.298   0.991
60183W        W33251   1.153   2.873  11.254
60184W        W33252   0.530  29.441   3.138
60185W        W33253  24.789  22.068   4.063
60186W        W33254  29.311  42.438  12.426
60187W        W33255  36.517  19.128   3.479
60188W        W33256  16.567  35.642  11.146
60189W        W33257  32.720  39.007  10.257
60190W        W33258  33.704  36.845  12.644
60191W        W33259  20.319  24.018  12.393
60192W        W33260  25.220  22.145   4.318
60193W        W33261  23.156  13.901  14.032
60194W        W33262   5.438  19.878  12.408
60195W        W33263  40.780  22.117   1.864
60196W        W33264  27.961   6.413   5.060
60197W        W33265   8.167   5.478   1.912
60198W        W33266  33.850  27.190   3.189
60199W        W33267  31.343  19.663   2.569
60200W        W33268   5.827  26.582   3.749
60201W        W33269  12.522  10.746  13.479
60202W        W33270  11.330  23.201  11.123
60203W        W33271  11.535  12.594   5.193
60204W        W33272  40.901  10.139   1.681
60205W        W33273  23.022   9.727  12.782
60206W        W33274   6.863  35.546  10.649
60207W        W33275  37.628  27.842   0.376
60208W        W33276  39.863   2.821   2.226
60209W        W33277  10.627  32.334  11.270
60210W        W33278  23.138  33.307   3.072
60211W        W33279  17.153  11.869  12.454
60212W        W33280  24.526  34.064  12.887
60213W        W33281  34.005  18.992   2.029
60214W        W33282  42.750  18.074   4.591
60215W        W33283  13.704  43.656  13.283
60216W        W33284  10.256  37.394   5.065
60217W        W33285  12.098   9.963  14.917
60218W        W33286  34.419   9.761  10.703
60219W        W33287  40.500   5.392   3.280
60220W        W33288  18.575   0.781   2.652
60221W        W33289  31.858   2.191   1.804
60222W        W33290  30.540  41.984   3.685
60223W        W33291  20.653   0.388   1.447
60224W        W33292  31.944  24.202  14.395
60225W        W33293  38.494  19.579  10.967
60226W        W33294  20.148  24.595  10.747
60227W        W33295  29.730  24.222   2.424
60228W        W33296   5.879   4.142   3.155
60229W        W33297  40.310   6.192   2.753
60230W        W33298  10.468  37.304  11.546
60231W        W33299  16.137  21.909   1.765
60232W        W33300  11.829  18.076   0.751
60233W        W33301  18.614   2.478  13.935
60234W        W33302   1.467  15.165   0.443
60235W        W33303  39.777  18.696   3.795
60236W        W33304  17.830  20.136   0.287
60237W        W33305  29.995  44.539   0.754
60238W        W33306   9.181  44.707  14.378
60239W        W33307   6.847  42.241  12.977
60240W        W33308  17.519   1.822  10.743
60241W        W33309  34.062  16.567   1.784
60242W        W33310  41.584  28.982   2.510
60243W        W33311  11.711  12.289  11.314
60244W        W33312  20.238  42.956   0.821
60245W        W33313  18.550   3.425   1.329
60246W        W33314  39.405  31.124   3.204
60247W        W33315  22.001  28.579  12.050
60248W        W33316  31.170  17.158  13.380
60249W        W33317  28.157   2.369  11.574
60250W        W33318  36.975   2.733  12.074
60251W        W33319  26.183  41.355  12.904
60252W        W33320  31.432  20.926   4.564
60253W        W33321  28.088  20.245  13.961
60254W        W33322  28.886  23.220  14.884
60255W        W33323  39.725   7.337   3.884
60256W        W33324   8.104  26.598  10.731
60257W        W33325  28.457  38.962  12.454
60258W        W33326   3.448  36.438   1.318
60259W        W33327  14.988  31.593   1.420
60260W        W33328  37.474  38.276  12.518
60261W        W33329  28.242  34.691  13.050
60262W        W33330  20.971  28.114  13.413
60263W        W33331  16.348  18.273  12.144
60264W        W33332  28.147  35.110  11.478
60265W        W33333  12.852   6.951  13.159
60266W        W33334  16.615  17.794   3.322
60267W        W33335  39.054  16.358  10.075
60268W        W33336  44.847  26.114  13.580
60269W        W33337  23.124  43.939   2.406
60270W        W33338  17.337  36.617   0.403
60271W        W33339  24.727  32.482  10.890
60272W        W33340  36.655  41.740   3.868
60273W        W33341  32.482  22.981  11.576
60274W        W33342   4.977  33.366   0.874
60275W        W33343  20.252  13.104   1.331
60276W        W33344  14.651   5.283  10.633
60277W        W33345  40.914  20.755   4.690
60278W        W33346  11.166   3.005  13.917
60279W        W33347  12.556  15.300   0.274
60280W        W33348   5.715   3.103  11.115
60281W        W33349  20.620   9.443   4.937
60282W        W33350  28.114   9.734   5.195
60283W        W33351   8.776  30.106  10.654
60284W        W33352   7.781  35.822  11.793
60285W        W33353  39.830  19.697  11.148
60286W        W33354   5.300  39.021  12.925
60287W        W33355  17.028  13.238   2.380
60288W        W33356  32.319   3.883   4.089
60289W        W33357  25.414   5.257  13.757
60290W        W33358  35.822  33.445  12.600
60291W        W33359   1.867  19.127   1.429
60292W        W33360   2.818  23.047   1.454
60293W        W33361  31.184  39.414   3.268
60294W        W33362  23.236  22.706   0.311
60295W        W33363   8.940  43.404  11.641
60296W        W33364   5.238  30.901   3.362
60297W        W33365  18.698   7.914   1.242
60298W        W33366   8.145  22.693  14.912
60299W        W33367  44.401  18.366   3.246
60300W        W33368  14.123  24.230   1.893
60301W        W33369  37.477  41.373   1.743
60302W        W33370  21.574  29.006  11.405
60303W        W33371   2.713  36.091   2.710
60304W        W33372   3.930  37.362   1.246
60305W        W33373  29.462  38.315   1.855
60306W        W33374  24.909  38.504   0.496
60307W        W33375  31.922  16.782   2.229
60308W        W33376  37.402   6.591   3.051
60309W        W33377   8.574  19.030   3.824
60310W        W33378  14.215  42.353   2.353
60311W        W33379  14.062  16.981   5.157
60312W        W33380  33.076  41.830   2.128
60313W        W33381   9.216  16.310   1.733
60314W        W33382   6.398  11.838  13.468
60315W        W33383   8.831  44.515   0.353
60316W        W33384   9.940   7.793  10.662
60317W        W33385  33.530  19.798  10.521
60318W        W33386  24.427  15.356  14.270
60319W        W33387   9.651  16.292   0.957
60320W        W33388  30.853   5.174   1.721
60321W        W33389  24.991   6.884   3.530
60322W        W33390  34.837  38.616  12.120
60323W        W33391  20.104  38.771   4.444
60324W        W33392   7.411  37.033  12.445
60325W        W33393  44.280  26.975  11.035
60326W        W33394   4.302  33.339   0.307
60327W        W33395   9.783   9.871  12.397
60328W        W33396  40.736  26.803   0.508
60329W        W33397   0.868  40.407   3.734
60330W        W33398  38.358  28.582   3.812
60331W        W33399  42.945  44.781   1.772
60332W        W33400   2.822   8.241  11.379
60333W        W33401  40.222  31.369   0.884
60334W        W33402   1.484   1.515   4.854
60335W        W33403   7.234   0.870   0.319
60336W        W33404  21.993  19.260   4.533
60337W        W33405  36.398   4.586  10.892
60338W        W33406  26.139   5.436  14.500
60339W        W33407   4.701   1.735   0.495
60340W        W33408  21.662  27.298  11.609
60341W        W33409  17.379  19.089   1.334
60342W        W33410   1.558  34.540  13.318
60343W        W33411   0.824  26.924   0.410
60344W        W33412  39.551  35.918   2.195
60345W        W33413  26.513   7.038   2.884
60346W        W33414  15.191   5.471  12.459
60347W        W33415  39.345  27.586  10.370
60348W        W33416   2.711   0.438   3.237
60349W        W33417  14.350  16.748   3.684
60350W        W33418   1.527  11.206   1.323
60351W        W33419  10.296  18.266  10.791
60352W        W33420  23.939  34.722   3.579
60353W        W33421  26.720  39.362  13.415
60354W        W33422  14.754  31.405  14.450
60355W        W33423  15.760  31.455  14.265
60356W        W33424   2.784  18.637   0.432
60357W        W33425  23.955  24.229   3.285
60358W        W33426  43.047  30.874  13.468
60359W        W33427  12.500  26.806  12.777
60360W        W33428   4.902  39.244  14.809
60361W        W33429  23.742  28.122  11.667
60362W        W33430  38.782  24.501   0.712
60363W        W33431  37.156   1.473   1.751
60364W        W33432   9.507  24.016  14.447
60365W        W33433  31.476  27.425  13.923
60366W        W33434  37.507  27.185  11.303
60367W        W33435  25.268   4.891  13.110
60368W        W33436  13.093   3.795  14.930
60369W        W33437  11.272  16.234  10.162
60370W        W33438  27.177   2.325   2.699
60371W        W33439  43.993  30.404   2.262
60372W        W33440  17.039   6.581   0.959
60373W        W33441   5.710  27.964  11.470
60374W        W33442  30.541  21.073  10.635
60375W        W33443  24.651  19.434   4.980
60376W        W33444  15.380  36.925  13.010
60377W        W33445   5.419  14.321   1.154
60378W        W33446  27.226  13.288   3.098
60379W        W33447  31.053  14.124   0.269
60380W        W33448   4.832   3.249   3.417
60381W        W33449   8.346  11.202  14.800
60382W        W33450  17.238  19.318   2.360
60383W        W33451  12.867  22.315   0.736
60384W        W33452  13.660  12.983  14.790
60385W        W33453  15.305  36.340   0.007
60386W        W33454  28.635  31.508  10.812
60387W        W33455  34.671   6.708  10.580
60388W        W33456  20.774  33.014   0.788
60389W        W33457   7.317  31.599   3.588
60390W        W33458  26.538  39.876   3.348
60391W        W33459  43.169  32.359   0.979
60392W        W33460  18.567  34.914  13.886
60393W        W33461  43.911  18.697  14.415
60394W        W33462  44.314  14.202   9.897
60395W        W33463  33.511   6.118   0.993
60396W        W33464  18.592  15.107  12.141
60397W        W33465  21.133  27.758   2.643
60398W        W33466  17.494   6.772   1.641
60399W        W33467  36.696  27.464  10.695
60400W        W33468  16.670   4.479   0.776
60401W        W33469  18.206  26.061   0.307
60402W        W33470  31.397  16.362   4.734
60403W        W33471  13.696  17.036  12.178
60404W        W33472  44.702   2.328   1.252
60405W        W33473  10.394   4.427   3.683
60406W        W33474  40.359  34.705   4.539
60407W        W33475  40.314   2.263   4.854
60408W        W33476   5.959  22.111  12.096
60409W        W33477  18.780  10.269  14.773
60410W        W33478  21.659  14.282   1.463
60411W        W33479  21.993  39.494   1.232
60412W        W33480   8.068   5.617  14.875
60413W        W33481  37.235  20.593  10.946
60414W        W33482  15.131   5.718  12.937
60415W        W33483  40.359  23.841   4.587
60416W        W33484   4.439  31.485  13.559
60417W        W33485  34.858   9.184  12.874
60418W        W33486   8.683  44.998   0.248
60419W        W33487  34.449   1.693   0.431
60420W        W33488   8.368  41.066   5.251
60421W        W33489   2.746  43.438  13.069
60422W        W33490  21.066  30.500   5.011
60423W        W33491   7.970  33.645  11.150
60424W        W33492  28.032  12.960   4.571
60425W        W33493   1.219  39.343  14.327
60426W        W33494  12.562  25.468  11.565
60427W        W33495  39.605  16.160  13.520
60428W        W33496   4.147  32.338   2.294
60429W        W33497  20.625  21.756   4.498
60430W        W33498  12.750  32.068   2.376
60431W        W33499  29.412  16.777   2.245
60432W        W33500  36.909   4.836   2.822
60433W        W33501  25.623  13.056  10.385
60434W        W33502  16.844  14.578  11.576
60435W        W33503  31.530   5.237  13.507
60436W        W33504  27.737  36.456  12.466
60437W        W33505  32.225   1.413   3.321
60438W        W33506  28.898  18.055  12.067
60439W        W33507  25.213  42.965   2.830
60440W        W33508  31.618  29.853   1.328
60441W        W33509  16.863  19.241   0.804
60442W        W33510  41.132   8.921   0.721
60443W        W33511  37.953  13.993   2.927
60444W        W33512  36.565  14.047   2.809
60445W        W33513  10.579   5.267  11.675
60446W        W33514  20.083  32.957   4.837
60447W        W33515  40.957   6.449   4.121
60448W        W33516  39.583  41.367   4.508
60449W        W33517  11.320  21.652  12.375
60450W        W33518  13.240   4.763  12.056
60451W        W33519  43.902  25.830  13.082
60452W        W33520  26.429  13.118  10.747
60453W        W33521  44.672   9.105   2.284
60454W        W33522  28.516   4.635   2.257
60455W        W33523  14.819  40.980   3.806
60456W        W33524   7.283  13.323   3.674
60457W        W33525  37.430  21.830   4.869
60458W        W33526  35.246  38.581   3.129
60459W        W33527  32.582  11.091  12.379
60460W        W33528  21.535  25.072   4.783
60461W        W33529  37.395  39.858  10.544
60462W        W33530  23.786  40.805  10.583
60463W        W33531   0.031  41.480   3.471
60464W        W33532  18.970  43.395   4.628
60465W        W33533  13.125  14.638  12.954
60466W        W33534  35.432  17.799   0.406
60467W        W33535   2.866   7.179  11.522
60468W        W33536   1.334  32.838  14.683
60469W        W33537  10.195  27.068  14.951
60470W        W33538  44.571  14.165   2.807
60471W        W33539  14.699  16.353  14.756
60472W        W33540  32.271   4.474   1.268
60473W        W33541  29.552   8.945  11.220
60474W        W33542  39.871  39.922  10.633
60475W        W33543  16.568   0.372  13.927
60476W        W33544  26.791  34.693  13.110
60477W        W33545   6.685  43.327  13.358
60478W        W33546  43.544  41.437  14.438
60479W        W33547  16.207  16.331   2.663
60480W        W33548  22.177  22.213   0.897
60481W        W33549  20.689  27.576   4.511
60482W        W33550  34.039  25.817  12.165
60483W        W33551  33.272  44.348  10.970
60484W        W33552  13.793  21.982   2.168
60485W        W33553  29.930  28.531  11.278
60486W        W33554  41.216  18.569  13.033
60487W        W33555  22.636  13.935  11.806
60488W        W33556  31.086  11.332  14.778
60489W        W33557  40.053   4.837  11.111
60490W        W33558   3.841  33.757   3.250
60491W        W33559   1.329  30.037   4.873
60492W        W33560  18.151   4.488   3.541
60493W        W33561   5.804  11.285   3.845
60494W        W33562  40.956   3.514  13.435
60495W        W33563   0.409  43.537  11.062
60496W        W33564   9.639  35.613   1.168
60497W        W33565   0.018  29.616   0.767
60498W        W33566   0.063  18.791   0.242
60499W        W33567  32.582  36.389   3.673
60500W        W33568  37.640  35.518  12.504
60501W        W33569  19.742  12.005  11.179
60502W        W33570  43.422  23.718  11.225
60503W        W33571  37.736  24.328  10.986
60504W        W33572  12.387  28.685   2.553
60505W        W33573   1.134  22.876   0.794
60506W        W33574  44.581   8.177  12.858
60507W        W33575  38.631   8.640   5.521
60508W        W33576  23.314   3.177   0.469
60509W        W33577  27.388  23.452   2.705
60510W        W33578  39.210  21.785   2.317
60511W        W33579  13.076  36.471   0.767
60512W        W33580  37.088  33.686  13.439
60513W        W33581  39.642  17.092  11.105
60514W        W33582   5.337  23.588  11.976
60515W        W33583   6.463  17.699  11.517
60516W        W33584  14.050  14.772   1.994
60517W        W33585   7.596   5.393   1.815
60518W        W33586  39.760  17.786   3.273
60519W        W33587   3.676  36.919   1.220
60520W        W33588  30.998  10.335   1.408
60521W        W33589   0.328  11.673  11.459
60522W        W33590   9.231  36.646  10.147
60523W        W33591  10.881  26.308  13.062
60524W        W33592  20.272  40.999   1.845
60525W        W33593  40.806  23.934   2.769
60526W        W33594   6.700   9.125  12.134
60527W        W33595   9.157   8.199  10.760
60528W        W33596  21.924   5.215  13.753
60529W        W33597  20.412  12.894  13.180
60530W        W33598  14.180  13.688  14.697
60531W        W33599  15.148  33.096   2.794
60532W        W33600   4.184  38.445   2.840
60533W        W33601  33.637  39.321  13.889
60534W        W33602  43.913  11.439   4.535
60535W        W33603   8.272  26.719   0.902
60536W        W33604   2.409  25.099  11.623
60537W        W33605   5.278  36.857   1.389
60538W        W33606   2.237  15.578  10.278
60539W        W33607  39.398  11.883  12.451
60540W        W33608  32.060  22.293  14.932
60541W        W33609  18.761   2.378   0.984
60542W        W33610  13.646  37.541   0.292
60543W        W33611  39.856   1.572   3.070
60544W        W33612  34.866  39.386   1.769
60545W        W33613   1.960  18.765   2.777
60546W        W33614  28.299  24.527   1.183
60547W        W33615  15.943   9.224  12.411
60548W        W33616   4.890  19.495  14.703
60549W        W33617  33.839  14.288   4.143
60550W        W33618  13.355  33.924   0.882
60551W        W33619  37.497  42.457  13.044
60552W        W33620  27.044  27.854   1.681
60553W        W33621   9.756  11.370  14.841
60554W        W33622  22.607  21.924  10.896
60555W        W33623  11.164  29.271  11.110
60556W        W33624  42.309   9.869   4.439
60557W        W33625   4.443  42.085   2.241
60558W        W33626   1.678   8.798   3.859
60559W        W33627  21.227  29.080  13.583
60560W        W33628  16.493  32.752  11.192
60561W        W33629  10.772  35.177   3.738
60562W        W33630  35.601  16.281   0.527
60563W        W33631  23.667  35.350  14.225
60564W        W33632  16.034  28.002  13.066
60565W        W33633  43.793  33.962   0.840
60566W        W33634   8.695  17.262   1.652
60567W        W33635   9.731  38.384   3.730
60568W        W33636  32.920  18.589  11.590
60569W        W33637  17.842   1.718  12.124
60570W        W33638   1.315  25.156   3.326
60571W        W33639  29.304  43.700  12.578
60572W        W33640  23.618   4.744  10.718
60573W        W33641   7.948  20.178   3.256
60574W        W33642  18.011   6.959   0.114
60575W        W33643  25.122  32.885  12.871
60576W        W33644  41.931  36.177   1.681
60577W        W33645   7.484  34.413  14.426
60578W        W33646  17.704  39.203  14.889
60579W        W33647  15.713  32.890   3.768
60580W        W33648  13.739  32.012  14.949
60581W        W33649  17.754   2.311   1.031
60582W        W33650  16.164  25.253  11.651
60583W        W33651  21.312  41.020   3.781
60584W        W33652  40.490   3.199   4.014
60585W        W33653  13.613  29.782  11.187
60586W        W33654  32.949  43.668   0.690
60587W        W33655  24.430  14.134  13.788
60588W        W33656  10.590  20.593   4.784
60589W        W33657  44.776  12.804   1.151
60590W        W33658   7.132  38.155   1.728
60591W        W33659   8.441  36.450   4.951
60592W        W33660  41.572  11.900   3.614
60593W        W33661  43.431  19.968  12.940
60594W        W33662   1.314   0.385  12.105
60595W        W33663   0.434   7.869   0.801
60596W        W33664  28.682  26.110  14.927
60597W        W33665  24.737  21.832   2.229
60598W        W33666  16.106   2.894   1.212
60599W        W33667  18.526  24.150  13.996
60600W        W33668  42.037  30.848  12.020
60601W        W33669  31.120  36.863   0.277
60602W        W33670  36.781  27.181   3.542
60603W        W33671  34.530  28.902   4.206
60604W        W33672  43.298  21.529   3.822
60605W        W33673  24.551  17.776   4.520
60606W        W33674  32.598  24.038  14.524
60607W        W33675  41.735   8.189  13.310
60608W        W33676  34.357  20.549   4.264
60609W        W33677   0.244  27.115  11.105
60610W        W33678  26.621  16.796  13.068
60611W        W33679  40.631  15.113   2.623
60612W        W33680  33.858  15.067   2.820
60613W        W33681   9.185  34.635  13.537
60614W        W33682   3.787  30.571   1.808
60615W        W33683  22.674  25.169  14.969
60616W        W33684  33.066  39.846  11.120
60617W        W33685  33.143  11.326   3.802
60618W        W33686  14.087  17.764  10.712
60619W        W33687   4.176  16.171  12.117
60620W        W33688  14.395  35.009   4.703
60621W        W33689  21.329  16.767   3.759
60622W        W33690   0.470  24.188   0.405
60623W        W33691  18.793  30.043   0.712
60624W        W33692  24.972  12.220  13.035
60625W        W33693  30.067  23.119   4.957
60626W        W33694   3.269  29.740   4.108
60627W        W33695  37.836  21.518  13.568
60628W        W33696   0.426  31.522   0.042
60629W        W33697   0.972  14.832   0.990
60630W        W33698  39.814  21.095  10.465
60631W        W33699  34.884  40.451   1.785
60632W        W33700  30.696  20.274   0.199
60633W        W33701  31.070  31.026  12.505
60634W        W33702  40.579  27.370   1.815
60635W        W33703  16.604  12.623   0.672
60636W        W33704  39.070  44.385   2.816
60637W        W33705  30.005   3.057  13.649
60638W        W33706   4.135  33.683   3.705
60639W        W33707  26.526  29.490  13.258
60640W        W33708  10.357  40.994  11.531
60641W        W33709   6.352   3.881  12.514
60642W        W33710  40.008  19.157  14.072
60643W        W33711  23.939  27.017   4.522
60644W        W33712  10.226  27.679  13.774
60645W        W33713   6.985   6.169   0.223
60646W        W33714   9.421  28.181  14.794
60647W        W33715  41.322  16.927  13.552
60648W        W33716   6.316  14.812  11.586
60649W        W33717  44.809   7.342  11.873
60650W        W33718  41.444  32.086  13.923
60651W        W33719   3.814  29.164  14.276
60652W        W33720  20.690   6.378  12.548
60653W        W33721  36.571  12.790   2.229
60654W        W33722  33.825   0.115  14.551
60655W        W33723  20.544  20.686  13.770
60656W        W33724  22.704  32.463  11.322
60657W        W33725  31.037   6.645   0.471
60658W        W33726  43.807  35.924   3.257
60659W        W33727  25.837  35.647   4.144
60660W        W33728  26.551  24.410  10.562
60661W        W33729   1.274  25.346  13.015
60662W        W33730  18.716   6.148  14.848
60663W        W33731   5.052  10.167  11.260
60664W        W33732  38.626  40.964  11.179
60665W        W33733  26.903  39.267   4.389
60666W        W33734  23.280  38.829  12.161
60667W        W33735  17.466  17.230   4.175
60668W        W33736   7.232  13.541  10.564
60669W        W33737  17.477  40.313  10.549
60670W        W33738  18.047  28.168  12.145
60671W        W33739  30.578  25.371   0.441
60672W        W33740  23.836  33.635  11.513
60673W        W33741  30.089  12.658   1.734
60674W        W33742   0.891  38.037  11.205
60675W        W33743  34.911  42.230  13.932
60676W        W33744  26.093  33.048   2.316
60677W        W33745  17.800   3.308   3.662
60678W        W33746  39.141  23.495   4.169
60679W        W33747  37.197   5.558   4.619
60680W        W33748   7.203  39.850   3.996
60681W        W33749  21.951  30.268   1.620
60682W        W33750  17.265   1.207   2.276
60683W        W33751  31.923  28.355   4.376
60684W        W33752  38.459  43.025  11.719
60685W        W33753   8.142  30.737   0.852
60686W        W33754  38.789  33.439   4.140
60687W        W33755  15.263  36.538  11.573
60688W        W33756  25.668   8.176   4.081
60689W        W33757  12.433  42.005  14.550
60690W        W33758  42.066   6.718  12.434
60691W        W33759  18.615   0.414  12.837
60692W        W33760  23.088  30.585   4.613
60693W        W33761  32.210  43.538   1.488
60694W        W33762  40.975  14.069   0.342
60695W        W33763  18.234  13.808  14.837
60696W        W33764  26.626  19.461   3.302
60697W        W33765   4.441   9.168   0.010
60698W        W33766  21.784  37.494  12.969
60699W        W33767   0.713  27.170   3.062
60700W        W33768  15.293   8.795   2.604
60701W        W33769  28.147  26.448   4.642
60702W        W33770  21.959  23.741   3.323
60703W        W33771  25.054  13.024  12.361
60704W        W33772  21.242   8.414  11.260
60705W        W33773  12.659  28.429   4.593
60706W        W33774   2.897  40.479   4.880
60707W        W33775  13.550   5.731   4.145
60708W        W33776  22.770  40.798   3.279
60709W        W33777  38.557  37.821  12.157
60710W        W33778  24.973  18.339   1.469
60711W        W33779  17.108  14.723   4.775
60712W        W33780  34.134  16.256   3.233
60713W        W33781   7.662  32.532   3.256
60714W        W33782  12.505  20.720   0.419
60715W        W33783  23.234  39.837  14.839
60716W        W33784  31.373  25.271   0.380
60717W        W33785  41.193  17.821   1.045
60718W        W33786  39.287  43.833  11.446
60719W        W33787  40.983  33.397   4.808
60720W        W33788  10.564   3.676  12.263
60721W        W33789  43.744  44.382   3.387
60722W        W33790  30.855  25.004   1.757
60723W        W33791  23.654  30.560  11.088
60724W        W33792   0.812  21.571   4.652
60725W        W33793  34.521  44.084  13.847
60726W        W33794  43.948   2.233  14.497
60727W        W33795  17.337  32.243  14.521
60728W        W33796  43.255  23.044  12.451
60729W        W33797   7.857   5.453   3.763
60730W        W33798  18.300  14.692  11.703
60731W        W33799  40.322  24.132   1.147
60732W        W33800   5.729  20.180   3.189
60733W        W33801  43.539  15.208   1.361
60734W        W33802  37.880  39.964  14.964
60735W        W33803   5.327  33.610  13.263
60736W        W33804  18.667  26.745  11.945
60737W        W33805  42.092  24.883   2.732
60738W        W33806  15.262  27.205   0.997
60739W        W33807  38.840  35.453   2.187
60740W        W33808  43.074  13.390  12.508
60741W        W33809  32.005   0.376  13.489
60742W        W33810  42.299  10.193  14.471
60743W        W33811  26.151   0.503   0.677
60744W        W33812  42.842  35.666   2.444
60745W        W33813  13.212  26.250   4.751
60746W        W33814  39.879  13.352   3.590
60747W        W33815  21.801  41.958   1.407
60748W        W33816  35.876   9.806  10.577
60749W        W33817  22.681  43.314   3.902
60750W        W33818  24.786  44.023   4.657
60751W        W33819  42.460  39.836   3.232
60752W        W33820  30.005   1.200  11.082
60753W        W33821  34.565   0.285  14.853
60754W        W33822   2.719  35.127  11.161
60755W        W33823  39.380  31.508   0.281
60756W        W33824  42.557  20.119   1.355
60757W        W33825   1.601  35.997   0.974
60758W        W33826  32.041   4.167  12.898
60759W        W33827   3.336  15.552   0.394
60760W        W33828  29.856  24.768  11.118
60761W        W33829  14.175  11.091  14.989
60762W        W33830  10.578   3.671  14.612
60763W        W33831   7.263  21.733  13.381
60764W        W33832  29.106   8.706   0.682
60765W        W33833  16.033   1.870  10.849
60766W        W33834   7.034   8.673  10.153
60767W        W33835  13.184   6.789  14.770
60768W        W33836   9.389  40.225  11.579
60769W        W33837  35.625  13.847   0.682
60770W        W33838  32.630  30.016  13.755
60771W        W33839  44.463  13.225   4.369
60772W        W33840  16.834  31.861   3.854
60773W        W33841  44.419  14.631   3.762
60774W        W33842   6.475   4.280   1.343
60775W        W33843  25.033  31.146   2.806
60776W        W33844  16.928  34.614   1.246
60777W        W33845  39.040  18.335   2.356
60778W        W33846   5.334  41.707  11.572
60779W        W33847   2.555  27.970  13.051
60780W        W33848  37.877  35.001   1.730
60781W        W33849  16.142   3.343   2.384
60782W        W33850  13.756  26.636  12.034
60783W        W33851  34.064  12.357  10.660
60784W        W33852   7.574  17.450  14.578
60785W        W33853  10.074  34.819   0.242
60786W        W33854  33.756  38.367   2.305
60787W        W33855  10.251  43.510  14.890
60788W        W33856  18.258  22.679   1.324
60789W        W33857  31.524   3.439  12.975
60790W        W33858  33.675  33.188  12.400
60791W        W33859  39.103  36.982  14.570
60792W        W33860   2.805  35.350   0.704
60793W        W33861   3.336  42.922  14.394
60794W        W33862   1.884  41.290  13.548
60795W        W33863  19.804   0.440   2.914
60796W        W33864  37.925   0.851   4.487
60797W        W33865   9.053  44.966   1.844
60798W        W33866   9.221  22.737   4.081
60799W        W33867   2.697   6.232  13.827
60800W        W33868  41.744  31.479  10.921
60801W        W33869  23.288  23.478  14.749
60802W        W33870  42.437  19.275  11.871
60803W        W33871  36.402  44.307  10.260
60804W        W33872  24.166  20.629   3.369
60805W        W33873  42.897  25.691  10.714
60806W        W33874  25.523  30.956   2.711
60807W        W33875  16.988  41.007   2.579
60808W        W33876  35.519  23.264   0.019
60809W        W33877  21.831   1.034  12.020
60810W        W33878   4.672  38.278   2.050
60811W        W33879  39.495  21.103  11.188
60812W        W33880  23.752   9.631  13.369
60813W        W33881  44.500  26.158   2.811
60814W        W33882  28.565  38.936   0.411
60815W        W33883  41.632  22.653  14.963
60816W        W33884   7.143  21.490  11.540
60817W        W33885   5.294  11.204   3.155
60818W        W33886  11.339  38.370  11.033
60819W        W33887   2.068  38.478   3.367
60820W        W33888  17.659   9.850  14.945
60821W        W33889  27.836  16.105  13.384
60822W        W33890  14.250  32.057   3.159
60823W        W33891  31.150  19.459   4.293
60824W        W33892   3.816   4.873   4.872
60825W        W33893   0.288  19.586   3.279
60826W        W33894  12.320   6.470  11.208
60827W        W33895  10.863   7.155  11.781
60828W        W33896  26.084  19.064   4.861
60829W        W33897  35.995  10.923  14.391
60830W        W33898  29.621   1.972   3.752
60831W        W33899  17.181  13.284  13.246
60832W        W33900  21.286  38.516  11.136
60833W        W33901  21.136  29.928  14.010
60834W        W33902   7.924  20.712   2.212
60835W        W33903  22.071  22.599  10.715
60836W        W33904  30.539   9.824   0.967
60837W        W33905  24.527  36.019  13.573
60838W        W33906  10.128  26.959   0.924
60839W        W33907  12.405  12.599   0.838
60840W        W33908  29.942   0.982  10.604
60841W        W33909  25.018   0.170  13.110
60842W        W33910  18.682  33.932   0.724
60843W        W33911  40.126  35.540  13.328
60844W        W33912  40.420  27.931  14.290
60845W        W33913  41.462   0.105  14.529
60846W        W33914  15.212   7.504  11.507
60847W        W33915  21.210  19.006   0.858
60848W        W33916  28.130  10.211   4.253
60849W        W33917  25.627  44.241   3.657
60850W        W33918  21.043  30.208  14.456
60851W        W33919  20.952  35.674   4.644
60852W        W33920  17.241   4.911  11.501
60853W        W33921   6.735  38.515  12.393
60854W        W33922  30.535  24.433   2.827
60855W        W33923  32.465  32.615  10.707
60856W        W33924  31.645   1.245   2.300
60857W        W33925  23.537  39.885   3.855
60858W        W33926  10.355  29.590  14.892
60859W        W33927  41.746  41.426   2.911
60860W        W33928  44.841  35.888  13.648
60861W        W33929  38.242  37.991  12.553
60862W        W33930  36.858  12.543   1.866
60863W        W33931  33.051  17.086   2.774
60864W        W33932   3.264  11.595  13.559
60865W        W33933  35.329  17.228   0.586
60866W        W33934  37.406   4.767   2.879
60867W        W33935  32.518   0.704  10.781
60868W        W33936  17.990  21.682  14.336
60869W        W33937  33.083   2.520   2.497
60870W        W33938   0.476  27.576   3.278
60871W        W33939  43.406  42.925  13.969
60872W        W33940  11.805  15.807   0.833
60873W        W33941  42.237  18.532  10.745
60874W        W33942   1.407  10.393   2.305
60875W        W33943  12.828  38.189  11.151
60876W        W33944  37.535  15.312   3.155
60877W        W33945  12.284  25.090   3.237
60878W        W33946  22.848  32.035  13.970
60879W        W33947  12.377  36.433  12.487
60880W        W33948   2.081   3.328  10.044
60881W        W33949  13.885  38.413   1.213
60882W        W33950  41.070  39.586  14.347
60883W        W33951   6.880  14.342  13.237
60884W        W33952  14.468  34.928  14.455
60885W        W33953  12.183  22.232   1.250
60886W        W33954  33.714  42.820   3.156
60887W        W33955  41.931  17.738   3.158
60888W        W33956  34.882  19.808  14.681
60889W        W33957  27.857  16.532  13.659
60890W        W33958   5.386   4.335  14.376
60891W        W33959  34.809  20.457  13.095
60892W        W33960  17.068  41.700   0.348
60893W        W33961  34.320   8.843  12.510
60894W        W33962  14.840  12.784   3.797
60895W        W33963  21.474  28.431  12.830
60896W        W33964  38.322  23.225  11.845
60897W        W33965  27.538   6.132   3.121
60898W        W33966  28.805   4.435   1.649
60899W        W33967  25.350   9.280  14.431
60900W        W33968  14.160  21.571   0.436
60901W        W33969  18.138  27.557   1.700
60902W        W33970  10.385   5.344  14.889
60903W        W33971   1.276  25.198   1.262
60904W        W33972  18.993   6.689   1.851
60905W        W33973   5.744   1.331   1.856
60906W        W33974  44.100  22.704   5.039
60907W        W33975   8.382  19.231   2.488
60908W        W33976  44.543  17.721   1.713
60909W        W33977  24.159  14.081  12.242
60910W        W33978  43.872  41.511  12.467
60911W        W33979   0.524  39.992   1.327
60912W        W33980  38.610  21.019  11.142
60913W        W33981  41.575  34.560   3.774
60914W        W33982  12.624  19.310  11.163
60915W        W33983  24.473  10.111   2.292
60916W        W33984  30.138  30.933   3.413
60917W        W33985   8.169  28.475  14.397
60918W        W33986  30.751   6.864   1.290
60919W        W33987  36.777  43.327  13.902
60920W        W33988  23.539   1.516  13.807
60921W        W33989  11.937  31.612  11.050
60922W        W33990  29.537  16.596  13.198
60923W        W33991  21.680  24.400  13.351
60924W        W33992  28.547  27.754  13.412
60925W        W33993   0.448   8.178  11.059
60926W        W33994  18.770   6.862  10.751
60927W        W33995   0.236  27.668  12.635
60928W        W33996   3.356  19.002   3.736
60929W        W33997   0.415  31.568   0.555
60930W        W33998  28.993   6.873  12.604
60931W        W33999  39.933  12.448  12.158
60932W        W34000  26.694  27.292   3.958
60933W        W34001  37.354   0.840   0.049
60934W        W34002  14.674  22.005   4.522
60935W        W34003  21.656  25.218  12.065
60936W        W34004  43.168   8.617   2.453
60937W        W34005  40.477  19.194   4.130
60938W        W34006  35.999  27.581   1.963
60939W        W34007  42.225  39.067  12.950
60940W        W34008   8.497  26.519   0.421
60941W        W34009  11.232  26.210   1.845
60942W        W34010  29.967  32.934  14.057
60943W        W34011  26.480  11.171  13.540
60944W        W34012  13.361  32.390  13.053
60945W        W34013  17.039  10.188   4.154
60946W        W34014   9.809  42.788   2.728
60947W        W34015   4.863  19.347  13.828
60948W        W34016  28.003  22.691  10.626
60949W        W34017  12.902  38.710  11.064
60950W        W34018  21.588  37.621   2.287
60951W        W34019  19.679  39.489   1.882
60952W        W34020  22.295  40.945   1.955
60953W        W34021  30.526   7.379  10.774
60954W        W34022  24.235  41.601   2.194
60955W        W34023   8.150  14.745  11.980
60956W        W34024  11.717  16.057   0.382
60957W        W34025  26.187  16.735   4.096
60958W        W34026  27.910  27.631   0.719
60959W        W34027  24.511  19.604  14.339
60960W        W34028  14.887  19.834   1.784
60961W        W34029  19.949  35.519   3.613
60962W        W34030  12.824  16.833  13.096
60963W        W34031  39.529  41.530   1.470
60964W        W34032  33.088  23.514   1.740
60965W        W34033  29.417  42.820   0.037
60966W        W34034  18.782  40.377  12.242
60967W        W34035  33.663  13.503   2.392
60968W        W34036   5.985  35.994  14.513
60969W        W34037  15.354  16.568  12.592
60970W        W34038  28.843  18.749  14.138
60971W        W34039  30.537  22.247   3.117
60972W        W34040   8.839   6.783  12.022
60973W        W34041   2.175  22.035   4.587
60974W        W34042  40.581  25.049  12.540
60975W        W34043   2.690  43.725   0.223
60976W        W34044  39.747  19.165  13.620
60977W        W34045   9.546  29.642   2.192
60978W        W34046  31.595   6.136  11.168
60979W        W34047  15.880   6.787  12.927
60980W        W34048  32.185  16.166  14.916
60981W        W34049  42.437  30.608   0.484
60982W        W34050   5.045  16.827   4.258
60983W        W34051   1.889   0.755   1.530
60984W        W34052  22.692  36.936   1.940
60985W        W34053   1.326  31.376   4.648
60986W        W34054   8.497   7.707   4.580
60987W        W34055  37.333  16.593   0.166
60988W        W34056  30.051  10.891  11.366
60989W        W34057   3.026   2.304  14.924
60990W        W34058  12.053  27.127  11.543
60991W        W34059  23.956   6.917   4.055
60992W        W34060   4.778  25.438   2.191
60993W        W34061  37.470  38.812   2.156
60994W        W34062  14.226   8.892  13.039
60995W        W34063  22.464  19.027  13.963
60996W        W34064  17.202  40.018   2.722
60997W        W34065  21.258  31.053   2.374
60998W        W34066  17.469  18.309   0.423
60999W        W34067   6.419  44.368  14.221
61000W        W34068  30.560  32.107  11.623
61001W        W34069   4.723  13.625  14.816
61002W        W34070   7.653  36.703   1.375
61003W        W34071  39.687  17.686  12.175
61004W        W34072  33.650  23.026  12.988
61005W        W34073   1.186   1.312   3.897
61006W        W34074  16.777  44.363   4.174
61007W        W34075  18.291   4.871  11.680
61008W        W34076  21.050  38.307   2.369
61009W        W34077   5.199  31.915   3.635
61010W        W34078  31.423  12.313  14.858
61011W        W34079   5.167  24.023   0.325
61012W        W34080  40.808  35.499  13.907
61013W        W34081  41.965  39.473   2.286
61014W        W34082  39.231   5.833  12.347
61015W        W34083   6.763  24.207   3.075
61016W        W34084  25.535  12.742  13.501
61017W        W34085  34.323  21.221   0.013
61018W        W34086   7.899   8.685  10.545
61019W        W34087  19.117  39.085   4.308
61020W        W34088  11.036   3.394   3.737
61021W        W34089   3.850   6.983  13.933
61022W        W34090  27.071  17.253  13.033
61023W        W34091  19.601  27.533  12.864
61024W        W34092  34.503  37.041   0.341
61025W        W34093  32.337  35.529   1.320
61026W        W34094   5.680  18.293   2.922
61027W        W34095   3.858  29.362   2.367
61028W        W34096  16.801  12.376  10.911
61029W        W34097   3.244  17.322  12.419
61030W        W34098  22.032   1.545   3.405
61031W        W34099  12.079   2.649  13.999
61032W        W34100  43.514  39.429  12.918
61033W        W34101  41.414   7.763  14.605
61034W        W34102  36.946  16.046  11.514
61035W        W34103   8.899  29.899   3.332
61036W        W34104  16.841  44.739  13.862
61037W        W34105  32.019   0.307   3.950
61038W        W34106  42.958   3.281  11.293
61039W        W34107   0.248  16.079  12.916
61040W        W34108  27.127  38.077  14.579
61041W        W34109  10.257  40.477   0.274
61042W        W34110   0.481  24.590   3.285
61043W        W34111  15.705   6.339   3.144
61044W        W34112   6.684   7.838  11.842
61045W        W34113  29.873  30.524   3.248
61046W        W34114  22.137   8.360   1.300
61047W        W34115  24.960  39.807   0.374
61048W        W34116  38.484  16.833   0.034
61049W        W34117  27.246  11.415  10.681
61050W        W34118   6.378  37.924  14.433
61051W        W34119  42.626  38.809   2.336
61052W        W34120  44.451  33.906  12.419
61053W        W34121  38.093  18.163   3.394
61054W        W34122  10.177  15.291   3.381
61055W        W34123  14.062  39.056   1.949
61056W        W34124  34.107  20.005  10.654
61057W        W34125   2.642  26.949   4.129
61058W        W34126  28.905  36.618  13.882
61059W        W34127  26.695  15.784  10.834
61060W        W34128  22.985  16.245  14.832
61061W        W34129   4.655  14.646   1.374
61062W        W34130  32.932  39.033  12.098
61063W        W34131  36.392   8.012  12.041
61064W        W34132  29.221   6.969   0.358
61065W        W34133  11.698   9.145   9.904
61066W        W34134  17.378  23.767  12.909
61067W        W34135  40.511   9.215   3.318
61068W        W34136  41.454   2.992   4.757
61069W        W34137  14.551   1.729  10.755
61070W        W34138  18.201   0.648  13.051
61071W        W34139  29.744  16.070   1.771
61072W        W34140  22.240  41.501  12.398
61073W        W34141  22.113  40.182   4.622
61074W        W34142  16.683  10.609  14.427
61075W        W34143  44.387  44.908   1.562
61076W        W34144   8.102  16.730   3.139
61077W        W34145  19.183  20.621   2.296
61078W        W34146  12.201  11.270  14.230
61079W        W34147  25.040   0.249   0.917
61080W        W34148  17.368  34.911   3.369
61081W        W34149   2.930  35.051   4.476
61082W        W34150   8.889  37.034   3.210
61083W        W34151  31.521  17.830  12.322
61084W        W34152  43.551   7.800   0.639
61085W        W34153  37.676  30.615   0.220
61086W        W34154  38.493  15.611   4.538
61087W        W34155  40.599  21.185  10.292
61088W        W34156   7.189  23.044  11.244
61089W        W34157  43.973  29.875   4.684
61090W        W34158  10.884   2.135  11.121
61091W        W34159  19.215   8.777  13.472
61092W        W34160  22.031  15.630  11.464
61093W        W34161  16.021  10.210  12.326
61094W        W34162  29.820  25.986  12.307
61095W        W34163   5.051  33.983  14.451
61096W        W34164  32.892  23.200  11.796
61097W        W34165   6.344  41.338  11.142
61098W        W34166  25.149  28.094  11.165
61099W        W34167  14.403  14.744  10.753
61100W        W34168  31.513  15.541   3.146
61101W        W34169  20.932  21.510  13.328
61102W        W34170  42.946  29.064   4.772
61103W        W34171   6.725  11.312   2.319
61104W        W34172   2.452  21.136   1.374
61105W        W34173  44.888  21.305  11.105
61106W        W34174  36.968  11.766   3.450
61107W        W34175  41.418  16.188  14.913
61108W        W34176  35.581  25.987   3.571
61109W        W34177  19.548  23.133   4.582
61110W        W34178  44.552  28.089  11.395
61111W        W34179  13.810  30.106   4.255
61112W        W34180  42.717   2.580  13.767
61113W        W34181  18.258  24.610  14.885
61114W        W34182  23.865   7.877   1.813
61115W        W34183  27.989  34.329   3.841
61116W        W34184  20.679  31.447   3.205
61117W        W34185   1.683  24.018  13.114
61118W        W34186   8.455   1.316   0.374
61119W        W34187  40.555  22.158  14.434
61120W        W34188  38.316  14.699   0.638
61121W        W34189   3.696  20.777   0.272
61122W        W34190  11.876  33.494   1.439
61123W        W34191  26.516   8.313   0.027
61124W        W34192   3.327  24.174   5.122
61125W        W34193  20.299   4.943   3.171
61126W        W34194  37.149  26.985  14.827
61127W        W34195  42.147  26.424   5.121
61128W        W34196  11.840  26.993   4.540
61129W        W34197  11.252  20.165   4.538
61130W        W34198  10.687  37.243  14.973
61131W        W34199  38.302  12.080   3.649
61132W        W34200   9.687   9.265   0.630
61133W        W34201  23.577  32.317   4.221
61134W        W34202   3.188   1.478   1.396
61135W        W34203  16.170   1.048   4.623
61136W        W34204  30.948   3.306   5.000
61137W        W34205  33.294  39.930   4.042
61138W        W34206  25.174  20.537  12.905
61139W        W34207  43.056   6.279   2.682
61140W        W34208  15.087  18.737  12.003
61141W        W34209   3.184  35.057   2.248
61142W        W34210   4.215  37.474  13.917
61143W        W34211  18.747  42.610  11.494
61144W        W34212  35.881   3.114   2.342
61145W        W34213  20.363  25.491   3.923
61146W        W34214  42.613   8.178   1.304
61147W        W34215  21.172  38.075  10.586
61148W        W34216   8.930  35.029   4.067
61149W        W34217  16.347   0.527  13.476
61150W        W34218  19.062  35.670   3.723
61151W        W34219  32.713   6.526  10.259
61152W        W34220   2.167  40.685  10.736
61153W        W34221  34.120  40.281   2.286
61154W        W34222   3.004  23.893  14.428
61155W        W34223   3.490  17.034   0.268
61156W        W34224  17.722   1.393  10.920
61157W        W34225  27.059  31.518   4.665
61158W        W34226  36.980  21.725   4.620
61159W        W34227  23.793  15.383  12.975
61160W        W34228  27.538   2.999  10.686
61161W        W34229   7.718  24.500   0.915
61162W        W34230   1.465  24.030  13.576
61163W        W34231  39.770  36.923   3.189
61164W        W34232  11.729  35.580   2.763
61165W        W34233  39.886   4.012   0.231
61166W        W34234  36.930  44.811  10.747
61167W        W34235   9.405  20.955   3.306
61168W        W34236  38.514   7.625  14.032
61169W        W34237  29.061  18.785  11.588
61170W        W34238  33.426  24.470  12.005
61171W        W34239  11.778   6.769   1.894
61172W        W34240  22.957   9.678   1.806
61173W        W34241  11.866  27.299   0.400
61174W        W34242   2.894  23.958   4.905
61175W        W34243   0.712   6.631  13.330
61176W        W34244  17.670  44.830   4.111
61177W        W34245  34.701  29.523  11.098
61178W        W34246  21.568   1.695   4.814
61179W        W34247   0.754   7.744  11.101
61180W        W34248   3.467  41.074   1.063
61181W        W34249  39.624   4.296   1.572
61182W        W34250  23.561  34.414  11.150
61183W        W34251   6.266  35.559  14.757
61184W        W34252   2.183  30.500  13.913
61185W        W34253  11.158  35.001  14.856
61186W        W34254  27.218  37.000  11.555
61187W        W34255  38.531   2.601   3.861
61188W        W34256  19.608   3.431   2.319
61189W        W34257  24.040  16.253  13.504
61190W        W34258  38.551   5.510  12.860
61191W        W34259  42.329   2.724   0.279
61192W        W34260  35.480  25.225   4.656
61193W        W34261   8.135   4.296  14.468
61194W        W34262  23.218  24.449  13.227
61195W        W34263  43.410   2.839   3.615
61196W        W34264   5.184  11.301  12.127
61197W        W34265  27.230  38.146   3.758
61198W        W34266  29.882  26.243  14.423
61199W        W34267  38.286   4.505  12.063
61200W        W34268  26.495   4.233   4.096
61201W        W34269  40.364  36.122   3.742
61202W        W34270  14.030  42.009  13.833
61203W        W34271  35.218  19.289  13.025
61204W        W34272  26.570  29.953  13.456
61205W        W34273  18.167  28.665  12.408
61206W        W34274  26.037  19.959   4.631
61207W        W34275   0.071  31.084  12.465
61208W        W34276  24.379  37.673  10.512
61209W        W34277  34.798  22.475   9.907
61210W        W34278   3.196   6.359  13.791
61211W        W34279  34.733  22.049   1.398
61212W        W34280  43.377  36.322  11.170
61213W        W34281  23.557  39.624  13.453
61214W        W34282  26.416  23.419  10.305
61215W        W34283  37.954  38.879  12.017
61216W        W34284   0.700  13.286  12.917
61217W        W34285  17.030  31.058  13.483
61218W        W34286  29.332  38.685   5.105
61219W        W34287  41.075  32.061  12.272
61220W        W34288  34.558  33.669   4.554
61221W        W34289  15.903  14.752  13.365
61222W        W34290  14.401   3.169  10.750
61223W        W34291  42.488   4.909   1.671
61224W        W34292  41.420  44.829   4.864
61225W        W34293  15.776   6.099  10.588
61226W        W34294  22.572  37.832   1.983
61227W        W34295  30.598  35.769   0.990
61228W        W34296  20.173   6.421   3.249
61229W        W34297  20.051   6.584   2.778
61230W        W34298  15.111  15.189   4.428
61231W        W34299  22.638  39.636  14.409
61232W        W34300  34.183  42.123   3.041
61233W        W34301   4.925  34.905  11.554
61234W        W34302  31.125  37.903  11.495
61235W        W34303  23.021   3.519   4.132
61236W        W34304  38.031  44.282   2.789
61237W        W34305  20.121   1.395  12.186
61238W        W34306   8.578  43.092   1.365
61239W        W34307  21.247  18.052   1.867
61240W        W34308  23.540   6.734  12.516
61241W        W34309   6.217   6.329   1.420
61242W        W34310   5.579  27.017  10.751
61243W        W34311  25.572   3.249  13.412
61244W        W34312   6.426  43.513  12.255
61245W        W34313  33.411   1.310   1.964
61246W        W34314   2.796  21.305   2.183
61247W        W34315  20.228   6.671   2.299
61248W        W34316  21.733   4.814  12.966
61249W        W34317  38.945  44.380   0.688
61250W        W34318  34.642   3.129  11.071
61251W        W34319  44.904   6.282  10.131
61252W        W34320  42.678  14.063   0.753
61253W        W34321  43.433  32.163  12.147
61254W        W34322   1.941   3.211   2.349
61255W        W34323  28.006   9.637  13.972
61256W        W34324   3.116  43.559  14.884
61257W        W34325   8.466  35.931  13.076
61258W        W34326  36.009  22.978  11.023
61259W        W34327  23.092   9.289   4.298
61260W        W34328  10.134  31.001  14.971
61261W        W34329  25.678   6.936   1.692
61262W        W34330   4.203  43.053  14.342
61263W        W34331  18.007  17.541  12.871
61264W        W34332  14.865  22.324   1.682
61265W        W34333  38.479  20.179  10.741
61266W        W34334  11.432  42.868  13.963
61267W        W34335   0.711  13.536  13.584
61268W        W34336  27.660  19.109  14.743
61269W        W34337  28.443  26.285  13.457
61270W        W34338  11.627  12.240  10.830
61271W        W34339   1.667  16.276   1.337
61272W        W34340   3.942  31.396   2.235
61273W        W34341  21.129  16.177   5.024
61274W        W34342  11.292  39.051   1.048
61275W        W34343  13.481  44.344   1.392
61276W        W34344   7.796  43.804   3.863
61277W        W34345  37.765  38.676  10.918
61278W        W34346  32.476   9.517  13.789
61279W        W34347   8.289   8.206   4.385
61280W        W34348  41.034  16.157   0.361
61281W        W34349   9.935  26.298  11.522
61282W        W34350  12.770  27.568  11.395
61283W        W34351  35.061  15.062  11.154
61284W        W34352  15.615  13.134   2.266
61285W        W34353   5.940  36.446  11.609
61286W        W34354  27.697  26.542   5.263
61287W        W34355  23.941   0.392  11.440
61288W        W34356  24.055  37.395   1.034
61289W        W34357  31.610  14.280  10.980
61290W        W34358   8.985  26.165   0.878
61291W        W34359  40.629  30.926  13.807
61292W        W34360  27.611  24.922  12.521
61293W        W34361  24.685  33.562  13.404
61294W        W34362  14.688  24.626  14.374
61295W        W34363  23.524  22.239   1.298
61296W        W34364  31.894  33.416   0.684
61297W        W34365  15.943  18.000   0.942
61298W        W34366  16.478   7.868   3.210
61299W        W34367  34.483   3.284  11.953
61300W        W34368   2.769  18.103   3.614
61301W        W34369  26.235  22.062  10.436
61302W        W34370  18.518  33.178   2.593
61303W        W34371  44.982  43.286  13.099
61304W        W34372  22.017  17.807   5.180
61305W        W34373  35.485   3.363  14.890
61306W        W34374  25.670   5.750   0.405
61307W        W34375  34.625  34.902  13.134
61308W        W34376  21.274  26.722   3.436
61309W        W34377  30.935  21.981  14.437
61310W        W34378  37.541  16.565   3.942
61311W        W34379  10.689   2.650  13.213
61312W        W34380  20.073   7.963   4.086
61313W        W34381  16.247   2.475   1.918
61314W        W34382  20.486  21.604   0.382
61315W        W34383  40.167  23.204  12.682
61316W        W34384   2.706  24.089   1.824
61317W        W34385  19.734  21.124  10.676
61318W        W34386   3.560  31.817   0.988
61319W        W34387  13.875  16.861   2.779
61320W        W34388  38.371  29.240   2.470
61321W        W34389  21.595  30.197  13.417
61322W        W34390  16.341  15.504  11.999
61323W        W34391  11.164  32.441   1.784
61324W        W34392  36.625  44.742   1.991
61325W        W34393   1.313  32.198   0.493
61326W        W34394   2.409  27.184   1.389
61327W        W34395  18.546   0.370  11.014
61328W        W34396  30.779   0.150   0.279
61329W        W34397   7.162  36.823   1.271
61330W        W34398   4.762  15.795   3.545
61331W        W34399  20.667  33.004   3.041
61332W        W34400  35.512  34.803  12.961
61333W        W34401  19.235  32.344   4.026
61334W        W34402  27.832  33.485  10.287
61335W        W34403  42.336  20.827  13.368
61336W        W34404  27.456   9.783   1.909
61337W        W34405  31.102  22.030  11.528
61338W        W34406  18.735   7.122  13.341
61339W        W34407  22.640  33.904   3.340
61340W        W34408  28.419  24.555  13.782
61341W        W34409  25.995  13.439  12.122
61342W        W34410  18.599  38.344  11.378
61343W        W34411  39.688  15.125   4.977
61344W        W34412  30.494  22.400  10.960
61345W        W34413  31.704  17.287   4.634
61346W        W34414  16.535   6.680   4.044
61347W        W34415  10.735  18.016   3.806
61348W        W34416  20.247  11.928  12.891
61349W        W34417   0.814  31.434   4.577
61350W        W34418   4.394  37.278   3.264
61351W        W34419  33.512  11.682  11.007
61352W        W34420  18.378  42.916   3.913
61353W        W34421   7.089  21.707   4.127
61354W        W34422  34.824  12.769  12.463
61355W        W34423  26.514  35.322   2.639
61356W        W34424   5.353  12.985   0.445
61357W        W34425   8.524   1.227  12.427
61358W        W34426  38.473  21.743  14.041
61359W        W34427  37.046  44.328  14.302
61360W        W34428  28.459  19.001  12.827
61361W        W34429   8.849   3.351  14.023
61362W        W34430  18.720  38.604  10.943
61363W        W34431  13.670  36.112  14.353
61364W        W34432  25.163  27.485  10.509
61365W        W34433  30.084   1.715   3.681
61366W        W34434  42.899  17.244   4.077
61367W        W34435  24.986  16.603  11.910
61368W        W34436   9.750  28.521   2.640
61369W        W34437  44.663  23.331   0.934
61370W        W34438  24.622  33.550   2.303
61371W        W34439  23.062  31.048  12.456
61372W        W34440  23.189  28.929  12.460
61373W        W34441   2.953  17.315  12.833
61374W        W34442  30.533  19.624   4.700
61375W        W34443  18.641  15.140   0.019
61376W        W34444   9.363  39.638   1.771
61377W        W34445  34.812  11.354   1.201
61378W        W34446  29.465   5.318  14.944
61379W        W34447  26.273  19.493   4.641
61380W        W34448  32.116  36.082   3.168
61381W        W34449  41.721  13.300   3.635
61382W        W34450  33.975  12.215  11.574
61383W        W34451  15.192  31.697   0.959
61384W        W34452  11.302  44.944   4.145
61385W        W34453  11.612  31.543  11.448
61386W        W34454  29.427  42.436   1.221
61387W        W34455  33.040  41.539   0.332
61388W        W34456  15.312  23.757  13.411
61389W        W34457  21.701  37.435   2.785
61390W        W34458  24.212  32.891  14.410
61391W        W34459  19.637  38.564  10.629
61392W        W34460  24.797  39.065   2.785
61393W        W34461  35.093  33.387   3.281
61394W        W34462  18.330  34.058   2.145
61395W        W34463  31.930  23.652  11.496
61396W        W34464  44.378  43.165  13.934
61397W        W34465   0.514  22.968   4.212
61398W        W34466   9.891   9.862  10.979
61399W        W34467  37.779  41.435  14.499
61400W        W34468   6.738  36.857   3.608
61401W        W34469  23.048  26.919   3.315
61402W        W34470  32.409  15.807  10.680
61403W        W34471  21.911  22.209  14.334
61404W        W34472  41.453  44.330   4.630
61405W        W34473  30.527   0.348  11.148
61406W        W34474  38.713   8.061  13.801
61407W        W34475  29.673  16.544  12.703
61408W        W34476  22.810   1.326  14.973
61409W        W34477  12.903   8.496   3.313
61410W        W34478  10.897  21.216   4.103
61411W        W34479   9.404  27.659   4.850
61412W        W34480  14.784  42.048   2.660
61413W        W34481  38.665  21.551  12.093
61414W        W34482  36.957  16.269   4.559
61415W        W34483  13.325  15.553  13.881
61416W        W34484  26.004  12.853  10.633
61417W        W34485  28.548  12.187   2.125
61418W        W34486  11.765  20.258   4.504
61419W        W34487  27.430  40.533  13.823
61420W        W34488  33.588   5.913   4.447
61421W        W34489  33.060  20.113   2.812
61422W        W34490  41.824  24.029  11.573
61423W        W34491  24.604  41.299  13.072
61424W        W34492  15.953  14.242   0.204
61425W        W34493  14.841  31.946  14.392
61426W        W34494  25.772   1.157   1.888
61427W        W34495  23.227  32.064  12.503
61428W        W34496  20.341  42.480   3.141
61429W        W34497  21.113  26.837   4.712
61430W        W34498  30.162  40.795   1.353
61431W        W34499  37.570   9.143   2.251
61432W        W34500  25.616  25.046   3.178
61433W        W34501  16.993  44.537   5.093
61434W        W34502  39.878  30.590   0.271
61435W        W34503   7.915  21.859   4.560
61436W        W34504  33.187   7.635  10.983
61437W        W34505  32.408   8.719   3.306
61438W        W34506  36.324  34.941   1.033
61439W        W34507  27.066  42.958   0.844
61440W        W34508   3.701  30.010  10.647
61441W        W34509   5.013  41.480  12.867
61442W        W34510  17.270  15.083   3.200
61443W        W34511  20.944  20.057  14.320
61444W        W34512  39.583  37.535   2.691
61445W        W34513  37.886   7.472   3.749
61446W        W34514  43.280  25.012  10.714
61447W        W34515   1.865  26.202   1.014
61448W        W34516  16.787   8.307  12.550
61449W        W34517  11.645  17.182   1.175
61450W        W34518  41.498  18.747   4.617
61451W        W34519  37.922  23.683   1.378
61452W        W34520  17.701  32.087   0.007
61453W        W34521  42.282   7.868   4.094
61454W        W34522  17.664  14.600  14.845
61455W        W34523  35.575  16.619  10.741
61456W        W34524  28.859  18.408   2.297
61457W        W34525  19.739  37.014   2.224
61458W        W34526  12.716  27.968  14.008
61459W        W34527   4.119  17.811   4.279
61460W        W34528  33.924  22.072   0.814
61461W        W34529  25.266  20.971  14.384
61462W        W34530  18.698  28.637   3.411
61463W        W34531  19.151  24.142   0.246
61464W        W34532  11.805  27.486  11.250
61465W        W34533  23.828  14.181  10.485
61466W        W34534   2.653   7.939   1.399
61467W        W34535  12.298  13.669  14.085
61468W        W34536  26.451  39.937  12.372
61469W        W34537  14.187  12.115  11.929
61470W        W34538  22.673  44.038  10.657
61471W        W34539   6.539  43.531   0.395
61472W        W34540  21.167  20.601  12.504
61473W        W34541  10.438  16.672   3.217
61474W        W34542  30.328   7.370  14.295
61475W        W34543  44.140  21.265  11.514
61476W        W34544  17.213   4.865  14.201
61477W        W34545  12.841  39.051   3.635
61478W        W34546  30.379  27.889  12.518
61479W        W34547   0.687  10.988  13.872
61480W        W34548  30.012   3.012   0.880
61481W        W34549   2.591  36.219   0.719
61482W        W34550  27.433  42.221   3.584
61483W        W34551  25.708   4.202  14.515
61484W        W34552  32.503  38.667  14.234
61485W        W34553  26.343  41.758   1.099
61486W        W34554  24.158   8.328  11.957
61487W        W34555  10.275  24.262   3.261
61488W        W34556  40.960  20.197  11.991
61489W        W34557  27.134  29.906  12.819
61490W        W34558   5.338   9.392   1.500
61491W        W34559  29.511  34.159   1.671
61492W        W34560  36.922  33.123   2.875
61493W        W34561   7.482  42.404   2.472
61494W        W34562  30.595  33.346   0.740
61495W        W34563  40.106  42.247   0.301
61496W        W34564  42.495   3.000  12.948
61497W        W34565  38.076  37.328   0.752
61498W        W34566   3.304  15.824  11.442
61499W        W34567  17.352  20.064   3.290
61500W        W34568  38.006  34.904  11.124
61501W        W34569  26.556  26.019   3.219
61502W        W34570  42.274  29.885   1.807
61503W        W34571  19.754  20.131   2.843
61504W        W34572  44.863  14.854   3.560
61505W        W34573  25.985  35.575   4.644
61506W        W34574  35.677  24.195   2.339
61507W        W34575  28.008   6.869  10.721
61508W        W34576  44.711  35.051   4.120
61509W        W34577  39.321  23.950  12.898
61510W        W34578   7.374  16.682  11.883
61511W        W34579  29.998   7.520   3.250
61512W        W34580  27.037   9.169  13.454
61513W        W34581   6.231  36.084   1.279
61514W        W34582  37.383  38.978  10.699
61515W        W34583  22.721  31.672   1.882
61516W        W34584  43.605  26.199  11.145
61517W        W34585   6.714   7.812  12.344
61518W        W34586  44.938  25.119  14.563
61519W        W34587   6.808  40.630   1.533
61520W        W34588  40.427  24.726  11.663
61521W        W34589  14.065  28.675  14.415
61522W        W34590  39.764  35.490   4.197
61523W        W34591  26.250  29.339   2.275
61524W        W34592  14.121  19.130  13.560
61525W        W34593  44.943  16.357  12.597
61526W        W34594  10.233   2.530   1.773
61527W        W34595  17.172   4.295  11.259
61528W        W34596  24.577  37.601  13.890
61529W        W34597  14.917   3.664   3.526
61530W        W34598  20.521  16.879  12.548
61531W        W34599  42.331  17.675   1.099
61532W        W34600  10.241   0.413   4.223
61533W        W34601  27.729  39.501  13.463
61534W        W34602  39.084  40.473  11.972
61535W        W34603  17.172  17.645  13.237
61536W        W34604  37.306   3.901  11.883
61537W        W34605  39.896  27.659   1.806
61538W        W34606  40.631   4.288  13.979
61539W        W34607   9.791  29.079   0.696
61540W        W34608   2.071  40.995   0.322
61541W        W34609   4.938  19.456   4.207
61542W        W34610  23.519   6.897   0.755
61543W        W34611  44.263  21.661  11.923
61544W        W34612  43.823  28.524  11.968
61545W        W34613  27.560   3.536   2.315
61546W        W34614  14.818  31.541   3.867
61547W        W34615  14.191  43.364   2.384
61548W        W34616   7.030  13.396  12.998
61549W        W34617  14.090  22.617  12.978
61550W        W34618  14.923  21.590   4.302
61551W        W34619  33.313   5.638  12.885
61552W        W34620   0.506  44.575  11.934
61553W        W34621  41.323   3.492   4.584
61554W        W34622  25.240  20.579   0.230
61555W        W34623  25.304  19.657   1.326
61556W        W34624  32.619   2.396  13.557
61557W        W34625   6.278   2.423  14.355
61558W        W34626  22.610  31.223  13.374
61559W        W34627  40.058  10.802   2.732
61560W        W34628  13.075  10.213  14.995
61561W        W34629   3.327   7.387  11.663
61562W        W34630  36.033   9.677  13.884
61563W        W34631  18.613  16.809   2.229
61564W        W34632  43.159   5.585  12.272
61565W        W34633   8.818  25.287   1.418
61566W        W34634   0.070  23.973   0.187
61567W        W34635  41.368  27.124  14.489
61568W        W34636   0.361  34.363  11.128
61569W        W34637  21.738  17.770  10.804
61570W        W34638  28.078  20.633   2.280
61571W        W34639  36.015  10.217   4.659
61572W        W34640  23.775   7.916   0.759
61573W        W34641  30.941  37.311   2.341
61574W        W34642  40.329  10.697  11.612
61575W        W34643   9.938  19.846  10.585
61576W        W34644   5.266   8.669  14.680
61577W        W34645   7.682  13.620  12.617
61578W        W34646  15.759  12.726  10.587
61579W        W34647   2.486  10.396   3.960
61580W        W34648  38.337  34.540   3.661
61581W        W34649  23.707   0.625  12.374
61582W        W34650  44.894  27.749  11.559
61583W        W34651  39.090  28.695   1.549
61584W        W34652  28.551  21.160  11.057
61585W        W34653  28.614  40.787  12.475
61586W        W34654  13.633  15.091  14.264
61587W        W34655  30.659  23.646  14.876
61588W        W34656  17.127  26.022  13.232
61589W        W34657  14.972  28.443  13.488
61590W        W34658  37.770  16.213  10.524
61591W        W34659  42.455   3.268  10.468
61592W        W34660  33.404  17.162  14.870
61593W        W34661  10.201   1.513   1.812
61594W        W34662   9.056   5.830  14.891
61595W        W34663  21.288  39.816  11.549
61596W        W34664  42.744  21.788  11.950
61597W        W34665  13.238  26.521  12.152
61598W        W34666   7.381  25.631   0.373
61599W        W34667   4.806   4.471   0.925
61600W        W34668   0.579  28.600  11.179
61601W        W34669  43.431  34.672  13.993
61602W        W34670  18.087  15.653  11.913
61603W        W34671  27.972  40.025  11.230
61604W        W34672  34.978  38.130  10.728
61605W        W34673  20.125   5.891  12.036
61606W        W34674  12.817  42.852   3.327
61607W        W34675  42.222  39.621   2.801
61608W        W34676  13.470  44.582   0.440
61609W        W34677  22.087  19.332  13.055
61610W        W34678  35.858  17.278  12.545
61611W        W34679  33.560  40.967  13.869
61612W        W34680  39.615  41.167  11.275
61613W        W34681  30.017  15.783   2.168
61614W        W34682  15.352  29.498   0.448
61615W        W34683  21.579  36.058   1.373
61616W        W34684  12.618  25.532   3.277
61617W        W34685  17.832   6.756   3.559
61618W        W34686  21.811  29.193   3.716
61619W        W34687   3.136   8.825  14.080
61620W        W34688   4.799  22.917  14.738
61621W        W34689  23.829  21.557  14.137
61622W        W34690   3.081  25.904   0.269
61623W        W34691   3.794  23.764  14.918
61624W        W34692  22.705  28.097   2.698
61625W        W34693  25.635  43.586   4.781
61626W        W34694  38.878  16.608  12.839
61627W        W34695  28.915   4.941  11.215
61628W        W34696  35.440  10.228  11.867
61629W        W34697  19.604   8.102  13.271
61630W        W34698  28.534   0.964  10.514
61631W        W34699  22.724   9.696   4.379
61632W        W34700  37.485  18.513   5.035
61633W        W34701  26.679  29.625   0.833
61634W        W34702   2.976  10.272   1.849
61635W        W34703  27.716   2.958  14.311
61636W        W34704  10.244  29.668  11.151
61637W        W34705   5.206   9.426  11.847
61638W        W34706  40.497  28.579   3.179
61639W        W34707  30.526   8.402   4.202
61640W        W34708  38.880  42.496   2.771
61641W        W34709   3.657  10.218  10.604
61642W        W34710   6.534  31.186   2.875
61643W        W34711  29.564   9.117   1.377
61644W        W34712  24.951  25.904  13.940
61645W        W34713  12.734  31.942  11.620
61646W        W34714  14.827  37.034  10.786
61647W        W34715  29.096  19.980  14.474
61648W        W34716  10.769   8.118  13.861
61649W        W34717  24.101  25.986   2.864
61650W        W34718  32.043  34.541  12.072
61651W        W34719  22.586  44.988   9.923
61652W        W34720  30.639  14.255  12.550
61653W        W34721  10.239  12.791   2.338
61654W        W34722   0.797  26.022   3.139
61655W        W34723  39.921  32.098  11.391
61656W        W34724  36.925  21.553   1.377
61657W        W34725  27.392   4.712   1.232
61658W        W34726  32.510   2.998   1.379
61659W        W34727  32.797   5.729  12.865
61660W        W34728   4.210  13.139   2.149
61661W        W34729  39.948  18.515   2.848
61662W        W34730  43.727  40.389  10.676
61663W        W34731  35.672  38.790  14.552
61664W        W34732  39.569  13.701  12.968
61665W        W34733   6.011  42.274  14.436
61666W        W34734  37.958  25.477  13.430
61667W        W34735   0.119  23.869   2.843
61668W        W34736   5.577  39.462  14.249
61669W        W34737  43.282  11.325   0.806
61670W        W34738   7.918  42.810   1.857
61671W        W34739  24.055  44.071   4.187
61672W        W34740  30.198  39.001  12.965
61673W        W34741  11.593  33.294  10.763
61674W        W34742  13.731   0.423   1.904
61675W        W34743  10.167   4.796   4.755
61676W        W34744   0.264  37.032  13.019
61677W        W34745  35.529  19.672   1.437
61678W        W34746  31.108  15.379   0.072
61679W        W34747  38.997   2.732  11.120
61680W        W34748  15.542  37.631   2.751
61681W        W34749  32.781   1.155  10.800
61682W        W34750   6.343  29.864  11.166
61683W        W34751  16.029  35.885   5.015
61684W        W34752  12.599  37.848   1.246
61685W        W34753   6.394  41.912   1.343
61686W        W34754  29.131  15.829  12.602
61687W        W34755  10.922  19.261  12.977
61688W        W34756   6.269  33.941  13.021
61689W        W34757  34.103  39.577   4.104
61690W        W34758  20.025  33.916   4.379
61691W        W34759  40.316  34.140   0.421
61692W        W34760  26.596  17.428   5.006
61693W        W34761   9.381  28.095   2.629
61694W        W34762  39.378   3.831   0.284
61695W        W34763  15.600   9.726   3.534
61696W        W34764  29.755  25.147   4.487
61697W        W34765  17.528  40.398  12.822
61698W        W34766  24.441  23.576   2.797
61699W        W34767  40.435   9.080   4.906
61700W        W34768  10.263   1.693  10.783
61701W        W34769  26.943  30.461   0.607
61702W        W34770  29.169  44.503   1.397
61703W        W34771  31.777  38.292  14.426
61704W        W34772  40.619  37.982  10.899
61705W        W34773   1.775  32.047   0.667
61706W        W34774  16.311  23.068   4.687
61707W        W34775  26.499  39.755  14.389
61708W        W34776   8.367  31.997  13.014
61709W        W34777  11.057   8.261  13.451
61710W        W34778  35.790  21.232   0.045
61711W        W34779   9.856  24.003   3.427
61712W        W34780  27.990  33.221  13.949
61713W        W34781  35.634  24.639  12.915
61714W        W34782  13.588  37.283  10.732
61715W        W34783  22.973  37.562   1.323
61716W        W34784  15.464  13.810  12.145
61717W        W34785  15.048  12.306  14.389
61718W        W34786   8.605   3.680   1.025
61719W        W34787  17.969   2.689   0.744
61720W        W34788  26.037  42.873  10.532
61721W        W34789  13.187  31.467  12.974
61722W        W34790  14.052  10.841   4.112
61723W        W34791  34.786  34.009  13.767
61724W        W34792  30.721   2.798   3.192
61725W        W34793  17.814  14.090  11.533
61726W        W34794  32.787  22.181  14.287
61727W        W34795   5.926   6.214   2.916
61728W        W34796  15.068  23.959  12.450
61729W        W34797  27.426  34.555  14.958
61730W        W34798   6.002   6.976  14.416
61731W        W34799   6.147  23.628  14.218
61732W        W34800   1.373  44.071   4.155
61733W        W34801  26.123   1.884   4.965
61734W        W34802  19.162  31.603   0.665
61735W        W34803  24.733   5.479   1.729
61736W        W34804   4.338  31.284  14.048
61737W        W34805  25.581  29.068  12.434
61738W        W34806  18.237  27.062   1.822
61739W        W34807  16.529  37.954   2.771
61740W        W34808   2.950  24.445   4.684
61741W        W34809  13.168  41.205  11.910
61742W        W34810   1.016   8.895   2.223
61743W        W34811  36.182  23.133  12.520
61744W        W34812  36.895  43.719  13.608
61745W        W34813  18.825  36.526   0.376
61746W        W34814   3.477  10.915   0.730
61747W        W34815  36.435  15.104   1.303
61748W        W34816   5.246  39.837   0.253
61749W        W34817  38.569  42.145  14.328
61750W        W34818   4.883  15.186  12.776
61751W        W34819  42.125  29.407  14.414
61752W        W34820   1.358  27.508   1.749
61753W        W34821  37.415  11.834  12.853
61754W        W34822  21.508   7.785  13.857
61755W        W34823  41.470  35.986   2.638
61756W        W34824  23.244  13.188   0.410
61757W        W34825   3.551  40.891  12.541
61758W        W34826  13.493  21.708  10.550
61759W        W34827  24.582  12.189   3.980
61760W        W34828   5.807  30.428   0.248
61761W        W34829   4.423  18.056  11.663
61762W        W34830   6.200  23.990  13.139
61763W        W34831  20.243  28.881  12.018
61764W        W34832  14.224  41.207  11.619
61765W        W34833  15.159  19.560   2.710
61766W        W34834  24.588  44.869   0.305
61767W        W34835  35.136   7.138  10.050
61768W        W34836  21.632  11.366  14.618
61769W        W34837  13.303   6.184   4.654
61770W        W34838   3.867  21.725   3.345
61771W        W34839  36.751  39.507  13.065
61772W        W34840   6.307  31.855   1.591
61773W        W34841  29.475  34.830   0.758
61774W        W34842  34.083  20.101   4.597
61775W        W34843  24.636  31.920   4.626
61776W        W34844  38.543  16.946   3.291
61777W        W34845  43.329  34.978  14.947
61778W        W34846  13.851   9.343   2.334
61779W        W34847  32.809  10.771  14.293
61780W        W34848   3.654  32.497  13.477
61781W        W34849  26.992  44.531  10.709
61782W        W34850   1.500   8.345   3.679
61783W        W34851  20.910  37.944  12.403
61784W        W34852  24.002   2.371  14.444
61785W        W34853   8.735  36.548   3.124
61786W        W34854  22.547  29.598   3.521
61787W        W34855  14.687  32.997   4.644
61788W        W34856  18.474  27.461  10.671
61789W        W34857  28.360  16.141   3.735
61790W        W34858  28.650  27.567  14.392
61791W        W34859  26.553  38.003  12.451
61792W        W34860  15.348  35.562   0.051
61793W        W34861  33.106   7.772  13.540
61794W        W34862  32.599  17.087   4.182
61795W        W34863  38.504  17.263  13.312
61796W        W34864  18.187  14.611  10.693
61797W        W34865  14.195  13.615   0.197
61798W        W34866  34.836  24.549   2.241
61799W        W34867   3.878  38.879   2.730
61800W        W34868   4.067  18.059   1.798
61801W        W34869  18.376  27.964   5.114
61802W        W34870  43.717  33.813  13.972
61803W        W34871  10.579  16.515  12.342
61804W        W34872  43.689  43.532   1.006
61805W        W34873   8.249  33.728   3.736
61806W        W34874  37.302  35.329   3.523
61807W        W34875  13.929  17.569  14.872
61808W        W34876  11.618  22.812   0.782
61809W        W34877  40.337  12.916  11.554
61810W        W34878  11.666   7.699   3.293
61811W        W34879  39.407  13.185   4.111
61812W        W34880   7.884  19.082  11.039
61813W        W34881  10.658  16.004  12.372
61814W        W34882   7.687  27.158  10.807
61815W        W34883  20.792  10.184   2.234
61816W        W34884  23.458  34.640   3.689
61817W        W34885  11.960  17.102   1.587
61818W        W34886  20.600  40.987  11.880
61819W        W34887  30.360   4.794   3.041
61820W        W34888  33.499  35.971   4.910
61821W        W34889   0.300  19.049   2.229
61822W        W34890  21.125  43.246   0.282
61823W        W34891  17.569  12.087   3.145
61824W        W34892  10.796  22.962   2.132
61825W        W34893  44.972  22.105   2.920
61826W        W34894  18.490  15.599   5.107
61827W        W34895  15.692  42.453   1.709
61828W        W34896  24.703   5.729  14.993
61829W        W34897  25.637  26.047  12.559
61830W        W34898   1.911  36.375  13.042
61831W        W34899  43.767  34.895   0.890
61832W        W34900  39.337  36.291   2.496
61833W        W34901  35.083  40.609  12.797
61834W        W34902  23.514   5.752   4.525
61835W        W34903  41.389  42.930   1.897
61836W        W34904  14.545  36.660  12.854
61837W        W34905  16.811   6.334   0.006
61838W        W34906  21.844   4.395  12.347
61839W        W34907   3.356  23.225  14.953
61840W        W34908   9.675  41.217   0.096
61841W        W34909  37.086  33.882  11.117
61842W        W34910  25.828  24.934   4.197
61843W        W34911   5.914  40.964   1.650
61844W        W34912  12.112  20.997   3.647
61845W        W34913  14.276  10.588  12.066
61846W        W34914  10.341   2.095   0.012
61847W        W34915  37.497  10.765   0.896
61848W        W34916  31.948  18.243   3.792
61849W        W34917  35.707   1.745   3.671
61850W        W34918  25.075  44.392  10.700
61851W        W34919  22.332  35.588   0.932
61852W        W34920  42.313  37.867  10.380
61853W        W34921   3.820  23.481   5.140
61854W        W34922  14.623  37.490  12.902
61855W        W34923  27.475  40.334  13.354
61856W        W34924  13.246  28.963   4.179
61857W        W34925  13.293  23.088  13.872
61858W        W34926  19.490  32.285  12.205
61859W        W34927   0.037   5.939  13.658
61860W        W34928  22.186   0.680  14.470
61861W        W34929   0.492  44.040   3.234
61862W        W34930  13.754  24.869  12.083
61863W        W34931  19.129  36.759   2.758
61864W        W34932  26.447   2.737   1.881
61865W        W34933  31.312  28.258   2.795
61866W        W34934  40.093   4.571   1.234
61867W        W34935   5.362  38.514   2.737
61868W        W34936  37.087   7.457   3.252
61869W        W34937  25.914   6.714  13.846
61870W        W34938   3.872  19.538   0.836
61871W        W34939  37.431  43.694   4.357
61872W        W34940  17.144  10.232   3.251
61873W        W34941  10.202  31.834  14.500
61874W        W34942   0.816   7.368   9.993
61875W        W34943  35.726  14.975  12.518
61876W        W34944  16.535  37.307   0.469
61877W        W34945  23.117  43.976  11.577
61878W        W34946  44.669  43.150  14.444
61879W        W34947  29.002   3.542  14.240
61880W        W34948  21.451  24.676  12.857
61881W        W34949   4.696  21.594   1.343
61882W        W34950  20.268  16.778   2.277
61883W        W34951  33.993  21.734   3.866
61884W        W34952  32.203  12.733  11.959
61885W        W34953  36.428  21.966   2.886
61886W        W34954  16.803  10.764   4.545
61887W        W34955  10.605  41.462  13.267
61888W        W34956  32.441  10.750   0.823
61889W        W34957  17.245  14.545   0.160
61890W        W34958   3.016  44.255   1.194
61891W        W34959  37.338   9.963   2.309
61892W        W34960  29.505  19.657   4.995
61893W        W34961  29.196   5.592   0.290
61894W        W34962  32.052  42.334   0.348
61895W        W34963  39.842  39.921   1.936
61896W        W34964  20.248  25.932  12.465
61897W        W34965  35.864  44.496   1.538
61898W        W34966   6.483  39.341   4.873
61899W        W34967  23.458  26.077   2.121
61900W        W34968  36.153  30.309  11.410
61901W        W34969  22.980  13.652   2.887
61902W        W34970  35.116  37.966  14.473
61903W        W34971  38.880  11.859  13.998
61904W        W34972  37.139  36.923  12.905
61905W        W34973  22.667  19.072  10.344
61906W        W34974  20.422   4.528  14.778
61907W        W34975  16.660  35.809  13.451
61908W        W34976  17.663  30.974  12.331
61909W        W34977  13.626  20.484   2.431
61910W        W34978  32.049  14.725   0.873
61911W        W34979   3.740  37.586  12.121
61912W        W34980   0.872  26.182  12.638
61913W        W34981  32.949  39.730   3.683
61914W        W34982   9.913  16.834  14.836
61915W        W34983  14.235  28.480  13.163
61916W        W34984  18.283  19.745   2.451
61917W        W34985  21.033   9.805  14.064
61918W        W34986  17.585  35.988   0.793
61919W        W34987  19.253  18.768  14.493
61920W        W34988  32.038  19.314   2.668
61921W        W34989  39.750  43.798   4.107
61922W        W34990  39.745  10.262   2.318
61923W        W34991  39.071  16.798   2.733
61924W        W34992  26.901  16.302   2.423
61925W        W34993  33.675  42.956  14.959
61926W        W34994  34.793   7.278  11.086
61927W        W34995   5.910  18.609   4.943
61928W        W34996  15.199  43.038   1.535
61929W        W34997  25.935  12.652   0.904
61930W        W34998  25.796  38.642   1.448
61931W        W34999  10.031   9.810   3.228
61932W        W35000   4.256  36.786   3.162
61933W        W35001  44.761   7.365   4.642
61934W        W35002  35.911  13.819   0.254
61935W        W35003  35.959  25.427   4.624
61936W        W35004   5.475   8.682  10.852
61937W        W35005  26.544   4.705   1.816
61938W        W35006  21.050  32.993  12.148
61939W        W35007  34.317   2.713  11.154
61940W        W35008  11.771  30.287  12.891
61941W        W35009  22.212   0.765  10.582
61942W        W35010   7.957  41.802  11.548
61943W        W35011  28.689   8.346   0.352
61944W        W35012  27.205  28.256   3.306
61945W        W35013  28.891  18.956   2.301
61946W        W35014  13.749  35.038  13.847
61947W        W35015  32.599  27.031   0.954
61948W        W35016  14.626   8.775   2.248
61949W        W35017  10.173  34.162   4.187
61950W        W35018  12.223  25.408   1.210
61951W        W35019  15.204  19.434  11.457
61952W        W35020  34.649   2.995   1.312
61953W        W35021  27.692   2.301   4.719
61954W        W35022  11.652   7.925   0.807
61955W        W35023  34.922  24.968   3.864
61956W        W35024  13.766  43.496  14.532
61957W        W35025  33.990  41.575  10.892
61958W        W35026  18.185  42.239   0.472
61959W        W35027  36.831  38.529  13.923
61960W        W35028   0.491  10.576   4.651
61961W        W35029  32.893  35.043   3.618
61962W        W35030  34.448  23.537  11.229
61963W        W35031  13.870  41.927  14.350
61964W        W35032  18.103  25.548  11.521
61965W        W35033   2.922  44.375  12.655
61966W        W35034  25.689  14.026  10.057
61967W        W35035  31.535   4.949  13.083
61968W        W35036  34.945   0.950  10.183
61969W        W35037  15.851  10.426  14.934
61970W        W35038  14.733  36.506   1.155
61971W        W35039  33.022  29.433   1.692
61972W        W35040  20.134  37.832   4.670
61973W        W35041  32.130   6.861  10.696
61974W        W35042  23.831  38.885  10.560
61975W        W35043  44.720   4.277  11.960
61976W        W35044  44.715   4.531  12.973
61977W        W35045  25.030  10.265   4.236
61978W        W35046  27.625  28.189  12.666
61979W        W35047  17.861  44.600  10.582
61980W        W35048  33.091  39.774  13.483
61981W        W35049  23.699  38.728   4.556
61982W        W35050   2.514  22.438   4.565
61983W        W35051  15.241  24.241   1.171
61984W        W35052  39.402  21.046  13.243
61985W        W35053  39.025  23.461  10.338
61986W        W35054  15.686  40.022  13.965
61987W        W35055  40.022  24.047   3.466
61988W        W35056  33.852  36.999  13.978
61989W        W35057  10.953   6.279  12.425
61990W        W35058  17.626  11.212   4.275
61991W        W35059  33.439  14.796   1.921
61992W        W35060  30.662  14.209  11.582
61993W        W35061  26.182  16.508  14.888
61994W        W35062  33.965  10.422  13.001
61995W        W35063  14.819  23.547  12.590
61996W        W35064  20.151  17.078   4.725
61997W        W35065  12.283  23.682   4.826
61998W        W35066  28.850  42.001  14.054
61999W        W35067  35.985  42.406   3.269
62000W        W35068   3.510  11.795  13.060
62001W        W35069  19.953  35.772   4.525
62002W        W35070  36.953  43.494   4.260
62003W        W35071  28.421  14.849  13.084
62004W        W35072   2.377  44.367  12.406
62005W        W35073  14.231  23.039   3.767
62006W        W35074  43.990   7.308   1.641
62007W        W35075  40.993  36.086  13.056
62008W        W35076   8.198   0.059   2.068
62009W        W35077  41.882  44.244  11.457
62010W        W35078  22.972  42.587   2.831
62011W        W35079   3.660  23.000   0.312
62012W        W35080  20.616  29.834  12.017
62013W        W35081  28.052  19.735   4.181
62014W        W35082   2.927  11.788  10.584
62015W        W35083   0.815  27.635  12.019
62016W        W35084  22.604   0.037  13.020
62017W        W35085   1.388  32.350   0.982
62018W        W35086  13.798  38.106  12.037
62019W        W35087  32.018  23.268  10.497
62020W        W35088  25.303  39.081   2.786
62021W        W35089  10.763  43.455   0.634
62022W        W35090  10.203   6.290   2.233
62023W        W35091  38.612  33.124  12.540
62024W        W35092  40.121  26.657  13.811
62025W        W35093   8.448  15.199  13.128
62026W        W35094  32.399  25.742  10.686
62027W        W35095  41.934  30.367  12.844
62028W        W35096  24.281  29.474  10.895
62029W        W35097   9.854  28.102  10.586
62030W        W35098  19.721  24.467  12.007
62031W        W35099  29.931  16.766   3.213
62032W        W35100  26.633  34.392  14.323
62033W        W35101   2.534  12.787   1.555
62034W        W35102   0.686   9.662  11.957
62035W        W35103  18.175   6.451  10.764
62036W        W35104  33.093  14.043  14.323
62037W        W35105  13.794   0.727  14.151
62038W        W35106  18.621  39.870   3.641
62039W        W35107   7.439  16.226  13.329
62040W        W35108  40.071   5.299   0.183
62041W        W35109  18.702  22.040  12.951
62042W        W35110  31.146  29.135   4.819
62043W        W35111  25.051  20.046   2.329
62044W        W35112  40.890   6.389   5.510
62045W        W35113  12.111   0.403  12.498
62046W        W35114  33.537  38.832  12.837
62047W        W35115  37.491   8.437  14.059
62048W        W35116  31.885  16.251   0.815
62049W        W35117  26.493  26.810   4.088
62050W        W35118  37.091  41.858  11.412
62051W        W35119  23.094  20.707   4.851
62052W        W35120   1.286  32.552   0.108
62053W        W35121  21.078  20.775   2.834
62054W        W35122  28.422  41.279   0.764
62055W        W35123  34.168  42.047  11.040
62056W        W35124  44.428  20.367  13.015
62057W        W35125  11.357   4.829   2.223
62058W        W35126  39.325  30.669   1.418
62059W        W35127  12.764  24.775  10.686
62060W        W35128   5.319  27.086   1.267
62061W        W35129  18.997  43.055  11.493
62062W        W35130   7.720  19.020   0.309
62063W        W35131  38.799  24.549  10.426
62064W        W35132  43.332  44.754   3.635
62065W        W35133  18.768  22.907   2.708
62066W        W35134  15.761  16.038   3.882
62067W        W35135   9.613   6.256  13.555
62068W        W35136  12.815   3.319  14.882
62069W        W35137   9.225  17.860   0.374
62070W        W35138  14.235  38.444   3.731
62071W        W35139  35.665  33.798   4.604
62072W        W35140  31.690  17.294  13.093
62073W        W35141   4.463  17.184  12.038
62074W        W35142   5.183  27.916  13.074
62075W        W35143   6.677  21.763  11.531
62076W        W35144  36.135   6.937  11.064
62077W        W35145  15.399  44.541  13.508
62078W        W35146  24.157   5.427   4.243
62079W        W35147   8.785  21.300   0.403
62080W        W35148   2.412   2.535   3.445
62081W        W35149  26.645  23.274   2.093
62082W        W35150  13.206  15.611  10.754
62083W        W35151   4.771  24.445   2.110
62084W        W35152  41.746  40.901  14.271
62085W        W35153  10.702  32.524   0.467
62086W        W35154  21.501   6.909   4.568
62087W        W35155  18.457  38.793   2.956
62088W        W35156  26.839  23.957   4.750
62089W        W35157  40.606   3.145  14.654
62090W        W35158  12.410   1.574  13.125
62091W        W35159  42.410  15.746   5.277
62092W        W35160  26.000  10.257  12.409
62093W        W35161  11.220  43.905  12.504
62094W        W35162  35.920  22.276   1.584
62095W        W35163   6.139  10.201   3.480
62096W        W35164   7.676  10.905  14.857
62097W        W35165  17.651   9.630   0.942
62098W        W35166  20.468  34.901  12.514
62099W        W35167   5.749  20.462  13.965
62100W        W35168  15.807  20.565   0.470
62101W        W35169  13.301  22.946  12.749
62102W        W35170   9.790  16.475   5.085
62103W        W35171   2.916  11.693   0.047
62104W        W35172  32.433  23.208  12.055
62105W        W35173  21.138  19.783  14.752
62106W        W35174  34.335  16.613   0.052
62107W        W35175  35.319  22.077  10.568
62108W        W35176  32.155   5.490  12.492
62109W        W35177  35.033  14.263  14.348
62110W        W35178  43.004  13.252   1.576
62111W        W35179  42.473  19.245  13.819
62112W        W35180  23.558  21.831   2.208
62113W        W35181  22.493   5.842   4.655
62114W        W35182  30.374  22.575   4.096
62115W        W35183  37.282  30.338   0.954
62116W        W35184  18.150  23.444  12.544
62117W        W35185  18.795  41.912  10.981
62118W        W35186  25.590  20.526  11.195
62119W        W35187  16.682  20.032   2.693
62120W        W35188  18.074   9.843   3.267
62121W        W35189  19.330  13.670   2.192
62122W        W35190  39.757  38.426   4.099
62123W        W35191   1.452  25.675   3.236
62124W        W35192  29.420  12.331  13.831
62125W        W35193  22.103  15.086   2.177
62126W        W35194  29.656   3.524   1.824
62127W        W35195  30.155  40.552  11.531
62128W        W35196  10.196  34.667   4.150
62129W        W35197   3.494  44.023  12.452
62130W        W35198  16.255  20.281   1.351
62131W        W35199  42.323  14.035  12.502
62132W        W35200  35.396  43.393  13.838
62133W        W35201  17.075  29.994   3.655
62134W        W35202   4.022   1.327   2.366
62135W        W35203   7.721  20.778  10.617
62136W        W35204   0.435  42.329   1.670
62137W        W35205   6.823  41.984  12.477
62138W        W35206  14.855   0.472   4.369
62139W        W35207  31.123  35.791   0.925
62140W        W35208  32.169  22.513   0.883
62141W        W35209  33.074  32.077  14.320
62142W        W35210  34.494  27.625   1.793
62143W        W35211  14.849   0.786   2.419
62144W        W35212  22.454  15.585  10.508
62145W        W35213  13.815  14.491   3.764
62146W        W35214  41.437  12.131  12.021
62147W        W35215  12.489  35.768   1.896
62148W        W35216   3.427  44.728  13.767
62149W        W35217   8.683  43.275  12.064
62150W        W35218   7.903   2.029  14.324
62151W        W35219   0.361  44.909   0.802
62152W        W35220  16.293  34.350  13.256
62153W        W35221  30.871   9.858   4.061
62154W        W35222  43.529  11.837   4.545
62155W        W35223  30.057  20.935   4.680
62156W        W35224  43.876  38.138  13.595
62157W        W35225  36.096   6.165   3.647
62158W        W35226   4.105   2.801  12.913
62159W        W35227  42.353  16.594  14.249
62160W        W35228  33.888  10.619   3.664
62161W        W35229  43.410  31.869  10.758
62162W        W35230   1.335   7.664   0.978
62163W        W35231  38.363  26.393  12.555
62164W        W35232  34.540   7.103  11.496
62165W        W35233  24.493   6.112   3.551
62166W        W35234  25.260  41.505  10.915
62167W        W35235  13.629   6.183  14.251
62168W        W35236  17.676  35.360   1.239
62169W        W35237  35.073   5.235   3.662
62170W        W35238  13.849  43.642   1.247
62171W        W35239  37.768  35.376   1.196
62172W        W35240  42.796  12.342  11.889
62173W        W35241   3.766  42.786   2.181
62174W        W35242  44.961  17.586   4.298
62175W        W35243  14.168  19.177  11.126
62176W        W35244   0.988  22.150   0.511
62177W        W35245  41.621   7.269   2.129
62178W        W35246   2.662   6.962   1.417
62179W        W35247  14.626   7.215   0.474
62180W        W35248   9.464  42.234  12.475
62181W        W35249  19.348  40.475   4.580
62182W        W35250   5.185  15.671   0.495
62183W        W35251  27.100  40.512   2.841
62184W        W35252  31.724  35.122  12.900
62185W        W35253  35.920  21.019   0.936
62186W        W35254  39.889  22.651  12.600
62187W        W35255   6.139  35.737  11.022
62188W        W35256   3.381  13.695   0.138
62189W        W35257  13.785   1.783  13.843
62190W        W35258  10.203  39.540  13.471
62191W        W35259  24.735  11.159  14.993
62192W        W35260  42.407  25.495  13.336
62193W        W35261  38.124   8.016  12.653
62194W        W35262   1.088  44.754  10.960
62195W        W35263  16.032   1.819   2.576
62196W        W35264  35.146   9.779  11.898
62197W        W35265  15.851   3.691  10.562
62198W        W35266  12.023  29.043  14.964
62199W        W35267  32.330  18.874   0.930
62200W        W35268   3.271   0.739   2.490
62201W        W35269   8.949  26.903   4.939
62202W        W35270  16.257  34.975   4.676
62203W        W35271  32.446  12.302  14.736
62204W        W35272  41.435  44.281   3.626
62205W        W35273  32.448  28.124  13.497
62206W        W35274  11.733  10.192  11.676
62207W        W35275  17.187  19.467  13.314
62208W        W35276  42.939  42.519  11.007
62209W        W35277  31.515  42.826  11.225
62210W        W35278  15.345  43.967  11.100
62211W        W35279  39.088  31.938  10.950
62212W        W35280  23.343   4.118   1.172
62213W        W35281  11.216   4.040  11.542
62214W        W35282  32.614  10.361   4.651
62215W        W35283  43.857  40.605  11.603
62216W        W35284  14.770  42.047   0.890
62217W        W35285  31.242   9.716   0.381
62218W        W35286   0.084  16.379   1.768
62219W        W35287   4.682  13.060   3.850
62220W        W35288  37.923  23.280   3.263
62221W        W35289  23.017  24.454  12.708
62222W        W35290  37.565  17.609   2.694
62223W        W35291   3.201  23.659   0.758
62224W        W35292  44.999  40.237   3.819
62225W        W35293  15.890  15.570  10.756
62226W        W35294   0.930   1.892  12.790
62227W        W35295   3.899  33.284  11.647
62228W        W35296  35.818  43.528   4.578
62229W        W35297   2.836   1.492   3.646
62230W        W35298  11.699   2.545  14.326
62231W        W35299  31.722  34.646  13.050
62232W        W35300  15.745  24.243   2.226
62233W        W35301  10.896   5.408   0.913
62234W        W35302  40.528  21.942   2.281
62235W        W35303   3.325   7.354   1.482
62236W        W35304  37.584  42.319   3.307
62237W        W35305  11.246  27.458   2.278
62238W        W35306  15.097   3.937  14.738
62239W        W35307  25.109  31.178   3.729
62240W        W35308  27.452  43.977   4.606
62241W        W35309   7.020  41.238  12.753
62242W        W35310   2.790  19.867  11.343
62243W        W35311  40.125   7.639  10.645
62244W        W35312  31.074  39.006   3.634
62245W        W35313  10.814   7.270  13.428
62246W        W35314   9.848  33.469  13.416
62247W        W35315   6.655   7.947  10.810
62248W        W35316  30.143  37.566  10.718
62249W        W35317  17.788  41.931  13.460
62250W        W35318   0.757  44.847   3.844
62251W        W35319  18.641  27.634   3.613
62252W        W35320  16.781  12.722  12.619
62253W        W35321  15.234  35.474  13.045
62254W        W35322  36.046  44.976   1.263
62255W        W35323   4.297  43.000   0.287
62256W        W35324  37.826  16.464   0.921
62257W        W35325  27.912  16.812   4.138
62258W        W35326  13.143  26.085  12.992
62259W        W35327  19.046  34.845  14.970
62260W        W35328  18.141   4.418   1.840
62261W        W35329  42.413  36.902  14.348
62262W        W35330  12.415  19.340   4.411
62263W        W35331  23.872  23.792  11.657
62264W        W35332  17.215  38.228  14.366
62265W        W35333  10.914  31.442  11.114
62266W        W35334  42.381  36.869  10.593
62267W        W35335  14.772  38.463   0.407
62268W        W35336   4.304  24.157  13.572
62269W        W35337  22.525  33.880   5.140
62270W        W35338  32.076  44.484  12.642
62271W        W35339  42.370  10.323  13.361
62272W        W35340  37.901  31.066  10.784
62273W        W35341  35.414  21.311   4.558
62274W        W35342   6.179  10.699  14.062
62275W        W35343  10.306  17.159   4.113
62276W        W35344  42.888  41.283   0.121
62277W        W35345  33.847  30.388  10.588
62278W        W35346  27.652  33.078   4.853
62279W        W35347  27.393  25.121   2.767
62280W        W35348   0.517  33.575   3.201
62281W        W35349  25.132  24.908   2.215
62282W        W35350   1.398  31.144   2.749
62283W        W35351  43.718  37.543  12.499
62284W        W35352  22.909  19.052   4.701
62285W        W35353  26.496  11.220  14.944
62286W        W35354  24.643   9.613   1.268
62287W        W35355  35.502  22.291   2.482
62288W        W35356  30.037  16.077   2.683
62289W        W35357  31.959  26.960   1.822
62290W        W35358  34.420  29.541  10.664
62291W        W35359  33.106   7.916   4.290
62292W        W35360  39.058  14.608   0.404
62293W        W35361  44.973  16.335  13.616
62294W        W35362  37.759   2.501  12.879
62295W        W35363  12.823  15.309   4.693
62296W        W35364  10.653  34.780   0.378
62297W        W35365   9.684  29.384  12.416
62298W        W35366   1.400  43.611  10.662
62299W        W35367   5.180  12.743  13.878
62300W        W35368  16.729  13.240  11.871
62301W        W35369  21.142  23.065   4.725
62302W        W35370  13.387   4.469   1.461
62303W        W35371  30.502  35.174   1.820
62304W        W35372  33.061   9.167   1.345
62305W        W35373  23.467  39.326  14.702
62306W        W35374  40.221  25.120   0.403
62307W        W35375  32.491  14.346   0.250
62308W        W35376  27.383  31.138   2.533
62309W        W35377  18.081  39.901  12.273
62310W        W35378  29.931  37.864   1.008
62311W        W35379  28.088  37.516   4.772
62312W        W35380  10.186  28.158   0.494
62313W        W35381  16.276   2.238   2.802
62314W        W35382  44.544  39.967  11.562
62315W        W35383  12.831  11.814   2.789
62316W        W35384  11.909  20.816  12.522
62317W        W35385  21.196   6.488   4.640
62318W        W35386  43.176  17.950   3.786
62319W        W35387  43.488  41.766   3.798
62320W        W35388  31.229  41.178   4.163
62321W        W35389   5.524  21.334  14.832
62322W        W35390   1.488  41.252  12.351
62323W        W35391  15.739   5.603  11.809
62324W        W35392  38.039  17.311   4.363
62325W        W35393  18.550  44.402  14.320
62326W        W35394  16.441  23.744  11.648
62327W        W35395  10.180  21.676   1.921
62328W        W35396  22.141  14.393   1.168
62329W        W35397  37.152  21.425   3.664
62330W        W35398   7.720  22.760   0.898
62331W        W35399  12.751  23.539  10.927
62332W        W35400  30.060  33.566  11.675
62333W        W35401   6.764  26.965   0.478
62334W        W35402  44.521  39.448  12.011
62335W        W35403  27.939  19.069  11.246
62336W        W35404  39.916   2.431  11.703
62337W        W35405   8.267  13.101   0.265
62338W        W35406   5.378  17.201  12.390
62339W        W35407  21.147   2.823  11.831
62340W        W35408  41.796  25.770   1.533
62341W        W35409  38.263   3.507  12.101
62342W        W35410  18.525  12.400  10.180
62343W        W35411  19.497  33.127  11.706
62344W        W35412  23.702  32.973  14.595
62345W        W35413  17.645   5.404   4.698
62346W        W35414  15.091  27.712  12.680
62347W        W35415  21.122  24.211   0.410
62348W        W35416  22.574  29.131   2.190
62349W        W35417  27.996  30.045  12.024
62350W        W35418  15.879  33.755   2.236
62351W        W35419  30.401  19.001  13.572
62352W        W35420  42.365  12.186   3.889
62353W        W35421  33.641  33.000   1.641
62354W        W35422   7.854  18.864   4.576
62355W        W35423   4.951   7.326  12.754
62356W        W35424  17.273  42.015   4.226
62357W        W35425   5.490   3.426   0.504
62358W        W35426  10.001   9.399   0.160
62359W        W35427   3.396  11.759  12.061
62360W        W35428  41.759  36.667  13.566
62361W        W35429  13.654   7.836  11.123
62362W        W35430  35.778   2.387   4.308
62363W        W35431   9.883   9.399   4.650
62364W        W35432  15.274  40.375  13.929
62365W        W35433  10.677  11.132  12.881
62366W        W35434  34.096  37.018   3.288
62367W        W35435  15.957  13.632  12.110
62368W        W35436  34.446  14.473   1.344
62369W        W35437  41.056  11.621   1.865
62370W        W35438  37.314  16.675  12.028
62371W        W35439  43.890  13.142  13.768
62372W        W35440   3.908   1.955   2.774
62373W        W35441  44.200  39.967  12.942
62374W        W35442   7.725  20.111  13.832
62375W        W35443  19.975   6.124  14.279
62376W        W35444  27.046  32.126   3.376
62377W        W35445  44.313  26.762   9.923
62378W        W35446  43.979  14.210  13.629
62379W        W35447  33.904   8.907  12.880
62380W        W35448  21.119  25.421   2.288
62381W        W35449  32.029  32.968  11.623
62382W        W35450  19.275  19.079   3.490
62383W        W35451  18.689   1.127  10.689
62384W        W35452   9.154  41.452   2.300
62385W        W35453  33.593  39.513   4.142
62386W        W35454  25.235  22.447  14.498
62387W        W35455  20.116   4.923  12.177
62388W        W35456  10.702  22.177   2.776
62389W        W35457   2.174   4.996  11.049
62390W        W35458  19.559  14.684  11.960
62391W        W35459   0.911   1.654  12.356
62392W        W35460  40.271  23.678  14.870
62393W        W35461  32.579  15.685   1.521
62394W        W35462  10.972  17.570   4.514
62395W        W35463  44.293  26.428   1.304
62396W        W35464   4.379  35.638   4.174
62397W        W35465  17.053  29.602  14.024
62398W        W35466  40.980  26.966  12.903
62399W        W35467  28.886  11.846  14.240
62400W        W35468   9.818  30.874  12.511
62401W        W35469  20.245  29.980   1.665
62402W        W35470  29.487  29.072  10.686
62403W        W35471  22.708  25.506   4.225
62404W        W35472   0.724  15.271   0.816
62405W        W35473   5.479  33.006   3.940
62406W        W35474   0.481  15.079  11.918
62407W        W35475  43.447   5.909   3.106
62408W        W35476  32.813   4.242  13.508
62409W        W35477  41.473   8.322  12.879
62410W        W35478  40.785  19.242  11.190
62411W        W35479   0.449  27.378  10.702
62412W        W35480  16.668   9.164  11.104
62413W        W35481  15.288  29.448   3.309
62414W        W35482  43.308  15.410   1.864
62415W        W35483  28.516  23.415   4.256
62416W        W35484  20.057  26.163  14.735
62417W        W35485  30.358   2.816  13.312
62418W        W35486  14.333  23.059  14.758
62419W        W35487  13.345  24.713  12.373
62420W        W35488  40.072  30.896   1.176
62421W        W35489   3.235  33.653   2.424
62422W        W35490   9.171   9.138  12.543
62423W        W35491  43.024  13.665   0.786
62424W        W35492  19.622  14.532  12.846
62425W        W35493  16.056  44.201   0.029
62426W        W35494  22.082  42.280   3.694
62427W        W35495  32.540  39.391   3.563
62428W        W35496  36.265  17.409   0.290
62429W        W35497  39.909  43.901  10.636
62430W        W35498   3.407  15.849   4.086
62431W        W35499  15.031  23.942   3.964
62432W        W35500   8.242  17.534  11.081
62433W        W35501  23.435  35.401  13.736
62434W        W35502  37.188  41.043   1.047
62435W        W35503  22.787  42.671   0.894
62436W        W35504  38.854  25.639   4.065
62437W        W35505   8.145  14.527  14.950
62438W        W35506  28.890   9.781   4.043
62439W        W35507  44.374  35.626   4.659
62440W        W35508  29.033  10.822   0.641
62441W        W35509  21.504  40.963  14.311
62442W        W35510   9.840   0.233   1.448
62443W        W35511   9.100   9.252   2.784
62444W        W35512   4.697  12.467  12.087
62445W        W35513  29.631   1.530   2.851
62446W        W35514  24.938  16.826  12.659
62447W        W35515  17.716  39.018  14.009
62448W        W35516  44.184  21.314  13.263
62449W        W35517   4.803  44.862   4.171
62450W        W35518  18.220  43.054   0.899
62451W        W35519  40.858  34.144   1.919
62452W        W35520  44.737  24.547  10.599
62453W        W35521  37.567  17.084   3.736
62454W        W35522  20.488  40.298  10.705
62455W        W35523  28.818  43.554  12.469
62456W        W35524  27.416  41.321  14.964
62457W        W35525   2.791  13.614   1.290
62458W        W35526  13.084   6.687  14.253
62459W        W35527   0.938  41.965   0.506
62460W        W35528  22.774   7.342   0.828
62461W        W35529  35.676  36.024   3.955
62462W        W35530  43.817  16.413   0.986
62463W        W35531   5.431  27.671  14.363
62464W        W35532  11.248   8.930  12.091
62465W        W35533  30.148  42.062   2.264
62466W        W35534   3.684  38.434  13.773
62467W        W35535  24.693  28.875   4.396
62468W        W35536   0.889  38.467   1.616
62469W        W35537  28.383  39.379   0.946
62470W        W35538  29.532   3.215   0.855
62471W        W35539  16.039  24.127  12.340
62472W        W35540   1.278   8.291  13.501
62473W        W35541  20.285  14.541   1.310
62474W        W35542  21.059  15.633   2.167
62475W        W35543  23.125  42.900  11.824
62476W        W35544  42.984  21.241   2.596
62477W        W35545  13.346  29.273  10.464
62478W        W35546  14.431  13.711   2.836
62479W        W35547  40.846  21.695  14.277
62480W        W35548   6.219  37.321   2.398
62481W        W35549   1.877  41.140   1.704
62482W        W35550  41.335   8.285   1.824
62483W        W35551  42.429  39.924   1.006
62484W        W35552  21.082  32.877   4.206
62485W        W35553  37.505   1.342  10.696
62486W        W35554   5.411  21.672  14.423
62487W        W35555  15.249   1.219   1.641
62488W        W35556  29.758   4.454   3.814
62489W        W35557  26.415  20.195  11.240
62490W        W35558  31.479  43.418  11.906
62491W        W35559  14.384  41.733  14.071
62492W        W35560   9.167  17.538   3.660
62493W        W35561  31.556  40.531  14.827
62494W        W35562   5.446  39.806   4.109
62495W        W35563  18.671  25.980   4.164
62496W        W35564  19.271  35.258  14.760
62497W        W35565  34.117  22.504  10.657
62498W        W35566  24.978  42.929   1.034
62499W        W35567  28.095   8.541   2.639
62500W        W35568  21.327  36.602   2.830
62501W        W35569   0.553  19.143  11.694
62502W        W35570  38.283  20.968  12.114
62503W        W35571  20.133   3.771  12.644
62504W        W35572  20.590  14.801   2.292
62505W        W35573  42.771  30.407  13.409
62506W        W35574  38.484  21.858  11.700
62507W        W35575   0.467  14.251  11.610
62508W        W35576  25.967   2.346   1.557
62509W        W35577  31.742  24.955  11.194
62510W        W35578   4.919  34.479   4.597
62511W        W35579  20.376  30.935  11.727
62512W        W35580  26.226  13.956   0.932
62513W        W35581  14.880  43.011   1.950
62514W        W35582  10.686  38.839   3.851
62515W        W35583  21.623  33.039   3.221
62516W        W35584  36.445  29.501  10.298
62517W        W35585  23.916  28.242  13.667
62518W        W35586  30.421  41.406  11.631
62519W        W35587  28.901   6.430  11.842
62520W        W35588  37.980  23.120   1.413
62521W        W35589  24.435  29.908  13.841
62522W        W35590  24.257  19.380   9.705
62523W        W35591   1.804  20.571   1.769
62524W        W35592  42.346  28.305   1.274
62525W        W35593  29.986  33.177   3.135
62526W        W35594  22.990  30.530   3.190
62527W        W35595  29.252  15.356  13.859
62528W        W35596   5.711  17.774   2.870
62529W        W35597  30.623  38.927   2.694
62530W        W35598   9.189   0.235   2.293
62531W        W35599  36.862   4.788   0.208
62532W        W35600  19.993  32.591  10.828
62533W        W35601  27.878  41.045  12.029
62534W        W35602  40.582  34.624  12.042
62535W        W35603  15.278  17.719   1.244
62536W        W35604  10.685  41.591  14.866
62537W        W35605  10.113  43.126  11.298
62538W        W35606  39.549  25.548   1.275
62539W        W35607  21.465  16.292  14.861
62540W        W35608  21.428   8.799  14.005
62541W        W35609  40.248  29.984  14.205
62542W        W35610  22.127   0.414  11.030
62543W        W35611  42.430  35.500   2.711
62544W        W35612  21.781   0.422  14.959
62545W        W35613   4.149  23.371  13.763
62546W        W35614  26.620   3.856   5.053
62547W        W35615  17.971  32.921   1.363
62548W        W35616  43.489   1.443  14.856
62549W        W35617  36.493  17.167   1.632
62550W        W35618  39.859  18.560   1.877
62551W        W35619  19.740  12.318   1.487
62552W        W35620  13.739  14.195   1.680
62553W        W35621  11.977   6.396   4.077
62554W        W35622  29.201  38.803   4.603
62555W        W35623  36.559   9.742   2.787
62556W        W35624  40.409   8.214  11.485
62557W        W35625  16.208  42.948  11.757
62558W        W35626  14.069  31.664  12.427
62559W        W35627  11.919   4.018   2.389
62560W        W35628   6.117  39.471   3.415
62561W        W35629  20.074  14.598  12.620
62562W        W35630  29.183   3.060  12.117
62563W        W35631  17.138   6.729  14.374
62564W        W35632   5.393  34.810  12.461
62565W        W35633   2.638  14.084   1.450
62566W        W35634   9.825  20.585   2.327
62567W        W35635  24.510  14.797   1.885
62568W        W35636  13.674  12.244  12.076
62569W        W35637  21.672  27.689  11.260
62570W        W35638  41.445   5.950   3.719
62571W        W35639  41.936  19.613   4.032
62572W        W35640  11.613  39.988  13.454
62573W        W35641  41.426  31.318   3.587
62574W        W35642  19.222   3.687   1.880
62575W        W35643  11.304  43.257  13.630
62576W        W35644  27.117  12.551  13.943
62577W        W35645   6.361  32.945   4.324
62578W        W35646  42.496  28.486   2.355
62579W        W35647   7.164  34.304   4.109
62580W        W35648   4.592  28.521   4.271
62581W        W35649   9.418  42.869   3.334
62582W        W35650  27.575  42.816   2.472
62583W        W35651   4.249  19.977   1.683
62584W        W35652   2.225  34.076  13.630
62585W        W35653   9.103   3.631   0.742
62586W        W35654  32.995  43.438  12.602
62587W        W35655   1.443   1.066   1.615
62588W        W35656  17.624  30.955   3.396
62589W        W35657  23.111  41.402  12.497
62590W        W35658  28.060  15.692  11.688
62591W        W35659  32.987  33.387  12.937
62592W        W35660  16.674  24.603   3.050
62593W        W35661  39.459  22.137   0.948
62594W        W35662  22.546  15.769  11.433
62595W        W35663  19.327  34.436   4.652
62596W        W35664  38.321   5.764  13.680
62597W        W35665  14.514  27.043   4.743
62598W        W35666  26.796  13.244   5.211
62599W        W35667   7.275   6.188   2.904
62600W        W35668  20.194  19.053  10.741
62601W        W35669  10.833  26.915   4.941
62602W        W35670  10.373  38.487  13.466
62603W        W35671  18.288  13.142   3.776
62604W        W35672  10.574  29.868  13.587
62605W        W35673  18.090  44.867   1.922
62606W        W35674  38.171  33.566  13.974
62607W        W35675  35.013  19.288  12.550
62608W        W35676  43.157  13.110  14.255
62609W        W35677   2.719  22.577   1.785
62610W        W35678  37.729  15.218   1.701
62611W        W35679  16.618   8.890  10.657
62612W        W35680   8.399  31.831  14.952
62613W        W35681  20.958  22.100   0.991
62614W        W35682  27.139  32.039  14.839
62615W        W35683  24.024  18.644  11.891
62616W        W35684  18.687  23.557  11.821
62617W        W35685   8.053  44.818   1.638
62618W        W35686  11.607  32.458   3.408
62619W        W35687  21.256  21.737  14.702
62620W        W35688   5.423  24.138  11.956
62621W        W35689   2.026  18.935   0.950
62622W        W35690   9.793  25.204  11.678
62623W        W35691  21.388   3.012  13.242
62624W        W35692  26.691   6.656  13.409
62625W        W35693  40.286  21.534  11.153
62626W        W35694  21.336  15.219  11.901
62627W        W35695  43.719   1.432  11.239
62628W        W35696  22.324   0.452   5.634
62629W        W35697   3.287   8.486  13.163
62630W        W35698  28.057  16.769  12.706
62631W        W35699  40.139  12.829  14.352
62632W        W35700   1.678   2.281  13.825
62633W        W35701   3.946  22.795   0.751
62634W        W35702   4.941   7.271   2.206
62635W        W35703  16.303  13.563   4.197
62636W        W35704  30.190   1.946   4.129
62637W        W35705  27.200  12.562   1.412
62638W        W35706  43.190  22.234   2.334
62639W        W35707   4.008  19.333  13.657
62640W        W35708  29.671  30.974   2.059
62641W        W35709  24.719   1.531   0.797
62642W        W35710  27.486  33.564   1.145
62643W        W35711  39.636  20.064   2.693
62644W        W35712   4.330   4.960  11.537
62645W        W35713   4.345  34.267  13.096
62646W        W35714  10.141  14.763  11.034
62647W        W35715  18.767   6.959  12.264
62648W        W35716  17.700  42.425  14.380
62649W        W35717   5.774   5.004  12.020
62650W        W35718  22.388  24.089  12.049
62651W        W35719  16.816  17.248  14.848
62652W        W35720  44.972  42.374  11.224
62653W        W35721   5.899   2.126  13.903
62654W        W35722  39.517  12.747  10.350
62655W        W35723  41.355   4.981  13.577
62656W        W35724  16.285   6.258  10.322
62657W        W35725  16.419  38.964   0.975
62658W        W35726   3.064  31.607  14.035
62659W        W35727   5.703  34.911   4.543
62660W        W35728  36.420  31.301  11.611
62661W        W35729  30.743  22.186   0.949
62662W        W35730   2.636   3.352   4.798
62663W        W35731   5.159  26.027  11.213
62664W        W35732  41.911  33.553   0.371
62665W        W35733  28.697  40.006   2.891
62666W        W35734  21.107  35.856   1.184
62667W        W35735  27.995  41.061  12.956
62668W        W35736  39.095  17.775   0.458
62669W        W35737  43.843   5.685  13.482
62670W        W35738  26.557  43.897  14.342
62671W        W35739  39.841  10.869  11.593
62672W        W35740   7.669   3.992   4.336
62673W        W35741   3.431  14.620   3.749
62674W        W35742   8.750   0.408  14.557
62675W        W35743  27.141  40.367  11.724
62676W        W35744  36.611  43.003   2.812
62677W        W35745  19.182  34.630   3.696
62678W        W35746  35.561  32.175   1.740
62679W        W35747  22.971  16.666  13.956
62680W        W35748  10.807  17.119   1.709
62681W        W35749  33.049  14.161  11.024
62682W        W35750  14.075  34.007  11.683
62683W        W35751  43.800   5.465   1.896
62684W        W35752  32.331  12.216  12.096
62685W        W35753   9.152   1.596  11.686
62686W        W35754  42.804  17.009   0.929
62687W        W35755  30.870  22.711   2.245
62688W        W35756  27.964  39.385   1.267
62689W        W35757  11.366  43.939   4.302
62690W        W35758  41.767   5.720   0.717
62691W        W35759  44.019  32.953  11.134
62692W        W35760  12.872  27.770   3.587
62693W        W35761  17.729  32.315   3.891
62694W        W35762   9.146  19.564  11.644
62695W        W35763  14.603  24.807   2.333
62696W        W35764  23.216  33.635  12.157
62697W        W35765  23.360  27.775   2.918
62698W        W35766  38.807  19.665   4.693
62699W        W35767  10.070  26.083  12.825
62700W        W35768  30.783  42.346   2.725
62701W        W35769   4.750  12.606   4.160
62702W        W35770  35.978  15.838  13.717
62703W        W35771  34.877  28.041   2.150
62704W        W35772  42.060  24.609   0.227
62705W        W35773  42.900  37.779  12.122
62706W        W35774  16.819  20.242  10.376
62707W        W35775   1.017   8.138  14.582
62708W        W35776   2.661  21.744   0.275
62709W        W35777  14.675   1.921  10.294
62710W        W35778   6.130  32.332  14.418
62711W        W35779  36.932   1.824  14.054
62712W        W35780  36.178  35.383   0.782
62713W        W35781  29.689   9.828   0.054
62714W        W35782  42.547  12.194  12.546
62715W        W35783  11.354  40.817   0.852
62716W        W35784  29.860  31.337   3.218
62717W        W35785   0.897  44.272  10.982
62718W        W35786  32.277   8.732   1.324
62719W        W35787  22.636  43.423   2.468
62720W        W35788  26.307   8.816   3.968
62721W        W35789  12.394  44.619  13.993
62722W        W35790  16.195   7.801  14.792
62723W        W35791  36.851  35.134  12.686
62724W        W35792  26.658   5.909   4.840
62725W        W35793   3.769  32.534  14.000
62726W        W35794  30.584   6.416   4.344
62727W        W35795  13.143   9.507   3.270
62728W        W35796  30.741  39.457   1.276
62729W        W35797  28.061  24.666  12.539
62730W        W35798  14.191  18.252  14.886
62731W        W35799   0.476  26.651  11.505
62732W        W35800   2.142  14.223   4.994
62733W        W35801  28.488  19.609  14.287
62734W        W35802  12.933  19.582   1.923
62735W        W35803  34.876  25.642  12.496
62736W        W35804  35.137  10.420  12.532
62737W        W35805  23.218  22.735  14.381
62738W        W35806   7.178  44.825   2.449
62739W        W35807   1.858  34.190  11.441
62740W        W35808  22.049  30.541  14.418
62741W        W35809   5.956  36.971  12.030
62742W        W35810  31.329   2.680  11.246
62743W        W35811  44.879   6.685   0.788
62744W        W35812   6.728  13.765   1.137
62745W        W35813   1.124  26.192  13.476
62746W        W35814  35.917  15.236   3.705
62747W        W35815  44.313  29.718   0.229
62748W        W35816  12.008   9.070   2.708
62749W        W35817  11.111   8.451   3.584
62750W        W35818   2.994  42.822   1.312
62751W        W35819  41.079  39.617  12.007
62752W        W35820  14.828  40.018   4.599
62753W        W35821  21.974  44.212   1.149
62754W        W35822   5.154   1.726   0.790
62755W        W35823  38.361  21.726  13.064
62756W        W35824  40.894  33.639  11.401
62757W        W35825  21.598  17.729   4.875
62758W        W35826   5.153  34.204   4.222
62759W        W35827  28.134   9.454  11.916
62760W        W35828  18.260  28.445   3.785
62761W        W35829   6.786  32.379  13.357
62762W        W35830  27.649   8.218  13.755
62763W        W35831  15.327  26.964   1.472
62764W        W35832  23.463  27.693   2.150
62765W        W35833  24.810  42.718   2.558
62766W        W35834   3.398  10.054  10.186
62767W        W35835  10.182  31.002  10.836
62768W        W35836  35.727  39.722  12.050
62769W        W35837  32.954  19.507   0.704
62770W        W35838   6.429  43.444  11.698
62771W        W35839  23.102   4.934   3.574
62772W        W35840   7.819  18.431  10.346
62773W        W35841  36.920  41.954  13.752
62774W        W35842   5.270   2.276  12.516
62775W        W35843  10.177  22.319  10.711
62776W        W35844  33.295   3.625   1.358
62777W        W35845   0.820  19.740   1.510
62778W        W35846  17.994   7.855   3.304
62779W        W35847  12.393  16.278  14.418
62780W        W35848   0.855   0.299   9.657
62781W        W35849  42.923  19.983  13.503
62782W        W35850  36.034  12.483   3.582
62783W        W35851  42.498  12.124  13.949
62784W        W35852  26.455  33.395  11.179
62785W        W35853  26.390  36.543  10.714
62786W        W35854  35.009  21.324   3.203
62787W        W35855  16.857  24.161  11.137
62788W        W35856  35.473  21.549   1.823
62789W        W35857  19.258  12.575   1.379
62790W        W35858  44.209   9.709   3.319
62791W        W35859  15.310  40.294   4.146
62792W        W35860   2.702  10.356   1.220
62793W        W35861  41.107  38.366   1.369
62794W        W35862  25.801  25.882   0.033
62795W        W35863  39.717  35.924  11.628
62796W        W35864   9.022   2.829   4.150
62797W        W35865  41.830   7.130   3.421
62798W        W35866  11.368  15.863   1.214
62799W        W35867   6.760   1.712  14.277
62800W        W35868  28.046  19.885  14.334
62801W        W35869   0.463  23.587   3.707
62802W        W35870  40.329  18.646   4.157
62803W        W35871  17.678   4.736  12.365
62804W        W35872  31.841  39.649  14.320
62805W        W35873  43.549  42.380   1.900
62806W        W35874   1.800   0.254   4.564
62807W        W35875  13.947  41.342   1.270
62808W        W35876  30.342  17.333   4.330
62809W        W35877   8.297  28.240   3.351
62810W        W35878  43.134  13.331   4.888
62811W        W35879   5.169   7.797   3.347
62812W        W35880  12.734  17.514  10.534
62813W        W35881   3.983  39.258  13.513
62814W        W35882  14.191   7.102  13.457
62815W        W35883  38.630   0.627   3.792
62816W        W35884  29.385  23.560   2.814
62817W        W35885  11.741  25.690  13.135
62818W        W35886  36.586  20.605  12.629
62819W        W35887  10.142  15.613   0.826
62820W        W35888   1.750  10.116   3.847
62821W        W35889  32.380   5.387  14.823
62822W        W35890   4.037  32.447   3.277
62823W        W35891   6.394   3.539   1.405
62824W        W35892  36.031  13.109  13.121
62825W        W35893  13.858  30.781  14.465
62826W        W35894  19.164   2.615   4.229
62827W        W35895  16.907  28.641   3.034
62828W        W35896   3.868   2.346  11.988
62829W        W35897  35.532  30.869  10.983
62830W        W35898  15.688   8.376  13.957
62831W        W35899  28.486   4.148   2.474
62832W        W35900  29.177  11.202   0.958
62833W        W35901   3.951  34.583   0.814
62834W        W35902  26.513  30.545   1.768
62835W        W35903  35.936   1.444  13.913
62836W        W35904  24.233  32.579  13.995
62837W        W35905  35.400  20.824   4.368
62838W        W35906  13.315   9.076   0.963
62839W        W35907   8.916  30.976  13.721
62840W        W35908  24.588   0.703  12.586
62841W        W35909  16.634  23.907   2.218
62842W        W35910  32.853  31.373   2.196
62843W        W35911   9.188   5.653   3.017
62844W        W35912  11.110  34.197   4.258
62845W        W35913   1.267   5.664  12.080
62846W        W35914  39.013  25.566   2.145
62847W        W35915  21.993  33.817  13.787
62848W        W35916  42.345  39.042  12.021
62849W        W35917  41.343  13.810   1.893
62850W        W35918  28.778  39.351  12.550
62851W        W35919  26.221  40.342   3.812
62852W        W35920  17.762  36.204  11.577
62853W        W35921  41.854   8.291  12.529
62854W        W35922  36.596  26.287  14.248
62855W        W35923  40.571   1.806   3.151
62856W        W35924  35.122   6.920   4.156
62857W        W35925  41.377  33.449  13.533
62858W        W35926   8.214  20.676  10.881
62859W        W35927   0.890  25.905   0.449
62860W        W35928   8.772  39.297   4.603
62861W        W35929  24.028  40.628   3.598
62862W        W35930  11.418   6.278  14.879
62863W        W35931  20.463  18.560   1.689
62864W        W35932  11.353   8.824  10.666
62865W        W35933   0.794  18.567   4.524
62866W        W35934  13.796  18.312   2.851
62867W        W35935  40.894   0.266  12.183
62868W        W35936  26.535  23.103   3.092
62869W        W35937  21.108   7.985   1.784
62870W        W35938  11.197  40.089   3.830
62871W        W35939  11.856  24.946   2.048
62872W        W35940  12.299   9.622   2.651
62873W        W35941  44.742  42.408  10.774
62874W        W35942  23.056   7.535  11.774
62875W        W35943  25.623  18.611   1.618
62876W        W35944  24.159  33.491   1.879
62877W        W35945   7.437  42.881   1.662
62878W        W35946  11.813   0.978  13.606
62879W        W35947  34.144  27.405  14.343
62880W        W35948  30.568   5.935  14.493
62881W        W35949  41.314  31.852   3.860
62882W        W35950  39.690  17.715  12.689
62883W        W35951  17.682  29.942  12.970
62884W        W35952  16.353  44.775   2.126
62885W        W35953  42.571  21.953   4.702
62886W        W35954  22.232  24.165   3.765
62887W        W35955  40.991  23.205  10.660
62888W        W35956  26.425  20.977  12.552
62889W        W35957  24.630  17.390   4.169
62890W        W35958  13.649  43.389  13.952
62891W        W35959  22.717   1.896  12.572
62892W        W35960   1.414  41.821   1.882
62893W        W35961   7.094  22.159  14.411
62894W        W35962  23.974  42.079   1.427
62895W        W35963  25.677  21.334  14.405
62896W        W35964  17.733   4.662   1.286
62897W        W35965  21.906  40.804   2.913
62898W        W35966  30.428  30.143  13.760
62899W        W35967   5.315  36.811   3.311
62900W        W35968  26.220  16.239  12.438
62901W        W35969  32.135  39.389  11.940
62902W        W35970   1.773  37.149   0.534
62903W        W35971  36.019  19.888   2.359
62904W        W35972  11.374  16.758   5.479
62905W        W35973  38.059  11.816  11.075
62906W        W35974   9.732  12.609  13.653
62907W        W35975   8.364  14.991  14.727
62908W        W35976  35.397  38.194  13.504
62909W        W35977   1.975  20.680   0.246
62910W        W35978  26.308  15.245  12.192
62911W        W35979  12.164  26.634  13.835
62912W        W35980  17.534  33.152  12.072
62913W        W35981  39.005  35.918  10.679
62914W        W35982  44.866  32.040  12.571
62915W        W35983  16.758  13.738  10.702
62916W        W35984  11.841  17.560  12.129
62917W        W35985   1.807  44.325   1.348
62918W        W35986  43.451   6.819   3.598
62919W        W35987  40.804  13.763  10.158
62920W        W35988  36.545  42.465  14.311
62921W        W35989  36.921  30.489  14.105
62922W        W35990  33.583  34.631  13.824
62923W        W35991  13.561   4.796  14.286
62924W        W35992  24.054   0.290  12.101
62925W        W35993   7.989   7.836  13.789
62926W        W35994  36.570   4.857   4.299
62927W        W35995  37.362  43.314   4.001
62928W        W35996   0.975  22.375  13.838
62929W        W35997  20.403  32.328  12.553
62930W        W35998  36.027   8.681   1.114
62931W        W35999  31.471  26.752   1.822
62932W        W36000  25.408  25.834  11.865
62933W        W36001   1.417  14.768   4.044
62934W        W36002  44.282  20.837  14.676
62935W        W36003  42.947  33.515  10.768
62936W        W36004   1.924  37.334  11.247
62937W        W36005   5.096   0.731   5.075
62938W        W36006  28.210  29.473   1.059
62939W        W36007   7.155   9.881  10.996
62940W        W36008  36.373   8.409   2.510
62941W        W36009  15.124  32.629   0.975
62942W        W36010  25.559  26.334  11.881
62943W        W36011  44.003  39.497  13.033
62944W        W36012   1.703   7.662   2.224
62945W        W36013  40.151   4.424   4.596
62946W        W36014  33.166   0.849  13.444
62947W        W36015  20.567  18.113   2.634
62948W        W36016  28.410  25.531   4.786
62949W        W36017   7.837   5.862  12.687
62950W        W36018  28.276  26.986   0.305
62951W        W36019  36.565  14.870  14.825
62952W        W36020  15.526  40.847  11.780
62953W        W36021  18.102  33.074   3.614
62954W        W36022  41.379  34.449  13.432
62955W        W36023  10.370  15.727   2.187
62956W        W36024  30.698  31.420  13.560
62957W        W36025  24.483  39.824   4.269
62958W        W36026  38.097  20.557   4.506
62959W        W36027   8.676  10.716  11.536
62960W        W36028   3.658   8.841  13.966
62961W        W36029  36.480   5.471   3.456
62962W        W36030  26.646   0.022  12.526
62963W        W36031  38.304  38.529   0.976
62964W        W36032  28.518  18.200   1.527
62965W        W36033  44.505  27.117  12.946
62966W        W36034  38.824  15.595  12.908
62967W        W36035   9.520  35.946   2.823
62968W        W36036  18.713   3.738  12.603
62969W        W36037  25.931  21.664  12.652
62970W        W36038  16.486  37.438   2.637
62971W        W36039  32.383  39.504   0.369
62972W        W36040  38.128   6.451   0.317
62973W        W36041  29.638  17.347   4.972
62974W        W36042  44.504  10.608  11.155
62975W        W36043  33.405   7.700  12.944
62976W        W36044  15.336  44.069   4.009
62977W        W36045  34.230  24.712   0.390
62978W        W36046  16.700  17.539   4.604
62979W        W36047  20.060   2.184   3.345
62980W        W36048  27.078  32.289   0.985
62981W        W36049  17.739  13.521  13.771
62982W        W36050  26.399   0.303   3.337
62983W        W36051  14.746  33.992   4.641
62984W        W36052  44.320  41.175   1.584
62985W        W36053   2.354  36.961  14.356
62986W        W36054  43.573   5.165  13.043
62987W        W36055  41.758  21.261   1.224
62988W        W36056  37.512   3.835  13.039
62989W        W36057  25.175   2.709  11.948
62990W        W36058  44.944  21.035   0.885
62991W        W36059  27.225   6.158   1.793
62992W        W36060  24.274  27.196  13.869
62993W        W36061  16.605  10.572  11.487
62994W        W36062  40.410  25.779  12.430
62995W        W36063  38.590  27.929   0.326
62996W        W36064   1.797  24.984   3.535
62997W        W36065  21.284  17.846  11.086
62998W        W36066  14.809  42.556  12.814
62999W        W36067  34.933  22.803  14.443
63000W        W36068  31.679  44.423  12.977
63001W        W36069  41.921  44.539   4.747
63002W        W36070  16.822  29.472   0.201
63003W        W36071  41.513  15.719  12.786
63004W        W36072  25.624  38.072   0.392
63005W        W36073  34.039  25.939   4.549
63006W        W36074  32.145   1.606  11.840
63007W        W36075  36.727  25.149   4.818
63008W        W36076  32.362   7.718   3.295
63009W        W36077  40.391  38.563  13.955
63010W        W36078  11.430  39.915  12.974
63011W        W36079  41.896   1.181  11.185
63012W        W36080  21.547  33.372   2.674
63013W        W36081  20.462  19.105   2.682
63014W        W36082  38.996  41.935  12.625
63015W        W36083  28.699  27.363   4.353
63016W        W36084  36.980  36.413  14.478
63017W        W36085  44.447  21.516  10.600
63018W        W36086  29.903  40.243   0.012
63019W        W36087   1.362  12.474  13.888
63020W        W36088  32.851  23.219  10.376
63021W        W36089   2.608   2.710  13.111
63022W        W36090  18.337   5.317  10.935
63023W        W36091  28.096   3.280  10.667
63024W        W36092   7.931   4.313  12.590
63025W        W36093  20.726   1.140   3.251
63026W        W36094  43.907  28.575  13.369
63027W        W36095   9.174  31.148   2.293
63028W        W36096  30.004   9.173  12.498
63029W        W36097  35.927  27.476   0.217
63030W        W36098  34.887   0.576   2.532
63031W        W36099  30.505  37.412  11.130
63032W        W36100  44.739   3.361   3.782
63033W        W36101  33.399  41.526   2.710
63034W        W36102  23.877  37.089  14.961
63035W        W36103  37.290  13.752  10.570
63036W        W36104   6.950  40.693  10.080
63037W        W36105   3.625   3.444   0.266
63038W        W36106   7.199   7.965   0.462
63039W        W36107  20.715  31.435   1.851
63040W        W36108  15.445  21.289  14.802
63041W        W36109   1.223  39.682   4.369
63042W        W36110  34.833  22.250  10.397
63043W        W36111  11.363  17.392   0.299
63044W        W36112  26.041   3.235  12.881
63045W        W36113  36.570  26.550  13.365
63046W        W36114   3.376  29.169  13.615
63047W        W36115  12.567  44.845   0.236
63048W        W36116   6.139   7.496   4.290
63049W        W36117  44.600   1.440   2.833
63050W        W36118  15.944  16.519   3.152
63051W        W36119  32.902   1.189  12.074
63052W        W36120  22.632  38.887   3.601
63053W        W36121  16.331  43.445   1.358
63054W        W36122  32.573  43.863  14.962
63055W        W36123  31.582  23.961   2.321
63056W        W36124  43.111  27.689   3.711
63057W        W36125  12.338   3.282   2.075
63058W        W36126   0.714   5.821  13.086
63059W        W36127  15.738  42.715   3.397
63060W        W36128  42.462  18.059  13.135
63061W        W36129   1.878  24.404   0.202
63062W        W36130   1.406  29.864   3.215
63063W        W36131   9.896   0.560  12.305
63064W        W36132  33.050   2.360  14.881
63065W        W36133  39.536  32.434  14.444
63066W        W36134  10.873  27.128   3.352
63067W        W36135  43.214  19.263   2.042
63068W        W36136   4.706  29.697   3.761
63069W        W36137   5.739  41.897  11.804
63070W        W36138  13.250   7.659   2.632
63071W        W36139  21.558  26.502  11.370
63072W        W36140   6.417   6.910  14.095
63073W        W36141  37.046   3.473   0.888
63074W        W36142  28.555  36.536   3.825
63075W        W36143  19.022  23.091   4.545
63076W        W36144  40.642  24.089  13.149
63077W        W36145   7.838   3.027  13.976
63078W        W36146  42.078  16.142   5.385
63079W        W36147  11.382  18.580  12.527
63080W        W36148  13.400  18.678   1.696
63081W        W36149  44.568  19.102  11.619
63082W        W36150   6.077  25.022   9.955
63083W        W36151  37.873   1.251   0.952
63084W        W36152   0.066  26.942  10.652
63085W        W36153  14.588   1.437   3.125
63086W        W36154  32.025   3.935  10.578
63087W        W36155   7.344  28.637  12.413
63088W        W36156  39.215  15.116   2.435
63089W        W36157   1.606   5.692   3.156
63090W        W36158  18.159  44.498  12.982
63091W        W36159  19.417  39.442  12.402
63092W        W36160  16.618  22.151   3.684
63093W        W36161  20.106  17.521   2.762
63094W        W36162  23.747  40.961  11.468
63095W        W36163  11.294  37.134   4.912
63096W        W36164  16.696  26.004  12.889
63097W        W36165  44.924   1.320   4.299
63098W        W36166  38.542  30.865   0.375
63099W        W36167   5.899  21.527  14.533
63100W        W36168  14.263  41.779  10.963
63101W        W36169   0.343  42.500   0.709
63102W        W36170  31.654  27.531  10.678
63103W        W36171  40.470  17.818  11.127
63104W        W36172  22.728  30.635  11.222
63105W        W36173  26.730   5.745  13.892
63106W        W36174   4.257   0.827   2.373
63107W        W36175  43.663  36.468  12.463
63108W        W36176  20.611   4.357   0.219
63109W        W36177  14.282  16.177   2.950
63110W        W36178  27.398   3.378  14.387
63111W        W36179  42.464  29.874  10.655
63112W        W36180  13.938  18.208  10.477
63113W        W36181  25.044  36.450   3.797
63114W        W36182  17.706  13.903  12.312
63115W        W36183  40.583  30.074  10.496
63116W        W36184  18.672  18.055  14.510
63117W        W36185  21.714   5.367  11.572
63118W        W36186  31.519  15.046   1.772
63119W        W36187  11.131  26.153  13.493
63120W        W36188  39.785  38.409  14.910
63121W        W36189  10.412  28.217  10.944
63122W        W36190  13.714  35.816  11.564
63123W        W36191   3.674  26.389  13.892
63124W        W36192  26.231   9.863   2.356
63125W        W36193  43.862  33.902   2.934
63126W        W36194   0.321  37.015  10.545
63127W        W36195  21.245  44.320   2.839
63128W        W36196   2.951  27.979  11.554
63129W        W36197  16.264   7.432   0.858
63130W        W36198  26.704  38.485  12.510
63131W        W36199  42.974  35.644  13.346
63132W        W36200  37.521  11.226  13.547
63133W        W36201   6.287  14.619  13.026
63134W        W36202  44.272   9.980   0.770
63135W        W36203  23.657  39.510  12.913
63136W        W36204   1.756  43.881   1.644
63137W        W36205  42.110   3.975   1.679
63138W        W36206  17.974   6.804   0.896
63139W        W36207  13.712  21.487   2.294
63140W        W36208  37.315   8.148   1.931
63141W        W36209  18.152  36.873  12.454
63142W        W36210  18.131   7.121  11.559
63143W        W36211  34.247   3.980   1.475
63144W        W36212  21.760   4.428   4.321
63145W        W36213   8.705  16.762  11.363
63146W        W36214  13.771   7.793   1.877
63147W        W36215  26.457  25.915   3.704
63148W        W36216  31.599  15.262  12.393
63149W        W36217  34.938  35.365   3.913
63150W        W36218  28.225   6.952  12.224
63151W        W36219  19.555  21.507   2.803
63152W        W36220  10.561  44.066  12.896
63153W        W36221  23.889  15.341  14.300
63154W        W36222  23.341  44.755   0.712
63155W        W36223  11.787  18.901   4.717
63156W        W36224  40.502  23.756  13.548
63157W        W36225  16.686  23.621   4.132
63158W        W36226  29.355  14.073  14.974
63159W        W36227   2.001  22.903   2.449
63160W        W36228  29.043  28.108   4.718
63161W        W36229   6.468  39.467  14.528
63162W        W36230  20.848  34.208  10.687
63163W        W36231  10.139  10.373  13.435
63164W        W36232   9.252  22.505   2.379
63165W        W36233  25.872  41.539   3.084
63166W        W36234  11.616  36.326   4.388
63167W        W36235  14.752  20.371  13.113
63168W        W36236   1.876   0.366  11.920
63169W        W36237  37.442  19.732  12.044
63170W        W36238  25.786   0.523   1.645
63171W        W36239  20.318  14.287   3.400
63172W        W36240  26.229  26.950   2.313
63173W        W36241  35.665  25.657  12.981
63174W        W36242  26.669  34.430   1.209
63175W        W36243  11.449  20.044   2.248
63176W        W36244  38.865  11.134  11.536
63177W        W36245   5.630  43.065  11.623
63178W        W36246  29.100  31.593  14.468
63179W        W36247   0.774  21.436   0.982
63180W        W36248  14.357  25.704   2.443
63181W        W36249  22.598  13.582  10.407
63182W        W36250   7.048  42.985   2.017
63183W        W36251  27.209  12.401  13.327
63184W        W36252  12.791  18.410  10.910
63185W        W36253  19.705  38.723   0.872
63186W        W36254  43.183  24.505  10.671
63187W        W36255  14.644  43.008   0.778
63188W        W36256  29.172  38.134   2.688
63189W        W36257  44.813   2.278  10.714
63190W        W36258  41.412   9.849  14.787
63191W        W36259  24.510  35.077  11.080
63192W        W36260  41.965  18.747  14.771
63193W        W36261   1.031  36.036   1.237
63194W        W36262  20.501   5.879   3.268
63195W        W36263  19.296   7.291  14.244
63196W        W36264  19.743  25.132   2.132
63197W        W36265  39.795   8.456  10.128
63198W        W36266   1.521  10.830   0.769
63199W        W36267  10.779  27.685  14.433
63200W        W36268  25.556  18.243  10.648
63201W        W36269  10.855   5.116  14.957
63202W        W36270   1.521  31.211   3.675
63203W        W36271   4.509  12.331  14.365
63204W        W36272  24.570  26.768  14.226
63205W        W36273   5.853  35.121  12.594
63206W        W36274   9.340  26.421  13.092
63207W        W36275  10.756  27.751  10.271
63208W        W36276  33.507  33.095  11.442
63209W        W36277  20.682  44.270  13.821
63210W        W36278  18.015  30.542   4.753
63211W        W36279  21.605  30.538  14.791
63212W        W36280  18.124  26.577   2.223
63213W        W36281  22.404  38.074   2.448
63214W        W36282   2.006  41.874  12.402
63215W        W36283  43.812  16.594   2.967
63216W        W36284   8.247  21.566  11.137
63217W        W36285   7.719  35.368  12.953
63218W        W36286  25.149   1.517  11.309
63219W        W36287   7.231  42.508   2.914
63220W        W36288  44.494  21.470   3.164
63221W        W36289  20.281  28.551  11.024
63222W        W36290  37.130  40.485  11.914
63223W        W36291  27.494  41.046  13.793
63224W        W36292  42.898  27.736  12.512
63225W        W36293  41.619  36.406  10.805
63226W        W36294  15.773  26.716   3.274
63227W        W36295  18.874  29.387   3.154
63228W        W36296   8.483  41.093   3.960
63229W        W36297   4.836   8.651  12.896
63230W        W36298  27.070  12.754   0.042
63231W        W36299  43.766  42.923   1.444
63232W        W36300  32.012  38.391   0.226
63233W        W36301  19.469  39.021   1.788
63234W        W36302  44.501  22.562   2.383
63235W        W36303  21.235   4.854  13.107
63236W        W36304  22.914  37.958   2.349
63237W        W36305  43.694   8.302   0.465
63238W        W36306  32.864   5.239  13.006
63239W        W36307  13.232  30.173   4.824
63240W        W36308  20.301  10.690   1.621
63241W        W36309  26.487  12.771  12.437
63242W        W36310  21.163  27.450   4.124
63243W        W36311   6.047   9.981   5.200
63244W        W36312   0.913  17.544  12.001
63245W        W36313   9.203  10.231   1.354
63246W        W36314  30.863  26.289  12.851
63247W        W36315   9.676  10.480   2.827
63248W        W36316   6.353   9.565   1.571
63249W        W36317  17.686  24.417   2.715
63250W        W36318  12.861  37.562  14.870
63251W        W36319  22.278  40.387   0.285
63252W        W36320  42.249   0.048   2.364
63253W        W36321  29.924  42.461   4.204
63254W        W36322  16.561  17.103  12.347
63255W        W36323  42.010  10.235   0.296
63256W        W36324   4.494  29.084  14.028
63257W        W36325  25.355  22.192  10.316
63258W        W36326  29.509  26.609   4.611
63259W        W36327  23.579  28.604  13.459
63260W        W36328  32.371   8.665  10.275
63261W        W36329  44.590   4.129   0.706
63262W        W36330  35.799   0.271  13.151
63263W        W36331  16.573  11.803   1.578
63264W        W36332   5.885  32.569  12.908
63265W        W36333   5.679   1.772   4.885
63266W        W36334  44.979  24.104   0.676
63267W        W36335  25.374   2.313   4.081
63268W        W36336  35.862  36.783   2.802
63269W        W36337  44.342  42.777  11.198
63270W        W36338   3.517  44.179   1.129
63271W        W36339  33.482  43.177   3.435
63272W        W36340  34.053   6.206   0.263
63273W        W36341  33.446  20.205   4.292
63274W        W36342  10.353   4.430  11.272
63275W        W36343  27.175  29.871   1.462
63276W        W36344   0.362  32.926   4.593
63277W        W36345  25.946  34.797   3.965
63278W        W36346  32.654  37.896   1.642
63279W        W36347  30.967   5.888  14.054
63280W        W36348  37.167   9.708   1.748
63281W        W36349  21.540  41.872  14.529
63282W        W36350   2.955  43.662   4.313
63283W        W36351  40.005  39.547   1.289
63284W        W36352   4.652  25.534  14.797
63285W        W36353  29.126  19.272   4.835
63286W        W36354  43.566  43.750   0.212
63287W        W36355   7.763  36.867  11.172
63288W        W36356  18.720  14.798   1.836
63289W        W36357  34.991  13.240  13.687
63290W        W36358  29.713   1.328   1.974
63291W        W36359  33.519   1.196  11.329
63292W        W36360  28.090  18.747   5.334
63293W        W36361  40.241   3.210  12.891
63294W        W36362  14.891  18.224  12.003
63295W        W36363  21.364  26.188   0.946
63296W        W36364  12.176  14.845   1.019
63297W        W36365  35.566  19.181   1.803
63298W        W36366  23.409   8.328  12.411
63299W        W36367  40.778  12.124  11.641
63300W        W36368  26.543  37.423   3.588
63301W        W36369  19.283  24.799  12.046
63302W        W36370   2.990  42.479   2.830
63303W        W36371  15.136  29.921   2.647
63304W        W36372  18.537  10.386  10.486
63305W        W36373  26.929  23.433   0.758
63306W        W36374   6.947  41.024   4.248
63307W        W36375  11.885  36.580   0.432
63308W        W36376  19.603  27.174   3.683
63309W        W36377  19.118  21.173   1.059
63310W        W36378  37.318  15.562   4.958
63311W        W36379  44.751  32.108  14.902
63312W        W36380   4.065  24.102   0.879
63313W        W36381   2.200   1.822   2.339
63314W        W36382  19.837  20.196   1.264
63315W        W36383  42.289  42.345  14.273
63316W        W36384  44.785  32.652  14.869
63317W        W36385  42.487  33.399   3.090
63318W        W36386   6.700  16.335   4.547
63319W        W36387  18.790  42.613   3.986
63320W        W36388  21.177  26.807  12.660
63321W        W36389   3.811  44.234  11.559
63322W        W36390   8.717   8.833   4.874
63323W        W36391  27.082  16.290   1.502
63324W        W36392  10.723  41.872   4.982
63325W        W36393  34.551   2.908  14.971
63326W        W36394   9.016  40.953   2.287
63327W        W36395  18.965  15.487  12.010
63328W        W36396  39.038  32.326   1.862
63329W        W36397   8.244   4.017   0.502
63330W        W36398  34.399  28.932  14.353
63331W        W36399  12.639  41.072  10.785
63332W        W36400  17.879  36.473   3.639
63333W        W36401  34.174   1.068  13.320
63334W        W36402  37.400  19.629   1.387
63335W        W36403  33.541  15.500  11.136
63336W        W36404  36.072  18.368  11.678
63337W        W36405  27.684  40.594   2.274
63338W        W36406   7.856   5.939   4.888
63339W        W36407   1.282  28.951  14.032
63340W        W36408  21.579  12.677  13.852
63341W        W36409  33.639   3.288  11.453
63342W        W36410  26.317   1.675   3.054
63343W        W36411  30.652  20.618   1.467
63344W        W36412  19.912  42.767  14.882
63345W        W36413  21.072   5.115   0.278
63346W        W36414  15.552  12.058  14.399
63347W        W36415  21.218  21.234  10.489
63348W        W36416  16.882  22.307   0.841
63349W        W36417  35.165  11.330  11.543
63350W        W36418  26.599  10.855  11.045
63351W        W36419  27.964  37.782   4.072
63352W        W36420  24.709   4.137   1.451
63353W        W36421  14.521  12.704   1.903
63354W        W36422   9.339  30.808  14.059
63355W        W36423  37.488  10.276  12.617
63356W        W36424  27.274   5.252   3.235
63357W        W36425   7.609  31.430  11.835
63358W        W36426  21.707  21.493   1.034
63359W        W36427   2.528  16.594   2.651
63360W        W36428  21.236   2.195   2.755
63361W        W36429  23.307  19.485   4.705
63362W        W36430   8.451   7.167  12.071
63363W        W36431  35.124  36.389  13.739
63364W        W36432  22.731  24.250   0.190
63365W        W36433  20.021  30.072  14.802
63366W        W36434  23.695  36.868   4.625
63367W        W36435  32.043  26.727   2.287
63368W        W36436  43.789  17.070   2.745
63369W        W36437  23.159   2.731  10.542
63370W        W36438  10.268  40.759   1.904
63371W        W36439  29.688  26.676   0.715
63372W        W36440  17.288  10.212   0.919
63373W        W36441  28.477  43.501   3.177
63374W        W36442   0.968  34.632   2.561
63375W        W36443  13.881  10.012  11.413
63376W        W36444  43.353  26.246  13.836
63377W        W36445   5.707   3.418   2.429
63378W        W36446  39.649  19.034   1.936
63379W        W36447  21.006   2.461   3.199
63380W        W36448  40.798  21.202   1.969
63381W        W36449   4.451  43.456  11.643
63382W        W36450   3.661  20.111   0.971
63383W        W36451   8.257  33.064  14.739
63384W        W36452   3.777   0.182  14.521
63385W        W36453  16.591   2.725   3.857
63386W        W36454   2.834   1.538   1.781
63387W        W36455  31.607  43.697  12.363
63388W        W36456  11.690  13.065   0.409
63389W        W36457  21.700   7.016  12.958
63390W        W36458  17.197  42.316  14.229
63391W        W36459  21.569  32.892  14.398
63392W        W36460  13.733  30.163  14.320
63393W        W36461   2.276  33.047  10.554
63394W        W36462  23.753   1.239  11.158
63395W        W36463  16.759  22.023  14.054
63396W        W36464   4.599  18.258  12.127
63397W        W36465  14.235   2.525   4.279
63398W        W36466  30.565   2.227   2.112
63399W        W36467  35.098  20.405   0.969
63400W        W36468   6.774  13.162   4.935
63401W        W36469  17.012   1.952  12.524
63402W        W36470   9.883  38.622  14.329
63403W        W36471  41.432  18.555   2.413
63404W        W36472  26.174  25.703   1.764
63405W        W36473  44.368  18.786   4.523
63406W        W36474  11.578  34.719   3.292
63407W        W36475  27.214   5.778   3.606
63408W        W36476  13.777   4.222   2.421
63409W        W36477  38.042  20.286  14.387
63410W        W36478  15.997  24.230   4.333
63411W        W36479   6.311  15.692  12.948
63412W        W36480  16.586   5.767  11.861
63413W        W36481  35.882  11.435  14.489
63414W        W36482   6.109   6.698   0.985
63415W        W36483   3.492  42.026   3.266
63416W        W36484  35.051  31.666  13.959
63417W        W36485  39.887  16.819   1.969
63418W        W36486  18.903  37.706   1.328
63419W        W36487  11.066   1.343   1.787
63420W        W36488  36.649  38.596   3.105
63421W        W36489  35.047  24.564   0.993
63422W        W36490  39.954  38.340   3.629
63423W        W36491  38.492  26.317  11.699
63424W        W36492   2.249   7.795  10.663
63425W        W36493  19.072  23.033   3.137
63426W        W36494   0.369  36.019   4.863
63427W        W36495  13.003   7.491   1.495
63428W        W36496  31.679   7.331   1.888
63429W        W36497  38.966  16.318   1.962
63430W        W36498   4.597  21.327   0.897
63431W        W36499  16.391   9.881  10.669
63432W        W36500  11.532   4.978  11.716
63433W        W36501  10.871   0.061   2.325
63434W        W36502  10.351  24.559  10.597
63435W        W36503  36.998  13.699   3.147
63436W        W36504  20.132  10.799   2.537
63437W        W36505  34.999  17.536   0.333
63438W        W36506  17.299  10.236   0.026
63439W        W36507   2.697  33.955  13.407
63440W        W36508   7.422   8.947   0.299
63441W        W36509   9.285   7.239  11.459
63442W        W36510  26.156   0.280   1.953
63443W        W36511   4.289  10.850  12.880
63444W        W36512  41.966   4.271   2.079
63445W        W36513  40.861   7.800   3.383
63446W        W36514  42.749  14.786  12.845
63447W        W36515  34.166  12.082   0.522
63448W        W36516  34.768  15.877  10.354
63449W        W36517  14.000   9.067  11.870
63450W        W36518  17.024  19.859   3.629
63451W        W36519  23.580  21.041   0.913
63452W        W36520  26.302  21.707   4.550
63453W        W36521  22.714  41.417   2.718
63454W        W36522   2.714  23.095   2.847
63455W        W36523   4.465   8.376   3.305
63456W        W36524  31.034  43.403  14.532
63457W        W36525   6.296  27.736   3.230
63458W        W36526  38.040  34.514   0.151
63459W        W36527  29.687  30.736  11.098
63460W        W36528  32.548  18.305  11.954
63461W        W36529  22.372  11.944  13.326
63462W        W36530   5.993   9.597   0.918
63463W        W36531   1.296   5.325  14.209
63464W        W36532  44.368   8.915  10.195
63465W        W36533   9.913   7.428   0.828
63466W        W36534  12.146  38.235  12.091
63467W        W36535  15.790   3.192  10.608
63468W        W36536  16.315  35.094   0.655
63469W        W36537   9.624  10.627  14.990
63470W        W36538   5.776  18.571  13.600
63471W        W36539   4.661   8.248   0.546
63472W        W36540  44.755  14.428  12.970
63473W        W36541   3.413  18.727   3.313
63474W        W36542  26.529  24.036  10.954
63475W        W36543  36.364  27.581  13.782
63476W        W36544  16.146  41.761  12.903
63477W        W36545  33.881  16.528  11.863
63478W        W36546  19.772  37.976  11.962
63479W        W36547  43.100  25.503  14.540
63480W        W36548  28.239  30.233   4.302
63481W        W36549   5.854  11.768   4.150
63482W        W36550   3.341  28.428   4.324
63483W        W36551   5.842  24.706   4.712
63484W        W36552  44.051  18.546   4.183
63485W        W36553  14.948   2.838   2.651
63486W        W36554  33.022  11.598   4.616
63487W        W36555   2.018   8.549  12.923
63488W        W36556  41.965  26.235   2.195
63489W        W36557   4.775  24.220   9.920
63490W        W36558  44.844   7.222  12.936
63491W        W36559  33.984  13.378  14.022
63492W        W36560  10.450  23.990   2.840
63493W        W36561  22.461  20.978   4.129
63494W        W36562   8.966   0.331  12.089
63495W        W36563   3.179  22.657   2.295
63496W        W36564   6.329  17.546   3.726
63497W        W36565  35.411  17.498  12.416
63498W        W36566  14.885  25.176  10.694
63499W        W36567   0.252  35.226   0.727
63500W        W36568  30.705  24.050   0.852
63501W        W36569  15.047  31.621  12.576
63502W        W36570   8.350  22.488  11.225
63503W        W36571   1.709   9.849   1.797
63504W        W36572  26.672  27.052  12.841
63505W        W36573  10.806   1.957   3.740
63506W        W36574  24.640  36.527  13.439
63507W        W36575  12.256  21.293   3.251
63508W        W36576  21.111  40.614   2.262
63509W        W36577  40.974  36.564  13.845
63510W        W36578  29.243  13.696   0.328
63511W        W36579  21.307  12.558  11.202
63512W        W36580  43.443  13.827   4.220
63513W        W36581  44.452  34.836   2.341
63514W        W36582  13.519  15.160  13.607
63515W        W36583  37.796  23.319  11.184
63516W        W36584  30.011  32.513   2.577
63517W        W36585  30.884  36.383  11.739
63518W        W36586  15.162  44.718   0.341
63519W        W36587  13.104   2.498  10.783
63520W        W36588  17.256   9.954  13.136
63521W        W36589  24.514   3.022  10.665
63522W        W36590  42.472  16.106  14.396
63523W        W36591   5.945  30.039   4.179
63524W        W36592  10.582  16.302   0.257
63525W        W36593  43.351  22.252  14.493
63526W        W36594  18.348  34.954  10.633
63527W        W36595  25.594  24.661  12.552
63528W        W36596  41.481  42.942   0.426
63529W        W36597  10.755  44.568  10.593
63530W        W36598  17.580  25.656  12.863
63531W        W36599   3.077   0.703   1.312
63532W        W36600  29.398   2.290   4.198
63533W        W36601  12.808  30.979  12.455
63534W        W36602  27.068  22.124  13.814
63535W        W36603  25.046  37.817  13.964
63536W        W36604  27.539  34.602  11.128
63537W        W36605  39.595   0.796   3.671
63538W        W36606  23.939  38.241  12.380
63539W        W36607  28.601  31.384  14.444
63540W        W36608  44.259   8.246   3.696
63541W        W36609  36.516  20.122   2.764
63542W        W36610  34.919   2.157   4.726
63543W        W36611  22.108  14.582   3.581
63544W        W36612  32.644  24.482   4.777
63545W        W36613  15.627  37.861   0.274
63546W        W36614  44.384  14.713  14.239
63547W        W36615  14.431  11.349   3.265
63548W        W36616  15.555  34.607   2.299
63549W        W36617   2.291  17.338  10.862
63550W        W36618  12.428  36.392   2.225
63551W        W36619   2.757   3.517   4.259
63552W        W36620  17.088   6.127   1.726
63553W        W36621  14.261  15.541  12.931
63554W        W36622   5.119  10.978  11.551
63555W        W36623  16.643  35.464   4.234
63556W        W36624   5.843   5.151  11.439
63557W        W36625  38.884  36.167  11.124
63558W        W36626  27.177   8.123  13.440
63559W        W36627  19.919  27.887  14.314
63560W        W36628  10.078   7.444   9.994
63561W        W36629  34.493  38.385   3.647
63562W        W36630  36.978  39.062  12.152
63563W        W36631  38.480   7.194  10.294
63564W        W36632  34.372  13.240   2.914
63565W        W36633  26.670  25.212   2.306
63566W        W36634  23.293  37.537   0.467
63567W        W36635  41.120  39.117  11.156
63568W        W36636  22.781  44.527   4.507
63569W        W36637   8.376  25.482   3.701
63570W        W36638  40.831  12.254   2.437
63571W        W36639  42.425  27.471  12.492
63572W        W36640   8.757  38.026  12.606
63573W        W36641  25.063  10.331   1.100
63574W        W36642   3.192   5.853   3.207
63575W        W36643   0.792  36.877  10.732
63576W        W36644   6.060  38.445   4.733
63577W        W36645  20.225  21.156  10.522
63578W        W36646  27.056  39.333  13.836
63579W        W36647   2.740  23.727  14.893
63580W        W36648  23.904  25.162   4.474
63581W        W36649  23.825  30.400  12.074
63582W        W36650  44.625  32.469  12.349
63583W        W36651   7.891   0.480   1.157
63584W        W36652   6.298  31.703  10.706
63585W        W36653  31.509  25.768   1.910
63586W        W36654  33.894   1.487   2.110
63587W        W36655  31.370  17.125   0.951
63588W        W36656  12.521  23.074  13.374
63589W        W36657  34.040  34.202   1.774
63590W        W36658   2.397  42.057  13.413
63591W        W36659  43.898   2.668  13.395
63592W        W36660  29.679  21.535  11.617
63593W        W36661  23.195  28.559   1.294
63594W        W36662   1.840   7.751  12.377
63595W        W36663   8.199  13.787  10.650
63596W        W36664  23.793  19.614   0.081
63597W        W36665  19.542   7.267  11.632
63598W        W36666  35.359  13.409  14.770
63599W        W36667   2.962  10.243  10.559
63600W        W36668  23.287  19.256   0.858
63601W        W36669  13.662  32.822  10.835
63602W        W36670   3.908  11.847  14.822
63603W        W36671  11.875  23.457   4.568
63604W        W36672   3.890  37.353   0.312
63605W        W36673  19.434   1.667  14.899
63606W        W36674   6.728  17.308  12.036
63607W        W36675  41.126  10.070   2.193
63608W        W36676  20.163  35.089  12.923
63609W        W36677  14.744  15.547   4.962
63610W        W36678   6.761   8.477   0.757
63611W        W36679  19.003  36.833  10.801
63612W        W36680  44.546  11.859   2.212
63613W        W36681   6.505  21.405  11.152
63614W        W36682  43.686   0.102  11.170
63615W        W36683  10.791  10.376  11.231
63616W        W36684  36.342  21.173   3.368
63617W        W36685  21.563   3.518  11.664
63618W        W36686  41.886   0.852  11.581
63619W        W36687  19.634  13.910  11.488
63620W        W36688   9.507  38.614   0.369
63621W        W36689  13.131  24.175  13.829
63622W        W36690  27.188  18.056  10.669
63623W        W36691  30.767  16.068   1.581
63624W        W36692   8.250  15.349   2.443
63625W        W36693  33.849  37.966  14.577
63626W        W36694  30.668  33.014  13.021
63627W        W36695  30.653  44.339  14.042
63628W        W36696  20.016  36.964  13.003
63629W        W36697   7.649  27.253   2.203
63630W        W36698   5.399  31.030   3.848
63631W        W36699  41.968   8.139  14.063
63632W        W36700  11.303  41.881  12.063
63633W        W36701  32.822  12.204   1.292
63634W        W36702  11.779  25.112  12.111
63635W        W36703  26.812   3.228   2.671
63636W        W36704  44.436  24.550  13.048
63637W        W36705  33.411  25.556  10.828
63638W        W36706  19.535  35.865   3.636
63639W        W36707  12.292  39.532   0.402
63640W        W36708  40.856   0.491   5.141
63641W        W36709  23.822  10.726   2.201
63642W        W36710  38.359  37.895   4.592
63643W        W36711   5.439   5.057   4.664
63644W        W36712  20.130   0.771   2.667
63645W        W36713  17.768  38.394   1.906
63646W        W36714  42.375  26.504  10.678
63647W        W36715  36.372   4.499  12.025
63648W        W36716  22.696  17.293   0.499
63649W        W36717  18.595  34.840   1.628
63650W        W36718   4.430  31.667  11.105
63651W        W36719  32.863   1.365   0.775
63652W        W36720   8.859  36.566  14.866
63653W        W36721   8.402  30.512  11.251
63654W        W36722   4.903  37.867   4.296
63655W        W36723   3.064   6.315  11.007
63656W        W36724  33.960  11.849  10.663
63657W        W36725   3.822  30.513  12.887
63658W        W36726  23.439  12.933  12.796
63659W        W36727  42.543  37.266   0.434
63660W        W36728   9.816  41.731   9.726
63661W        W36729  42.493  22.652   0.585
63662W        W36730  27.069   7.767   3.172
63663W        W36731   4.460   9.305   3.191
63664W        W36732  32.647  12.074  14.299
63665W        W36733  15.661  33.917  12.314
63666W        W36734  39.826  37.415  12.659
63667W        W36735   4.800  17.782  11.933
63668W        W36736   6.094  34.383  11.121
63669W        W36737   6.353  33.433   2.716
63670W        W36738   7.039  17.530   4.478
63671W        W36739   6.377  15.829   0.990
63672W        W36740  44.976  19.752  10.433
63673W        W36741   6.805  30.830   3.730
63674W        W36742  41.052  34.052   1.431
63675W        W36743  25.494  22.070  12.003
63676W        W36744  29.623  30.183   2.896
63677W        W36745  13.356  22.106  14.869
63678W        W36746  13.105  27.178  14.922
63679W        W36747  37.875  42.032   0.201
63680W        W36748   3.449   0.078  10.138
63681W        W36749  25.482  39.618   1.408
63682W        W36750  42.026  35.766   4.039
63683W        W36751  29.939  38.148   3.733
63684W        W36752  10.197   3.934  13.803
63685W        W36753  42.744  28.529   0.525
63686W        W36754  40.623  13.895  11.349
63687W        W36755  37.982  16.233   4.159
63688W        W36756  37.482   2.833  14.324
63689W        W36757  25.576  44.028   1.722
63690W        W36758  22.413  11.719   4.988
63691W        W36759  29.061  43.829  13.973
63692W        W36760   8.930   5.169   4.352
63693W        W36761   6.388  28.905   0.214
63694W        W36762   6.781  14.565  10.497
63695W        W36763  27.725  38.565  14.444
63696W        W36764  43.004  38.562   3.242
63697W        W36765   6.941  29.070  12.902
63698W        W36766  42.273  10.271   4.116
63699W        W36767  11.146   9.335  11.539
63700W        W36768  24.535  19.490   3.669
63701W        W36769  17.603  22.992   1.753
63702W        W36770   4.958  25.081   5.269
63703W        W36771  24.502   3.860  14.204
63704W        W36772  29.709  13.275  13.721
63705W        W36773  42.920  33.693  14.456
63706W        W36774   0.369   6.924   0.051
63707W        W36775  21.688  36.553  14.992
63708W        W36776  12.784  20.511  12.515
63709W        W36777  13.341  35.503  10.617
63710W        W36778  27.865  42.202   2.303
63711W        W36779   1.944  34.822   4.647
63712W        W36780  34.530  11.617  13.245
63713W        W36781   5.729  31.748   2.716
63714W        W36782   4.728  27.737  13.307
63715W        W36783  38.060   0.299   0.225
63716W        W36784   8.403   2.823  14.845
63717W        W36785   6.822   4.402  11.165
63718W        W36786  33.206   3.509   2.757
63719W        W36787  10.969  40.340  14.774
63720W        W36788   2.717  30.313  11.266
63721W        W36789  17.873  35.860   1.266
63722W        W36790  16.182  33.106   3.728
63723W        W36791  25.539  17.300   2.421
63724W        W36792  22.601  17.808   2.292
63725W        W36793  35.029  26.377  13.377
63726W        W36794  38.880  26.156  13.765
63727W        W36795   7.533  36.767  12.862
63728W        W36796  13.584  44.029  10.702
63729W        W36797  25.486  30.613  10.708
63730W        W36798  28.046  25.011  11.651
63731W        W36799  24.362   7.366   3.191
63732W        W36800   3.487  14.352  10.873
63733W        W36801  43.012  23.100   1.779
63734W        W36802   7.355  30.670   3.425
63735W        W36803  19.545  27.605   0.905
63736W        W36804  35.989  25.592   4.107
63737W        W36805   4.932  32.852   3.162
63738W        W36806   9.824  42.518   0.875
63739W        W36807   3.930  37.870   4.478
63740W        W36808   6.194  25.770   0.914
63741W        W36809  41.325   1.192  10.659
63742W        W36810  27.213  13.722  14.424
63743W        W36811  18.704  11.753   0.744
63744W        W36812  26.963  20.660   3.630
63745W        W36813  44.352  15.769   2.827
63746W        W36814   3.881  21.692   1.517
63747W        W36815   2.395  35.445   4.598
63748W        W36816  24.545  42.478  14.952
63749W        W36817  34.372  10.733  11.481
63750W        W36818  27.638  24.713  11.630
63751W        W36819  18.200   7.934   1.037
63752W        W36820  18.564  30.568   0.501
63753W        W36821  14.280  14.262   3.772
63754W        W36822   5.282  10.629   0.742
63755W        W36823  12.866  27.454  10.361
63756W        W36824  24.675  14.078   2.460
63757W        W36825  11.407  18.179  14.513
63758W        W36826  15.729  10.090  10.697
63759W        W36827  35.070  12.277   0.345
63760W        W36828  39.257  44.156  12.501
63761W        W36829  14.843  32.009   0.749
63762W        W36830  17.673  12.713   0.476
63763W        W36831  40.195  29.082   0.434
63764W        W36832  26.488  34.736  12.673
63765W        W36833  42.309  40.850  13.513
63766W        W36834   0.232  14.696  12.643
63767W        W36835  21.153  18.531   4.082
63768W        W36836  30.704   2.632  14.758
63769W        W36837   1.910  17.813  11.905
63770W        W36838  21.514   4.236   4.729
63771W        W36839   3.806  13.425   4.697
63772W        W36840  27.863   2.434  11.167
63773W        W36841   9.326  32.727  12.573
63774W        W36842  12.572  11.391   2.775
63775W        W36843  23.174  11.405   3.660
63776W        W36844  17.300   1.228  14.911
63777W        W36845  19.668  19.588   0.489
63778W        W36846  27.015   6.476   1.400
63779W        W36847  31.091  10.699   3.443
63780W        W36848  20.227  35.967   4.959
63781W        W36849  29.664   4.691  11.954
63782W        W36850  37.642  35.529  13.418
63783W        W36851   5.774  30.355  14.332
63784W        W36852   1.006  17.109   1.319
63785W        W36853  13.461  32.072   4.736
63786W        W36854  19.468  39.404  10.626
63787W        W36855  35.263   1.340   4.539
63788W        W36856  31.385  11.271   3.345
63789W        W36857  15.310  31.178  12.476
63790W        W36858   0.794  14.631  12.820
63791W        W36859  40.988  34.595  11.154
63792W        W36860  21.565   2.968  14.511
63793W        W36861  24.463  37.067   3.117
63794W        W36862  39.930  31.948   3.922
63795W        W36863  37.244  34.404  11.175
63796W        W36864   9.316  44.483  13.451
63797W        W36865  16.561  41.110  14.870
63798W        W36866  16.321  37.197   4.121
63799W        W36867  23.235  29.160  14.496
63800W        W36868   8.595   1.789   0.919
63801W        W36869  42.975   9.218  11.100
63802W        W36870  15.750  36.431   2.151
63803W        W36871  30.876  27.611  14.922
63804W        W36872   8.808   7.004   1.359
63805W        W36873  35.489   2.329   2.466
63806W        W36874   3.805  39.666   0.400
63807W        W36875  11.223   2.712   3.436
63808W        W36876  33.072  42.915  11.086
63809W        W36877  37.584  25.002   0.751
63810W        W36878   0.247  41.596  13.534
63811W        W36879  16.630  38.468  11.220
63812W        W36880  35.874  27.916  12.005
63813W        W36881  13.598  15.628   1.845
63814W        W36882   5.378  12.147  12.779
63815W        W36883  35.445  28.739  13.518
63816W        W36884  13.673  34.502  11.931
63817W        W36885  18.479  29.564   2.851
63818W        W36886  39.905  14.756  14.486
63819W        W36887  25.905  28.580   1.263
63820W        W36888   9.883  38.531  11.843
63821W        W36889  39.947  21.929  14.805
63822W        W36890  35.490  15.803  11.602
63823W        W36891  27.029  40.933  11.663
63824W        W36892  31.201  15.085  12.132
63825W        W36893  35.078  36.110  11.974
63826W        W36894  31.854   1.971  10.491
63827W        W36895  42.147  10.477   5.085
63828W        W36896  11.690   3.012  14.062
63829W        W36897   0.665  14.009  10.326
63830W        W36898  20.964  42.721  12.699
63831W        W36899  29.441  41.291   0.660
63832W        W36900  23.244  30.357   2.748
63833W        W36901  20.758  27.558  14.276
63834W        W36902  20.573  39.347  13.472
63835W        W36903   1.171  29.943   2.454
63836W        W36904  10.873  39.080   0.143
63837W        W36905  26.637   5.363  13.097
63838W        W36906  33.606  36.333   1.390
63839W        W36907   6.261   0.925  14.236
63840W        W36908  15.815   7.148  14.588
63841W        W36909   5.698  43.303  12.397
63842W        W36910  31.564  44.315   1.745
63843W        W36911  39.623  11.711   0.682
63844W        W36912  18.593  29.129  12.856
63845W        W36913  16.751  37.572  13.033
63846W        W36914   7.444  20.106   0.563
63847W        W36915  21.239  30.080  12.996
63848W        W36916  17.609   6.910   2.563
63849W        W36917  42.821   0.843   0.881
63850W        W36918  30.939  17.786   3.655
63851W        W36919  22.267  41.065  10.649
63852W        W36920  43.069   4.637  12.402
63853W        W36921  27.083  36.634  13.446
63854W        W36922  44.593  23.470  14.892
63855W        W36923  31.822  19.973   1.845
63856W        W36924  18.874  23.761   0.506
63857W        W36925  28.246  29.884   2.037
63858W        W36926  41.168   1.165  13.954
63859W        W36927  28.695  43.066  12.478
63860W        W36928   8.481   7.617  13.857
63861W        W36929   9.798  32.060  14.732
63862W        W36930   9.802   3.785   1.932
63863W        W36931   5.888  16.582   2.281
63864W        W36932  23.084   0.586   3.822
63865W        W36933  23.585  12.223   2.136
63866W        W36934  42.944  33.425  13.645
63867W        W36935  14.742   1.323  13.997
63868W        W36936   4.941  22.610   1.869
63869W        W36937  15.346  22.745   3.676
63870W        W36938  35.968  14.690   1.656
63871W        W36939  12.273  36.547  14.037
63872W        W36940  30.674   9.918  14.888
63873W        W36941  27.446  41.977  12.092
63874W        W36942  14.251   7.295  10.947
63875W        W36943   2.208  36.912  10.605
63876W        W36944  30.382  26.056  13.578
63877W        W36945   4.985  44.845  14.547
63878W        W36946  32.103   8.347   3.139
63879W        W36947  16.072   7.157  10.717
63880W        W36948  29.467   4.449  14.999
63881W        W36949  23.522  41.083  11.917
63882W        W36950   6.695  28.072   0.267
63883W        W36951  14.635   7.406  12.542
63884W        W36952  18.889  18.653  12.944
63885W        W36953  44.109  15.165  12.084
63886W        W36954  41.431   3.302  12.605
63887W        W36955  13.498  21.627   0.101
63888W        W36956  10.067  33.001   1.453
63889W        W36957  26.910  44.859   1.708
63890W        W36958  15.332  29.080  14.314
63891W        W36959   0.521  11.236   3.542
63892W        W36960  15.595  20.139  12.157
63893W        W36961  21.850  44.462   1.937
63894W        W36962  23.259  16.655  12.020
63895W        W36963   8.447   1.814   2.229
63896W        W36964  18.064  42.014  12.968
63897W        W36965   5.630  42.234   0.803
63898W        W36966  39.043  17.999  10.620
63899W        W36967  34.914  24.768  12.101
63900W        W36968  16.390  22.650   3.716
63901W        W36969  24.103  23.133  14.460
63902W        W36970  42.443  34.412  10.709
63903W        W36971  29.970  42.524  12.936
63904W        W36972  33.076   8.378   2.362
63905W        W36973   3.290   3.005  13.564
63906W        W36974  12.134   4.793  10.678
63907W        W36975  35.616  33.633   0.816
63908W        W36976  17.013  43.550   0.688
63909W        W36977  35.431  35.769   2.099
63910W        W36978  37.790   1.984  13.412
63911W        W36979  28.723  26.947   0.664
63912W        W36980  32.956  22.232   1.231
63913W        W36981  37.811   8.350   0.308
63914W        W36982  20.426   1.743   4.124
63915W        W36983  17.995   1.734  14.823
63916W        W36984  35.950  31.510   0.243
63917W        W36985  12.821   6.625  11.802
63918W        W36986   1.251   8.732  12.896
63919W        W36987   7.877  16.694  11.898
63920W        W36988  37.396   3.698   1.210
63921W        W36989  19.509  31.753  12.941
63922W        W36990  21.871  28.059   4.198
63923W        W36991  10.430   2.296   2.628
63924W        W36992  43.637  25.505  13.382
63925W        W36993  11.673  42.999   4.581
63926W        W36994  38.919   1.688  14.930
63927W        W36995  44.431  25.648  13.883
63928W        W36996  21.543  25.811  12.069
63929W        W36997  32.607  10.299  14.274
63930W        W36998  19.807  36.579   5.040
63931W        W36999  13.617  40.341   2.785
63932W        W37000  23.465  17.448   2.635
63933W        W37001  33.127  44.147   2.323
63934W        W37002  20.092   5.405   4.034
63935W        W37003   3.744  32.463   0.409
63936W        W37004  21.100  22.078   0.045
63937W        W37005  43.993  15.933   0.102
63938W        W37006  14.659  10.893   3.506
63939W        W37007  26.441  23.026   5.021
63940W        W37008  32.650  28.642   3.765
63941W        W37009  44.848  43.794   3.741
63942W        W37010  28.866  30.448   3.391
63943W        W37011   5.246  32.528   2.108
63944W        W37012  28.055  31.694   2.784
63945W        W37013  12.848   9.360  14.685
63946W        W37014  33.460  43.293  13.510
63947W        W37015  19.804  43.325   3.525
63948W        W37016  34.501  16.107   0.006
63949W        W37017  41.458  20.763  10.707
63950W        W37018  25.304   6.905   0.821
63951W        W37019  28.351  41.978   1.814
63952W        W37020  36.372  29.784   4.781
63953W        W37021   0.500  43.485   3.346
63954W        W37022  30.461  22.894  11.099
63955W        W37023  28.176  26.052  12.075
63956W        W37024   2.180  40.748  11.474
63957W        W37025  11.182  16.254   5.438
63958W        W37026   4.748   5.017   3.374
63959W        W37027  43.902   7.721  10.706
63960W        W37028  10.483   2.258   0.502
63961W        W37029  28.373  25.179  14.521
63962W        W37030   4.818   7.755   0.439
63963W        W37031  38.279   8.570   9.891
63964W        W37032   6.093  35.158  14.510
63965W        W37033   0.185  12.766  11.945
63966W        W37034  39.932  10.062  14.576
63967W        W37035  20.788   5.832  10.937
63968W        W37036   5.891  30.513   4.484
63969W        W37037  38.549  31.135  14.738
63970W        W37038  35.956   2.948   3.255
63971W        W37039  43.284   4.186  12.253
63972W        W37040  16.020  13.855  14.732
63973W        W37041  20.139   5.650   2.608
63974W        W37042   7.115  17.703  12.677
63975W        W37043   9.223  25.905  13.943
63976W        W37044  42.466  28.838  13.810
63977W        W37045  28.694  28.980   2.681
63978W        W37046  28.951   3.038   3.827
63979W        W37047  38.135  43.150  11.077
63980W        W37048  36.394  24.209   4.530
63981W        W37049   0.929  43.927  12.174
63982W        W37050   5.919  34.618   3.249
63983W        W37051  43.445  29.610   0.241
63984W        W37052  36.453  31.740   1.446
63985W        W37053  16.424  41.980   4.325
63986W        W37054  25.725   2.935   3.643
63987W        W37055  12.055  17.632   0.624
63988W        W37056  43.965  13.108   4.522
63989W        W37057   0.528  17.327  12.971
63990W        W37058   1.753  24.626  14.221
63991W        W37059  17.781  29.660  14.300
63992W        W37060  38.756   3.276  12.873
63993W        W37061  22.174   5.668   4.272
63994W        W37062  41.563  42.925   1.389
63995W        W37063  15.500  25.160  14.541
63996W        W37064  11.819  31.862  14.254
63997W        W37065  17.052  13.337  10.543
63998W        W37066  39.061  32.595   1.411
63999W        W37067  13.377  23.013   3.866
64000W        W37068   9.294  35.071  12.980
64001W        W37069  31.169  25.965   2.855
64002W        W37070  26.435  28.593  12.435
64003W        W37071  25.506   6.202  13.283
64004W        W37072  14.023   1.044   3.650
64005W        W37073   4.187   0.413  13.335
64006W        W37074  19.306  14.050  12.438
64007W        W37075  29.642   5.132   4.301
64008W        W37076  14.210  44.859  14.340
64009W        W37077  24.990  37.976   1.247
64010W        W37078  30.695  29.548   2.232
64011W        W37079   4.780  42.504  13.131
64012W        W37080  27.053  37.889   0.054
64013W        W37081  20.729   1.852   0.319
64014W        W37082  41.314   5.433   0.855
64015W        W37083  14.846  17.527   3.669
64016W        W37084  44.667   1.403  13.497
64017W        W37085  37.170   0.710   1.342
64018W        W37086   0.363  22.975   2.724
64019W        W37087  43.966   2.199   2.742
64020W        W37088  40.759  31.716   4.638
64021W        W37089  23.156   0.352  14.758
64022W        W37090   8.215   1.801   4.116
64023W        W37091  13.404  36.610  13.898
64024W        W37092  22.078   6.674   3.283
64025W        W37093  26.190  30.083  10.735
64026W        W37094  11.520   4.299  12.931
64027W        W37095  23.216  39.806   4.719
64028W        W37096  10.578  30.833  12.007
64029W        W37097  42.953  32.962   1.172
64030W        W37098  30.177  23.435  14.940
64031W        W37099  21.001  12.382  11.636
64032W        W37100  35.238  10.443   4.044
64033W        W37101   2.821   3.813   3.485
64034W        W37102   6.232  10.448   4.529
64035W        W37103  30.540   2.244   0.674
64036W        W37104  26.603  23.990  14.355
64037W        W37105   5.275  14.247  14.769
64038W        W37106  31.511  23.179  13.423
64039W        W37107  28.472   6.121  11.660
64040W        W37108   9.650  43.309   4.508
64041W        W37109   0.379  17.130  14.514
64042W        W37110   1.759  42.803  14.939
64043W        W37111  11.429  33.754   0.598
64044W        W37112  35.459  25.200  12.879
64045W        W37113  43.408   7.346  12.544
64046W        W37114  27.407  37.588   2.147
64047W        W37115  21.247  34.522  10.675
64048W        W37116  31.483  44.689  12.527
64049W        W37117   2.987  44.799  10.885
64050W        W37118  18.267  39.447   2.134
64051W        W37119  42.384  19.503   0.055
64052W        W37120  41.335  20.199   3.623
64053W        W37121   5.666   1.987  12.210
64054W        W37122   3.649  21.946  11.658
64055W        W37123   5.823  26.221   4.891
64056W        W37124  16.131  14.372   0.679
64057W        W37125   9.872  20.194   3.833
64058W        W37126   2.391  19.663  12.046
64059W        W37127  36.983   8.605   1.207
64060W        W37128  13.318  17.303   1.201
64061W        W37129   3.361  27.300  13.522
64062W        W37130  17.621  40.801   4.244
64063W        W37131  24.818   3.951  14.600
64064W        W37132  28.893  15.588   4.887
64065W        W37133  29.020  14.096  14.577
64066W        W37134  39.770  40.198  14.380
64067W        W37135  20.046  12.627  12.682
64068W        W37136  18.167  15.838   3.219
64069W        W37137  17.757  40.792  14.251
64070W        W37138  29.164  25.970   4.810
64071W        W37139  21.337  39.643   3.410
64072W        W37140   5.940  31.536   0.978
64073W        W37141  30.008  10.193   0.227
64074W        W37142  42.650  40.631  13.873
64075W        W37143  40.162  29.045   3.299
64076W        W37144  33.085  15.329   3.715
64077W        W37145  41.919   1.783   2.920
64078W        W37146   3.212  31.920  14.522
64079W        W37147  21.097  17.113  11.029
64080W        W37148  38.045  11.302  10.412
64081W        W37149  17.451  27.042   2.978
64082W        W37150  31.007  32.537  12.961
64083W        W37151  38.791   9.681   1.494
64084W        W37152  19.985  43.788  12.492
64085W        W37153  33.047  20.081  12.862
64086W        W37154  11.346  29.701  14.778
64087W        W37155  11.996  18.826  13.932
64088W        W37156  31.613  20.284  13.799
64089W        W37157  17.077  23.129   0.970
64090W        W37158  24.317   1.782  14.933
64091W        W37159  36.238  20.977   4.687
64092W        W37160  14.674   0.290   4.831
64093W        W37161  26.570  43.525   4.161
64094W        W37162  42.527  33.606   2.035
64095W        W37163  26.759  26.220  12.279
64096W        W37164  31.865   1.449   3.704
64097W        W37165  24.682  26.593   4.569
64098W        W37166  12.359  12.316   2.212
64099W        W37167  30.968  36.020   3.712
64100W        W37168  19.288  34.053  13.965
64101W        W37169  39.397   5.770   5.026
64102W        W37170  21.615   4.931   9.993
64103W        W37171  32.395   1.897   3.312
64104W        W37172  43.605  16.524  12.312
64105W        W37173  32.728   4.517  14.939
64106W        W37174  31.395  39.961   3.725
64107W        W37175  31.057  25.783  12.807
64108W        W37176  25.102  11.317  11.793
64109W        W37177  10.787  25.724  13.498
64110W        W37178  43.009  33.083   2.760
64111W        W37179   4.399  39.786   4.077
64112W        W37180  24.468  43.185   3.645
64113W        W37181  23.123  14.284  11.152
64114W        W37182  44.064  43.573  13.886
64115W        W37183  18.686   9.279   4.141
64116W        W37184  24.108  40.889  14.370
64117W        W37185   3.400  43.949   2.140
64118W        W37186  20.264   6.154   4.601
64119W        W37187  41.875  28.120   4.626
64120W        W37188   7.294  18.261  13.414
64121W        W37189  44.880  20.656   3.769
64122W        W37190   7.740   3.189   3.738
64123W        W37191  12.500  18.213   4.137
64124W        W37192  35.315  29.582   2.549
64125W        W37193   8.636  38.370   1.425
64126W        W37194  18.844  32.561  13.745
64127W        W37195  29.699  37.269  14.347
64128W        W37196  42.730  44.939   2.270
64129W        W37197   6.753  10.651   4.579
64130W        W37198  27.100  23.906   2.399
64131W        W37199  18.729  33.854   3.307
64132W        W37200  23.833  43.530   0.720
64133W        W37201  38.783   8.147  12.036
64134W        W37202   1.916  15.872   3.724
64135W        W37203   3.157  37.398  13.886
64136W        W37204   6.863  30.473   3.345
64137W        W37205   7.002  23.356   3.206
64138W        W37206  21.738  34.518   4.459
64139W        W37207  30.577  38.674  11.063
64140W        W37208  42.910  43.469   2.024
64141W        W37209   9.960   9.807  14.462
64142W        W37210  27.649  37.487   3.112
64143W        W37211  29.348   4.396   2.253
64144W        W37212  20.992  19.040   2.788
64145W        W37213  16.216  11.495  12.418
64146W        W37214  44.390  15.185  12.507
64147W        W37215   8.265  39.860  14.252
64148W        W37216  33.527  28.900   3.643
64149W        W37217   0.773  13.165   0.783
64150W        W37218   7.249   2.281  12.410
64151W        W37219  32.960  44.193  12.980
64152W        W37220  20.343  21.414   3.766
64153W        W37221  12.672  29.251  14.534
64154W        W37222  22.485  28.487   2.127
64155W        W37223  32.562   3.297  10.696
64156W        W37224  26.500  38.032   2.697
64157W        W37225  11.324   0.333  11.958
64158W        W37226  43.736  17.407   0.871
64159W        W37227  35.148  33.427   0.879
64160W        W37228   0.927   7.404   0.315
64161W        W37229  24.231   1.413   0.864
64162W        W37230  27.569  16.518  12.865
64163W        W37231  22.297  36.961   3.833
64164W        W37232  25.191  38.062  12.385
64165W        W37233  20.898  43.748   0.280
64166W        W37234  17.715  25.127   2.182
64167W        W37235  36.240   1.935   5.104
64168W        W37236  31.353  40.366  14.059
64169W        W37237  23.435  30.904   0.222
64170W        W37238  20.114  19.758   0.677
64171W        W37239  25.457  30.964   4.471
64172W        W37240   6.710  35.662   4.363
64173W        W37241  35.783  29.675  14.890
64174W        W37242  18.202  31.914  14.570
64175W        W37243  27.867  26.983  12.325
64176W        W37244   5.401  15.998  12.870
64177W        W37245  24.198  42.227   0.752
64178W        W37246  25.483  14.650   0.984
64179W        W37247  12.088  38.045  12.992
64180W        W37248   4.456   9.335  14.375
64181W        W37249  41.589  25.797  13.890
64182W        W37250  26.435   7.598  13.772
64183W        W37251  14.475   6.836   1.740
64184W        W37252   3.811  40.748  10.730
64185W        W37253  37.859  20.474  12.900
64186W        W37254  10.174   0.314  13.710
64187W        W37255  29.027   5.152   3.545
64188W        W37256   5.976  12.674  14.761
64189W        W37257  43.508  43.508   3.700
64190W        W37258  37.457   0.914  10.346
64191W        W37259  14.432   2.144   2.635
64192W        W37260  25.227  35.629   5.029
64193W        W37261  33.317  32.091  10.278
64194W        W37262  35.887  12.285   4.780
64195W        W37263  20.473  27.924  13.253
64196W        W37264  40.182  30.171   0.523
64197W        W37265   9.634  41.285  12.079
64198W        W37266   5.255  17.268   4.481
64199W        W37267   3.854  19.229   4.933
64200W        W37268   9.937  40.881   3.973
64201W        W37269  15.770  14.565  11.553
64202W        W37270  26.893  42.786  11.163
64203W        W37271  31.454  19.611  13.202
64204W        W37272  15.267  34.830  10.771
64205W        W37273  14.732   9.124   3.617
64206W        W37274  43.021   2.176  14.551
64207W        W37275  37.375  35.353  12.987
64208W        W37276  37.656  40.921  11.148
64209W        W37277  41.299   6.688   1.329
64210W        W37278  22.218  26.000  11.501
64211W        W37279   5.744  20.046  11.488
64212W        W37280  26.088  24.214  13.326
64213W        W37281  31.124  12.109   0.288
64214W        W37282  15.187  18.720   1.414
64215W        W37283  24.489   3.269   1.468
64216W        W37284  31.775  26.215  14.132
64217W        W37285  27.199   0.076   0.426
64218W        W37286   3.585  33.583   2.830
64219W        W37287  40.405  42.028  14.698
64220W        W37288   6.906   2.482   0.976
64221W        W37289  44.221  44.058   2.631
64222W        W37290  32.440  29.030  11.124
64223W        W37291  15.785  36.024   1.292
64224W        W37292  16.350  21.031  11.683
64225W        W37293  32.973   7.922  13.062
64226W        W37294   2.867  20.434   0.911
64227W        W37295  11.283   1.182  11.586
64228W        W37296  10.620  18.140   0.203
64229W        W37297  19.278  39.307  10.163
64230W        W37298  43.399  41.664  12.016
64231W        W37299  21.677  13.130  14.079
64232W        W37300  31.762   8.840   5.052
64233W        W37301  24.525  29.900   4.547
64234W        W37302  10.128  39.856   3.613
64235W        W37303  38.883  31.840  11.931
64236W        W37304   0.159  34.326   0.877
64237W        W37305   7.623  39.336   2.800
64238W        W37306  27.208   7.607  13.323
64239W        W37307  15.274  37.049  11.658
64240W        W37308  27.263  22.999   4.689
64241W        W37309   4.936  32.117   0.164
64242W        W37310  16.115  36.410  13.332
64243W        W37311  31.036  34.425   0.513
64244W        W37312   0.803   0.324  13.557
64245W        W37313   4.522  32.760  13.074
64246W        W37314  10.847  27.700   2.010
64247W        W37315  35.536  44.722  14.087
64248W        W37316  10.587  22.336  13.404
64249W        W37317  38.569  34.640   0.202
64250W        W37318  10.164  16.848  13.027
64251W        W37319  23.984  37.913  13.944
64252W        W37320  11.577  44.931  12.253
64253W        W37321  25.691  27.122   0.312
64254W        W37322  44.613  15.229  12.023
64255W        W37323  16.713  34.299   0.400
64256W        W37324  25.095  32.563   4.945
64257W        W37325  11.272  10.416   4.177
64258W        W37326  29.182  40.967   2.313
64259W        W37327  34.563  34.229  14.394
64260W        W37328  28.629  35.175  12.494
64261W        W37329  21.466  16.841   2.835
64262W        W37330  15.726  38.713  12.202
64263W        W37331   6.738  26.941   2.255
64264W        W37332  22.571  27.998   3.757
64265W        W37333  34.483  13.389   4.224
64266W        W37334  26.498  29.515   4.572
64267W        W37335  16.715   3.787  12.854
64268W        W37336  24.510  17.107  12.571
64269W        W37337   7.837   0.694   2.041
64270W        W37338  37.652   5.138   0.168
64271W        W37339  42.886   0.501  11.835
64272W        W37340  38.512   9.262   1.603
64273W        W37341  28.707  34.455  14.519
64274W        W37342  21.250  19.133   3.239
64275W        W37343   3.233   0.612  11.580
64276W        W37344  32.395  13.365   3.328
64277W        W37345  25.908  41.479  14.765
64278W        W37346  11.901  13.155  12.353
64279W        W37347  28.238  18.664  11.201
64280W        W37348  43.931  13.799   1.692
64281W        W37349  42.879   3.882  12.473
64282W        W37350  12.761  28.498  13.968
64283W        W37351  30.655  42.892   0.017
64284W        W37352  44.371   3.399   5.069
64285W        W37353  31.953  38.347   1.226
64286W        W37354  27.525  34.844   3.332
64287W        W37355  32.118  30.139  14.487
64288W        W37356  42.493  21.173  14.222
64289W        W37357  17.229  35.041   1.243
64290W        W37358  14.665   5.375  13.996
64291W        W37359   9.040   3.317   4.269
64292W        W37360  17.342   7.875   1.223
64293W        W37361  22.564  35.835  10.199
64294W        W37362  40.513  23.986  10.688
64295W        W37363  14.906  36.465   3.824
64296W        W37364  17.484  31.480  13.774
64297W        W37365  23.698   3.808  10.971
64298W        W37366  24.641  30.111  14.300
64299W        W37367  26.542   3.756   3.181
64300W        W37368  18.743  35.635   0.475
64301W        W37369  17.663  27.030  10.368
64302W        W37370  36.539  16.069  11.165
64303W        W37371  27.058  17.282   4.791
64304W        W37372  14.179  26.682  14.733
64305W        W37373  40.847  14.665   2.852
64306W        W37374  21.792   3.432  12.132
64307W        W37375  43.127  25.858  12.639
64308W        W37376  11.604  39.185  13.992
64309W        W37377  32.038  23.158  11.420
64310W        W37378  35.044   7.802   4.062
64311W        W37379   8.569  41.603   2.946
64312W        W37380  37.293  12.843   4.867
64313W        W37381  25.075  36.266   0.210
64314W        W37382  23.299  13.842   1.412
64315W        W37383  26.082  36.159  12.928
64316W        W37384  26.497  27.199   4.433
64317W        W37385  37.282   4.743   0.484
64318W        W37386  19.763  43.478   9.988
64319W        W37387  41.854  43.901   3.652
64320W        W37388   5.733   1.643   2.332
64321W        W37389  41.064  17.567   0.407
64322W        W37390  13.831  10.790   4.915
64323W        W37391  31.637   7.726  11.966
64324W        W37392  21.191   5.957   4.188
64325W        W37393   7.241  37.584   2.629
64326W        W37394  34.808  34.479  10.401
64327W        W37395  33.599  17.013   0.315
64328W        W37396  37.992  18.163   2.158
64329W        W37397   0.078  28.114   0.266
64330W        W37398   9.288  26.583   0.835
64331W        W37399   6.401  34.738  12.447
64332W        W37400   0.282  28.510   2.849
64333W        W37401  44.225  10.434  11.550
64334W        W37402  17.819  18.139  12.119
64335W        W37403  20.683  34.151  14.276
64336W        W37404  44.796  39.464  10.690
64337W        W37405  39.876  12.743   1.501
64338W        W37406   7.728   7.243  11.091
64339W        W37407  29.887   2.543  14.377
64340W        W37408   7.098  22.795  14.815
64341W        W37409  38.125   5.927   0.021
64342W        W37410  39.879   2.327  13.913
64343W        W37411  17.209  29.435  11.702
64344W        W37412  10.613  13.740   1.709
64345W        W37413  43.473  20.655  10.970
64346W        W37414  41.261  22.178   2.759
64347W        W37415   6.284   3.180   3.618
64348W        W37416   1.979  20.703  10.949
64349W        W37417   9.611  40.953  10.234
64350W        W37418  35.987  14.236   4.965
64351W        W37419  38.399  43.100  12.981
64352W        W37420  43.220  16.293  13.035
64353W        W37421  39.253  36.550  12.306
64354W        W37422  22.462  18.131  13.886
64355W        W37423  40.259  28.696  10.442
64356W        W37424  13.022  26.227   2.659
64357W        W37425  42.868  35.138  11.583
64358W        W37426  35.611  38.274   4.078
64359W        W37427  12.436  30.440   2.746
64360W        W37428  12.617  28.614  13.440
64361W        W37429  24.098  16.187   3.901
64362W        W37430  43.460  32.957   1.832
64363W        W37431  13.101  13.154   1.350
64364W        W37432  11.177  40.881   4.549
64365W        W37433   5.485   3.720   4.008
64366W        W37434  19.151  33.971   4.496
64367W        W37435  32.060   5.143   5.009
64368W        W37436  39.813  36.375   3.173
64369W        W37437  18.172  22.024  12.976
64370W        W37438  34.379   3.233   4.140
64371W        W37439  43.528   0.615  11.112
64372W        W37440   3.767  42.948  13.382
64373W        W37441  15.588   9.171  14.301
64374W        W37442  17.292  13.735  10.853
64375W        W37443  43.922  20.180  13.069
64376W        W37444  13.632  42.235   2.866
64377W        W37445  30.542  28.101   4.673
64378W        W37446  10.391  20.630  13.515
64379W        W37447   9.667  44.496  12.891
64380W        W37448   3.440  27.208   2.185
64381W        W37449  35.390  14.595  12.563
64382W        W37450   6.911  42.760  13.387
64383W        W37451  34.481  38.831   2.009
64384W        W37452  10.478  20.835  10.850
64385W        W37453  27.716  32.902   0.559
64386W        W37454  28.751  43.013  13.830
64387W        W37455   4.641  34.021   4.684
64388W        W37456  15.435  34.229   3.606
64389W        W37457  15.040  42.375  11.683
64390W        W37458  35.432  27.186   3.827
64391W        W37459  22.971  27.553   2.180
64392W        W37460  33.007  33.569   1.401
64393W        W37461  25.719  40.037   3.126
64394W        W37462   9.708   7.339   4.465
64395W        W37463  38.380   5.285   0.991
64396W        W37464  33.447   7.413   3.567
64397W        W37465  40.050   5.332  13.283
64398W        W37466   8.902  32.858  13.202
64399W        W37467  24.577  16.415   3.546
64400W        W37468  28.939  18.628  13.571
64401W        W37469  16.338   9.290   1.339
64402W        W37470  10.093   5.781   2.258
64403W        W37471  43.443  27.429  10.500
64404W        W37472   2.773  40.833  10.652
64405W        W37473  20.096  17.702  13.660
64406W        W37474  42.828  21.033  13.448
64407W        W37475  29.361  44.719   4.928
64408W        W37476   5.487  16.568   4.168
64409W        W37477  27.904  43.856   4.411
64410W        W37478  26.159  37.619   0.929
64411W        W37479  23.694  41.477   0.728
64412W        W37480   2.409  19.979   0.269
64413W        W37481  33.872  35.442   0.499
64414W        W37482  23.907   8.364   1.657
64415W        W37483  18.052  44.821  12.504
64416W        W37484  36.277  19.653  14.874
64417W        W37485  19.507   3.198  14.005
64418W        W37486   7.150  23.678  12.408
64419W        W37487  41.114  34.840   1.219
64420W        W37488  39.378  20.266   0.887
64421W        W37489  43.483   8.128  13.553
64422W        W37490  33.051  25.404   3.823
64423W        W37491   3.798   6.511   0.933
64424W        W37492  25.085  14.968   4.538
64425W        W37493  15.814  27.903   4.600
64426W        W37494  28.016  37.363   0.957
64427W        W37495  43.812  40.049   4.791
64428W        W37496  14.426  17.156   0.343
64429W        W37497  13.681  44.070  13.623
64430W        W37498  34.402   1.176  12.849
64431W        W37499  34.994  41.952  10.534
64432W        W37500  36.398  32.656   4.757
64433W        W37501  10.871  35.081  14.431
64434W        W37502  37.888   1.377   4.476
64435W        W37503   3.667  11.650  13.882
64436W        W37504   0.254   7.358   0.315
64437W        W37505   7.167  33.450  12.926
64438W        W37506  21.211  25.704   1.755
64439W        W37507  28.063  42.690   2.359
64440W        W37508  34.907  39.082  13.791
64441W        W37509   2.765  26.412  11.485
64442W        W37510  40.358   4.180  10.588
64443W        W37511   8.990  25.791   1.348
64444W        W37512  26.897  26.177   1.187
64445W        W37513   9.886  26.142  12.313
64446W        W37514   3.741  34.559   0.325
64447W        W37515  25.924  13.943  12.104
64448W        W37516  44.378  18.614  14.172
64449W        W37517  25.197  31.668  14.029
64450W        W37518  26.860  11.708  11.639
64451W        W37519  23.794   3.683  12.861
64452W        W37520   1.285  16.604   0.353
64453W        W37521  14.386   2.242  12.551
64454W        W37522  14.149  13.946   1.941
64455W        W37523   7.337  35.596   3.365
64456W        W37524   2.185  27.193   4.072
64457W        W37525  28.691  44.737   1.326
64458W        W37526  10.778   8.803   3.813
64459W        W37527  10.323  19.037  10.846
64460W        W37528  14.435   2.736  11.636
64461W        W37529  33.061  16.526  11.750
64462W        W37530   9.208  31.523   0.512
64463W        W37531  14.545  30.466   4.936
64464W        W37532  37.784  14.292   4.288
64465W        W37533  37.819  16.756   0.265
64466W        W37534  13.856  14.249   2.708
64467W        W37535  32.456  43.213  12.502
64468W        W37536   0.888  15.987   0.019
64469W        W37537  26.272  28.423   3.206
64470W        W37538  15.792  15.180  13.095
64471W        W37539  23.267   5.740   1.938
64472W        W37540   9.783   2.444   4.536
64473W        W37541  42.794   0.307   3.166
64474W        W37542  23.905   6.379   1.868
64475W        W37543  40.535  23.139  14.007
64476W        W37544  14.571  28.934  12.464
64477W        W37545  14.238  21.621  13.553
64478W        W37546  10.035  21.638   3.444
64479W        W37547  29.759  19.206   0.357
64480W        W37548  30.166   5.347  10.422
64481W        W37549  14.875  20.596   4.982
64482W        W37550   8.805  26.078  11.261
64483W        W37551  38.845  11.586  13.096
64484W        W37552  44.395  11.207  14.354
64485W        W37553  32.336   2.056  11.967
64486W        W37554  11.585  34.694  14.962
64487W        W37555   3.366  39.885  11.486
64488W        W37556  11.769  20.090  11.634
64489W        W37557  10.734  40.251   2.368
64490W        W37558   2.741  34.455  10.546
64491W        W37559  10.396  15.903  10.666
64492W        W37560  12.552  38.836  12.797
64493W        W37561  16.975  12.130  14.383
64494W        W37562  20.616   3.089  12.858
64495W        W37563  18.870  25.055  14.457
64496W        W37564  17.693   0.216  12.677
64497W        W37565  23.223  19.599   2.368
64498W        W37566  24.755  42.839   3.096
64499W        W37567  28.654  33.387  12.835
64500W        W37568  36.509  40.438   4.599
64501W        W37569  44.227  31.428   2.286
64502W        W37570  10.733  30.384  12.405
64503W        W37571  11.342  23.692  13.266
64504W        W37572  29.523   0.893  13.458
64505W        W37573  14.791   3.358  11.091
64506W        W37574  20.344  20.485  11.092
64507W        W37575  12.295   6.875   3.353
64508W        W37576  11.908   6.379  14.729
64509W        W37577  22.055  34.050  14.837
64510W        W37578   3.236   7.776  14.203
64511W        W37579  43.012  22.213  12.069
64512W        W37580  13.225  33.311  11.979
64513W        W37581  23.113   8.360   1.444
64514W        W37582  43.923   2.365  11.982
64515W        W37583   6.339  38.518   0.163
64516W        W37584  24.452   3.709   3.794
64517W        W37585  12.810   9.494   0.187
64518W        W37586  25.766  34.883  13.899
64519W        W37587  17.210  43.274   1.394
64520W        W37588  44.265  17.706  13.418
64521W        W37589  28.593   7.175  13.386
64522W        W37590   5.278  10.565   4.470
64523W        W37591  10.753  18.663   4.677
64524W        W37592  17.509  43.927  11.837
64525W        W37593   7.654  44.871   3.048
64526W        W37594  20.649  14.216  14.519
64527W        W37595  20.593  20.257  13.417
64528W        W37596  19.652  12.202  14.067
64529W        W37597  17.731  43.779  10.945
64530W        W37598  34.819   5.436   4.084
64531W        W37599  13.209  17.322   2.163
64532W        W37600  40.418  39.358  11.060
64533W        W37601   5.853  34.040   0.542
64534W        W37602  20.713  18.769  13.447
64535W        W37603   2.267  41.465   4.217
64536W        W37604  42.995  26.178  13.466
64537W        W37605  16.719   9.243   4.262
64538W        W37606  28.524  33.005  14.913
64539W        W37607  16.019  26.027   0.880
64540W        W37608  34.958   7.934  11.707
64541W        W37609  12.168  40.351   0.990
64542W        W37610  14.371  35.467  14.490
64543W        W37611  24.501  28.396  12.955
64544W        W37612  28.958  34.335   0.015
64545W        W37613  20.693  16.139  12.046
64546W        W37614  12.206  15.353   4.116
64547W        W37615   3.621  21.302  14.837
64548W        W37616  28.645  21.511   3.911
64549W        W37617  26.872  30.541   3.268
64550W        W37618  35.508   2.432   4.813
64551W        W37619  44.961  36.858  13.523
64552W        W37620  36.355  34.976   1.575
64553W        W37621  41.419   3.919  14.411
64554W        W37622   5.062  28.945  10.418
64555W        W37623  23.193  31.668  13.057
64556W        W37624  29.149  21.779   0.825
64557W        W37625  29.023  33.868  12.324
64558W        W37626  34.933  35.457  13.102
64559W        W37627   8.620   0.492   0.072
64560W        W37628  19.432  17.380  14.858
64561W        W37629   9.708  25.047   0.668
64562W        W37630   2.125  40.343   3.272
64563W        W37631  11.809   9.605   1.477
64564W        W37632   3.514  35.192  11.563
64565W        W37633   3.504  35.941  12.933
64566W        W37634  26.134   2.939  11.598
64567W        W37635  41.963   8.298  11.653
64568W        W37636   7.282   6.531   1.469
64569W        W37637   9.647  11.192   1.310
64570W        W37638  13.430  35.376   4.491
64571W        W37639  30.058  37.636   3.796
64572W        W37640   3.293  38.038   4.359
64573W        W37641   7.812  39.544   3.263
64574W        W37642  16.911  35.357  10.828
64575W        W37643  26.345  24.194   3.729
64576W        W37644  18.173  16.814   3.221
64577W        W37645  40.124  29.556  13.403
64578W        W37646  36.319  33.150  14.929
64579W        W37647   1.196  13.246   4.060
64580W        W37648  26.069  29.904   4.166
64581W        W37649  30.082  11.340   1.419
64582W        W37650   9.265  39.782   5.116
64583W        W37651  30.550  29.218   2.639
64584W        W37652  10.300  18.445   4.551
64585W        W37653  24.587  28.374   0.775
64586W        W37654  29.678  34.952   2.829
64587W        W37655  31.052   0.441  11.989
64588W        W37656   8.008   4.929  12.509
64589W        W37657  35.054   6.274   4.968
64590W        W37658  34.456  41.087   2.199
64591W        W37659  35.883  24.512   1.328
64592W        W37660   9.813  42.088  11.538
64593W        W37661  23.195  39.560  14.310
64594W        W37662   7.624  25.085   3.788
64595W        W37663  33.141   8.269  12.327
64596W        W37664  24.297  13.077  10.701
64597W        W37665  38.452  27.354  11.600
64598W        W37666  35.246  21.214  11.974
64599W        W37667  13.831  12.867   3.716
64600W        W37668  15.299  15.303   1.789
64601W        W37669  22.983  30.146  11.137
64602W        W37670   2.332  10.825  14.435
64603W        W37671  40.362  18.545  13.541
64604W        W37672  26.629  10.670   2.865
64605W        W37673  13.431  23.629   1.064
64606W        W37674   9.122  37.437   3.697
64607W        W37675  36.883  26.848  10.721
64608W        W37676  17.126  24.680   0.397
64609W        W37677  33.713  23.512   0.327
64610W        W37678  10.714  26.490   4.659
64611W        W37679  18.722  14.049   0.626
64612W        W37680   8.390  19.068  12.937
64613W        W37681  28.127   6.781   3.421
64614W        W37682   8.935  39.193  10.127
64615W        W37683  41.409  19.690  10.708
64616W        W37684   4.286  15.639  11.370
64617W        W37685  13.105   2.842   3.473
64618W        W37686  22.625  22.270   2.760
64619W        W37687  21.708  41.428  14.329
64620W        W37688   5.945   7.846   1.903
64621W        W37689  20.797  19.575  14.407
64622W        W37690  16.546   3.986   0.741
64623W        W37691  19.750  24.270   4.304
64624W        W37692  11.136  37.315  14.339
64625W        W37693  27.975  28.705   2.179
64626W        W37694  14.656  13.254   3.626
64627W        W37695  23.414   3.437  13.808
64628W        W37696  25.129   8.806   1.319
64629W        W37697   5.626  22.233   3.236
64630W        W37698  20.024  30.875  14.515
64631W        W37699   6.360   6.976   4.228
64632W        W37700  15.799  28.867  12.008
64633W        W37701  28.273  37.401   4.298
64634W        W37702  15.737  17.574  10.779
64635W        W37703  31.360  15.626   2.302
64636W        W37704  15.712  22.624   0.008
64637W        W37705   9.692  16.853  12.391
64638W        W37706  37.930  18.185   1.145
64639W        W37707   8.689  28.539  14.039
64640W        W37708  37.679  26.664   1.983
64641W        W37709  15.690  12.572   0.788
64642W        W37710  28.671  19.690  10.253
64643W        W37711  22.475  35.911  13.287
64644W        W37712  35.511   0.382  10.867
64645W        W37713  37.045   6.725  12.813
64646W        W37714  27.188  18.524   1.452
64647W        W37715   4.937   7.270   0.262
64648W        W37716  28.821  31.700  11.265
64649W        W37717   5.640  35.872   1.825
64650W        W37718  22.837  33.906   2.359
64651W        W37719  31.957  18.560  12.389
64652W        W37720  33.893  37.701  12.994
64653W        W37721  31.691  15.231   3.551
64654W        W37722  42.127  35.214   3.220
64655W        W37723  21.603  34.283   2.663
64656W        W37724  18.464  37.849  11.541
64657W        W37725  35.982  37.625   1.304
64658W        W37726   8.087  40.282   2.837
64659W        W37727  11.224   7.603  13.472
64660W        W37728  24.505  18.599  13.443
64661W        W37729  41.601  25.186  10.657
64662W        W37730   1.582  15.830   0.690
64663W        W37731  43.917  19.216  13.545
64664W        W37732  15.825  33.598  10.242
64665W        W37733  42.001  42.244   3.925
64666W        W37734  39.573   9.622  12.100
64667W        W37735  27.623  29.083   1.775
64668W        W37736  41.899  33.500  12.972
64669W        W37737  36.210  19.111  13.898
64670W        W37738  10.784  12.294  14.834
64671W        W37739  30.651  13.658  13.880
64672W        W37740  13.089  35.086  12.353
64673W        W37741  25.696  37.671   0.720
64674W        W37742  26.617  10.108  14.943
64675W        W37743  39.575  27.866   3.697
64676W        W37744  36.396  43.249   1.877
64677W        W37745  27.582   9.962  12.813
64678W        W37746  29.547  24.735   3.624
64679W        W37747  17.551  43.508   3.715
64680W        W37748  33.951  13.682   0.368
64681W        W37749  26.446  18.037  13.478
64682W        W37750  14.352  32.661   4.900
64683W        W37751  14.092  43.340   0.896
64684W        W37752  21.735   0.016  10.572
64685W        W37753   6.980  33.922   2.873
64686W        W37754  22.679  24.467   0.669
64687W        W37755  20.758  31.909  12.548
64688W        W37756  15.119   1.710  11.355
64689W        W37757  41.648  32.651   4.523
64690W        W37758  33.503  40.047   3.590
64691W        W37759  21.227   2.703   2.792
64692W        W37760  12.602  25.844  14.538
64693W        W37761  12.572  15.044   4.308
64694W        W37762  30.366  42.611  12.086
64695W        W37763   4.816  43.047   3.140
64696W        W37764  14.850   1.503   0.265
64697W        W37765   9.414  26.040   3.154
64698W        W37766  11.157   0.383  12.497
64699W        W37767   4.159  17.439  12.571
64700W        W37768  43.789  10.368  11.188
64701W        W37769  43.005  36.707  11.228
64702W        W37770  19.671  32.932   2.814
64703W        W37771  33.823  13.818  10.450
64704W        W37772   3.064  11.015  14.387
64705W        W37773   0.925  23.666   4.587
64706W        W37774  39.226  10.392  11.417
64707W        W37775   0.741  30.046   1.793
64708W        W37776  26.383  38.050  10.464
64709W        W37777   7.954  13.067  14.816
64710W        W37778  44.734  24.084   1.639
64711W        W37779  37.304  30.250   0.412
64712W        W37780   3.258  38.028  10.755
64713W        W37781  41.604  38.524   4.212
64714W        W37782  13.698  23.581   1.506
64715W        W37783  34.107   5.373   3.366
64716W        W37784  11.486  15.445   5.127
64717W        W37785  12.957  22.831   4.141
64718W        W37786  43.441   0.163   0.384
64719W        W37787   1.477  14.329  14.778
64720W        W37788  28.067  26.509   0.281
64721W        W37789  26.817  42.703   5.214
64722W        W37790  25.847  44.114  14.068
64723W        W37791  22.499  33.102  14.918
64724W        W37792  38.402   8.862  11.923
64725W        W37793   9.366   4.889   3.731
64726W        W37794  13.729  27.221   2.884
64727W        W37795  33.168  12.792   0.657
64728W        W37796  41.858   2.389  11.865
64729W        W37797  15.216  28.422  10.988
64730W        W37798  10.644  15.007  14.856
64731W        W37799  34.208  31.843   4.262
64732W        W37800   5.921  31.829  13.490
64733W        W37801   1.023  19.318  11.618
64734W        W37802  36.227  22.461   9.681
64735W        W37803   6.764  11.288   1.802
64736W        W37804  41.934  33.803  11.134
64737W        W37805  34.877  14.531   2.301
64738W        W37806  11.750  17.315   2.056
64739W        W37807  28.357  23.407  14.894
64740W        W37808  34.378  24.762  12.644
64741W        W37809  39.537   7.906   0.819
64742W        W37810  29.161  26.173  13.042
64743W        W37811  29.203  25.983   0.060
64744W        W37812   3.757  19.985  14.647
64745W        W37813   5.948  17.974   0.907
64746W        W37814  35.909  42.771   3.633
64747W        W37815  22.221   9.217  11.323
64748W        W37816   0.999  30.808   2.338
64749W        W37817  17.080  28.951  11.659
64750W        W37818   0.824  24.973   3.140
64751W        W37819  20.909   4.971   4.105
64752W        W37820  22.203   0.256  10.565
64753W        W37821  41.293  16.477   9.789
64754W        W37822   0.037  39.455  11.983
64755W        W37823  30.644  42.023   1.366
64756W        W37824  27.220  23.481  12.415
64757W        W37825  39.705  44.272   3.647
64758W        W37826  22.120   7.665  10.368
64759W        W37827  32.122  21.170   1.452
64760W        W37828  31.217  30.119   3.862
64761W        W37829  24.340  34.954  13.547
64762W        W37830  18.787  11.187  11.940
64763W        W37831   8.422  23.818   0.812
64764W        W37832  39.221  35.100  14.899
64765W        W37833  35.341  24.000  13.787
64766W        W37834  15.717  23.228   2.040
64767W        W37835  38.435  10.453   2.650
64768W        W37836   7.804   4.475   2.728
64769W        W37837  22.574  13.502   0.824
64770W        W37838  41.326  29.651  14.079
64771W        W37839   6.155  26.075  11.193
64772W        W37840  44.264  11.872   4.321
64773W        W37841  28.441  28.445  11.253
64774W        W37842   3.871   0.514   4.590
64775W        W37843  40.583  40.447  13.970
64776W        W37844   9.281  13.112   4.249
64777W        W37845  25.386  14.768   2.864
64778W        W37846   7.023  37.564  11.169
64779W        W37847   3.625   5.358  11.108
64780W        W37848  21.186  19.632   2.011
64781W        W37849  12.792  20.794  12.065
64782W        W37850  32.602  39.518   4.065
64783W        W37851   6.343  31.276   0.259
64784W        W37852   8.853  31.542   0.009
64785W        W37853  28.936  29.593   0.488
64786W        W37854  32.413  18.589  14.188
64787W        W37855  26.559   2.992   0.507
64788W        W37856  14.605  40.245  12.496
64789W        W37857  38.911  24.897  14.803
64790W        W37858  22.670  30.191  12.545
64791W        W37859   2.278  30.335   1.396
64792W        W37860   0.204  20.451   0.763
64793W        W37861   1.389  23.209  13.810
64794W        W37862  28.692   4.388   4.676
64795W        W37863  28.099   9.828  13.482
64796W        W37864   9.482  11.725   0.370
64797W        W37865  43.213  44.312   1.410
64798W        W37866  40.524  21.084  14.779
64799W        W37867  14.207   5.552  10.609
64800W        W37868  31.622   6.854  10.732
64801W        W37869   2.685  28.633  13.606
64802W        W37870  13.372   1.359  11.092
64803W        W37871  13.850  32.973   3.331
64804W        W37872  32.233  17.356  10.307
64805W        W37873  31.955  37.653  11.269
64806W        W37874  13.348  11.792   2.782
64807W        W37875  27.709   9.133   1.418
64808W        W37876   0.730   3.851   0.386
64809W        W37877   8.114  26.025   4.907
64810W        W37878  19.183  23.642   0.921
64811W        W37879  38.084  26.445   1.724
64812W        W37880   2.528   7.278  14.647
64813W        W37881   6.619  25.953  12.452
64814W        W37882  42.754  41.542   1.883
64815W        W37883  24.089   7.976  13.156
64816W        W37884  24.011  19.122   4.592
64817W        W37885  38.416   3.186  12.489
64818W        W37886  31.871   6.081   2.091
64819W        W37887  11.760  12.339   3.867
64820W        W37888  34.352   3.949  14.349
64821W        W37889   2.800  10.774  13.660
64822W        W37890  26.553  27.735  10.690
64823W        W37891  13.562   1.319   3.311
64824W        W37892  22.281  37.045  14.513
64825W        W37893   2.670   0.754  11.566
64826W        W37894  29.432  26.210  11.342
64827W        W37895  28.820  33.075   1.362
64828W        W37896  41.123  10.750  14.532
64829W        W37897   1.406  37.060  14.469
64830W        W37898  28.063  19.030  10.261
64831W        W37899  37.512   6.757  14.958
64832W        W37900  17.253  24.125   4.539
64833W        W37901  18.730   7.170  11.173
64834W        W37902  36.390  42.823   0.796
64835W        W37903  28.643   1.775   2.726
64836W        W37904  41.004  35.023   3.385
64837W        W37905  29.475   4.293   3.383
64838W        W37906  37.653  34.614   4.180
64839W        W37907  32.524  21.973   1.351
64840W        W37908  33.347  38.028   1.095
64841W        W37909  17.737  11.001   2.053
64842W        W37910  29.638  25.694  14.998
64843W        W37911  29.925  40.139  11.708
64844W        W37912  13.791  17.358  10.558
64845W        W37913   6.615  41.646   1.729
64846W        W37914  10.227  15.440  14.946
64847W        W37915  28.961  37.331  12.005
64848W        W37916  39.356   0.370  12.114
64849W        W37917   8.191   9.641   0.025
64850W        W37918   0.909  21.348  13.903
64851W        W37919  19.935  26.259  12.902
64852W        W37920  40.496   4.469  14.899
64853W        W37921   6.933  17.166  13.450
64854W        W37922  28.145  13.124  14.310
64855W        W37923  38.049  24.461  11.674
64856W        W37924  22.507  16.202  11.174
64857W        W37925  26.586  29.046  12.625
64858W        W37926  12.608   8.804   2.201
64859W        W37927   3.301  13.496   1.287
64860W        W37928  27.818  22.182  14.929
64861W        W37929   8.795   1.939  10.718
64862W        W37930  35.343   3.965   2.787
64863W        W37931  24.500  18.447   3.725
64864W        W37932  41.810  24.828  12.139
64865W        W37933  37.874  15.719  10.429
64866W        W37934  44.413  25.385   2.715
64867W        W37935  32.946   4.772   1.872
64868W        W37936  14.909   0.056   2.325
64869W        W37937  21.661   3.306  10.771
64870W        W37938  26.589  42.962  12.662
64871W        W37939   1.678  39.344   4.592
64872W        W37940   1.042  34.832  12.646
64873W        W37941  15.349  20.224  12.727
64874W        W37942  44.340  17.745  14.730
64875W        W37943  15.313  38.556   4.533
64876W        W37944  32.138  25.567   0.711
64877W        W37945  38.839  29.880   2.930
64878W        W37946  44.477  25.628   2.005
64879W        W37947  13.028   2.900  11.157
64880W        W37948  32.513  12.333   4.333
64881W        W37949  10.157  38.255  13.046
64882W        W37950  18.499  17.351  12.910
64883W        W37951  30.077   4.780  14.739
64884W        W37952   0.768  11.540   1.092
64885W        W37953  16.955   3.535   1.861
64886W        W37954   2.431  44.936   4.565
64887W        W37955  15.310  30.134  10.617
64888W        W37956  14.682  23.009   2.166
64889W        W37957  15.504  40.922  14.169
64890W        W37958   1.816  29.397  12.987
64891W        W37959  19.098  37.268   2.616
64892W        W37960  23.677  15.546  13.458
64893W        W37961  44.443  28.884   1.931
64894W        W37962  10.598  16.600   9.763
64895W        W37963  43.904  27.638  10.666
64896W        W37964  13.618  40.305  10.547
64897W        W37965  24.440   4.363   4.578
64898W        W37966  27.592  16.269   1.803
64899W        W37967   3.725  13.257   2.372
64900W        W37968  23.031   5.826  12.432
64901W        W37969  42.066  38.573   0.247
64902W        W37970  11.077   3.320  13.111
64903W        W37971  19.068  15.174   1.997
64904W        W37972   4.193  11.774   3.615
64905W        W37973  33.340  24.578   2.401
64906W        W37974  27.010  23.260  12.868
64907W        W37975  29.957   8.025   3.277
64908W        W37976  37.396  37.024  12.019
64909W        W37977  23.255  12.198  14.407
64910W        W37978  10.218  44.920  12.199
64911W        W37979  12.969   1.895   0.761
64912W        W37980  21.811   1.029  14.514
64913W        W37981  37.025  36.322   3.231
64914W        W37982   2.741  37.017   2.892
64915W        W37983  18.749  24.612  14.710
64916W        W37984  15.277  29.510  12.381
64917W        W37985  34.130  32.618   2.902
64918W        W37986   3.452  21.546   3.094
64919W        W37987   1.262   9.236  12.605
64920W        W37988  34.584   8.437   0.854
64921W        W37989  12.796  35.839   0.292
64922W        W37990   0.352  21.128  11.863
64923W        W37991   6.845  18.761  11.763
64924W        W37992  23.582  18.626   1.900
64925W        W37993  11.429  32.013  12.971
64926W        W37994  43.999  31.422  13.074
64927W        W37995  35.497  30.816   4.509
64928W        W37996  13.390  30.959   4.331
64929W        W37997  18.571  26.362  11.614
64930W        W37998  38.573  28.719   4.892
64931W        W37999  28.163  10.847  11.961
64932W        W38000  42.697  18.542  13.887
64933W        W38001  16.220  26.457  11.166
64934W        W38002  23.512   2.998  14.858
64935W        W38003   7.680  31.577  11.349
64936W        W38004  26.887  24.691   1.423
64937W        W38005  29.429  15.846  11.471
64938W        W38006  20.218   3.650   1.764
64939W        W38007  23.937   0.271   2.677
64940W        W38008  27.401  36.034  12.471
64941W        W38009  28.886  14.682   4.384
64942W        W38010  43.847  41.064   2.819
64943W        W38011   7.834   1.138  12.942
64944W        W38012  12.340  35.383  14.812
64945W        W38013  17.103  41.332  12.773
64946W        W38014  40.199  29.906   1.409
64947W        W38015   7.136  22.015  11.586
64948W        W38016  12.208  38.560   1.269
64949W        W38017  20.280  36.183   4.498
64950W        W38018  22.410  25.662  13.625
64951W        W38019  41.396  22.256  12.413
64952W        W38020  38.417  39.590  11.641
64953W        W38021   1.873   4.227  10.912
64954W        W38022  20.259   0.573  12.445
64955W        W38023  42.923  14.128   1.209
64956W        W38024  43.643  33.781  10.095
64957W        W38025   5.857  12.384  12.514
64958W        W38026   7.738   4.398   5.084
64959W        W38027  18.616  36.463  10.659
64960W        W38028  40.780  31.447  10.663
64961W        W38029   3.915  22.612   3.414
64962W        W38030  28.522   8.478   3.330
64963W        W38031  38.611   5.975  13.106
64964W        W38032   8.176   4.002   1.048
64965W        W38033  26.633  24.936   4.608
64966W        W38034   1.158  27.694   2.786
64967W        W38035  25.917  12.391   0.447
64968W        W38036  13.256  42.764   0.721
64969W        W38037   6.298   7.406  14.041
64970W        W38038  32.625  23.216   2.125
64971W        W38039  14.072   9.406   1.826
64972W        W38040  33.265  41.200  11.917
64973W        W38041  44.481   4.670  14.933
64974W        W38042  33.636  15.700  14.420
64975W        W38043  12.403  17.421  11.676
64976W        W38044   5.135  33.745  13.983
64977W        W38045   2.508  44.776  11.078
64978W        W38046  14.803  28.602  11.575
64979W        W38047  41.113   2.496   0.214
64980W        W38048  26.192  36.888   0.712
64981W        W38049  11.170  43.276   2.293
64982W        W38050  36.549  18.139  11.671
64983W        W38051   0.956  30.534   1.660
64984W        W38052   4.234  44.339   4.621
64985W        W38053   0.310  38.535  10.572
64986W        W38054  18.375  40.873  14.821
64987W        W38055   3.865  24.897   3.044
64988W        W38056  44.710  36.055  11.144
64989W        W38057   6.270  36.181   3.126
64990W        W38058  30.121  39.027  10.212
64991W        W38059  43.929  21.532   1.246
64992W        W38060  26.006  11.345   1.282
64993W        W38061  10.842  19.218  12.052
64994W        W38062   5.689   7.788   0.028
64995W        W38063  22.992   5.261  11.961
64996W        W38064   7.311  26.894  11.048
64997W        W38065  25.445  12.930   0.907
64998W        W38066   7.173  14.718  11.708
64999W        W38067   8.223  30.892  12.038
65000W        W38068  11.761   5.055  12.182
65001W        W38069  10.888  16.685  13.222
65002W        W38070  35.444  24.263   0.832
65003W        W38071  12.697  39.296  13.034
65004W        W38072  40.444  28.146   2.328
65005W        W38073  39.902  16.188   4.855
65006W        W38074  31.436  39.658  11.942
65007W        W38075   5.769  12.120   1.328
65008W        W38076  24.568  41.956   3.382
65009W        W38077   4.961   7.839  12.588
65010W        W38078   0.830  18.296   4.965
65011W        W38079  34.892  29.473   0.378
65012W        W38080  25.112   8.424  11.914
65013W        W38081  36.645   6.687   3.265
65014W        W38082  44.787   5.650  14.015
65015W        W38083  25.175  37.066  13.441
65016W        W38084   1.341  26.238   0.409
65017W        W38085  15.564   7.632   2.493
65018W        W38086   6.439   2.968   2.172
65019W        W38087  18.712  19.269   1.295
65020W        W38088  21.137  30.879  13.649
65021W        W38089   0.295  34.070  13.457
65022W        W38090  19.582  28.639   4.408
65023W        W38091  20.805   2.722  11.007
65024W        W38092  38.345  15.080  12.393
65025W        W38093  27.909  14.412   0.875
65026W        W38094  12.657   6.039   2.955
65027W        W38095  23.447  13.388  11.532
65028W        W38096  17.240   7.338  14.968
65029W        W38097  11.638   9.280  11.662
65030W        W38098  34.904  19.658   1.543
65031W        W38099  19.875  29.912  13.917
65032W        W38100  23.048   0.744   3.347
65033W        W38101  34.326  33.207   4.570
65034W        W38102  27.998  17.279   0.950
65035W        W38103   9.421  12.503   1.975
65036W        W38104  26.058  38.440  10.613
65037W        W38105  38.088  33.154  12.464
65038W        W38106  42.771   3.726  14.756
65039W        W38107  32.443  37.036  10.711
65040W        W38108  44.731  15.032   0.427
65041W        W38109   4.563   3.497   1.083
65042W        W38110  35.794  26.838   3.709
65043W        W38111   0.517  27.087   1.622
65044W        W38112  13.542  22.563   4.724
65045W        W38113  40.296  28.365   2.762
65046W        W38114  40.159  15.934   3.697
65047W        W38115  36.568  19.703   0.842
65048W        W38116  32.161  30.394   9.912
65049W        W38117  39.562  27.108  12.592
65050W        W38118  31.336  32.509   1.691
65051W        W38119  31.651   0.488   1.224
65052W        W38120   7.936  13.576  14.887
65053W        W38121  42.873  14.553   0.914
65054W        W38122  30.463   4.822   1.586
65055W        W38123  12.294  18.217  14.785
65056W        W38124  43.945   0.761  14.316
65057W        W38125  38.578  10.607   3.210
65058W        W38126  32.901   3.751   1.873
65059W        W38127  20.456  17.602   1.835
65060W        W38128  35.103  10.200   1.860
65061W        W38129  18.531   4.559   5.035
65062W        W38130  15.118  26.393  14.334
65063W        W38131  40.478  19.731  13.412
65064W        W38132  25.076  23.198  11.235
65065W        W38133  36.929  39.289  12.631
65066W        W38134  16.690   3.514   2.489
65067W        W38135  18.620  14.221   1.093
65068W        W38136   9.952  18.573  11.059
65069W        W38137  39.287  19.804   2.394
65070W        W38138  35.409  23.760  14.934
65071W        W38139  17.554  27.476  11.552
65072W        W38140  40.297  10.839   1.421
65073W        W38141  37.426  36.407   1.970
65074W        W38142  26.223  28.091  14.262
65075W        W38143   6.913   9.688  10.468
65076W        W38144   1.186  19.759   2.760
65077W        W38145  23.426  27.543  12.080
65078W        W38146  26.522  35.005   0.873
65079W        W38147  25.245   5.805   3.774
65080W        W38148  33.938  37.130   4.684
65081W        W38149   2.252  18.566  13.376
65082W        W38150  31.593   9.667   2.840
65083W        W38151  13.037  20.285  14.658
65084W        W38152  24.031  32.684  11.281
65085W        W38153  29.440   4.674   5.204
65086W        W38154   1.015   4.484   2.286
65087W        W38155  19.813  28.037  12.524
65088W        W38156  16.351  11.210   3.348
65089W        W38157   1.210  32.170   2.958
65090W        W38158  28.047  14.784   1.263
65091W        W38159  31.830  17.260  12.600
65092W        W38160  41.621  10.145   2.168
65093W        W38161  35.065   7.074  12.002
65094W        W38162   0.482  38.513  14.773
65095W        W38163  25.405  19.773  14.079
65096W        W38164  25.299  30.063  12.926
65097W        W38165   0.811  18.518   1.872
65098W        W38166   0.925  37.110  13.782
65099W        W38167  34.358  26.409  14.506
65100W        W38168   0.861  16.658  14.051
65101W        W38169  39.122  16.282  12.512
65102W        W38170  17.539  44.780  12.443
65103W        W38171  15.206  18.399  11.620
65104W        W38172  35.572  34.114   5.041
65105W        W38173  20.924   8.775   0.441
65106W        W38174  19.737  33.597   3.150
65107W        W38175  43.891  19.598   4.392
65108W        W38176  14.116  35.142  14.837
65109W        W38177  44.183  34.374  13.055
65110W        W38178  15.585  29.491   4.168
65111W        W38179   8.711  11.295   2.250
65112W        W38180  18.664   2.690   3.299
65113W        W38181  20.510   6.271   2.116
65114W        W38182  13.312  29.426  10.966
65115W        W38183  38.801   4.266  12.605
65116W        W38184  34.978  15.689  14.325
65117W        W38185   2.338  28.624  11.410
65118W        W38186  41.118  14.873   4.578
65119W        W38187  21.372  28.076   4.230
65120W        W38188   2.590  33.617  12.970
65121W        W38189  26.082  40.516   2.401
65122W        W38190  26.038   8.459  14.599
65123W        W38191  39.161  40.961  11.103
65124W        W38192  35.025  44.190   2.486
65125W        W38193  15.054  12.825   1.647
65126W        W38194  19.764  35.993  14.279
65127W        W38195  42.809  15.835  11.134
65128W        W38196  12.262   3.434   2.719
65129W        W38197  23.514   4.219   4.585
65130W        W38198  18.832  32.926  11.050
65131W        W38199   3.444   0.753   0.009
65132W        W38200  28.692   1.828  11.017
65133W        W38201  35.299   1.877   2.272
65134W        W38202  14.182  33.973  10.712
65135W        W38203   0.309   0.780  14.652
65136W        W38204  19.509  29.110  14.120
65137W        W38205  13.602  33.845  10.625
65138W        W38206  32.900  32.938  12.693
65139W        W38207  35.355  23.210   0.913
65140W        W38208  20.937  33.904  12.400
65141W        W38209  15.038  25.567  12.536
65142W        W38210  30.939  34.056  14.305
65143W        W38211  22.797   8.738  12.888
65144W        W38212  10.628  42.881  13.354
65145W        W38213  20.860  17.556  11.122
65146W        W38214  33.927  23.916  12.587
65147W        W38215  28.639   8.992  10.716
65148W        W38216   6.000   8.300  13.354
65149W        W38217  35.340  19.058  11.548
65150W        W38218  29.677  40.898  14.850
65151W        W38219  34.354  41.575  12.153
65152W        W38220  21.586   7.201  12.490
65153W        W38221  10.786  44.262   2.885
65154W        W38222  42.561   5.500   2.830
65155W        W38223   5.957  27.030   0.881
65156W        W38224  27.009   0.326  14.966
65157W        W38225  25.507  25.069  10.680
65158W        W38226  29.344   0.271  10.528
65159W        W38227   7.457  27.586  14.448
65160W        W38228  26.652  14.173   3.293
65161W        W38229  33.504  12.417  13.974
65162W        W38230  19.255   0.699  11.069
65163W        W38231   4.708  18.813  11.072
65164W        W38232  33.462   5.614   0.871
65165W        W38233  41.873   1.497   0.244
65166W        W38234   7.374  37.968   4.850
65167W        W38235  15.250  36.274   2.895
65168W        W38236   7.061  11.860  12.977
65169W        W38237   6.937  35.717  11.533
65170W        W38238   7.202  31.427  11.063
65171W        W38239   7.512  33.405  11.170
65172W        W38240  32.937  42.928  12.490
65173W        W38241  17.271  34.785  14.883
65174W        W38242   8.985  20.314   1.406
65175W        W38243  33.064  29.801   1.316
65176W        W38244  41.872   2.439   0.976
65177W        W38245   7.881  30.527   3.261
65178W        W38246  19.160   2.446   1.302
65179W        W38247  33.616  44.190   4.915
65180W        W38248  24.699  19.075  13.432
65181W        W38249  13.927  33.477   3.316
65182W        W38250  26.994  26.020   1.674
65183W        W38251  20.614  36.936  11.698
65184W        W38252  31.136  25.294  11.033
65185W        W38253  11.653   9.390  14.340
65186W        W38254  43.463  27.987   2.221
65187W        W38255   7.843  21.166  14.053
65188W        W38256  19.728  31.624   3.221
65189W        W38257   7.798  24.523   0.015
65190W        W38258  33.702  44.215   2.699
65191W        W38259  18.718   8.919   5.096
65192W        W38260   9.270  16.047   2.734
65193W        W38261  12.433  37.427  13.312
65194W        W38262   2.797  44.304   3.779
65195W        W38263  19.673   9.849   0.420
65196W        W38264  40.439  12.297  13.614
65197W        W38265   0.352  30.260  12.964
65198W        W38266   3.385  39.166   2.347
65199W        W38267   1.380  42.390   1.796
65200W        W38268  10.344  31.539   4.609
65201W        W38269  25.274  37.532   5.376
65202W        W38270   8.895  25.918   3.103
65203W        W38271  41.860  33.009   0.274
65204W        W38272  38.986   9.101  12.610
65205W        W38273  25.660   1.978  10.388
65206W        W38274  35.626   3.472  11.192
65207W        W38275  17.022  18.034   0.448
65208W        W38276   1.842   2.912  11.607
65209W        W38277   8.224  42.056  12.903
65210W        W38278   5.234  37.483  14.920
65211W        W38279  27.812  35.403  11.193
65212W        W38280  36.401   3.658   0.292
65213W        W38281  38.346  43.962  10.661
65214W        W38282  12.069   4.755  14.843
65215W        W38283  20.108   2.293  14.801
65216W        W38284  34.972  10.350  13.013
65217W        W38285  15.188   8.723   4.181
65218W        W38286  11.503   8.019  13.352
65219W        W38287  27.871  28.542  14.857
65220W        W38288  14.695  30.052   3.729
65221W        W38289  35.518  39.973  12.483
65222W        W38290   4.425  40.006  14.841
65223W        W38291  19.977   2.359  12.522
65224W        W38292  39.921   1.551   3.794
65225W        W38293  41.010  35.406   3.737
65226W        W38294   0.283  32.759  14.053
65227W        W38295  34.361  20.159  11.420
65228W        W38296  13.860  26.674   0.552
65229W        W38297  43.089  39.884   2.707
65230W        W38298   3.432  13.252  12.495
65231W        W38299  31.585  33.416  10.744
65232W        W38300   2.688  44.892   2.222
65233W        W38301  37.106  39.671   1.427
65234W        W38302  27.895   3.844  14.761
65235W        W38303  16.860   3.852   4.538
65236W        W38304  11.110  30.676   3.803
65237W        W38305  12.721  19.503   4.036
65238W        W38306  10.159  30.146  13.747
65239W        W38307  11.223  22.186   2.610
65240W        W38308   1.664   4.262   4.083
65241W        W38309  22.398  40.973  13.413
65242W        W38310  39.293  43.421   1.841
65243W        W38311  10.005  44.970   0.115
65244W        W38312  23.279   0.672  12.065
65245W        W38313  35.035   2.248   1.805
65246W        W38314  23.212  29.721  13.041
65247W        W38315   8.161  39.572   5.437
65248W        W38316  31.328   4.936  12.271
65249W        W38317   3.321  11.120  10.810
65250W        W38318   0.227  18.155  11.673
65251W        W38319  37.449  23.107   3.034
65252W        W38320  42.984  20.728  11.201
65253W        W38321  24.732   9.353   2.869
65254W        W38322  24.681  33.840  11.583
65255W        W38323  20.167  40.372   2.617
65256W        W38324  40.584   3.341   3.201
65257W        W38325   3.441   9.292   3.157
65258W        W38326  13.608  10.231   1.848
65259W        W38327  42.730  24.156   3.088
65260W        W38328  22.962  27.658   0.795
65261W        W38329  10.311  42.679  11.148
65262W        W38330   9.843  31.934  10.518
65263W        W38331  29.545  29.712  11.029
65264W        W38332  32.136  29.882   1.313
65265W        W38333  37.826   4.457  12.386
65266W        W38334  27.901  15.848   0.871
65267W        W38335   1.516  25.580   4.669
65268W        W38336   9.871   4.021  11.637
65269W        W38337  11.340   8.406  13.012
65270W        W38338  28.569  11.404   3.125
65271W        W38339  39.592   8.801  12.850
65272W        W38340  16.411  26.612  12.031
65273W        W38341   2.903  24.541   3.298
65274W        W38342   8.676  42.340   1.891
65275W        W38343  10.010  35.003  12.101
65276W        W38344  23.470  16.217  14.416
65277W        W38345  27.220  15.236  14.838
65278W        W38346  23.261  32.442   3.193
65279W        W38347   3.434  18.077  11.195
65280W        W38348  36.385  23.903  11.097
65281W        W38349  35.516   6.874  11.679
65282W        W38350  44.743   5.861  10.953
65283W        W38351  27.462  17.103  14.416
65284W        W38352  12.550  17.616   0.486
65285W        W38353   6.432  38.613  14.676
65286W        W38354  19.221  36.308  13.550
65287W        W38355  24.499  11.326   3.214
65288W        W38356  19.467  30.568  10.888
65289W        W38357  22.090  26.045   3.765
65290W        W38358  35.123   8.147  11.233
65291W        W38359  11.077  13.578  14.806
65292W        W38360  24.066  20.782   1.299
65293W        W38361  26.806  38.762  14.262
65294W        W38362  20.627   6.249  10.688
65295W        W38363  16.055   0.357  11.679
65296W        W38364  33.039  10.526  10.673
65297W        W38365  32.817   3.160  13.480
65298W        W38366  40.201  28.134  13.852
65299W        W38367  28.985  21.544   0.389
65300W        W38368  24.225   6.715  10.324
65301W        W38369   5.702   6.175   1.578
65302W        W38370  36.140  24.912   2.734
65303W        W38371  30.753  21.799   2.923
65304W        W38372  10.240  34.622   0.726
65305W        W38373  24.246  19.979  13.416
65306W        W38374  21.801  10.281   3.321
65307W        W38375  20.829  10.218  14.823
65308W        W38376  22.602  18.282   0.461
65309W        W38377  11.974  32.124  13.138
65310W        W38378   4.419  32.623  14.530
65311W        W38379  13.280  41.471  12.843
65312W        W38380  40.525  22.913   0.323
65313W        W38381  26.412  43.770  12.849
65314W        W38382  40.342   0.378   2.269
65315W        W38383   5.291  18.484  14.918
65316W        W38384  26.167   2.152  12.981
65317W        W38385  27.926  44.320  11.219
65318W        W38386  11.270  14.804   3.981
65319W        W38387   5.182  42.905   4.573
65320W        W38388  11.888  24.093  11.167
65321W        W38389  35.613   6.245   2.314
65322W        W38390   8.624  31.343  11.339
65323W        W38391  17.339  25.953   3.970
65324W        W38392  44.808  26.328   4.830
65325W        W38393  36.122   0.559  10.503
65326W        W38394  20.623  18.813  12.438
65327W        W38395  19.549  10.387   2.138
65328W        W38396   1.083  41.722  14.215
65329W        W38397  27.511  12.079  14.644
65330W        W38398  40.871  31.338  14.718
65331W        W38399  32.395  16.875  10.752
65332W        W38400  27.108   7.817   2.252
65333W        W38401  25.968   4.598  13.381
65334W        W38402  39.259  35.992  11.818
65335W        W38403   7.828  39.748  14.496
65336W        W38404   1.479  31.059  13.407
65337W        W38405  18.324  16.829  13.579
65338W        W38406   8.120  19.356  14.477
65339W        W38407  29.982  13.011   0.256
65340W        W38408  10.658  13.650  11.610
65341W        W38409   5.805  16.995  11.621
65342W        W38410  39.063  33.588   4.595
65343W        W38411  32.328  32.864   1.353
65344W        W38412   5.535  25.491   2.912
65345W        W38413  14.104  28.188   1.245
65346W        W38414  19.375  21.656  14.563
65347W        W38415   7.386  11.390  12.009
65348W        W38416   5.343   4.021  13.938
65349W        W38417   7.162  11.768   0.805
65350W        W38418  10.407  34.867  14.389
65351W        W38419   7.678   8.205  14.548
65352W        W38420  25.115  41.871  14.405
65353W        W38421  43.675  27.468   2.864
65354W        W38422  36.933  10.128  12.810
65355W        W38423  43.465  36.388  13.315
65356W        W38424   2.834  14.406  11.117
65357W        W38425  44.041   6.237  12.045
65358W        W38426   7.525  12.710   0.529
65359W        W38427  19.083  26.214  14.337
65360W        W38428  11.263   7.497   1.601
65361W        W38429  28.669   5.893  11.203
65362W        W38430  15.628   1.749  13.110
65363W        W38431  24.582  15.801   0.786
65364W        W38432  18.663  38.296  10.484
65365W        W38433  18.261  25.519   3.601
65366W        W38434  10.834  10.331   1.441
65367W        W38435  27.223  40.825   1.381
65368W        W38436   4.951  23.332  11.623
65369W        W38437  43.684  18.767   3.551
65370W        W38438  11.226  12.589  12.457
65371W        W38439  10.347  39.929  12.576
65372W        W38440  35.125  15.658  13.851
65373W        W38441   0.795  27.687  14.981
65374W        W38442  39.575  37.079   0.881
65375W        W38443  24.985  13.077  11.527
65376W        W38444  36.129  23.620   3.617
65377W        W38445  20.280  33.638  12.863
65378W        W38446  23.244   0.478  13.771
65379W        W38447  40.006  37.921  14.230
65380W        W38448   2.490  18.048  14.974
65381W        W38449  38.806  41.519  12.395
65382W        W38450  20.441  26.229  13.075
65383W        W38451  19.481  35.536   4.469
65384W        W38452  24.160  11.407   5.040
65385W        W38453  27.931  29.940  12.523
65386W        W38454  33.488  37.655   3.565
65387W        W38455  20.223  10.800   3.073
65388W        W38456  21.063  29.239   9.801
65389W        W38457  19.752  30.136  11.057
65390W        W38458   8.199   6.725   4.126
65391W        W38459  34.610  44.688   0.676
65392W        W38460  15.282   5.928  11.542
65393W        W38461  15.160   7.490  12.486
65394W        W38462  15.265  17.573  11.236
65395W        W38463  40.629  10.163   2.122
65396W        W38464  21.129  21.128  12.533
65397W        W38465  14.231  29.719   2.843
65398W        W38466  13.010  39.311  11.065
65399W        W38467  22.026  31.593   0.907
65400W        W38468  16.263  35.935   3.603
65401W        W38469  13.659  22.300   0.292
65402W        W38470   3.434   8.695   3.777
65403W        W38471  38.006  41.953  12.591
65404W        W38472  23.484  33.476   0.851
65405W        W38473  36.398  43.019   3.653
65406W        W38474  13.080  37.753   1.475
65407W        W38475  10.604  16.951  12.066
65408W        W38476   9.188  44.062   3.896
65409W        W38477  12.788   6.814   0.896
65410W        W38478  42.451  40.982  14.563
65411W        W38479  42.795  39.348  13.359
65412W        W38480  28.027  18.743  13.069
65413W        W38481  28.709  17.230  13.420
65414W        W38482  22.753   8.707   3.621
65415W        W38483  32.182   4.208  14.149
65416W        W38484  24.734   4.932   1.882
65417W        W38485  43.829  15.026   3.394
65418W        W38486   9.702  24.150   0.550
65419W        W38487  18.828  10.895   0.407
65420W        W38488  38.602  39.894   1.264
65421W        W38489  14.585  26.530  14.407
65422W        W38490  10.455  27.228   1.837
65423W        W38491  25.328   6.411   4.534
65424W        W38492  21.854  25.503   2.874
65425W        W38493  16.075  36.749  11.067
65426W        W38494  31.515  39.925  12.890
65427W        W38495   2.900  30.980  13.375
65428W        W38496   1.043   0.466   0.805
65429W        W38497  39.172  12.105  13.584
65430W        W38498  33.832  27.094  14.834
65431W        W38499  31.125   9.398   4.081
65432W        W38500  16.733  33.170   2.316
65433W        W38501  34.473  20.492  12.649
65434W        W38502  34.889  38.160  11.861
65435W        W38503  24.782  11.424   2.791
65436W        W38504  41.359  33.581   0.823
65437W        W38505  24.832  32.070  11.185
65438W        W38506  13.360  18.040   3.017
65439W        W38507   5.461  36.117   0.784
65440W        W38508  19.837  25.203   3.868
65441W        W38509  31.031  14.619  14.477
65442W        W38510  42.569  24.107   1.752
65443W        W38511  25.028  29.623  14.436
65444W        W38512  13.605  41.550  12.067
65445W        W38513  14.274   4.696   1.531
65446W        W38514  16.422  39.166  14.490
65447W        W38515   5.160  43.853  14.422
65448W        W38516  27.093  10.394   2.359
65449W        W38517   9.782  21.989   1.186
65450W        W38518  29.899  22.133   1.744
65451W        W38519   9.738  39.075  10.468
65452W        W38520  20.257  19.465   3.225
65453W        W38521   3.414  34.077   2.682
65454W        W38522  17.594  27.249  12.029
65455W        W38523  44.013  38.273   2.921
65456W        W38524  22.463  24.547   1.584
65457W        W38525  40.098   4.422   3.688
65458W        W38526  33.502  35.453   4.052
65459W        W38527  15.406  38.798  11.231
65460W        W38528  12.044  29.733   0.797
65461W        W38529  21.746  38.402   1.802
65462W        W38530  26.455  29.405   1.369
65463W        W38531  35.576  22.725   0.934
65464W        W38532   1.141   7.912   1.400
65465W        W38533   4.803  20.122   0.388
65466W        W38534   4.250  32.546  12.690
65467W        W38535   6.915  31.584  14.931
65468W        W38536   9.757   1.525   0.710
65469W        W38537  16.584  31.256  12.835
65470W        W38538  18.365  31.428   1.321
65471W        W38539   9.362  25.817  11.001
65472W        W38540  26.818   9.638  14.930
65473W        W38541  35.903  24.602   3.091
65474W        W38542  20.737   8.877   2.858
65475W        W38543   0.054   8.340   4.831
65476W        W38544  19.226  39.368  11.083
65477W        W38545   6.270  24.117   3.248
65478W        W38546  26.954   7.422  13.730
65479W        W38547  32.871  35.421  11.097
65480W        W38548   7.812  32.901   3.718
65481W        W38549   8.061   2.479  12.107
65482W        W38550   8.847  32.474  14.497
65483W        W38551  19.712  13.711  11.004
65484W        W38552  23.118  38.446  14.117
65485W        W38553  15.760  41.344   3.725
65486W        W38554  35.962  17.848   4.083
65487W        W38555  13.274  28.539  11.959
65488W        W38556  11.650  33.417  13.591
65489W        W38557   6.879  23.037   2.788
65490W        W38558  38.855  34.542  11.133
65491W        W38559  18.098   9.632  13.519
65492W        W38560  19.372   2.670  13.122
65493W        W38561   6.806   8.391  14.869
65494W        W38562  17.099  28.547   1.478
65495W        W38563  12.313  21.808   3.214
65496W        W38564  12.679  10.665  10.956
65497W        W38565  34.514   0.852   3.681
65498W        W38566  19.503  35.296  13.552
65499W        W38567  19.211  24.444  12.429
65500W        W38568  24.522  26.441   0.187
65501W        W38569  31.059  21.758  12.510
65502W        W38570  16.716  25.475  13.741
65503W        W38571  10.389  26.506  10.567
65504W        W38572   5.378  34.604   3.507
65505W        W38573  23.195   7.339   3.970
65506W        W38574  35.057  21.416   4.946
65507W        W38575  17.728  33.794  12.550
65508W        W38576  25.252  12.718   3.272
65509W        W38577   0.738   1.506  11.040
65510W        W38578  28.706  16.688   1.407
65511W        W38579  39.767  17.326  10.661
65512W        W38580  30.768  14.965   2.351
65513W        W38581   6.287  14.109   1.344
65514W        W38582  18.310  34.517   4.589
65515W        W38583  33.965   7.777   4.117
65516W        W38584   7.792  24.719  14.075
65517W        W38585  34.546  17.009  12.391
65518W        W38586   3.400   2.289  11.698
65519W        W38587  13.118  37.893  13.915
65520W        W38588  29.020  17.380  11.120
65521W        W38589  16.193  21.175   4.669
65522W        W38590  27.410  29.137   0.275
65523W        W38591  10.925  34.432  12.799
65524W        W38592  34.669  28.349   4.531
65525W        W38593  18.101  34.921  11.094
65526W        W38594   3.481  28.766   1.211
65527W        W38595  41.931  11.412  14.015
65528W        W38596  42.905   8.938   0.362
65529W        W38597  36.824  17.178  11.523
65530W        W38598   8.698   6.199   4.591
65531W        W38599   5.837  31.503   4.889
65532W        W38600  31.606  17.870  10.952
65533W        W38601   0.133   2.672   1.995
65534W        W38602  21.955  24.625  12.884
65535W        W38603  40.127  43.252  13.334
65536W        W38604  30.553   3.712   0.994
65537W        W38605  12.274   1.839  12.256
65538W        W38606  33.946  11.721  12.616
65539W        W38607  27.667  19.708  11.556
65540W        W38608  30.076  34.235   0.472
65541W        W38609  40.935  35.572  13.021
65542W        W38610  28.448  21.202  13.399
65543W        W38611  14.836   2.467   1.800
65544W        W38612  24.736  31.663  11.735
65545W        W38613  26.434  28.803   1.412
65546W        W38614   9.352  25.207   5.092
65547W        W38615   0.954  36.004  14.771
65548W        W38616  14.129   7.237  12.634
65549W        W38617  16.400  35.942   4.636
65550W        W38618  40.494  37.318  12.947
65551W        W38619  32.765  29.117   2.080
65552W        W38620  29.297  36.493  13.310
65553W        W38621   7.756   3.777   2.961
65554W        W38622   7.823  15.594   0.316
65555W        W38623  25.532  44.187  10.565
65556W        W38624  17.273  18.134   3.792
65557W        W38625  12.316   7.920  11.589
65558W        W38626  10.199  24.729   1.847
65559W        W38627  38.323  34.030  13.416
65560W        W38628  35.693  26.455  11.899
65561W        W38629  14.068  33.845   2.348
65562W        W38630  23.206  33.630   2.100
65563W        W38631  14.863   3.864  12.845
65564W        W38632  12.594  27.675   4.001
65565W        W38633  16.496  27.152  13.435
65566W        W38634  40.524  41.915   1.489
65567W        W38635  10.729  14.057  11.889
65568W        W38636  15.658  11.728   2.466
65569W        W38637  31.709  28.323  10.344
65570W        W38638  16.770   1.392  11.398
65571W        W38639  15.470  13.402  12.916
65572W        W38640   5.839   0.998   0.021
65573W        W38641  40.553   9.997  12.008
65574W        W38642   3.889  23.480  14.462
65575W        W38643  28.954  40.882   0.305
65576W        W38644  27.980   0.404  14.215
65577W        W38645  14.010  12.166  11.439
65578W        W38646  19.681  21.527   2.283
65579W        W38647  21.224  31.835   5.037
65580W        W38648  39.947   5.187   0.696
65581W        W38649  23.093   1.275  13.635
65582W        W38650  14.104   0.377  14.434
65583W        W38651  31.559  10.618  14.958
65584W        W38652  44.593  14.254   1.883
65585W        W38653   1.904  27.895  14.384
65586W        W38654  20.250  43.445   5.059
65587W        W38655   0.078   8.821  13.303
65588W        W38656  36.862   7.880   1.957
65589W        W38657  20.774  25.662  11.630
65590W        W38658  23.025  26.471  12.521
65591W        W38659  34.334  14.564  12.779
65592W        W38660  30.829  19.178   4.692
65593W        W38661  26.802  22.161  11.553
65594W        W38662   9.115  38.603   1.206
65595W        W38663  43.114   1.086   3.165
65596W        W38664   8.674  22.279  10.579
65597W        W38665   0.199  25.759  11.063
65598W        W38666  26.376   6.263  13.086
65599W        W38667  31.564  29.456   4.856
65600W        W38668  18.705   8.032   3.788
65601W        W38669  35.163  17.187  11.538
65602W        W38670  30.674   4.509   4.847
65603W        W38671  23.043   0.033   5.192
65604W        W38672  10.632  18.237  14.694
65605W        W38673  19.003  28.109   0.322
65606W        W38674  35.866   4.151  14.762
65607W        W38675  25.185   8.717  12.427
65608W        W38676   0.445   6.302  12.982
65609W        W38677  21.851   2.790   1.443
65610W        W38678  11.010  43.298   3.202
65611W        W38679  11.770  32.690   2.612
65612W        W38680  36.380  37.848   2.091
65613W        W38681  29.693  43.336   4.587
65614W        W38682   0.537   5.032  13.986
65615W        W38683  24.561  19.329  11.906
65616W        W38684   1.812  43.113   2.795
65617W        W38685  13.860  37.104   4.231
65618W        W38686  36.344  22.161  11.989
65619W        W38687  31.467  25.547   1.377
65620W        W38688  17.665  43.924  10.444
65621W        W38689   0.468  39.989   3.645
65622W        W38690  42.388   3.906  11.243
65623W        W38691  16.382  42.805   0.236
65624W        W38692  25.807   0.193  13.392
65625W        W38693  18.595  13.772   1.565
65626W        W38694  33.950  28.084   0.429
65627W        W38695  40.784  20.510   3.256
65628W        W38696   5.855   9.995  14.356
65629W        W38697  43.803  19.015  12.045
65630W        W38698  11.824  22.965  11.241
65631W        W38699  35.822  15.673  11.978
65632W        W38700  17.533  12.269   0.729
65633W        W38701   7.779   5.318   2.321
65634W        W38702  14.331  41.632  12.454
65635W        W38703  37.351  20.779  13.361
65636W        W38704   3.792  18.680  12.419
65637W        W38705  14.857  21.706   1.473
65638W        W38706   7.108  42.730  14.971
65639W        W38707  19.296  40.465   3.661
65640W        W38708  28.471  35.042   3.615
65641W        W38709  23.649  33.364   3.257
65642W        W38710   6.171   8.236  14.347
65643W        W38711  10.445  28.949   2.108
65644W        W38712  40.519  17.561  10.646
65645W        W38713   4.153   2.275  12.457
65646W        W38714  33.740  43.874  12.981
65647W        W38715  40.378  22.629  12.794
65648W        W38716  21.963   0.290   0.414
65649W        W38717  15.031   5.750   1.349
65650W        W38718   3.858   9.468  12.970
65651W        W38719   7.422  24.090   0.877
65652W        W38720  20.306  19.715  14.424
65653W        W38721   7.223   2.866  10.638
65654W        W38722  36.660   1.399   3.823
65655W        W38723  34.065  33.777  10.132
65656W        W38724  33.291  32.405  12.995
65657W        W38725   7.473   8.034   3.251
65658W        W38726  35.341  15.481   2.752
65659W        W38727  27.141  34.591  10.719
65660W        W38728  22.209   1.373  12.101
65661W        W38729  13.250  44.711  11.744
65662W        W38730  30.178  29.723   1.344
65663W        W38731  39.121  39.829   1.294
65664W        W38732  32.992   2.025  11.373
65665W        W38733  30.987   2.990   0.977
65666W        W38734  13.234   6.651  13.346
65667W        W38735  37.461  17.042  14.049
65668W        W38736   3.487  14.992  11.994
65669W        W38737  20.190  19.042  12.900
65670W        W38738   4.145  37.979  13.591
65671W        W38739  31.727  13.699  13.374
65672W        W38740  33.436  34.288   3.432
65673W        W38741   4.821  35.841   4.069
65674W        W38742   9.463   9.345   0.186
65675W        W38743  12.206   1.394   4.573
65676W        W38744   6.700  42.536  13.806
65677W        W38745  30.248   4.229   2.289
65678W        W38746   1.174   2.033  11.607
65679W        W38747  29.650  38.936   2.391
65680W        W38748  25.380  26.043   2.827
65681W        W38749  10.738   4.745  11.404
65682W        W38750  18.890  18.121  12.994
65683W        W38751  19.516   7.388   1.313
65684W        W38752  23.008  32.445   4.156
65685W        W38753  35.160  42.897  13.123
65686W        W38754  16.091  19.117   2.608
65687W        W38755  29.719  22.276  11.996
65688W        W38756  17.912  10.876   0.585
65689W        W38757   6.405  11.049  12.531
65690W        W38758  35.793  43.924   0.444
65691W        W38759  19.666  25.204  12.485
65692W        W38760   8.982  20.804  11.755
65693W        W38761  24.790  22.776   0.914
65694W        W38762  26.996  31.245  13.422
65695W        W38763  38.055  24.174   0.681
65696W        W38764   1.892  43.785  10.655
65697W        W38765  24.135  24.926  14.347
65698W        W38766  13.215  27.771   0.219
65699W        W38767  24.746  27.885   0.725
65700W        W38768  18.112  33.030   2.255
65701W        W38769   3.281  38.355   3.956
65702W        W38770  26.768  13.089   2.326
65703W        W38771   0.388  21.455  12.855
65704W        W38772  20.845  37.056   0.226
65705W        W38773   7.194  37.961   3.839
65706W        W38774  42.994  24.445  14.820
65707W        W38775  11.761  16.643  14.814
65708W        W38776  30.658  35.279   4.666
65709W        W38777  23.018   5.405  14.971
65710W        W38778  29.418  37.873   1.198
65711W        W38779  36.055   4.663   2.668
65712W        W38780   3.694  32.018  11.206
65713W        W38781   3.160  35.945   3.610
65714W        W38782   7.730  40.079   4.160
65715W        W38783  33.926  16.567   2.639
65716W        W38784  20.168  18.313   2.341
65717W        W38785  22.416  40.006   4.193
65718W        W38786  37.159  30.856  14.424
65719W        W38787  16.152  39.911   3.407
65720W        W38788   1.701  24.875  14.940
65721W        W38789  31.170  29.613  11.144
65722W        W38790   6.539   3.292   2.674
65723W        W38791  30.727  25.414   2.811
65724W        W38792   4.848   6.373   1.020
65725W        W38793  31.872  44.481   1.322
65726W        W38794  26.406  22.667  14.069
65727W        W38795  17.800  16.112  12.919
65728W        W38796  17.613  32.086  13.294
65729W        W38797  10.842  38.393  11.083
65730W        W38798   1.516  25.467  11.681
65731W        W38799  36.961  28.230   0.925
65732W        W38800  25.226  10.194   1.567
65733W        W38801  19.858  42.402   3.309
65734W        W38802  10.529   4.857  13.343
65735W        W38803   4.157  40.049  12.069
65736W        W38804  35.999  21.577  14.093
65737W        W38805  28.793  34.297  12.477
65738W        W38806   6.704  20.713  14.731
65739W        W38807  40.273  35.126   0.053
65740W        W38808  35.443  17.646  10.927
65741W        W38809  24.951  32.527   3.637
65742W        W38810  21.306   1.464   5.654
65743W        W38811  31.446  42.705   3.889
65744W        W38812  37.440  26.035  14.737
65745W        W38813  19.078  44.274   0.376
65746W        W38814  34.058  39.538   0.956
65747W        W38815   4.018  16.538  10.975
65748W        W38816  34.987  12.850   1.432
65749W        W38817  11.290  16.802   4.166
65750W        W38818  14.548  22.321  11.624
65751W        W38819  23.020  34.775   3.326
65752W        W38820   1.609  38.842   0.781
65753W        W38821  21.723  28.071  11.917
65754W        W38822  24.878  39.670   4.549
65755W        W38823  16.470   9.323   4.758
65756W        W38824  32.108  29.181   3.972
65757W        W38825  14.151  18.825   3.608
65758W        W38826   4.829  29.648  12.442
65759W        W38827  13.818  39.517  13.811
65760W        W38828  12.863  21.726  14.250
65761W        W38829  18.811  29.492  11.591
65762W        W38830  23.021  29.175  11.996
65763W        W38831   7.558   1.228   3.287
65764W        W38832  32.310  39.092   4.088
65765W        W38833  34.400  18.520  14.447
65766W        W38834  32.480  11.898   2.873
65767W        W38835  11.128  20.219   0.932
65768W        W38836  19.414  40.525  13.192
65769W        W38837  23.142  37.918  12.293
65770W        W38838  39.575  28.896  12.837
65771W        W38839   8.264  27.009   0.389
65772W        W38840  17.419   7.797  12.484
65773W        W38841  24.011  39.913   4.086
65774W        W38842  39.328  37.491  14.993
65775W        W38843  18.637  21.680  12.100
65776W        W38844  25.023  16.552   0.801
65777W        W38845  44.360  21.163  11.985
65778W        W38846  42.054  26.207   1.670
65779W        W38847  28.643   2.437  14.820
65780W        W38848   9.665   0.420  11.080
65781W        W38849  14.092   2.445   2.386
65782W        W38850  14.625  13.864  14.347
65783W        W38851  41.551  37.007   2.273
65784W        W38852  15.553  30.473  12.683
65785W        W38853  34.857   5.723  14.498
65786W        W38854   2.821  34.962  13.106
65787W        W38855  28.493  13.742  13.996
65788W        W38856  28.211  35.150  12.775
65789W        W38857  15.796  17.544   2.220
65790W        W38858  11.940   3.889   3.251
65791W        W38859   2.266   0.591   5.110
65792W        W38860  27.460  13.704   3.263
65793W        W38861   4.414  38.904   2.793
65794W        W38862  31.545  36.811   3.486
65795W        W38863   4.028   1.824  10.099
65796W        W38864  36.566  14.962  12.386
65797W        W38865   9.933  43.226  14.586
65798W        W38866  33.810  28.606   3.349
65799W        W38867  13.782  30.640   0.524
65800W        W38868  12.233  16.609  13.745
65801W        W38869  16.253   4.397   4.311
65802W        W38870  28.008  44.904  11.641
65803W        W38871  15.234  43.468   1.199
65804W        W38872  25.279  39.021  14.284
65805W        W38873  32.153  43.628  13.107
65806W        W38874  21.495   9.344   0.858
65807W        W38875   3.252  12.652  10.670
65808W        W38876  15.797  23.908  11.235
65809W        W38877   3.184  15.504  14.558
65810W        W38878   3.749  18.730   4.179
65811W        W38879  28.167  35.563  13.561
65812W        W38880  16.240  37.754  10.988
65813W        W38881   5.235  28.462  13.804
65814W        W38882  11.762   8.787   4.791
65815W        W38883  26.468  30.314  14.792
65816W        W38884  16.272  44.966  13.304
65817W        W38885   0.924  15.688  14.388
65818W        W38886  40.577  19.076   3.366
65819W        W38887  30.594  15.744  13.755
65820W        W38888  34.009  23.526   2.646
65821W        W38889  29.499  28.501   2.181
65822W        W38890  10.637  41.166   1.949
65823W        W38891  31.925  29.430   0.381
65824W        W38892  32.670  42.761  14.972
65825W        W38893  27.953  21.808  12.023
65826W        W38894  27.998  17.693  13.055
65827W        W38895  43.576  25.073  12.977
65828W        W38896  40.975  29.066  10.415
65829W        W38897  40.547  42.443   2.910
65830W        W38898   1.915  30.017   0.144
65831W        W38899   7.295   1.525   4.267
65832W        W38900  44.471  43.394   4.695
65833W        W38901  30.798   2.263   3.153
65834W        W38902  29.959   4.246   1.811
65835W        W38903  25.516  30.841  13.862
65836W        W38904  28.102  39.274   2.533
65837W        W38905   4.919  39.939  13.838
65838W        W38906  13.673   1.876   0.191
65839W        W38907   9.056  36.925   3.677
65840W        W38908  24.466  41.872  12.467
65841W        W38909  20.746  27.161  12.115
65842W        W38910  27.675  34.253   5.072
65843W        W38911  12.154  24.527   4.667
65844W        W38912  18.596  40.206   2.702
65845W        W38913  22.796  18.674  10.659
65846W        W38914  35.075  30.410   2.307
65847W        W38915  32.536  37.109   1.433
65848W        W38916  30.498  32.232   1.659
65849W        W38917  11.951  17.170   3.731
65850W        W38918  30.633   0.958  13.046
65851W        W38919  11.797  21.385  14.533
65852W        W38920  25.005  23.901  13.844
65853W        W38921  26.325  21.191   2.807
65854W        W38922  25.289  32.187  13.846
65855W        W38923  17.637  17.800   2.643
65856W        W38924  32.234  43.053   2.863
65857W        W38925  43.965  10.208  10.701
65858W        W38926  38.564  33.644  14.343
65859W        W38927  31.134   7.694  11.150
65860W        W38928  33.622  14.990   0.953
65861W        W38929   5.902  41.792   4.554
65862W        W38930  29.425  16.156  13.461
65863W        W38931  17.236  35.300  12.338
65864W        W38932  37.423  40.475   4.717
65865W        W38933   2.969  16.071  12.557
65866W        W38934  38.634  12.344  12.134
65867W        W38935   6.685   4.377   4.013
65868W        W38936   2.068  27.842  11.628
65869W        W38937  23.140  11.867   1.186
65870W        W38938  24.699  37.455  10.829
65871W        W38939  40.439  18.423   3.182
65872W        W38940  25.510  39.474  10.630
65873W        W38941  19.204  12.689   0.859
65874W        W38942  13.801  28.630   2.585
65875W        W38943  15.598  21.151  13.484
65876W        W38944  33.863  44.296  13.893
65877W        W38945   4.384  19.368   3.085
65878W        W38946   4.883  27.165   3.047
65879W        W38947  19.236  15.780  11.648
65880W        W38948  29.674   5.398   0.401
65881W        W38949  10.227  30.476  14.541
65882W        W38950   3.496   5.787  13.124
65883W        W38951   7.771  35.825   3.190
65884W        W38952  35.878  14.846  14.384
65885W        W38953  26.287   2.765   4.500
65886W        W38954   0.531  36.818  14.542
65887W        W38955  40.188  11.733   0.548
65888W        W38956  14.639  12.346   4.664
65889W        W38957  31.413  37.950   0.948
65890W        W38958  32.980   5.454   4.619
65891W        W38959  25.192  17.581  14.834
65892W        W38960  22.822  38.644  14.504
65893W        W38961  22.511  13.454  11.928
65894W        W38962  36.502   8.846  14.866
65895W        W38963   9.194  36.942  14.757
65896W        W38964   1.720  12.160   1.240
65897W        W38965  13.177   5.318  12.039
65898W        W38966  37.935  44.876   2.400
65899W        W38967   5.670  32.881   1.160
65900W        W38968  27.137  23.766  14.471
65901W        W38969  29.058  29.102  12.369
65902W        W38970  11.181  17.058  10.144
65903W        W38971  13.689  32.711  14.374
65904W        W38972  34.040  37.275   0.435
65905W        W38973  33.055   9.316   3.658
65906W        W38974   3.877   3.001   0.377
65907W        W38975  32.954  12.323  13.950
65908W        W38976  42.257  26.664   1.872
65909W        W38977   0.832   4.972   0.826
65910W        W38978   3.293   0.195   3.609
65911W        W38979  24.366  11.788  13.394
65912W        W38980  27.087  41.554   0.325
65913W        W38981  29.413   8.811   5.049
65914W        W38982  21.697  17.821   1.256
65915W        W38983  13.019  26.564   9.960
65916W        W38984  39.963  39.626   4.095
65917W        W38985  25.180  31.844   0.542
65918W        W38986  39.038  14.439   2.495
65919W        W38987  33.377  10.155  13.111
65920W        W38988  21.752  18.053   1.727
65921W        W38989  37.436  18.819  11.140
65922W        W38990  22.594  29.571   2.983
65923W        W38991  19.667   7.490  12.572
65924W        W38992  37.925  33.382   4.059
65925W        W38993  11.304  25.738  11.094
65926W        W38994  30.930  26.603   0.258
65927W        W38995  21.801  37.464  11.630
65928W        W38996  11.592   9.324  12.159
65929W        W38997   2.634  24.603   2.843
65930W        W38998  32.331  36.790  14.767
65931W        W38999   6.355  23.930   4.551
65932W        W39000  28.930  19.222  11.344
65933W        W39001  19.507  19.820   3.679
65934W        W39002  18.669  23.687   1.483
65935W        W39003  42.532  42.398  12.693
65936W        W39004  27.659   9.651   1.396
65937W        W39005   8.878   4.398   1.238
65938W        W39006  19.983  36.496  10.714
65939W        W39007  34.005  37.827  12.504
65940W        W39008  43.005  42.568   4.662
65941W        W39009  21.420  34.571   1.245
65942W        W39010   0.879   4.658  14.297
65943W        W39011  21.664   0.729   2.142
65944W        W39012  42.562  12.685   0.231
65945W        W39013  43.448  28.615   3.885
65946W        W39014   2.387   3.910  14.064
65947W        W39015  33.877  13.714   4.649
65948W        W39016  26.510  38.759   1.791
65949W        W39017   1.318  28.018  11.010
65950W        W39018  37.042  19.127  11.235
65951W        W39019  31.689   5.979   2.831
65952W        W39020  22.605  43.125  10.179
65953W        W39021  20.775  33.581   2.244
65954W        W39022  13.819   7.653  12.665
65955W        W39023  36.540  28.413  10.435
65956W        W39024   1.259  26.660   2.677
65957W        W39025  26.643  36.456   2.795
65958W        W39026  28.506   5.909   4.152
65959W        W39027  43.757  32.859   3.250
65960W        W39028  13.280  20.030   4.483
65961W        W39029  17.077  39.847   0.711
65962W        W39030  40.045  23.961  13.743
65963W        W39031  20.032  41.496  10.342
65964W        W39032   6.314  19.623  12.894
65965W        W39033   7.831   9.254   4.684
65966W        W39034  22.924  10.743   4.776
65967W        W39035  30.576  25.883   0.530
65968W        W39036  37.051  18.017  13.862
65969W        W39037  33.989  29.086   3.382
65970W        W39038  36.766  15.441  14.511
65971W        W39039  16.030  11.664  14.082
65972W        W39040  17.644  18.709   3.557
65973W        W39041  34.582  13.963   1.482
65974W        W39042  37.116  26.440  14.952
65975W        W39043  42.984  27.691   4.761
65976W        W39044  42.818   3.216   4.107
65977W        W39045  33.443  25.321   2.993
65978W        W39046  33.416  41.028  12.396
65979W        W39047   4.364  17.320   1.310
65980W        W39048   2.836   6.885  14.386
65981W        W39049  40.836  44.436  10.530
65982W        W39050  25.636   1.333  11.560
65983W        W39051   9.777  18.287   2.677
65984W        W39052  28.152  28.094  14.912
65985W        W39053  39.913  38.673  12.045
65986W        W39054  36.652  35.400  13.583
65987W        W39055  21.733  17.721  11.306
65988W        W39056  14.658  42.221   3.650
65989W        W39057  10.590   1.241   1.607
65990W        W39058  27.594   1.258   2.837
65991W        W39059  13.238  25.062  11.556
65992W        W39060  25.562  41.242  14.441
65993W        W39061  27.524  18.009  12.999
65994W        W39062  44.676  10.325   2.726
65995W        W39063  41.698  21.714   0.334
65996W        W39064  15.745  33.607   3.192
65997W        W39065   2.854  28.622   1.431
65998W        W39066  12.345  19.178   1.349
65999W        W39067  14.219   1.371  10.558
66000W        W39068  30.043  15.058   2.651
66001W        W39069  10.580   0.905   4.598
66002W        W39070   5.878  21.272   0.679
66003W        W39071  37.381  38.869   5.023
66004W        W39072   6.612  22.029   2.887
66005W        W39073  30.438  13.074   5.004
66006W        W39074  20.773   7.049  13.068
66007W        W39075   9.888   1.850  11.191
66008W        W39076   8.777  39.387   1.963
66009W        W39077   5.790  38.030   1.290
66010W        W39078  11.191  34.583  10.453
66011W        W39079  34.970   7.804   5.056
66012W        W39080  33.333  17.282   1.714
66013W        W39081  11.757  41.876  11.185
66014W        W39082  33.583  31.898   0.442
66015W        W39083   0.873  32.833  12.583
66016W        W39084  23.656  20.114   0.229
66017W        W39085  35.088  26.237   1.272
66018W        W39086  31.515  31.644   2.183
66019W        W39087   3.785  34.607  10.545
66020W        W39088   7.583  39.942  14.933
66021W        W39089  30.642  42.300  11.143
66022W        W39090  40.365  31.910  13.548
66023W        W39091   2.722  14.675   3.130
66024W        W39092  30.501  19.613   1.716
66025W        W39093  38.737  40.869  12.061
66026W        W39094   0.613  38.153   1.221
66027W        W39095   7.615  44.616   2.609
66028W        W39096   6.469  17.627   4.599
66029W        W39097  35.303  34.540  10.520
66030W        W39098  25.530  18.596  11.529
66031W        W39099  14.818  31.806  11.951
66032W        W39100  20.233   2.838  12.574
66033W        W39101   4.440  13.736   1.796
66034W        W39102  30.131   4.702   2.017
66035W        W39103  10.200  12.537  13.897
66036W        W39104   7.442  29.346  12.047
66037W        W39105  32.571  10.978   0.347
66038W        W39106   6.903  15.531  12.068
66039W        W39107  18.859   3.439  11.094
66040W        W39108  20.136  28.073   2.410
66041W        W39109  30.908  13.539   2.387
66042W        W39110  38.969  21.335   2.179
66043W        W39111  16.510  26.463  14.485
66044W        W39112   9.703   7.397  10.914
66045W        W39113  20.499   3.782  10.649
66046W        W39114  20.078   1.873   9.993
66047W        W39115  21.052  32.930   0.318
66048W        W39116  15.564   3.736   0.610
66049W        W39117   4.861  42.781  12.296
66050W        W39118   8.819  35.334  13.025
66051W        W39119  12.308  32.621  14.366
66052W        W39120  32.129  10.255   2.214
66053W        W39121  24.479  39.511   1.394
66054W        W39122  40.483  21.022  12.846
66055W        W39123   2.878  42.625   2.353
66056W        W39124  12.915  13.303  11.582
66057W        W39125   3.995  19.343   2.391
66058W        W39126  40.313   8.417  14.784
66059W        W39127  35.970  15.667   0.741
66060W        W39128  18.248  30.989  14.766
66061W        W39129  25.319   4.747   5.031
66062W        W39130  36.579  23.602  10.656
66063W        W39131  12.834   7.882  11.685
66064W        W39132  17.638  29.461   4.097
66065W        W39133  24.419  35.829  11.514
66066W        W39134  37.042  44.941   2.317
66067W        W39135  33.613  33.968   4.788
66068W        W39136   2.210  36.396   4.295
66069W        W39137   6.534  23.010  14.472
66070W        W39138  19.791  23.499   2.337
66071W        W39139  42.537  13.813  12.042
66072W        W39140  43.765  10.668  12.422
66073W        W39141  44.394   0.505   0.290
66074W        W39142  25.394  33.732   4.113
66075W        W39143  11.172   8.943   1.683
66076W        W39144   3.576  38.054  12.240
66077W        W39145  36.158  22.485  14.866
66078W        W39146  25.233  12.823  11.935
66079W        W39147  44.774   4.823   3.796
66080W        W39148  27.424  43.032   1.914
66081W        W39149   9.250  33.094  11.546
66082W        W39150   2.487  26.220  10.625
66083W        W39151  38.604  14.989   1.467
66084W        W39152  27.381  43.089   4.596
66085W        W39153   9.758  35.927   3.292
66086W        W39154  11.123  43.409  12.553
66087W        W39155  36.591  33.154  11.029
66088W        W39156  36.163   4.763  10.011
66089W        W39157  20.808  33.694  12.889
66090W        W39158  25.908  36.494   4.057
66091W        W39159   8.184   9.162  12.014
66092W        W39160   2.369  19.326   0.929
66093W        W39161  22.987  17.168   4.620
66094W        W39162  26.002  31.348  12.896
66095W        W39163  33.979   3.088  11.079
66096W        W39164  33.892  13.518   0.869
66097W        W39165  12.119  38.615  13.007
66098W        W39166   5.445   2.375   4.817
66099W        W39167   9.593   8.255   4.189
66100W        W39168  17.777  22.393   3.830
66101W        W39169  38.007   4.836   1.816
66102W        W39170  25.502  22.732   4.680
66103W        W39171   5.936  38.012   3.404
66104W        W39172  26.233  19.838  11.590
66105W        W39173  37.539  33.647   3.255
66106W        W39174  38.441  19.242  10.563
66107W        W39175   3.947   9.297   3.176
66108W        W39176  11.659  32.463  11.184
66109W        W39177  26.411  26.874   2.810
66110W        W39178  10.912   7.897   4.219
66111W        W39179  15.032  40.019   2.248
66112W        W39180  13.876   1.349  11.362
66113W        W39181  33.898  42.734   2.449
66114W        W39182  41.968  18.453  10.308
66115W        W39183  32.105  27.680   2.504
66116W        W39184  37.574  17.654  13.398
66117W        W39185  37.858  42.535  13.428
66118W        W39186   3.751  18.820  10.769
66119W        W39187  22.329   6.798   1.653
66120W        W39188   5.879  34.361   0.953
66121W        W39189  15.668  44.987  12.553
66122W        W39190  19.773  15.085   2.430
66123W        W39191  40.834   0.576   0.761
66124W        W39192   3.057  22.065   0.225
66125W        W39193  27.063  19.737   3.344
66126W        W39194  14.097  16.062   1.465
66127W        W39195  19.477  14.251   2.131
66128W        W39196  40.141  12.668   4.885
66129W        W39197   3.518  35.508  14.370
66130W        W39198  19.881  41.405   0.789
66131W        W39199  22.275   2.602  10.995
66132W        W39200  21.290  13.652  11.156
66133W        W39201  29.398  27.179   2.404
66134W        W39202  31.476   2.177   2.177
66135W        W39203   9.121   9.121   4.156
66136W        W39204  21.739  19.270   3.324
66137W        W39205  27.703  36.122   4.167
66138W        W39206  44.068  37.307  13.992
66139W        W39207  13.893  37.573  13.362
66140W        W39208  27.187   9.913  10.333
66141W        W39209  24.108  36.297  12.476
66142W        W39210  42.511  40.328  14.282
66143W        W39211  37.937  19.079   3.405
66144W        W39212  22.600  33.218   1.373
66145W        W39213  30.593   5.424  14.504
66146W        W39214  35.406  30.367  11.667
66147W        W39215   5.762  30.956   4.203
66148W        W39216  22.244   8.274   0.352
66149W        W39217  13.010  12.572  11.339
66150W        W39218   4.391  42.557  14.341
66151W        W39219  26.119  31.925  11.591
66152W        W39220  22.232  42.045   4.110
66153W        W39221  37.907  19.234  10.637
66154W        W39222  23.202  30.146   3.573
66155W        W39223  27.353   4.377   0.787
66156W        W39224  15.892  22.644   2.855
66157W        W39225  14.012   4.959   4.101
66158W        W39226  40.793   9.333  13.049
66159W        W39227  16.704  13.359  14.980
66160W        W39228  12.595  17.734   2.820
66161W        W39229  19.581  31.883   1.857
66162W        W39230   9.646   6.804  11.652
66163W        W39231  10.177  28.511  10.606
66164W        W39232   5.469  34.014  14.770
66165W        W39233   7.255  25.613  13.008
66166W        W39234  28.835   1.526  13.127
66167W        W39235   6.215  19.364   1.461
66168W        W39236   7.250  29.660  10.742
66169W        W39237  36.564  11.877  11.578
66170W        W39238  43.767  33.134  13.034
66171W        W39239  19.068   6.863  12.647
66172W        W39240  26.552  37.370   0.248
66173W        W39241  18.514  20.635   0.972
66174W        W39242  20.238  15.499   3.567
66175W        W39243  42.854  44.213  14.872
66176W        W39244  37.929  21.740  11.180
66177W        W39245  30.666   3.267   2.356
66178W        W39246  38.349  12.703  11.900
66179W        W39247  14.195  18.068   3.186
66180W        W39248  14.825  17.838  13.064
66181W        W39249   0.544  28.267  11.605
66182W        W39250   3.343  17.283  14.815
66183W        W39251  34.055  39.092  10.822
66184W        W39252  20.067  20.314   2.134
66185W        W39253   8.194   0.919  12.657
66186W        W39254  24.960   4.190  10.964
66187W        W39255  21.750  24.161  11.076
66188W        W39256   5.429  30.138   0.855
66189W        W39257  14.839  44.222  13.366
66190W        W39258   9.336   1.891  10.512
66191W        W39259  41.579   3.742  13.085
66192W        W39260  14.734  21.000   3.114
66193W        W39261   3.044  18.823  13.045
66194W        W39262  15.562   8.206   1.015
66195W        W39263  35.616  22.987  12.497
66196W        W39264  26.565  23.972  11.489
66197W        W39265   2.303   0.947   4.729
66198W        W39266  38.262  16.157   3.688
66199W        W39267  32.867  14.274  13.884
66200W        W39268   9.324  36.498   3.814
66201W        W39269  43.422  19.768  12.465
66202W        W39270   3.173  15.918   1.351
66203W        W39271  26.015  10.248  10.518
66204W        W39272  15.043  41.635  11.878
66205W        W39273   6.407   8.738   1.798
66206W        W39274  38.370  29.435  14.030
66207W        W39275  15.199  24.503  10.530
66208W        W39276   4.947  13.098  13.061
66209W        W39277  38.039  29.249   1.763
66210W        W39278  12.638  24.611   2.192
66211W        W39279  23.103  30.478  12.444
66212W        W39280  24.658  42.097  14.314
66213W        W39281  21.961  41.529  13.888
66214W        W39282  12.724  43.643   2.325
66215W        W39283  39.728   3.257  12.977
66216W        W39284  33.134   6.268  11.157
66217W        W39285  36.054  29.638   5.158
66218W        W39286  36.031  20.607  11.989
66219W        W39287  21.445  30.934   2.834
66220W        W39288  39.463   1.448  13.015
66221W        W39289  42.610  14.845   4.014
66222W        W39290   8.312  27.138   1.301
66223W        W39291  16.577   1.821   0.543
66224W        W39292  37.480  33.925   0.641
66225W        W39293   9.657  11.222  10.745
66226W        W39294  18.544   5.287   2.649
66227W        W39295  20.120  22.932   0.063
66228W        W39296   5.908   0.105   2.778
66229W        W39297   8.202  23.139   1.747
66230W        W39298  13.246   6.463  11.560
66231W        W39299  19.812  40.755  10.785
66232W        W39300   0.730  25.598  11.917
66233W        W39301  27.583   8.857  13.630
66234W        W39302  10.447  34.529  10.330
66235W        W39303  17.926   9.695   1.905
66236W        W39304  37.060  13.774   0.986
66237W        W39305  37.767  15.275  14.247
66238W        W39306  22.507  43.082   0.687
66239W        W39307   0.200  30.087   1.873
66240W        W39308   6.724  23.073  12.688
66241W        W39309   1.856  21.158   0.432
66242W        W39310  38.734  37.169  11.066
66243W        W39311  41.128  15.392   4.727
66244W        W39312  24.727  27.712   1.220
66245W        W39313   5.378  38.707  11.177
66246W        W39314   6.848  38.335   2.634
66247W        W39315  40.990  16.453  12.841
66248W        W39316  14.719  20.667  13.530
66249W        W39317  29.119  28.157  14.165
66250W        W39318   0.412  36.615  12.159
66251W        W39319  42.061   3.848   0.844
66252W        W39320  20.324  15.387  11.109
66253W        W39321  33.318  10.703  14.357
66254W        W39322  30.391  37.473   0.384
66255W        W39323   6.521   4.294   0.840
66256W        W39324  16.159  31.202   3.765
66257W        W39325   6.755   2.255  13.477
66258W        W39326  19.579  23.685  14.899
66259W        W39327   4.622  37.859   1.202
66260W        W39328  21.793  23.979   1.705
66261W        W39329  20.213  40.824  13.924
66262W        W39330  40.387  17.028   3.071
66263W        W39331  29.132  28.140   2.354
66264W        W39332  35.482  14.211  10.722
66265W        W39333  21.542   2.637  14.970
66266W        W39334  28.833   0.445   2.896
66267W        W39335   4.725   0.331   0.370
66268W        W39336   7.777  26.049   3.630
66269W        W39337  16.533  26.043   3.595
66270W        W39338  22.677  15.641  13.749
66271W        W39339  13.964  22.335  12.524
66272W        W39340  15.727  28.430  11.081
66273W        W39341  43.222  25.540   4.215
66274W        W39342   2.272  33.999  13.125
66275W        W39343  26.284  12.953   2.241
66276W        W39344  29.659  33.964  11.049
66277W        W39345   5.847  17.474  13.070
66278W        W39346  19.161  22.691   2.349
66279W        W39347  17.663  14.563  13.914
66280W        W39348   3.863  19.116   1.638
66281W        W39349  10.018  16.614   4.615
66282W        W39350   6.671  40.463  13.404
66283W        W39351   8.319  34.584  12.689
66284W        W39352  33.138  43.581  13.821
66285W        W39353   4.818  22.469   1.387
66286W        W39354  17.042  33.960   1.189
66287W        W39355  43.159  31.080   4.138
66288W        W39356   3.451  19.937   1.413
66289W        W39357  10.795   8.677  11.909
66290W        W39358  15.861  44.436   4.024
66291W        W39359  29.150   1.788   2.561
66292W        W39360  31.018  30.024   0.497
66293W        W39361  28.679  22.109   4.674
66294W        W39362   6.888  18.544  14.906
66295W        W39363  11.761   3.120  10.334
66296W        W39364   0.001  30.076   2.744
66297W        W39365  41.838  27.672   2.356
66298W        W39366  29.975   9.330   3.694
66299W        W39367  10.152  14.637  13.400
66300W        W39368  40.020  20.656   4.354
66301W        W39369   7.717  11.564   9.576
66302W        W39370  39.029  38.331   4.625
66303W        W39371  16.825  22.479  11.745
66304W        W39372  20.446  28.800  13.423
66305W        W39373  25.684  40.090   2.276
66306W        W39374  21.340  23.044  13.447
66307W        W39375  34.840  37.993   1.884
66308W        W39376  18.564  21.220   4.580
66309W        W39377   0.558  44.399  12.852
66310W        W39378  33.181  28.275   0.852
66311W        W39379  11.985  15.975  11.487
66312W        W39380  22.206   1.636   4.101
66313W        W39381  23.298  21.362   0.618
66314W        W39382  34.002  33.591  12.296
66315W        W39383  41.598  14.939  13.555
66316W        W39384  22.565  19.487  11.762
66317W        W39385   2.973  14.829  11.880
66318W        W39386  36.156   0.734   0.480
66319W        W39387  23.190  38.474   0.712
66320W        W39388  40.802  17.494  13.796
66321W        W39389  26.548  13.223   0.172
66322W        W39390  24.574  20.273   2.228
66323W        W39391  38.790  11.291   0.913
66324W        W39392  12.851  28.630   2.268
66325W        W39393  35.005  42.039   0.299
66326W        W39394   0.646   8.496  14.502
66327W        W39395  35.115  33.054   0.530
66328W        W39396  44.607  31.765   0.554
66329W        W39397   8.595  39.953  13.866
66330W        W39398  25.552  15.859  11.964
66331W        W39399  38.967  39.138   4.172
66332W        W39400  34.531  42.259   1.436
66333W        W39401  27.607  27.453  10.978
66334W        W39402  27.549  26.006   2.856
66335W        W39403  43.903  15.896   0.968
66336W        W39404  11.206  12.822  10.678
66337W        W39405  32.737  15.117   4.937
66338W        W39406  14.610  33.493  10.758
66339W        W39407  37.059  20.297  14.202
66340W        W39408  10.481   3.192  13.335
66341W        W39409  38.098  23.719   2.986
66342W        W39410   7.159  42.767   4.634
66343W        W39411  15.487  20.534   2.978
66344W        W39412  11.269  18.299   2.614
66345W        W39413   7.442   8.437  10.644
66346W        W39414   0.264  21.681   3.744
66347W        W39415  44.135  19.831  12.368
66348W        W39416  33.578  21.462   3.683
66349W        W39417  43.831   9.523   1.139
66350W        W39418  39.059  20.810   2.235
66351W        W39419  12.317  42.008   1.325
66352W        W39420  31.414   7.117  13.926
66353W        W39421  23.210  39.515   4.285
66354W        W39422  23.310  42.443  14.433
66355W        W39423  37.177  18.588   3.654
66356W        W39424  39.520  15.557   1.053
66357W        W39425  10.133   6.694   2.885
66358W        W39426  22.619   3.428   2.841
66359W        W39427   1.717  11.962  12.484
66360W        W39428  34.951  25.874  13.379
66361W        W39429  15.434  18.876  13.835
66362W        W39430   0.961  12.838  11.336
66363W        W39431   4.963   0.252  12.863
66364W        W39432   6.676  36.759  12.485
66365W        W39433  32.510  13.880   1.509
66366W        W39434  33.545   3.554  13.803
66367W        W39435  26.699   4.798   4.996
66368W        W39436  23.585  38.842  14.856
66369W        W39437  16.545  29.610   2.765
66370W        W39438   3.915  29.708  12.498
66371W        W39439  18.785  39.728   2.757
66372W        W39440  19.752   1.470   0.343
66373W        W39441   2.730  32.073   3.604
66374W        W39442  10.316  12.499  12.685
66375W        W39443  29.468  35.933   2.808
66376W        W39444  14.783  21.622  14.264
66377W        W39445  28.603   2.188  12.473
66378W        W39446  38.384  22.017  11.149
66379W        W39447  23.647  33.590   3.788
66380W        W39448  18.610  36.976  10.488
66381W        W39449   6.724   2.232  12.283
66382W        W39450  12.422   9.158  13.365
66383W        W39451  13.512  15.802   0.230
66384W        W39452  10.190  20.814  13.062
66385W        W39453   3.569   7.683   0.322
66386W        W39454  17.838  16.690  13.478
66387W        W39455  14.081  41.767  12.008
66388W        W39456  34.920  39.590   4.214
66389W        W39457   0.262   1.701   0.976
66390W        W39458  18.389  43.429  14.767
66391W        W39459  35.349  26.109   3.109
66392W        W39460  39.575  33.269  12.651
66393W        W39461  18.777   3.431   4.631
66394W        W39462  30.856  27.910   1.702
66395W        W39463   0.227  25.148   1.400
66396W        W39464  12.231  22.653   1.850
66397W        W39465  15.962  36.251  10.993
66398W        W39466  44.198   5.811  10.222
66399W        W39467   1.927  10.837  12.600
66400W        W39468  17.631  39.113   3.808
66401W        W39469  42.939  15.802   3.092
66402W        W39470  40.863  38.322  13.855
66403W        W39471  13.093  18.277   0.261
66404W        W39472   0.863  19.287   1.280
66405W        W39473  25.874  24.539  12.103
66406W        W39474  33.052   1.317   4.404
66407W        W39475   5.848  13.148   1.346
66408W        W39476   4.960  15.485  13.455
66409W        W39477  34.750   9.722   1.024
66410W        W39478   4.935   4.694  11.474
66411W        W39479  25.977   5.171  10.667
66412W        W39480  23.527  32.468  12.583
66413W        W39481  21.481  19.262  13.934
66414W        W39482  22.127  33.962   3.224
66415W        W39483  29.599  37.491  14.826
66416W        W39484   0.088  19.773  14.638
66417W        W39485  11.546  15.744  11.651
66418W        W39486  38.076   3.184   4.320
66419W        W39487   8.303  10.735   4.486
66420W        W39488  33.160  30.804   2.982
66421W        W39489  34.065   0.976   3.435
66422W        W39490   6.408   1.258  10.669
66423W        W39491  31.440   6.282  12.591
66424W        W39492  44.361  30.337  10.747
66425W        W39493   5.283  35.768  14.937
66426W        W39494   0.836  32.857   4.395
66427W        W39495  33.093  17.548   4.636
66428W        W39496  24.545   8.877   2.727
66429W        W39497  33.529  26.115   4.954
66430W        W39498  43.961  34.907  13.003
66431W        W39499  14.209  12.113  14.723
66432W        W39500  14.840  41.858  14.549
66433W        W39501  15.830  25.591  12.000
66434W        W39502   2.799  27.675   1.722
66435W        W39503  15.013  42.301  14.742
66436W        W39504   1.482  15.636   2.225
66437W        W39505  16.021  41.982  13.354
66438W        W39506  19.270   7.198  13.746
66439W        W39507  42.090  18.719  12.471
66440W        W39508  23.650  25.154  12.598
66441W        W39509  24.226   5.440   3.350
66442W        W39510   3.199  33.449   1.719
66443W        W39511  27.973  34.817  11.853
66444W        W39512  17.251   1.717   2.320
66445W        W39513  41.618  36.810   4.414
66446W        W39514  39.578  40.365  11.993
66447W        W39515  40.549   1.442  11.094
66448W        W39516  27.313   1.900  11.615
66449W        W39517   8.218  25.521  13.925
66450W        W39518  31.127   2.541  13.641
66451W        W39519  34.970  30.135   3.282
66452W        W39520  35.516   8.382  11.534
66453W        W39521   8.671  20.048   4.043
66454W        W39522  30.564   0.972   3.658
66455W        W39523  19.045  37.414   3.104
66456W        W39524   5.759  38.787   0.870
66457W        W39525   2.902  23.994   3.405
66458W        W39526  25.873  42.456   2.313
66459W        W39527  12.076  20.627   0.764
66460W        W39528  33.778  39.006  11.734
66461W        W39529  41.006  23.044   1.914
66462W        W39530  43.891  20.591   1.691
66463W        W39531   3.356  33.519   3.301
66464W        W39532   3.148  13.907   1.917
66465W        W39533  41.473  21.123   3.307
66466W        W39534  43.842   8.895  14.901
66467W        W39535  16.237   4.750  10.643
66468W        W39536  20.476   1.918  14.840
66469W        W39537  35.378  40.582   2.901
66470W        W39538  35.445   8.102   2.097
66471W        W39539  10.384   2.995   3.393
66472W        W39540  29.467   4.872   1.265
66473W        W39541  19.250   0.001  11.357
66474W        W39542  23.799  44.845  14.400
66475W        W39543  32.982  12.092   1.776
66476W        W39544  32.060   8.705  13.326
66477W        W39545  33.534   9.785   4.182
66478W        W39546  41.616  16.416   5.472
66479W        W39547  31.015   4.468  14.277
66480W        W39548  35.157  37.411  13.352
66481W        W39549   5.127   0.719  11.623
66482W        W39550   1.047   7.088  11.168
66483W        W39551  30.522  28.062   0.764
66484W        W39552  11.178  25.386   2.250
66485W        W39553  33.397   9.420   4.605
66486W        W39554  11.846   0.272   1.533
66487W        W39555  31.592  38.142  13.523
66488W        W39556   2.562  10.753  14.925
66489W        W39557  23.665  27.926  14.010
66490W        W39558   5.345   9.559  14.870
66491W        W39559   6.191  41.569  10.697
66492W        W39560   1.107   6.484   2.650
66493W        W39561   1.172  23.016  14.389
66494W        W39562   7.821  44.260  10.678
66495W        W39563  41.001  32.297   0.206
66496W        W39564  34.076  27.572   2.140
66497W        W39565  37.997   5.909  14.068
66498W        W39566  12.316   4.287  14.801
66499W        W39567  35.500   3.637   1.817
66500W        W39568  19.035  11.639   1.975
66501W        W39569  41.824  20.980  13.363
66502W        W39570   6.324  16.995  10.613
66503W        W39571  24.524  41.929  14.897
66504W        W39572  19.235  38.062   0.777
66505W        W39573  20.879  22.539   1.279
66506W        W39574   0.584  26.864  10.636
66507W        W39575  20.670  27.961  11.884
66508W        W39576  19.835  15.616   0.919
66509W        W39577  18.025  23.360   1.731
66510W        W39578  25.978  29.610   4.588
66511W        W39579  20.185  14.064  10.799
66512W        W39580  42.560  33.072  13.855
66513W        W39581  27.973  30.457  12.435
66514W        W39582  10.163  33.412   0.342
66515W        W39583   9.854  24.532  11.282
66516W        W39584  34.905  28.227  12.470
66517W        W39585  22.538  43.514   0.978
66518W        W39586  18.086  11.693   1.924
66519W        W39587   2.704  14.596   1.353
66520W        W39588  44.326   0.423  14.435
66521W        W39589  29.412   9.058  11.718
66522W        W39590   9.202  28.557   2.800
66523W        W39591  35.921   9.721   4.480
66524W        W39592  41.425  18.492  11.930
66525W        W39593  21.707  19.815   4.242
66526W        W39594   8.318  37.726   3.382
66527W        W39595  25.120  27.885  12.586
66528W        W39596  20.615   6.686  11.691
66529W        W39597   8.471   8.984  12.428
66530W        W39598  15.698  11.618   1.943
66531W        W39599   9.635  31.538   3.376
66532W        W39600  44.418  31.268   0.440
66533W        W39601  14.857   9.855   2.769
66534W        W39602  11.601  26.210   2.212
66535W        W39603  36.522  24.664  10.628
66536W        W39604  16.097  34.589   4.102
66537W        W39605   2.853  22.715  12.840
66538W        W39606   1.353   7.463   1.869
66539W        W39607  35.580  21.229   0.526
66540W        W39608   4.983  33.878   0.811
66541W        W39609   1.539  29.359  12.546
66542W        W39610  40.957  13.568   1.296
66543W        W39611   6.796  26.072  10.522
66544W        W39612  21.514  26.017   1.399
66545W        W39613  28.317  15.243  11.063
66546W        W39614  35.712  16.476   0.994
66547W        W39615  25.115  16.851   1.288
66548W        W39616  37.564  25.691  11.206
66549W        W39617  13.213  31.210   4.753
66550W        W39618  17.512   9.562  12.374
66551W        W39619  26.267  25.681  13.391
66552W        W39620   6.852  37.165   3.997
66553W        W39621   4.341  11.464  11.613
66554W        W39622  27.163  10.469  14.864
66555W        W39623  36.087  44.642  10.556
66556W        W39624   8.816   0.690  13.301
66557W        W39625  26.576  14.013  11.591
66558W        W39626  29.145   9.292  12.108
66559W        W39627   2.958  33.846   4.349
66560W        W39628  10.809   4.254  11.093
66561W        W39629  37.914  23.837   1.951
66562W        W39630  24.687  38.036   2.732
66563W        W39631  29.692  39.419  14.168
66564W        W39632  27.686   6.499   3.476
66565W        W39633  19.314  42.868  11.115
66566W        W39634  34.599  40.866   0.792
66567W        W39635   4.834  24.990   2.759
66568W        W39636  30.662   8.614   3.743
66569W        W39637  22.977  32.041  12.051
66570W        W39638  26.519   5.878  12.411
66571W        W39639   6.237  13.413  12.537
66572W        W39640  28.633  41.401   4.569
66573W        W39641  14.658   4.547   3.396
66574W        W39642  41.425  36.615   0.861
66575W        W39643  29.168  18.289  12.459
66576W        W39644  34.616   6.474   2.170
66577W        W39645  36.358  22.522  13.182
66578W        W39646  19.952  10.190   4.726
66579W        W39647   0.405  22.139   2.192
66580W        W39648  34.675  11.800   3.991
66581W        W39649  28.132   6.749  13.207
66582W        W39650  35.993  33.562   0.431
66583W        W39651  27.779   1.999   5.126
66584W        W39652  13.113  28.109  11.019
66585W        W39653  28.694  30.069  14.270
66586W        W39654  36.022   7.671   2.678
66587W        W39655  19.672   5.016   1.940
66588W        W39656  14.345  19.154  13.076
66589W        W39657   9.450   7.644  13.969
66590W        W39658   3.260  18.622   4.656
66591W        W39659   4.189   9.817  11.013
66592W        W39660  38.459  44.614   4.928
66593W        W39661   2.002  36.443   2.891
66594W        W39662  40.888  24.885   1.976
66595W        W39663  24.504   7.727  11.413
66596W        W39664  12.655  13.388   1.545
66597W        W39665  40.304  21.226  13.270
66598W        W39666  29.481  26.960  13.590
66599W        W39667  36.411  40.896  11.718
66600W        W39668  43.810  12.454  10.622
66601W        W39669  39.440  16.113   1.830
66602W        W39670   9.297  30.157   1.044
66603W        W39671  26.072   7.491   0.795
66604W        W39672  17.511   8.587   0.760
66605W        W39673   9.894  36.499  14.906
66606W        W39674  14.504  42.442  10.374
66607W        W39675  15.642   2.750   0.263
66608W        W39676  10.885  14.558   3.721
66609W        W39677  39.179  37.336  12.723
66610W        W39678  43.240   5.347   1.939
66611W        W39679  43.185  43.941  11.781
66612W        W39680   1.866   7.082  14.413
66613W        W39681  18.771  22.050   0.285
66614W        W39682  34.410  15.694  11.174
66615W        W39683   7.779  26.911  11.689
66616W        W39684  30.172  35.966  14.849
66617W        W39685  40.064  17.721  10.838
66618W        W39686  33.474  40.428  13.904
66619W        W39687  34.616  21.547   0.280
66620W        W39688  42.091  25.218   4.345
66621W        W39689  31.903  17.222   1.862
66622W        W39690   5.443  34.733  14.896
66623W        W39691  31.034  16.818   4.803
66624W        W39692  32.946  41.795   2.647
66625W        W39693   2.708  15.231   1.934
66626W        W39694   5.831   4.190  12.558
66627W        W39695   1.918   1.943   3.899
66628W        W39696  42.891  22.461   0.269
66629W        W39697  16.837  39.161   4.458
66630W        W39698   0.289  21.672   2.775
66631W        W39699  39.563  40.947  10.784
66632W        W39700  20.022  13.617  11.687
66633W        W39701  19.951  31.501  14.885
66634W        W39702  19.778   0.208   4.714
66635W        W39703  34.544   6.797  11.082
66636W        W39704  31.892  21.529   0.962
66637W        W39705  22.983   1.950   2.300
66638W        W39706  32.856  44.959   1.963
66639W        W39707  26.520  16.039  14.320
66640W        W39708  31.204  18.797   2.024
66641W        W39709  42.431  41.759  12.039
66642W        W39710  20.041   5.172  10.633
66643W        W39711  44.895  20.209  13.920
66644W        W39712  16.535   1.816  10.681
66645W        W39713  14.881  44.363   3.940
66646W        W39714   5.179  33.481  10.320
66647W        W39715  26.669   3.491  13.928
66648W        W39716  23.808   5.743  13.293
66649W        W39717   8.426  39.369  13.042
66650W        W39718   5.907  36.999   2.133
66651W        W39719  22.542   3.370  11.656
66652W        W39720  36.602  16.785   1.991
66653W        W39721  39.602  43.850  14.342
66654W        W39722  12.635  36.843   2.473
66655W        W39723  38.535  25.809  11.697
66656W        W39724  38.329   9.596  13.880
66657W        W39725  40.001  25.355   3.690
66658W        W39726  13.249   4.776   2.350
66659W        W39727  13.353   0.852  13.881
66660W        W39728  36.972  36.226   0.005
66661W        W39729  22.308   8.731   4.181
66662W        W39730  36.086  20.092  12.054
66663W        W39731  18.296   3.450   1.805
66664W        W39732   3.368  36.776   4.062
66665W        W39733  31.930  44.049   4.626
66666W        W39734  37.382  25.158  14.856
66667W        W39735   5.845  39.770   4.450
66668W        W39736  27.463  41.398   4.341
66669W        W39737   1.239   9.656   4.789
66670W        W39738   1.440  26.890   3.683
66671W        W39739  22.115   2.693  10.520
66672W        W39740  24.678  32.546  14.911
66673W        W39741  43.888  34.349   2.649
66674W        W39742  10.754  11.081   0.276
66675W        W39743  19.659  40.770  14.023
66676W        W39744   0.238  14.240  12.939
66677W        W39745  13.701   4.944   3.156
66678W        W39746  32.643   9.219  11.621
66679W        W39747  30.895  37.137  14.868
66680W        W39748  39.056  23.774   1.311
66681W        W39749  27.785  28.772   0.310
66682W        W39750  24.258  33.564  13.053
66683W        W39751   5.126  26.889   1.718
66684W        W39752   4.917  30.849   0.486
66685W        W39753  38.226  16.623   4.488
66686W        W39754   2.208  27.889   0.889
66687W        W39755  13.609   3.846  14.849
66688W        W39756  28.952  16.253  14.772
66689W        W39757  36.851  43.882   2.917
66690W        W39758  27.206  35.324   3.769
66691W        W39759  20.204  34.974   2.444
66692W        W39760   5.850  38.709  14.912
66693W        W39761  44.418  14.170  11.658
66694W        W39762  42.592  27.291  14.770
66695W        W39763  33.905  38.614  13.148
66696W        W39764  24.939   1.667   2.745
66697W        W39765   0.314  19.148   3.744
66698W        W39766  24.798  23.956  13.383
66699W        W39767  33.526  12.752  14.998
66700W        W39768  19.755   4.903   9.860
66701W        W39769  13.188  19.552  14.406
66702W        W39770  30.092  31.908  12.501
66703W        W39771  35.629  43.499  11.368
66704W        W39772  33.396  42.526   1.260
66705W        W39773  23.975  23.468   1.878
66706W        W39774  13.785  16.147   2.239
66707W        W39775  23.717   9.622  11.148
66708W        W39776  33.407  40.728  13.415
66709W        W39777   4.904  18.561  13.371
66710W        W39778   1.365  15.429  13.705
66711W        W39779  26.428  13.478   2.317
66712W        W39780  44.381  14.618  11.411
66713W        W39781  36.022  44.982   4.713
66714W        W39782  28.527  39.854   3.365
66715W        W39783  22.450  23.773   1.832
66716W        W39784   1.912  18.067   2.161
66717W        W39785  41.333  19.159  13.422
66718W        W39786   0.483   6.407  14.420
66719W        W39787   4.966  36.245  11.596
66720W        W39788  12.067  19.488   3.542
66721W        W39789   8.353   7.309  10.474
66722W        W39790  23.638  15.802   4.781
66723W        W39791   0.179  36.015  10.989
66724W        W39792  16.582   4.192  13.186
66725W        W39793  42.442  11.853  11.173
66726W        W39794   5.776   9.259  14.960
66727W        W39795  18.599  33.374   4.489
66728W        W39796  30.567   4.547  14.023
66729W        W39797  25.991   2.290   3.268
66730W        W39798  11.185  29.930   3.414
66731W        W39799  40.973  14.867  14.791
66732W        W39800   5.241  23.026   1.975
66733W        W39801  39.185  29.624   3.267
66734W        W39802  28.253  21.447  14.929
66735W        W39803  35.469  19.250   3.870
66736W        W39804  14.625  30.616  14.025
66737W        W39805  18.240  14.558   1.267
66738W        W39806  18.458   7.968  11.465
66739W        W39807  15.199  28.359  10.465
66740W        W39808  16.221  43.964   1.417
66741W        W39809  15.077  33.396  10.480
66742W        W39810   1.842  35.501  11.911
66743W        W39811  33.552  41.496   2.127
66744W        W39812  12.211  25.490   3.599
66745W        W39813  12.330  31.075   3.365
66746W        W39814  17.128  36.302   1.911
66747W        W39815  26.246  34.111   0.406
66748W        W39816  20.189  19.955   3.078
66749W        W39817   6.801  24.840   3.820
66750W        W39818   8.646  18.082   0.087
66751W        W39819  11.294  38.734   2.480
66752W        W39820  17.086  16.673  13.888
66753W        W39821  39.349  31.551   4.923
66754W        W39822   3.632  41.969  11.727
66755W        W39823  15.194  37.949  12.780
66756W        W39824   8.245  35.489   1.247
66757W        W39825  43.097  29.013   1.387
66758W        W39826   7.330  22.711  10.504
66759W        W39827  43.056  42.081   3.734
66760W        W39828   1.692  31.870  11.027
66761W        W39829   7.734   6.040  10.646
66762W        W39830  31.000  36.503   3.920
66763W        W39831   3.820  41.893  12.210
66764W        W39832  28.520  23.061   2.950
66765W        W39833   8.801   1.810  13.810
66766W        W39834  12.473   5.103   0.808
66767W        W39835  18.621   0.872  11.189
66768W        W39836  17.775   2.413   2.500
66769W        W39837  40.870  42.584   2.398
66770W        W39838   6.130  16.568  12.934
66771W        W39839   8.417   5.160   4.506
66772W        W39840   1.760  40.600   4.227
66773W        W39841  34.487  36.846   2.084
66774W        W39842  28.905  37.390   2.730
66775W        W39843  19.542  28.473  11.692
66776W        W39844  40.440  19.313  10.778
66777W        W39845  19.036  21.300  14.402
66778W        W39846  34.478  12.814   0.729
66779W        W39847  18.839  26.055   3.252
66780W        W39848   3.744   4.426   4.134
66781W        W39849  34.937  20.948   1.819
66782W        W39850  32.462  32.234  11.514
66783W        W39851  28.576  38.446   3.521
66784W        W39852  35.514   8.814  14.746
66785W        W39853  14.914  19.697  11.119
66786W        W39854  33.130  36.268   1.549
66787W        W39855  20.672  30.098   1.923
66788W        W39856  25.597   2.846  10.611
66789W        W39857  12.699   0.214   1.166
66790W        W39858   1.955  20.155  12.613
66791W        W39859  30.345  38.740   0.904
66792W        W39860   1.463  41.406   4.462
66793W        W39861  38.605  19.321  12.865
66794W        W39862  37.134  35.474  13.480
66795W        W39863  22.683  30.902   2.393
66796W        W39864  16.803  10.401  14.967
66797W        W39865  41.077  16.286   4.523
66798W        W39866  13.356  16.777   2.769
66799W        W39867   6.844  39.300   0.339
66800W        W39868   4.261  35.044   2.317
66801W        W39869  23.161  40.698  11.890
66802W        W39870   2.869  15.335   0.384
66803W        W39871   1.899   2.007   0.286
66804W        W39872   3.945   9.730  12.515
66805W        W39873  11.681  31.869  10.613
66806W        W39874  40.118  42.011   3.676
66807W        W39875  43.640  24.782   2.849
66808W        W39876  35.450  33.439  14.814
66809W        W39877   3.544  36.010   2.453
66810W        W39878  36.908  16.184   0.821
66811W        W39879  29.430   3.443  12.960
66812W        W39880  13.334   2.833  12.983
66813W        W39881   1.406  40.260  10.986
66814W        W39882  26.677  34.111  10.257
66815W        W39883  23.500  23.708  11.243
66816W        W39884  44.188  35.506  11.583
66817W        W39885  20.500  33.605  13.332
66818W        W39886   7.393  42.129  10.282
66819W        W39887   5.796  27.241   4.606
66820W        W39888  23.817  31.457  14.549
66821W        W39889  13.635  14.195   4.147
66822W        W39890  14.728  37.844   2.044
66823W        W39891   5.432  13.288   4.116
66824W        W39892  14.114  33.544  12.911
66825W        W39893  23.513   0.995  13.832
66826W        W39894  38.350  31.137  12.216
66827W        W39895  12.252  14.566   1.917
66828W        W39896  42.262  29.544  14.893
66829W        W39897  13.902   5.669  12.460
66830W        W39898  40.184   7.416  12.819
66831W        W39899  39.651  27.102  11.560
66832W        W39900  38.035  21.212  14.546
66833W        W39901  21.885  39.859   4.235
66834W        W39902  18.521  18.315  12.551
66835W        W39903  35.121  38.499  10.397
66836W        W39904  26.119  38.375   2.717
66837W        W39905  38.057  20.018   3.811
66838W        W39906   5.936  10.846   2.198
66839W        W39907  35.649   5.108  12.360
66840W        W39908  25.015  24.821  11.920
66841W        W39909  16.348  27.785   1.402
66842W        W39910  31.137  44.327  14.355
66843W        W39911  41.872  12.941  13.838
66844W        W39912  30.895   4.890   0.451
66845W        W39913  25.213  32.610   4.414
66846W        W39914  26.940   9.871   1.792
66847W        W39915  44.236   7.214   0.713
66848W        W39916  39.037  33.418  13.378
66849W        W39917  18.035  34.845   2.715
66850W        W39918  24.062  20.072  11.939
66851W        W39919  30.389  10.754   4.182
66852W        W39920  11.688  17.818   0.296
66853W        W39921   2.341  32.142  14.023
66854W        W39922  41.960   1.288   2.794
66855W        W39923  15.886  19.591   0.930
66856W        W39924  20.323  10.377   0.757
66857W        W39925  28.926  26.488   3.245
66858W        W39926   6.444  36.158   0.819
66859W        W39927   8.905   5.895  13.883
66860W        W39928  14.877  23.041  13.834
66861W        W39929  22.769  37.304   3.734
66862W        W39930  18.921   2.676  13.381
66863W        W39931  38.491  36.868  12.426
66864W        W39932  11.962  23.069  12.460
66865W        W39933  35.160  27.150  14.478
66866W        W39934   2.042  17.760   1.692
66867W        W39935  14.367  11.512   1.873
66868W        W39936  28.243   1.420  13.970
66869W        W39937  28.089  35.497   1.871
66870W        W39938  33.694  17.248  11.675
66871W        W39939  29.364   8.214   4.879
66872W        W39940   8.166   9.142  14.859
66873W        W39941  26.671  34.035   4.017
66874W        W39942   6.301  36.790  13.372
66875W        W39943  16.088  43.339  11.431
66876W        W39944  10.619  30.591  11.556
66877W        W39945  39.946  41.262   3.367
66878W        W39946   1.186  37.039   1.397
66879W        W39947   2.771  30.211   1.785
66880W        W39948   2.385  36.494   1.888
66881W        W39949   2.356   2.262   0.961
66882W        W39950  23.979  12.759   2.775
66883W        W39951  22.716  33.225   2.739
66884W        W39952   0.824  31.148  14.582
66885W        W39953  22.258  11.914   4.159
66886W        W39954  16.753  17.276  14.326
66887W        W39955  44.522  21.577   0.344
66888W        W39956  40.964  15.554   3.536
66889W        W39957  12.610  22.219   3.334
66890W        W39958  44.621   1.289   4.718
66891W        W39959  12.149   5.672  14.822
66892W        W39960  12.130  16.611   4.617
66893W        W39961   5.429  12.219  12.284
66894W        W39962  30.105  33.882  13.337
66895W        W39963  14.298  31.671  11.098
66896W        W39964  18.312  18.270   0.024
66897W        W39965  39.632   1.748   5.452
66898W        W39966  16.259  44.367   3.707
66899W        W39967  12.208   5.403   3.458
66900W        W39968  14.860  41.278   0.345
66901W        W39969  35.606  12.088   4.384
66902W        W39970  37.760  15.283   4.311
66903W        W39971  23.068  14.765   3.991
66904W        W39972  29.556   8.155   0.580
66905W        W39973  20.942  34.433   2.892
66906W        W39974   6.652  39.015   1.162
66907W        W39975  23.709  12.331  14.617
66908W        W39976   3.098  31.135   1.439
66909W        W39977  14.409  18.264   4.758
66910W        W39978   9.195  36.977  11.121
66911W        W39979  12.606  20.012   3.273
66912W        W39980  34.928  39.359   4.667
66913W        W39981  33.934  38.060  11.980
66914W        W39982   1.768  37.083  13.619
66915W        W39983  42.132   2.254  14.559
66916W        W39984  30.240  23.961  14.948
66917W        W39985   4.697  14.896  12.394
66918W        W39986  35.607   9.375   4.760
66919W        W39987   7.345   0.457  12.373
66920W        W39988  35.824  42.993   4.541
66921W        W39989  35.452   1.296  13.095
66922W        W39990  34.966  27.431  14.903
66923W        W39991  35.121  20.140  11.148
66924W        W39992  37.005  13.155  11.552
66925W        W39993   2.369  39.815   1.043
66926W        W39994  16.615  15.623   5.005
66927W        W39995  13.088  31.415   1.387
66928W        W39996  22.715  12.181  14.494
66929W        W39997  25.258  14.777  11.456
66930W        W39998  15.227  21.605  14.002
66931W        W39999  23.998  43.029  12.696
66932W        W40000  13.202  19.603   4.213
66933W        W40001  44.526  21.579  11.474
66934W        W40002  14.329  21.670   3.108
66935W        W40003  19.068  41.868   0.554
66936W        W40004  10.674  18.662   0.270
66937W        W40005   0.675  15.376  13.494
66938W        W40006  34.008  21.426   4.691
66939W        W40007   2.977   3.327  11.988
66940W        W40008  38.893  27.570  11.161
66941W        W40009  19.824   3.963  14.436
66942W        W40010   0.035  16.155  14.673
66943W        W40011  10.364  24.092  14.918
66944W        W40012  12.173   7.332   4.076
66945W        W40013  10.830  39.056   1.332
66946W        W40014  18.854  22.207  12.480
66947W        W40015  39.950  17.133  11.519
66948W        W40016  38.522  26.717   4.814
66949W        W40017   2.302  38.880  10.737
66950W        W40018   8.939   2.783   2.208
66951W        W40019  38.287  40.416   2.292
66952W        W40020  12.062  18.235   2.192
66953W        W40021  11.829  23.475  11.201
66954W        W40022   8.833  30.236   2.340
66955W        W40023  44.483  33.352   2.403
66956W        W40024  40.057  44.958   1.181
66957W        W40025  20.651  33.982  13.782
66958W        W40026  29.849  18.294  12.028
66959W        W40027  30.160   9.762  11.061
66960W        W40028  33.347  16.787   3.166
66961W        W40029  39.036   3.284   4.197
66962W        W40030   1.853  35.070   0.967
66963W        W40031  24.489   5.652  11.228
66964W        W40032  24.058  10.117   4.494
66965W        W40033  42.883   7.748   1.387
66966W        W40034  32.080  38.050  11.612
66967W        W40035  17.546   8.224  10.680
66968W        W40036  11.100   0.843  13.037
66969W        W40037   8.831  36.997  10.315
66970W        W40038  33.353  40.048  12.771
66971W        W40039  30.128   6.713   4.431
66972W        W40040  20.079  31.472   4.516
66973W        W40041  24.198  23.115   4.183
66974W        W40042  33.495  11.704   2.418
66975W        W40043  22.303  39.557  12.544
66976W        W40044  27.855  35.424  14.971
66977W        W40045   8.831  16.533   0.891
66978W        W40046   4.030  27.957   3.706
66979W        W40047  31.638  35.708  12.212
66980W        W40048   7.290   4.156  11.073
66981W        W40049  17.201  13.664   2.638
66982W        W40050  19.283  42.066  11.424
66983W        W40051  14.586  35.515   1.155
66984W        W40052  35.901  17.760  12.466
66985W        W40053   0.318  12.260   2.664
66986W        W40054  37.020  37.918  14.780
66987W        W40055  20.727  10.733   2.913
66988W        W40056  36.107   2.763  12.032
66989W        W40057   3.016  32.974   1.882
66990W        W40058   8.229  10.697   0.701
66991W        W40059  14.507  25.129  14.346
66992W        W40060   1.718  19.197  13.045
66993W        W40061   1.033  38.906   3.543
66994W        W40062  20.286   0.765   2.166
66995W        W40063  19.092  26.451   1.202
66996W        W40064  44.134  33.625  12.956
66997W        W40065   4.343  16.124   3.220
66998W        W40066  11.898  10.850  14.354
66999W        W40067  36.650  20.234  11.684
67000W        W40068   3.339  29.699  10.426
67001W        W40069  38.545  14.588   1.790
67002W        W40070  11.742  17.473  14.902
67003W        W40071  17.390  13.657  10.315
67004W        W40072   4.196  20.513  13.957
67005W        W40073   5.103  22.086   4.069
67006W        W40074  26.415  17.142  13.399
67007W        W40075  26.209  39.280  11.918
67008W        W40076  29.119  17.997  14.372
67009W        W40077  41.282  24.802  13.045
67010W        W40078  22.295   0.427   0.026
67011W        W40079  19.302  44.436  12.578
67012W        W40080   7.306  18.760   0.791
67013W        W40081  19.523  24.086  10.533
67014W        W40082  14.022   3.866   2.888
67015W        W40083  23.831   3.410   2.096
67016W        W40084  42.576  10.287   4.561
67017W        W40085  43.186  37.263   4.110
67018W        W40086  16.866  41.391   2.905
67019W        W40087  43.951  38.039   0.966
67020W        W40088  39.137  32.178  14.149
67021W        W40089  15.646  31.948   1.087
67022W        W40090  22.200   4.860   2.400
67023W        W40091   4.456  27.427   4.622
67024W        W40092  24.151  24.602   0.390
67025W        W40093   3.399  16.154   0.883
67026W        W40094  35.997  19.157  10.449
67027W        W40095  22.127  11.151  13.454
67028W        W40096   6.510  39.876  11.114
67029W        W40097  11.189  34.099  10.666
67030W        W40098   2.878  18.355   2.791
67031W        W40099  18.703   2.377  14.949
67032W        W40100  22.305   2.546  13.939
67033W        W40101  20.253  35.272   3.224
67034W        W40102  19.926  10.244  10.819
67035W        W40103   0.348  32.379  13.085
67036W        W40104  37.023  29.168  10.786
67037W        W40105   4.451  17.910   0.504
67038W        W40106  23.728  19.122   0.399
67039W        W40107  44.458  31.414   0.934
67040W        W40108  12.388  42.202  12.477
67041W        W40109  14.443  31.431  12.039
67042W        W40110   4.953  14.451   0.990
67043W        W40111  32.071  34.838   3.171
67044W        W40112  30.216  27.103   4.088
67045W        W40113  36.940  44.791  12.850
67046W        W40114   1.741  22.010   3.354
67047W        W40115  22.259  19.223  13.527
67048W        W40116  28.479  26.044   1.956
67049W        W40117  30.699   3.328  13.984
67050W        W40118  13.690   2.801   2.286
67051W        W40119  20.454  26.034   2.835
67052W        W40120  36.362  36.843   0.329
67053W        W40121   7.928  42.871   4.150
67054W        W40122   8.054  12.366  12.582
67055W        W40123  38.830   0.633   0.073
67056W        W40124  28.204  21.334   0.910
67057W        W40125  27.551  24.666   2.209
67058W        W40126  29.477  22.242  14.435
67059W        W40127  32.002  39.522   1.612
67060W        W40128  38.223  35.922   0.006
67061W        W40129  23.429  25.481   1.872
67062W        W40130  15.551  28.425  11.929
67063W        W40131  31.440  29.016   1.538
67064W        W40132  14.882  37.267  13.855
67065W        W40133  33.598   1.072   2.382
67066W        W40134  18.327   5.436  14.352
67067W        W40135  43.788  30.425   3.634
67068W        W40136   1.120  39.037   0.776
67069W        W40137  23.750  25.605   2.820
67070W        W40138   7.439   1.740  14.253
67071W        W40139  41.900  11.846   4.800
67072W        W40140  42.807   6.850  10.651
67073W        W40141  36.556  28.525   0.682
67074W        W40142  37.994  26.271  12.929
67075W        W40143  40.883  43.710  12.463
67076W        W40144  26.642  38.444  11.520
67077W        W40145   2.064  33.679   3.266
67078W        W40146  27.083   1.242  13.409
67079W        W40147  23.175   9.710   0.406
67080W        W40148  30.324  42.480   3.545
67081W        W40149  32.147   4.968  12.493
67082W        W40150  37.539  40.060  11.022
67083W        W40151  19.753  29.144   2.166
67084W        W40152  40.783  33.271  12.697
67085W        W40153  26.167   1.589  11.542
67086W        W40154  23.623  40.401   3.876
67087W        W40155  29.051  27.557   4.733
67088W        W40156  35.635  18.723   2.075
67089W        W40157  21.109   9.163   1.812
67090W        W40158   7.383   1.881   3.466
67091W        W40159   6.748  34.465  14.442
67092W        W40160  44.505  32.990  11.229
67093W        W40161   6.891   4.438   2.089
67094W        W40162  10.620  19.222   2.621
67095W        W40163  44.580  40.881  12.907
67096W        W40164  23.553  42.228   4.635
67097W        W40165  20.206  44.929   0.027
67098W        W40166  30.628  24.582  13.386
67099W        W40167  32.848  37.537  13.648
67100W        W40168  34.607  31.119  14.305
67101W        W40169  32.024  11.637   2.934
67102W        W40170  22.049  24.576  11.904
67103W        W40171  21.805   7.028   3.652
67104W        W40172  12.802   2.876  14.261
67105W        W40173   0.728  33.457  12.089
67106W        W40174   1.195   8.766   3.680
67107W        W40175  13.090  37.950   1.941
67108W        W40176  18.458  11.178  13.728
67109W        W40177   5.050  29.472   4.229
67110W        W40178  36.280   3.704  13.122
67111W        W40179  16.139  27.638  14.042
67112W        W40180  22.152   2.716   2.890
67113W        W40181  33.133  16.907   1.421
67114W        W40182  33.541  42.851   0.890
67115W        W40183   8.370  10.284   3.236
67116W        W40184   3.703  23.683   0.857
67117W        W40185  39.759  15.205  14.245
67118W        W40186  14.870  40.843   0.978
67119W        W40187  10.143   3.449  14.813
67120W        W40188  40.167   3.952   4.378
67121W        W40189  30.518  37.922  10.708
67122W        W40190  29.185  43.362   4.483
67123W        W40191   3.207  25.039  13.044
67124W        W40192  43.597   1.232   2.976
67125W        W40193  28.766  25.015  12.117
67126W        W40194  33.094   3.418   0.866
67127W        W40195  10.771  30.500  14.210
67128W        W40196   3.262  27.950   1.777
67129W        W40197  25.274   4.366  14.267
67130W        W40198   1.444  24.203   3.247
67131W        W40199  43.887  37.703  13.018
67132W        W40200  17.416  25.785  11.101
67133W        W40201  15.154  44.519  14.318
67134W        W40202  23.272  16.764   0.522
67135W        W40203  33.612  37.155   3.412
67136W        W40204  36.601  23.289   1.446
67137W        W40205   8.906  24.622   2.263
67138W        W40206  33.597  38.534  11.566
67139W        W40207  25.577  13.275  12.854
67140W        W40208  43.989   4.994   1.727
67141W        W40209  19.322  27.618   4.232
67142W        W40210  35.686  21.226  13.164
67143W        W40211  20.061  34.424  10.806
67144W        W40212  39.008  24.035   0.822
67145W        W40213  37.608  28.564   1.446
67146W        W40214   9.306   2.821  10.711
67147W        W40215  20.285  37.917  11.981
67148W        W40216  32.922  21.141  11.557
67149W        W40217   7.167  18.527  14.208
67150W        W40218  29.630  12.281  14.521
67151W        W40219   2.408  24.138   2.693
67152W        W40220  25.550  31.444   0.374
67153W        W40221  36.472  34.664   1.977
67154W        W40222  19.197   2.695   0.266
67155W        W40223  15.765  10.612   4.347
67156W        W40224  10.554  31.407  10.750
67157W        W40225  31.751  31.374  13.515
67158W        W40226  12.873  26.723  13.538
67159W        W40227   3.766   8.267   1.852
67160W        W40228  16.203  23.040   1.855
67161W        W40229  10.811  27.788  14.973
67162W        W40230  15.888  34.320   0.109
67163W        W40231  35.300  41.819  12.014
67164W        W40232  31.307  27.780   1.912
67165W        W40233  38.263  18.712   4.344
67166W        W40234  29.558  11.145   4.733
67167W        W40235  27.411  38.998  10.773
67168W        W40236  31.406  33.102   1.240
67169W        W40237  20.934  12.128   0.918
67170W        W40238  35.465  15.761   3.695
67171W        W40239  16.115  30.187   0.782
67172W        W40240  10.882  32.830   0.864
67173W        W40241  23.705  39.911  10.681
67174W        W40242  16.788  21.509   4.111
67175W        W40243  23.532   7.953  14.292
67176W        W40244  11.298  35.844  13.135
67177W        W40245  10.402  43.242  13.920
67178W        W40246  38.023  16.692  10.384
67179W        W40247   4.740  30.365  14.311
67180W        W40248  21.634  32.939   4.171
67181W        W40249   6.808  34.826  12.139
67182W        W40250  25.506  13.317   0.533
67183W        W40251  33.079  12.266   0.774
67184W        W40252   4.318   3.724  12.020
67185W        W40253   3.184  16.509  13.796
67186W        W40254  33.393  27.037   3.920
67187W        W40255  33.526  24.581   1.514
67188W        W40256  12.156   2.706   0.884
67189W        W40257  26.603  36.471  12.542
67190W        W40258  39.610   9.983  13.581
67191W        W40259  25.586  41.105   4.602
67192W        W40260  29.370  23.142   2.056
67193W        W40261  11.107   2.836  11.936
67194W        W40262  41.043  22.262   0.962
67195W        W40263  36.495  14.679   1.660
67196W        W40264   1.408   8.229  13.998
67197W        W40265   0.509  29.069   0.351
67198W        W40266   3.389   4.880   0.238
67199W        W40267  37.039  37.489   3.270
67200W        W40268   7.842  22.166   2.271
67201W        W40269   4.685  19.115  14.990
67202W        W40270   2.537  14.773   1.815
67203W        W40271  23.165  33.470   2.579
67204W        W40272  41.509  25.263  12.800
67205W        W40273   6.312  35.596   3.180
67206W        W40274   9.828  32.720  14.445
67207W        W40275   9.236  39.473   0.368
67208W        W40276  36.901  34.531   0.560
67209W        W40277  14.899   6.644  11.939
67210W        W40278  37.779   2.820   1.224
67211W        W40279  27.679  33.910  13.814
67212W        W40280  36.159  26.504  12.123
67213W        W40281  43.358  21.511   2.848
67214W        W40282   5.307  32.585   4.866
67215W        W40283  16.813   4.951  13.796
67216W        W40284  39.536  39.340   3.222
67217W        W40285  33.675  12.189  10.355
67218W        W40286  18.089  34.368   3.386
67219W        W40287  34.093  38.060   4.270
67220W        W40288  44.258  35.860  12.065
67221W        W40289  24.925  36.598  14.857
67222W        W40290  31.589  39.917  13.932
67223W        W40291   6.789  28.625  13.171
67224W        W40292  14.107  28.717   1.213
67225W        W40293   3.147  39.636   4.357
67226W        W40294   7.248  26.204   0.646
67227W        W40295   7.071  35.936   0.224
67228W        W40296  22.033  12.874   1.303
67229W        W40297  36.908  26.265  13.074
67230W        W40298  32.864  30.500  13.940
67231W        W40299  11.050  20.697  11.979
67232W        W40300  20.106  32.182  11.135
67233W        W40301  44.307  15.031  13.755
67234W        W40302  18.602  43.732  10.927
67235W        W40303  16.848  19.739  11.004
67236W        W40304  21.821  44.288  14.486
67237W        W40305  41.875  23.714   2.216
67238W        W40306   7.399  26.555   2.668
67239W        W40307  27.720   4.812  13.839
67240W        W40308  22.966  16.686  12.995
67241W        W40309  18.131  36.530   3.154
67242W        W40310  24.496  17.612  12.547
67243W        W40311  35.484   1.181   0.457
67244W        W40312   7.240  14.628  11.209
67245W        W40313  11.336  21.552  13.914
67246W        W40314  25.175  23.645  10.501
67247W        W40315  21.066  31.684   0.474
67248W        W40316  25.693  14.492  11.476
67249W        W40317   6.143   4.616   2.336
67250W        W40318  40.124  20.735   0.951
67251W        W40319  21.554  12.654   0.711
67252W        W40320  27.149   0.234  13.594
67253W        W40321  35.657  13.230   4.720
67254W        W40322   4.415  36.922  14.961
67255W        W40323  33.119   2.159   4.881
67256W        W40324   5.636  33.781  11.479
67257W        W40325   5.717  41.361  11.525
67258W        W40326  11.630  16.347  11.544
67259W        W40327  17.126  10.717   4.137
67260W        W40328   4.226  38.557   4.653
67261W        W40329  18.639  30.188  11.116
67262W        W40330   7.909  34.850   2.954
67263W        W40331   0.652  34.940   3.747
67264W        W40332  38.011  43.522   3.306
67265W        W40333  21.619  40.845  11.952
67266W        W40334  35.102  37.783  11.073
67267W        W40335   3.868  16.052  12.535
67268W        W40336   8.755  30.515   4.154
67269W        W40337  27.285  44.105  11.656
67270W        W40338  13.113   8.208   4.573
67271W        W40339  22.648  25.909   1.762
67272W        W40340   1.511  30.112   2.789
67273W        W40341   5.166  29.145   1.854
67274W        W40342  39.940   5.323   2.689
67275W        W40343  17.361  12.896   2.562
67276W        W40344  30.247   0.296   4.643
67277W        W40345   6.354  42.846  10.022
67278W        W40346  13.337  40.074  14.870
67279W        W40347  10.986  15.731  13.452
67280W        W40348  32.993   2.520  11.584
67281W        W40349  31.881  21.053  11.648
67282W        W40350  30.438   7.099   1.840
67283W        W40351   1.328  20.111  12.977
67284W        W40352  17.696  14.294   2.693
67285W        W40353  43.451   5.707   1.588
67286W        W40354  10.188  11.216   2.893
67287W        W40355  40.408  11.392  13.422
67288W        W40356  10.191   6.376   0.343
67289W        W40357   3.886  30.458   4.057
67290W        W40358   2.750  28.649   0.364
67291W        W40359  35.479  38.253  11.653
67292W        W40360   3.195  34.012   0.402
67293W        W40361  21.310  21.625  10.976
67294W        W40362   8.850  19.044  14.894
67295W        W40363  37.588   1.322   3.643
67296W        W40364  41.720  39.982  13.069
67297W        W40365   6.302  25.401  14.439
67298W        W40366  25.868  36.577  11.498
67299W        W40367  35.995  20.195   2.812
67300W        W40368  16.638   5.454  13.749
67301W        W40369  17.296   8.719   3.232
67302W        W40370  43.565  22.005   3.734
67303W        W40371   8.150  24.545  12.481
67304W        W40372  11.913  37.276  14.917
67305W        W40373  18.734   0.180  13.279
67306W        W40374  20.500  11.036  11.100
67307W        W40375  37.393   7.296  12.706
67308W        W40376  21.460   4.532   0.946
67309W        W40377  32.570  42.219   4.641
67310W        W40378  21.627  24.986   1.826
67311W        W40379  33.505  36.750   0.705
67312W        W40380  42.516  21.084   0.280
67313W        W40381  36.230  17.676   2.343
67314W        W40382  40.461  37.788  13.426
67315W        W40383  32.661  24.587  12.449
67316W        W40384   0.232  11.875   4.071
67317W        W40385  42.840  34.808   5.015
67318W        W40386  16.485  37.992  10.557
67319W        W40387  14.166   9.144   4.831
67320W        W40388  14.853   0.728  12.139
67321W        W40389  36.310  15.400   3.995
67322W        W40390   6.772  16.651  11.219
67323W        W40391  44.453  20.964   3.113
67324W        W40392  41.777   5.044   2.703
67325W        W40393   1.326   3.348  11.111
67326W        W40394  19.136   8.891  11.152
67327W        W40395   3.893  43.289  10.642
67328W        W40396  33.617   3.171  13.012
67329W        W40397  43.254  27.975   4.156
67330W        W40398  32.689  31.640  14.325
67331W        W40399  40.896  42.820   5.092
67332W        W40400  31.648  24.638   1.467
67333W        W40401   4.948  12.871  12.529
67334W        W40402  40.497  21.776   3.157
67335W        W40403   6.243  28.372   0.295
67336W        W40404  12.198  18.583   3.403
67337W        W40405  41.347   7.470   0.308
67338W        W40406   2.714  15.016   4.862
67339W        W40407  39.445   2.921   0.988
67340W        W40408  39.488  39.859   3.242
67341W        W40409   2.988  24.584  12.868
67342W        W40410  13.066  31.462   1.936
67343W        W40411  37.542   2.397   2.870
67344W        W40412  29.977  17.593   2.797
67345W        W40413  23.039  12.338  14.870
67346W        W40414  28.230   1.704  11.516
67347W        W40415  30.669  15.684  12.482
67348W        W40416  18.349  20.691  11.714
67349W        W40417  43.548   4.219   0.738
67350W        W40418  31.809  12.205   1.185
67351W        W40419  12.847   5.225  14.907
67352W        W40420   2.224   5.304  13.794
67353W        W40421  18.706  43.021   3.350
67354W        W40422  43.521  16.672  11.283
67355W        W40423  36.520  35.790   0.673
67356W        W40424  33.864   4.935  14.184
67357W        W40425   1.706  38.072  13.299
67358W        W40426   9.774  39.627   0.414
67359W        W40427  23.273   9.208   4.782
67360W        W40428   6.216  21.812  12.513
67361W        W40429  22.587  36.460  13.854
67362W        W40430  30.461  17.644   0.790
67363W        W40431  34.524  41.244  11.623
67364W        W40432  44.979  39.127   3.112
67365W        W40433  36.789  12.891   5.007
67366W        W40434  35.426  35.096   2.721
67367W        W40435   6.649  24.717  11.126
67368W        W40436  38.606  18.358  12.537
67369W        W40437  44.423  37.903  11.478
67370W        W40438  37.528  33.588  11.116
67371W        W40439  34.216  18.097  11.389
67372W        W40440  30.628  34.321   3.173
67373W        W40441   2.226  26.338  12.104
67374W        W40442  14.693  29.505   0.119
67375W        W40443  34.148  39.690   2.258
67376W        W40444  16.405   7.907   0.940
67377W        W40445  27.619  23.849  13.633
67378W        W40446  28.634   9.420  14.464
67379W        W40447   0.366   2.765  13.490
67380W        W40448   5.832  38.053  12.365
67381W        W40449   3.131  14.935  13.073
67382W        W40450   1.964  40.273  11.543
67383W        W40451   9.207   7.712  10.556
67384W        W40452   9.922  44.039  11.382
67385W        W40453  43.505  43.958  14.333
67386W        W40454  21.582  38.985   2.716
67387W        W40455  11.256  20.292  10.449
67388W        W40456  25.169  30.134  14.344
67389W        W40457   9.620  34.469  14.437
67390W        W40458  28.046  22.543   5.215
67391W        W40459   7.647  10.022  13.094
67392W        W40460  41.980  35.236   2.737
67393W        W40461  26.239  17.067   4.826
67394W        W40462   6.270   5.433   4.150
67395W        W40463  32.493  34.916   0.416
67396W        W40464  39.922   2.846  13.913
67397W        W40465  35.430  42.228   4.141
67398W        W40466  31.174  39.212  11.939
67399W        W40467  21.748   9.387  10.729
67400W        W40468  36.991   8.417  14.261
67401W        W40469  13.525   3.985   1.396
67402W        W40470  33.483   4.878   1.129
67403W        W40471  17.174  10.965   2.729
67404W        W40472   8.667  42.416   0.188
67405W        W40473  38.524  35.031  10.600
67406W        W40474   0.962  24.168  12.691
67407W        W40475  26.506  31.750  14.056
67408W        W40476  31.616  44.041   1.312
67409W        W40477  13.595  28.851   4.547
67410W        W40478  32.375   3.575  12.656
67411W        W40479  18.801  13.768  11.119
67412W        W40480  27.303  18.782   3.788
67413W        W40481  27.695   5.995   3.586
67414W        W40482  41.959  21.776  13.025
67415W        W40483  33.616  30.877  13.066
67416W        W40484  20.469  11.807  11.615
67417W        W40485  17.625  27.013   1.377
67418W        W40486   9.183   6.775  12.926
67419W        W40487  23.567  32.535   3.627
67420W        W40488  23.080   8.737  12.449
67421W        W40489  44.180  31.833   0.859
67422W        W40490  24.238  28.604   1.416
67423W        W40491  30.398   3.839  14.510
67424W        W40492   2.307   0.527   1.884
67425W        W40493   6.664  18.379  13.025
67426W        W40494  22.502  18.794   3.704
67427W        W40495  37.972   7.952  11.119
67428W        W40496  36.382  38.440  10.749
67429W        W40497  18.786   8.299  11.662
67430W        W40498  14.085   9.957   1.696
67431W        W40499  33.075  13.251  14.961
67432W        W40500  36.072  18.149   1.681
67433W        W40501  43.777   3.370  12.073
67434W        W40502   7.370  35.899   4.064
67435W        W40503  28.405   2.913  12.802
67436W        W40504  10.631  22.658   4.729
67437W        W40505  37.399  28.581  13.839
67438W        W40506  38.029  30.112   4.135
67439W        W40507  32.168  16.793   4.726
67440W        W40508   7.440  39.560  11.481
67441W        W40509  25.527   1.791   0.437
67442W        W40510  12.613  21.604  14.863
67443W        W40511   6.698  31.473  12.206
67444W        W40512   9.337  13.361   0.978
67445W        W40513  28.962  26.135  10.600
67446W        W40514  18.713  28.062   1.201
67447W        W40515  24.365  24.040  14.661
67448W        W40516  34.966  42.038  11.646
67449W        W40517  27.220  25.006  14.991
67450W        W40518   9.902  19.853  11.936
67451W        W40519  26.061  18.865  13.378
67452W        W40520  17.421   4.947   3.212
67453W        W40521   6.090   9.376   4.076
67454W        W40522  15.977  34.913   0.293
67455W        W40523  20.967  17.134  12.031
67456W        W40524  15.671   5.652  12.317
67457W        W40525  25.274  40.977  13.506
67458W        W40526  38.284  23.726  14.783
67459W        W40527  37.959   7.843   4.687
67460W        W40528  41.763  42.990   4.633
67461W        W40529  19.353   6.179   2.391
67462W        W40530  25.070  41.831   4.139
67463W        W40531  16.783  27.041  10.684
67464W        W40532   6.301  44.290  12.984
67465W        W40533  27.500   8.167  12.844
67466W        W40534  12.387  14.268  12.036
67467W        W40535  35.944  39.310  14.514
67468W        W40536  19.301  39.991   4.798
67469W        W40537  32.304   0.686   0.950
67470W        W40538   9.441  11.805   4.446
67471W        W40539  17.552  18.546  11.195
67472W        W40540   5.231   6.950  10.411
67473W        W40541  31.972  37.555  14.782
67474W        W40542   1.911  27.710   3.678
67475W        W40543  28.558  27.501   1.887
67476W        W40544  43.475   2.202   1.880
67477W        W40545  13.728  36.828  11.637
67478W        W40546  38.774   3.879  11.513
67479W        W40547  27.236  43.286   1.505
67480W        W40548  42.815   3.200  14.801
67481W        W40549  44.723  39.352   1.859
67482W        W40550   4.873  38.065  14.235
67483W        W40551   7.446  39.162  13.927
67484W        W40552  32.613   2.062   0.498
67485W        W40553  28.975  12.331   3.096
67486W        W40554  33.447  10.827   0.796
67487W        W40555   5.963  29.398  14.130
67488W        W40556  16.035  13.238  11.674
67489W        W40557  35.848  20.676   2.658
67490W        W40558  43.863  41.420   0.432
67491W        W40559  29.517  11.657   4.560
67492W        W40560   1.923   8.131   2.159
67493W        W40561  40.328  41.784  13.806
67494W        W40562   1.990   2.819   3.332
67495W        W40563  29.094  21.916   2.366
67496W        W40564   3.469  18.044   0.308
67497W        W40565  29.886  21.666   1.997
67498W        W40566  23.337   8.001  11.672
67499W        W40567  22.246  29.442   4.323
67500W        W40568  41.707  25.670  11.087
67501W        W40569   5.400   6.988   4.926
67502W        W40570  19.869  28.229  13.938
67503W        W40571  19.608  43.421  10.482
67504W        W40572   6.780  21.244   1.062
67505W        W40573   1.571  42.792  11.590
67506W        W40574  34.113  31.758  12.882
67507W        W40575   3.340   7.934  11.950
67508W        W40576  41.524   4.127   5.047
67509W        W40577  34.992   8.381   2.013
67510W        W40578  44.411  27.512   4.362
67511W        W40579  25.733  31.492   4.479
67512W        W40580   4.891  38.344  12.784
67513W        W40581  38.085  34.096   1.297
67514W        W40582  36.132  34.111   1.293
67515W        W40583  20.640  24.444   1.702
67516W        W40584   5.950  27.521   2.877
67517W        W40585  12.525  32.999   4.430
67518W        W40586  22.480  17.559  10.380
67519W        W40587  25.144  39.434  12.460
67520W        W40588  11.657  42.276   1.770
67521W        W40589  28.969  24.911  14.239
67522W        W40590  39.460  28.248  11.556
67523W        W40591   5.319  31.440   4.916
67524W        W40592  26.650  26.189   2.356
67525W        W40593  32.762  24.142  14.047
67526W        W40594  23.523  16.596   4.424
67527W        W40595  20.491  13.206  12.667
67528W        W40596   8.901  38.469  10.321
67529W        W40597  40.280  21.086   4.181
67530W        W40598  19.224  33.659   3.235
67531W        W40599  40.235  33.391  14.927
67532W        W40600  34.110  30.337   1.846
67533W        W40601  13.099   2.435   2.170
67534W        W40602  23.035   7.767   4.781
67535W        W40603  28.135  22.995  13.917
67536W        W40604  27.244  13.163   4.285
67537W        W40605   5.817  31.368   3.043
67538W        W40606  34.364  16.844   2.688
67539W        W40607  36.441   2.437  14.455
67540W        W40608   2.218  27.971  10.712
67541W        W40609  14.362  26.958  12.963
67542W        W40610  28.419   0.739   2.754
67543W        W40611  10.383  30.531   0.052
67544W        W40612   7.425  41.496  14.517
67545W        W40613  28.436  35.315   3.182
67546W        W40614  34.932  27.736  10.799
67547W        W40615  41.273  28.370  11.993
67548W        W40616  11.058  35.638   3.054
67549W        W40617  13.085  41.796  11.237
67550W        W40618   9.372  17.751  12.040
67551W        W40619  36.275   5.723   3.861
67552W        W40620   3.302  23.267   1.727
67553W        W40621  11.793  38.699   2.289
67554W        W40622   5.233  13.392   3.120
67555W        W40623   8.209  22.695   4.911
67556W        W40624  22.079  19.721   4.796
67557W        W40625   1.357  30.673   1.338
67558W        W40626   0.550  11.437   1.572
67559W        W40627   4.622  41.385  12.396
67560W        W40628   0.058  36.863   1.860
67561W        W40629  23.176   0.197   0.925
67562W        W40630  41.839   7.650   3.297
67563W        W40631  20.099   3.108  11.542
67564W        W40632  16.557  41.755   0.474
67565W        W40633  21.962  41.924   0.451
67566W        W40634   1.463   4.451  10.715
67567W        W40635  43.390  31.647  12.091
67568W        W40636  21.368  11.764   4.146
67569W        W40637   2.038   1.995  13.550
67570W        W40638  34.866  36.116   4.164
67571W        W40639  43.931   6.365  11.170
67572W        W40640  12.327  36.433   3.635
67573W        W40641  38.502   0.465   0.425
67574W        W40642  10.113  20.479   0.377
67575W        W40643   0.898   2.431  11.432
67576W        W40644  21.168  37.672  11.993
67577W        W40645  12.877   2.937   0.275
67578W        W40646  23.591  37.651   2.854
67579W        W40647  31.885  20.153  11.102
67580W        W40648  37.825  36.278  14.953
67581W        W40649   6.914  31.599   2.290
67582W        W40650  41.936  44.848  14.236
67583W        W40651  20.353  24.940   1.236
67584W        W40652   2.934  19.331   5.030
67585W        W40653   0.812  30.018  14.597
67586W        W40654  28.098   1.286  10.506
67587W        W40655  18.981  17.270   4.116
67588W        W40656  19.576  34.545   0.306
67589W        W40657  10.131  27.068   1.442
67590W        W40658  42.199  23.584   3.788
67591W        W40659  12.723  40.968  11.276
67592W        W40660  36.886  25.890   3.078
67593W        W40661   2.411  36.376  13.143
67594W        W40662   2.360  28.664   2.568
67595W        W40663  20.954  32.596  10.676
67596W        W40664   3.188  43.811   0.329
67597W        W40665   1.264   8.384  10.705
67598W        W40666  29.905   3.964  13.797
67599W        W40667   4.468  38.061  12.624
67600W        W40668  39.310   1.781   1.329
67601W        W40669   7.455  44.974  13.596
67602W        W40670  38.783  33.551   1.348
67603W        W40671   3.081  25.087   0.952
67604W        W40672  43.204  42.457   0.135
67605W        W40673   4.839   3.877  12.085
67606W        W40674  21.367  43.568   4.165
67607W        W40675   4.421  43.779  12.626
67608W        W40676  42.470  39.503   4.556
67609W        W40677   6.377  11.060   0.965
67610W        W40678  14.078   1.307   3.186
67611W        W40679  20.774  40.598   0.432
67612W        W40680  37.002  12.646  11.562
67613W        W40681   5.933  17.576   4.597
67614W        W40682  29.829  44.954  12.156
67615W        W40683  29.846   0.466  12.947
67616W        W40684  12.160  19.432  10.043
67617W        W40685  28.760  21.953   3.650
67618W        W40686  28.063  44.691  10.768
67619W        W40687   1.596   4.789  12.977
67620W        W40688  40.794  15.596  14.524
67621W        W40689  15.387  11.894  12.554
67622W        W40690  34.182   4.172  13.870
67623W        W40691  32.021  35.782  10.504
67624W        W40692  42.893   9.958  12.903
67625W        W40693  37.824  21.018   0.053
67626W        W40694  41.641   4.143  13.989
67627W        W40695  18.195  29.984  12.979
67628W        W40696  35.124  31.812   0.388
67629W        W40697  12.492  41.932   3.251
67630W        W40698  11.739  11.233   0.539
67631W        W40699  18.243  19.775  13.867
67632W        W40700  16.687  43.721   0.278
67633W        W40701  43.190  11.967  11.631
67634W        W40702   9.331   9.692  13.107
67635W        W40703   5.904  27.515  13.373
67636W        W40704  42.749  21.627  14.456
67637W        W40705  17.097   8.653  10.617
67638W        W40706  28.102  18.886   2.734
67639W        W40707  35.897  25.716  12.532
67640W        W40708  43.563  13.514  12.418
67641W        W40709  17.117  15.822   4.994
67642W        W40710  44.400  13.891   2.175
67643W        W40711   2.756  34.460   0.277
67644W        W40712  18.800  31.976   0.738
67645W        W40713  35.910  25.216  11.412
67646W        W40714  27.078   3.884  13.050
67647W        W40715  24.116  42.732   0.861
67648W        W40716  39.883  37.852   0.279
67649W        W40717  13.740  38.642   1.800
67650W        W40718  11.608  41.555   0.025
67651W        W40719  26.280  12.091  10.581
67652W        W40720  38.543   1.669   3.760
67653W        W40721  24.011  35.512  10.482
67654W        W40722  20.186  43.827   2.946
67655W        W40723  28.281  11.466   3.760
67656W        W40724  15.443  37.856  11.808
67657W        W40725   4.871  31.228   4.644
67658W        W40726  17.978  43.069  13.870
67659W        W40727  40.445   4.215   1.261
67660W        W40728  41.513   2.460   4.799
67661W        W40729  34.153   6.635   2.940
67662W        W40730  40.553  32.618   0.373
67663W        W40731  43.854   0.334   3.133
67664W        W40732  19.594  13.466  10.577
67665W        W40733  35.058   0.814   4.412
67666W        W40734  41.063   5.701   2.809
67667W        W40735  12.661   3.398   4.753
67668W        W40736   4.517  22.222  14.433
67669W        W40737  31.094   4.941  14.438
67670W        W40738   6.848  38.105   4.201
67671W        W40739   0.800   1.159   0.342
67672W        W40740  15.364  36.622  12.588
67673W        W40741   1.324   3.567   3.165
67674W        W40742  11.823  43.855   4.051
67675W        W40743   8.496  35.208  11.955
67676W        W40744  21.315  39.847  10.705
67677W        W40745   1.363  35.855  13.840
67678W        W40746  32.929  30.022  11.399
67679W        W40747   1.450  28.370   3.803
67680W        W40748  11.150   0.370   3.945
67681W        W40749  12.374  39.736  13.919
67682W        W40750  37.867  13.231  14.418
67683W        W40751  17.806  35.092  10.716
67684W        W40752  31.200  16.628   0.438
67685W        W40753  20.153  32.890  12.617
67686W        W40754   5.562  10.853   4.119
67687W        W40755   2.678  24.371  11.644
67688W        W40756  19.386   8.779   3.867
67689W        W40757   7.787  35.121   4.995
67690W        W40758  28.132  10.830  14.474
67691W        W40759  15.545  28.105   3.187
67692W        W40760  28.224  21.663  13.572
67693W        W40761  11.113   8.694  12.571
67694W        W40762  34.463   2.941  13.029
67695W        W40763   6.890  23.255  13.967
67696W        W40764  30.905  17.386   0.912
67697W        W40765  44.472  34.848  11.154
67698W        W40766  23.067  39.933  12.898
67699W        W40767  33.570  28.643   2.155
67700W        W40768  14.330  30.583   1.276
67701W        W40769  23.166  24.376  14.904
67702W        W40770  39.983  14.505  10.318
67703W        W40771  13.333  42.898   3.279
67704W        W40772  24.478   9.132  14.337
67705W        W40773  29.717  35.996   0.943
67706W        W40774  12.206  33.843  11.827
67707W        W40775  44.342   2.988  11.511
67708W        W40776  11.158  32.549   4.236
67709W        W40777  15.872   4.342   1.404
67710W        W40778  15.290  29.585  14.486
67711W        W40779   4.357  43.539  14.421
67712W        W40780  40.491   6.625  11.497
67713W        W40781   7.138   2.807   0.448
67714W        W40782  36.364  30.885  13.343
67715W        W40783   8.836  40.284   0.256
67716W        W40784  11.713   1.338   4.800
67717W        W40785  35.808  36.485  12.257
67718W        W40786  39.322  18.820   0.714
67719W        W40787   9.167  37.037  13.396
67720W        W40788  27.465  37.708   3.970
67721W        W40789   3.003  43.218  12.079
67722W        W40790  33.622  28.731  12.369
67723W        W40791  18.261  18.214   4.478
67724W        W40792  40.847  19.371  14.275
67725W        W40793  44.250  24.016   5.044
67726W        W40794   5.803  23.703  14.727
67727W        W40795   3.709  41.355  12.396
67728W        W40796  36.680  37.595  12.665
67729W        W40797   5.697   6.805  14.002
67730W        W40798  32.094  28.575  11.622
67731W        W40799  14.706  27.376  13.441
67732W        W40800  24.277  25.141  12.875
67733W        W40801  15.743  11.825   0.249
67734W        W40802  34.724  14.616   3.555
67735W        W40803  16.074  33.181   1.848
67736W        W40804  27.993  15.061   4.143
67737W        W40805  14.245   5.412   0.938
67738W        W40806  19.414  37.408   3.474
67739W        W40807  31.640  26.237   2.839
67740W        W40808   7.870  18.538   1.712
67741W        W40809   8.696  32.390  13.094
67742W        W40810   5.892  22.274   1.359
67743W        W40811  22.065  10.422   1.334
67744W        W40812  42.735   2.151  14.069
67745W        W40813  26.250  30.617  13.839
67746W        W40814  19.147  25.883  14.764
67747W        W40815  35.141  31.161  13.868
67748W        W40816  41.769  16.764  13.413
67749W        W40817  19.837   8.739   1.928
67750W        W40818  22.671  36.904  10.523
67751W        W40819  40.116  15.163  11.561
67752W        W40820  39.005   8.038  12.464
67753W        W40821  10.835  27.184  14.309
67754W        W40822   1.654   9.205   4.226
67755W        W40823  25.999  42.962   0.300
67756W        W40824   7.994  26.127  14.746
67757W        W40825  28.825  33.572  10.833
67758W        W40826   0.392  41.960   0.707
67759W        W40827  25.959  35.055   0.929
67760W        W40828  26.210  41.960  14.121
67761W        W40829  39.275   4.811   2.458
67762W        W40830   6.655  31.089   4.651
67763W        W40831  40.341  40.160  10.685
67764W        W40832  23.689  35.888  14.841
67765W        W40833  13.417  30.463   2.966
67766W        W40834  13.218  29.039  12.105
67767W        W40835  29.148  31.406  13.342
67768W        W40836  18.357  24.489   4.087
67769W        W40837  16.688  28.222  11.105
67770W        W40838  34.651  18.104  11.639
67771W        W40839  14.672   4.003   1.013
67772W        W40840   9.048  43.604   3.719
67773W        W40841  19.951  26.736  12.636
67774W        W40842   0.163  12.364   4.275
67775W        W40843   3.829  33.532   1.027
67776W        W40844  26.685  29.952  14.303
67777W        W40845   9.845  14.729  14.259
67778W        W40846  23.539  21.892  13.319
67779W        W40847  34.017  36.868   1.866
67780W        W40848  36.792   8.905  14.439
67781W        W40849  16.510  13.823  14.902
67782W        W40850  21.048  36.006   1.752
67783W        W40851  39.302  41.587  11.142
67784W        W40852   3.510  34.308  12.997
67785W        W40853   3.851  43.803  10.609
67786W        W40854   6.520  26.690   3.112
67787W        W40855   2.752  13.250   2.302
67788W        W40856  42.811  36.817   1.873
67789W        W40857  21.003  29.385   3.771
67790W        W40858  11.454   0.929  13.997
67791W        W40859  12.595  39.844  13.454
67792W        W40860  14.330  10.165   0.529
67793W        W40861  36.759  22.823  14.485
67794W        W40862  31.051   3.203  12.991
67795W        W40863   1.456  37.457  11.489
67796W        W40864  11.800  13.195  14.896
67797W        W40865  42.442   6.500  13.619
67798W        W40866  44.200   9.627  11.949
67799W        W40867  20.673   8.933   5.093
67800W        W40868  23.119  38.821   2.289
67801W        W40869  17.564  10.801  13.035
67802W        W40870  37.320   6.944   0.441
67803W        W40871  16.303   5.398  11.061
67804W        W40872  34.062  43.831  11.032
67805W        W40873  18.916   3.800   5.010
67806W        W40874  23.625  10.279   4.766
67807W        W40875  25.916   9.863   0.970
67808W        W40876  27.482   2.894   4.676
67809W        W40877  11.259   9.066  11.109
67810W        W40878  34.423   2.020  14.426
67811W        W40879  12.405  15.504  13.580
67812W        W40880  36.470   4.125   3.071
67813W        W40881  11.887  29.479   3.727
67814W        W40882  32.372  41.380  14.337
67815W        W40883   1.802  22.057  11.422
67816W        W40884  31.145  11.592   3.817
67817W        W40885   5.762  37.759  14.886
67818W        W40886   8.729  12.806  13.850
67819W        W40887  29.464  27.920  12.493
67820W        W40888  14.990   5.381   4.137
67821W        W40889   8.574   4.990   0.452
67822W        W40890  17.250  34.004  12.488
67823W        W40891  28.184  32.080   0.210
67824W        W40892  17.791  24.422  13.345
67825W        W40893  43.521  37.974  13.260
67826W        W40894  15.328   5.212   3.735
67827W        W40895   8.208   6.870   3.640
67828W        W40896  20.090   4.282   0.958
67829W        W40897  43.520  10.101   0.355
67830W        W40898  39.923  31.910  12.339
67831W        W40899  41.812  35.056  14.952
67832W        W40900  16.940  19.873   9.910
67833W        W40901   0.859   2.811  11.780
67834W        W40902  10.785  30.826   2.410
67835W        W40903  26.992  24.157  10.698
67836W        W40904  25.588  43.796   1.245
67837W        W40905   0.991  23.620   1.968
67838W        W40906  32.635  12.582  14.321
67839W        W40907   6.703  25.569  10.669
67840W        W40908   5.994  29.434   3.242
67841W        W40909  15.300   2.188   1.914
67842W        W40910  20.292  18.756   0.463
67843W        W40911   5.534  16.509   0.047
67844W        W40912  35.170  27.295  12.587
67845W        W40913  18.620  43.575  14.311
67846W        W40914  41.890  17.987   2.709
67847W        W40915  43.508  35.872   4.466
67848W        W40916  36.638  43.914   4.981
67849W        W40917  26.137  15.786  14.087
67850W        W40918  23.657   0.175   1.426
67851W        W40919  42.688  14.290  12.211
67852W        W40920  30.855  15.495   2.306
67853W        W40921  15.620  12.894   1.775
67854W        W40922  37.021  16.617   2.234
67855W        W40923  30.388  16.548  11.641
67856W        W40924  29.199  22.780   1.345
67857W        W40925  44.769  33.035   4.945
67858W        W40926  22.135   8.855  13.504
67859W        W40927  42.872   9.432   3.588
67860W        W40928   6.264  15.761  13.926
67861W        W40929   5.680  22.231  13.534
67862W        W40930  40.918  42.052   0.563
67863W        W40931  14.626  14.882  14.409
67864W        W40932  25.542   9.408   4.550
67865W        W40933  42.352   3.242   5.136
67866W        W40934  26.696  29.057   4.784
67867W        W40935  38.041  22.622  10.663
67868W        W40936  27.620  10.252  14.730
67869W        W40937  27.641  24.593   1.696
67870W        W40938  32.891  40.354  14.048
67871W        W40939  30.225  13.100   4.293
67872W        W40940  18.315   0.931   2.048
67873W        W40941  36.415  10.778   4.659
67874W        W40942  32.846  31.448   1.381
67875W        W40943  19.243  43.830   4.300
67876W        W40944  42.248  20.136  14.298
67877W        W40945  25.695  14.283   2.354
67878W        W40946   9.648  10.660   4.160
67879W        W40947   8.622  36.808   3.897
67880W        W40948  43.323  19.729  14.839
67881W        W40949  12.767  36.796  12.808
67882W        W40950   7.725   8.420   0.026
67883W        W40951  33.350   6.413  12.473
67884W        W40952  35.416  37.926  12.059
67885W        W40953  39.851  29.654  10.688
67886W        W40954   1.399  23.440   1.696
67887W        W40955  18.734  33.684  10.657
67888W        W40956  33.496  32.430   2.691
67889W        W40957  25.681  27.235  14.355
67890W        W40958  35.897  44.424   0.018
67891W        W40959  43.499  16.213   4.574
67892W        W40960  31.546  23.308  14.134
67893W        W40961   3.312  31.428   1.808
67894W        W40962  17.732  31.547  14.244
67895W        W40963  14.365  20.837  11.350
67896W        W40964   3.932  24.397   4.392
67897W        W40965  34.962  14.260  10.720
67898W        W40966  19.714  30.427   3.850
67899W        W40967  33.049   3.479   3.534
67900W        W40968   9.679   6.235   2.262
67901W        W40969  30.003  22.692  12.188
67902W        W40970  39.276  16.781   4.581
67903W        W40971  31.846  19.502   3.176
67904W        W40972   1.665  38.910  10.100
67905W        W40973   9.850  22.072   2.684
67906W        W40974  30.426  33.113   3.757
67907W        W40975  15.597   6.102   0.859
67908W        W40976  29.898  40.566   1.776
67909W        W40977   5.169  41.421  12.382
67910W        W40978   4.424   8.264   1.092
67911W        W40979  10.681   4.529  12.975
67912W        W40980  40.511  20.026   1.259
67913W        W40981  43.098  32.370   3.901
67914W        W40982  36.977  15.904  12.424
67915W        W40983  28.676  19.584  10.753
67916W        W40984  12.202  30.595   3.174
67917W        W40985  18.429  36.046  11.990
67918W        W40986  34.305  30.440  11.399
67919W        W40987  26.439  15.240   0.351
67920W        W40988  21.763  11.347   1.455
67921W        W40989  38.616  28.012  13.884
67922W        W40990  43.451  31.189  12.957
67923W        W40991  19.132  19.745  13.986
67924W        W40992  19.867  32.120   3.303
67925W        W40993  22.327  39.048  10.598
67926W        W40994   6.110  19.769   5.075
67927W        W40995   4.969  11.321   3.860
67928W        W40996  21.123   5.190  10.825
67929W        W40997  26.171  12.076   4.353
67930W        W40998  16.696   5.201  11.521
67931W        W40999  41.832   2.262   3.080
67932W        W41000  11.083  27.416   1.349
67933W        W41001  27.126   5.790   3.082
67934W        W41002  38.441  20.012  11.221
67935W        W41003   6.648  24.482  10.664
67936W        W41004  43.174  10.198  13.822
67937W        W41005   3.372  30.901   1.870
67938W        W41006  43.004   3.045   2.178
67939W        W41007  27.170  44.401  13.018
67940W        W41008   5.676  16.843   1.371
67941W        W41009  35.929  44.946   1.775
67942W        W41010  37.107  35.620   0.821
67943W        W41011  42.875  30.436   4.668
67944W        W41012  36.895  19.246  12.574
67945W        W41013  22.558  41.233  11.853
67946W        W41014  33.042  35.778   2.413
67947W        W41015  30.543  33.768  12.506
67948W        W41016  12.320   1.764   2.002
67949W        W41017   7.012   7.987   2.924
67950W        W41018  31.583  43.833   3.045
67951W        W41019  36.095  25.426  13.883
67952W        W41020  30.715  31.404   0.407
67953W        W41021  24.621   4.335   0.983
67954W        W41022  43.214   2.856  11.077
67955W        W41023  36.994  35.715  14.998
67956W        W41024  24.034   4.513   3.295
67957W        W41025  29.503  17.178  14.225
67958W        W41026  11.348  30.072   0.413
67959W        W41027  26.410  24.046   5.035
67960W        W41028  28.770  10.806   5.024
67961W        W41029   6.718  20.261   3.244
67962W        W41030  22.963   6.380   3.800
67963W        W41031  14.653   9.874  11.165
67964W        W41032  44.017  34.694  10.948
67965W        W41033  24.992  22.689   4.712
67966W        W41034   4.973  29.986  10.772
67967W        W41035  28.705  27.051  12.928
67968W        W41036   6.846  35.092  13.165
67969W        W41037  25.039  12.837  11.065
67970W        W41038  25.961   4.445   0.280
67971W        W41039  21.141  26.766  12.143
67972W        W41040   0.122   1.393   4.780
67973W        W41041  20.739  28.639  11.265
67974W        W41042  27.942  10.655   3.290
67975W        W41043  30.731  32.594   1.295
67976W        W41044  31.327  13.066  11.579
67977W        W41045  22.546  12.399   1.843
67978W        W41046  29.974   9.360   3.169
67979W        W41047  38.404  36.905   4.007
67980W        W41048  30.936   2.258   4.134
67981W        W41049  34.506  35.003  12.653
67982W        W41050  20.672  30.437   4.196
67983W        W41051  10.770  17.615  11.165
67984W        W41052  19.628  19.118  14.651
67985W        W41053   5.836   8.626   0.739
67986W        W41054   4.366   1.182   0.767
67987W        W41055  18.788  39.101  11.070
67988W        W41056  22.101  10.449   0.031
67989W        W41057  25.964  14.470  12.034
67990W        W41058  43.829  36.992  10.664
67991W        W41059   1.897  39.326   2.330
67992W        W41060  18.769  36.491  13.399
67993W        W41061  28.025   0.564  13.711
67994W        W41062  25.265  19.232   0.711
67995W        W41063  29.098  27.827   4.299
67996W        W41064  22.076   6.794  10.806
67997W        W41065  43.006   1.923   0.876
67998W        W41066  18.300  25.443   0.801
67999W        W41067   2.948  36.901  11.134
68000W        W41068  34.111   0.029   3.672
68001W        W41069  34.989  12.308  10.689
68002W        W41070  20.852   9.708  10.555
68003W        W41071  30.516  13.979   2.205
68004W        W41072  17.127  19.755   2.708
68005W        W41073  28.670  38.537  14.626
68006W        W41074  13.081  27.181  11.602
68007W        W41075  12.304  42.774   3.342
68008W        W41076  10.825  17.377   3.613
68009W        W41077  21.667  11.514  10.522
68010W        W41078  31.118  23.975  11.057
68011W        W41079   2.506  23.572   3.731
68012W        W41080  31.137   3.583   3.130
68013W        W41081   2.944   2.992   0.868
68014W        W41082  15.550  27.540   4.113
68015W        W41083  11.065   5.960   4.100
68016W        W41084  21.899   8.832   4.483
68017W        W41085  25.546  21.316   4.191
68018W        W41086  12.826   0.317  11.919
68019W        W41087  44.460  35.650  10.634
68020W        W41088  33.848  30.643  13.899
68021W        W41089  36.532  42.470  12.955
68022W        W41090  25.138  21.967  13.772
68023W        W41091   4.163  13.639  11.114
68024W        W41092   6.321   2.386  12.584
68025W        W41093   8.302  30.115  14.374
68026W        W41094  22.066  35.510   2.750
68027W        W41095  19.492  25.472  13.940
68028W        W41096  15.179   9.809   3.174
68029W        W41097  35.913  37.767   4.290
68030W        W41098  15.616  26.659  11.549
68031W        W41099   6.303  12.026   1.871
68032W        W41100  21.732   2.258  13.929
68033W        W41101  17.782  31.000   4.449
68034W        W41102  20.268  30.424  10.602
68035W        W41103  29.148   7.865   3.096
68036W        W41104  15.515  27.218  13.341
68037W        W41105   3.681   7.726   1.307
68038W        W41106  21.098   8.330   4.562
68039W        W41107   9.698  31.285  14.272
68040W        W41108   0.841  16.837   0.362
68041W        W41109  31.361  40.794  12.872
68042W        W41110   0.611   2.493   0.495
68043W        W41111  10.700  24.459  13.771
68044W        W41112  37.344  38.332  11.500
68045W        W41113  24.131   3.481   2.510
68046W        W41114  24.244  16.419  13.963
68047W        W41115  40.131  34.124  12.299
68048W        W41116  20.969  31.964   4.450
68049W        W41117  24.251  11.755   3.243
68050W        W41118  15.723  31.186  14.743
68051W        W41119  30.104  24.698   2.705
68052W        W41120   9.176  18.578  11.375
68053W        W41121  37.561  43.285  13.681
68054W        W41122  41.834   9.377  11.291
68055W        W41123  43.426  22.724   3.186
68056W        W41124  35.123  32.943   1.100
68057W        W41125   8.250  24.087   0.395
68058W        W41126  25.219   1.900  11.629
68059W        W41127   4.558  41.804   3.052
68060W        W41128  14.383  14.847  12.453
68061W        W41129  29.135   0.989   3.567
68062W        W41130  19.807  25.517   1.756
68063W        W41131   0.623  15.497   4.937
68064W        W41132  44.268   6.876  11.646
68065W        W41133  26.003  33.250   0.037
68066W        W41134  33.459   3.730  14.615
68067W        W41135  12.289  10.847   0.684
68068W        W41136   8.642  32.143  10.961
68069W        W41137  34.912  44.299   5.008
68070W        W41138   6.954  19.466   2.815
68071W        W41139  30.177  37.427  13.546
68072W        W41140   3.811  39.059   4.319
68073W        W41141  27.544  31.582  14.355
68074W        W41142  23.194  16.906   2.006
68075W        W41143  43.804  26.386   0.031
68076W        W41144   9.317   5.290   2.161
68077W        W41145  37.451  36.906   4.422
68078W        W41146  37.916  34.096   2.691
68079W        W41147  30.588  44.978  13.305
68080W        W41148  18.715  22.267   3.893
68081W        W41149  11.397  41.863  13.475
68082W        W41150  41.418   9.419   0.059
68083W        W41151  17.982   6.913   1.714
68084W        W41152   2.838   9.222  12.608
68085W        W41153  28.610  31.403   2.675
68086W        W41154   2.268  10.691   1.297
68087W        W41155  20.634  21.141  13.550
68088W        W41156  34.603  26.660   0.935
68089W        W41157  19.797  23.599   4.688
68090W        W41158  42.509  24.586   3.306
68091W        W41159  26.071  11.329  12.927
68092W        W41160  30.962  12.749  13.968
68093W        W41161  28.875  35.567   2.249
68094W        W41162  28.665  40.121  11.689
68095W        W41163   9.196  29.208  12.586
68096W        W41164  10.802  20.153   1.519
68097W        W41165  17.633   3.706   1.341
68098W        W41166  24.385   3.810   1.206
68099W        W41167   9.685  27.930   1.755
68100W        W41168  43.506  10.469  10.766
68101W        W41169  17.069  42.751   3.741
68102W        W41170  27.729   2.279  13.847
68103W        W41171  28.110  21.679  14.155
68104W        W41172  33.784  31.787  13.394
68105W        W41173  17.685  36.670  12.561
68106W        W41174  33.969  29.038   0.759
68107W        W41175  33.411   3.456  12.162
68108W        W41176  10.095   4.925   3.206
68109W        W41177  16.436  33.979  10.791
68110W        W41178  18.991   4.426   2.267
68111W        W41179  41.584  21.442  11.144
68112W        W41180  36.512  43.757   4.214
68113W        W41181  41.859  19.105   0.823
68114W        W41182  23.992  35.343   4.600
68115W        W41183  25.908   1.016  10.784
68116W        W41184  23.898  15.075  13.406
68117W        W41185  43.843  41.477   1.520
68118W        W41186   0.006   5.379  14.427
68119W        W41187  40.456  18.079  10.696
68120W        W41188   2.310  12.146   3.225
68121W        W41189   5.886  24.261  13.462
68122W        W41190  32.901  13.079  12.963
68123W        W41191   2.687   3.293   2.669
68124W        W41192   7.890  10.990  13.947
68125W        W41193   1.440  17.983  12.415
68126W        W41194  26.225  28.259   1.764
68127W        W41195  22.663   1.017  13.380
68128W        W41196  11.825   6.182  13.698
68129W        W41197  12.245  23.511  14.154
68130W        W41198  17.040  39.842  14.797
68131W        W41199   9.817  21.464   0.265
68132W        W41200  18.548  37.336   3.269
68133W        W41201  37.910  31.079   1.393
68134W        W41202  25.361  25.568  11.415
68135W        W41203  37.880  35.351  14.406
68136W        W41204  37.297  44.972  14.977
68137W        W41205  25.759  36.050   4.454
68138W        W41206   1.457  23.108  13.292
68139W        W41207  30.110  17.270   3.282
68140W        W41208  13.620  42.882  14.490
68141W        W41209  25.713  15.228   1.663
68142W        W41210  31.090  39.319  10.647
68143W        W41211  17.443   3.340   1.945
68144W        W41212  44.488  19.494   1.144
68145W        W41213  32.622  10.022  12.011
68146W        W41214  28.073  21.146   2.426
68147W        W41215   2.384  29.990  13.406
68148W        W41216  41.130   4.206   1.685
68149W        W41217   7.019  40.992   4.927
68150W        W41218  37.148  31.539  12.078
68151W        W41219  34.357  14.317   4.165
68152W        W41220  26.287  34.567   0.179
68153W        W41221  28.663   4.183   1.221
68154W        W41222  19.217  24.151  12.848
68155W        W41223  36.820  35.141   2.345
68156W        W41224  43.511   6.927  14.385
68157W        W41225  28.159  12.200  10.650
68158W        W41226  12.623  17.203   0.893
68159W        W41227  20.750  15.768  14.939
68160W        W41228  39.811  30.594  12.996
68161W        W41229   7.269  31.704   0.309
68162W        W41230  20.322  42.877  10.983
68163W        W41231  19.363  19.384  11.193
68164W        W41232  37.110  41.377  13.738
68165W        W41233  29.032   9.790  14.010
68166W        W41234  15.825   8.187  11.501
68167W        W41235  14.625   5.481   0.564
68168W        W41236  13.183  27.758  10.639
68169W        W41237   0.362   6.859   2.921
68170W        W41238  43.841  24.512  13.766
68171W        W41239   1.721  36.412   4.209
68172W        W41240  30.051  11.774  13.808
68173W        W41241   6.470  17.696   1.991
68174W        W41242  37.757  36.670   2.812
68175W        W41243  36.210  13.125   0.757
68176W        W41244  10.276  23.429  10.701
68177W        W41245  11.349  36.445  14.926
68178W        W41246  22.976  15.591  10.467
68179W        W41247  23.025  21.882  12.163
68180W        W41248  18.749   2.252   2.881
68181W        W41249  26.127  18.758  14.362
68182W        W41250  31.878  23.124  13.792
68183W        W41251  37.391   5.694   2.967
68184W        W41252  36.497  12.054  14.947
68185W        W41253  15.094  37.605   2.479
68186W        W41254  15.178  27.777   1.910
68187W        W41255  35.584  18.168   0.771
68188W        W41256  22.928  14.517   0.849
68189W        W41257  36.047  24.428   2.629
68190W        W41258  30.559  27.395  14.103
68191W        W41259  25.723   3.273   0.061
68192W        W41260  25.956  24.908  13.938
68193W        W41261  17.192  33.478   4.971
68194W        W41262   9.207  39.996   2.381
68195W        W41263  14.089  41.930   0.411
68196W        W41264  32.576  31.889   2.800
68197W        W41265  14.624  14.338  12.095
68198W        W41266  22.651  20.210  11.078
68199W        W41267  37.646  24.742   4.607
68200W        W41268  25.833  25.682  11.586
68201W        W41269  41.031  23.801   2.280
68202W        W41270   4.497  32.694   4.302
68203W        W41271  24.693  24.880   1.941
68204W        W41272   2.350  10.603  11.502
68205W        W41273  33.075  39.982   4.517
68206W        W41274  38.291  44.905  10.168
68207W        W41275  33.094  30.088  14.923
68208W        W41276   0.776   9.325  11.401
68209W        W41277   9.497  44.357  11.143
68210W        W41278  12.411   0.913  13.914
68211W        W41279   2.841  29.229  10.363
68212W        W41280  11.551  39.568  11.205
68213W        W41281  35.903  31.970  11.189
68214W        W41282  41.939   0.223   4.153
68215W        W41283   1.228  14.365  12.942
68216W        W41284   9.622   9.367  11.024
68217W        W41285  20.071  39.835   0.343
68218W        W41286   3.597   8.635  11.139
68219W        W41287  13.313  36.859   1.926
68220W        W41288  44.330  27.460  10.882
68221W        W41289   2.803   0.047   2.706
68222W        W41290  21.701  14.390  14.361
68223W        W41291  16.554  39.710   2.321
68224W        W41292  10.871   2.727  14.228
68225W        W41293  43.743  13.205   2.027
68226W        W41294   3.494  19.124  11.080
68227W        W41295  32.361  10.408  11.074
68228W        W41296   0.313  18.128  10.751
68229W        W41297   9.722  37.454   1.467
68230W        W41298  17.748   0.723  11.958
68231W        W41299  29.508  14.300  14.536
68232W        W41300   0.520   0.905   2.852
68233W        W41301   5.672  44.562  12.514
68234W        W41302  36.956  28.359  12.113
68235W        W41303  35.512  16.160  13.072
68236W        W41304  11.871  42.955   1.223
68237W        W41305  19.568  16.323  11.170
68238W        W41306  24.900  27.071   3.584
68239W        W41307  16.647  23.283  11.648
68240W        W41308  43.457  33.259   3.503
68241W        W41309   9.158  35.840  11.356
68242W        W41310  19.275   9.173  11.555
68243W        W41311  10.081  32.092   1.355
68244W        W41312   9.546   5.474  11.650
68245W        W41313  36.384  35.800  10.704
68246W        W41314  12.772  19.489   1.435
68247W        W41315  40.831   1.302   2.327
68248W        W41316  39.323  29.041  11.905
68249W        W41317  13.864  42.974  10.649
68250W        W41318  20.163   0.613   1.420
68251W        W41319  41.901  27.500  10.802
68252W        W41320   8.666  35.994   4.836
68253W        W41321  43.853  30.623  10.689
68254W        W41322  33.938   8.918  14.773
68255W        W41323  29.691  26.931  14.046
68256W        W41324  32.511  35.541  10.555
68257W        W41325   1.045  41.095  14.818
68258W        W41326   7.745  41.144   1.757
68259W        W41327   7.807  38.980   4.094
68260W        W41328  22.999  34.204   0.710
68261W        W41329  29.720  34.609  10.791
68262W        W41330   0.526  11.063   1.204
68263W        W41331  42.833  21.029   4.505
68264W        W41332  35.828  23.686   2.321
68265W        W41333  21.643  24.404   0.351
68266W        W41334  18.720  35.039   3.291
68267W        W41335  11.433  41.980   1.223
68268W        W41336  18.795  14.299  12.499
68269W        W41337  26.457  39.436   1.192
68270W        W41338  11.344  24.586   0.959
68271W        W41339  44.889  35.197  14.006
68272W        W41340  30.841   7.178  13.052
68273W        W41341   1.235  22.296   4.469
68274W        W41342  20.702  23.001  14.387
68275W        W41343  30.990   2.492   0.815
68276W        W41344  18.140  14.277   4.391
68277W        W41345  18.316  22.182   0.049
68278W        W41346  28.699   2.389  13.919
68279W        W41347  11.093  21.571  10.470
68280W        W41348  15.041  43.142  13.518
68281W        W41349  13.630  20.071  11.399
68282W        W41350   7.667  23.081  10.259
68283W        W41351   8.850  26.970  12.518
68284W        W41352  39.990   1.339  12.856
68285W        W41353  36.703  26.037   1.369
68286W        W41354  30.324  15.362   2.223
68287W        W41355  35.599  28.034   2.818
68288W        W41356  18.183  33.123   4.667
68289W        W41357  21.022  41.899  14.481
68290W        W41358  18.976  20.768   0.313
68291W        W41359  20.467  30.149   2.859
68292W        W41360  29.582  42.331   4.555
68293W        W41361   6.628  40.045  14.077
68294W        W41362  31.954  16.203  14.454
68295W        W41363  11.574  29.597   2.400
68296W        W41364  30.399   1.870  14.377
68297W        W41365   6.458   6.762   3.205
68298W        W41366  11.696  28.853  11.145
68299W        W41367   6.442   4.294  10.485
68300W        W41368  15.339  32.147   0.697
68301W        W41369  34.894  29.091   3.346
68302W        W41370  12.675   3.912  10.511
68303W        W41371  39.067  22.292   2.370
68304W        W41372   4.964  19.550  11.543
68305W        W41373  33.907  33.166   2.666
68306W        W41374  32.992  30.604  14.783
68307W        W41375  43.065  21.188   3.519
68308W        W41376  36.014   2.197   2.422
68309W        W41377  29.865  43.922   3.388
68310W        W41378  43.529  22.228  12.020
68311W        W41379  37.139   6.149  11.952
68312W        W41380  38.040  27.172   0.722
68313W        W41381  37.099  36.624   0.297
68314W        W41382  16.725   6.131   3.371
68315W        W41383  35.515  31.196  14.463
68316W        W41384  23.997   6.205  13.044
68317W        W41385   2.839  22.634  14.765
68318W        W41386   4.850  25.144   3.860
68319W        W41387  25.140  22.704  11.061
68320W        W41388  11.213  22.617   2.004
68321W        W41389  43.440  25.012   1.056
68322W        W41390  23.905  36.366  10.575
68323W        W41391  15.801  19.903  11.001
68324W        W41392  35.368  12.658  14.330
68325W        W41393  19.314  37.867   3.238
68326W        W41394  17.507  25.096  12.117
68327W        W41395   1.881   7.094  14.980
68328W        W41396  15.774  24.546   0.206
68329W        W41397  42.940  15.790  10.094
68330W        W41398   4.302  21.471  12.069
68331W        W41399  36.789  36.015  12.860
68332W        W41400  34.209  29.167   1.632
68333W        W41401  12.067  24.956  13.556
68334W        W41402  40.663   6.893   4.166
68335W        W41403   2.432  18.392   3.886
68336W        W41404  28.408  15.744   1.800
68337W        W41405  27.412  29.627   1.874
68338W        W41406  37.862  17.994   3.831
68339W        W41407   5.372  15.002   3.269
68340W        W41408  22.663  32.187  13.495
68341W        W41409  37.816   8.401   1.913
68342W        W41410  40.461  26.602   4.678
68343W        W41411  38.368   7.168   0.769
68344W        W41412  44.990  39.853   4.168
68345W        W41413   0.514  16.208   0.834
68346W        W41414  22.712   8.757   0.994
68347W        W41415  13.512  15.110   0.695
68348W        W41416   7.265  33.500  13.750
68349W        W41417  33.980   6.222   4.284
68350W        W41418  23.700  25.626   3.878
68351W        W41419   8.847  17.712  14.748
68352W        W41420   2.283  12.780   2.793
68353W        W41421   2.341  30.174  12.937
68354W        W41422  43.969  17.176  11.125
68355W        W41423  21.405  12.894  12.506
68356W        W41424  38.767   3.778   2.134
68357W        W41425  13.377   0.334  11.939
68358W        W41426  26.298  10.837   1.250
68359W        W41427  44.335   5.101   3.704
68360W        W41428   6.233  30.240  12.072
68361W        W41429  18.308  34.590  14.954
68362W        W41430   6.734   8.999   0.881
68363W        W41431   6.502   3.756  10.854
68364W        W41432   3.725  44.393   2.865
68365W        W41433  23.631  32.549  14.863
68366W        W41434   6.918   0.061  11.154
68367W        W41435   9.544  23.595   4.202
68368W        W41436  42.373  12.029  14.556
68369W        W41437  16.321  19.805  11.032
68370W        W41438   7.934   4.319  13.987
68371W        W41439  31.106  31.011   2.300
68372W        W41440  42.011  30.491  14.188
68373W        W41441  28.386  12.684  10.762
68374W        W41442  23.437  20.163  14.755
68375W        W41443  11.555   9.901   0.717
68376W        W41444  21.537  28.510  10.648
68377W        W41445  17.332   1.864  12.073
68378W        W41446  37.230  30.055   3.779
68379W        W41447  39.954  12.592  11.667
68380W        W41448   5.856  18.301   0.486
68381W        W41449  28.829  21.902   1.218
68382W        W41450  10.852  37.958   1.313
68383W        W41451  21.210  27.730  10.661
68384W        W41452   7.150   2.325  11.193
68385W        W41453  29.659  34.730  12.054
68386W        W41454  43.251   5.568   0.576
68387W        W41455  38.746  12.080  14.438
68388W        W41456  44.862  37.087   4.285
68389W        W41457  33.501  34.824   4.815
68390W        W41458  16.347  32.257   2.584
68391W        W41459  33.616  35.908  13.524
68392W        W41460  22.983  35.035  12.591
68393W        W41461   2.415  11.341  12.085
68394W        W41462  29.529  43.295   0.814
68395W        W41463  27.989  28.726   3.951
68396W        W41464  15.315  39.017  14.158
68397W        W41465  23.138   2.506   3.726
68398W        W41466  19.787  40.395   1.374
68399W        W41467  35.098  29.514   4.767
68400W        W41468  34.551  36.511  11.540
68401W        W41469  17.053   5.197  12.901
68402W        W41470  26.082  30.143   0.755
68403W        W41471  12.705  16.087   1.234
68404W        W41472  37.042   0.891  13.836
68405W        W41473  27.502  30.460   0.465
68406W        W41474  11.902  29.330   1.074
68407W        W41475  11.464  20.418  11.896
68408W        W41476   4.957  20.574   1.319
68409W        W41477  14.244  21.231   4.735
68410W        W41478  12.598  27.322  12.883
68411W        W41479  15.677  26.424   0.839
68412W        W41480   0.799  43.144  10.319
68413W        W41481  18.175  44.270   3.681
68414W        W41482  18.148   2.930   0.299
68415W        W41483  32.588  43.369   3.670
68416W        W41484  30.705  35.605   2.787
68417W        W41485  29.788  13.894   1.150
68418W        W41486  34.731  34.168   4.540
68419W        W41487  28.719   7.656   4.535
68420W        W41488  16.170  31.021   3.239
68421W        W41489   9.283  39.180  11.663
68422W        W41490  22.196  30.133   3.770
68423W        W41491   7.953   4.770  14.309
68424W        W41492   9.248  14.429  11.219
68425W        W41493  13.589   7.800  13.858
68426W        W41494  25.136  29.423   3.241
68427W        W41495  17.815   4.812   1.774
68428W        W41496  19.262  12.628   0.323
68429W        W41497  35.115   8.699  12.893
68430W        W41498   9.483  38.618   4.122
68431W        W41499  15.280  30.885   4.424
68432W        W41500  13.832  41.755  10.678
68433W        W41501  26.413  31.074  10.678
68434W        W41502   2.959  29.795   0.922
68435W        W41503  23.694   3.655  10.492
68436W        W41504  28.490  39.770   4.687
68437W        W41505  23.437  31.622  12.607
68438W        W41506  17.672   0.464   2.400
68439W        W41507  15.971   0.739  10.877
68440W        W41508   0.810  37.662  13.027
68441W        W41509  29.854   0.028   0.692
68442W        W41510   6.163  18.355  10.072
68443W        W41511  37.332   7.954   1.446
68444W        W41512  39.533  22.731   3.492
68445W        W41513  13.838  10.238  14.532
68446W        W41514  28.136  35.047  10.462
68447W        W41515  33.046   8.891   2.315
68448W        W41516  40.791  40.696   2.344
68449W        W41517  37.117   2.820   3.641
68450W        W41518  15.340  43.488  14.416
68451W        W41519  24.543  27.982   3.374
68452W        W41520  12.276  21.485   2.774
68453W        W41521   2.417  15.125   3.242
68454W        W41522   9.897  44.463   0.350
68455W        W41523  12.125   1.760   3.398
68456W        W41524   4.880  28.057   4.121
68457W        W41525   8.182  27.334  11.125
68458W        W41526   7.962  20.709   0.719
68459W        W41527  32.403  40.040   1.196
68460W        W41528  15.358   1.340  12.475
68461W        W41529  19.520  32.367   3.604
68462W        W41530  42.594  44.499  13.514
68463W        W41531  28.157   7.419  12.489
68464W        W41532  32.064  20.024  14.789
68465W        W41533  12.278  21.847   4.153
68466W        W41534  17.455  27.162   2.376
68467W        W41535  44.930  42.387   3.663
68468W        W41536  10.955  42.518   2.271
68469W        W41537   1.097   6.206   3.795
68470W        W41538  13.185  25.604  12.789
68471W        W41539   6.211  14.591  10.425
68472W        W41540  38.122  33.376  12.952
68473W        W41541  35.094   9.932  13.309
68474W        W41542  42.761  25.468  12.522
68475W        W41543  14.849   7.365   3.882
68476W        W41544  13.426  39.020  10.964
68477W        W41545  22.725  33.954   4.649
68478W        W41546  41.055  21.795  13.252
68479W        W41547  32.036  12.633  13.143
68480W        W41548   8.303  39.872  11.517
68481W        W41549  16.421  34.792   1.864
68482W        W41550  39.784  19.792  12.906
68483W        W41551  23.726  18.028  13.403
68484W        W41552  19.711  15.978  11.712
68485W        W41553  14.196  20.197  11.987
68486W        W41554   3.730  34.977  11.118
68487W        W41555  16.048  35.110   1.710
68488W        W41556  31.911  22.710   4.840
68489W        W41557  20.252  12.614  11.065
68490W        W41558  39.842  23.491   0.849
68491W        W41559  41.027  33.377   1.217
68492W        W41560  11.271  15.856   0.258
68493W        W41561  41.061  28.777   0.481
68494W        W41562  43.335  10.208   2.648
68495W        W41563   8.680  11.237   1.264
68496W        W41564  30.738  26.455  11.503
68497W        W41565   2.015  17.130   2.307
68498W        W41566  28.225   7.648  14.288
68499W        W41567  41.197  30.488  14.930
68500W        W41568   2.973  18.337   2.254
68501W        W41569  12.947  33.451  11.189
68502W        W41570  35.887  42.240  13.159
68503W        W41571  35.078  22.391   1.758
68504W        W41572  23.713  26.115   4.632
68505W        W41573  29.036   1.200  10.517
68506W        W41574  10.658  24.454   1.945
68507W        W41575  21.309   7.653  11.125
68508W        W41576  18.553  25.004  12.233
68509W        W41577   8.373  11.432   1.871
68510W        W41578  16.615  20.716  12.016
68511W        W41579   6.919  19.556   0.949
68512W        W41580  18.914   0.727   4.171
68513W        W41581  31.959  38.080  12.993
68514W        W41582  12.424  20.579  11.596
68515W        W41583  42.574  18.498  12.442
68516W        W41584  26.300  12.293   3.896
68517W        W41585   5.149  23.164  12.888
68518W        W41586   7.393  39.392   4.720
68519W        W41587  30.668  16.724  12.112
68520W        W41588  25.053  29.132  14.226
68521W        W41589  29.630  44.472   1.648
68522W        W41590  33.864  21.945  11.498
68523W        W41591  12.633  13.077   1.115
68524W        W41592  40.000  21.502  10.723
68525W        W41593  22.238   4.897   4.959
68526W        W41594  11.718  34.693  14.441
68527W        W41595  13.538  44.050   3.649
68528W        W41596  21.608  33.965   3.227
68529W        W41597   3.289  12.285  11.012
68530W        W41598   9.733  33.811   2.298
68531W        W41599  24.836   1.662  14.986
68532W        W41600  23.138   8.158   0.500
68533W        W41601  19.686  25.847  14.958
68534W        W41602  24.232  43.554  11.119
68535W        W41603  44.956  17.258   3.215
68536W        W41604  20.084  34.751  10.384
68537W        W41605  17.150   1.487   1.844
68538W        W41606  27.914   2.079  14.324
68539W        W41607   8.161  34.125   3.397
68540W        W41608  35.605  24.738   0.896
68541W        W41609  31.143   2.342  12.506
68542W        W41610  28.235  35.259  11.974
68543W        W41611  18.674  12.650  14.959
68544W        W41612  23.852  43.928  13.182
68545W        W41613   1.085  41.754  13.624
68546W        W41614  18.557  13.262  13.225
68547W        W41615   7.759  16.300  10.576
68548W        W41616  29.706  16.132  13.010
68549W        W41617  25.584  14.062  10.603
68550W        W41618   4.869  37.837   4.834
68551W        W41619  41.376   7.242  12.875
68552W        W41620  31.902  15.009   0.470
68553W        W41621  18.489  30.484   1.896
68554W        W41622   1.435  22.435   1.713
68555W        W41623  39.454  14.550   1.788
68556W        W41624   4.259  42.301  13.899
68557W        W41625   5.462  27.650   1.223
68558W        W41626  12.455  40.598  12.390
68559W        W41627   0.985  10.042   4.113
68560W        W41628  22.402  35.425  13.433
68561W        W41629  44.320   9.146   0.502
68562W        W41630  35.153  36.867   0.790
68563W        W41631   7.743   9.478   3.015
68564W        W41632  42.777   1.512   3.360
68565W        W41633  30.394   7.651  14.918
68566W        W41634  35.472   0.719  13.992
68567W        W41635   8.217   1.444   0.888
68568W        W41636   9.896  12.503   4.719
68569W        W41637   8.482  36.403  11.549
68570W        W41638  22.188  24.645   0.574
68571W        W41639  35.257   2.950   1.263
68572W        W41640  35.409  28.606   1.215
68573W        W41641   1.442  43.858   1.239
68574W        W41642  16.665  31.371   4.716
68575W        W41643  31.904  41.485   1.201
68576W        W41644   5.779  42.587   1.417
68577W        W41645  44.989  20.651  10.512
68578W        W41646  37.628  38.116   1.615
68579W        W41647  36.054  16.437   0.263
68580W        W41648  40.635   5.747  14.258
68581W        W41649  38.698  32.497  14.062
68582W        W41650  25.750  20.743   2.177
68583W        W41651  41.009  44.073  14.771
68584W        W41652   8.158   4.250   1.544
68585W        W41653  27.403   8.833   1.753
68586W        W41654  29.121  41.726   3.167
68587W        W41655   6.927   9.757   3.217
68588W        W41656   1.554  36.071  12.795
68589W        W41657  41.277  38.056  13.986
68590W        W41658  42.805  37.480  14.692
68591W        W41659  42.018  12.628  11.010
68592W        W41660  23.044  40.799  11.052
68593W        W41661  24.823  16.548   1.637
68594W        W41662  27.962  35.660   4.255
68595W        W41663  30.903  32.871   4.665
68596W        W41664  28.781  42.574  12.486
68597W        W41665  21.198   3.874  12.801
68598W        W41666  21.534  16.114  13.425
68599W        W41667  20.753   7.108  13.982
68600W        W41668  43.726  31.110  14.339
68601W        W41669  40.091   5.771   2.388
68602W        W41670  10.763  11.679   3.593
68603W        W41671  13.240  33.901   4.653
68604W        W41672   5.410  11.925   3.888
68605W        W41673  16.002  11.746  10.600
68606W        W41674  10.380  26.102   4.626
68607W        W41675  13.609  23.984  13.818
68608W        W41676  29.009  39.714   3.587
68609W        W41677   7.401  27.169   1.749
68610W        W41678   8.173  25.646  11.682
68611W        W41679  18.843   6.378  12.487
68612W        W41680  33.959  23.003  12.339
68613W        W41681  31.821  28.812   4.168
68614W        W41682  16.518  30.134  12.500
68615W        W41683  12.393   9.410   4.099
68616W        W41684  23.564  27.014  14.233
68617W        W41685  21.944  36.459   4.759
68618W        W41686   8.421  10.939   3.114
68619W        W41687  37.064  43.848  10.743
68620W        W41688  19.597   0.792  10.219
68621W        W41689   3.444  10.724  14.571
68622W        W41690  35.589  25.275  10.607
68623W        W41691  20.232  40.361   3.605
68624W        W41692  20.066  44.772   4.592
68625W        W41693   9.695  16.326  12.597
68626W        W41694  35.710   6.750   2.402
68627W        W41695  28.937   9.755   0.564
68628W        W41696  26.070  36.975   0.189
68629W        W41697  12.391  13.968   3.786
68630W        W41698   2.291  11.575   1.256
68631W        W41699  26.090  27.240  14.983
68632W        W41700  11.344   4.696  12.110
68633W        W41701   9.669  30.946   2.250
68634W        W41702  41.434  22.244  13.335
68635W        W41703   6.828  35.726  12.364
68636W        W41704  16.264  37.828  14.733
68637W        W41705  20.091  23.125  13.060
68638W        W41706  32.682  12.251  13.474
68639W        W41707  38.015  24.192   3.758
68640W        W41708  27.493   8.428   2.623
68641W        W41709  42.418  17.085  10.775
68642W        W41710  11.347  36.214   2.153
68643W        W41711  43.998  31.429  11.604
68644W        W41712  20.728  40.736  10.610
68645W        W41713  31.713  16.580   1.784
68646W        W41714  30.053  27.898   4.548
68647W        W41715  23.080  44.743  12.599
68648W        W41716  25.660  11.642   4.036
68649W        W41717  23.261  28.758   3.809
68650W        W41718  44.027  36.930   3.294
68651W        W41719  42.304  34.615  11.197
68652W        W41720  31.557   2.215   3.298
68653W        W41721  15.335   8.787  10.810
68654W        W41722  24.262  15.829  14.417
68655W        W41723   6.184   8.004   4.138
68656W        W41724  30.028  42.326   0.459
68657W        W41725   2.897  16.291  13.018
68658W        W41726  15.303  20.818   3.795
68659W        W41727  42.071  16.682   2.132
68660W        W41728   4.220  43.013   2.377
68661W        W41729  43.765  27.750  14.356
68662W        W41730  44.382  28.949  14.770
68663W        W41731   6.926   4.905  14.409
68664W        W41732  20.061  27.478  11.515
68665W        W41733  21.170  33.337  13.032
68666W        W41734  42.651  37.523  11.130
68667W        W41735  37.593  35.088  10.724
68668W        W41736  36.510  42.895  13.956
68669W        W41737  36.312  20.968  11.182
68670W        W41738   5.213  40.764  14.412
68671W        W41739  16.160   1.682  12.988
68672W        W41740  28.010  15.758   9.944
68673W        W41741  21.702  32.350  11.091
68674W        W41742  32.557  22.528  10.650
68675W        W41743  40.356  22.155   2.793
68676W        W41744  10.808  36.941  11.802
68677W        W41745  30.317  26.493  11.184
68678W        W41746   1.756  30.563   2.748
68679W        W41747  36.657  20.565  13.935
68680W        W41748  11.911  30.607   1.736
68681W        W41749  40.631  30.468  13.507
68682W        W41750  11.673  16.182  14.484
68683W        W41751  34.563  35.147   4.207
68684W        W41752  19.904  17.873  14.513
68685W        W41753  22.442  34.459   2.357
68686W        W41754  27.023  43.475   1.073
68687W        W41755  22.575  29.020   4.389
68688W        W41756  38.603  17.531  14.275
68689W        W41757  35.563   8.288  12.406
68690W        W41758   2.356  19.496  14.973
68691W        W41759  10.333  14.802   3.342
68692W        W41760  23.542  42.938  12.996
68693W        W41761  17.551   0.965   3.612
68694W        W41762  27.569  18.337   3.577
68695W        W41763   2.239  44.934   0.223
68696W        W41764  39.199  11.700   3.272
68697W        W41765  23.058  17.663   0.498
68698W        W41766  40.567  44.681   3.229
68699W        W41767  16.589  13.300  11.377
68700W        W41768   1.418  20.196  14.856
68701W        W41769  25.283   8.654   4.847
68702W        W41770  25.636   5.702   4.180
68703W        W41771   1.095   4.640  13.036
68704W        W41772  26.645  27.268   2.223
68705W        W41773  36.869  44.458   2.354
68706W        W41774  38.155  42.667  13.870
68707W        W41775  31.887   8.763   1.697
68708W        W41776  27.191   7.795  12.478
68709W        W41777  34.777  36.051  11.567
68710W        W41778  16.298  40.871  12.414
68711W        W41779  32.348  26.390   4.680
68712W        W41780  43.894  34.931   3.144
68713W        W41781  28.304  32.369  10.965
68714W        W41782   4.972  35.632   0.383
68715W        W41783  43.939  18.132  13.519
68716W        W41784  30.584  41.268   0.723
68717W        W41785  42.570  30.171  13.890
68718W        W41786   9.516  33.678  14.390
68719W        W41787  14.333  25.224  10.414
68720W        W41788  25.681  32.709   2.367
68721W        W41789  33.936  18.940   4.217
68722W        W41790  32.183   9.919  11.139
68723W        W41791  42.511  21.859   2.880
68724W        W41792  35.466  23.898  12.429
68725W        W41793  24.214  10.076   4.020
68726W        W41794  21.789  29.619  12.493
68727W        W41795  16.042  35.886   3.121
68728W        W41796  17.503  44.490  13.542
68729W        W41797  15.577  17.280  14.963
68730W        W41798  43.226  21.306  12.392
68731W        W41799  20.622  23.052  11.579
68732W        W41800   0.000  10.540   2.398
68733W        W41801  28.247  28.584  12.106
68734W        W41802  37.128  20.424  11.522
68735W        W41803  10.304   6.504  11.919
68736W        W41804  22.264  30.737   2.726
68737W        W41805  32.866  33.459  10.903
68738W        W41806  40.494   6.343  11.933
68739W        W41807  13.329  11.040   3.164
68740W        W41808  37.587  41.905  13.084
68741W        W41809  43.741  33.374   1.756
68742W        W41810  35.038   2.713  11.521
68743W        W41811   8.279  44.659   2.384
68744W        W41812  12.072  14.613  11.076
68745W        W41813  23.163  18.340   4.049
68746W        W41814   1.938  30.064   4.031
68747W        W41815   3.741  21.205   1.651
68748W        W41816  20.046  18.035   2.767
68749W        W41817  29.273  35.918   1.864
68750W        W41818   4.572  23.231   4.106
68751W        W41819  31.380   1.859  10.650
68752W        W41820  21.600  19.560  14.875
68753W        W41821  22.313   3.002  11.312
68754W        W41822  38.381  15.850  11.615
68755W        W41823  15.759  41.132  11.420
68756W        W41824  30.069  27.790   3.272
68757W        W41825  10.867   9.145  14.918
68758W        W41826  17.202   4.662   2.817
68759W        W41827  35.071  35.003   2.293
68760W        W41828   2.021  22.616   3.732
68761W        W41829  25.421   7.907   3.675
68762W        W41830  23.670  20.642  14.033
68763W        W41831   5.945  14.283   0.488
68764W        W41832  32.609  24.740   4.324
68765W        W41833  29.467   1.461  12.017
68766W        W41834  43.073  27.197  11.547
68767W        W41835  33.173  28.471  13.906
68768W        W41836  17.611  31.406   4.163
68769W        W41837  14.606   7.045  11.724
68770W        W41838  36.978   2.444  11.644
68771W        W41839   9.763  38.565  10.366
68772W        W41840  24.726  26.681   2.776
68773W        W41841  42.028  19.581   0.738
68774W        W41842  10.881  26.729  11.963
68775W        W41843  21.496  29.543  13.503
68776W        W41844  29.202  27.583   3.029
68777W        W41845  27.172  15.854  11.566
68778W        W41846  20.301  30.585  12.419
68779W        W41847  20.706  44.733  12.275
68780W        W41848  12.220  34.012  13.239
68781W        W41849   7.215  11.533  14.514
68782W        W41850  10.429  35.626  11.194
68783W        W41851  19.499   8.950  13.051
68784W        W41852  31.100  22.009  12.055
68785W        W41853  11.681  37.774   2.151
68786W        W41854   4.416  43.575  13.370
68787W        W41855  15.223   0.794  13.895
68788W        W41856  20.650  38.913  13.830
68789W        W41857  42.478  44.881  11.361
68790W        W41858   2.842  38.891  12.892
68791W        W41859  28.443  38.879  10.702
68792W        W41860  31.956   0.301   2.413
68793W        W41861   9.894  30.100   2.958
68794W        W41862  24.837  28.382   3.202
68795W        W41863  24.196  31.085   3.052
68796W        W41864  43.543  35.958  12.413
68797W        W41865  40.387  29.108   1.457
68798W        W41866  27.000  38.146   2.709
68799W        W41867  19.696  16.809   1.744
68800W        W41868  29.031   3.090  12.819
68801W        W41869  31.532  42.855   4.385
68802W        W41870  23.165   4.650   0.439
68803W        W41871  23.207  12.682   0.230
68804W        W41872  42.538   6.401  10.802
68805W        W41873  22.115  25.705   0.372
68806W        W41874   4.415  18.554   3.297
68807W        W41875  43.878  36.175  11.129
68808W        W41876  34.923  32.131   4.612
68809W        W41877   9.682  15.187  14.993
68810W        W41878  12.840   1.905   4.137
68811W        W41879  36.193  30.463   3.235
68812W        W41880  23.822  26.626   0.901
68813W        W41881   5.085  13.236  11.453
68814W        W41882  16.295  17.713   2.522
68815W        W41883  41.122   5.811  14.554
68816W        W41884   8.792  28.996  12.828
68817W        W41885  21.440  22.319   1.265
68818W        W41886   7.129  39.656   5.416
68819W        W41887  43.925  18.119   3.284
68820W        W41888  27.677  19.569   3.305
68821W        W41889   4.913  43.414   2.199
68822W        W41890  13.206  36.426   1.669
68823W        W41891  31.018  34.504  14.009
68824W        W41892  14.661  32.383   0.440
68825W        W41893  30.728   9.390   2.912
68826W        W41894  27.961  44.710  12.611
68827W        W41895  12.878  33.630   1.394
68828W        W41896  13.301  10.369  10.773
68829W        W41897   5.395   4.286   3.396
68830W        W41898  18.253  21.747   3.321
68831W        W41899  32.925  24.256  13.584
68832W        W41900  13.640   9.850   2.451
68833W        W41901  27.234  43.788   3.361
68834W        W41902  35.980  22.055   2.602
68835W        W41903  41.902  21.745  12.127
68836W        W41904   8.202  28.379  12.445
68837W        W41905  34.976  27.946  12.005
68838W        W41906   7.668  44.359   4.678
68839W        W41907  41.759  14.340   4.690
68840W        W41908  11.282   1.520  11.171
68841W        W41909   5.761  24.483   1.910
68842W        W41910  38.105  20.795  10.398
68843W        W41911  41.418  21.264   0.370
68844W        W41912  41.526  10.782   1.865
68845W        W41913  41.537  42.325  12.091
68846W        W41914  21.164   9.934  10.906
68847W        W41915   2.230  25.078  10.630
68848W        W41916  22.733   6.891   3.882
68849W        W41917  35.444  32.262  11.393
68850W        W41918  33.571  36.349   3.490
68851W        W41919  32.425  25.245   2.360
68852W        W41920  41.991  29.366  13.037
68853W        W41921  37.033  31.664   5.064
68854W        W41922  12.056  21.234  12.276
68855W        W41923  21.001  43.377  12.088
68856W        W41924  17.294  43.360   1.895
68857W        W41925   2.376  38.510   1.908
68858W        W41926  42.261  16.645  13.389
68859W        W41927   7.416  24.157  13.539
68860W        W41928  24.158  29.941  11.594
68861W        W41929  12.884  39.513  12.068
68862W        W41930  24.310  36.159   4.334
68863W        W41931   1.246  27.478  12.968
68864W        W41932  15.294   7.868   2.043
68865W        W41933   7.964   5.445   4.617
68866W        W41934  25.302  27.059  12.981
68867W        W41935   0.530  27.725  11.570
68868W        W41936   1.814  14.260   1.687
68869W        W41937  31.700  34.417   4.024
68870W        W41938  24.246  39.916  10.961
68871W        W41939  12.789  19.162  10.690
68872W        W41940  41.277  19.983  12.922
68873W        W41941  27.094  31.686  12.160
68874W        W41942  12.747   6.305   0.312
68875W        W41943   8.327   5.825   4.610
68876W        W41944  38.860   3.722  13.496
68877W        W41945  12.137   1.422  14.974
68878W        W41946  30.856  29.287  11.364
68879W        W41947  34.481  43.703   1.010
68880W        W41948  36.227  20.467   3.694
68881W        W41949  26.212  21.171   4.581
68882W        W41950  28.748   6.272   0.753
68883W        W41951   2.932  42.248  14.310
68884W        W41952   2.639  29.080   2.913
68885W        W41953  10.582  13.685  13.439
68886W        W41954  38.009  20.244  10.501
68887W        W41955  29.153  41.263  11.782
68888W        W41956   8.595   3.877   3.306
68889W        W41957   1.491  44.045   0.176
68890W        W41958  32.158  17.213  14.339
68891W        W41959   4.292  17.093   2.158
68892W        W41960  44.500  10.894   4.694
68893W        W41961   1.191   5.696  11.204
68894W        W41962  37.947   3.002   3.399
68895W        W41963  22.825   0.375   5.515
68896W        W41964  42.993   5.279   0.917
68897W        W41965  20.223  43.155   3.764
68898W        W41966  22.483  13.180  11.126
68899W        W41967  33.203  27.492   3.717
68900W        W41968   5.054  41.518  10.648
68901W        W41969  33.514   7.338   4.611
68902W        W41970  39.133  36.086  12.583
68903W        W41971  28.450  36.924  14.109
68904W        W41972   3.728   6.773   2.272
68905W        W41973  27.036  32.919   1.727
68906W        W41974  34.905  39.793  14.809
68907W        W41975   4.654  39.438   4.371
68908W        W41976  34.846  17.744  13.381
68909W        W41977  26.668  40.780  13.480
68910W        W41978   8.471  25.737   2.839
68911W        W41979  17.193  32.372   4.159
68912W        W41980  21.098  17.636   0.468
68913W        W41981  12.315   8.073   0.927
68914W        W41982  32.829   7.920   1.892
68915W        W41983   8.588  33.018   4.162
68916W        W41984  16.179  12.922   2.984
68917W        W41985  24.123  24.792  14.893
68918W        W41986  27.954   6.247   1.228
68919W        W41987  29.614  25.405  11.733
68920W        W41988  11.368  10.795   3.432
68921W        W41989  21.335  23.044   3.073
68922W        W41990  30.874  11.948   0.713
68923W        W41991  38.380  36.338  11.115
68924W        W41992  38.474  30.199   2.676
68925W        W41993  39.378  13.273  11.694
68926W        W41994  26.455   9.405  11.608
68927W        W41995  22.409  18.964   4.638
68928W        W41996  35.424  42.630   0.856
68929W        W41997  21.078  28.128   0.350
68930W        W41998  35.902  28.899  11.244
68931W        W41999   3.259  32.252   4.844
68932W        W42000  10.848  38.729   1.746
68933W        W42001  19.199  14.558   0.357
68934W        W42002  19.629   3.160   4.336
68935W        W42003  42.255  19.258  10.577
68936W        W42004  37.438  22.495  11.001
68937W        W42005  42.298  23.288   2.974
68938W        W42006  14.596  29.155   4.280
68939W        W42007  21.548  43.351   4.608
68940W        W42008  11.180  14.201   1.562
68941W        W42009  24.754  20.700  10.669
68942W        W42010  31.621  22.075  12.603
68943W        W42011  24.485  16.099  13.264
68944W        W42012  37.334   8.721   2.554
68945W        W42013   2.965  15.626  10.778
68946W        W42014  41.686  25.994  14.364
68947W        W42015   3.565  26.264   1.310
68948W        W42016  41.849  20.283  11.790
68949W        W42017  25.096  14.097   4.228
68950W        W42018  22.937  13.864  12.633
68951W        W42019  15.751  15.294   2.223
68952W        W42020  32.367  37.392   4.116
68953W        W42021  27.720  16.306   2.955
68954W        W42022  14.590  32.819   1.773
68955W        W42023  31.576  15.594   1.840
68956W        W42024  23.589  32.928   1.511
68957W        W42025  25.604  23.330  14.761
68958W        W42026  12.519  19.726  10.659
68959W        W42027  32.070  18.174   1.908
68960W        W42028  23.170  28.604  11.161
68961W        W42029  10.648  24.514  14.775
68962W        W42030  35.316  10.747  13.100
68963W        W42031   6.128  27.176   1.754
68964W        W42032   5.763  35.251   1.130
68965W        W42033  26.763  35.169  14.147
68966W        W42034   2.041   6.151  13.046
68967W        W42035   5.890   8.721   1.897
68968W        W42036  15.561  27.496  14.844
68969W        W42037  43.777  24.257   2.860
68970W        W42038  42.439  18.706   1.433
68971W        W42039  11.661  30.639  13.939
68972W        W42040  40.731  19.215   0.241
68973W        W42041  44.835  10.346   0.042
68974W        W42042  37.336  36.063   4.798
68975W        W42043   0.267   2.831  11.034
68976W        W42044  41.768  17.367   4.581
68977W        W42045  13.555   6.631  12.505
68978W        W42046  18.693  14.592  12.980
68979W        W42047  16.164  33.947   1.376
68980W        W42048  26.537  20.933   3.230
68981W        W42049  12.704   6.639  14.934
68982W        W42050  27.471  36.287  13.444
68983W        W42051   0.530   0.418   0.883
68984W        W42052  25.462  39.950   9.837
68985W        W42053  22.210   5.346  12.432
68986W        W42054  40.416   3.798  11.725
68987W        W42055  39.136   0.555   3.680
68988W        W42056  17.726  32.325   0.523
68989W        W42057   1.390  35.000   0.714
68990W        W42058   7.585  11.174  14.383
68991W        W42059  30.482   2.012  10.576
68992W        W42060  28.720  12.276   0.216
68993W        W42061  39.101  40.029   0.388
68994W        W42062  20.384  20.743   0.836
68995W        W42063  33.124  20.192   3.327
68996W        W42064  39.131  12.781   1.755
68997W        W42065  40.776  21.432   0.457
68998W        W42066  29.681  40.038   1.314
68999W        W42067  41.484  40.810   2.687
69000W        W42068  12.820  34.127   4.448
69001W        W42069  28.663  17.766  13.425
69002W        W42070   9.452   9.856  11.566
69003W        W42071  43.412  39.513  13.905
69004W        W42072   7.003  26.488  13.125
69005W        W42073  12.048  25.240  14.859
69006W        W42074  14.556  12.737  11.164
69007W        W42075  38.388  21.175  10.698
69008W        W42076  32.797   6.139  13.173
69009W        W42077   5.457  35.938  14.458
69010W        W42078  43.505  19.746  10.562
69011W        W42079  31.997   2.143  11.590
69012W        W42080  11.260   7.768  11.332
69013W        W42081   1.451   5.840  11.629
69014W        W42082  24.058  42.544  11.168
69015W        W42083  39.316  11.344   0.900
69016W        W42084  21.107  13.813  13.550
69017W        W42085  11.880  10.734   0.364
69018W        W42086  27.459  36.533  11.606
69019W        W42087  14.330   0.493   4.461
69020W        W42088  36.938   9.859  12.099
69021W        W42089  43.714  31.478  11.145
69022W        W42090  33.921  19.145   3.731
69023W        W42091  26.542   2.228  12.132
69024W        W42092  19.575  39.864   2.219
69025W        W42093  23.548  38.383   9.694
69026W        W42094  27.968  36.484  10.706
69027W        W42095   3.242  10.571  13.434
69028W        W42096   9.763  22.693   0.859
69029W        W42097  42.309  43.840   3.337
69030W        W42098   4.973  40.895   0.734
69031W        W42099   0.651  19.651  11.514
69032W        W42100   9.978  37.641  13.797
69033W        W42101  44.313   8.306  13.291
69034W        W42102  37.875  29.647   4.289
69035W        W42103   9.706  40.896  14.704
69036W        W42104  29.956   8.496   3.078
69037W        W42105  20.666  39.511   1.118
69038W        W42106  42.025  39.567  12.910
69039W        W42107  11.887  39.429   3.090
69040W        W42108  44.239  22.168   5.225
69041W        W42109  20.647  21.847  12.146
69042W        W42110   5.880  12.905  11.605
69043W        W42111  29.386  11.156  13.510
69044W        W42112  28.248  40.056   3.812
69045W        W42113  34.402  19.583   2.395
69046W        W42114   8.529  29.545   4.741
69047W        W42115   6.816  29.925  12.027
69048W        W42116  12.749  11.576   4.078
69049W        W42117  29.014  25.205   1.448
69050W        W42118  11.078  19.690   1.550
69051W        W42119   6.020   2.052   2.175
69052W        W42120  10.634  16.743  11.597
69053W        W42121  28.214  25.224   3.072
69054W        W42122  12.094  17.772  13.374
69055W        W42123   9.115  14.310   3.527
69056W        W42124  17.174  25.471   4.417
69057W        W42125  23.998   5.271  12.045
69058W        W42126  30.375  28.556  14.845
69059W        W42127   5.398   0.155   1.910
69060W        W42128  15.727  41.354   4.625
69061W        W42129   2.194  44.837  13.514
69062W        W42130  40.839  40.569  14.414
69063W        W42131  31.096  35.863   1.952
69064W        W42132   2.489  36.487   3.879
69065W        W42133  11.144   7.589   2.353
69066W        W42134  29.901   4.713  13.376
69067W        W42135   1.554  35.027   0.208
69068W        W42136  16.379  41.341  12.539
69069W        W42137  11.507   7.704  11.985
69070W        W42138   8.724   0.357  12.572
69071W        W42139  33.079   6.131   1.307
69072W        W42140  32.996  22.070  14.752
69073W        W42141  13.936   1.329   0.795
69074W        W42142  36.163   8.924   0.267
69075W        W42143  10.168  30.872   1.799
69076W        W42144  12.897  27.916   1.852
69077W        W42145   8.989  26.119  10.780
69078W        W42146   6.438  30.216   3.142
69079W        W42147  34.994   0.881   3.893
69080W        W42148  19.149  41.844   3.832
69081W        W42149  27.848   8.265  14.992
69082W        W42150  18.742  42.312  10.633
69083W        W42151  22.775  29.210  13.297
69084W        W42152  29.539  18.049  10.841
69085W        W42153  26.509  28.664   1.922
69086W        W42154   3.756  24.670   3.978
69087W        W42155  33.315  37.117  13.920
69088W        W42156   1.806   7.198   1.917
69089W        W42157  25.452   7.165   3.374
69090W        W42158  29.434   2.887   4.769
69091W        W42159  22.202  44.755  10.593
69092W        W42160  26.112  13.883   2.311
69093W        W42161  27.308  41.127  12.111
69094W        W42162  26.585  12.844   3.600
69095W        W42163   3.946  33.533   4.170
69096W        W42164  41.071  12.395  12.965
69097W        W42165  35.942  10.118   4.146
69098W        W42166  18.174  32.040   0.546
69099W        W42167  16.584  12.351  11.468
69100W        W42168  38.551  34.444   0.689
69101W        W42169   9.126  36.776   2.814
69102W        W42170  22.705   2.012  11.744
69103W        W42171  12.696  39.227   1.326
69104W        W42172  34.597  13.829  12.528
69105W        W42173  39.524  35.959  13.565
69106W        W42174  31.596   4.950   5.221
69107W        W42175  31.059  17.349   3.380
69108W        W42176  35.626  37.052   0.844
69109W        W42177  26.508   3.175   0.012
69110W        W42178   8.875  35.382   1.769
69111W        W42179   6.339  29.643  14.415
69112W        W42180  14.122  21.700  11.633
69113W        W42181  44.978   5.482  12.784
69114W        W42182  10.871  44.395  11.969
69115W        W42183  15.419  23.140  13.131
69116W        W42184  42.089  22.813  13.344
69117W        W42185  32.643   7.347   0.237
69118W        W42186   0.791  21.854   2.429
69119W        W42187   1.274   3.034   1.299
69120W        W42188  15.125  27.035   2.416
69121W        W42189   5.615  44.296   4.271
69122W        W42190  40.588  28.077   4.600
69123W        W42191  39.290  32.028   2.235
69124W        W42192  14.273   2.900  14.746
69125W        W42193   7.648  42.905   3.699
69126W        W42194  24.993  26.929  12.557
69127W        W42195  39.834   0.760  13.877
69128W        W42196   2.410  11.822   0.231
69129W        W42197   5.338  18.261  13.304
69130W        W42198  16.722  10.095  14.519
69131W        W42199  27.544  36.387   1.813
69132W        W42200  25.000  26.691  11.078
69133W        W42201  39.120  18.590   0.065
69134W        W42202  14.016  26.823   5.146
69135W        W42203  38.383   1.724   4.994
69136W        W42204  26.108  35.874  13.909
69137W        W42205  16.031   1.524  13.457
69138W        W42206   1.746  34.941  11.113
69139W        W42207  17.163   3.584   4.994
69140W        W42208  31.843  30.396   3.199
69141W        W42209  19.062  17.595  11.884
69142W        W42210  30.937  44.434   0.846
69143W        W42211  22.350  22.223  14.005
69144W        W42212   3.971  14.967  11.242
69145W        W42213  32.505  20.182   4.802
69146W        W42214  40.909   9.176   1.285
69147W        W42215  25.077   8.143   3.193
69148W        W42216  30.398  42.864  11.650
69149W        W42217   6.386  22.969   4.645
69150W        W42218   9.170  27.752   1.678
69151W        W42219  40.670  31.846  14.953
69152W        W42220  13.763  38.807  10.438
69153W        W42221  43.569  23.919  11.651
69154W        W42222  15.227  30.069  12.001
69155W        W42223  44.778  30.912   0.561
69156W        W42224  25.216  24.635   3.556
69157W        W42225  12.772  38.147  13.341
69158W        W42226  25.100  27.399  13.585
69159W        W42227   7.639  29.462  11.051
69160W        W42228  27.518  17.501  12.920
69161W        W42229  43.866  15.082  11.246
69162W        W42230  24.594   8.711   4.120
69163W        W42231  40.577  35.570   0.282
69164W        W42232  31.809  22.285   2.281
69165W        W42233  44.384  20.065  10.950
69166W        W42234   0.050  27.210  12.473
69167W        W42235  31.759  16.851   0.437
69168W        W42236   3.115  11.662   0.944
69169W        W42237  38.318   9.709   3.250
69170W        W42238  26.016  11.303   2.564
69171W        W42239  34.888  11.159   1.671
69172W        W42240  26.842  17.736   3.686
69173W        W42241   8.948  21.103  14.918
69174W        W42242  28.966  18.455  14.552
69175W        W42243  24.163   6.309   0.396
69176W        W42244  12.713  16.925   3.226
69177W        W42245  23.173  22.196   0.769
69178W        W42246  16.117  34.543   3.025
69179W        W42247  33.126  43.207  11.716
69180W        W42248  44.475  33.128  12.172
69181W        W42249  15.543  35.546   2.163
69182W        W42250  24.760  21.493   3.556
69183W        W42251  42.047  34.533  11.641
69184W        W42252   9.261   5.685  13.070
69185W        W42253  34.135  33.158   1.782
69186W        W42254  14.207  39.139  10.550
69187W        W42255  19.162  31.844  14.641
69188W        W42256  26.628  16.265  14.821
69189W        W42257  33.435  25.285  11.621
69190W        W42258  39.323  21.637   4.533
69191W        W42259  33.033  29.192  13.406
69192W        W42260   6.582  27.049  10.609
69193W        W42261   0.058  32.961   0.901
69194W        W42262  39.963  10.114   1.540
69195W        W42263  24.164   7.815   0.019
69196W        W42264   6.836  13.311   3.405
69197W        W42265  19.640  35.971  12.027
69198W        W42266  11.351  23.015  13.905
69199W        W42267  29.107  26.414   4.067
69200W        W42268  27.914  29.535  14.616
69201W        W42269  27.877  16.730   3.221
69202W        W42270  28.837  12.607   2.184
69203W        W42271  22.285  38.351   0.851
69204W        W42272  28.688  34.935  12.950
69205W        W42273  38.291  10.620   1.392
69206W        W42274  11.178   9.198  14.498
69207W        W42275  25.489  41.403  11.536
69208W        W42276   8.676  41.665  13.482
69209W        W42277  42.939  18.101   3.317
69210W        W42278  42.973  35.584  14.208
69211W        W42279  23.631  35.686  12.644
69212W        W42280  24.972  41.420  11.420
69213W        W42281   6.895  14.851  10.917
69214W        W42282  38.817  31.420  11.170
69215W        W42283  36.389  33.809   3.311
69216W        W42284  39.047   9.323   3.780
69217W        W42285  25.187  35.489  13.021
69218W        W42286  41.235  15.012   5.065
69219W        W42287  17.325  20.939  13.110
69220W        W42288   2.312  41.470  14.286
69221W        W42289   6.554  16.917   4.088
69222W        W42290  32.103   9.242   2.606
69223W        W42291  12.041  35.270  13.092
69224W        W42292  37.150  41.457   1.341
69225W        W42293  42.121  35.523  14.897
69226W        W42294  34.603   1.937  12.071
69227W        W42295   7.423  15.035   2.638
69228W        W42296  24.549  10.850  10.819
69229W        W42297  25.802  23.957   1.790
69230W        W42298  40.523   6.744   1.526
69231W        W42299  34.867  20.779   4.113
69232W        W42300  42.583  39.302  11.203
69233W        W42301  33.809  41.015   0.470
69234W        W42302   7.501  29.997  13.246
69235W        W42303  29.227  21.778  14.921
69236W        W42304  14.939  41.955   4.058
69237W        W42305  33.582  35.552   1.266
69238W        W42306  21.906  34.528  13.249
69239W        W42307  37.364  23.227  11.495
69240W        W42308   1.227  12.865   3.704
69241W        W42309   2.413  42.041  11.148
69242W        W42310  42.181   6.406   0.909
69243W        W42311  34.412  29.108  11.103
69244W        W42312  11.061  32.196  13.825
69245W        W42313  12.433   3.277   1.566
69246W        W42314  44.963  12.813   0.681
69247W        W42315  24.572  40.345  13.358
69248W        W42316   0.270  39.306   1.888
69249W        W42317  38.308  10.625  13.955
69250W        W42318  41.791  20.219  11.266
69251W        W42319  24.920  14.761  12.757
69252W        W42320  34.937   8.233   1.255
69253W        W42321  28.935  40.820  10.999
69254W        W42322   8.344  32.189  14.583
69255W        W42323   5.524  41.432  12.928
69256W        W42324   8.999   2.957  11.487
69257W        W42325   1.324   7.844   4.248
69258W        W42326  33.979   7.499  14.756
69259W        W42327  31.499  42.021  12.043
69260W        W42328  24.545  19.993   3.589
69261W        W42329  39.942  15.644  14.718
69262W        W42330  44.692  22.984   4.502
69263W        W42331  28.642  37.322  13.381
69264W        W42332  38.286   1.998  13.523
69265W        W42333  27.994  44.156  12.508
69266W        W42334  41.296   3.982   0.399
69267W        W42335  29.883  31.656  11.209
69268W        W42336  25.634  18.625  14.384
69269W        W42337   5.306  43.998   3.514
69270W        W42338   8.705  21.143   2.551
69271W        W42339  24.105  13.396   4.048
69272W        W42340  40.145  13.353  14.393
69273W        W42341  15.826  41.265  12.487
69274W        W42342  39.485  40.153  10.043
69275W        W42343  15.170   2.526  14.249
69276W        W42344  36.123  34.365   2.885
69277W        W42345   1.472   4.434   1.383
69278W        W42346  14.090  44.380  14.054
69279W        W42347  30.978  42.502   4.758
69280W        W42348   8.976  17.178  11.468
69281W        W42349  13.453  14.838   2.940
69282W        W42350  24.515  39.360  13.135
69283W        W42351  16.607  16.053   2.821
69284W        W42352  15.007   4.800  12.874
69285W        W42353  24.985  38.681  10.792
69286W        W42354  39.268  21.651  14.286
69287W        W42355  39.938   9.920  12.448
69288W        W42356  25.528  34.629  11.878
69289W        W42357  43.271  23.240  14.335
69290W        W42358  18.020   0.257  14.811
69291W        W42359  44.725  10.418   4.552
69292W        W42360  26.258   0.767  11.161
69293W        W42361  26.924  23.114  10.436
69294W        W42362   9.712  41.002  14.186
69295W        W42363  24.214   2.997   5.030
69296W        W42364  26.085  28.963  12.554
69297W        W42365  30.796  12.870  11.538
69298W        W42366  10.205  36.926  14.916
69299W        W42367  26.468   6.356  12.570
69300W        W42368  28.835   3.435   4.395
69301W        W42369   8.807  29.597  10.886
69302W        W42370  26.930  14.250   3.717
69303W        W42371  22.571  23.581  10.772
69304W        W42372  19.992   4.146  11.550
69305W        W42373  40.173  41.530   1.411
69306W        W42374  10.249  19.560  11.663
69307W        W42375  35.094   1.477   0.284
69308W        W42376  38.486  18.777  14.680
69309W        W42377  30.720  40.560   0.319
69310W        W42378  41.026  13.704   3.293
69311W        W42379  12.787  35.163   2.102
69312W        W42380   5.435   7.897   0.894
69313W        W42381  17.185   3.816   4.114
69314W        W42382  39.066  39.845   9.994
69315W        W42383  12.009  41.808   3.094
69316W        W42384  40.808  12.679  12.503
69317W        W42385  31.182  42.034  11.225
69318W        W42386   7.618  24.138   4.062
69319W        W42387  28.065   8.392   1.195
69320W        W42388  27.126  37.704  11.137
69321W        W42389  18.585  28.211  13.051
69322W        W42390  18.683  12.649  10.852
69323W        W42391   0.030  16.755   3.479
69324W        W42392  27.166  41.604  14.401
69325W        W42393  41.248  32.539   0.876
69326W        W42394  32.286  39.977   4.126
69327W        W42395  15.890   9.796   2.714
69328W        W42396  34.387  10.725   3.769
69329W        W42397  32.900   4.387  12.424
69330W        W42398   4.133  32.062  10.927
69331W        W42399   4.978  20.608  12.366
69332W        W42400  40.801  35.584   1.354
69333W        W42401  15.163  31.502  11.694
69334W        W42402  28.411  38.303  12.018
69335W        W42403   5.466  34.589   4.027
69336W        W42404  34.631  41.979  11.262
69337W        W42405   9.696   7.432   3.968
69338W        W42406  35.556  19.165   4.363
69339W        W42407   3.851  26.550   0.947
69340W        W42408   5.172  35.764  14.064
69341W        W42409  24.115  22.080   2.721
69342W        W42410  13.072  31.481  11.488
69343W        W42411  20.988  34.873   2.105
69344W        W42412   2.994  16.706  11.166
69345W        W42413  38.516  39.101  14.301
69346W        W42414  18.954  37.626   3.576
69347W        W42415  44.730  37.867  13.590
69348W        W42416   0.715  14.798   2.829
69349W        W42417  40.347  20.234   3.136
69350W        W42418  43.372  37.579  12.905
69351W        W42419   5.001  11.756   4.167
69352W        W42420  33.105  10.274   4.591
69353W        W42421  22.969  35.981  13.395
69354W        W42422   0.181  25.469  14.258
69355W        W42423  44.195  28.141   5.035
69356W        W42424  35.375  41.864   3.379
69357W        W42425  41.449  40.917  10.928
69358W        W42426  27.178  36.573  12.452
69359W        W42427  14.774  34.387   1.899
69360W        W42428  24.393  20.701  11.482
69361W        W42429  14.526  18.349   0.274
69362W        W42430  35.036  16.252  10.607
69363W        W42431  33.526  14.071   0.280
69364W        W42432  39.550  19.281   3.190
69365W        W42433   3.927  11.260   4.624
69366W        W42434  33.114  23.093  12.877
69367W        W42435  44.239   3.102  14.264
69368W        W42436  18.446   6.795   1.900
69369W        W42437  32.186   3.009  12.034
69370W        W42438  25.366  38.546  12.423
69371W        W42439  28.582  44.259   3.775
69372W        W42440  10.677  14.578  10.723
69373W        W42441  35.280   7.422   4.704
69374W        W42442   3.371  41.051  14.805
69375W        W42443  23.442   2.825   2.734
69376W        W42444  20.828  24.054  11.661
69377W        W42445  21.859  36.429  12.930
69378W        W42446  38.773  43.488   1.869
69379W        W42447  28.669  28.476  13.034
69380W        W42448   4.190   2.825   2.548
69381W        W42449  38.959  40.256  11.534
69382W        W42450  18.067   7.384   3.137
69383W        W42451  27.424  44.212   0.631
69384W        W42452  31.641  34.497   3.263
69385W        W42453  22.492  30.966  10.911
69386W        W42454  28.467  38.821  13.768
69387W        W42455  28.988  44.264   2.396
69388W        W42456  17.164  33.042   0.952
69389W        W42457  19.594  42.086   2.977
69390W        W42458  36.800  10.776  12.132
69391W        W42459  11.005   7.173   3.805
69392W        W42460  41.243  19.494  11.192
69393W        W42461  22.547  19.107   4.165
69394W        W42462   9.819  27.172   2.476
69395W        W42463  42.716  23.345  12.891
69396W        W42464  36.790  28.681   1.858
69397W        W42465  12.159  15.090   3.686
69398W        W42466   8.174  33.647  14.034
69399W        W42467  24.590  36.543   4.505
69400W        W42468  17.960  31.080  14.355
69401W        W42469  35.700  12.317   1.991
69402W        W42470   3.432  25.954   3.684
69403W        W42471  37.920   6.404   3.629
69404W        W42472  27.436  34.848   3.846
69405W        W42473  34.692  11.187  11.040
69406W        W42474   9.897  10.851   2.339
69407W        W42475  43.459  31.980   3.256
69408W        W42476   9.137   2.481  12.168
69409W        W42477  35.189  25.483   1.997
69410W        W42478  25.170  17.369   1.332
69411W        W42479  19.381  40.985   3.829
69412W        W42480  43.994  29.888  13.879
69413W        W42481  23.839  26.863  13.803
69414W        W42482  27.665  38.022   1.443
69415W        W42483  15.565  43.345  13.153
69416W        W42484  11.782  44.415  11.504
69417W        W42485   4.696   1.927   0.022
69418W        W42486  14.141  10.370   5.037
69419W        W42487  37.981  29.108  14.830
69420W        W42488  26.600   8.780  10.895
69421W        W42489  15.001  33.859  13.529
69422W        W42490  18.406   5.415   3.711
69423W        W42491  27.622  15.670  10.834
69424W        W42492  14.688  19.136  10.757
69425W        W42493  31.673  24.506   3.170
69426W        W42494   3.148   8.859   3.382
69427W        W42495  32.442  27.524   0.790
69428W        W42496  15.220  10.003   0.440
69429W        W42497  11.389  43.887   3.759
69430W        W42498  10.656  21.042   4.544
69431W        W42499  11.453   3.266   2.303
69432W        W42500   2.012  30.116   2.603
69433W        W42501  10.138  40.078   3.143
69434W        W42502   3.715   1.240  11.833
69435W        W42503  29.424  12.566   4.659
69436W        W42504  18.386  10.884   3.174
69437W        W42505  43.549   6.711   1.364
69438W        W42506  20.560   4.477   1.871
69439W        W42507  38.356   2.727  10.527
69440W        W42508  44.032  15.080   1.436
69441W        W42509  18.687   2.479  11.123
69442W        W42510  17.049  42.899  14.873
69443W        W42511  17.222   5.573  12.573
69444W        W42512  22.075  35.281   1.785
69445W        W42513  37.607  17.095  12.029
69446W        W42514  12.281  43.666  14.595
69447W        W42515   8.391  42.715   1.652
69448W        W42516  34.539   9.756   0.532
69449W        W42517   0.984   2.874   3.100
69450W        W42518  17.643  42.774   4.512
69451W        W42519  22.518  14.638  12.416
69452W        W42520  38.990   0.071  11.161
69453W        W42521  11.915  10.166  11.183
69454W        W42522  15.660   4.895   2.225
69455W        W42523  24.954  38.439  13.146
69456W        W42524  17.231   9.663  10.586
69457W        W42525  41.251  39.278   3.576
69458W        W42526  44.433  12.614   0.321
69459W        W42527  15.139  23.547  10.491
69460W        W42528  29.983  33.776   0.193
69461W        W42529  30.610   2.529  10.730
69462W        W42530  28.402  11.350  14.855
69463W        W42531  10.945   5.840  14.232
69464W        W42532  21.266  36.733   0.249
69465W        W42533   4.915  39.451   1.152
69466W        W42534  44.326  38.922  14.392
69467W        W42535  15.600   4.333  11.612
69468W        W42536  16.724  15.714   3.464
69469W        W42537  21.350  28.564   0.507
69470W        W42538   0.717  14.805  10.727
69471W        W42539  15.250  15.669   3.528
69472W        W42540   7.494  37.270   1.313
69473W        W42541   7.822   8.334  11.799
69474W        W42542  44.414  28.492   4.309
69475W        W42543  20.195  41.960  14.731
69476W        W42544  15.584  26.901   3.712
69477W        W42545  44.035   2.932  12.928
69478W        W42546  31.014  14.240   3.772
69479W        W42547  34.867  36.442  13.300
69480W        W42548  11.370  34.817   2.788
69481W        W42549  42.062  29.942   0.338
69482W        W42550  26.875  24.783   5.053
69483W        W42551  25.960   6.081   2.765
69484W        W42552  28.468  20.948   2.115
69485W        W42553  37.922  43.545  13.456
69486W        W42554  30.009   8.613   4.978
69487W        W42555  20.109  26.624  14.965
69488W        W42556  20.631  43.981   2.076
69489W        W42557  31.895   6.948   3.124
69490W        W42558  18.685   0.506  12.336
69491W        W42559  20.118  12.177   1.813
69492W        W42560   1.755   6.388  11.209
69493W        W42561  38.866  23.518   0.013
69494W        W42562  31.628   2.777  10.767
69495W        W42563  42.390  18.289   0.486
69496W        W42564  35.151  14.327   3.693
69497W        W42565  32.331  36.248  12.105
69498W        W42566  22.467  16.146  12.057
69499W        W42567  27.914  20.673  12.368
69500W        W42568  20.599  15.011  13.851
69501W        W42569  42.767   2.551  12.569
69502W        W42570  39.886  36.042   3.552
69503W        W42571  31.045  28.129   4.531
69504W        W42572  32.800  34.396   2.843
69505W        W42573  40.885  22.805   4.235
69506W        W42574  37.569  16.682  10.623
69507W        W42575   6.366  23.683   3.703
69508W        W42576  21.582  20.137  12.964
69509W        W42577   9.447  22.411  12.757
69510W        W42578   7.966  32.332   2.730
69511W        W42579  38.525   4.715  12.457
69512W        W42580  43.932  26.234  10.747
69513W        W42581  33.257   4.217   4.321
69514W        W42582   6.148  35.842  10.335
69515W        W42583   2.009  22.274  10.989
69516W        W42584  26.872  34.130  11.899
69517W        W42585  12.112   3.183   3.150
69518W        W42586  29.458  12.163   1.810
69519W        W42587  20.771  28.476  14.402
69520W        W42588  34.531  23.307   4.200
69521W        W42589  42.020   9.991  14.836
69522W        W42590  32.350  39.533  14.417
69523W        W42591  18.256  25.163   0.311
69524W        W42592  37.544  20.554   4.506
69525W        W42593  35.376   0.584   3.716
69526W        W42594  20.802  40.050  14.763
69527W        W42595   7.370  19.585  11.423
69528W        W42596  35.408   2.010   1.408
69529W        W42597   1.842  27.295  12.034
69530W        W42598  17.647  28.473  12.216
69531W        W42599   0.115   8.541  14.498
69532W        W42600  40.254  13.421  11.456
69533W        W42601  37.941  24.120  10.574
69534W        W42602  12.213  31.588   1.910
69535W        W42603  26.622  26.466  13.973
69536W        W42604  24.652  41.756  13.327
69537W        W42605  26.690  21.797   4.193
69538W        W42606  11.323   1.747   4.519
69539W        W42607  20.884  28.662   3.751
69540W        W42608  19.492  37.104  14.827
69541W        W42609  15.684  42.534   3.904
69542W        W42610  17.835  37.085  11.456
69543W        W42611  36.771   0.441   4.366
69544W        W42612  21.718   0.459   4.040
69545W        W42613  28.701  10.146  14.229
69546W        W42614  44.031  25.631  12.614
69547W        W42615   5.677  30.716  12.432
69548W        W42616  12.332  39.521  11.654
69549W        W42617  21.412  25.556  13.767
69550W        W42618  26.950  26.652  12.625
69551W        W42619   0.414   1.274   0.692
69552W        W42620   9.827  28.936  11.472
69553W        W42621   4.354  13.224  12.181
69554W        W42622  16.080  13.697   4.661
69555W        W42623  20.334  14.086   2.898
69556W        W42624   8.455  40.079   1.880
69557W        W42625   3.470  43.612   4.114
69558W        W42626  29.147   7.354   1.508
69559W        W42627  24.979  40.569   3.718
69560W        W42628  17.606   7.342   2.857
69561W        W42629  39.566  43.716  12.428
69562W        W42630  23.725  28.970  14.595
69563W        W42631  33.300  26.030  13.900
69564W        W42632  37.586  31.577   2.288
69565W        W42633  42.692  26.658   3.995
69566W        W42634  44.717  11.416  11.638
69567W        W42635  10.609  22.572  10.615
69568W        W42636   3.159  31.768  13.150
69569W        W42637  12.209  37.230  12.004
69570W        W42638   3.400  38.515  13.142
69571W        W42639  36.034  20.355  13.372
69572W        W42640   7.789  43.413   1.146
69573W        W42641  10.229  38.472   3.198
69574W        W42642  32.561  33.942   2.708
69575W        W42643  20.544  30.838   0.278
69576W        W42644  34.183  40.877   4.331
69577W        W42645  22.977  15.164  14.801
69578W        W42646  17.931  27.154   3.106
69579W        W42647  34.497  40.803   4.748
69580W        W42648  14.534  33.733  11.668
69581W        W42649  30.937  26.990  11.603
69582W        W42650   1.853   6.502   2.715
69583W        W42651   2.463  22.518  14.404
69584W        W42652   0.345   7.661   3.884
69585W        W42653   6.440  23.399   1.509
69586W        W42654  18.748  25.673  11.896
69587W        W42655  42.202  33.920  10.705
69588W        W42656  23.931   4.693   0.730
69589W        W42657  14.118   1.620  11.002
69590W        W42658   1.539  12.767   4.176
69591W        W42659  24.181   7.245   3.664
69592W        W42660  31.670  28.929  11.547
69593W        W42661   6.624  34.965  14.479
69594W        W42662  38.597  11.519  14.338
69595W        W42663  23.472   1.470  12.954
69596W        W42664  36.164  27.961  12.925
69597W        W42665   1.386  20.560  13.864
69598W        W42666  30.702  34.995  12.902
69599W        W42667  23.494  35.115  12.492
69600W        W42668  25.216  24.318  12.696
69601W        W42669  14.651   8.085   1.501
69602W        W42670  19.670  42.246  10.673
69603W        W42671  29.196  30.610   3.769
69604W        W42672   4.297  26.514   3.712
69605W        W42673  37.840   1.620   3.177
69606W        W42674  28.619   1.417   0.109
69607W        W42675  44.571  33.966  11.495
69608W        W42676  21.327   9.277  11.435
69609W        W42677  21.430  42.098   2.981
69610W        W42678  21.150  18.481  14.942
69611W        W42679  43.880   1.352  13.981
69612W        W42680  29.150  12.298  11.598
69613W        W42681  15.280  11.737  11.254
69614W        W42682  20.718  39.542   4.029
69615W        W42683  38.283  36.147  11.615
69616W        W42684   5.671  15.754  11.070
69617W        W42685   8.779   4.269  13.076
69618W        W42686   1.791  43.263  10.650
69619W        W42687  34.048  41.327   4.103
69620W        W42688   4.462   0.681   0.881
69621W        W42689  39.240   8.539   1.566
69622W        W42690   4.654  25.193  10.935
69623W        W42691  34.572   6.931   2.944
69624W        W42692  15.335   7.178   3.720
69625W        W42693   0.375   3.691   0.757
69626W        W42694  25.649  23.711   1.342
69627W        W42695  34.465  29.499  11.562
69628W        W42696  20.625  32.888  12.425
69629W        W42697  36.882  44.740   0.164
69630W        W42698  33.006   5.370  14.156
69631W        W42699  19.939  13.710   2.808
69632W        W42700  11.515  31.901  13.822
69633W        W42701  33.457  20.011   2.487
69634W        W42702   4.393  11.705   4.491
69635W        W42703  21.713  10.149   2.198
69636W        W42704  14.330  34.143   1.881
69637W        W42705  38.566   5.758  12.270
69638W        W42706  41.568  32.622  10.723
69639W        W42707   5.987  28.082   0.840
69640W        W42708  36.993  41.909   1.145
69641W        W42709   2.817  32.341  12.015
69642W        W42710   7.696  29.517  12.500
69643W        W42711  42.450  36.371  14.308
69644W        W42712  36.353  27.856   4.167
69645W        W42713  30.865  13.844  12.349
69646W        W42714  31.069  12.416   0.764
69647W        W42715   8.861  39.813   1.676
69648W        W42716  37.270   2.080  11.989
69649W        W42717  19.686  42.514   4.159
69650W        W42718  24.800  26.141  14.861
69651W        W42719  26.681  12.355  13.316
69652W        W42720  17.615  34.022  14.018
69653W        W42721  20.028   6.975  14.744
69654W        W42722  26.641  10.104  13.586
69655W        W42723  17.723  37.843  11.059
69656W        W42724  10.598  27.830   0.506
69657W        W42725  28.598   1.442  13.592
69658W        W42726  33.169  30.869  11.387
69659W        W42727  40.312  20.617  14.325
69660W        W42728  36.402  14.811  11.412
69661W        W42729  27.189   8.404  13.890
69662W        W42730  24.900  26.778   0.258
69663W        W42731  14.523  15.082  14.906
69664W        W42732  26.710   4.909   0.389
69665W        W42733   3.727  22.658   4.844
69666W        W42734  28.602  42.068  10.733
69667W        W42735  16.256  13.410   1.090
69668W        W42736  20.466   5.433   1.251
69669W        W42737   8.004  31.692   4.133
69670W        W42738   5.253   0.127  13.363
69671W        W42739  32.123   1.457   2.361
69672W        W42740   6.329   4.452  14.078
69673W        W42741  11.693   8.988   0.791
69674W        W42742   8.184  38.488  13.984
69675W        W42743   2.192  10.184   1.235
69676W        W42744   9.822  19.049   1.595
69677W        W42745  10.669   4.773   4.613
69678W        W42746  10.907  11.636   4.548
69679W        W42747  11.196  35.807   2.450
69680W        W42748   5.198  25.349  11.749
69681W        W42749   9.156  32.863   0.242
69682W        W42750  17.143  12.315   3.373
69683W        W42751   1.836  18.604   1.320
69684W        W42752   9.872  41.367   2.827
69685W        W42753  17.781  25.932  11.428
69686W        W42754  29.532  44.288   3.705
69687W        W42755  32.598  40.382   3.832
69688W        W42756   3.687  17.876   4.043
69689W        W42757   0.915  31.720  10.724
69690W        W42758  33.096   8.099   2.819
69691W        W42759  27.703  42.481  11.092
69692W        W42760   6.894   8.879   4.797
69693W        W42761  11.098  15.249  14.784
69694W        W42762  39.798  32.450   4.062
69695W        W42763  42.463  20.114  10.675
69696W        W42764   5.022   4.368  12.974
69697W        W42765  17.805  34.900  13.373
69698W        W42766  21.009   2.371  12.514
69699W        W42767  25.455  43.706  11.626
69700W        W42768  19.239  40.917  12.934
69701W        W42769  33.633   7.732  13.414
69702W        W42770  33.990  43.319  10.771
69703W        W42771  30.578  20.236   0.702
69704W        W42772  37.990  25.438  11.024
69705W        W42773  18.612  43.485  12.539
69706W        W42774  19.881  16.485  10.742
69707W        W42775  31.325  38.910   3.200
69708W        W42776   5.760  32.013   5.002
69709W        W42777  33.879   6.624  14.918
69710W        W42778  11.191  34.135   0.905
69711W        W42779  30.901  32.367   1.955
69712W        W42780  39.931  28.353   2.384
69713W        W42781  17.976  21.593  13.200
69714W        W42782  26.048  14.043   4.160
69715W        W42783  19.462  36.354  11.496
69716W        W42784   8.370  44.862  11.146
69717W        W42785  32.872   5.950   0.330
69718W        W42786   3.814   6.806   0.396
69719W        W42787  20.010  28.469   4.145
69720W        W42788  40.045  11.030   4.093
69721W        W42789  37.100  15.865  14.326
69722W        W42790   8.786   2.002   4.580
69723W        W42791  35.888  35.577  13.030
69724W        W42792  43.936   3.181   3.118
69725W        W42793   9.775   1.457   0.197
69726W        W42794   5.334  11.005   3.680
69727W        W42795   9.449  22.239   0.865
69728W        W42796  34.424  32.104   2.838
69729W        W42797  14.232   7.323   0.834
69730W        W42798  14.109   2.950  13.296
69731W        W42799  41.485   9.637   2.281
69732W        W42800  41.275  44.452   1.268
69733W        W42801  16.022  39.387  13.732
69734W        W42802   8.107  39.927  13.735
69735W        W42803   7.088  19.229  12.593
69736W        W42804  27.010  21.589   3.635
69737W        W42805  42.610  12.061   4.568
69738W        W42806  11.125  14.301   4.109
69739W        W42807   1.256  30.516   3.652
69740W        W42808  20.436   5.209   4.864
69741W        W42809  30.950  33.150   3.744
69742W        W42810   5.857  11.765   1.694
69743W        W42811  32.991  17.868   2.347
69744W        W42812  25.228  21.612  12.007
69745W        W42813  12.295  20.155  14.094
69746W        W42814  40.485  16.632  11.006
69747W        W42815  10.460  27.770   5.110
69748W        W42816   2.444  24.201  14.885
69749W        W42817  18.676  44.838   3.162
69750W        W42818  32.289   8.530  13.794
69751W        W42819  20.554  40.039   2.853
69752W        W42820  29.115   7.723  12.956
69753W        W42821  17.584  25.167  13.499
69754W        W42822  42.535   4.717  12.305
69755W        W42823   3.784  21.562  14.406
69756W        W42824  12.981  17.312  10.929
69757W        W42825  15.224  23.046   2.401
69758W        W42826  33.391  38.350  10.593
69759W        W42827  29.920   4.956   3.586
69760W        W42828  42.105  35.351  10.497
69761W        W42829  16.869  35.011   4.034
69762W        W42830  15.148   9.282  13.990
69763W        W42831  26.526  40.562  13.929
69764W        W42832  37.515  33.420  13.355
69765W        W42833  33.801  22.556   1.298
69766W        W42834   6.699  27.028   4.820
69767W        W42835  44.503  29.868  11.645
69768W        W42836  21.226  30.901   4.606
69769W        W42837  37.840  26.454   4.644
69770W        W42838   3.480  18.703   0.920
69771W        W42839  14.703  19.694  10.656
69772W        W42840   1.493  27.234  11.527
69773W        W42841  44.444  27.511   3.413
69774W        W42842  43.391   2.030   4.636
69775W        W42843  40.222  39.439   0.824
69776W        W42844  33.584  27.781   1.799
69777W        W42845  32.015  30.884  11.689
69778W        W42846  36.437  36.033   2.648
69779W        W42847  28.034  40.748   0.016
69780W        W42848   8.559  44.542   0.860
69781W        W42849  24.258  32.066  14.060
69782W        W42850  17.235   1.345  12.166
69783W        W42851  21.264  19.582   0.287
69784W        W42852  35.768  43.339  12.355
69785W        W42853   0.435   9.191   2.763
69786W        W42854  44.933  41.466  10.792
69787W        W42855  34.428   5.718   3.883
69788W        W42856  25.944  27.384  10.670
69789W        W42857  44.740   8.185   3.825
69790W        W42858  21.732  23.650   1.317
69791W        W42859  26.691  12.676   1.353
69792W        W42860  10.388  37.900   3.320
69793W        W42861  21.547  18.202  11.397
69794W        W42862  20.568  23.960   2.381
69795W        W42863  38.455  38.330  13.417
69796W        W42864  33.779  26.855   3.630
69797W        W42865  28.359  43.405  11.155
69798W        W42866   7.072   1.586   0.923
69799W        W42867  25.741  14.897  12.344
69800W        W42868  26.450   8.132  14.540
69801W        W42869  29.959  38.443   4.159
69802W        W42870  23.620  32.983  11.248
69803W        W42871  36.644   1.369   1.796
69804W        W42872  11.252   0.591   0.560
69805W        W42873  44.450   8.177   0.953
69806W        W42874  34.039  14.218   0.330
69807W        W42875  18.663   9.850   2.897
69808W        W42876  20.273  36.995   4.629
69809W        W42877  42.769  20.267   2.793
69810W        W42878   8.259  25.372   0.963
69811W        W42879  19.112  32.128  13.629
69812W        W42880  16.303  14.150   3.843
69813W        W42881  20.217  36.098  13.323
69814W        W42882  37.655   4.951   1.370
69815W        W42883  14.330   6.222   0.483
69816W        W42884  23.695  30.512   0.936
69817W        W42885  42.511  38.857  12.457
69818W        W42886  43.277  18.592   1.652
69819W        W42887  23.996   0.609   0.556
69820W        W42888  38.296  34.316  11.987
69821W        W42889  16.344  25.625   0.957
69822W        W42890  26.490   1.642   4.096
69823W        W42891  22.721  43.939   1.217
69824W        W42892   3.016   8.455  14.547
69825W        W42893  44.553  40.509  11.113
69826W        W42894  35.128  16.152   0.398
69827W        W42895  27.694   2.851   4.038
69828W        W42896   3.266  20.166  12.499
69829W        W42897  14.464  24.119  12.357
69830W        W42898  25.132  17.125  14.477
69831W        W42899  12.272  17.538  10.768
69832W        W42900  18.530  10.928   3.712
69833W        W42901  21.530  37.288  12.050
69834W        W42902   3.185  35.881  10.199
69835W        W42903  34.504   2.202  12.509
69836W        W42904  16.230  36.903   3.272
69837W        W42905  34.779  44.502   3.257
69838W        W42906  37.346  24.801  14.478
69839W        W42907  33.201  31.609   3.205
69840W        W42908  34.452  32.978  13.356
69841W        W42909  38.926  41.970  12.120
69842W        W42910  20.455   3.547  12.963
69843W        W42911   4.820  25.122  11.430
69844W        W42912  32.911   7.879   0.673
69845W        W42913  35.267  25.699  10.690
69846W        W42914  44.961  20.608   4.717
69847W        W42915  41.713  20.250  12.979
69848W        W42916  34.355  21.214  13.410
69849W        W42917  36.878  34.330  12.131
69850W        W42918  18.265   5.789   4.105
69851W        W42919  10.388   6.413  14.830
69852W        W42920  33.793  29.921   1.859
69853W        W42921  31.410  25.424  12.583
69854W        W42922  21.559  22.139  11.806
69855W        W42923  35.008  25.445   4.715
69856W        W42924  18.709   3.025   2.395
69857W        W42925  41.048  20.773   1.804
69858W        W42926  21.405  21.767  13.176
69859W        W42927  37.836  27.560   2.739
69860W        W42928   2.230  14.640  10.723
69861W        W42929   1.686  33.449   1.757
69862W        W42930   1.385  24.453   1.751
69863W        W42931  37.960  39.453   3.892
69864W        W42932  44.551   7.908  13.486
69865W        W42933  13.680  34.189   4.668
69866W        W42934   8.292  18.202   1.255
69867W        W42935   2.742  36.624  12.866
69868W        W42936  39.558   4.790  10.963
69869W        W42937  22.517  34.931   3.273
69870W        W42938  25.419   6.189   4.068
69871W        W42939  40.793   6.699   1.102
69872W        W42940  31.750   1.745   2.143
69873W        W42941   0.789  30.447   0.322
69874W        W42942  36.783  19.577   3.675
69875W        W42943  23.219  20.128  14.264
69876W        W42944  32.422   5.158  11.124
69877W        W42945  36.073  33.426   4.370
69878W        W42946   9.310  35.512   0.235
69879W        W42947  33.949  12.417   2.796
69880W        W42948  24.701   7.305   3.584
69881W        W42949  38.493   5.381  11.905
69882W        W42950  37.443  23.804  14.654
69883W        W42951   3.562  11.222  14.609
69884W        W42952  25.101   3.428   0.250
69885W        W42953  32.446  31.172  14.413
69886W        W42954  14.993  40.394   1.289
69887W        W42955  29.613  35.956   1.457
69888W        W42956   1.166  42.497   2.282
69889W        W42957  20.054  25.075   1.659
69890W        W42958   5.861  35.858   3.204
69891W        W42959  19.389  11.274   2.156
69892W        W42960  25.479  29.454   4.622
69893W        W42961  39.614  19.540   2.741
69894W        W42962  15.330  19.701  10.795
69895W        W42963  12.652  23.502   1.424
69896W        W42964   8.761  31.831   3.555
69897W        W42965  30.497  24.539  12.893
69898W        W42966  18.434  34.413  13.890
69899W        W42967  27.017  37.061   0.381
69900W        W42968  18.280  41.999   2.338
69901W        W42969  29.802  42.515   3.633
69902W        W42970  39.372  36.082   3.711
69903W        W42971  18.273  38.166  12.807
69904W        W42972  16.215   7.966   2.775
69905W        W42973  10.975  34.223   2.827
69906W        W42974  24.634  41.734   3.857
69907W        W42975  33.008  38.647   3.889
69908W        W42976   5.208  15.726  12.470
69909W        W42977  11.576  34.430  11.373
69910W        W42978  42.270  26.739  12.960
69911W        W42979  41.953  41.706   4.710
69912W        W42980  22.644  11.427   1.807
69913W        W42981  22.488  33.454  12.575
69914W        W42982  39.669   8.317  13.021
69915W        W42983  33.564  29.045  11.949
69916W        W42984  27.909  31.916  13.340
69917W        W42985   2.175   5.688   4.799
69918W        W42986  10.280  40.977  10.651
69919W        W42987  27.441  22.664  13.262
69920W        W42988  16.241  31.417   2.880
69921W        W42989  26.412   1.742   2.036
69922W        W42990   2.000  32.697   3.256
69923W        W42991  25.483  35.548   4.574
69924W        W42992  32.660  13.827   3.371
69925W        W42993   0.738  16.993   4.576
69926W        W42994  14.304   8.817  10.679
69927W        W42995  26.204  32.941  11.507
69928W        W42996  40.405  44.682  10.714
69929W        W42997  24.983  21.363   2.190
69930W        W42998  43.537  24.505   3.266
69931W        W42999  36.065  12.028  12.637
69932W        W43000  38.327  43.484   2.170
69933W        W43001  12.211  25.900   1.359
69934W        W43002   1.843  27.235   1.823
69935W        W43003  24.668  39.897   2.026
69936W        W43004  23.352   1.952  14.591
69937W        W43005  30.356   1.346   3.967
69938W        W43006  26.006  13.709  10.777
69939W        W43007  10.126   1.702  13.480
69940W        W43008  21.796  34.816   1.820
69941W        W43009  32.029  20.165  14.248
69942W        W43010  39.824   1.308   2.285
69943W        W43011   4.341  12.951   3.392
69944W        W43012  15.120  43.312   4.264
69945W        W43013   7.591  35.544  13.437
69946W        W43014  19.746   8.093   2.861
69947W        W43015  44.479   6.882  14.410
69948W        W43016  42.333  15.268   0.864
69949W        W43017  14.806  30.143  10.877
69950W        W43018   9.399   5.597   4.380
69951W        W43019  40.580   0.015  10.346
69952W        W43020  41.447   5.336  14.498
69953W        W43021  17.110  28.637  10.702
69954W        W43022  29.572  28.974   1.976
69955W        W43023  41.025   8.111  12.045
69956W        W43024  13.747  41.686   2.860
69957W        W43025   4.664  27.205  11.100
69958W        W43026  30.193  19.068  13.093
69959W        W43027  41.366  40.416   0.302
69960W        W43028  25.074  10.411  13.671
69961W        W43029  25.707  20.708  13.833
69962W        W43030  14.925  38.997  14.530
69963W        W43031   1.498  15.175  14.467
69964W        W43032  34.370  36.001   0.935
69965W        W43033   0.667  31.159   0.981
69966W        W43034  33.503  26.175  11.528
69967W        W43035  11.647  12.049   2.846
69968W        W43036   1.261   3.973  10.697
69969W        W43037  36.041   3.391   4.237
69970W        W43038   5.206  38.728   1.455
69971W        W43039  38.398  10.285  10.293
69972W        W43040  26.516  24.738   1.818
69973W        W43041  37.395  25.214   3.063
69974W        W43042  17.510  33.442   0.803
69975W        W43043   3.683  35.856  13.429
69976W        W43044   5.254  10.249   1.508
69977W        W43045  44.425  15.031  11.115
69978W        W43046  40.320  27.643   0.318
69979W        W43047   8.541   3.867  13.323
69980W        W43048   3.148  31.604   1.241
69981W        W43049  32.668  28.386  13.935
69982W        W43050  42.411  44.805  14.446
69983W        W43051  20.174   3.710   0.354
69984W        W43052  33.163  25.222   1.254
69985W        W43053   9.176  13.208   4.765
69986W        W43054  15.142   7.874  11.869
69987W        W43055  24.327  32.389   0.309
69988W        W43056  35.058  12.833  11.624
69989W        W43057  15.195  26.185   2.377
69990W        W43058  41.868  33.849   0.801
69991W        W43059  43.906  38.761   4.627
69992W        W43060  40.822  35.333   2.579
69993W        W43061  39.346  41.974   1.722
69994W        W43062   2.748   7.762  12.207
69995W        W43063   4.406  39.854  11.640
69996W        W43064   2.021  16.776   1.798
69997W        W43065  39.909  32.903   0.290
69998W        W43066  44.098   3.222  12.456
69999W        W43067   7.499  31.977  14.919
70000W        W43068   5.856  29.438  10.676
70001W        W43069  17.464  36.642   1.641
70002W        W43070   2.089  15.670  13.404
70003W        W43071  39.868  39.054   1.514
70004W        W43072   0.468  29.183  11.570
70005W        W43073   5.291   3.231   3.185
70006W        W43074  27.678  29.031  11.994
70007W        W43075  15.079   5.736   3.440
70008W        W43076  42.521   3.164   0.452
70009W        W43077   0.210  13.498  14.482
70010W        W43078  23.145  39.289   4.779
70011W        W43079  15.724   3.341   4.710
70012W        W43080  44.976  28.416   0.872
70013W        W43081  12.283  38.891   3.842
70014W        W43082   5.873  36.098  12.317
70015W        W43083   5.533  16.343  10.951
70016W        W43084  13.177   0.020   4.191
70017W        W43085  26.030  20.432  14.176
70018W        W43086  13.069   0.461  13.686
70019W        W43087   5.927   2.605  14.810
70020W        W43088  32.752  12.798  13.833
70021W        W43089   0.426  40.289  11.154
70022W        W43090  11.709  19.636  11.876
70023W        W43091  19.697  44.874   0.201
70024W        W43092  36.984  22.538   2.934
70025W        W43093   7.000  24.283  11.019
70026W        W43094  24.490  33.520   2.833
70027W        W43095  30.128   3.405  11.224
70028W        W43096   2.339  29.060  11.158
70029W        W43097  13.259  28.535  11.448
70030W        W43098  33.544  24.861   9.890
70031W        W43099  30.835  34.221  11.599
70032W        W43100  39.768  13.745   2.835
70033W        W43101  35.793   1.906   3.195
70034W        W43102   8.503  24.847  11.333
70035W        W43103  17.496  33.728   3.752
70036W        W43104   5.959  17.614   3.350
70037W        W43105  28.486   1.668  12.436
70038W        W43106   8.952  16.718  14.951
70039W        W43107   9.843  40.997  13.368
70040W        W43108  43.864  26.994   2.917
70041W        W43109  28.066  41.399   9.851
70042W        W43110  34.542  41.607   4.144
70043W        W43111   8.765  16.559  13.273
70044W        W43112  23.155  15.210   4.317
70045W        W43113  26.662  18.178  10.685
70046W        W43114   3.287  34.997  12.354
70047W        W43115  30.685  12.985   3.223
70048W        W43116  31.700  16.657  11.616
70049W        W43117  17.363  11.225  12.121
70050W        W43118  25.537   6.222  14.254
70051W        W43119   9.066   6.598   1.643
70052W        W43120  23.655  34.626  13.994
70053W        W43121   6.032   2.938  11.508
70054W        W43122  18.747  26.935   0.490
70055W        W43123   7.384  44.386  14.374
70056W        W43124   7.242  28.213   1.712
70057W        W43125  34.356  30.852  11.050
70058W        W43126  26.672  13.597   1.424
70059W        W43127   4.606  43.260  11.180
70060W        W43128  16.112  43.306   4.546
70061W        W43129  20.165  20.053   4.063
70062W        W43130   7.695   9.322  12.122
70063W        W43131  24.479  12.712  13.526
70064W        W43132   3.028  16.053   2.871
70065W        W43133   1.290   4.530   0.212
70066W        W43134  31.338  12.286  13.910
70067W        W43135   3.535   6.725  11.232
70068W        W43136  22.276  36.525  12.073
70069W        W43137  27.138  20.986   1.503
70070W        W43138   2.793   7.264  11.021
70071W        W43139  38.118   3.678   4.189
70072W        W43140  12.268  10.900  12.965
70073W        W43141  34.516  37.816  12.688
70074W        W43142  44.491   8.763   2.620
70075W        W43143  36.996  33.058   4.897
70076W        W43144  35.502  38.566   2.661
70077W        W43145  20.997   8.810   1.246
70078W        W43146   5.544  26.501  14.362
70079W        W43147   0.777  40.433  11.532
70080W        W43148   7.819   0.579   2.541
70081W        W43149  42.663   3.773  13.868
70082W        W43150  13.756  37.390   0.789
70083W        W43151  22.549   7.697  11.614
70084W        W43152  10.547   5.343   0.440
70085W        W43153   1.143   3.481  11.577
70086W        W43154   1.339  33.052  11.437
70087W        W43155  30.855  30.347  12.102
70088W        W43156   5.165  36.656   2.421
70089W        W43157   8.792  11.201  11.622
70090W        W43158  30.459   9.983  14.300
70091W        W43159   8.853  22.481   2.781
70092W        W43160  25.582  37.543  12.766
70093W        W43161   6.103  42.144  11.544
70094W        W43162   3.931  30.225  12.489
70095W        W43163   5.920  34.808   1.956
70096W        W43164   6.918  44.432   1.327
70097W        W43165   5.979  15.541  14.987
70098W        W43166  13.256  38.423  14.583
70099W        W43167  14.401  37.614  12.442
70100W        W43168  10.024  22.152   3.524
70101W        W43169  17.630  25.772  10.636
70102W        W43170  18.775  38.707  12.444
70103W        W43171  14.161  10.681  14.370
70104W        W43172  25.019  30.134   4.630
70105W        W43173  18.188  25.123   2.416
70106W        W43174  23.232  28.653  14.333
70107W        W43175  44.519   9.633   0.447
70108W        W43176   2.796   6.660   4.142
70109W        W43177  24.982  35.120  12.363
70110W        W43178  17.232  42.304   1.451
70111W        W43179  29.089   1.369   4.393
70112W        W43180  37.149   7.964  13.968
70113W        W43181  28.574   6.671  13.532
70114W        W43182  39.104   6.544   1.685
70115W        W43183  12.632  16.569  11.531
70116W        W43184  37.984  10.574   2.402
70117W        W43185   2.676  14.758  12.319
70118W        W43186  29.626  16.465  10.672
70119W        W43187  41.453   4.213   2.255
70120W        W43188  16.988  40.368  14.957
70121W        W43189   8.800   8.865  11.378
70122W        W43190  10.947   5.796  10.530
70123W        W43191  38.483   7.277  12.037
70124W        W43192   5.658  36.829  12.455
70125W        W43193  36.050   5.259  13.683
70126W        W43194  23.940  31.903   4.100
70127W        W43195  38.587  34.533  10.694
70128W        W43196  27.502  36.765  12.072
70129W        W43197  11.719   1.423  13.822
70130W        W43198  33.658  33.146  14.396
70131W        W43199   2.350  35.499  12.043
70132W        W43200   3.722  20.327   0.513
70133W        W43201   4.274   7.111   3.409
70134W        W43202  14.259   0.773  13.820
70135W        W43203  44.384  38.855   0.401
70136W        W43204   4.170   0.064  14.864
70137W        W43205  34.473  19.654  13.562
70138W        W43206  44.261  35.838  11.205
70139W        W43207  28.941  18.046   1.210
70140W        W43208  16.247   8.888  11.312
70141W        W43209   0.699   3.255   0.780
70142W        W43210  12.197  19.582   4.820
70143W        W43211  41.800  22.475  13.671
70144W        W43212  42.793  28.469  12.013
70145W        W43213  10.051   4.669  13.259
70146W        W43214  20.258  25.021   4.108
70147W        W43215  29.191  16.804   4.651
70148W        W43216  22.074  26.605  13.924
70149W        W43217  32.463   7.244   0.764
70150W        W43218  37.539   2.370  10.437
70151W        W43219  28.445   7.315  11.247
70152W        W43220  14.709  18.533  11.600
70153W        W43221  32.455   5.510   4.298
70154W        W43222  26.625  24.526  11.561
70155W        W43223  33.046  33.917  13.060
70156W        W43224  43.303  33.768   3.499
70157W        W43225  43.353  37.881   2.221
70158W        W43226  44.944   1.937   0.374
70159W        W43227   2.314  35.537   3.218
70160W        W43228   8.287  41.577   3.630
70161W        W43229   2.428  37.689   1.338
70162W        W43230  10.774  11.782  13.068
70163W        W43231  42.835  22.391   5.258
70164W        W43232  29.130   7.416  12.520
70165W        W43233  19.734  27.147  12.446
70166W        W43234   9.268  36.087   3.383
70167W        W43235  18.288  34.045  11.902
70168W        W43236  40.985   2.458   3.651
70169W        W43237  26.176  27.939   3.345
70170W        W43238   8.254   3.784   0.016
70171W        W43239  21.319  35.519  14.945
70172W        W43240   5.726  26.709   4.307
70173W        W43241  42.844  24.178   3.781
70174W        W43242  22.197  38.340  11.150
70175W        W43243  24.535  35.002   3.193
70176W        W43244  40.839  34.548   4.712
70177W        W43245  34.990   2.423   2.323
70178W        W43246  15.136   2.878   3.135
70179W        W43247  37.024  29.936   1.453
70180W        W43248  27.066   8.661  13.466
70181W        W43249  20.689  22.524   2.843
70182W        W43250  41.660  42.993   2.367
70183W        W43251   2.502  36.001   4.102
70184W        W43252  28.630  24.046  12.889
70185W        W43253  35.681  20.070  14.867
70186W        W43254  44.500  27.158   0.590
70187W        W43255  10.347  22.048   2.370
70188W        W43256  35.000  22.773  11.030
70189W        W43257  41.006  43.451  14.765
70190W        W43258  27.540  32.886  14.031
70191W        W43259  43.434   4.667  10.640
70192W        W43260  14.584  34.513   4.559
70193W        W43261  34.320  39.541   5.031
70194W        W43262  21.765  13.362  12.437
70195W        W43263  39.325  29.853  14.475
70196W        W43264   6.895  27.933   0.742
70197W        W43265  26.429  36.532  11.575
70198W        W43266   6.813   7.689  13.321
70199W        W43267   5.467  35.619   0.894
70200W        W43268  31.294  44.778  12.998
70201W        W43269  34.029   1.466   1.617
70202W        W43270  11.364  30.220  13.882
70203W        W43271  28.830   5.645  13.405
70204W        W43272  22.692  27.856   3.187
70205W        W43273  12.260  41.577  11.857
70206W        W43274  22.535  22.146  12.866
70207W        W43275  26.038  43.124  10.987
70208W        W43276   4.335  33.104  13.407
70209W        W43277  43.934  19.209   2.732
70210W        W43278   2.734   3.662   2.213
70211W        W43279  21.964  28.162  10.633
70212W        W43280  38.364  26.635  13.010
70213W        W43281  20.497  25.627  11.190
70214W        W43282  41.940   8.557  10.087
70215W        W43283  34.091  36.358   2.638
70216W        W43284  19.834  20.196   3.380
70217W        W43285  42.545  23.883  14.355
70218W        W43286   1.616  29.535  11.111
70219W        W43287   9.199  17.596  12.517
70220W        W43288  44.743   0.722   2.397
70221W        W43289   5.364  19.353   4.548
70222W        W43290   7.404  10.232   1.723
70223W        W43291  24.707   7.308  13.909
70224W        W43292  26.217  36.631  14.378
70225W        W43293  16.329   5.800   0.946
70226W        W43294  30.695   0.067  14.610
70227W        W43295  15.006  24.444  11.015
70228W        W43296  41.253  25.540   3.835
70229W        W43297  41.507   1.958   4.752
70230W        W43298   2.703  23.980   0.351
70231W        W43299  31.854  33.941  10.434
70232W        W43300  41.219  42.114   0.968
70233W        W43301  18.840  28.128  12.591
70234W        W43302  36.879   3.441   0.226
70235W        W43303  25.231  21.631  11.141
70236W        W43304  38.473  31.630   3.086
70237W        W43305  13.314  11.164   2.311
70238W        W43306   5.394   4.903   0.856
70239W        W43307  13.224  22.339  12.059
70240W        W43308  11.936  20.472  12.146
70241W        W43309  33.185  11.364  11.245
70242W        W43310  25.592   8.396  14.284
70243W        W43311  32.852  20.886   0.856
70244W        W43312  33.417  32.241   1.205
70245W        W43313  14.360  18.619  12.552
70246W        W43314   7.812   2.410   2.464
70247W        W43315  19.526  21.032   2.285
70248W        W43316  20.174  17.774   1.437
70249W        W43317  32.247  20.503  14.598
70250W        W43318  30.308   1.735   4.586
70251W        W43319   4.602  34.361  12.159
70252W        W43320  26.106  18.164   0.025
70253W        W43321  23.915   1.945   4.735
70254W        W43322  20.904  22.025  11.718
70255W        W43323  29.746  30.134   4.171
70256W        W43324   1.175  24.565  12.469
70257W        W43325  29.084  36.869   0.184
70258W        W43326   0.271  28.035   2.139
70259W        W43327  17.225  21.573   2.340
70260W        W43328  17.845  34.146  12.180
70261W        W43329  44.498   8.236  11.098
70262W        W43330  21.440  14.230  12.669
70263W        W43331  27.313  22.007  12.598
70264W        W43332   0.755   6.193   1.719
70265W        W43333  41.386  26.616  10.318
70266W        W43334  37.399  25.064  11.991
70267W        W43335  40.999  25.063   1.461
70268W        W43336   3.359  44.937   4.879
70269W        W43337   6.925  28.950   4.147
70270W        W43338   0.035  32.970   2.670
70271W        W43339  38.926  17.678   2.980
70272W        W43340  21.145  30.538  10.234
70273W        W43341   4.913  14.050   3.628
70274W        W43342  16.640  31.651   0.695
70275W        W43343  43.655  34.015  14.845
70276W        W43344  21.660  22.280   2.721
70277W        W43345  37.306   1.747   1.336
70278W        W43346  43.199  10.963  13.672
70279W        W43347  42.742  38.339   1.833
70280W        W43348  37.804  11.694  10.648
70281W        W43349  20.549   3.462   2.571
70282W        W43350  20.881  23.426  12.818
70283W        W43351  42.411  11.629  14.063
70284W        W43352   0.527  34.292   1.700
70285W        W43353  25.076  21.095  12.314
70286W        W43354  36.106  39.323  13.349
70287W        W43355  13.215  18.381   3.372
70288W        W43356  23.248  25.225   0.727
70289W        W43357   9.921   4.197  13.464
70290W        W43358   7.926   7.140  12.122
70291W        W43359  25.185  31.031   0.774
70292W        W43360  12.387  25.036   4.893
70293W        W43361  21.549  15.510  12.815
70294W        W43362  35.540  38.592  11.285
70295W        W43363  24.999  24.099  10.713
70296W        W43364   8.409  22.958  13.977
70297W        W43365  35.169  13.958   4.064
70298W        W43366  27.192  20.372  12.014
70299W        W43367  31.662   3.509  11.079
70300W        W43368   5.152   7.749   1.345
70301W        W43369   6.314  28.416  13.417
70302W        W43370  31.757   4.307  13.853
70303W        W43371  10.617   4.216  13.999
70304W        W43372  21.196   9.694   1.091
70305W        W43373  36.000  38.589  10.424
70306W        W43374  23.638   8.464   4.701
70307W        W43375   7.724  33.115  14.807
70308W        W43376  15.514  15.235   2.713
70309W        W43377   6.585  17.525  14.788
70310W        W43378  33.507   3.304  10.512
70311W        W43379  31.495   4.425   1.739
70312W        W43380  38.581  25.507   2.439
70313W        W43381  15.867  40.183  11.622
70314W        W43382   9.819  30.718  11.127
70315W        W43383  21.137  24.633   1.841
70316W        W43384  22.119  26.804  11.912
70317W        W43385  24.095  25.024   2.426
70318W        W43386  31.996   0.721  10.781
70319W        W43387  30.522  28.894   3.095
70320W        W43388  15.661   2.111   1.223
70321W        W43389  39.722  15.239   2.309
70322W        W43390  30.591  28.035  13.778
70323W        W43391  11.351  34.501   2.386
70324W        W43392  44.833  18.292   2.327
70325W        W43393  18.750  11.785  11.173
70326W        W43394  29.964  33.661   2.878
70327W        W43395  40.040  32.857   1.198
70328W        W43396   9.574   0.952   2.736
70329W        W43397  26.316  41.178  13.361
70330W        W43398  34.527  26.400  10.621
70331W        W43399  21.035  23.758  12.011
70332W        W43400  30.818  13.258   1.889
70333W        W43401   5.804  43.892  13.629
70334W        W43402  39.610  17.452  14.160
70335W        W43403  13.405  35.175  11.477
70336W        W43404  28.095  18.678   3.382
70337W        W43405  37.857  43.968   4.230
70338W        W43406  16.632  19.434   0.380
70339W        W43407   9.991  15.871   5.106
70340W        W43408  21.662  38.397   3.744
70341W        W43409  23.478  11.866   0.790
70342W        W43410  15.128   9.866  14.929
70343W        W43411  22.569  14.484   3.336
70344W        W43412  15.790   2.259   1.694
70345W        W43413  38.933   3.827   2.629
70346W        W43414   4.870   8.543  14.381
70347W        W43415   5.277  14.613  13.888
70348W        W43416  36.065  37.547   3.141
70349W        W43417  26.646  14.240  13.032
70350W        W43418   4.032  20.016   3.652
70351W        W43419   9.943  10.402   2.099
70352W        W43420  11.082  39.165  13.458
70353W        W43421  12.809   8.783   2.690
70354W        W43422   9.848  27.612   3.186
70355W        W43423  16.243  25.822  13.095
70356W        W43424  34.629  19.634   5.113
70357W        W43425  17.284  44.975  12.039
70358W        W43426  14.376  30.156   2.202
70359W        W43427   2.966  23.392  14.595
70360W        W43428  35.087  18.187   4.301
70361W        W43429  13.203   9.653  13.421
70362W        W43430  42.829  33.917   4.656
70363W        W43431  12.052  29.607   2.599
70364W        W43432  13.138  15.735   4.048
70365W        W43433  22.592  22.072   0.354
70366W        W43434  34.000  11.600  11.111
70367W        W43435   4.412   3.163   1.484
70368W        W43436  38.022  40.470   2.750
70369W        W43437  12.771  11.694  13.774
70370W        W43438  25.111  18.438  10.479
70371W        W43439  28.619  22.492   1.696
70372W        W43440  18.156  43.519   1.167
70373W        W43441  29.980  30.593   1.898
70374W        W43442  15.246  44.436  11.494
70375W        W43443   9.168  16.155  13.833
70376W        W43444  38.536   1.474  14.673
70377W        W43445  19.008  16.336   0.688
70378W        W43446   7.772  38.873  11.586
70379W        W43447   7.478  38.078   0.715
70380W        W43448   1.928  20.725  14.728
70381W        W43449  41.797   7.820   2.213
70382W        W43450  33.235  36.655  11.929
70383W        W43451  14.066  28.142  14.415
70384W        W43452  27.549  11.437  12.842
70385W        W43453  34.131   9.076  13.314
70386W        W43454   5.366   7.267  13.973
70387W        W43455   8.897  41.522  12.428
70388W        W43456  24.069   8.217   4.583
70389W        W43457  31.474  41.712   3.645
70390W        W43458  33.066  12.341  14.470
70391W        W43459  32.168   6.923   4.610
70392W        W43460  17.257  12.127   4.791
70393W        W43461  34.106  41.932  10.526
70394W        W43462  19.141  31.915  12.121
70395W        W43463  34.548  28.233  12.094
70396W        W43464  26.790  13.383  10.981
70397W        W43465  10.314  29.084   0.600
70398W        W43466  33.897  28.110   2.276
70399W        W43467  37.500  29.441  12.827
70400W        W43468  42.458  42.212  10.729
70401W        W43469  36.473   3.750  13.919
70402W        W43470   0.255  20.198  10.389
70403W        W43471   4.718   3.469   4.286
70404W        W43472   1.484  18.219   0.893
70405W        W43473  28.436  27.075  11.318
70406W        W43474  23.941  39.077   0.858
70407W        W43475  21.516  22.701  14.581
70408W        W43476   1.439  40.938  13.581
70409W        W43477  21.850  38.960   2.269
70410W        W43478  42.076  41.790  10.592
70411W        W43479  22.013  19.827  12.910
70412W        W43480  18.110  38.160  14.410
70413W        W43481   3.100   9.104  11.131
70414W        W43482  25.937   2.886  14.739
70415W        W43483   8.882  41.506  11.548
70416W        W43484  26.544  36.090  14.078
70417W        W43485  42.416  12.733  13.310
70418W        W43486  35.540   4.448   1.311
70419W        W43487   6.414  31.518   0.754
70420W        W43488  17.891  19.026  12.945
70421W        W43489  37.238  18.957  12.057
70422W        W43490  30.509  40.283   2.560
70423W        W43491  23.121  43.890   3.843
70424W        W43492  33.349  30.388   2.711
70425W        W43493  17.041  15.392   3.730
70426W        W43494  13.163  43.414  11.602
70427W        W43495  18.909  40.427  13.263
70428W        W43496  33.582   1.047   3.244
70429W        W43497  11.171  33.549  13.777
70430W        W43498  20.176   0.309   4.366
70431W        W43499  41.656  25.082   0.354
70432W        W43500  16.135  33.127  11.255
70433W        W43501  43.612  33.595  12.897
70434W        W43502  29.493  23.111  10.905
70435W        W43503   1.422   2.847   4.590
70436W        W43504   2.395  42.784  11.519
70437W        W43505  38.035  41.042  12.394
70438W        W43506  16.668   7.710   0.009
70439W        W43507  25.186  36.654   3.347
70440W        W43508  34.348  30.696   3.684
70441W        W43509  16.889   2.397  11.429
70442W        W43510  18.325   8.968  14.473
70443W        W43511   6.696  17.885  11.960
70444W        W43512   5.805  26.505   2.796
70445W        W43513  14.793  38.516   4.586
70446W        W43514  40.933  32.616  11.401
70447W        W43515  42.366  13.124  12.978
70448W        W43516  11.393  26.641  13.479
70449W        W43517  37.559   4.236  10.564
70450W        W43518  16.329  33.886  13.529
70451W        W43519   7.940  26.821   4.894
70452W        W43520   8.696  24.504  11.927
70453W        W43521  43.352  42.789   0.482
70454W        W43522   2.822  44.421  11.636
70455W        W43523  36.805  10.750  12.681
70456W        W43524  35.840  32.507  12.607
70457W        W43525  19.729  22.992  14.313
70458W        W43526   3.350   9.340  12.090
70459W        W43527   9.706  19.734   4.024
70460W        W43528  21.452   4.730  12.532
70461W        W43529  14.226  14.525   0.671
70462W        W43530  12.164  34.452   2.264
70463W        W43531  10.207  16.176   4.360
70464W        W43532  39.232  23.662  13.601
70465W        W43533  13.820  17.638   4.521
70466W        W43534  39.124  10.843  11.924
70467W        W43535  18.397  25.694   3.131
70468W        W43536  26.082  34.490   2.179
70469W        W43537  11.149   6.254   2.290
70470W        W43538  42.222  16.137  13.934
70471W        W43539  21.498  39.952  12.992
70472W        W43540   8.591  13.463   1.049
70473W        W43541   0.373  35.847   2.823
70474W        W43542  43.042  41.013   1.279
70475W        W43543  26.931  13.730  13.982
70476W        W43544   7.694   1.238  11.553
70477W        W43545  36.434  34.178  14.864
70478W        W43546  39.032   4.610  12.938
70479W        W43547  33.141   4.451   0.917
70480W        W43548  26.224  43.953   2.388
70481W        W43549  12.164  38.509   1.815
70482W        W43550  12.760  29.053   1.026
70483W        W43551  28.700  20.613   4.434
70484W        W43552  11.612   9.735  14.845
70485W        W43553   5.299  14.903  11.527
70486W        W43554  19.503  29.963   3.938
70487W        W43555  29.927  36.149   2.885
70488W        W43556  35.123   6.439   4.482
70489W        W43557  31.117  24.238   2.182
70490W        W43558   8.870  22.435  11.874
70491W        W43559   1.777  29.609   3.656
70492W        W43560  38.448   2.407  14.694
70493W        W43561  29.840  11.803  11.899
70494W        W43562  28.694   0.886  14.780
70495W        W43563  38.797  39.254   1.842
70496W        W43564  15.692   8.296  13.038
70497W        W43565  24.147  30.431  13.840
70498W        W43566  37.950  14.990  12.902
70499W        W43567  26.542  23.247  14.966
70500W        W43568  20.669  23.960   0.418
70501W        W43569  29.453   8.169  11.531
70502W        W43570  42.488  28.491   4.123
70503W        W43571  20.932   6.953   4.013
70504W        W43572  44.501   4.298  12.446
70505W        W43573   4.425   8.273   1.671
70506W        W43574  43.893   1.871  14.074
70507W        W43575  23.614  14.110   0.763
70508W        W43576  35.402  39.763   1.909
70509W        W43577  13.317  38.390  11.262
70510W        W43578  24.003  19.541   0.581
70511W        W43579   8.796  33.641   2.395
70512W        W43580   3.055  21.498  12.449
70513W        W43581  44.747  39.043   5.066
70514W        W43582  22.199  33.526  14.783
70515W        W43583  30.606  36.416   0.891
70516W        W43584   4.438  11.716   2.704
70517W        W43585  28.568  42.750   1.119
70518W        W43586  35.831  34.812  10.071
70519W        W43587  27.478  32.813   4.411
70520W        W43588  43.447  29.926  10.743
70521W        W43589  21.590   9.774   2.723
70522W        W43590  16.508  36.696  13.037
70523W        W43591   0.792  13.028   3.171
70524W        W43592  15.858  20.552  10.475
70525W        W43593  31.943  26.043   3.806
70526W        W43594   5.891  20.294   1.842
70527W        W43595   6.655  31.396  13.031
70528W        W43596  41.730  25.449   1.928
70529W        W43597  36.777  17.361   3.276
70530W        W43598  31.084  16.206   4.375
70531W        W43599  16.564   7.083   2.909
70532W        W43600  24.025  44.724   3.356
70533W        W43601  33.544  10.736   4.043
70534W        W43602  15.172  39.925  13.355
70535W        W43603  12.607  28.686   3.644
70536W        W43604   3.483  24.763  11.498
70537W        W43605  40.405  32.103   0.384
70538W        W43606  36.504  17.226   2.233
70539W        W43607  11.359  34.007  11.147
70540W        W43608  15.216  30.187  13.113
70541W        W43609  11.828  26.426   2.618
70542W        W43610   0.282  33.147   4.111
70543W        W43611  16.603  21.111   3.397
70544W        W43612  30.098  44.448   1.415
70545W        W43613  33.156   6.904   4.544
70546W        W43614  32.349  28.095  10.724
70547W        W43615  43.598   3.239  12.541
70548W        W43616  23.508  37.379   4.887
70549W        W43617  17.681  18.550   4.557
70550W        W43618  37.903  37.696   1.370
70551W        W43619  39.105  23.189   0.344
70552W        W43620  19.169  26.388   2.146
70553W        W43621  37.044  37.991  11.178
70554W        W43622   0.528  11.392  11.868
70555W        W43623  23.312  21.472  14.117
70556W        W43624  11.440  29.704   3.804
70557W        W43625  19.852  35.699  13.489
70558W        W43626  12.403  30.887   1.342
70559W        W43627   1.044  39.895   1.311
70560W        W43628  40.077  21.081   4.665
70561W        W43629  36.167  44.266  13.403
70562W        W43630  12.824   5.131   1.198
70563W        W43631  42.034  42.866  13.978
70564W        W43632   0.759  35.630   4.384
70565W        W43633  41.918  20.513   0.891
70566W        W43634   4.181  28.573  11.027
70567W        W43635  14.651   3.675  14.737
70568W        W43636   0.404  13.098  14.186
70569W        W43637  24.569  34.560   3.455
70570W        W43638   2.747  27.098   1.825
70571W        W43639  10.401  34.618  11.142
70572W        W43640   3.612  25.440  14.740
70573W        W43641  42.538  44.212  13.086
70574W        W43642   9.007   9.600   1.688
70575W        W43643  22.727  22.715  10.035
70576W        W43644  28.961  35.619  14.075
70577W        W43645   4.471  36.805   1.714
70578W        W43646   5.823   1.428  14.736
70579W        W43647  39.305  27.261  11.213
70580W        W43648  16.119  22.445  10.835
70581W        W43649  17.155  44.565   0.930
70582W        W43650  21.450  24.216  10.195
70583W        W43651  29.892  18.364  12.888
70584W        W43652  37.301  33.955   2.910
70585W        W43653   2.541  39.760   4.560
70586W        W43654  23.137  33.905  10.560
70587W        W43655   7.000   5.843  13.138
70588W        W43656   3.426   0.721   0.866
70589W        W43657  23.335  32.218  13.930
70590W        W43658  26.229  21.795   0.042
70591W        W43659   5.462  11.637   2.209
70592W        W43660   0.100  29.985  12.598
70593W        W43661  28.715  30.475  12.182
70594W        W43662  15.146  43.735  10.656
70595W        W43663  33.597  16.143   2.295
70596W        W43664  43.963  27.129  12.943
70597W        W43665  40.079   6.270  10.863
70598W        W43666  40.533   9.954  14.902
70599W        W43667  41.411  23.004   4.115
70600W        W43668  19.590  16.074   2.360
70601W        W43669  44.683  44.835  11.193
70602W        W43670   1.417  22.194   2.157
70603W        W43671   4.721  32.623  11.671
70604W        W43672  33.010  17.568  11.106
70605W        W43673  30.816  17.271  13.966
70606W        W43674  30.089  22.840  13.727
70607W        W43675  20.553  44.264  11.099
70608W        W43676   5.716  27.480   1.947
70609W        W43677  40.879  27.339   2.256
70610W        W43678  13.528   0.376   4.103
70611W        W43679  28.091  39.749   2.223
70612W        W43680  25.286  18.898   3.942
70613W        W43681  13.630  35.955   3.581
70614W        W43682  32.075  35.428  12.582
70615W        W43683  10.480  16.725  10.304
70616W        W43684  19.295  28.459  10.702
70617W        W43685   1.970  19.110  11.226
70618W        W43686   9.923  15.909  14.879
70619W        W43687  17.670  13.780   1.975
70620W        W43688   8.827  16.799  12.282
70621W        W43689  17.364  11.378   3.765
70622W        W43690  27.715   7.322   2.194
70623W        W43691  42.152  27.125   1.628
70624W        W43692  10.687  14.231  13.503
70625W        W43693  15.087  44.439  14.831
70626W        W43694  21.188  24.309  11.379
70627W        W43695  19.150   6.816  14.504
70628W        W43696  34.980   7.163   2.728
70629W        W43697  43.682  32.728   2.294
70630W        W43698  37.600  43.953  14.902
70631W        W43699  28.763  14.714  14.442
70632W        W43700  22.664  17.647   0.127
70633W        W43701  10.752  26.859   3.810
70634W        W43702  19.623   0.351  11.088
70635W        W43703   4.913  12.218  14.059
70636W        W43704  34.508  23.417   2.834
70637W        W43705  26.474  42.502  12.360
70638W        W43706  10.779  16.754  13.719
70639W        W43707   4.342   3.789   4.618
70640W        W43708  19.575  16.535   0.080
70641W        W43709  19.544  37.942   4.634
70642W        W43710   7.662   4.763   2.311
70643W        W43711  15.494  14.106   2.316
70644W        W43712   5.284  11.745  10.857
70645W        W43713  32.431  44.867  12.718
70646W        W43714   4.321  30.429   1.672
70647W        W43715  24.984   5.209  12.048
70648W        W43716   8.176  35.833   1.647
70649W        W43717   3.032  26.714   4.535
70650W        W43718  25.384  18.414   3.781
70651W        W43719  34.454  32.994  14.874
70652W        W43720   3.502   3.353   1.223
70653W        W43721  25.115   3.496  12.377
70654W        W43722   3.540   8.215   1.242
70655W        W43723   4.527  18.951   0.463
70656W        W43724   6.937  20.201   0.458
70657W        W43725  21.215  12.437   1.281
70658W        W43726  38.008  39.319   0.181
70659W        W43727  40.956  44.458   3.900
70660W        W43728  27.700  17.718   0.902
70661W        W43729  32.429  36.968   0.914
70662W        W43730  22.247  43.400   3.629
70663W        W43731  21.904  12.801   2.601
70664W        W43732  19.219   3.691   0.258
70665W        W43733   5.845  43.019   1.718
70666W        W43734  11.858  28.398  12.038
70667W        W43735  13.318  24.510  14.288
70668W        W43736  26.727   3.934   1.340
70669W        W43737  20.792  21.585   4.013
70670W        W43738  30.218  11.846  10.925
70671W        W43739  31.475  41.648   1.457
70672W        W43740   0.897   8.202  11.567
70673W        W43741  24.118  19.240  10.693
70674W        W43742  27.272   0.703   4.147
70675W        W43743  37.888  21.709  12.539
70676W        W43744  31.665  29.686  11.104
70677W        W43745   1.736   0.832   3.265
70678W        W43746  26.548  36.167  12.099
70679W        W43747  38.056  31.674  11.614
70680W        W43748   9.846  37.602  14.309
70681W        W43749  26.817   1.294  14.558
70682W        W43750  41.597  29.029  13.030
70683W        W43751  27.948   1.438   1.302
70684W        W43752  32.169   7.378   1.704
70685W        W43753  31.798  17.169  14.996
70686W        W43754  28.872  12.846  12.434
70687W        W43755   6.341  41.844  14.513
70688W        W43756  11.804  14.263   2.305
70689W        W43757   9.437  36.034   1.418
70690W        W43758   4.985   7.647   1.849
70691W        W43759  25.225   9.338   0.419
70692W        W43760  41.007   9.300   0.357
70693W        W43761  25.501  26.966   1.775
70694W        W43762  33.380  14.743  12.650
70695W        W43763  24.162   6.254   1.428
70696W        W43764  17.838  31.889   4.171
70697W        W43765  29.040  43.296  12.850
70698W        W43766  19.131  23.575   4.091
70699W        W43767  28.535   5.915   3.631
70700W        W43768   0.389  18.687  11.890
70701W        W43769  11.789   9.717  10.959
70702W        W43770  13.068  13.702  11.890
70703W        W43771  35.436  21.459  12.395
70704W        W43772   0.951   9.614   0.793
70705W        W43773  11.549   2.734   0.018
70706W        W43774   4.518  32.047   2.727
70707W        W43775  43.248  21.162  11.902
70708W        W43776  30.134  21.069   2.827
70709W        W43777  44.414   3.810   3.219
70710W        W43778  44.716  11.589  14.469
70711W        W43779   3.358  44.082   1.625
70712W        W43780   0.013  30.586   1.810
70713W        W43781  38.479  12.159  13.950
70714W        W43782  12.269  35.697  12.126
70715W        W43783  12.757  37.227  10.733
70716W        W43784  24.506  31.688   1.716
70717W        W43785  30.216  11.357  14.613
70718W        W43786  40.245  16.448   3.742
70719W        W43787  30.405   4.824   3.540
70720W        W43788   6.030  34.604  13.451
70721W        W43789  20.786   7.269  11.926
70722W        W43790  32.310  34.460   2.707
70723W        W43791  18.288  39.892   1.871
70724W        W43792  12.907   7.223  11.106
70725W        W43793  34.312   2.924  10.691
70726W        W43794   2.136  15.210  11.059
70727W        W43795   0.462  12.328   2.154
70728W        W43796  16.090  33.876  13.059
70729W        W43797   9.715  38.479   2.408
70730W        W43798  22.563   7.941  13.468
70731W        W43799  41.825  21.312   4.229
70732W        W43800  44.584  10.843  10.678
70733W        W43801  40.946  42.029  12.952
70734W        W43802  37.860   8.917  10.780
70735W        W43803  29.434  40.319   1.685
70736W        W43804  11.254   5.173  14.381
70737W        W43805   1.992  17.689  14.226
70738W        W43806  34.319  29.731  12.044
70739W        W43807  18.735  37.593   4.645
70740W        W43808  41.947  10.577   1.669
70741W        W43809  15.828  42.688  11.552
70742W        W43810  20.725   4.433  11.761
70743W        W43811  15.577  42.349  13.391
70744W        W43812   1.914  10.822  11.343
70745W        W43813  13.825  11.782  11.746
70746W        W43814  16.091  38.481   4.109
70747W        W43815  19.106   4.865  12.896
70748W        W43816   9.952  40.591  10.830
70749W        W43817   1.816  27.981  11.165
70750W        W43818   4.383  20.614  11.376
70751W        W43819  28.587  31.077  12.942
70752W        W43820  28.399  38.080   0.006
70753W        W43821  33.814  17.750   3.293
70754W        W43822  28.154   5.456   4.744
70755W        W43823  15.984  43.653  12.628
70756W        W43824  18.576   5.416  10.500
70757W        W43825   9.347  42.752  13.515
70758W        W43826  11.946  20.063  14.511
70759W        W43827   8.388  38.603  10.608
70760W        W43828  18.129   7.746   0.030
70761W        W43829  33.979  36.624   4.551
70762W        W43830   3.737   0.676   1.788
70763W        W43831  13.112  24.016   1.909
70764W        W43832  42.503  32.885  10.530
70765W        W43833   3.562  32.334   1.241
70766W        W43834  22.220  16.717   0.011
70767W        W43835  37.725  15.270   4.827
70768W        W43836  27.380  17.748  14.871
70769W        W43837   9.135  34.155   1.968
70770W        W43838  35.063  40.383  14.424
70771W        W43839  34.027  20.098   1.852
70772W        W43840  20.073   7.709  12.859
70773W        W43841   3.913  27.474   0.348
70774W        W43842  28.169   9.957   2.278
70775W        W43843  40.326  42.662  11.623
70776W        W43844   9.842  34.358   0.469
70777W        W43845   6.715  30.219  14.804
70778W        W43846   9.209   0.264   0.951
70779W        W43847   1.922  32.460  14.002
70780W        W43848  26.119  28.535   4.504
70781W        W43849  21.792  19.522   0.401
70782W        W43850  37.146  38.457   3.198
70783W        W43851   8.441  20.833   2.187
70784W        W43852  32.558   8.212   3.353
70785W        W43853  13.273  36.651  12.912
70786W        W43854  16.042   7.213   0.450
70787W        W43855  16.596  42.703   1.703
70788W        W43856  12.711   8.352  11.494
70789W        W43857  40.815   0.970  14.844
70790W        W43858   6.732   8.754   2.196
70791W        W43859  22.048   9.658   1.835
70792W        W43860   9.823  19.581   0.765
70793W        W43861  44.194  19.713   3.980
70794W        W43862  31.618   9.939   2.347
70795W        W43863  43.800  37.478   1.175
70796W        W43864  10.654  31.042   0.063
70797W        W43865  13.541   5.805  14.795
70798W        W43866  31.605   7.352   0.395
70799W        W43867  35.118  33.176   2.094
70800W        W43868   2.823  28.227   1.833
70801W        W43869  16.786  24.515  10.767
70802W        W43870  12.279  40.336   3.413
70803W        W43871  44.544  12.374   2.292
70804W        W43872   3.586  24.618  13.840
70805W        W43873  36.942  32.187  13.905
70806W        W43874  17.953  35.424  11.786
70807W        W43875  40.848  24.631  14.480
70808W        W43876  18.189  19.126   0.147
70809W        W43877  42.959   3.230   3.607
70810W        W43878  38.109   9.832  11.061
70811W        W43879  10.365  31.195   3.650
70812W        W43880  43.402   7.688   4.794
70813W        W43881   4.531  35.432  13.408
70814W        W43882   2.707  40.005   2.824
70815W        W43883   6.741  26.494   4.951
70816W        W43884   7.572  16.904   4.691
70817W        W43885  29.401  44.359  11.084
70818W        W43886  26.863   9.199  10.720
70819W        W43887  14.184  35.896   2.241
70820W        W43888  25.422  15.555  12.389
70821W        W43889  38.130   6.180   4.133
70822W        W43890   4.350  26.443  11.228
70823W        W43891  14.674   5.239  12.366
70824W        W43892   4.347  13.861   3.337
70825W        W43893  39.298   0.672  11.524
70826W        W43894   2.530  30.084   3.718
70827W        W43895  19.770   1.332   2.945
70828W        W43896   5.221  27.116   0.436
70829W        W43897  31.598   0.481  14.084
70830W        W43898  25.420  22.446  14.970
70831W        W43899  14.088  40.830  10.570
70832W        W43900  35.897  36.014  14.958
70833W        W43901  29.978  22.433  14.671
70834W        W43902  16.665  27.938   4.999
70835W        W43903  26.492  10.709   0.785
70836W        W43904   3.509  31.910   2.698
70837W        W43905  20.394  33.347  12.422
70838W        W43906   6.403  35.210  14.088
70839W        W43907  11.389   5.866   3.688
70840W        W43908  26.131   4.815   2.115
70841W        W43909  33.957  28.824   4.655
70842W        W43910  40.552  43.919   2.322
70843W        W43911  32.062  16.142   2.874
70844W        W43912   7.278   5.289  14.329
70845W        W43913  43.225  31.460  11.030
70846W        W43914  41.739  31.699   2.750
70847W        W43915  36.177  29.675  12.414
70848W        W43916  19.044  17.506   1.922
70849W        W43917  18.445  33.945   1.635
70850W        W43918  22.805  43.759   5.114
70851W        W43919  23.712  10.621   0.251
70852W        W43920  15.212  39.394  13.248
70853W        W43921  27.143  12.318   5.125
70854W        W43922  40.831  42.246  11.589
70855W        W43923  18.556  32.188   2.825
70856W        W43924  11.711  26.087  11.305
70857W        W43925  17.792  33.549  13.840
70858W        W43926  21.242  33.472  11.941
70859W        W43927   6.860  11.782   1.240
70860W        W43928  30.134  15.610  11.663
70861W        W43929  42.394  40.101   0.177
70862W        W43930  32.900   0.633   1.393
70863W        W43931  31.471  30.843   0.443
70864W        W43932   6.675  43.071  12.459
70865W        W43933  25.882  42.818  11.449
70866W        W43934  10.865  23.964   2.090
70867W        W43935  14.161  22.188   1.230
70868W        W43936  31.900   7.836   4.940
70869W        W43937  38.563  27.037   3.657
70870W        W43938   9.273  26.729   1.743
70871W        W43939  26.905  34.217   0.785
70872W        W43940   5.899  40.533   0.386
70873W        W43941  33.120  27.774  13.065
70874W        W43942  10.784   9.021  12.311
70875W        W43943  21.385  37.249   0.381
70876W        W43944   5.300   9.859   0.322
70877W        W43945   3.444  25.275   2.360
70878W        W43946  36.571  31.168   4.175
70879W        W43947  19.114  36.374   4.243
70880W        W43948  33.334  14.202   4.080
70881W        W43949  10.858  20.089   3.234
70882W        W43950  33.211  27.742  14.315
70883W        W43951  12.894  16.165  14.482
70884W        W43952  26.509  16.150  13.360
70885W        W43953  32.471   4.172   4.934
70886W        W43954   7.560  17.096   0.983
70887W        W43955  24.688  11.332   3.694
70888W        W43956  30.380  30.683  13.043
70889W        W43957  40.086  39.520  11.813
70890W        W43958  26.436  11.130   2.026
70891W        W43959   2.379   1.293   4.369
70892W        W43960  10.282   4.329   1.405
70893W        W43961  21.691  19.735  13.305
70894W        W43962   9.626  18.190  11.983
70895W        W43963  33.579   0.903  11.976
70896W        W43964   3.327  12.612   4.697
70897W        W43965  38.524  43.515  11.806
70898W        W43966  19.865  30.925  11.628
70899W        W43967  39.586  19.717  14.594
70900W        W43968  31.130  18.820  11.123
70901W        W43969  11.364  23.688   0.929
70902W        W43970  19.819   8.693  11.022
70903W        W43971   5.423  28.368  12.939
70904W        W43972  19.840   2.963   2.227
70905W        W43973  42.008   2.406  11.021
70906W        W43974  13.721  35.541   1.698
70907W        W43975   4.964   9.804   0.757
70908W        W43976  20.195  15.350   1.189
70909W        W43977  37.067  15.222   2.279
70910W        W43978  17.514   1.739   4.330
70911W        W43979  19.702  34.758   0.795
70912W        W43980   1.853   7.992  12.845
70913W        W43981  25.519   2.658   3.248
70914W        W43982  43.085   8.329  12.879
70915W        W43983  30.462  29.096   3.580
70916W        W43984  41.437  33.285   0.404
70917W        W43985  16.633   2.916   4.886
70918W        W43986   8.239   7.388   3.551
70919W        W43987   0.424  32.846   1.843
70920W        W43988  34.048  20.809   0.220
70921W        W43989   6.345   6.257   3.239
70922W        W43990  37.842  11.846   2.846
70923W        W43991  19.625   8.915   1.476
70924W        W43992   7.907  35.930   4.030
70925W        W43993  16.841  32.436  12.076
70926W        W43994  43.690  27.602  13.662
70927W        W43995  11.360   7.460  14.060
70928W        W43996   3.779  28.956   0.835
70929W        W43997  25.004  41.131   1.623
70930W        W43998   1.819  28.595  11.988
70931W        W43999  13.724   1.973  11.655
70932W        W44000  13.591  18.297   0.482
70933W        W44001  19.390  19.167   2.995
70934W        W44002  18.616  18.066   3.234
70935W        W44003  14.237  13.575  11.038
70936W        W44004  38.252  40.551  13.902
70937W        W44005  10.141  18.258  14.983
70938W        W44006  19.484   6.196   0.465
70939W        W44007  28.532  33.910  11.166
70940W        W44008  27.922  33.330   1.345
70941W        W44009  27.003  31.883  10.719
70942W        W44010  11.751  38.586   4.609
70943W        W44011   0.486  35.525  14.705
70944W        W44012  35.781  19.165  12.001
70945W        W44013  14.255  34.284  13.930
70946W        W44014  41.734  23.346   3.713
70947W        W44015  13.966   9.272  14.690
70948W        W44016  44.587  15.673   3.811
70949W        W44017   4.911   5.593  14.578
70950W        W44018  10.599  35.419  13.061
70951W        W44019  26.985   7.424  12.892
70952W        W44020  11.395  37.255   2.210
70953W        W44021  24.054  27.245  10.792
70954W        W44022  28.153  15.725   5.116
70955W        W44023   1.848   3.397  11.030
70956W        W44024   7.378  33.114   2.967
70957W        W44025  19.610  38.861  11.834
70958W        W44026  18.553   6.147  13.429
70959W        W44027  40.983   4.026  13.451
70960W        W44028  36.717  39.797  13.504
70961W        W44029   1.792  11.268   0.730
70962W        W44030   4.537   1.465   4.818
70963W        W44031  15.089  42.437   3.344
70964W        W44032  23.214  15.203   1.889
70965W        W44033  38.019  27.232  12.869
70966W        W44034  30.156   1.498   0.989
70967W        W44035  20.230  13.110   0.447
70968W        W44036  18.723  39.969  12.966
70969W        W44037  27.238  33.919   3.942
70970W        W44038  10.113  14.379   2.400
70971W        W44039  37.469  39.051  13.341
70972W        W44040  21.232  17.679  12.744
70973W        W44041   9.160  26.687   4.516
70974W        W44042  18.779   3.274   1.928
70975W        W44043  26.714  41.291  14.398
70976W        W44044  44.197  35.345   1.730
70977W        W44045   2.938  30.503   3.123
70978W        W44046  15.879  19.056   3.081
70979W        W44047  44.280   9.154  13.827
70980W        W44048  26.766   9.339   1.828
70981W        W44049  30.409  23.932   2.897
70982W        W44050   0.436   4.683  11.591
70983W        W44051  34.672  43.952  14.880
70984W        W44052  10.872  20.685   0.958
70985W        W44053  27.154  26.688  13.511
70986W        W44054  33.013  40.759   3.708
70987W        W44055   6.850  27.170  13.365
70988W        W44056   3.189   3.695  11.202
70989W        W44057  18.962  18.791   3.191
70990W        W44058   1.399  16.403  13.984
70991W        W44059   5.493  34.323   0.199
70992W        W44060   9.878  34.607   3.699
70993W        W44061   9.797  25.263  12.914
70994W        W44062   3.924  15.599   1.649
70995W        W44063  42.592  36.345  13.817
70996W        W44064  39.073  14.077   4.199
70997W        W44065  27.440  28.072  13.666
70998W        W44066   5.176  14.612   2.987
70999W        W44067   8.668  25.712  10.633
71000W        W44068  18.106  16.149  12.066
71001W        W44069  10.349  26.759  12.093
71002W        W44070  41.794   9.534  12.082
71003W        W44071  16.083  43.716   0.993
71004W        W44072  12.437  24.553   0.888
71005W        W44073  14.645   4.491   0.791
71006W        W44074  10.466   3.664   2.658
71007W        W44075  25.018  43.713   4.271
71008W        W44076  24.059   9.303   3.424
71009W        W44077  39.957  16.837   2.460
71010W        W44078  19.087   5.851  14.258
71011W        W44079  31.699  43.495   1.375
71012W        W44080  21.166  23.112  10.501
71013W        W44081  17.303  41.790  12.630
71014W        W44082  44.270  29.976   0.926
71015W        W44083  12.806  28.741  11.178
71016W        W44084  10.063  37.042   3.772
71017W        W44085  16.325  42.439  14.548
71018W        W44086  34.613  10.300   1.669
71019W        W44087   3.964  42.769  11.523
71020W        W44088  15.709   1.324   1.897
71021W        W44089  14.123  14.080  11.094
71022W        W44090  20.690  38.843  10.044
71023W        W44091  23.537   1.404  11.604
71024W        W44092  14.030  27.789   3.171
71025W        W44093  26.558  23.805   0.952
71026W        W44094  12.966  14.227  13.513
71027W        W44095   4.867  29.361   2.224
71028W        W44096  10.527  22.533   2.284
71029W        W44097  12.862  21.667  11.190
71030W        W44098  41.135   6.619  12.852
71031W        W44099  17.215   2.043   1.908
71032W        W44100  38.475   7.332   4.439
71033W        W44101   6.355  32.642  13.467
71034W        W44102  11.114  38.921   4.149
71035W        W44103   3.538  33.963   1.164
71036W        W44104   7.837  35.806  13.851
71037W        W44105   0.421   4.159   4.941
71038W        W44106   9.240  14.429   5.090
71039W        W44107   5.960  15.754  10.629
71040W        W44108  24.091  23.498  12.969
71041W        W44109  16.817  10.130  11.603
71042W        W44110  13.727  43.316   4.221
71043W        W44111  10.633  18.841   2.275
71044W        W44112  36.973   7.646  11.145
71045W        W44113  11.309  17.264   1.765
71046W        W44114  19.176  25.557  12.999
71047W        W44115  44.052  17.068   3.202
71048W        W44116  12.079  37.937  13.965
71049W        W44117  40.822  21.674  13.757
71050W        W44118  12.457   3.195  14.496
71051W        W44119  29.595  42.069  12.710
71052W        W44120   0.295   8.754  12.496
71053W        W44121   0.423  17.693   2.664
71054W        W44122  12.780  33.411  12.200
71055W        W44123  44.567  25.068  10.623
71056W        W44124  29.357  35.462  14.381
71057W        W44125  39.292  29.731   2.706
71058W        W44126  21.885  19.100  14.878
71059W        W44127  16.324  16.152   2.193
71060W        W44128  17.228   7.570   0.813
71061W        W44129  29.205   7.846  11.070
71062W        W44130  39.337   9.142  11.126
71063W        W44131  28.914   2.091  11.984
71064W        W44132  11.635  14.173  14.315
71065W        W44133  23.447  33.908  14.504
71066W        W44134   4.701   9.107   0.829
71067W        W44135  24.975  22.396   3.693
71068W        W44136  23.935   4.779  11.655
71069W        W44137  23.327  21.548  12.980
71070W        W44138  29.685   8.429  14.939
71071W        W44139  28.563  31.859   1.739
71072W        W44140  32.884  13.288  11.673
71073W        W44141  13.687  28.051   3.439
71074W        W44142  16.371   2.163  14.243
71075W        W44143   0.890  15.046  11.140
71076W        W44144  24.700  23.042  12.443
71077W        W44145  24.776  30.589   4.494
71078W        W44146  36.858   2.484   2.265
71079W        W44147   0.196   5.840   2.243
71080W        W44148  39.553   3.952   0.770
71081W        W44149  12.206   5.450   3.967
71082W        W44150  30.615  42.917   3.853
71083W        W44151  11.642  28.017   3.671
71084W        W44152  23.612   8.133  14.791
71085W        W44153  29.981  27.117   0.368
71086W        W44154  18.346  17.628  12.455
71087W        W44155  24.114  10.595  14.266
71088W        W44156   0.814  28.118   2.799
71089W        W44157  11.198  44.561   1.699
71090W        W44158  42.712   4.760  10.957
71091W        W44159   0.862  17.362   3.242
71092W        W44160  43.910  11.083   1.854
71093W        W44161  10.780  18.895   1.139
71094W        W44162   6.681   2.764   2.752
71095W        W44163  19.155  30.731   1.101
71096W        W44164  34.578  10.627  10.470
71097W        W44165  31.842  27.000   5.057
71098W        W44166  13.421  27.945   4.236
71099W        W44167  36.838  11.798   0.362
71100W        W44168   9.665  25.608   3.271
71101W        W44169  27.487  18.911   0.217
71102W        W44170  20.764  28.428   3.306
71103W        W44171  21.793  41.532   0.723
71104W        W44172  43.075  22.507  13.421
71105W        W44173  35.711  36.040  14.472
71106W        W44174  24.927  23.657   0.952
71107W        W44175  32.546  27.641  10.800
71108W        W44176  36.052   8.291  11.677
71109W        W44177  21.330  34.338   0.520
71110W        W44178   3.735  35.546   0.320
71111W        W44179  43.856  19.747   1.413
71112W        W44180  11.422  20.859   4.899
71113W        W44181  36.465   1.284   1.312
71114W        W44182  43.937   0.929  11.006
71115W        W44183  28.763  37.458   4.175
71116W        W44184   7.707  36.376  11.910
71117W        W44185   4.892   5.699  12.504
71118W        W44186   2.948  33.075   3.388
71119W        W44187   8.192  32.027   1.429
71120W        W44188   7.814  23.271  12.908
71121W        W44189   9.741  20.483   4.659
71122W        W44190  20.441  34.377  13.350
71123W        W44191   5.602   6.789   0.869
71124W        W44192  17.316  33.334  13.900
71125W        W44193  41.024  12.702   4.350
71126W        W44194  12.130  28.364   0.284
71127W        W44195  10.801  31.050   0.605
71128W        W44196  28.052   3.680   2.133
71129W        W44197  28.915   6.418  11.059
71130W        W44198  25.692  24.742  14.388
71131W        W44199  12.693  26.484   2.971
71132W        W44200  11.761  35.302   1.376
71133W        W44201  23.124  32.711  13.913
71134W        W44202  22.861   0.018  14.424
71135W        W44203   3.716  20.744  13.924
71136W        W44204  39.462  36.793   2.296
71137W        W44205  11.167  26.718   4.576
71138W        W44206   7.729  34.517  13.415
71139W        W44207   9.413  11.120   2.327
71140W        W44208   3.755  30.050  11.578
71141W        W44209  12.319  10.110   2.405
71142W        W44210   7.849   9.633   1.223
71143W        W44211  38.326  19.109  13.852
71144W        W44212  24.247   7.878   4.204
71145W        W44213  10.271  12.323   1.371
71146W        W44214  14.836  36.506   2.699
71147W        W44215  10.732  15.131   2.637
71148W        W44216  39.727  20.527  13.481
71149W        W44217  25.499   8.487   3.699
71150W        W44218  27.370   3.900  13.770
71151W        W44219  18.069  22.154  14.076
71152W        W44220  20.276  44.449  11.556
71153W        W44221   4.344   7.497  10.412
71154W        W44222  44.234  40.628  14.695
71155W        W44223  31.402  21.242   3.278
71156W        W44224  32.841  39.472  14.256
71157W        W44225  20.231  39.959  12.410
71158W        W44226  27.434  20.151  11.062
71159W        W44227  30.771  26.703   4.978
71160W        W44228  12.945  35.525   4.340
71161W        W44229   5.851   8.355   4.351
71162W        W44230   9.067  31.776   4.266
71163W        W44231   5.273  44.515  14.856
71164W        W44232   6.393  36.080   2.214
71165W        W44233  11.616  18.558   3.891
71166W        W44234  32.685  29.099  13.897
71167W        W44235   7.729  44.500  13.985
71168W        W44236  40.441  13.160  12.053
71169W        W44237  38.412  12.783  12.853
71170W        W44238  13.538  33.414   4.183
71171W        W44239  28.007  27.390  12.649
71172W        W44240  14.419  42.827   1.635
71173W        W44241  26.170  44.431   3.672
71174W        W44242  14.713  39.865   3.736
71175W        W44243  43.385  20.225  13.384
71176W        W44244   9.286   1.182   0.846
71177W        W44245  39.414  11.276  14.301
71178W        W44246  17.384  19.179   0.807
71179W        W44247  33.669  38.120   3.244
71180W        W44248   8.812  39.524  12.473
71181W        W44249  15.243  38.332  11.939
71182W        W44250  26.933  22.918   0.714
71183W        W44251  19.527  27.066  13.385
71184W        W44252  15.428  35.927   0.391
71185W        W44253  19.563  27.537  14.134
71186W        W44254  29.842   3.202   0.372
71187W        W44255  11.465  36.497  13.431
71188W        W44256  29.964  43.288   1.490
71189W        W44257  34.842  43.952   1.790
71190W        W44258  34.287   1.858   2.002
71191W        W44259   3.457  44.798   3.891
71192W        W44260  18.636  19.939  11.294
71193W        W44261  21.493  30.713   3.383
71194W        W44262  21.697  38.133  14.868
71195W        W44263  21.046  23.461   5.046
71196W        W44264  44.858  42.355   2.610
71197W        W44265  20.470  25.658  13.998
71198W        W44266  17.163   4.829   3.629
71199W        W44267  43.726  44.367   1.336
71200W        W44268  32.663  25.853  13.268
71201W        W44269  17.120  24.957  10.008
71202W        W44270  21.058  10.864   1.123
71203W        W44271  38.517   9.353  13.430
71204W        W44272  10.637  19.605  13.808
71205W        W44273   7.756  17.015   0.019
71206W        W44274   9.839   4.236   1.644
71207W        W44275  12.246   5.455  12.067
71208W        W44276   5.668   4.896   1.369
71209W        W44277  40.808  38.571   1.759
71210W        W44278  16.243  24.479   0.793
71211W        W44279  19.568  26.218  13.318
71212W        W44280  38.981   6.926   2.678
71213W        W44281   5.995  33.153  10.734
71214W        W44282  28.604  14.360  13.198
71215W        W44283  25.781  33.084  12.441
71216W        W44284   8.018  12.713  12.213
71217W        W44285  34.263  30.377  10.887
71218W        W44286  38.594   7.941   3.602
71219W        W44287  19.132  21.481   4.295
71220W        W44288  10.866  36.114  14.277
71221W        W44289  12.716  11.906   3.659
71222W        W44290  10.472  21.253  14.896
71223W        W44291  19.080  13.281   1.002
71224W        W44292   3.220   3.267  14.069
71225W        W44293  41.417  33.093  11.975
71226W        W44294  13.544   6.654   0.464
71227W        W44295  32.774  23.547   3.801
71228W        W44296  10.717  44.055   2.187
71229W        W44297  27.113   5.346  10.740
71230W        W44298   1.736  28.584   0.410
71231W        W44299   2.928   5.844  12.882
71232W        W44300   4.493  31.095  14.536
71233W        W44301  22.206  44.707  12.373
71234W        W44302  41.547   8.307  11.320
71235W        W44303  13.051  38.902  14.773
71236W        W44304   2.101  10.261   3.043
71237W        W44305  36.918   6.653   0.276
71238W        W44306  18.090  27.227   1.262
71239W        W44307  39.156  21.435  12.046
71240W        W44308  38.906  14.107   0.423
71241W        W44309  22.920   5.656   0.429
71242W        W44310  21.062  23.202  13.881
71243W        W44311  11.662   2.198  12.994
71244W        W44312  38.298  38.012   0.413
71245W        W44313   3.367  10.157   3.706
71246W        W44314   8.423  40.427  12.378
71247W        W44315  18.086  18.772  14.267
71248W        W44316  11.346  14.809  14.891
71249W        W44317  27.583  20.166   4.732
71250W        W44318   2.367  20.436  14.989
71251W        W44319   6.137   7.227  10.425
71252W        W44320  26.052  27.177   4.726
71253W        W44321   7.750  36.058  14.312
71254W        W44322  22.251  21.190  12.873
71255W        W44323   9.298  29.150  13.422
71256W        W44324  38.045  15.645  11.280
71257W        W44325  27.552  26.043  14.356
71258W        W44326  13.422  24.841   3.759
71259W        W44327   9.685   9.737  14.901
71260W        W44328  36.852  14.385   1.435
71261W        W44329  40.102  44.054   4.544
71262W        W44330  31.221   4.404   1.303
71263W        W44331  25.591  40.841   0.907
71264W        W44332  34.529  20.728  11.633
71265W        W44333   5.431  20.056  14.074
71266W        W44334  10.079  37.383   3.355
71267W        W44335  24.434   5.341   3.799
71268W        W44336  17.216  28.167  12.378
71269W        W44337   2.033  13.318   3.666
71270W        W44338  14.034  32.505   3.375
71271W        W44339  23.809  43.350   1.856
71272W        W44340  20.950  42.837   5.150
71273W        W44341   4.842  29.510   1.388
71274W        W44342   5.263  36.824   1.932
71275W        W44343  40.106  14.953  10.552
71276W        W44344  10.237  25.551   2.220
71277W        W44345  40.205  38.157  10.534
71278W        W44346  13.400  26.755   3.605
71279W        W44347  13.572   5.923   2.607
71280W        W44348   9.795  15.619  11.534
71281W        W44349  34.878  33.633  10.633
71282W        W44350  28.679  36.322   3.133
71283W        W44351  29.973   6.768  12.504
71284W        W44352  26.907  14.768   1.037
71285W        W44353   2.446   8.272   3.246
71286W        W44354  15.335  25.690  13.536
71287W        W44355   1.833   1.842   0.780
71288W        W44356  17.299   8.660  14.317
71289W        W44357  26.060  10.691  14.179
71290W        W44358   6.755  39.477   0.824
71291W        W44359  24.903   5.323   0.248
71292W        W44360  14.716  37.116  14.465
71293W        W44361   7.363  39.400   2.158
71294W        W44362  22.488   6.694  14.789
71295W        W44363  38.282  23.060  12.785
71296W        W44364   5.879  13.814  11.489
71297W        W44365  14.162   6.177  14.173
71298W        W44366  22.470  24.059   0.959
71299W        W44367  16.245  43.749  14.470
71300W        W44368  38.174   2.187   4.872
71301W        W44369  32.364  34.078  10.456
71302W        W44370   6.762   3.833  12.827
71303W        W44371  26.084  23.947   4.099
71304W        W44372  11.256  37.958  11.752
71305W        W44373  42.852  13.143   3.301
71306W        W44374  10.802  39.732  12.335
71307W        W44375   6.921  43.561  12.429
71308W        W44376  11.905  28.686  12.905
71309W        W44377  42.189  37.799  12.821
71310W        W44378  32.153  32.483  11.818
71311W        W44379  10.830  28.600   3.595
71312W        W44380  12.322  29.053   3.877
71313W        W44381  14.310  27.417   3.915
71314W        W44382  22.647   6.354   4.584
71315W        W44383  34.503  25.789   1.452
71316W        W44384  17.112  12.762   3.096
71317W        W44385   4.988  12.918   1.791
71318W        W44386  13.822  26.031   1.787
71319W        W44387   0.900   9.607   3.867
71320W        W44388  22.691  36.430   0.902
71321W        W44389   3.288  39.251  12.620
71322W        W44390  28.369  37.386   1.793
71323W        W44391  20.582   3.413   0.428
71324W        W44392  24.072  40.145   2.228
71325W        W44393  16.195  28.623  10.876
71326W        W44394  14.988  11.278  13.019
71327W        W44395  39.932  14.661  14.991
71328W        W44396  32.355  25.093  12.511
71329W        W44397  19.463  10.833   1.903
71330W        W44398  38.223  15.584  10.789
71331W        W44399  30.963  29.686   1.805
71332W        W44400  26.726   5.667  11.112
71333W        W44401  27.059  29.827   4.386
71334W        W44402  26.925  18.319   1.046
71335W        W44403   3.293  33.475   0.275
71336W        W44404  36.643  36.837   2.263
71337W        W44405  14.665  14.044  11.678
71338W        W44406  42.960  17.609  12.196
71339W        W44407  33.312  34.018   4.349
71340W        W44408  25.533  11.645   1.196
71341W        W44409   4.952  20.208  11.099
71342W        W44410  29.566  30.493  13.695
71343W        W44411   9.385  12.585   0.171
71344W        W44412   1.842  19.290   2.736
71345W        W44413  19.573  22.069   2.291
71346W        W44414  29.254   6.853   4.239
71347W        W44415  37.595  26.180  11.463
71348W        W44416  21.003  39.976  11.957
71349W        W44417  34.595  44.073   1.354
71350W        W44418   6.703   5.148   4.155
71351W        W44419  28.695  12.537   1.344
71352W        W44420  33.059  37.267  11.683
71353W        W44421  16.609  35.581  12.993
71354W        W44422  30.041  42.075   4.605
71355W        W44423  17.179  44.278  10.332
71356W        W44424  28.264  41.440  13.708
71357W        W44425  32.606  14.351  12.891
71358W        W44426  41.437  15.639   3.284
71359W        W44427  16.837  10.625  12.425
71360W        W44428  36.159  40.422   1.390
71361W        W44429  35.902   7.744   4.493
71362W        W44430   5.257  41.999   2.702
71363W        W44431  18.065  13.268  12.945
71364W        W44432  30.620   6.981  11.197
71365W        W44433  17.370  26.773  11.998
71366W        W44434  38.135  24.967  11.509
71367W        W44435   2.704  41.388  12.598
71368W        W44436   6.741  14.369  14.885
71369W        W44437  32.956   3.865  11.062
71370W        W44438  30.903  23.774   2.135
71371W        W44439   0.368  23.326   0.059
71372W        W44440  11.810   0.524  14.869
71373W        W44441  36.360   8.972   3.802
71374W        W44442  36.835  28.295   0.071
71375W        W44443  38.076  16.062  13.257
71376W        W44444   1.522  30.053   3.659
71377W        W44445  25.213  37.919   2.738
71378W        W44446  27.706  21.151   0.791
71379W        W44447  34.119  20.950   4.541
71380W        W44448  38.876  32.650   4.603
71381W        W44449  17.141  25.572  14.524
71382W        W44450  21.801  18.878   1.285
71383W        W44451  25.913  15.014   3.783
71384W        W44452   9.118   8.808   3.096
71385W        W44453  15.831  19.234  11.947
71386W        W44454   8.094  37.738   4.702
71387W        W44455   4.215  31.625   2.737
71388W        W44456   6.785  17.051   3.222
71389W        W44457   3.973   5.269   3.527
71390W        W44458  17.303  43.439  13.506
71391W        W44459  26.718   3.293  10.103
71392W        W44460  22.705   8.870  10.276
71393W        W44461  21.729  37.003  11.007
71394W        W44462  15.625  33.304   2.795
71395W        W44463  15.486  40.931  10.465
71396W        W44464  15.351  19.268  14.873
71397W        W44465  34.669  14.760  10.881
71398W        W44466  37.498  33.501   4.686
71399W        W44467  10.183  34.976   2.067
71400W        W44468   0.107  19.978   4.256
71401W        W44469  28.023  22.745  14.395
71402W        W44470  25.563   4.426  14.958
71403W        W44471  34.544  35.065  11.381
71404W        W44472  26.416  38.279   4.769
71405W        W44473  30.992  43.485   4.672
71406W        W44474   5.650  20.634   2.925
71407W        W44475  32.838  22.094  10.664
71408W        W44476  23.423   9.280   0.945
71409W        W44477  43.261   8.927  10.711
71410W        W44478  21.579   6.760  10.937
71411W        W44479  35.647   0.955   1.355
71412W        W44480   6.311  37.795   3.666
71413W        W44481  24.575  12.855  12.476
71414W        W44482  40.457  12.458   2.174
71415W        W44483  18.996  32.987   1.295
71416W        W44484   7.182  10.990  14.702
71417W        W44485  26.734  20.580   4.500
71418W        W44486  11.205  26.267  11.999
71419W        W44487  32.460   6.340  14.063
71420W        W44488  28.006  14.802  13.967
71421W        W44489  32.556  30.052  13.246
71422W        W44490   0.707  28.971   0.918
71423W        W44491  24.035  18.649  13.242
71424W        W44492  17.677  38.641   0.937
71425W        W44493  11.697   7.436  12.466
71426W        W44494  43.967  42.883  10.555
71427W        W44495   6.084  44.755   0.141
71428W        W44496  29.059  24.501  14.561
71429W        W44497  37.377  26.513   3.689
71430W        W44498  26.721   5.806  11.948
71431W        W44499  35.717  43.935  11.632
71432W        W44500   2.830  37.504   3.759
71433W        W44501   5.763  40.565  12.436
71434W        W44502  33.948  12.824   4.546
71435W        W44503  26.964  24.637  14.772
71436W        W44504  40.487  32.598   1.887
71437W        W44505  17.523  41.547  13.037
71438W        W44506  36.955  30.915   3.831
71439W        W44507   6.550  44.229  13.420
71440W        W44508  25.225  41.845  11.478
71441W        W44509  23.262  14.119  12.329
71442W        W44510  38.486   0.530  13.935
71443W        W44511  16.080  39.468   2.599
71444W        W44512   0.970  23.149  13.521
71445W        W44513  36.540   2.729   0.875
71446W        W44514  15.078  12.637   4.217
71447W        W44515  14.358  43.415  12.142
71448W        W44516  28.796  24.025  11.250
71449W        W44517  40.495   0.177   4.203
71450W        W44518  19.687  34.060   4.792
71451W        W44519  33.516   3.921  11.255
71452W        W44520   5.428  11.883   4.425
71453W        W44521   4.435  21.340   3.706
71454W        W44522  32.992  37.750  11.492
71455W        W44523  19.056  13.854   4.142
71456W        W44524  23.995  19.506   4.172
71457W        W44525  10.364  40.850   2.442
71458W        W44526  34.302   2.207  11.179
71459W        W44527  27.613  25.998   0.837
71460W        W44528  14.759  23.980  13.306
71461W        W44529  26.446  25.006  14.100
71462W        W44530  10.065  42.117   4.260
71463W        W44531  21.915  13.750   4.635
71464W        W44532  40.385   2.788  11.031
71465W        W44533  21.918  17.143  12.022
71466W        W44534  32.874  28.725  14.269
71467W        W44535  18.682  34.589  10.805
71468W        W44536  24.242  44.755  10.759
71469W        W44537  27.691  23.360  11.616
71470W        W44538  29.387  24.442   3.232
71471W        W44539  10.381  30.402   3.047
71472W        W44540  43.472  44.918  13.449
71473W        W44541  21.683  31.420   0.364
71474W        W44542   2.990  25.509  12.910
71475W        W44543  43.938   3.913   0.969
71476W        W44544  26.960  29.829   2.955
71477W        W44545  40.816  38.359  12.462
71478W        W44546  32.157  28.974  14.803
71479W        W44547  15.670  34.644   3.814
71480W        W44548  38.218  20.465   1.063
71481W        W44549  39.357   6.327  11.602
71482W        W44550   0.798  42.341  11.651
71483W        W44551  43.627  36.466   1.769
71484W        W44552  15.428  44.724   2.295
71485W        W44553  15.952   4.370  14.948
71486W        W44554  32.124  42.041   3.922
71487W        W44555  39.399  34.930   0.984
71488W        W44556  40.937  22.019  12.550
71489W        W44557  10.423  44.556  13.649
71490W        W44558  29.686  14.238  11.329
71491W        W44559  32.138  32.055   1.870
71492W        W44560   6.138  12.708   4.520
71493W        W44561  22.434  34.831   5.126
71494W        W44562   6.404  34.180   5.296
71495W        W44563  24.420  16.907   1.600
71496W        W44564  23.493  41.595   2.265
71497W        W44565  30.246   4.321   3.666
71498W        W44566  10.200  11.187  14.596
71499W        W44567  19.234  12.870  12.559
71500W        W44568   6.700  29.652   3.918
71501W        W44569  23.187  17.298   1.678
71502W        W44570  37.359  23.517  10.974
71503W        W44571  40.948  33.348  11.984
71504W        W44572   2.681  16.132   3.831
71505W        W44573  22.936  29.476   1.664
71506W        W44574  10.749  31.559   1.876
71507W        W44575  12.066  29.048  12.550
71508W        W44576  24.777  18.728   1.184
71509W        W44577   8.135  19.329   4.367
71510W        W44578  37.897   8.675   1.444
71511W        W44579   8.105  12.505  14.334
71512W        W44580  13.272  28.113  13.333
71513W        W44581   8.114   7.424  13.339
71514W        W44582  42.919  39.992  10.782
71515W        W44583   5.794  41.948  10.796
71516W        W44584  37.482   5.678  13.951
71517W        W44585  20.113  35.328   0.342
71518W        W44586  30.370  31.523   0.786
71519W        W44587   1.809  44.474   0.265
71520W        W44588  14.641  22.818  11.568
71521W        W44589  13.381   8.989  12.566
71522W        W44590  13.107  24.645   3.206
71523W        W44591  36.880   1.785   4.565
71524W        W44592   7.451  34.961  13.975
71525W        W44593  21.297   5.186  10.337
71526W        W44594  16.599   8.898  10.140
71527W        W44595  15.105  32.192   0.223
71528W        W44596  25.917  10.579   4.610
71529W        W44597  35.701  44.059   4.607
71530W        W44598  20.677   1.034  13.886
71531W        W44599  32.671  14.087  10.662
71532W        W44600  21.210   6.598   0.350
71533W        W44601  43.505   8.468   4.299
71534W        W44602  31.682  34.817  11.389
71535W        W44603  13.285  43.951  14.708
71536W        W44604  38.115  16.698   3.133
71537W        W44605   6.815  13.707   4.732
71538W        W44606   2.831  35.501   4.878
71539W        W44607  38.362  29.919   0.344
71540W        W44608  24.990  31.873   4.199
71541W        W44609  19.914  12.632  13.288
71542W        W44610  36.523  30.126  11.080
71543W        W44611  10.359  29.433   9.994
71544W        W44612  14.050  40.267  12.158
71545W        W44613   6.776   6.391  14.815
71546W        W44614  23.990  41.742  10.766
71547W        W44615  26.233  29.892  13.053
71548W        W44616  20.689   0.247  11.236
71549W        W44617  21.700  19.078  10.418
71550W        W44618   4.671  22.538  12.231
71551W        W44619  20.033   6.900  11.152
71552W        W44620  34.577  44.006  12.508
71553W        W44621   4.407  20.061  12.019
71554W        W44622   2.641  31.720  11.226
71555W        W44623  38.812  29.041  11.946
71556W        W44624  14.475   4.897   2.866
71557W        W44625  24.015  17.698   3.660
71558W        W44626  43.482  30.117   1.355
71559W        W44627  31.600  26.257   1.856
71560W        W44628   9.235  31.986  12.065
71561W        W44629   0.489  44.521   2.959
71562W        W44630  14.341  26.430  10.696
71563W        W44631  29.869   2.349   2.881
71564W        W44632  14.644   7.652  11.112
71565W        W44633  44.056  17.730   4.544
71566W        W44634  15.312  33.211  14.269
71567W        W44635  25.521  39.913   3.986
71568W        W44636   5.859   7.289  13.746
71569W        W44637  33.937  32.688   1.912
71570W        W44638  11.276  35.528   1.250
71571W        W44639  17.000  21.454  12.405
71572W        W44640  16.694   2.470  13.837
71573W        W44641  23.766  41.872   4.318
71574W        W44642  26.807  18.932   3.209
71575W        W44643  33.140   7.104   1.353
71576W        W44644  42.455   9.254   0.383
71577W        W44645  19.625  39.011  10.884
71578W        W44646  30.070  43.068   4.801
71579W        W44647  11.972  40.498  14.299
71580W        W44648  34.883  21.806  10.663
71581W        W44649  23.080   6.941   4.279
71582W        W44650  36.643   0.883   0.480
71583W        W44651  15.634  12.554  14.537
71584W        W44652  27.041   5.263   3.693
71585W        W44653  39.033  14.161  14.488
71586W        W44654  24.389  24.467   0.943
71587W        W44655  41.511  39.547  12.913
71588W        W44656  25.578   4.245   1.025
71589W        W44657  26.568   7.139  13.563
71590W        W44658  22.730  22.353  13.289
71591W        W44659   5.679  24.964   0.339
71592W        W44660  27.660  37.763  11.137
71593W        W44661  19.002  21.171   1.553
71594W        W44662   4.893  14.367   0.480
71595W        W44663   8.390   4.282  14.921
71596W        W44664  41.141  34.868   0.364
71597W        W44665  43.035  10.397   3.097
71598W        W44666  18.779  10.160   3.868
71599W        W44667  30.631   0.945   0.430
71600W        W44668  25.296  23.602   5.154
71601W        W44669   8.248   4.986   0.901
71602W        W44670  29.480   3.381   3.292
71603W        W44671  25.264  12.625  11.459
71604W        W44672  34.077  29.554   3.960
71605W        W44673  36.070  24.497  14.919
71606W        W44674  38.637  37.862   3.666
71607W        W44675  22.386  39.444  13.985
71608W        W44676  27.923  31.037  13.562
71609W        W44677  22.568  20.831   4.875
71610W        W44678  44.476  20.214  11.617
71611W        W44679  23.241   3.836  14.817
71612W        W44680  27.500  15.670  14.052
71613W        W44681  34.709  37.309  13.806
71614W        W44682   0.297  44.414   4.739
71615W        W44683  15.843   7.138  11.168
71616W        W44684  44.497  38.309  13.295
71617W        W44685  28.394  25.658   3.293
71618W        W44686   6.499  14.117   2.189
71619W        W44687  30.427  11.892   2.662
71620W        W44688  22.512  14.558   4.265
71621W        W44689  13.819   6.805   3.317
71622W        W44690  40.330  40.241   4.647
71623W        W44691  21.710  23.595   2.294
71624W        W44692  24.598  25.623  14.281
71625W        W44693  28.473  13.685   4.190
71626W        W44694  38.471  30.680   0.848
71627W        W44695  30.065   2.479   0.713
71628W        W44696  32.242  18.077   3.388
71629W        W44697  43.848  16.125   4.153
71630W        W44698  10.296  29.034  12.440
71631W        W44699  35.754  22.697   3.769
71632W        W44700   7.542   5.394  11.262
71633W        W44701  44.362  34.431   0.525
71634W        W44702  26.019  43.448   2.914
71635W        W44703  40.317  10.202  10.708
71636W        W44704  21.165  40.921  14.737
71637W        W44705   7.266   9.803  13.803
71638W        W44706  37.547  10.474   2.161
71639W        W44707  21.849  21.161   0.339
71640W        W44708  15.104  17.093  14.848
71641W        W44709  12.786  26.465  13.101
71642W        W44710  38.135  39.816  14.508
71643W        W44711  11.661  28.900   0.888
71644W        W44712   8.155  36.316  13.299
71645W        W44713  25.454  21.815  11.560
71646W        W44714  15.792  17.196   3.834
71647W        W44715   8.146  40.887  13.338
71648W        W44716  32.157  39.431   4.889
71649W        W44717  28.590  15.908  14.720
71650W        W44718  44.041  18.928  12.485
71651W        W44719  33.920  16.262   3.716
71652W        W44720   7.235  11.592   3.648
71653W        W44721  44.229  15.247   0.462
71654W        W44722  15.438  34.440   1.403
71655W        W44723  22.657  41.580  12.691
71656W        W44724   2.103  18.536  10.581
71657W        W44725  10.632  32.517   4.549
71658W        W44726  44.468  42.504   2.937
71659W        W44727  33.049  25.019  14.398
71660W        W44728   5.264  19.531   0.644
71661W        W44729  30.727  38.985  12.856
71662W        W44730  41.890  26.568   4.652
71663W        W44731  36.945   5.223   3.613
71664W        W44732  25.516  14.002   3.380
71665W        W44733   1.480  26.604   3.240
71666W        W44734  43.390  26.112  14.744
71667W        W44735  35.929  19.621  12.165
71668W        W44736  22.286   7.482   0.893
71669W        W44737  10.017  15.613  13.926
71670W        W44738  32.227   1.689  12.387
71671W        W44739  38.735   4.282  11.185
71672W        W44740  38.364  40.444  11.079
71673W        W44741  41.335   2.691   1.377
71674W        W44742  27.455  36.410   0.892
71675W        W44743  27.936  24.735   3.342
71676W        W44744  12.189  34.748  11.872
71677W        W44745   2.859  29.328  14.132
71678W        W44746  26.079  30.691   2.015
71679W        W44747  12.300   2.836   1.821
71680W        W44748  29.185  12.041  11.132
71681W        W44749  31.162  12.657   1.221
71682W        W44750  26.066  28.895   4.124
71683W        W44751  31.351  19.308   3.815
71684W        W44752  36.600  28.102  13.883
71685W        W44753  37.813  42.761   2.247
71686W        W44754   5.288  35.525  11.279
71687W        W44755  17.354  33.443  12.488
71688W        W44756  24.287  11.742   0.238
71689W        W44757  42.538  41.333   3.173
71690W        W44758  10.538  40.415  13.859
71691W        W44759  30.895  44.239  14.863
71692W        W44760  15.044  32.629   1.965
71693W        W44761  12.164  28.502   4.530
71694W        W44762  29.662  33.398  14.383
71695W        W44763   6.944  44.563  11.103
71696W        W44764  42.744  27.575  11.665
71697W        W44765   1.984  13.906   2.016
71698W        W44766  24.750  32.014   0.284
71699W        W44767  20.555  16.323   2.144
71700W        W44768  14.574  20.608  10.943
71701W        W44769  25.729  37.152  11.586
71702W        W44770  17.778  41.531   1.236
71703W        W44771  27.497  26.771   2.245
71704W        W44772  15.478  13.535   1.402
71705W        W44773  36.613   6.474   4.573
71706W        W44774  16.352  27.241   4.367
71707W        W44775  19.090   0.495  13.067
71708W        W44776  35.465  30.245   1.985
71709W        W44777  42.869  22.614   0.969
71710W        W44778  23.117  42.769  10.854
71711W        W44779  13.883  11.148   0.432
71712W        W44780  41.625   7.877   0.062
71713W        W44781  24.924   5.713   0.976
71714W        W44782  27.962   5.710   2.828
71715W        W44783  25.167  42.554  10.990
71716W        W44784  29.603  43.503  11.536
71717W        W44785  35.453  24.822   3.174
71718W        W44786  13.207  33.062  10.990
71719W        W44787   7.292  40.739   4.548
71720W        W44788   9.864  34.081   3.769
71721W        W44789   3.556   9.427  10.673
71722W        W44790   2.676   1.465   2.865
71723W        W44791  32.958   7.370   2.311
71724W        W44792  12.297  40.504   4.299
71725W        W44793   2.974  44.982   3.209
71726W        W44794   8.210  21.279  11.574
71727W        W44795  38.118   5.404   0.028
71728W        W44796   6.088   6.977  11.831
71729W        W44797  33.111  22.486  11.100
71730W        W44798  15.961  44.513  14.036
71731W        W44799  36.080   2.530  12.489
71732W        W44800   8.325  41.370   2.509
71733W        W44801   9.338  39.704  11.587
71734W        W44802  42.240  44.856  10.880
71735W        W44803  18.307  35.358  11.413
71736W        W44804   1.476  32.556   3.222
71737W        W44805  32.074   0.754   0.058
71738W        W44806  27.681  10.260  10.953
71739W        W44807  15.094  40.478   4.594
71740W        W44808  12.437  10.185  12.421
71741W        W44809  38.879  18.633  11.866
71742W        W44810   3.287  27.029  14.338
71743W        W44811  20.647   2.147  13.082
71744W        W44812   7.889  34.887   1.634
71745W        W44813  31.572  19.274   0.815
71746W        W44814   1.712  40.545   1.477
71747W        W44815   2.833   8.405   0.482
71748W        W44816  34.364  12.029   4.330
71749W        W44817  12.137  21.730  12.399
71750W        W44818  31.577  25.571   2.391
71751W        W44819  37.555   4.781  12.809
71752W        W44820  22.323  10.280  13.598
71753W        W44821  37.253  19.568  12.921
71754W        W44822  23.656  24.119   1.205
71755W        W44823   9.389  30.565   3.179
71756W        W44824  38.562  38.060   0.856
71757W        W44825  29.362  32.429  13.882
71758W        W44826  35.302   8.297   4.175
71759W        W44827  43.265  26.703   1.781
71760W        W44828   8.783  16.355  12.560
71761W        W44829  40.611   7.721   0.524
71762W        W44830   1.787  15.198   4.450
71763W        W44831  12.084  34.366  11.511
71764W        W44832   9.164   3.352   3.283
71765W        W44833   6.908  28.080  13.792
71766W        W44834  18.368  36.665  13.129
71767W        W44835  31.814  41.917   0.562
71768W        W44836  44.800  33.240   3.348
71769W        W44837  18.165   6.667   4.487
71770W        W44838  29.334  37.999   3.164
71771W        W44839  23.681   6.115   1.230
71772W        W44840  11.149  11.562  12.383
71773W        W44841  28.893  12.766  10.722
71774W        W44842  23.522  17.189  13.917
71775W        W44843   3.663  12.292  13.957
71776W        W44844  14.727  30.878  13.598
71777W        W44845  41.514  41.352  14.392
71778W        W44846  41.672   6.751  13.707
71779W        W44847  30.340  22.111  12.977
71780W        W44848   3.027   6.384   2.429
71781W        W44849  26.478  10.059  11.440
71782W        W44850  17.452  35.814  11.062
71783W        W44851   0.925  44.824  12.150
71784W        W44852  43.985   9.970   4.685
71785W        W44853   3.266  14.179   4.645
71786W        W44854  10.656  16.780   0.414
71787W        W44855  22.269   6.724  13.868
71788W        W44856  38.282  21.759   0.343
71789W        W44857  21.809  10.649  12.884
71790W        W44858   4.042  20.973   3.735
71791W        W44859  25.406  20.282  11.633
71792W        W44860  33.726   1.004  14.974
71793W        W44861  15.506  39.574  12.424
71794W        W44862  35.565  32.898   4.785
71795W        W44863  35.398  13.793   2.167
71796W        W44864   5.166  25.115   1.775
71797W        W44865   0.355  14.241   3.553
71798W        W44866   4.490  25.995  14.511
71799W        W44867  42.766  15.276   3.165
71800W        W44868  27.627  27.306   2.236
71801W        W44869   6.255  18.256  11.885
71802W        W44870  25.026  23.557   3.853
71803W        W44871  42.720  41.844   0.856
71804W        W44872   7.161  34.402   1.977
71805W        W44873   6.683  16.627   3.657
71806W        W44874   1.379  41.333   1.683
71807W        W44875  42.284  33.434   0.715
71808W        W44876  19.291  20.588   4.323
71809W        W44877  40.369  33.726  12.053
71810W        W44878  11.492  42.571   4.245
71811W        W44879  20.384  36.463  14.636
71812W        W44880   5.008  14.273  11.584
71813W        W44881   2.717  33.578  14.366
71814W        W44882  34.870  30.841   0.240
71815W        W44883  13.619  13.199   1.198
71816W        W44884   4.410  42.945  12.525
71817W        W44885   3.536  15.601   2.327
71818W        W44886  37.603  39.642  14.316
71819W        W44887  31.448   5.394  11.993
71820W        W44888   4.657  26.607  10.032
71821W        W44889   7.333  43.882   1.350
71822W        W44890   5.331  26.097   3.313
71823W        W44891  28.415  29.821   3.612
71824W        W44892  43.460  32.177   1.345
71825W        W44893  28.371   0.357  13.054
71826W        W44894  26.098  18.368  11.612
71827W        W44895   9.231  31.339  13.992
71828W        W44896  22.920  22.418  14.063
71829W        W44897  40.121   3.383   2.427
71830W        W44898  19.074  41.098  14.420
71831W        W44899   5.638  22.396  12.586
71832W        W44900   3.560   6.356   0.486
71833W        W44901  43.269  31.181   0.280
71834W        W44902   8.630   6.314  13.785
71835W        W44903   7.291  17.310   1.407
71836W        W44904  28.622   9.750  11.899
71837W        W44905  12.168  42.603  12.714
71838W        W44906   5.940  14.218   2.926
71839W        W44907  18.028   0.381  11.037
71840W        W44908  34.889  40.145  11.188
71841W        W44909  10.200  42.966  12.334
71842W        W44910  11.233  26.035  11.525
71843W        W44911  43.843  11.621   1.861
71844W        W44912  37.388   8.369  10.963
71845W        W44913  23.533  34.310  12.105
71846W        W44914  24.461   0.195   3.512
71847W        W44915   2.530  18.247   4.355
71848W        W44916  24.576   5.950  14.532
71849W        W44917  44.307  38.558  12.863
71850W        W44918  36.400  35.628   3.989
71851W        W44919   5.517  42.727   0.962
71852W        W44920  41.550  13.723   4.190
71853W        W44921   9.071  14.443  14.717
71854W        W44922  25.230   0.149   2.315
71855W        W44923  16.825  16.507  13.428
71856W        W44924  22.175   7.777   3.114
71857W        W44925  40.543  40.043   1.261
71858W        W44926  38.351  22.186  13.811
71859W        W44927  14.693  15.585   3.450
71860W        W44928  44.999  15.875  13.349
71861W        W44929  30.489  35.011  14.985
71862W        W44930   2.849  37.763  10.556
71863W        W44931  35.347  38.404   0.148
71864W        W44932  25.270   1.240   1.741
71865W        W44933  29.848  37.044   2.528
71866W        W44934  18.594   1.642  10.666
71867W        W44935   8.184  23.999  13.909
71868W        W44936  36.902   5.405  13.020
71869W        W44937   3.107  11.670   1.870
71870W        W44938  19.072   2.190  13.308
71871W        W44939  15.424  13.998  10.131
71872W        W44940  17.364  38.270   4.887
71873W        W44941   9.593   4.886  13.339
71874W        W44942  12.898  35.871   4.744
71875W        W44943  21.708   8.723  12.571
71876W        W44944  19.762  30.564  12.413
71877W        W44945  15.829  17.178   0.406
71878W        W44946  43.433  21.060   0.285
71879W        W44947  39.881  44.394  10.371
71880W        W44948  23.958  39.434  10.606
71881W        W44949  29.143  33.978  10.954
71882W        W44950  20.116  16.250   4.084
71883W        W44951  33.054  16.789   0.452
71884W        W44952  40.497  39.426   4.027
71885W        W44953  16.224  24.533  12.051
71886W        W44954  43.827  22.472   1.454
71887W        W44955  30.326  39.590   0.337
71888W        W44956  11.770  21.538   2.894
71889W        W44957  29.241  33.391   2.266
71890W        W44958   9.128  34.052   3.306
71891W        W44959   6.412   5.377  11.977
71892W        W44960  13.627  42.879  12.417
71893W        W44961  29.170  42.508   2.121
71894W        W44962   4.535   2.698   1.638
71895W        W44963  32.487  16.935  12.223
71896W        W44964  43.980  11.865  11.101
71897W        W44965  19.288  30.632  12.668
71898W        W44966  42.050  33.077   4.026
71899W        W44967   2.003   4.375   1.344
71900W        W44968   3.449  38.513  14.995
71901W        W44969  34.489  43.801  13.388
71902W        W44970   2.804  28.029  14.943
71903W        W44971  39.685   7.225   4.394
71904W        W44972  30.205  24.094  12.181
71905W        W44973  21.684  16.755  14.988
71906W        W44974  32.363  38.731  10.568
71907W        W44975  17.801  42.436   3.203
71908W        W44976  34.413   0.513   1.330
71909W        W44977  40.258  21.558  12.860
71910W        W44978  27.417  20.056  10.461
71911W        W44979  25.927  36.890  14.703
71912W        W44980  24.696  41.352  12.089
71913W        W44981  16.829  34.543  14.942
71914W        W44982  44.049  12.706  12.593
71915W        W44983   5.685  42.491   4.309
71916W        W44984   8.939  39.071   2.634
71917W        W44985  20.610  40.720   3.407
71918W        W44986  28.701  14.356   1.802
71919W        W44987  27.606  30.955   3.526
71920W        W44988  12.018  39.390   0.816
71921W        W44989  16.633   6.617  14.433
71922W        W44990  30.426  36.864  13.981
71923W        W44991  19.680  40.289   0.872
71924W        W44992  21.834  34.037  11.590
71925W        W44993  41.018  36.588  13.112
71926W        W44994  21.295  14.722  14.381
71927W        W44995  26.258  15.370  11.684
71928W        W44996  14.500  29.952  14.546
71929W        W44997  17.029  42.787  12.622
71930W        W44998   6.724  13.176  12.606
71931W        W44999  36.164  24.081   1.429
71932W        W45000  31.611  20.689   4.089
71933W        W45001   5.295   5.651   3.872
71934W        W45002   2.986   4.836  11.043
71935W        W45003  23.457  31.017  10.930
71936W        W45004  10.683  34.971  11.637
71937W        W45005  34.533   9.295   0.833
71938W        W45006  40.239   9.108   0.907
71939W        W45007  44.876   8.838  14.873
71940W        W45008   1.067   5.743   0.761
71941W        W45009   4.426   0.236   4.124
71942W        W45010  18.769  11.754  12.959
71943W        W45011  11.250  26.395   1.371
71944W        W45012   4.804  39.995   0.492
71945W        W45013  13.640  27.424   0.837
71946W        W45014   3.946  14.209  14.112
71947W        W45015  37.288  14.211   1.210
71948W        W45016  40.515   4.424  11.490
71949W        W45017  43.261   3.663  11.533
71950W        W45018   5.050  34.340  13.469
71951W        W45019  24.648  10.621   0.167
71952W        W45020  23.994   1.882  12.892
71953W        W45021  39.529  15.694  10.961
71954W        W45022  15.590  32.371   0.296
71955W        W45023  43.635  13.037  12.627
71956W        W45024  43.014   3.188   0.286
71957W        W45025  19.589  39.502  14.840
71958W        W45026  17.052   6.146   4.342
71959W        W45027   4.932  43.534  12.096
71960W        W45028   6.237  17.675   1.306
71961W        W45029  34.784  35.512  11.462
71962W        W45030   6.137  31.601  14.850
71963W        W45031  44.810  25.406   1.694
71964W        W45032  37.781   7.405   1.765
71965W        W45033  44.173  34.948  12.432
71966W        W45034  33.922  44.221  11.469
71967W        W45035  20.658  21.339  12.201
71968W        W45036  32.426   6.164   2.380
71969W        W45037  31.556  36.289  11.012
71970W        W45038  35.947  38.723   4.121
71971W        W45039   7.783  11.847  10.480
71972W        W45040  14.329   7.890  11.523
71973W        W45041   2.918  12.550  11.918
71974W        W45042   9.930   9.451   3.884
71975W        W45043   8.819  18.283   2.803
71976W        W45044  38.366  15.805  12.929
71977W        W45045  13.172  41.336   2.196
71978W        W45046  27.571   1.098  11.595
71979W        W45047  38.522  39.042  12.398
71980W        W45048  15.233  20.823  14.756
71981W        W45049  14.594  29.961   0.340
71982W        W45050  19.118  44.766   3.883
71983W        W45051  20.628  42.306  14.602
71984W        W45052  24.020  14.227  14.918
71985W        W45053  23.516  41.900   2.839
71986W        W45054  31.291  32.002  12.020
71987W        W45055  12.493   9.659  13.321
71988W        W45056  18.219  25.501  14.908
71989W        W45057  21.504  19.738   3.367
71990W        W45058   8.981  18.100  11.200
71991W        W45059  21.731  40.546  11.101
71992W        W45060   5.262  30.446  12.607
71993W        W45061  12.791   6.292   1.336
71994W        W45062  30.410  30.599  11.897
71995W        W45063  25.738  20.324   2.984
71996W        W45064   7.551   3.270   2.367
71997W        W45065  20.593  14.792   0.751
71998W        W45066   6.412  13.226   1.726
71999W        W45067  42.874  44.450   2.341
72000W        W45068  44.733  44.450   0.375
72001W        W45069  42.325  17.756   0.559
72002W        W45070   6.226  15.022   3.829
72003W        W45071  44.556  44.444   2.959
72004W        W45072  16.033   6.979   2.848
72005W        W45073  24.365  13.161   4.826
72006W        W45074  41.881  20.528   4.626
72007W        W45075  15.163  38.356  11.065
72008W        W45076   9.748  27.540  13.876
72009W        W45077  17.635  22.707  10.587
72010W        W45078  27.290  35.162   2.162
72011W        W45079  38.010  34.050  13.845
72012W        W45080  35.091  16.020  11.078
72013W        W45081  39.391  19.014   3.624
72014W        W45082  41.165  17.403  11.185
72015W        W45083  44.432  21.077   0.496
72016W        W45084  39.528  31.639  12.543
72017W        W45085  28.436  24.605  12.004
72018W        W45086  26.199  40.485   2.900
72019W        W45087  23.726  44.838   4.552
72020W        W45088  19.277  26.724   1.780
72021W        W45089  17.037  15.890  14.760
72022W        W45090   2.308   9.359  10.773
72023W        W45091  40.100   3.980   2.913
72024W        W45092  24.518  29.560   1.769
72025W        W45093  18.693  26.048   0.525
72026W        W45094  44.183  28.061   4.126
72027W        W45095  25.704  14.174   1.062
72028W        W45096   3.665   5.316  13.323
72029W        W45097   5.206   9.129  11.005
72030W        W45098  39.279  37.325   3.190
72031W        W45099  12.648   1.458   0.816
72032W        W45100  13.222   5.047   0.809
72033W        W45101  29.100  24.058   4.336
72034W        W45102  19.090  16.409  14.817
72035W        W45103  32.689   5.870  14.239
72036W        W45104   7.211  34.171   0.226
72037W        W45105  16.172   8.241  13.336
72038W        W45106   8.371  44.610  12.139
72039W        W45107   2.450  39.255  10.388
72040W        W45108  24.609  40.862  13.453
72041W        W45109   3.855   6.745  10.507
72042W        W45110  23.503  17.771  11.602
72043W        W45111  22.889   2.960   0.201
72044W        W45112  31.507  33.347   4.100
72045W        W45113   4.714  42.352   3.572
72046W        W45114   8.725  32.807   1.789
72047W        W45115  26.821   7.288   0.913
72048W        W45116  37.157  44.853  11.224
72049W        W45117  19.325  43.491  14.769
72050W        W45118  21.163  10.337   3.227
72051W        W45119  17.174   9.780   1.174
72052W        W45120  29.047   6.939  13.504
72053W        W45121   4.342  24.628   1.838
72054W        W45122   6.420   9.447  11.498
72055W        W45123   2.978  42.821   3.836
72056W        W45124  34.450  34.598   3.444
72057W        W45125   1.413  26.646  11.592
72058W        W45126   9.045  30.409   4.569
72059W        W45127  26.207  11.578   4.379
72060W        W45128  32.056  40.747  13.557
72061W        W45129  41.044  40.620  12.195
72062W        W45130   2.397  26.398  13.543
72063W        W45131  24.563  28.044   2.873
72064W        W45132  13.430  11.215  11.043
72065W        W45133   4.634  23.667   4.810
72066W        W45134   1.846   9.596   2.250
72067W        W45135  34.356  35.752  11.599
72068W        W45136  32.925  41.842  12.587
72069W        W45137   7.017  35.908   3.655
72070W        W45138  13.841  17.180  13.519
72071W        W45139  40.228  43.517   0.195
72072W        W45140  21.024   7.942  11.699
72073W        W45141   2.281  25.421  13.369
72074W        W45142   0.202  17.165   2.710
72075W        W45143  11.044  42.706  11.257
72076W        W45144  40.251  22.135  13.377
72077W        W45145   4.835  35.427  11.581
72078W        W45146   0.442   5.646   3.689
72079W        W45147  41.856  26.963  14.363
72080W        W45148  11.148  24.489  11.480
72081W        W45149   1.038   3.211  13.919
72082W        W45150  35.758  32.944  10.316
72083W        W45151  16.012  13.046   3.511
72084W        W45152  17.113  10.378   1.944
72085W        W45153  25.385   3.332   3.641
72086W        W45154  33.629  22.069  11.050
72087W        W45155  35.897   7.687  11.410
72088W        W45156  11.605   3.680  14.006
72089W        W45157  22.816  27.764  10.673
72090W        W45158  33.971  18.519   2.972
72091W        W45159  20.515   9.258  14.992
72092W        W45160   9.597   1.348   3.189
72093W        W45161  18.206  27.375  14.980
72094W        W45162  43.272  34.397  11.204
72095W        W45163  35.461  44.267   2.788
72096W        W45164  10.966  30.939   1.103
72097W        W45165  22.641  37.749  10.712
72098W        W45166  34.833  42.908   0.392
72099W        W45167   8.319  40.424   1.469
72100W        W45168  16.534  21.836   0.402
72101W        W45169  13.065  43.481  13.980
72102W        W45170  29.289  29.552  14.673
72103W        W45171   2.227  10.726   4.291
72104W        W45172  18.496  21.908   1.701
72105W        W45173  18.140   3.571   3.084
72106W        W45174  20.061  24.920  14.954
72107W        W45175  43.696  44.408   1.987
72108W        W45176  23.910  21.473  13.212
72109W        W45177  10.350  18.496  12.503
72110W        W45178  19.758  29.268   2.677
72111W        W45179  14.537  22.578   4.419
72112W        W45180  11.374  22.555  14.119
72113W        W45181  25.623  43.191  14.471
72114W        W45182  21.198  17.711   2.714
72115W        W45183  17.223  38.482  11.407
72116W        W45184   1.823  13.385  11.912
72117W        W45185   3.772   1.971  11.083
72118W        W45186  10.400  26.155   3.348
72119W        W45187  33.846   6.203   2.231
72120W        W45188  18.768  12.745   1.457
72121W        W45189  20.564   0.286  14.135
72122W        W45190  24.044  19.166   1.411
72123W        W45191  43.798  25.990  13.576
72124W        W45192  15.002  16.166   4.248
72125W        W45193  24.295  33.730   3.297
72126W        W45194   2.092  29.535  13.427
72127W        W45195  34.324  21.700  11.457
72128W        W45196  33.210  15.255   0.823
72129W        W45197   2.816   8.720  12.402
72130W        W45198  24.049  12.258   0.755
72131W        W45199   7.172  34.393  11.121
72132W        W45200  12.835  41.455  13.110
72133W        W45201   5.718  14.797   0.513
72134W        W45202   6.756  30.944   0.389
72135W        W45203  10.756  21.994   1.281
72136W        W45204  29.963  29.449  11.179
72137W        W45205  35.545   7.105  13.677
72138W        W45206   6.181   7.827   3.291
72139W        W45207  43.942   7.921   4.789
72140W        W45208  15.293  36.555  14.001
72141W        W45209   2.727  34.572   2.358
72142W        W45210   7.083   1.977   4.451
72143W        W45211  42.262   4.290  12.122
72144W        W45212  43.098  20.947   2.198
72145W        W45213  26.905  35.971  11.196
72146W        W45214  15.175   9.794  13.091
72147W        W45215   8.715   0.704   2.403
72148W        W45216  29.728  32.126   4.194
72149W        W45217  18.451  33.332  12.430
72150W        W45218  20.140   7.148  14.269
72151W        W45219  44.296  35.825  12.886
72152W        W45220   5.185  37.852   3.185
72153W        W45221  31.181  44.285  12.942
72154W        W45222  12.631  44.484   2.765
72155W        W45223  43.783  27.234  14.457
72156W        W45224  35.952  26.263  10.456
72157W        W45225   0.110  14.232   4.217
72158W        W45226   9.770   8.196  11.400
72159W        W45227   5.801  34.139  12.293
72160W        W45228   1.491   8.872  14.720
72161W        W45229   6.787   3.639   1.731
72162W        W45230  39.592   1.923   0.914
72163W        W45231  22.157  33.808  10.728
72164W        W45232  17.232  37.354   0.856
72165W        W45233  38.252  34.975  14.908
72166W        W45234   7.662  28.966   1.364
72167W        W45235  12.474  11.291   1.887
72168W        W45236  40.460  31.308  14.395
72169W        W45237   8.585  33.077  12.870
72170W        W45238  13.076   3.436   0.315
72171W        W45239  23.151  19.229   5.126
72172W        W45240  10.410   7.441   1.836
72173W        W45241  23.346  43.848  11.129
72174W        W45242   3.258  41.559  14.761
72175W        W45243  42.414  22.220   0.275
72176W        W45244  14.869  20.728  10.530
72177W        W45245  18.848  26.383   4.433
72178W        W45246  18.791   7.413  13.798
72179W        W45247  29.419   4.692   4.162
72180W        W45248  35.902   3.772   3.669
72181W        W45249  22.544  10.210   2.676
72182W        W45250  26.707  13.374  13.638
72183W        W45251  10.738   9.610   2.223
72184W        W45252  21.202   0.800  10.542
72185W        W45253  13.580  24.461  12.968
72186W        W45254  21.306  32.638  13.462
72187W        W45255  27.675   9.966   4.166
72188W        W45256   3.345  31.734   2.233
72189W        W45257   6.931  33.378  11.184
72190W        W45258  25.173  12.099  12.595
72191W        W45259  11.673  20.046   0.015
72192W        W45260  34.054   6.256  12.020
72193W        W45261  19.573  33.644  11.552
72194W        W45262  38.916  18.661   1.472
72195W        W45263  26.631  38.147  12.945
72196W        W45264  21.549  24.169   2.667
72197W        W45265  28.464  22.540   0.828
72198W        W45266   6.658  44.294   2.772
72199W        W45267  10.268  43.815   2.389
72200W        W45268  21.563  38.399  10.714
72201W        W45269  17.443  42.035  10.433
72202W        W45270   6.098  17.302   1.992
72203W        W45271  21.337  33.519   3.128
72204W        W45272  43.275  25.667  11.962
72205W        W45273  10.238  43.340   0.449
72206W        W45274   1.305  12.346   2.925
72207W        W45275   8.776   3.519   0.066
72208W        W45276  10.491   7.041  12.137
72209W        W45277  43.699  43.818  12.845
72210W        W45278  34.604   6.958   2.414
72211W        W45279  23.773  35.465  11.036
72212W        W45280  41.572  15.163  11.569
72213W        W45281  20.322  10.235  14.794
72214W        W45282  20.813  42.003  13.455
72215W        W45283  18.570  42.834  14.882
72216W        W45284  15.740  14.034  10.614
72217W        W45285   1.199  35.791   3.743
72218W        W45286  29.368   8.786   3.776
72219W        W45287  39.713   8.100  13.498
72220W        W45288  28.214   2.302   4.653
72221W        W45289   3.481   5.677  12.615
72222W        W45290  13.735  34.355  12.843
72223W        W45291  44.639   6.333   4.011
72224W        W45292  14.634  41.551   2.670
72225W        W45293  31.689  12.727   1.096
72226W        W45294  20.040  11.028   1.308
72227W        W45295  36.526  28.696  12.341
72228W        W45296   7.801  38.358  11.561
72229W        W45297   6.917  32.010   3.292
72230W        W45298  32.598  30.194  14.261
72231W        W45299  43.099  35.286  10.740
72232W        W45300  27.722  29.954  14.352
72233W        W45301  29.573  21.514  12.447
72234W        W45302  11.107  14.295   2.466
72235W        W45303  43.454  36.391  14.226
72236W        W45304  34.080  30.611  14.762
72237W        W45305  29.868  11.773   3.333
72238W        W45306   4.988  33.583   0.397
72239W        W45307  15.702   2.292   4.807
72240W        W45308  43.879   9.104   1.434
72241W        W45309  21.502  17.489  13.435
72242W        W45310  31.870  25.790  10.763
72243W        W45311  33.864  10.300   1.622
72244W        W45312  40.065  29.523   4.558
72245W        W45313  15.633  34.550   4.370
72246W        W45314  18.740   3.411  12.987
72247W        W45315  22.238  19.329   1.750
72248W        W45316  36.851  42.916   1.954
72249W        W45317  43.341  21.703   3.328
72250W        W45318  18.711   0.147   0.393
72251W        W45319  38.318  37.432  11.872
72252W        W45320   5.485  44.755   4.108
72253W        W45321  40.641  38.926  11.179
72254W        W45322  33.685  16.653   2.171
72255W        W45323  44.493   0.744  14.818
72256W        W45324  13.084  24.667   0.347
72257W        W45325  16.634  24.573   0.467
72258W        W45326  43.209  10.243   1.251
72259W        W45327   1.459  10.301   1.786
72260W        W45328  24.155  32.630  14.872
72261W        W45329  23.735  36.520  11.040
72262W        W45330   0.605  28.181   0.252
72263W        W45331   0.934  24.065  13.578
72264W        W45332  21.824  40.494  13.513
72265W        W45333  24.620  14.261   3.463
72266W        W45334  25.981  35.656  14.355
72267W        W45335  40.844  17.612   1.382
72268W        W45336  43.586  13.810   3.283
72269W        W45337  17.777   5.617   4.221
72270W        W45338  18.299   0.358  13.495
72271W        W45339   8.168  36.663  11.863
72272W        W45340  19.700   8.269   0.958
72273W        W45341  29.466  40.006  11.491
72274W        W45342  38.859  38.629   4.225
72275W        W45343  10.315  33.403   4.434
72276W        W45344  26.407  44.156   1.045
72277W        W45345  26.570  32.940   1.971
72278W        W45346   2.337  20.162  12.978
72279W        W45347  13.303  17.116  11.868
72280W        W45348   7.300  34.933  12.057
72281W        W45349  24.134  30.645   4.601
72282W        W45350   4.898  30.184  13.358
72283W        W45351  24.577   1.373   3.998
72284W        W45352  40.343  36.548   2.353
72285W        W45353  17.136  24.557   4.317
72286W        W45354  30.267  37.919  11.852
72287W        W45355  44.053   8.640   1.240
72288W        W45356   7.932  17.740   4.533
72289W        W45357   5.412  10.267  12.090
72290W        W45358  19.150   0.328   2.430
72291W        W45359   9.365  22.254   2.822
72292W        W45360  40.099   1.319   1.846
72293W        W45361  13.302  43.023   4.099
72294W        W45362  24.704  43.864  12.061
72295W        W45363  12.269  17.329  13.637
72296W        W45364  31.569  21.918   0.799
72297W        W45365  19.869  21.861  12.184
72298W        W45366  44.975  34.315  11.563
72299W        W45367  39.435   4.743  10.477
72300W        W45368  24.051  41.387   1.771
72301W        W45369  38.128  12.709   3.563
72302W        W45370  13.843   6.450  13.858
72303W        W45371  24.770   4.368  14.311
72304W        W45372  25.029   4.932  13.579
72305W        W45373  31.652  30.917   3.247
72306W        W45374  15.577   1.441   3.321
72307W        W45375   5.731  12.620   2.252
72308W        W45376  12.064  35.824   4.161
72309W        W45377   8.682  43.234   3.877
72310W        W45378  34.444  24.987  12.161
72311W        W45379  39.293  19.372  13.765
72312W        W45380  33.532   3.720   0.910
72313W        W45381  11.193  16.160  11.732
72314W        W45382  18.229  31.961  12.533
72315W        W45383  32.405  24.105   0.380
72316W        W45384   5.838  38.328   2.604
72317W        W45385  27.725  15.164  14.793
72318W        W45386   5.209  15.185   4.616
72319W        W45387  22.547   3.315   4.191
72320W        W45388  41.847  33.352  12.061
72321W        W45389  43.063  42.554  13.872
72322W        W45390  16.296  24.333   0.157
72323W        W45391  16.187   5.010   2.101
72324W        W45392  32.023   2.093  11.077
72325W        W45393  23.192  38.956   1.404
72326W        W45394  40.155   7.128  14.215
72327W        W45395   5.769  14.660   3.277
72328W        W45396   7.176  29.685   0.919
72329W        W45397   7.450  24.610   3.237
72330W        W45398  12.736  42.437   0.673
72331W        W45399  28.699   8.832  12.376
72332W        W45400  12.874  25.793   0.863
72333W        W45401  18.207   1.515   3.778
72334W        W45402   9.740  10.902  12.031
72335W        W45403   8.308   1.399   2.802
72336W        W45404   2.916   6.488   4.642
72337W        W45405  26.916  30.025  13.859
72338W        W45406  28.056  11.345  12.032
72339W        W45407  16.650   8.347  10.676
72340W        W45408  19.830   3.211  14.821
72341W        W45409  11.303  23.436  10.651
72342W        W45410   7.508  33.135  12.006
72343W        W45411  11.175  24.752  11.040
72344W        W45412  11.626  39.445   1.142
72345W        W45413  35.448  40.734  10.705
72346W        W45414   3.178  43.309  11.090
72347W        W45415   0.915  27.875  11.268
72348W        W45416   9.162  42.932  11.593
72349W        W45417   9.801   2.831  10.889
72350W        W45418  19.685  29.703  12.543
72351W        W45419  35.320  44.311  13.867
72352W        W45420  38.468  18.444   1.621
72353W        W45421  12.545  22.117  14.313
72354W        W45422   4.114  28.693   4.185
72355W        W45423   6.020  36.891  12.938
72356W        W45424   0.701  20.090  13.465
72357W        W45425  16.079   1.857   3.104
72358W        W45426  40.817  26.265  12.325
72359W        W45427   1.482  35.065  11.527
72360W        W45428  38.324  33.268   4.345
72361W        W45429  13.151  34.186  13.364
72362W        W45430  21.132  10.186  12.308
72363W        W45431  20.081  13.376  12.183
72364W        W45432  38.117  43.223   0.984
72365W        W45433  38.493   4.802  11.705
72366W        W45434   8.679  24.405   2.659
72367W        W45435  30.463  42.601  14.219
72368W        W45436  28.714   0.325   1.813
72369W        W45437  31.388  40.389  13.527
72370W        W45438  39.736  10.369  11.531
72371W        W45439  11.335  40.858   2.284
72372W        W45440  25.725   3.890  11.964
72373W        W45441  21.222  23.253   0.296
72374W        W45442  18.240  32.440  11.983
72375W        W45443  30.510  41.769  13.892
72376W        W45444  41.013  17.222  10.729
72377W        W45445  24.907  21.041   4.975
72378W        W45446  20.154   0.813   3.724
72379W        W45447  13.657   3.887  13.435
72380W        W45448   5.913  33.875   1.973
72381W        W45449  11.356   4.455   4.726
72382W        W45450   5.314  39.077   0.837
72383W        W45451  27.587   8.660  14.106
72384W        W45452  12.799  18.326  11.854
72385W        W45453  39.991  29.504  14.364
72386W        W45454  22.748   9.174   2.873
72387W        W45455  33.724  13.381  11.201
72388W        W45456  10.000  28.494   3.558
72389W        W45457  32.431  13.362   1.592
72390W        W45458   6.300  20.681   0.517
72391W        W45459   8.832  32.971   4.628
72392W        W45460  11.439   9.848  14.372
72393W        W45461  31.878  10.414  11.223
72394W        W45462  40.416  30.161   1.008
72395W        W45463  14.123  29.271   1.756
72396W        W45464  35.816   5.718   3.633
72397W        W45465  35.176  44.958  11.653
72398W        W45466  23.510  35.502  10.607
72399W        W45467  39.408   5.267   4.198
72400W        W45468  11.662   2.698   1.019
72401W        W45469  34.766  17.198  10.727
72402W        W45470  43.387  44.712   2.686
72403W        W45471  40.799   7.532   1.471
72404W        W45472   6.422  16.498  10.814
72405W        W45473  44.260  21.615   3.599
72406W        W45474  29.928  18.853   3.059
72407W        W45475  36.086   6.320   1.006
72408W        W45476  10.269  27.789  11.889
72409W        W45477  38.002   5.161  10.569
72410W        W45478   7.765  36.887  11.684
72411W        W45479  10.420  20.319  13.921
72412W        W45480  43.385  34.095   3.091
72413W        W45481   0.362  18.466   4.270
72414W        W45482  43.311  18.998   3.840
72415W        W45483  12.115  12.612   3.593
72416W        W45484  40.521  37.742   4.605
72417W        W45485  14.182  34.505  13.459
72418W        W45486  20.049  18.814   1.461
72419W        W45487  39.803   2.854   3.232
72420W        W45488  15.698  33.007  11.003
72421W        W45489  24.525  41.113   0.397
72422W        W45490  42.047   2.665  14.852
72423W        W45491  31.594  44.007  11.961
72424W        W45492  15.455   9.560   0.281
72425W        W45493  40.773   5.219   0.764
72426W        W45494   5.596  29.011   1.242
72427W        W45495   1.706  44.868   4.178
72428W        W45496   8.827  39.575   4.154
72429W        W45497  38.251  33.812  11.978
72430W        W45498  25.136  32.424  10.510
72431W        W45499  34.496  10.177   3.206
72432W        W45500  21.997  40.518  12.445
72433W        W45501  20.992  20.027   0.212
72434W        W45502  33.575  21.150  12.970
72435W        W45503   7.234  42.004  13.906
72436W        W45504  37.251  10.680  12.379
72437W        W45505  13.718   1.226  13.980
72438W        W45506   1.760  22.931  10.450
72439W        W45507  20.604  38.655   4.519
72440W        W45508  33.545  24.704  14.771
72441W        W45509   1.389   4.952  10.604
72442W        W45510  13.581  40.892   1.331
72443W        W45511  32.957   0.517   1.926
72444W        W45512   4.711  24.778  13.277
72445W        W45513  20.977  17.435   0.954
72446W        W45514  43.592  21.450  11.607
72447W        W45515  25.293  25.004   4.206
72448W        W45516   2.683   9.124  13.960
72449W        W45517  34.452  40.312   3.870
72450W        W45518  10.837  29.955   1.277
72451W        W45519  13.170  32.755  14.462
72452W        W45520  43.939  33.466   0.782
72453W        W45521  19.293  19.520   4.143
72454W        W45522  38.975  16.641  10.707
72455W        W45523  27.787  21.254  14.800
72456W        W45524   7.619  10.315   3.488
72457W        W45525  25.507  27.081  13.460
72458W        W45526  35.821  33.009  14.952
72459W        W45527  39.299  31.282   0.763
72460W        W45528  18.616  23.925   0.067
72461W        W45529   9.414  14.199   0.039
72462W        W45530  35.008  20.938   1.158
72463W        W45531   2.019  14.175  10.715
72464W        W45532   2.314  12.725  13.130
72465W        W45533  30.570  17.453   0.314
72466W        W45534  30.484  37.338   3.601
72467W        W45535  30.180  41.406  11.162
72468W        W45536  15.535  34.319  11.173
72469W        W45537   0.685  44.987  11.184
72470W        W45538  19.967  19.359   0.986
72471W        W45539   9.217  17.094  12.413
72472W        W45540   8.103  25.394   3.245
72473W        W45541  40.694  22.667   1.710
72474W        W45542   7.685  10.878  10.695
72475W        W45543   0.186  42.715   0.215
72476W        W45544  15.044   6.842  10.616
72477W        W45545  14.376  42.993   3.421
72478W        W45546   5.838   7.386  14.729
72479W        W45547   7.259   2.176  13.319
72480W        W45548  23.626  16.620   3.117
72481W        W45549  32.519  22.497   1.291
72482W        W45550   5.785   5.946   4.807
72483W        W45551  26.029  10.902   5.008
72484W        W45552  32.141  40.009  10.694
72485W        W45553   9.644  32.118  13.835
72486W        W45554   7.704  38.745   0.432
72487W        W45555  17.074   0.311   9.686
72488W        W45556  29.448  22.702  12.011
72489W        W45557  14.788   3.763  14.240
72490W        W45558  33.633  26.421   1.729
72491W        W45559  29.706  36.302  11.031
72492W        W45560  29.094  30.894  14.876
72493W        W45561  41.433   5.017   1.747
72494W        W45562  41.238  23.159  13.453
72495W        W45563  27.044   7.504   2.728
72496W        W45564   9.701  22.131  11.915
72497W        W45565  18.147  39.806   3.420
72498W        W45566  43.356  36.787   1.469
72499W        W45567   8.876   3.814  10.465
72500W        W45568  26.698  28.937   0.775
72501W        W45569   2.009   9.221  11.447
72502W        W45570   3.853  36.986  13.243
72503W        W45571  30.963  22.507  14.417
72504W        W45572   6.472   9.372  13.808
72505W        W45573  15.874  44.813   4.844
72506W        W45574  37.745   1.482  11.153
72507W        W45575  20.161   2.696   0.131
72508W        W45576  36.881  14.301   4.807
72509W        W45577  32.486  27.215   2.981
72510W        W45578  40.005  28.494   0.296
72511W        W45579  34.093  44.915   4.536
72512W        W45580   3.168   6.771  11.572
72513W        W45581   1.752  14.260  11.141
72514W        W45582  28.673  36.858   0.487
72515W        W45583  32.077  33.859   3.419
72516W        W45584  25.442  21.239   0.856
72517W        W45585  15.687  12.013   1.596
72518W        W45586  29.719  11.704   1.951
72519W        W45587  25.236   9.305   1.356
72520W        W45588  31.688   4.236   2.174
72521W        W45589  13.521   1.040   3.744
72522W        W45590  19.634  13.371  11.906
72523W        W45591  12.798   7.419   2.875
72524W        W45592  17.611  38.800   2.841
72525W        W45593  21.592  14.562  11.105
72526W        W45594   7.250   6.205  14.742
72527W        W45595  22.886  44.416   1.365
72528W        W45596  41.731  26.680   3.636
72529W        W45597   5.303   4.902   1.737
72530W        W45598  24.668  35.180   4.074
72531W        W45599  30.537   5.807   3.609
72532W        W45600  38.388  35.309  11.977
72533W        W45601  28.938  29.686  13.834
72534W        W45602  40.280  16.618   0.805
72535W        W45603   8.305   7.185   2.577
72536W        W45604  38.863   0.772   3.102
72537W        W45605  19.367  20.039   3.197
72538W        W45606   1.338  33.604   2.370
72539W        W45607  13.114  25.122  12.581
72540W        W45608  40.484  39.433  12.841
72541W        W45609  26.121   8.786   2.918
72542W        W45610  37.181  19.510   2.841
72543W        W45611  44.846  44.859   0.659
72544W        W45612  20.953  27.528  14.746
72545W        W45613  23.660  20.818   2.419
72546W        W45614   9.111  39.837  13.436
72547W        W45615  23.651  31.389   4.652
72548W        W45616  18.267  21.323  13.949
72549W        W45617  10.659  13.737  10.607
72550W        W45618  23.008  37.492  10.465
72551W        W45619  16.124  44.623   0.334
72552W        W45620  30.396  15.176  13.071
72553W        W45621  25.489  19.809   2.496
72554W        W45622  29.502  37.957   0.689
72555W        W45623  21.584  43.610   0.702
72556W        W45624   5.022  28.988   2.958
72557W        W45625   9.570  28.368  12.543
72558W        W45626  27.900   4.721  14.326
72559W        W45627  41.301  10.930  15.000
72560W        W45628  24.551  34.513   2.464
72561W        W45629  10.044  31.523  10.748
72562W        W45630  11.135  37.392   2.633
72563W        W45631  29.140  27.445  14.466
72564W        W45632   7.744  28.123   0.711
72565W        W45633  42.817  28.535   1.869
72566W        W45634  42.737  27.954   3.481
72567W        W45635   1.922   3.225  10.558
72568W        W45636  40.688   5.274  13.947
72569W        W45637  38.926   0.261   1.199
72570W        W45638  17.725  37.315   2.641
72571W        W45639  22.724  35.503   2.330
72572W        W45640  17.681  17.829   0.213
72573W        W45641  34.334  13.685   2.632
72574W        W45642  44.439  37.944   4.104
72575W        W45643   6.494  35.978  10.718
72576W        W45644   2.953   9.126  14.473
72577W        W45645   7.292  41.496   2.310
72578W        W45646  14.530  31.705  14.796
72579W        W45647  38.368  31.953   0.284
72580W        W45648  14.709   0.035   3.309
72581W        W45649   2.992  40.926   0.829
72582W        W45650  10.831  16.375   0.725
72583W        W45651  15.792  44.997   0.098
72584W        W45652  20.179  44.096   3.409
72585W        W45653  12.055  29.623  11.457
72586W        W45654   0.206  21.211   4.053
72587W        W45655  38.595   3.290   2.298
72588W        W45656  34.916  39.788  13.020
72589W        W45657  27.989  17.206   1.475
72590W        W45658   5.191  17.202   3.596
72591W        W45659  10.687   9.713   0.218
72592W        W45660  41.676  31.588   0.248
72593W        W45661  18.723  42.076  11.470
72594W        W45662   4.371  13.274   0.428
72595W        W45663  31.915  14.114   3.266
72596W        W45664  38.434  30.014   1.721
72597W        W45665   7.249  43.519  11.994
72598W        W45666  38.004   9.413  10.750
72599W        W45667  31.947  34.074   4.383
72600W        W45668  21.660  40.004  13.634
72601W        W45669  16.492  13.294  14.506
72602W        W45670   6.870  26.645   2.670
72603W        W45671   0.937  11.999  10.338
72604W        W45672  31.866  13.738   3.637
72605W        W45673  29.555  41.916   3.804
72606W        W45674  16.208  11.966  13.046
72607W        W45675   8.017  24.542   0.502
72608W        W45676  25.376   2.967   2.834
72609W        W45677  12.537  42.912  13.577
72610W        W45678  18.560   6.958   3.735
72611W        W45679  42.361  40.382  12.123
72612W        W45680  36.476  38.326  14.232
72613W        W45681  41.322  27.360   1.408
72614W        W45682  20.637  17.713   4.510
72615W        W45683  18.173  20.271  14.091
72616W        W45684  17.778  15.609   0.865
72617W        W45685  37.886   1.038  10.908
72618W        W45686  32.226  27.046  11.045
72619W        W45687  40.860   1.577  12.296
72620W        W45688  14.108   7.804   0.752
72621W        W45689   7.301  36.534   1.727
72622W        W45690  12.825  35.106   0.818
72623W        W45691  33.519  31.335  14.804
72624W        W45692  29.174   8.167   4.387
72625W        W45693  17.698  30.624   2.633
72626W        W45694  37.526  22.140  14.324
72627W        W45695  44.923   8.601  14.028
72628W        W45696  27.174  21.341  12.079
72629W        W45697  10.867  40.803   1.147
72630W        W45698  34.655  23.162  14.038
72631W        W45699   7.128  40.753  12.602
72632W        W45700  21.429  16.247   3.743
72633W        W45701  43.312  40.913  10.977
72634W        W45702  26.420  12.578  10.661
72635W        W45703  15.079   1.219   2.183
72636W        W45704  14.173  35.442   1.977
72637W        W45705  16.590  32.049   1.527
72638W        W45706  15.890  20.213  13.860
72639W        W45707  28.318   7.838   2.841
72640W        W45708  37.857  19.570   3.598
72641W        W45709  26.915  16.131  11.193
72642W        W45710  25.494  13.684  10.983
72643W        W45711  19.157  13.537   0.263
72644W        W45712   3.366  19.824  11.646
72645W        W45713  20.348  41.357  12.576
72646W        W45714   1.813  13.953   2.501
72647W        W45715  15.623  17.947  12.422
72648W        W45716  43.284  36.011   4.931
72649W        W45717  26.871   6.240   2.357
72650W        W45718  31.181   2.714  12.925
72651W        W45719  35.421  27.692  12.006
72652W        W45720  39.478  19.681   1.392
72653W        W45721  17.736  27.486  11.077
72654W        W45722  15.001  39.505   3.344
72655W        W45723  38.053  16.106  11.945
72656W        W45724  41.749  18.619  13.889
72657W        W45725  26.451  25.160   0.446
72658W        W45726  11.854  35.191  11.043
72659W        W45727  34.264  11.518  12.293
72660W        W45728  31.401  39.930  11.495
72661W        W45729  36.548  30.872  14.311
72662W        W45730  37.087  25.494  12.092
72663W        W45731  23.477   9.422   3.979
72664W        W45732  42.437  37.871  11.466
72665W        W45733  25.316   5.846   4.599
72666W        W45734  19.371   0.264   1.020
72667W        W45735  12.077  27.201   2.702
72668W        W45736  22.442   7.179  11.661
72669W        W45737   7.318  34.230  13.335
72670W        W45738   9.368  29.851   4.458
72671W        W45739  36.482  11.191  12.646
72672W        W45740  43.766   5.924   3.803
72673W        W45741  23.560  40.008  13.088
72674W        W45742   6.171  28.381   3.738
72675W        W45743   3.335  15.703  12.377
72676W        W45744  34.925  15.736   3.043
72677W        W45745   2.937  34.361  13.703
72678W        W45746   1.402  12.867  13.287
72679W        W45747  20.959  28.998   4.139
72680W        W45748  12.847  39.385  11.556
72681W        W45749   5.377   8.878   3.670
72682W        W45750  13.069  20.152  12.156
72683W        W45751  38.941  16.588   0.201
72684W        W45752   9.247  11.131  12.922
72685W        W45753  34.806   1.470  12.069
72686W        W45754  39.694   7.557  10.982
72687W        W45755  42.592  29.541  11.020
72688W        W45756  10.340  30.643   2.218
72689W        W45757  39.451  40.245  13.305
72690W        W45758   7.331  41.319   3.254
72691W        W45759  35.895  31.712   9.946
72692W        W45760  22.670  30.155   0.324
72693W        W45761  19.723  23.587   0.966
72694W        W45762  35.572  17.163   1.923
72695W        W45763   8.110  12.408   3.254
72696W        W45764  14.396  27.608   4.798
72697W        W45765  13.394  26.218   3.627
72698W        W45766  34.471  20.177  13.405
72699W        W45767  35.609  28.773   4.423
72700W        W45768   4.880  39.540   2.396
72701W        W45769  33.007  31.672  11.166
72702W        W45770   4.687   6.705  14.010
72703W        W45771  36.523  43.074  11.117
72704W        W45772  40.821  27.305   0.369
72705W        W45773   9.799  15.772  14.387
72706W        W45774   6.760  12.754   2.170
72707W        W45775  14.652  15.083   4.144
72708W        W45776  38.972  41.049   1.880
72709W        W45777  30.341  16.111   4.810
72710W        W45778  36.878  14.155   3.387
72711W        W45779  43.437  21.744  10.668
72712W        W45780  43.117  30.841   0.665
72713W        W45781  14.554  32.408   3.382
72714W        W45782  10.275  24.569   0.955
72715W        W45783  21.993  28.461   2.369
72716W        W45784  28.533  33.980  12.168
72717W        W45785  36.640   7.319  14.810
72718W        W45786  12.868  31.861   2.859
72719W        W45787  44.413  38.369   2.195
72720W        W45788   6.332  39.101   2.042
72721W        W45789   1.349  11.186   0.449
72722W        W45790  24.354   0.844   5.159
72723W        W45791   9.879  10.888  11.089
72724W        W45792  13.919  40.328   0.377
72725W        W45793  18.290  16.675   1.837
72726W        W45794  43.704  19.318  14.000
72727W        W45795   5.444  22.525  10.964
72728W        W45796  42.039  40.018   3.549
72729W        W45797  32.082  19.990   3.190
72730W        W45798  31.177  29.044  12.433
72731W        W45799   4.137  38.403   3.759
72732W        W45800  17.793  28.085   2.411
72733W        W45801  13.821  15.000   4.740
72734W        W45802  25.186  44.250  14.834
72735W        W45803  33.871  16.155  11.509
72736W        W45804  44.525  21.158   3.622
72737W        W45805  22.916  43.347  12.487
72738W        W45806  31.510  23.959   3.775
72739W        W45807   6.412  28.576  11.531
72740W        W45808  18.245   3.715  14.886
72741W        W45809  23.304   6.590   1.289
72742W        W45810   6.906   2.460   2.380
72743W        W45811  12.634  44.303   0.237
72744W        W45812  35.053  23.394   1.739
72745W        W45813  42.571  17.207  12.591
72746W        W45814  30.119  40.008   0.991
72747W        W45815  26.082  30.129   4.634
72748W        W45816   8.088  18.697   1.264
72749W        W45817  40.406  24.533  12.539
72750W        W45818  16.821  33.017  14.560
72751W        W45819  32.161  11.446  12.349
72752W        W45820   2.654  13.902   0.305
72753W        W45821  43.400  30.672   0.272
72754W        W45822  33.930  30.915  14.360
72755W        W45823  10.297  23.065   1.177
72756W        W45824   6.986  39.326   5.043
72757W        W45825   7.342  21.115   1.619
72758W        W45826   2.310  37.013   3.175
72759W        W45827   1.402  34.964  10.705
72760W        W45828  17.700   1.457   3.615
72761W        W45829  36.371   3.039   4.023
72762W        W45830  14.137  22.685  11.553
72763W        W45831  30.508  17.802   2.668
72764W        W45832  42.219  26.030  14.315
72765W        W45833   3.425   6.727   1.269
72766W        W45834  19.678   2.458  11.900
72767W        W45835   1.743  14.353  12.872
72768W        W45836  34.050  13.253   3.361
72769W        W45837  36.015  12.276   1.577
72770W        W45838  27.139  32.679   3.944
72771W        W45839  35.450  18.514  12.437
72772W        W45840   8.935  38.106   2.914
72773W        W45841  38.535  26.877  13.421
72774W        W45842   2.271  25.284  10.144
72775W        W45843  10.728  19.859   3.930
72776W        W45844  32.581  26.678   1.792
72777W        W45845  30.967  37.827  10.965
72778W        W45846  10.814  23.876   3.306
72779W        W45847   8.961  24.240  14.798
72780W        W45848  43.370   6.789   3.099
72781W        W45849  34.856   5.144  13.132
72782W        W45850  23.590  25.599  14.917
72783W        W45851   7.427  44.742  11.077
72784W        W45852  40.284  14.342   3.186
72785W        W45853  44.196  24.529   5.029
72786W        W45854  13.569   0.546   3.623
72787W        W45855  35.061  40.134   2.172
72788W        W45856   3.272   0.692  13.997
72789W        W45857   2.247  41.901   4.607
72790W        W45858  37.416   8.464   1.539
72791W        W45859  29.969  24.830   1.213
72792W        W45860  32.629  26.459  14.100
72793W        W45861  16.239  22.473  12.263
72794W        W45862  35.962   6.851   0.924
72795W        W45863   8.196  39.791  13.236
72796W        W45864  44.243  23.120   3.800
72797W        W45865  19.899  27.127  12.978
72798W        W45866  23.074   5.940   0.002
72799W        W45867  13.536  25.994  14.980
72800W        W45868  15.145  14.914   2.968
72801W        W45869  27.411  21.183  11.581
72802W        W45870   9.397  20.936   2.451
72803W        W45871  10.586  15.300   1.603
72804W        W45872  28.037  37.558  10.800
72805W        W45873  44.705  19.567   4.140
72806W        W45874   0.772  10.666   2.009
72807W        W45875  31.501  25.214  13.039
72808W        W45876  34.608   1.013  14.124
72809W        W45877  18.094   1.033   2.878
72810W        W45878  24.099  42.924  14.242
72811W        W45879  42.331  20.314  13.469
72812W        W45880  33.859  39.126  13.112
72813W        W45881  12.257  31.893   2.330
72814W        W45882  22.707  13.683  13.854
72815W        W45883  24.063   5.963   4.946
72816W        W45884   4.915  19.749  12.475
72817W        W45885  40.746  16.586   1.444
72818W        W45886   1.222   1.284  13.480
72819W        W45887   2.270  11.374   0.437
72820W        W45888  43.528  17.654  12.889
72821W        W45889  30.407  35.468  11.911
72822W        W45890  41.429  23.783  10.632
72823W        W45891   6.283   1.523  14.476
72824W        W45892  10.151  42.897   0.970
72825W        W45893  15.899   2.111  12.836
72826W        W45894   7.754  33.615  12.079
72827W        W45895  32.005  28.475   2.934
72828W        W45896  17.986   0.234   4.190
72829W        W45897  21.718   3.448   2.710
72830W        W45898  43.222  13.905  12.623
72831W        W45899   2.479   5.006   3.638
72832W        W45900   8.646   5.538  12.441
72833W        W45901  20.548  20.912   1.333
72834W        W45902  15.134  33.521  13.130
72835W        W45903   8.796  20.801   0.358
72836W        W45904   5.670  20.651   3.442
72837W        W45905  26.186  20.551   1.373
72838W        W45906  44.739   7.665  13.918
72839W        W45907  18.280  32.781  14.631
72840W        W45908   4.859   8.138   1.919
72841W        W45909  37.384  16.228   1.021
72842W        W45910  29.658  12.913   1.255
72843W        W45911  18.055   2.946  11.208
72844W        W45912  32.345  43.269  13.438
72845W        W45913  10.565  31.822  11.079
72846W        W45914  27.458   4.394   2.611
72847W        W45915  16.816  25.078   4.421
72848W        W45916   0.553  37.879   0.329
72849W        W45917   2.384   5.188   4.924
72850W        W45918  38.069  42.611  11.147
72851W        W45919  29.537  17.714   4.173
72852W        W45920  14.540  10.178   1.886
72853W        W45921   2.759  42.399  11.504
72854W        W45922  24.542  16.573  10.609
72855W        W45923  44.544  19.093  13.018
72856W        W45924  19.576   0.490  13.311
72857W        W45925  26.079  25.532   0.331
72858W        W45926  44.253  19.104   3.682
72859W        W45927  23.083  40.010   4.111
72860W        W45928  27.735  25.626  13.357
72861W        W45929  23.558  37.586  14.302
72862W        W45930  22.443  27.485   3.688
72863W        W45931  42.269  34.147  11.944
72864W        W45932  18.669   4.159  11.793
72865W        W45933  40.172  20.053   0.450
72866W        W45934  14.068  36.658  11.137
72867W        W45935  11.522   6.169  10.169
72868W        W45936   2.011  20.216   0.485
72869W        W45937  40.269  23.581  14.000
72870W        W45938  15.969  27.648  12.576
72871W        W45939  27.525  10.220  10.088
72872W        W45940  12.680  28.408   1.818
72873W        W45941  21.104  36.814  13.892
72874W        W45942  11.647  24.484   4.811
72875W        W45943  23.640  22.800   4.825
72876W        W45944   8.253  34.623   0.728
72877W        W45945  27.340   1.844  11.072
72878W        W45946  30.087  34.591  13.916
72879W        W45947   1.721   6.832   0.447
72880W        W45948   5.991  29.949  13.317
72881W        W45949  39.525  14.289   4.289
72882W        W45950  18.713  32.164  14.417
72883W        W45951   8.619  13.997   1.225
72884W        W45952  28.647  16.766  11.180
72885W        W45953  41.687   0.795   2.176
72886W        W45954  17.750  35.370  13.580
72887W        W45955  15.141  10.366  11.854
72888W        W45956  26.551  36.865   0.329
72889W        W45957  42.684  30.328  10.352
72890W        W45958  42.516  37.511   3.718
72891W        W45959  15.398  27.593   4.613
72892W        W45960  16.294  27.232  10.731
72893W        W45961  31.614  25.169  12.096
72894W        W45962  22.037  43.816   0.833
72895W        W45963   4.808   0.858  14.475
72896W        W45964   1.464  37.844   0.294
72897W        W45965  38.724  20.091  11.996
72898W        W45966   2.905   3.740   2.817
72899W        W45967  36.052  34.380  10.224
72900W        W45968  37.587  16.951   0.872
72901W        W45969   4.664  19.831   2.335
72902W        W45970   2.881  38.433  13.269
72903W        W45971   2.356  25.321   4.575
72904W        W45972  28.367  25.869   2.426
72905W        W45973   0.838  10.728  12.024
72906W        W45974  10.710  22.088  11.232
72907W        W45975   6.813  11.087   0.240
72908W        W45976  20.270  27.996   3.912
72909W        W45977   9.891  15.173  11.291
72910W        W45978  32.307  41.935  14.492
72911W        W45979  10.742  39.732   4.398
72912W        W45980  17.697  22.995  14.297
72913W        W45981  20.640  20.212  13.940
72914W        W45982  37.777  28.469  13.126
72915W        W45983  33.087  39.609  12.997
72916W        W45984  40.576  37.234   4.477
72917W        W45985  29.082   9.333   1.302
72918W        W45986   2.917  30.748  11.535
72919W        W45987  24.612  26.652   3.659
72920W        W45988  33.475  12.752   4.272
72921W        W45989   7.044  35.004   1.286
72922W        W45990  43.933  44.945  10.745
72923W        W45991  11.083  36.312   1.723
72924W        W45992  22.639  40.672   1.677
72925W        W45993   2.494  14.824  11.120
72926W        W45994   2.364  32.131  11.550
72927W        W45995   4.442  33.995   2.895
72928W        W45996  23.782  22.262  11.975
72929W        W45997  25.408  40.846   4.172
72930W        W45998  21.751   7.870  11.959
72931W        W45999  29.126  17.757  10.768
72932W        W46000  13.176   0.875  10.908
72933W        W46001  32.177   0.938   4.538
72934W        W46002  28.264  36.452  12.431
72935W        W46003  39.694  20.967   2.688
72936W        W46004  11.108  26.596   0.711
72937W        W46005  36.759  37.853   0.327
72938W        W46006   3.416  17.583  12.868
72939W        W46007  14.742   1.222  10.755
72940W        W46008  16.214  44.991   4.469
72941W        W46009  34.051  29.501   1.978
72942W        W46010  11.799   1.223  12.765
72943W        W46011   3.178  28.632  11.163
72944W        W46012  36.120  23.194   3.247
72945W        W46013  39.448  33.502  14.457
72946W        W46014  21.534   9.631   4.625
72947W        W46015  15.675   5.401   1.312
72948W        W46016   3.930  21.978   2.192
72949W        W46017  29.831  14.153  12.917
72950W        W46018  26.949  40.529   0.821
72951W        W46019   3.194  28.081  10.468
72952W        W46020  28.507  29.973  14.801
72953W        W46021   1.401  15.585  11.486
72954W        W46022   9.427   7.352  14.947
72955W        W46023  42.352  39.837  14.182
72956W        W46024  25.490  16.785   0.892
72957W        W46025  16.731  14.481   2.936
72958W        W46026  33.135  16.035  12.666
72959W        W46027   9.593   4.790  10.662
72960W        W46028  37.539  23.007   0.783
72961W        W46029  44.907   7.768   4.132
72962W        W46030  32.839  35.845  13.781
72963W        W46031   9.834  13.427   0.764
72964W        W46032  22.228  34.335  10.691
72965W        W46033  13.807  23.001   3.211
72966W        W46034  14.815  25.897   0.085
72967W        W46035  16.986  43.275  12.506
72968W        W46036  32.538  13.383   0.707
72969W        W46037  12.385   8.850  10.682
72970W        W46038  24.988  20.053   0.910
72971W        W46039   2.513   6.679  12.854
72972W        W46040  30.529  44.830  13.878
72973W        W46041   7.917   9.682   2.194
72974W        W46042  43.976  27.572   4.041
72975W        W46043   4.061  37.545   1.969
72976W        W46044   7.111  32.492   3.281
72977W        W46045  40.112  38.746   2.306
72978W        W46046  44.270   7.373  14.343
72979W        W46047  39.595  10.190   3.630
72980W        W46048  12.962  31.188   4.172
72981W        W46049  35.033  11.843  14.565
72982W        W46050   0.541  16.981   4.090
72983W        W46051  44.380   9.920  11.560
72984W        W46052   6.709  13.730   1.649
72985W        W46053   8.005   5.563  11.407
72986W        W46054   2.717  39.765   1.945
72987W        W46055  42.749  24.263   1.230
72988W        W46056  40.548  43.682  11.618
72989W        W46057   3.263   5.862  11.128
72990W        W46058  13.733  35.014   1.880
72991W        W46059  44.144  13.691   9.808
72992W        W46060  35.082   1.543  13.919
72993W        W46061  21.734  30.387  11.157
72994W        W46062   9.725  21.342  14.438
72995W        W46063   0.386  22.032  13.394
72996W        W46064   8.710  21.606  14.761
72997W        W46065  21.128   8.287   1.328
72998W        W46066  33.550  25.579  13.834
72999W        W46067  36.386  18.353  13.398
73000W        W46068  36.692  26.766   0.021
73001W        W46069  37.262  13.479   5.098
73002W        W46070  34.486  17.272   4.357
73003W        W46071  25.260  43.399   0.267
73004W        W46072  16.810  14.265   0.009
73005W        W46073  27.340   0.726   1.472
73006W        W46074   1.121   6.257   0.792
73007W        W46075  29.492  40.039   4.704
73008W        W46076   7.092   3.624  13.534
73009W        W46077  44.265  20.285  12.091
73010W        W46078  40.788  12.134   1.903
73011W        W46079  19.190  29.334   3.546
73012W        W46080  38.169  38.884  14.012
73013W        W46081  22.248  27.084   3.345
73014W        W46082   1.544  44.346   1.817
73015W        W46083   6.947   1.332   0.242
73016W        W46084  34.335  10.894   2.768
73017W        W46085  44.533  20.266   0.374
73018W        W46086  11.617  15.181   4.657
73019W        W46087   5.211  41.191  11.519
73020W        W46088  30.566  14.368  14.444
73021W        W46089  21.308  34.921   0.758
73022W        W46090  40.321  26.202  12.093
73023W        W46091   5.176  22.626   2.333
73024W        W46092  37.095  22.824  14.893
73025W        W46093  40.664  34.560  11.541
73026W        W46094  36.046  28.141  14.337
73027W        W46095  40.480   1.129  10.186
73028W        W46096  26.727  20.709  12.022
73029W        W46097  37.287  13.991   4.957
73030W        W46098  43.360   9.639   3.464
73031W        W46099  21.907  41.578  14.794
73032W        W46100  28.344  40.455   0.922
73033W        W46101  28.972   2.691  10.657
73034W        W46102  25.626   9.904  10.641
73035W        W46103  18.523  14.067  12.035
73036W        W46104  44.035  41.543   2.496
73037W        W46105  33.142  19.450  13.875
73038W        W46106   2.169  21.211   0.939
73039W        W46107  23.201  17.287  11.569
73040W        W46108   7.894   6.578   3.109
73041W        W46109  28.729  14.786  13.501
73042W        W46110   8.351  15.203   4.222
73043W        W46111  22.436  39.047  11.527
73044W        W46112   0.583  36.570   2.508
73045W        W46113   7.184   0.316   2.284
73046W        W46114  40.342   2.542  13.830
73047W        W46115  39.425  25.176  13.886
73048W        W46116   0.657   6.782  12.512
73049W        W46117  18.249  26.851  14.694
73050W        W46118  25.044  12.469   5.182
73051W        W46119   0.919  24.714   1.190
73052W        W46120  25.277  26.459   5.030
73053W        W46121  42.819   5.421  14.040
73054W        W46122  22.661  36.399  13.326
73055W        W46123  24.611  42.510   0.904
73056W        W46124   2.755  33.425  13.473
73057W        W46125  26.122  31.435  11.844
73058W        W46126  29.632  26.558   1.896
73059W        W46127   9.311   9.354  13.492
73060W        W46128  17.420   4.248   1.084
73061W        W46129   2.486  29.639   1.896
73062W        W46130   1.662  40.472  10.601
73063W        W46131  32.874  16.060  10.573
73064W        W46132  18.230  37.440  14.941
73065W        W46133  32.028  24.090  12.658
73066W        W46134   9.150  20.705   3.923
73067W        W46135  28.603  38.545  12.810
73068W        W46136   9.309  22.051   1.413
73069W        W46137  41.325  21.180   1.931
73070W        W46138  36.229  39.728  11.992
73071W        W46139  11.741  16.255   4.679
73072W        W46140  43.885  33.538  11.075
73073W        W46141  25.906  16.581  13.477
73074W        W46142  30.473  21.648   2.370
73075W        W46143  44.300  36.581  13.097
73076W        W46144  33.472  18.770  12.898
73077W        W46145  18.714  18.344   4.217
73078W        W46146   1.731   3.437  12.413
73079W        W46147  29.692   2.368  13.855
73080W        W46148  22.649   4.778   4.093
73081W        W46149  33.138  24.144  10.775
73082W        W46150  44.847  32.088  13.557
73083W        W46151  13.230   7.218  10.667
73084W        W46152  34.187  16.180  11.101
73085W        W46153   9.748  37.403   2.942
73086W        W46154  19.278  27.606  11.108
73087W        W46155  30.139  44.908   3.335
73088W        W46156  43.455  31.578  14.226
73089W        W46157  34.141   6.965   1.999
73090W        W46158   1.749  27.534   1.411
73091W        W46159  28.890  26.892  11.182
73092W        W46160  23.905   3.915   2.673
73093W        W46161  32.939  27.006   2.715
73094W        W46162  33.492  12.262  13.054
73095W        W46163   7.972  14.798   1.260
73096W        W46164  35.458  40.082   3.718
73097W        W46165  34.918  40.453   3.112
73098W        W46166   3.856  30.192   2.702
73099W        W46167  23.871  26.403  12.381
73100W        W46168  41.043   3.747  12.979
73101W        W46169  35.654  41.364   1.352
73102W        W46170  14.916  33.955   0.382
73103W        W46171  15.706  31.707  14.708
73104W        W46172  43.480  44.811  11.545
73105W        W46173  25.677  36.144  11.300
73106W        W46174  33.916  25.537   2.317
73107W        W46175   9.618  41.496  10.172
73108W        W46176  17.292   4.700   1.879
73109W        W46177  31.067  11.197  14.282
73110W        W46178  42.276  43.897  11.537
73111W        W46179  27.541   0.683   0.984
73112W        W46180  36.610  26.034   3.675
73113W        W46181  18.911  32.897   3.176
73114W        W46182   1.008   1.377   0.745
73115W        W46183  37.680  29.925  13.064
73116W        W46184  23.501   9.805  12.935
73117W        W46185  10.127  38.491  14.773
73118W        W46186  33.412  21.462   2.833
73119W        W46187  19.960  17.210  12.020
73120W        W46188  41.918  15.640  12.329
73121W        W46189  12.380  44.757  13.437
73122W        W46190  36.323   3.731   2.736
73123W        W46191  40.909  27.954   3.740
73124W        W46192  22.174  40.783   3.857
73125W        W46193  39.781   6.231   2.334
73126W        W46194  44.117  22.199  12.061
73127W        W46195   9.866  40.885   2.617
73128W        W46196  29.933  43.083  12.927
73129W        W46197   0.039  18.074   2.755
73130W        W46198  37.105  33.485  12.970
73131W        W46199  41.808  29.074  13.524
73132W        W46200  40.865  29.243   4.394
73133W        W46201   8.619  20.322   0.434
73134W        W46202  11.578  34.924   4.167
73135W        W46203   8.572  38.494   1.920
73136W        W46204  39.329   3.002  14.663
73137W        W46205   3.354   8.351  11.589
73138W        W46206  10.520   8.254  10.373
73139W        W46207  33.729   3.658   2.798
73140W        W46208  39.789  37.412   4.096
73141W        W46209  16.222  43.785   2.323
73142W        W46210  37.856   9.484  12.054
73143W        W46211  17.457  33.038   1.382
73144W        W46212  21.594  24.598   3.312
73145W        W46213  44.026   1.472  12.217
73146W        W46214  11.277  17.150   3.103
73147W        W46215  17.280   9.788   0.309
73148W        W46216  29.997  34.365  11.162
73149W        W46217  22.287  31.864  10.699
73150W        W46218  30.003   6.996   3.237
73151W        W46219   7.213   3.758   0.359
73152W        W46220  40.953  21.244  14.522
73153W        W46221  23.070  31.103   2.143
73154W        W46222  44.006  21.493   2.187
73155W        W46223   2.231  25.629  14.719
73156W        W46224   1.490  43.086  12.009
73157W        W46225  32.561  16.157   0.259
73158W        W46226   5.774  24.012  12.855
73159W        W46227  25.686  43.700  13.794
73160W        W46228  20.166  12.369   2.291
73161W        W46229   8.122  27.651   1.375
73162W        W46230  25.327  29.855   4.981
73163W        W46231  17.640  16.797  13.942
73164W        W46232   4.451  27.456  12.944
73165W        W46233  30.504  41.562  14.369
73166W        W46234  28.520  15.131   4.161
73167W        W46235   2.847  12.081  12.900
73168W        W46236  33.564   6.357   2.641
73169W        W46237  27.826   7.709   2.963
73170W        W46238   2.309  40.310  11.158
73171W        W46239   9.224  12.727  13.713
73172W        W46240  16.851   1.345   4.990
73173W        W46241   4.583   1.563   3.388
73174W        W46242  37.553  27.159  14.461
73175W        W46243  36.792  33.744   5.447
73176W        W46244   4.390  20.676   2.909
73177W        W46245  18.724  33.645   1.156
73178W        W46246   5.803   8.619   3.874
73179W        W46247  42.278   6.845  10.698
73180W        W46248  40.839  24.634   0.829
73181W        W46249  31.285   1.745   5.008
73182W        W46250  11.118  42.358  10.891
73183W        W46251   3.925  25.435   4.308
73184W        W46252  23.196  23.136   0.567
73185W        W46253  41.465  43.356  11.142
73186W        W46254  13.324  17.335   5.367
73187W        W46255  19.172  34.430   2.659
73188W        W46256   3.363  44.775   2.854
73189W        W46257  21.850   0.394   1.301
73190W        W46258  11.771  21.905   1.206
73191W        W46259   3.087  40.252  14.973
73192W        W46260   8.501   6.451  12.235
73193W        W46261  24.521  19.193  12.435
73194W        W46262  19.635  41.091   3.340
73195W        W46263  33.114  22.440  11.881
73196W        W46264   8.721  32.681   2.294
73197W        W46265  18.962   0.921  12.477
73198W        W46266  13.380  12.739   0.525
73199W        W46267  25.249  41.225  13.978
73200W        W46268  32.366   7.880  10.707
73201W        W46269  19.953  12.161  13.527
73202W        W46270  44.257  41.083   2.436
73203W        W46271   5.766   2.146  11.044
73204W        W46272   6.091  21.790   1.304
73205W        W46273  28.428   5.889   0.925
73206W        W46274  30.414  42.017   1.831
73207W        W46275  16.333  10.606   2.273
73208W        W46276  27.899  33.166  11.141
73209W        W46277  27.807  31.053   2.268
73210W        W46278  17.792  42.409  11.529
73211W        W46279  14.095   8.775   4.030
73212W        W46280  42.644   9.322   4.462
73213W        W46281  13.281  19.765  13.036
73214W        W46282  19.120  16.203   2.550
73215W        W46283  36.839   3.187   3.918
73216W        W46284  10.185  41.308   3.806
73217W        W46285  13.991  41.372  11.151
73218W        W46286  43.018  15.566  11.520
73219W        W46287  19.289  20.347  12.517
73220W        W46288  31.576  10.328  12.141
73221W        W46289   5.295  22.477   0.838
73222W        W46290  22.737  31.521  12.093
73223W        W46291   3.484  18.581  14.011
73224W        W46292  22.911   9.228   0.912
73225W        W46293  11.733  43.218  13.358
73226W        W46294  16.643  40.729  13.516
73227W        W46295  40.880   5.205   2.755
73228W        W46296   1.372  33.039   4.115
73229W        W46297  22.913  15.050  13.388
73230W        W46298  43.379  31.939  14.605
73231W        W46299  20.784  32.088  10.690
73232W        W46300  33.174  37.269   2.295
73233W        W46301   8.346  39.266   5.043
73234W        W46302   9.243  20.655   4.449
73235W        W46303  44.209  20.663  13.401
73236W        W46304  29.869  26.253  10.568
73237W        W46305   5.651  11.878  14.878
73238W        W46306   7.645  38.066  14.044
73239W        W46307  44.673  24.932  10.047
73240W        W46308  27.835  17.237  12.606
73241W        W46309  40.577  15.689  10.120
73242W        W46310  35.456  44.628   3.729
73243W        W46311   6.034  19.311  11.108
73244W        W46312  35.386  12.878  12.047
73245W        W46313  13.750  22.064  12.895
73246W        W46314  16.493  28.275   1.401
73247W        W46315   3.934   7.812  12.047
73248W        W46316   4.731  42.285   4.084
73249W        W46317  15.521  35.845   2.953
73250W        W46318  25.127  14.268  12.593
73251W        W46319  29.510  23.031  11.432
73252W        W46320  37.903  32.512   3.753
73253W        W46321  11.162  19.217   1.332
73254W        W46322   5.222  37.560  11.066
73255W        W46323  41.508   1.909  13.466
73256W        W46324  11.600  40.668   2.789
73257W        W46325   9.727  37.603  10.602
73258W        W46326  19.683  42.841  13.990
73259W        W46327  27.169  29.474  11.143
73260W        W46328  41.395  10.452  11.242
73261W        W46329  23.278  19.973   4.938
73262W        W46330  38.984   6.930  10.932
73263W        W46331  13.800  37.560   4.441
73264W        W46332  36.785  27.289   0.001
73265W        W46333   0.102  29.018  11.920
73266W        W46334  44.932   1.140  13.063
73267W        W46335  39.079  37.966  14.893
73268W        W46336  25.023  26.062  10.628
73269W        W46337  19.694  24.890   2.882
73270W        W46338  38.959  15.306   1.745
73271W        W46339  21.693  43.979   1.741
73272W        W46340  22.135  34.696   1.072
73273W        W46341  22.171  19.274   3.028
73274W        W46342   5.008   2.761   1.440
73275W        W46343  26.534   7.787   0.212
73276W        W46344   1.753  28.255  14.010
73277W        W46345  23.715  12.370   3.715
73278W        W46346  29.132  30.563  10.757
73279W        W46347  38.914  22.216   3.718
73280W        W46348  13.027  15.153   0.479
73281W        W46349  26.703   3.407  10.744
73282W        W46350  20.119  22.097  12.994
73283W        W46351  35.323  33.875   4.139
73284W        W46352  23.234  30.712  13.752
73285W        W46353   7.433  14.651  14.047
73286W        W46354  31.511   8.417  12.798
73287W        W46355  12.226  30.207   1.904
73288W        W46356   8.608   9.440   2.725
73289W        W46357  33.855  22.170  14.207
73290W        W46358   5.254   3.465  11.305
73291W        W46359   8.311  31.635   1.116
73292W        W46360  33.997  39.722  13.938
73293W        W46361   8.160  33.655   0.465
73294W        W46362  13.289   0.363   4.573
73295W        W46363  12.124  32.826   4.693
73296W        W46364  40.474  36.646  10.691
73297W        W46365  31.560  22.249   1.643
73298W        W46366  21.522  12.923   1.148
73299W        W46367   6.653  11.127   4.143
73300W        W46368  22.667   4.262   3.213
73301W        W46369  33.506  42.481   2.658
73302W        W46370  31.554  23.444   0.002
73303W        W46371  27.161  37.820   0.895
73304W        W46372  24.547  29.172  13.394
73305W        W46373  20.619  26.158  11.694
73306W        W46374  35.034   3.792  14.248
73307W        W46375  13.864  37.521   1.282
73308W        W46376  43.506  42.266  13.697
73309W        W46377  35.539   4.806   0.388
73310W        W46378  30.030   3.330  12.637
73311W        W46379  29.353   4.704   0.777
73312W        W46380  31.980  32.414  12.804
73313W        W46381  16.795   7.238  14.756
73314W        W46382  28.453  16.845   4.103
73315W        W46383   6.775  23.200  14.920
73316W        W46384  11.477  12.769   3.881
73317W        W46385  11.141   4.690  10.459
73318W        W46386   6.930  25.902  14.737
73319W        W46387  25.617  19.541  10.277
73320W        W46388  32.128  24.567  12.489
73321W        W46389   4.726  22.375  11.752
73322W        W46390  34.605   1.443  13.779
73323W        W46391  12.133  38.604   4.257
73324W        W46392  16.411  22.724   2.814
73325W        W46393  36.487  31.914   2.796
73326W        W46394  15.348  25.186  13.416
73327W        W46395   9.935  37.499  11.512
73328W        W46396  34.934   2.463  13.755
73329W        W46397  23.019   1.419  14.126
73330W        W46398  17.601  18.279   1.393
73331W        W46399  29.986  11.375   4.543
73332W        W46400  13.726  18.249   3.362
73333W        W46401  10.805  11.728  10.236
73334W        W46402  39.945  12.313  13.459
73335W        W46403  14.665  12.089   0.756
73336W        W46404  39.303   3.172  10.679
73337W        W46405  10.502  14.321  12.255
73338W        W46406   7.235  20.917   0.261
73339W        W46407   1.498  21.271  11.099
73340W        W46408   3.334  42.310   0.205
73341W        W46409  33.130  30.003  11.920
73342W        W46410  15.869  31.974  14.260
73343W        W46411  26.929  37.007   2.299
73344W        W46412  15.208  40.843   1.366
73345W        W46413  26.873   1.790   0.970
73346W        W46414  19.565  43.428  12.688
73347W        W46415  41.062   2.400  12.898
73348W        W46416   9.678   0.913  12.950
73349W        W46417   4.688  20.900   3.757
73350W        W46418  42.693  17.587  13.399
73351W        W46419  33.604  22.497  10.548
73352W        W46420   0.300  18.719  12.898
73353W        W46421  13.846  22.273   0.793
73354W        W46422   6.924  26.007   0.993
73355W        W46423  24.631   5.738  13.677
73356W        W46424  13.273   6.980   0.783
73357W        W46425   0.947   5.622  11.640
73358W        W46426  43.175  23.459  11.622
73359W        W46427  44.458  31.830  13.804
73360W        W46428  33.004  39.224   3.758
73361W        W46429  41.495  16.244   0.601
73362W        W46430   5.180  39.008   4.145
73363W        W46431  39.068  19.697  14.510
73364W        W46432   4.359  15.092  11.597
73365W        W46433  40.490  28.895  11.216
73366W        W46434  23.816   3.831   3.411
73367W        W46435  30.321  29.451  10.797
73368W        W46436   4.872  37.024  13.854
73369W        W46437   2.773   1.600   4.477
73370W        W46438  32.849  44.061   4.574
73371W        W46439  20.003  43.341   3.045
73372W        W46440   3.851  18.778   3.661
73373W        W46441  36.474  11.766   3.178
73374W        W46442  34.169   6.611   2.412
73375W        W46443   2.292  36.495  11.686
73376W        W46444  38.843  20.507   2.593
73377W        W46445   1.582  35.061   3.154
73378W        W46446  41.878  24.041  13.190
73379W        W46447  33.662  30.607   2.229
73380W        W46448  25.167   5.741   1.930
73381W        W46449  38.135  24.684   3.133
73382W        W46450  40.466  42.268   0.681
73383W        W46451  35.080  11.398   4.182
73384W        W46452  20.817   4.556  13.239
73385W        W46453   5.738   8.467  14.507
73386W        W46454  41.281  39.099  13.950
73387W        W46455  27.890  14.814  11.744
73388W        W46456  35.168  42.886   0.009
73389W        W46457  26.461  31.326  11.123
73390W        W46458  17.385   9.096   1.406
73391W        W46459  22.484  27.540   2.343
73392W        W46460  44.281  37.215   5.053
73393W        W46461   8.239  35.033   3.284
73394W        W46462  39.648  19.310  12.837
73395W        W46463  15.958  42.100   4.153
73396W        W46464  10.207   2.233   1.287
73397W        W46465  30.653  18.158  10.708
73398W        W46466  22.099  37.901  14.203
73399W        W46467  29.559  10.665   1.384
73400W        W46468   5.026  44.048   3.034
73401W        W46469  44.380   1.352   4.256
73402W        W46470   3.974   4.997   1.486
73403W        W46471  25.787   7.421   2.357
73404W        W46472  23.266  19.741   1.494
73405W        W46473  17.626  14.788   3.427
73406W        W46474   1.218  35.440   1.873
73407W        W46475  37.922   3.406  11.707
73408W        W46476  32.991  42.058   0.346
73409W        W46477  31.445  35.133   0.787
73410W        W46478   9.293  22.151  11.631
73411W        W46479  19.636  21.955   0.878
73412W        W46480  33.547  33.577   2.256
73413W        W46481   4.905   2.576   1.954
73414W        W46482   7.170  40.714   3.889
73415W        W46483  42.310  43.320   3.188
73416W        W46484  12.314  17.552   4.630
73417W        W46485  28.926   1.119  11.401
73418W        W46486  22.388   8.223   0.875
73419W        W46487  43.873   8.612  12.502
73420W        W46488   0.152  39.851  14.726
73421W        W46489  39.932  43.295   4.208
73422W        W46490   0.780  10.098   3.628
73423W        W46491  14.354   3.765   1.945
73424W        W46492  12.601  28.925   1.958
73425W        W46493  25.213  44.323   0.342
73426W        W46494  21.294  10.932  13.770
73427W        W46495  25.492   7.694  11.646
73428W        W46496  42.309  38.584  14.763
73429W        W46497  41.897  36.789   3.985
73430W        W46498  21.683   8.622  11.047
73431W        W46499   5.656   7.811   1.450
73432W        W46500  21.678  28.017   1.209
73433W        W46501  29.556  13.438   1.264
73434W        W46502  22.979  17.751  11.631
73435W        W46503  26.314  38.849  14.305
73436W        W46504  14.081   4.852  14.407
73437W        W46505   9.266   4.295  13.830
73438W        W46506  39.369  32.113  11.404
73439W        W46507  24.178  39.038  14.562
73440W        W46508  40.162  12.148  11.830
73441W        W46509  10.907  19.640   5.294
73442W        W46510  40.819  16.716   2.924
73443W        W46511  34.147  28.298   4.594
73444W        W46512  27.537  34.645   4.707
73445W        W46513  29.815   7.235  14.366
73446W        W46514  29.207   7.780   1.189
73447W        W46515  33.833  26.287   0.802
73448W        W46516   2.249  29.476   1.468
73449W        W46517  31.350  20.165   2.754
73450W        W46518  30.025  11.240   3.289
73451W        W46519  43.679  37.553  14.468
73452W        W46520  36.698   5.785   1.953
73453W        W46521  16.303  31.231  11.359
73454W        W46522  23.053  21.994  11.163
73455W        W46523   0.728  26.049   3.652
73456W        W46524  25.734  13.732   3.823
73457W        W46525  27.947  39.884   3.404
73458W        W46526  34.377  39.645  14.298
73459W        W46527  11.282  36.729  11.798
73460W        W46528  42.905  23.786   4.713
73461W        W46529  40.393  41.595   0.007
73462W        W46530  16.463  23.737   3.678
73463W        W46531  40.033   1.934   5.157
73464W        W46532  26.680  18.751  11.206
73465W        W46533   1.162   6.819  11.627
73466W        W46534  39.050  40.684  10.665
73467W        W46535  16.626  28.558   0.107
73468W        W46536   5.123   8.614   0.330
73469W        W46537  36.096   2.694   0.122
73470W        W46538  17.865  25.135  13.075
73471W        W46539  20.009  43.264  12.496
73472W        W46540  21.274  14.554   2.261
73473W        W46541  38.610  25.948   2.723
73474W        W46542  22.579  43.800   3.754
73475W        W46543  28.937  18.496   1.440
73476W        W46544   0.755  43.394  13.471
73477W        W46545  14.218   5.947  10.937
73478W        W46546  33.976   2.009  14.765
73479W        W46547   9.737  21.157  12.988
73480W        W46548  11.350  29.159   0.481
73481W        W46549   1.121  23.262   2.415
73482W        W46550  25.275  37.120  12.561
73483W        W46551  14.718  25.521   0.753
73484W        W46552  34.979  34.818   1.019
73485W        W46553  23.685   8.470  14.394
73486W        W46554  15.311  26.821  14.710
73487W        W46555   3.034  23.814  12.553
73488W        W46556  29.695  24.892  11.650
73489W        W46557  43.218  43.966   4.389
73490W        W46558  11.603  10.236   2.832
73491W        W46559  38.329  30.540   1.768
73492W        W46560   6.033  41.344  12.863
73493W        W46561  22.552  29.937  12.019
73494W        W46562  25.201   4.801   2.561
73495W        W46563  31.421  27.924   2.392
73496W        W46564  40.964   9.274   4.174
73497W        W46565  36.564   7.846  14.959
73498W        W46566  16.522  22.243   1.259
73499W        W46567   0.146  18.822  13.853
73500W        W46568  41.794  21.057   1.705
73501W        W46569  38.259  31.222   2.745
73502W        W46570  34.646  26.968   2.428
73503W        W46571  13.832  28.556   4.180
73504W        W46572  41.344  34.646   3.327
73505W        W46573  13.612  12.831   3.233
73506W        W46574  15.374   6.957   0.750
73507W        W46575  28.885   2.304   4.275
73508W        W46576  38.503   2.634  11.005
73509W        W46577  44.239  18.631  10.990
73510W        W46578   6.161  21.021  11.562
73511W        W46579  23.462  11.206   3.232
73512W        W46580  11.313  20.820   3.172
73513W        W46581  30.095   0.202   3.777
73514W        W46582   5.764  37.522   2.658
73515W        W46583  31.628  41.400  12.482
73516W        W46584  32.926  22.786   2.262
73517W        W46585   2.980  29.762   1.960
73518W        W46586   6.837   2.217  14.524
73519W        W46587   7.364  26.136  13.000
73520W        W46588  33.956  16.201   0.300
73521W        W46589   4.041  35.924   2.416
73522W        W46590  19.016   7.700   3.224
73523W        W46591  25.173  42.166   1.891
73524W        W46592  35.999   3.812  11.063
73525W        W46593   9.783  35.761   0.309
73526W        W46594  42.237   1.976  10.426
73527W        W46595   7.252  44.488   1.714
73528W        W46596  39.056  37.117   0.929
73529W        W46597  26.733  42.443  11.523
73530W        W46598  12.445   6.773   4.239
73531W        W46599  20.193   4.672   0.220
73532W        W46600   4.005  43.733  13.098
73533W        W46601   5.360  18.231   0.378
73534W        W46602  10.169  19.824  12.953
73535W        W46603  35.682   6.574  12.631
73536W        W46604  38.201  12.635   5.223
73537W        W46605  20.215  28.510  12.843
73538W        W46606  41.274  18.789   3.762
73539W        W46607   0.005  23.110   3.157
73540W        W46608  43.921  40.948   1.847
73541W        W46609  43.261  27.680   0.297
73542W        W46610  41.327  26.470  12.356
73543W        W46611  15.654  34.157  11.858
73544W        W46612  36.141   6.869   3.217
73545W        W46613  31.060  36.459   1.823
73546W        W46614  36.837   4.990   2.343
73547W        W46615   7.749   7.690  14.356
73548W        W46616  37.278   1.373  13.870
73549W        W46617  44.019  29.121  13.393
73550W        W46618  27.272   2.888  12.005
73551W        W46619  13.310  20.222   0.240
73552W        W46620  43.392   4.698   1.380
73553W        W46621  26.996   5.846  10.590
73554W        W46622   2.481  11.540  10.730
73555W        W46623   7.108  40.023   2.653
73556W        W46624  10.374   9.197   2.226
73557W        W46625  29.837  21.885  12.873
73558W        W46626  18.570   1.124   5.045
73559W        W46627  34.629  44.476  14.819
73560W        W46628  30.550   0.451   3.734
73561W        W46629  43.282   6.720   2.105
73562W        W46630  22.557  44.768  14.072
73563W        W46631  16.520   6.268  11.651
73564W        W46632  19.926  37.597   0.366
73565W        W46633  12.093  18.288  13.913
73566W        W46634   4.846  33.112  10.093
73567W        W46635  12.281  24.281   0.140
73568W        W46636  20.677   3.887  14.120
73569W        W46637  20.597  31.953   4.104
73570W        W46638  13.496  20.810   2.823
73571W        W46639  33.094  15.869   1.552
73572W        W46640  17.713  15.401  11.064
73573W        W46641   8.293  38.301   5.426
73574W        W46642  40.745  16.924  12.407
73575W        W46643  21.011  39.324  13.868
73576W        W46644  37.396  23.020   3.941
73577W        W46645  10.342  10.725  10.789
73578W        W46646   5.170  42.268   1.833
73579W        W46647  32.063  41.031  12.688
73580W        W46648  29.138   5.646   1.636
73581W        W46649  39.054  15.595   3.253
73582W        W46650  15.040   3.990   1.397
73583W        W46651  32.874  39.327  13.387
73584W        W46652   6.846  34.410  13.614
73585W        W46653   7.771   7.350   4.791
73586W        W46654   5.862  44.900  13.419
73587W        W46655  13.714  19.058   4.750
73588W        W46656  42.629  43.258   2.785
73589W        W46657  27.707   6.765   4.339
73590W        W46658  24.235  37.455   3.371
73591W        W46659  39.881   1.877  10.628
73592W        W46660  18.593  12.428  12.196
73593W        W46661  18.707  44.323  10.141
73594W        W46662  33.481   0.240   2.827
73595W        W46663  43.013  40.259  14.075
73596W        W46664  31.702  29.733  13.486
73597W        W46665  29.099  20.425   0.545
73598W        W46666  33.120  12.733   3.875
73599W        W46667   0.845  28.167   0.714
73600W        W46668  28.189  25.506   1.753
73601W        W46669  21.979  22.761   2.308
73602W        W46670  15.648   7.464  10.795
73603W        W46671  14.808  40.416   0.717
73604W        W46672  26.402  29.564   2.737
73605W        W46673  38.029  17.687  11.954
73606W        W46674  27.073  36.880  12.855
73607W        W46675  21.514  15.269  13.612
73608W        W46676  16.989  32.211   0.467
73609W        W46677   9.627  42.929  14.290
73610W        W46678   0.650  24.344  13.945
73611W        W46679  16.292  12.149   2.255
73612W        W46680  40.729  18.511  10.717
73613W        W46681  35.231  16.883   4.447
73614W        W46682  35.294   2.490  12.897
73615W        W46683  17.711  13.130  14.108
73616W        W46684   7.326  36.087   3.137
73617W        W46685  10.181  33.572  12.158
73618W        W46686  39.227  27.205   1.984
73619W        W46687   3.201   8.180   4.448
73620W        W46688   2.624  13.715   0.780
73621W        W46689   3.398  27.681  13.158
73622W        W46690  37.070  10.263  14.363
73623W        W46691   0.410   2.265  13.351
73624W        W46692  29.484  30.217   0.843
73625W        W46693   5.696  10.724  12.920
73626W        W46694  38.216  31.434   3.809
73627W        W46695  41.939  21.760   2.473
73628W        W46696  36.831   1.211   2.656
73629W        W46697   5.920  28.920  11.196
73630W        W46698   9.815   2.715  14.890
73631W        W46699   0.965  12.550   2.419
73632W        W46700   9.447  37.549   0.415
73633W        W46701  38.990  26.011   2.381
73634W        W46702  42.066  17.318  12.575
73635W        W46703  12.999  15.118  10.735
73636W        W46704  10.736   6.362   4.249
73637W        W46705   9.374  15.666   3.086
73638W        W46706  37.562  22.033   1.420
73639W        W46707  13.632  30.564  10.845
73640W        W46708  14.531   0.371   2.617
73641W        W46709  30.543   7.644  13.918
73642W        W46710  37.172  36.070  11.909
73643W        W46711  16.157  35.954   0.918
73644W        W46712  34.016  28.069  10.888
73645W        W46713  10.021  30.667  12.956
73646W        W46714   1.494   9.752   1.341
73647W        W46715  32.701  37.372   4.576
73648W        W46716  31.804  43.474  13.473
73649W        W46717  31.509  21.511   2.436
73650W        W46718  41.917   3.594   2.962
73651W        W46719   9.273   6.877  12.403
73652W        W46720   4.502  29.420  11.768
73653W        W46721  26.848  25.791  11.577
73654W        W46722   9.941  27.150   3.849
73655W        W46723   1.287  31.358  14.426
73656W        W46724  33.608  21.148  10.535
73657W        W46725  29.213  42.860  13.603
73658W        W46726  39.986  13.909  12.010
73659W        W46727  19.786  11.209   1.742
73660W        W46728  20.992   7.277   1.281
73661W        W46729  18.569  34.202   0.270
73662W        W46730  33.439  44.980   3.995
73663W        W46731  31.624  21.567  14.995
73664W        W46732  36.127  25.432   2.784
73665W        W46733   2.371   7.256   3.533
73666W        W46734  14.639  33.072   2.829
73667W        W46735  23.182  33.397  13.136
73668W        W46736  41.352  38.739   2.748
73669W        W46737   4.231  22.989   0.236
73670W        W46738  20.772  41.577   4.114
73671W        W46739  25.228  26.155   4.215
73672W        W46740   6.160  43.938   2.334
73673W        W46741  26.925  13.600   2.299
73674W        W46742  25.920   6.511  14.449
73675W        W46743  40.838  32.328  13.884
73676W        W46744  12.909  18.716   1.860
73677W        W46745  29.944  28.924   0.977
73678W        W46746  37.350  23.190  10.532
73679W        W46747  29.084  26.646  10.478
73680W        W46748   2.864  21.311  10.989
73681W        W46749   1.852   0.291   1.806
73682W        W46750   6.304  10.988   4.505
73683W        W46751  18.753  38.362   0.439
73684W        W46752  30.187  27.217  14.439
73685W        W46753  22.048   6.461   2.023
73686W        W46754  27.680  39.047  11.992
73687W        W46755  40.324  43.186  10.743
73688W        W46756  15.141  12.083   3.124
73689W        W46757  39.277  23.141   3.310
73690W        W46758   9.167  22.671  12.399
73691W        W46759  23.165  24.965  12.628
73692W        W46760  12.125  42.315   3.191
73693W        W46761  40.397  38.887   4.658
73694W        W46762   0.909   8.496  11.119
73695W        W46763  13.659  41.376   2.338
73696W        W46764  22.682   2.868  11.637
73697W        W46765  12.070   0.927   4.688
73698W        W46766   3.868  26.143  11.518
73699W        W46767  30.431  18.565  14.250
73700W        W46768  39.736  23.127  12.426
73701W        W46769   9.359  14.781   3.767
73702W        W46770  32.903  12.702  13.350
73703W        W46771  21.641  18.277  13.441
73704W        W46772  31.087  32.343  13.913
73705W        W46773  15.982  17.121  11.185
73706W        W46774  17.828  32.634  13.806
73707W        W46775  26.102  14.037  10.400
73708W        W46776   6.958  11.089  11.869
73709W        W46777  23.948  12.875   4.970
73710W        W46778   5.405   3.461  12.187
73711W        W46779   3.919   4.787   0.512
73712W        W46780  35.477  41.530   0.012
73713W        W46781  22.172  39.422  13.108
73714W        W46782   5.441  12.652   2.852
73715W        W46783  11.962  18.716   0.263
73716W        W46784  20.423   2.223  14.386
73717W        W46785  13.286  29.693  13.369
73718W        W46786   5.707  26.944   0.434
73719W        W46787  33.455  44.937  13.039
73720W        W46788  15.279  44.860  11.158
73721W        W46789   8.239  18.643   3.653
73722W        W46790   7.950   9.972   3.260
73723W        W46791  14.350  44.038  11.935
73724W        W46792  12.685  30.573  10.564
73725W        W46793   1.252  43.402   1.042
73726W        W46794  19.825  26.658   0.884
73727W        W46795  11.247  30.927   3.088
73728W        W46796  15.119  20.244   4.621
73729W        W46797  27.450   5.429   2.277
73730W        W46798  43.394  42.323  10.849
73731W        W46799  14.855  33.467   4.482
73732W        W46800   9.338  13.096   1.959
73733W        W46801  13.444  27.694   2.688
73734W        W46802  23.731  34.380  12.577
73735W        W46803  30.111  16.545  12.459
73736W        W46804   8.353   5.924  11.299
73737W        W46805   2.199  39.608   4.099
73738W        W46806   4.247  25.348   0.435
73739W        W46807  13.119  30.603  10.837
73740W        W46808  28.970  21.142  13.510
73741W        W46809  21.875  20.311  14.286
73742W        W46810  26.427  29.159  11.659
73743W        W46811  16.970  39.131  13.376
73744W        W46812  20.539  13.147  12.057
73745W        W46813  43.904   3.370  10.059
73746W        W46814  27.033  22.728   4.293
73747W        W46815  34.161  17.042  11.570
73748W        W46816  36.213  21.238  11.612
73749W        W46817   5.328  30.217  12.155
73750W        W46818   4.207  15.773  13.353
73751W        W46819  32.325  42.885   3.692
73752W        W46820   7.164  12.946  10.315
73753W        W46821  19.984  40.359  14.001
73754W        W46822  33.004  23.085   4.129
73755W        W46823   4.093  37.012   3.624
73756W        W46824  41.022   3.814   0.909
73757W        W46825  40.446   7.602   5.064
73758W        W46826   7.238  32.990   4.966
73759W        W46827   1.356  27.538  11.951
73760W        W46828  36.796  33.712   4.935
73761W        W46829  37.190  43.433  10.424
73762W        W46830  12.886  21.309   4.217
73763W        W46831  19.265  11.560  12.853
73764W        W46832  36.146  30.567   0.564
73765W        W46833  13.304  24.567  11.413
73766W        W46834   3.226  40.923  12.951
73767W        W46835  30.804  39.056   3.183
73768W        W46836  34.805  22.282   2.279
73769W        W46837  26.013  29.128   0.307
73770W        W46838  28.338   5.811  13.450
73771W        W46839  26.486  37.450   4.095
73772W        W46840   0.260  44.769   3.815
73773W        W46841  13.570  36.535  11.163
73774W        W46842  24.016  16.307   0.223
73775W        W46843  43.387  22.337   4.634
73776W        W46844  42.467  29.607   0.361
73777W        W46845   0.467   0.080  11.852
73778W        W46846  10.316   8.468   1.870
73779W        W46847  29.385  32.902   4.591
73780W        W46848  32.707  29.350   3.424
73781W        W46849  33.946  29.136  12.357
73782W        W46850  35.491  18.050  14.920
73783W        W46851  29.455   2.537  12.046
73784W        W46852  27.089  19.661  10.255
73785W        W46853  36.355  27.339   4.060
73786W        W46854  22.357  44.728   0.248
73787W        W46855  14.386  17.223  14.385
73788W        W46856   4.247  14.630  10.442
73789W        W46857  38.860  43.778   0.473
73790W        W46858  21.623  18.257   4.115
73791W        W46859  27.043  23.016  13.323
73792W        W46860  36.976   7.218   3.737
73793W        W46861  19.281  17.562   3.240
73794W        W46862  31.051  34.814  12.006
73795W        W46863  34.480   7.425   2.782
73796W        W46864  37.432  15.480   0.245
73797W        W46865  42.089  30.418  11.174
73798W        W46866  42.941   4.524  13.076
73799W        W46867   8.916  39.545  13.879
73800W        W46868  17.189  26.249   1.339
73801W        W46869  10.931  17.192   2.651
73802W        W46870  22.170  16.124  11.558
73803W        W46871  29.730  20.784   3.369
73804W        W46872  34.329  39.839  10.470
73805W        W46873  37.572   7.348  14.527
73806W        W46874  27.108  20.854  14.222
73807W        W46875  22.439   8.711  13.907
73808W        W46876  29.641   4.649  11.421
73809W        W46877   5.106  38.293   9.922
73810W        W46878  16.665  32.078  14.774
73811W        W46879  19.267  26.134   4.665
73812W        W46880  27.601  23.727   2.310
73813W        W46881  38.600  35.398  13.300
73814W        W46882  28.077   0.000  12.173
73815W        W46883  29.545  44.237   0.727
73816W        W46884  28.985  21.464  12.085
73817W        W46885  22.998  27.230  10.682
73818W        W46886  28.136  35.044   4.562
73819W        W46887  17.131   5.490  11.545
73820W        W46888  22.079  28.553  13.434
73821W        W46889   9.930  35.527  12.000
73822W        W46890  20.220  34.446  14.251
73823W        W46891   6.681   9.257  10.637
73824W        W46892   8.204   0.175   0.315
73825W        W46893  29.347  40.593  10.668
73826W        W46894  10.655  39.523   1.529
73827W        W46895  35.833  44.474  13.762
73828W        W46896  40.519   7.218   1.782
73829W        W46897  32.765   3.822   1.379
73830W        W46898  18.418  40.342  13.115
73831W        W46899  13.134   1.128   1.813
73832W        W46900  24.667  19.729  14.817
73833W        W46901  41.827  10.743   4.759
73834W        W46902  41.251  23.608   2.735
73835W        W46903  17.960  39.113   1.259
73836W        W46904   6.377  32.695   2.947
73837W        W46905   7.128  25.305   4.972
73838W        W46906  13.696  34.351  14.879
73839W        W46907   5.963   3.353  14.936
73840W        W46908  40.933  29.660   4.089
73841W        W46909  27.951  22.964  12.935
73842W        W46910  36.636  13.905   5.060
73843W        W46911  30.606  35.682   1.851
73844W        W46912   4.848  26.209   2.820
73845W        W46913   1.720  18.537   4.563
73846W        W46914  27.249  31.198  12.404
73847W        W46915  29.508  10.704   4.375
73848W        W46916   6.948  10.547   0.396
73849W        W46917  19.607  15.215   0.054
73850W        W46918   8.651   2.617   0.263
73851W        W46919   2.051  31.028  11.143
73852W        W46920   9.310  38.255   2.607
73853W        W46921  37.739  15.647   2.250
73854W        W46922   3.018  30.328   0.868
73855W        W46923  29.515  10.900   0.428
73856W        W46924  34.936  35.593  11.943
73857W        W46925  26.961  42.985  10.696
73858W        W46926   5.854  32.459   0.423
73859W        W46927  31.504  36.577   0.935
73860W        W46928   2.796  18.555   1.380
73861W        W46929  20.610   8.479   1.258
73862W        W46930  41.608  30.552   2.854
73863W        W46931   1.228   6.769   2.238
73864W        W46932  21.203   1.181   2.749
73865W        W46933  35.398  26.641   4.685
73866W        W46934  25.289   1.369  14.103
73867W        W46935  30.058   9.796   3.508
73868W        W46936   5.203  38.279  11.487
73869W        W46937  14.172  11.332   0.875
73870W        W46938   4.858  41.564  11.481
73871W        W46939   9.750  30.099   3.809
73872W        W46940  34.532  27.396  10.739
73873W        W46941  39.331  11.236   2.334
73874W        W46942  19.513  20.929   4.999
73875W        W46943  43.638  11.387   2.280
73876W        W46944   3.880   4.721   2.411
73877W        W46945   4.521  33.835   0.354
73878W        W46946   0.397  26.651   0.369
73879W        W46947  27.649  38.062  14.525
73880W        W46948  18.915   8.502   3.823
73881W        W46949  33.822  37.786   3.928
73882W        W46950  44.451  21.983   0.944
73883W        W46951  23.588   8.885   3.932
73884W        W46952  32.502   8.851  11.282
73885W        W46953  33.129  14.764  12.176
73886W        W46954  38.485  29.434   0.473
73887W        W46955   6.319  19.086   0.566
73888W        W46956  23.294   7.200  13.578
73889W        W46957  20.264  39.637   0.798
73890W        W46958  10.040   9.415  10.746
73891W        W46959  38.612  20.256   1.318
73892W        W46960  14.189  31.973   0.227
73893W        W46961  27.206   9.874   1.324
73894W        W46962  14.527  28.792  13.469
73895W        W46963  20.360   3.343  14.820
73896W        W46964  14.805   4.687   2.537
73897W        W46965   5.117  34.459  12.106
73898W        W46966  31.890  26.930   4.374
73899W        W46967  37.570  19.154  12.862
73900W        W46968  29.942   3.900  14.797
73901W        W46969  13.958  44.330   0.403
73902W        W46970   1.172  28.075  10.495
73903W        W46971  29.532  38.976   2.918
73904W        W46972  39.140  34.139   4.605
73905W        W46973  41.822  28.138   3.579
73906W        W46974  21.101   6.486   4.143
73907W        W46975  18.285  35.086   3.687
73908W        W46976  23.516   6.168  10.713
73909W        W46977   9.878  26.824  14.630
73910W        W46978   3.755  15.546  12.636
73911W        W46979  29.419  38.068   3.688
73912W        W46980  14.785  16.025   4.694
73913W        W46981  10.758  21.661  14.719
73914W        W46982  28.868  33.350   3.889
73915W        W46983  42.219  31.694  11.012
73916W        W46984  33.137  14.191  13.461
73917W        W46985  42.963   4.083  13.415
73918W        W46986  38.345  23.481  13.090
73919W        W46987  36.129  24.670   0.870
73920W        W46988  43.146  43.455  11.941
73921W        W46989  31.505  18.827   3.723
73922W        W46990  32.123  21.353  12.782
73923W        W46991  24.371  32.871  11.615
73924W        W46992   6.885  11.611   0.345
73925W        W46993  38.570   5.172   0.117
73926W        W46994  24.018   3.136   4.138
73927W        W46995  20.191   4.938  11.657
73928W        W46996  30.497  21.803  13.382
73929W        W46997  11.399   8.151  14.348
73930W        W46998   0.761   3.407   3.602
73931W        W46999  35.973  29.227   3.685
73932W        W47000  36.987  28.920   4.587
73933W        W47001  22.516  21.047  12.348
73934W        W47002  20.698  16.055  12.968
73935W        W47003  33.246  12.719  12.979
73936W        W47004  18.816   1.547   1.312
73937W        W47005  24.150  32.872   3.824
73938W        W47006  10.832  16.698   2.834
73939W        W47007  37.408  44.741  10.523
73940W        W47008  23.009   0.489  14.267
73941W        W47009  31.620  39.892  13.402
73942W        W47010  24.543  32.496   2.836
73943W        W47011  29.191  27.229  12.867
73944W        W47012  42.290  28.233  12.046
73945W        W47013  37.468   9.192  13.602
73946W        W47014  26.650  23.534   3.392
73947W        W47015   6.972   4.305   0.590
73948W        W47016  22.990  40.767   4.552
73949W        W47017  29.954  14.553  12.551
73950W        W47018  19.120  17.838  14.239
73951W        W47019  10.765  13.164  14.869
73952W        W47020   4.856   9.155  10.603
73953W        W47021  28.606  20.522   2.447
73954W        W47022   0.215  19.076   0.798
73955W        W47023  12.627   3.688   4.308
73956W        W47024  43.467   4.275   2.246
73957W        W47025  31.066   9.240  13.000
73958W        W47026  29.460  19.072  12.726
73959W        W47027  25.932  39.374   0.235
73960W        W47028  23.573  32.971   0.990
73961W        W47029  26.944  33.667  10.249
73962W        W47030   0.002   6.865   3.893
73963W        W47031   6.794  11.939  11.564
73964W        W47032   5.204  14.769  14.861
73965W        W47033  12.871  23.075   3.709
73966W        W47034  21.061  16.181   2.320
73967W        W47035  35.466  44.436   0.320
73968W        W47036  37.651   9.669   3.611
73969W        W47037  39.860  38.376   0.909
73970W        W47038  38.932  27.267  12.061
73971W        W47039   0.811  37.110   3.263
73972W        W47040  25.128  27.521   0.020
73973W        W47041  42.526  26.084   1.795
73974W        W47042   7.004  24.281   1.743
73975W        W47043  34.180  31.782   5.493
73976W        W47044   6.381  39.762   4.575
73977W        W47045  23.024  24.341   4.969
73978W        W47046   5.428  12.068   1.733
73979W        W47047  22.957  40.827  12.891
73980W        W47048   4.727  15.763   0.698
73981W        W47049   0.808   7.193  11.602
73982W        W47050  16.000  35.286   2.241
73983W        W47051  30.582   1.301   1.435
73984W        W47052  15.169  30.435   2.805
73985W        W47053   7.825  20.741  12.658
73986W        W47054  31.095   4.132  12.115
73987W        W47055  25.943  22.632  12.476
73988W        W47056   2.191  20.181   3.342
73989W        W47057  17.241  24.484   1.799
73990W        W47058  10.319   7.156   0.964
73991W        W47059  35.943  14.827   3.097
73992W        W47060  16.288  25.029   4.574
73993W        W47061  44.727  20.558   0.934
73994W        W47062  26.985  29.325   4.469
73995W        W47063  17.104  20.551   3.304
73996W        W47064   2.170   2.885   0.519
73997W        W47065   5.976  33.961   2.937
73998W        W47066  28.968  28.413   2.852
73999W        W47067  21.191  24.307  13.109
74000W        W47068  28.053  42.017   1.318
74001W        W47069  13.813   4.376   3.162
74002W        W47070   8.092  21.623  13.830
74003W        W47071  34.838  25.641  11.623
74004W        W47072  27.922  14.186   0.402
74005W        W47073  40.130  27.062  11.669
74006W        W47074  11.099  44.161   0.961
74007W        W47075   4.334   9.942   4.460
74008W        W47076  23.626  44.333   4.984
74009W        W47077  42.244   1.397   4.198
74010W        W47078  29.743  44.488   4.184
74011W        W47079  29.027  36.495   4.085
74012W        W47080  12.022  20.627   0.262
74013W        W47081  39.276   0.955  13.017
74014W        W47082  16.132  26.631   4.057
74015W        W47083  39.426  27.497   1.596
74016W        W47084  26.746  22.520   0.335
74017W        W47085  38.473  43.973  14.546
74018W        W47086  35.361  37.846   0.434
74019W        W47087  13.232   0.888  12.370
74020W        W47088   9.798  22.255  13.977
74021W        W47089  27.391  24.603  11.188
74022W        W47090  23.143  21.249   1.123
74023W        W47091  40.235  14.259  11.193
74024W        W47092  12.593  24.861  13.773
74025W        W47093   6.233  15.815   1.842
74026W        W47094   5.411  29.839  14.057
74027W        W47095  14.020  31.845  10.627
74028W        W47096  41.857   5.438   3.051
74029W        W47097  36.868  25.706   0.887
74030W        W47098  36.863  34.891  12.219
74031W        W47099  12.165  18.141   1.146
74032W        W47100   3.617  37.927  13.551
74033W        W47101   8.843  34.501   4.367
74034W        W47102   6.748  18.782   0.370
74035W        W47103   9.733  15.912   4.273
74036W        W47104  28.662   2.178   3.836
74037W        W47105  14.114  19.333  12.011
74038W        W47106   0.605   4.421  13.202
74039W        W47107  20.698  12.801   1.199
74040W        W47108  43.641  41.207  12.119
74041W        W47109  30.823  37.993  14.428
74042W        W47110  14.283  39.512   4.651
74043W        W47111  11.270  28.930   3.211
74044W        W47112  24.293  21.146   2.735
74045W        W47113  31.870  13.062   0.218
74046W        W47114   6.400  27.562  10.749
74047W        W47115  31.542  12.253   2.455
74048W        W47116   1.858  36.427  11.991
74049W        W47117  41.394  23.239  11.472
74050W        W47118  22.786  18.183  10.121
74051W        W47119  10.687  18.500   4.189
74052W        W47120  24.584  10.384  12.466
74053W        W47121   1.187  16.608  14.444
74054W        W47122   9.605   9.228  14.715
74055W        W47123  40.027  13.221  13.457
74056W        W47124   4.321   0.250   4.643
74057W        W47125   9.672  41.622   5.648
74058W        W47126  28.887  27.387   0.894
74059W        W47127  43.154  11.857  10.607
74060W        W47128  37.502  36.013  12.349
74061W        W47129  20.723   7.328   2.589
74062W        W47130  11.173  19.787  10.532
74063W        W47131  15.630  29.845   3.660
74064W        W47132  41.366  18.238   4.683
74065W        W47133  33.386   8.194   0.339
74066W        W47134  27.436  14.559  11.630
74067W        W47135  20.389  11.370   1.075
74068W        W47136  15.478  37.544  12.545
74069W        W47137  30.232  40.452   0.360
74070W        W47138  40.362   8.992   1.408
74071W        W47139   7.134   4.835   2.311
74072W        W47140  22.464   5.797  12.472
74073W        W47141  29.320   1.478  11.531
74074W        W47142   4.430  12.298   0.512
74075W        W47143  22.099  30.679  11.917
74076W        W47144  41.745  24.481  14.805
74077W        W47145  30.030   4.397  11.171
74078W        W47146   2.822  32.466   2.647
74079W        W47147  19.154  20.046  14.942
74080W        W47148  20.715  19.641   0.398
74081W        W47149  25.186  30.978  11.166
74082W        W47150  41.017   3.278   0.159
74083W        W47151  18.714  15.273   0.513
74084W        W47152  20.133  35.320   4.720
74085W        W47153  24.447  40.565   0.271
74086W        W47154  44.686  25.462   4.256
74087W        W47155  36.781  10.325  13.940
74088W        W47156  20.643  38.406  12.960
74089W        W47157  32.226  15.072  14.071
74090W        W47158   5.783   2.327  11.516
74091W        W47159  43.187  16.570  12.602
74092W        W47160  43.351  40.305   0.846
74093W        W47161   9.753   2.866  10.384
74094W        W47162  22.468  39.340  14.809
74095W        W47163  28.858  29.533  14.980
74096W        W47164  44.442  40.035   3.625
74097W        W47165  31.652  38.447   3.730
74098W        W47166  17.325  16.577   3.343
74099W        W47167   4.623   0.292   1.308
74100W        W47168  22.076  20.169   4.398
74101W        W47169  28.910  24.974   2.466
74102W        W47170  26.257  39.912   1.389
74103W        W47171   9.847  11.636   2.863
74104W        W47172   1.920   6.935  13.915
74105W        W47173  42.020  28.988   0.815
74106W        W47174   4.968  42.247  13.521
74107W        W47175  26.520  15.642  13.278
74108W        W47176  20.288   3.014   2.495
74109W        W47177  44.526  29.423   2.239
74110W        W47178  26.667  14.534  11.535
74111W        W47179  37.254  33.603  11.540
74112W        W47180  23.185  34.854   0.456
74113W        W47181  23.401  21.023  11.709
74114W        W47182  25.200  28.633   1.247
74115W        W47183  43.372   6.866  10.706
74116W        W47184  28.196  22.098  12.361
74117W        W47185  23.417  24.119  13.612
74118W        W47186  37.539  30.510   3.600
74119W        W47187  42.453   1.279   3.011
74120W        W47188  37.104  37.708   2.808
74121W        W47189  23.495  14.706   3.721
74122W        W47190  38.256  23.723   0.799
74123W        W47191  34.314  26.142   3.700
74124W        W47192   8.576  17.255  14.793
74125W        W47193  44.416  29.116   4.752
74126W        W47194   1.752   0.941   0.721
74127W        W47195   3.527  41.327  12.902
74128W        W47196  12.853  20.102   4.777
74129W        W47197  38.001  28.235  14.441
74130W        W47198  14.831  44.224  11.872
74131W        W47199  32.388  41.467   2.162
74132W        W47200  21.027  20.654   3.869
74133W        W47201  26.987  33.388   1.259
74134W        W47202  36.923  32.564   4.746
74135W        W47203   2.891  24.578   1.632
74136W        W47204  10.471   2.985   1.700
74137W        W47205  14.036  23.580  11.188
74138W        W47206  29.486  35.650  11.755
74139W        W47207  26.870  27.085   2.837
74140W        W47208  38.287  44.886  10.694
74141W        W47209  34.042  24.555  10.950
74142W        W47210  38.203  26.609  10.778
74143W        W47211  38.877   7.430  14.868
74144W        W47212  13.219  31.433   2.980
74145W        W47213   9.952  34.079  12.125
74146W        W47214  44.447   9.208  13.316
74147W        W47215  27.733  29.626   4.131
74148W        W47216   5.971  19.111   0.179
74149W        W47217  40.280  38.156   1.187
74150W        W47218  38.413  41.987  14.838
74151W        W47219  36.412  43.534  12.952
74152W        W47220  23.254  17.065  14.329
74153W        W47221  22.155  34.992  13.311
74154W        W47222  35.934  29.452   0.397
74155W        W47223  20.791   0.268  14.619
74156W        W47224  20.180  22.712   3.687
74157W        W47225  13.675   5.282   4.398
74158W        W47226  32.362   1.165  14.802
74159W        W47227  30.435  36.477  11.471
74160W        W47228   9.735  19.261   2.840
74161W        W47229   1.261  29.500  12.061
74162W        W47230  42.060  21.213   3.778
74163W        W47231  37.543  43.225   1.224
74164W        W47232   3.949  42.365   1.941
74165W        W47233  31.828  24.683  12.044
74166W        W47234  33.017  37.308  12.195
74167W        W47235  40.491  10.063   2.620
74168W        W47236   1.994  13.766   4.269
74169W        W47237  11.687  43.402   2.299
74170W        W47238  26.540  36.674  12.059
74171W        W47239  11.215  17.309  14.787
74172W        W47240  10.278   9.494  10.289
74173W        W47241  29.975  12.420   3.759
74174W        W47242  27.596  25.934  14.893
74175W        W47243  31.958  40.769   2.751
74176W        W47244   7.508   3.011  12.504
74177W        W47245  34.936  31.405  12.604
74178W        W47246  17.322  29.057   1.390
74179W        W47247  32.126  31.605   0.540
74180W        W47248  20.965  30.217   2.868
74181W        W47249  42.340  21.248  12.387
74182W        W47250  38.879  15.258   2.861
74183W        W47251   6.147  41.337   0.512
74184W        W47252  35.486  26.522  11.443
74185W        W47253  23.034  13.686  11.611
74186W        W47254  44.928  18.154  13.958
74187W        W47255   4.389  32.011  13.538
74188W        W47256  37.510  31.433   3.249
74189W        W47257  27.730  39.959   4.274
74190W        W47258  39.446  44.576  10.680
74191W        W47259  39.451   7.931   2.088
74192W        W47260  10.911   5.408   4.736
74193W        W47261  31.105  17.035  12.051
74194W        W47262  30.749  20.506   4.181
74195W        W47263  44.274  32.595  13.919
74196W        W47264   8.137  43.836  14.569
74197W        W47265  30.513  13.925  12.982
74198W        W47266  19.926   4.354  13.018
74199W        W47267   2.070  37.883  12.390
74200W        W47268   8.642  21.516   0.860
74201W        W47269  42.952   9.125  12.497
74202W        W47270  16.123   8.634   4.024
74203W        W47271  21.570   3.201   3.316
74204W        W47272  13.407  23.535   1.937
74205W        W47273  10.732  27.641   1.006
74206W        W47274  19.455  33.226  12.198
74207W        W47275   2.724  40.461   0.838
74208W        W47276   4.612  23.689  11.739
74209W        W47277  42.781  11.736  12.617
74210W        W47278   7.975   5.797   2.295
74211W        W47279  39.308  17.144  13.867
74212W        W47280   0.377   6.326  11.434
74213W        W47281  18.832  19.322   3.612
74214W        W47282  17.994   9.667  12.504
74215W        W47283  13.792  16.868  12.952
74216W        W47284   1.317  17.517   2.572
74217W        W47285  13.488  36.878  14.885
74218W        W47286  19.000  25.733  11.218
74219W        W47287  27.216  13.134   2.097
74220W        W47288  15.161  17.136  13.945
74221W        W47289  24.116  22.075  12.593
74222W        W47290  15.495  27.661  11.518
74223W        W47291  16.793  35.023   1.545
74224W        W47292  40.396   0.351  12.036
74225W        W47293  29.736   7.057   0.334
74226W        W47294  14.911  15.144   0.857
74227W        W47295  33.283  29.876   1.785
74228W        W47296  37.927   8.939  14.917
74229W        W47297  19.852   8.232  11.235
74230W        W47298  21.864  33.958  12.541
74231W        W47299  29.061  10.627  14.180
74232W        W47300   3.280  38.883   4.116
74233W        W47301  15.579  29.679  10.667
74234W        W47302  38.089  14.224   0.725
74235W        W47303  37.667  42.814  13.883
74236W        W47304   4.366  17.556   2.446
74237W        W47305   5.680  11.354  13.383
74238W        W47306  36.543  26.803   9.996
74239W        W47307  30.658  13.414  12.134
74240W        W47308   5.924   0.197  12.950
74241W        W47309  12.637  13.197   0.611
74242W        W47310  12.333  36.530  10.647
74243W        W47311   6.232  13.752   3.447
74244W        W47312  43.529  35.371   4.667
74245W        W47313  34.530   8.199   2.122
74246W        W47314  31.123   3.669  14.906
74247W        W47315  34.145  27.115  10.497
74248W        W47316  16.261  11.728   3.272
74249W        W47317   7.052   6.309  11.897
74250W        W47318  12.623  32.919   1.890
74251W        W47319   9.368  27.472   3.354
74252W        W47320   6.787   1.364  10.998
74253W        W47321   3.329   8.331   2.711
74254W        W47322  19.179  38.922   0.311
74255W        W47323   8.172  37.948   2.870
74256W        W47324   7.191  19.219  13.541
74257W        W47325  29.516  43.062  14.495
74258W        W47326  26.912  31.160  10.558
74259W        W47327  35.953  36.467  13.253
74260W        W47328  24.896  20.154  11.671
74261W        W47329  20.593   5.348   3.322
74262W        W47330  29.174   8.628  13.937
74263W        W47331  37.485   1.232   0.377
74264W        W47332  16.484   2.062   0.989
74265W        W47333   6.366  24.082  11.572
74266W        W47334  24.091   8.656   1.260
74267W        W47335  21.597  31.438  12.073
74268W        W47336  24.938  13.808  12.346
74269W        W47337  13.712  32.446   0.243
74270W        W47338  30.557   6.887  13.386
74271W        W47339  13.807   2.569  10.851
74272W        W47340   6.457  24.554   3.606
74273W        W47341  10.248   6.162  14.404
74274W        W47342   3.955  40.073  12.563
74275W        W47343   0.911  24.401   0.212
74276W        W47344  38.030  13.576   3.234
74277W        W47345  33.619  35.516  12.658
74278W        W47346   6.278  36.220  11.148
74279W        W47347  25.050   3.959  12.627
74280W        W47348   6.402  17.314  13.921
74281W        W47349  35.132  23.032   1.359
74282W        W47350   0.084  31.928   3.721
74283W        W47351   7.945  41.952  10.681
74284W        W47352  13.649  26.970  10.740
74285W        W47353  28.030  12.645  12.455
74286W        W47354   3.135  36.003  11.106
74287W        W47355  13.512  18.662  13.986
74288W        W47356  21.979  36.063  14.928
74289W        W47357  18.982  40.535   2.766
74290W        W47358  15.793  26.011  14.852
74291W        W47359   7.849   3.844  14.632
74292W        W47360  29.003  16.010  12.086
74293W        W47361   9.851  15.364  12.937
74294W        W47362  10.725  12.640   0.647
74295W        W47363  34.066  41.738   2.681
74296W        W47364  32.980   9.072  13.859
74297W        W47365  11.838  13.764   2.116
74298W        W47366   0.230  37.529  12.311
74299W        W47367  36.916   2.247  14.392
74300W        W47368  37.921   4.732   2.787
74301W        W47369  25.145  12.475   1.185
74302W        W47370  24.897  26.543   4.108
74303W        W47371  16.583   0.844  13.106
74304W        W47372  20.617  44.767  14.113
74305W        W47373  35.087  27.670   2.428
74306W        W47374  34.637   3.439   2.817
74307W        W47375  38.446  35.411  10.962
74308W        W47376  32.705  27.801  14.358
74309W        W47377   2.557  28.402  12.763
74310W        W47378   1.328  33.710   2.884
74311W        W47379  40.987   1.987   2.877
74312W        W47380  41.388  21.016  14.745
74313W        W47381   2.409  26.896   3.674
74314W        W47382  26.436  14.047   2.817
74315W        W47383  32.038  37.375  12.790
74316W        W47384  16.390  35.359  10.728
74317W        W47385  18.954  33.351   2.854
74318W        W47386  14.217  13.014  11.936
74319W        W47387  26.918  40.371  12.606
74320W        W47388  35.073  29.921   1.206
74321W        W47389  19.394  40.040   4.275
74322W        W47390   1.934  23.549   4.601
74323W        W47391   6.341  37.060  14.764
74324W        W47392  37.515  44.262  14.484
74325W        W47393  26.220   5.771  13.899
74326W        W47394  24.465  39.017   0.849
74327W        W47395  22.617  10.734  12.492
74328W        W47396  42.038  30.084  13.841
74329W        W47397  34.084  26.063   1.229
74330W        W47398  35.130   4.389   3.050
74331W        W47399  28.574  41.894   4.418
74332W        W47400  33.254   4.994  11.750
74333W        W47401  39.456  36.112  10.900
74334W        W47402  16.970  31.585  13.745
74335W        W47403  40.895  19.670  12.076
74336W        W47404  25.128  34.037   2.853
74337W        W47405  34.114   5.867  10.547
74338W        W47406  29.886   3.409   1.252
74339W        W47407  40.850  30.507  12.141
74340W        W47408   1.569  39.961  11.638
74341W        W47409  28.738  14.733   3.906
74342W        W47410  17.347   8.648   2.189
74343W        W47411  17.454  42.534   0.683
74344W        W47412  33.062  41.394  12.881
74345W        W47413  18.623  38.019   3.644
74346W        W47414  42.533  19.730  12.696
74347W        W47415  37.529  38.533  13.519
74348W        W47416  26.021  37.352   4.418
74349W        W47417  12.362   1.144  13.452
74350W        W47418  14.730  37.356   2.219
74351W        W47419  34.135  40.586   3.216
74352W        W47420  42.626  40.905  12.939
74353W        W47421  43.721  12.144   1.916
74354W        W47422  28.411  38.566  11.144
74355W        W47423   3.367  23.954  13.093
74356W        W47424  44.165   2.349   1.285
74357W        W47425   2.906  14.038  12.456
74358W        W47426  12.794  37.549  11.149
74359W        W47427  30.229  40.939  10.912
74360W        W47428  37.594  24.686  14.980
74361W        W47429  42.496  33.031   2.740
74362W        W47430  43.970  23.559  13.390
74363W        W47431  34.075  12.762   3.580
74364W        W47432  36.596  34.980  10.856
74365W        W47433  14.607  25.949   3.672
74366W        W47434   5.184  10.671  13.012
74367W        W47435  12.795  19.629   4.563
74368W        W47436   2.782   5.380  11.511
74369W        W47437  24.761  38.058   0.787
74370W        W47438  22.428  31.434  11.127
74371W        W47439  22.569  44.479  13.201
74372W        W47440  23.753  34.319   0.850
74373W        W47441  35.393  36.549   2.275
74374W        W47442  39.887  12.900  12.943
74375W        W47443   7.490  23.700   4.807
74376W        W47444  18.743  19.642  12.882
74377W        W47445  39.584  44.990  10.288
74378W        W47446   4.412  24.947   3.692
74379W        W47447   3.471  34.482  12.031
74380W        W47448   9.506  15.753  13.918
74381W        W47449  13.203  30.233  12.198
74382W        W47450   0.897  22.261   1.357
74383W        W47451  35.492  43.823  14.082
74384W        W47452  35.466  10.836  12.616
74385W        W47453  15.193  40.049   3.712
74386W        W47454  14.269  21.074  12.196
74387W        W47455   9.225  41.970  14.885
74388W        W47456  29.637   2.187   1.672
74389W        W47457  39.763  28.879   0.695
74390W        W47458   4.102  14.375  11.980
74391W        W47459  14.200  17.145   2.348
74392W        W47460  13.624   4.923   4.779
74393W        W47461  31.805   0.944   3.648
74394W        W47462  41.856  23.102  12.428
74395W        W47463  27.659  42.972  14.804
74396W        W47464  30.890  18.634  10.713
74397W        W47465  16.161  15.316  11.278
74398W        W47466  13.597   0.984  11.590
74399W        W47467   2.455  40.204  13.819
74400W        W47468  26.745  23.054   4.043
74401W        W47469  14.245  22.564  14.552
74402W        W47470  10.575  44.340   0.996
74403W        W47471  28.947  17.799  12.977
74404W        W47472  34.393   3.760   4.076
74405W        W47473  32.040  28.361   1.425
74406W        W47474  22.591  38.107  12.973
74407W        W47475  25.047  15.538  12.011
74408W        W47476  44.898  41.761  12.099
74409W        W47477  22.248  23.484   2.963
74410W        W47478  36.800  34.324  14.477
74411W        W47479   1.588  34.158   2.786
74412W        W47480  33.906  17.252  14.890
74413W        W47481   8.725   6.718   2.679
74414W        W47482  26.643  19.474  12.590
74415W        W47483  13.516  27.389  11.500
74416W        W47484   5.390  32.250   1.692
74417W        W47485  44.270  42.135  12.152
74418W        W47486  25.327   3.288  10.593
74419W        W47487   3.355   1.269  14.984
74420W        W47488  32.075  13.071   2.653
74421W        W47489  23.147   2.871   2.156
74422W        W47490  44.080  33.465  13.865
74423W        W47491  41.564  30.677  12.188
74424W        W47492   2.449  43.341   4.051
74425W        W47493  33.097  38.070   1.869
74426W        W47494  14.626  35.062  10.553
74427W        W47495   3.331  25.051   0.057
74428W        W47496  36.054  11.252  10.634
74429W        W47497  28.450  43.849   1.797
74430W        W47498  27.353  43.326  14.587
74431W        W47499   8.934  17.728   2.852
74432W        W47500  30.491  12.286  10.879
74433W        W47501  30.407  15.804  12.045
74434W        W47502  28.696  24.727  10.663
74435W        W47503  31.252  34.608  10.638
74436W        W47504  18.263  37.053   0.359
74437W        W47505  32.290  39.242  10.465
74438W        W47506  21.215  33.018  10.845
74439W        W47507  11.455  16.228  14.941
74440W        W47508   4.707  35.965   1.211
74441W        W47509  22.327  44.527  11.652
74442W        W47510  21.996  37.276  10.240
74443W        W47511  41.330  16.116  11.993
74444W        W47512   6.058  32.536   3.328
74445W        W47513   9.621  21.701  10.454
74446W        W47514  42.257  18.215   1.362
74447W        W47515  17.150  18.043  12.470
74448W        W47516  28.837  31.548  13.787
74449W        W47517  25.137   6.735   4.973
74450W        W47518  33.422   0.404  12.340
74451W        W47519  27.919  38.053   2.264
74452W        W47520  35.168  39.092   5.043
74453W        W47521   3.697  41.542   3.182
74454W        W47522  43.437  40.609  12.898
74455W        W47523  23.447  24.716   2.876
74456W        W47524   1.904  31.093   0.727
74457W        W47525   6.247  39.023   2.576
74458W        W47526   7.372  15.047  10.896
74459W        W47527  24.655  27.507  10.707
74460W        W47528  26.157  33.913   3.816
74461W        W47529  41.983  15.279   4.527
74462W        W47530  22.267   7.907   2.222
74463W        W47531   1.828  10.423   4.703
74464W        W47532  41.977  31.858   2.318
74465W        W47533   6.154  29.220  10.305
74466W        W47534  36.329   5.547   1.680
74467W        W47535  31.865  35.550  11.627
74468W        W47536   0.847   0.496  11.148
74469W        W47537   6.425   1.359   4.419
74470W        W47538  34.113   9.292  12.371
74471W        W47539  16.084  15.164  14.491
74472W        W47540   0.963  15.679   3.843
74473W        W47541  40.730  30.865  14.513
74474W        W47542  30.436   3.375   4.965
74475W        W47543  20.213  16.144  11.676
74476W        W47544  42.882   7.880   3.708
74477W        W47545  22.149  39.948   3.767
74478W        W47546  38.928  43.891  11.933
74479W        W47547  14.596  13.353   4.645
74480W        W47548  11.316   0.827   3.282
74481W        W47549  43.531  22.622  12.514
74482W        W47550   1.765  13.764   1.550
74483W        W47551  23.628  11.666   1.251
74484W        W47552  36.017  31.596  10.526
74485W        W47553  40.671   8.665  10.249
74486W        W47554  28.186  27.893   4.037
74487W        W47555  28.139  15.491   0.527
74488W        W47556   4.124  39.597   0.804
74489W        W47557  15.084  37.831   2.942
74490W        W47558  31.754  29.905  12.255
74491W        W47559  41.985  22.264  14.983
74492W        W47560  43.037  30.061  11.658
74493W        W47561  35.507  19.014  12.423
74494W        W47562  36.497  40.015  12.380
74495W        W47563  39.557  12.943   3.664
74496W        W47564   9.903  21.668  11.157
74497W        W47565   6.422   5.624   2.091
74498W        W47566  39.891  37.498   0.881
74499W        W47567   1.488  32.130  13.977
74500W        W47568  22.679  34.076  13.347
74501W        W47569  41.354  12.351  13.395
74502W        W47570  41.938  20.037   4.845
74503W        W47571  12.927  11.153  11.053
74504W        W47572  29.559   7.274   3.276
74505W        W47573   4.656  28.084   4.566
74506W        W47574   0.594  18.659  12.469
74507W        W47575  25.357  33.863   3.296
74508W        W47576  33.440  22.839   2.399
74509W        W47577  15.702  22.183   2.088
74510W        W47578  16.286   0.113   0.231
74511W        W47579   8.833  21.538  11.133
74512W        W47580  18.933  42.835  14.087
74513W        W47581  17.603  30.076   0.374
74514W        W47582  16.351  23.720  12.412
74515W        W47583  20.218  30.965   3.641
74516W        W47584  21.228  10.295   4.137
74517W        W47585  18.705  28.262   2.512
74518W        W47586   0.701  35.776   0.807
74519W        W47587  19.509  38.097   1.826
74520W        W47588  36.346  27.494  11.239
74521W        W47589  24.729  10.890  12.504
74522W        W47590  36.597  15.612   4.348
74523W        W47591  43.887   5.619   4.218
74524W        W47592  33.040  34.374  14.488
74525W        W47593  13.567  14.652  11.107
74526W        W47594   1.210  41.898   4.462
74527W        W47595  44.256   5.956   4.016
74528W        W47596   7.414  27.471   2.621
74529W        W47597  34.822  26.723   1.397
74530W        W47598  14.703  31.861   0.273
74531W        W47599  19.131  40.698  12.474
74532W        W47600  35.284  13.074   4.403
74533W        W47601  39.569  18.582  12.365
74534W        W47602  20.629  12.588  14.021
74535W        W47603  12.502  38.462  12.400
74536W        W47604  27.776  38.135  13.800
74537W        W47605   0.505  30.509  14.192
74538W        W47606   3.708   9.760   2.109
74539W        W47607  35.545  14.016  12.490
74540W        W47608  32.296  34.389   4.603
74541W        W47609   5.799  18.526  13.094
74542W        W47610  38.041  19.752   2.634
74543W        W47611   4.835  15.731   4.060
74544W        W47612  14.118  11.930  13.078
74545W        W47613  34.836  32.792   0.183
74546W        W47614  38.895  36.441  10.694
74547W        W47615  10.619  39.449  11.173
74548W        W47616   6.982   8.728  12.336
74549W        W47617  24.662  28.997   2.532
74550W        W47618  13.239  13.557   2.406
74551W        W47619  39.009  16.317  14.760
74552W        W47620   1.458  35.372   3.921
74553W        W47621  36.367  19.111   4.920
74554W        W47622  13.956  33.187  11.655
74555W        W47623   9.104  30.442   2.765
74556W        W47624  36.452  15.982  12.529
74557W        W47625   2.808   1.717  14.500
74558W        W47626  26.192  35.121  13.361
74559W        W47627  13.042  44.251  11.099
74560W        W47628   8.637   9.350   4.115
74561W        W47629  34.942  24.019  12.461
74562W        W47630  18.829  12.072  14.761
74563W        W47631  31.210  24.944  11.892
74564W        W47632  22.497  32.736   2.738
74565W        W47633  23.002  24.025   0.978
74566W        W47634  18.866  14.273  11.207
74567W        W47635  15.605   2.832  12.328
74568W        W47636   5.327  16.495   3.298
74569W        W47637  23.943  41.800   2.581
74570W        W47638  17.109  25.757   0.509
74571W        W47639  11.923  33.198   5.042
74572W        W47640  22.646  37.907  12.500
74573W        W47641  27.598  40.430  12.481
74574W        W47642  15.547  13.214   4.662
74575W        W47643  21.731  36.356   2.647
74576W        W47644   7.444  23.263  11.652
74577W        W47645  39.105  43.690   4.757
74578W        W47646  30.153   0.913  11.922
74579W        W47647  16.106  44.762  11.495
74580W        W47648   5.905  33.486  11.138
74581W        W47649  37.497   3.007  13.385
74582W        W47650  18.203  23.578   2.881
74583W        W47651  27.548  42.628  12.917
74584W        W47652   5.991  18.492   0.959
74585W        W47653   7.844  17.215   5.014
74586W        W47654  13.555  26.798  12.463
74587W        W47655   3.140   7.194   2.888
74588W        W47656   5.902  24.018   2.883
74589W        W47657  39.453  14.677   2.278
74590W        W47658   8.638   0.843   0.469
74591W        W47659  11.023  40.296  13.982
74592W        W47660  29.962   8.913   2.748
74593W        W47661   9.857  12.629   1.215
74594W        W47662  32.822  24.013  13.132
74595W        W47663  27.985  29.701  11.605
74596W        W47664   8.436  24.927  14.661
74597W        W47665   7.229   8.837  13.342
74598W        W47666  18.606   5.382   4.506
74599W        W47667  20.261   8.746  10.213
74600W        W47668  32.967  29.311   1.178
74601W        W47669  29.634  43.991   4.108
74602W        W47670   1.046   0.970   1.952
74603W        W47671  10.171  42.759  10.645
74604W        W47672   5.436   7.022   0.396
74605W        W47673  15.418  14.931  13.353
74606W        W47674   7.788  43.983  11.108
74607W        W47675  10.413   2.797   2.192
74608W        W47676  26.761  20.975   1.887
74609W        W47677  15.112  41.779  10.426
74610W        W47678  10.203  13.899  14.121
74611W        W47679  33.071  27.585  12.577
74612W        W47680  40.326  43.286   1.139
74613W        W47681  35.028   0.507  11.063
74614W        W47682   9.262  13.169  10.297
74615W        W47683   6.211  25.540  14.956
74616W        W47684  43.321  31.052   3.285
74617W        W47685  10.617  28.858   4.385
74618W        W47686  14.800  27.732   3.435
74619W        W47687  23.178  35.240   2.318
74620W        W47688  39.841  20.289  13.030
74621W        W47689  21.095  18.483   0.885
74622W        W47690   4.931   5.559  12.012
74623W        W47691  28.360  42.592  13.949
74624W        W47692  28.142  16.077   4.701
74625W        W47693  35.199  12.419   4.162
74626W        W47694  24.154  12.918  11.181
74627W        W47695  10.603  41.742   1.747
74628W        W47696  23.027  14.690   1.920
74629W        W47697   8.560  12.192  11.448
74630W        W47698   3.474  26.278  11.208
74631W        W47699  24.929  30.049  11.120
74632W        W47700  43.300  44.817   4.619
74633W        W47701   5.693  41.463  12.429
74634W        W47702  17.592  37.004   2.233
74635W        W47703  21.711   0.044  12.252
74636W        W47704  37.900  22.694  12.213
74637W        W47705   8.222   3.678  10.973
74638W        W47706  42.006   7.682   2.672
74639W        W47707  19.102  21.631   3.791
74640W        W47708   3.513  25.945  14.890
74641W        W47709  42.704   3.839   2.444
74642W        W47710   3.435  28.548  12.893
74643W        W47711  19.278  42.635  12.924
74644W        W47712  26.177  39.023   1.398
74645W        W47713   4.857  16.576  13.789
74646W        W47714  30.022  27.613   0.188
74647W        W47715  19.524  36.702   4.208
74648W        W47716  20.715  16.869  11.673
74649W        W47717  17.480  40.147   0.857
74650W        W47718  14.289  37.426   4.093
74651W        W47719   6.189   3.403   2.300
74652W        W47720   5.644  36.601  13.136
74653W        W47721  24.015  29.444   1.546
74654W        W47722  22.718   2.963  12.140
74655W        W47723  25.806   9.750  12.600
74656W        W47724  20.107  35.060   0.948
74657W        W47725   4.158  39.356  12.564
74658W        W47726  19.463  39.930  11.019
74659W        W47727   8.163   4.683   2.398
74660W        W47728  30.138  12.513   0.280
74661W        W47729   5.777   3.732   0.207
74662W        W47730  19.696  14.811  14.199
74663W        W47731  13.270  42.728  12.011
74664W        W47732  34.422   3.306  13.876
74665W        W47733  35.976   6.712  10.642
74666W        W47734  24.171  39.925  10.445
74667W        W47735  41.073  18.829  12.591
74668W        W47736  29.053   6.478   0.367
74669W        W47737  37.120  18.342   3.209
74670W        W47738  41.282  42.013   2.379
74671W        W47739  42.192  29.098   1.273
74672W        W47740   4.275   0.040  10.685
74673W        W47741  28.117   5.844   3.300
74674W        W47742  35.922   1.179  14.386
74675W        W47743   8.392  24.440   2.226
74676W        W47744  11.163   4.506   1.870
74677W        W47745  19.107   2.748   2.171
74678W        W47746  39.013  28.776   3.382
74679W        W47747  35.488  20.603  10.607
74680W        W47748  44.030  19.491  11.992
74681W        W47749  32.430  13.691   4.348
74682W        W47750  19.430  32.086  10.200
74683W        W47751  15.108  22.716  11.730
74684W        W47752   9.428  24.098  12.091
74685W        W47753  31.595  38.976   3.660
74686W        W47754   4.262  42.320  14.798
74687W        W47755  27.941  34.899   9.991
74688W        W47756   1.165  30.506  14.019
74689W        W47757   4.417  19.770   0.339
74690W        W47758  24.666  34.361  10.730
74691W        W47759  31.637  35.496  14.779
74692W        W47760  36.552  38.512   4.829
74693W        W47761  24.895  20.590  13.371
74694W        W47762  20.875   5.857  12.432
74695W        W47763  21.210   4.714  10.685
74696W        W47764   5.830  37.267   1.690
74697W        W47765   9.436  10.740   1.423
74698W        W47766  20.509   9.677   0.798
74699W        W47767  18.567  41.162   4.097
74700W        W47768  34.927  40.423   2.595
74701W        W47769  32.334  31.479   3.731
74702W        W47770  32.094  28.521  10.617
74703W        W47771   0.909   5.857   3.450
74704W        W47772  31.434  32.110  14.963
74705W        W47773   5.473   3.894  14.794
74706W        W47774  40.387  14.494   4.605
74707W        W47775  13.286  31.089  14.890
74708W        W47776  32.104  11.655   1.954
74709W        W47777  14.801  13.253   3.133
74710W        W47778  14.792  40.534   0.215
74711W        W47779  27.499   0.573  12.795
74712W        W47780  35.132  11.635   1.580
74713W        W47781  16.702   0.440  12.580
74714W        W47782  21.147  25.134   3.560
74715W        W47783  26.716  32.438  12.409
74716W        W47784  43.881  23.494   1.257
74717W        W47785   2.444  41.406   9.928
74718W        W47786  27.646  29.169   3.889
74719W        W47787  35.672   0.289  10.378
74720W        W47788   1.813   6.974  13.020
74721W        W47789  22.585  37.372  14.782
74722W        W47790  31.898  43.662  14.009
74723W        W47791  12.222  30.105   2.426
74724W        W47792  39.846   5.319   1.704
74725W        W47793  37.020  18.186  11.454
74726W        W47794  22.482  27.217   2.750
74727W        W47795  41.728  29.848   1.741
74728W        W47796  22.202  13.251   1.734
74729W        W47797  36.432  27.586   0.703
74730W        W47798   8.222   9.644  11.112
74731W        W47799  34.036  34.918  12.402
74732W        W47800  13.446  22.011  12.425
74733W        W47801   7.494  13.193  12.867
74734W        W47802  33.428   9.158  12.062
74735W        W47803  30.901  20.442   1.900
74736W        W47804  38.308  39.762   1.743
74737W        W47805  40.033  10.564   1.802
74738W        W47806  16.766  30.538   4.952
74739W        W47807  21.104  39.371   0.891
74740W        W47808   1.954  37.521  10.766
74741W        W47809   9.277   6.914   2.445
74742W        W47810   5.203  27.437  13.960
74743W        W47811  11.765  42.885  12.007
74744W        W47812   0.002  34.125  12.443
74745W        W47813  16.883  36.376   0.420
74746W        W47814  36.346  28.549   1.140
74747W        W47815  12.818  13.783  11.411
74748W        W47816  17.079  11.302   2.362
74749W        W47817  27.495   5.731   1.796
74750W        W47818  10.204  26.584  12.590
74751W        W47819  10.285  34.138  13.460
74752W        W47820  28.866  17.093  12.437
74753W        W47821  17.835  34.439   4.774
74754W        W47822  42.864  37.509  12.816
74755W        W47823  18.787  39.481  11.848
74756W        W47824  12.176   1.810   1.482
74757W        W47825  22.579  10.394  14.417
74758W        W47826  36.341  41.484  12.954
74759W        W47827   8.697  20.586  11.129
74760W        W47828  39.257  22.177  13.470
74761W        W47829   3.223  24.222  10.720
74762W        W47830  19.992  10.777  13.517
74763W        W47831  30.128  25.124  11.424
74764W        W47832  41.087  26.208   1.887
74765W        W47833   3.224   7.872  12.482
74766W        W47834  21.247   1.730   0.291
74767W        W47835  21.271   8.876   2.232
74768W        W47836  11.093  40.981  14.338
74769W        W47837  11.324  38.544   3.820
74770W        W47838  39.898   7.900  12.394
74771W        W47839  15.125  13.107  11.048
74772W        W47840   0.230  32.400  11.175
74773W        W47841  26.188  39.457   0.708
74774W        W47842  28.637   5.657   1.819
74775W        W47843  41.868  27.127  13.378
74776W        W47844  17.178  29.696  12.131
74777W        W47845  17.780   9.881   0.468
74778W        W47846  13.172  39.535   2.691
74779W        W47847  21.184  16.777   1.582
74780W        W47848  34.439  29.035  12.473
74781W        W47849  34.918  37.547  14.718
74782W        W47850  39.963  25.986   0.436
74783W        W47851   2.378   9.878   3.916
74784W        W47852  10.868  28.102  11.232
74785W        W47853   7.412   9.387   1.406
74786W        W47854  20.986  34.420   3.783
74787W        W47855  29.425   4.826   3.637
74788W        W47856  30.884  25.206   1.238
74789W        W47857   1.345   9.965   0.885
74790W        W47858  39.987  11.767  11.120
74791W        W47859  28.011  14.547   1.734
74792W        W47860   6.849  33.961   3.845
74793W        W47861  41.447  21.483  11.998
74794W        W47862  29.799  41.903  11.283
74795W        W47863  25.041  22.593   1.380
74796W        W47864  13.779  35.491   2.709
74797W        W47865  24.352   4.781   4.887
74798W        W47866  13.307  39.340  14.482
74799W        W47867  32.277  29.241   1.178
74800W        W47868  11.764   8.169  12.042
74801W        W47869  43.424  11.074   0.251
74802W        W47870  23.541  27.517  14.321
74803W        W47871   2.509  16.721  14.753
74804W        W47872  30.614   1.987  11.065
74805W        W47873  11.738  24.110   3.746
74806W        W47874  32.979  14.757  11.681
74807W        W47875  36.548  28.611   4.606
74808W        W47876   9.332  33.232  12.582
74809W        W47877   7.817   6.428   5.100
74810W        W47878   2.486  12.370  11.304
74811W        W47879   8.836  41.785   2.532
74812W        W47880  35.079  42.376  13.009
74813W        W47881   0.068   7.262  14.804
74814W        W47882  30.046  23.767  13.574
74815W        W47883  39.346  33.652  12.405
74816W        W47884  22.056  20.896  12.100
74817W        W47885   9.138  26.834  12.080
74818W        W47886  22.932  23.983  13.475
74819W        W47887  27.183  32.014   4.758
74820W        W47888  10.289  36.045  12.343
74821W        W47889  41.420  33.957  12.678
74822W        W47890   5.848  18.096   4.623
74823W        W47891  34.012  19.250  14.463
74824W        W47892  20.813   6.062   2.898
74825W        W47893  37.384   7.551  13.716
74826W        W47894  27.845   9.432  14.446
74827W        W47895  27.128  31.572   2.227
74828W        W47896  43.080   0.524   0.204
74829W        W47897  29.845  44.428  14.798
74830W        W47898  29.942  11.618  14.995
74831W        W47899   5.442  15.384  12.162
74832W        W47900  26.957   5.397   0.351
74833W        W47901   3.489  17.568  12.030
74834W        W47902  14.182  10.083   4.510
74835W        W47903  27.891   7.610  11.568
74836W        W47904  22.420  34.525  13.293
74837W        W47905  22.104  21.634   4.558
74838W        W47906  21.719   1.945   2.707
74839W        W47907  36.955   0.544   3.239
74840W        W47908  29.154   9.536   5.000
74841W        W47909  17.240  20.667   2.365
74842W        W47910  24.461  37.553   2.898
74843W        W47911   4.784  12.334   4.687
74844W        W47912  20.857  28.114   4.260
74845W        W47913   8.120  30.813  12.551
74846W        W47914  24.255  16.418   9.692
74847W        W47915  35.314  38.098  12.577
74848W        W47916  23.137  36.061   4.267
74849W        W47917  19.009  14.091   2.268
74850W        W47918  13.681  17.343   1.911
74851W        W47919  21.029  44.072   2.420
74852W        W47920   7.175  30.988   4.731
74853W        W47921  28.919   1.791  14.366
74854W        W47922  27.753  38.580   4.157
74855W        W47923  31.875  21.779  12.969
74856W        W47924  15.403  27.700   1.058
74857W        W47925  18.821  12.815  10.395
74858W        W47926  34.556  26.220  13.473
74859W        W47927  32.868  32.261  10.714
74860W        W47928  32.478  44.333   3.781
74861W        W47929   2.227  13.392   0.801
74862W        W47930  30.270   5.302   2.638
74863W        W47931  38.416   5.163   3.897
74864W        W47932   4.254   7.322  11.990
74865W        W47933   9.511  19.534  10.845
74866W        W47934   1.443  12.975  13.999
74867W        W47935  15.302  29.216  13.790
74868W        W47936   9.258  36.183  10.430
74869W        W47937   6.272  36.377  13.042
74870W        W47938  21.988  35.809   3.185
74871W        W47939  16.019   4.884  14.328
74872W        W47940  14.668  13.855   0.218
74873W        W47941  19.274   2.259  12.840
74874W        W47942   0.935  36.577   0.350
74875W        W47943  13.663  44.857   4.140
74876W        W47944  10.736  15.234  14.382
74877W        W47945  25.069  13.246  12.959
74878W        W47946  13.129  27.659  11.772
74879W        W47947  33.811   5.748   1.989
74880W        W47948  24.871   0.542  11.164
74881W        W47949  29.849   6.317   3.730
74882W        W47950  15.633   9.422   1.875
74883W        W47951   1.283  43.890   4.638
74884W        W47952  24.623   2.916  14.409
74885W        W47953  14.361  32.184   4.610
74886W        W47954  16.340   2.959  11.131
74887W        W47955  20.216  17.011   3.619
74888W        W47956  28.045  38.291   0.720
74889W        W47957  18.697  40.406  11.751
74890W        W47958  36.446  25.554   4.322
74891W        W47959   3.205   2.802  10.975
74892W        W47960  40.204  14.938   1.372
74893W        W47961   8.750   5.670   3.633
74894W        W47962  19.049  27.074   1.450
74895W        W47963  33.901  42.457  14.884
74896W        W47964  43.531  26.966  10.679
74897W        W47965  40.827  36.811   0.244
74898W        W47966   0.777  27.667   3.768
74899W        W47967  27.808  29.257   2.811
74900W        W47968  39.586   9.250  14.496
74901W        W47969  30.381   3.369   1.362
74902W        W47970  20.051  16.836  14.448
74903W        W47971  22.141  32.448   4.877
74904W        W47972   4.287   4.981  10.642
74905W        W47973   8.412  21.578  11.975
74906W        W47974  36.802  18.631   2.806
74907W        W47975   7.435  21.612   4.506
74908W        W47976   4.161   5.554   2.457
74909W        W47977  35.429  28.444   4.066
74910W        W47978  44.264  42.897  11.684
74911W        W47979  19.273   9.394  13.223
74912W        W47980  37.949  20.087  12.520
74913W        W47981  42.420  31.607   4.500
74914W        W47982  31.093   3.901   1.276
74915W        W47983  18.132  43.801  13.428
74916W        W47984  28.846   4.292  10.434
74917W        W47985  14.714  24.691  11.606
74918W        W47986  34.174  14.729  14.016
74919W        W47987  29.505   2.775  11.494
74920W        W47988  39.872  42.933  10.741
74921W        W47989  12.731  39.591  12.549
74922W        W47990  40.427   6.248  14.381
74923W        W47991  20.198   2.881  14.637
74924W        W47992  26.762  15.099   2.628
74925W        W47993   2.803  33.995   2.305
74926W        W47994  13.874  41.024   0.885
74927W        W47995   2.016  33.012   2.021
74928W        W47996  20.589  15.131  14.359
74929W        W47997  14.120  26.033  10.966
74930W        W47998  30.432   8.974   2.908
74931W        W47999   7.562  40.238   2.759
74932W        W48000   2.406  27.371  13.413
74933W        W48001  30.103  41.860   3.391
74934W        W48002  35.025  26.610  10.731
74935W        W48003  19.018  32.477  12.388
74936W        W48004  26.716  39.450  11.003
74937W        W48005  17.982  17.815   3.701
74938W        W48006  34.254   3.412  12.465
74939W        W48007  34.812  24.617  14.428
74940W        W48008  23.142  17.674   3.472
74941W        W48009  39.443  25.100   3.181
74942W        W48010   4.786  16.384   2.298
74943W        W48011   0.994  43.081  12.141
74944W        W48012  12.212   5.816   1.265
74945W        W48013  29.196  17.727   3.189
74946W        W48014  22.601   3.183  14.826
74947W        W48015  11.166  26.200   4.576
74948W        W48016  13.609   5.146   2.409
74949W        W48017  13.149  31.139   2.382
74950W        W48018  26.975  39.968   3.671
74951W        W48019  15.096  21.506  11.172
74952W        W48020  34.948  27.326  13.568
74953W        W48021  11.509  25.458  10.708
74954W        W48022   9.139  43.523   1.973
74955W        W48023  19.420  37.974  12.356
74956W        W48024   9.894  13.876  13.038
74957W        W48025  11.601  38.141  13.882
74958W        W48026  37.576   7.696  14.926
74959W        W48027   9.934  11.907   2.415
74960W        W48028  12.739  26.455   4.813
74961W        W48029  32.393   6.627  11.103
74962W        W48030  14.247  21.186   3.892
74963W        W48031  25.779  30.998   0.234
74964W        W48032  38.531  28.504   0.294
74965W        W48033  32.358   4.649   3.138
74966W        W48034  17.251  36.372  14.211
74967W        W48035  30.465  12.245  13.449
74968W        W48036  12.907  18.201   3.745
74969W        W48037  16.100  42.985   1.393
74970W        W48038  37.579   7.860  11.975
74971W        W48039  26.561   6.344   3.336
74972W        W48040  29.132  38.580  14.835
74973W        W48041   1.957  10.748  11.852
74974W        W48042  43.730  43.864   4.660
74975W        W48043  12.807   4.243  14.996
74976W        W48044   7.677  21.045   2.613
74977W        W48045  18.742  41.145   0.104
74978W        W48046  22.545  36.965   0.886
74979W        W48047   1.868  13.193  12.990
74980W        W48048  24.872  11.772  13.340
74981W        W48049  32.599   8.570  14.787
74982W        W48050  21.224  41.547   2.408
74983W        W48051   0.744   4.845   0.330
74984W        W48052  21.129   9.665   5.013
74985W        W48053   6.121   2.933  14.426
74986W        W48054  39.930  37.838   2.416
74987W        W48055  14.644  25.933   1.428
74988W        W48056   1.937   7.503   0.995
74989W        W48057  28.476   1.024   2.305
74990W        W48058   6.874  36.431   0.953
74991W        W48059  44.552  32.893  12.624
74992W        W48060  27.629  37.757   4.926
74993W        W48061   7.688  35.896   4.497
74994W        W48062  17.590   2.057  14.739
74995W        W48063  39.955  14.019   0.220
74996W        W48064  33.835  15.574   9.918
74997W        W48065  18.587  35.885  14.180
74998W        W48066  19.162  13.097   0.527
74999W        W48067   2.910   0.748  14.354
75000W        W48068  16.983  35.180  11.719
75001W        W48069  17.664   7.239   3.953
75002W        W48070  22.445  22.491   3.204
75003W        W48071   6.373  26.192   3.227
75004W        W48072  42.062  31.876  12.101
75005W        W48073  22.130   8.180  11.851
75006W        W48074  15.684  26.725   1.796
75007W        W48075  36.031  35.907   1.752
75008W        W48076   6.510  38.695   2.873
75009W        W48077   1.449  11.585   4.957
75010W        W48078  20.817  27.617   1.397
75011W        W48079   4.695  17.339   3.583
75012W        W48080  33.043  28.761   0.752
75013W        W48081  33.371  34.937  14.359
75014W        W48082  17.368  25.177  12.927
75015W        W48083  15.673  42.012  12.973
75016W        W48084  41.002   3.793   3.875
75017W        W48085  15.053   0.476   0.887
75018W        W48086  11.504  32.479  13.853
75019W        W48087  25.074  33.931   3.733
75020W        W48088  40.040  20.319  12.120
75021W        W48089  41.566  16.392   4.665
75022W        W48090  37.553  36.527  10.558
75023W        W48091   7.784   4.730   0.839
75024W        W48092   2.920  26.579  12.530
75025W        W48093  30.357  23.631  12.776
75026W        W48094  44.679  31.515  11.004
75027W        W48095  25.666  24.737   2.686
75028W        W48096   7.951  30.031   3.457
75029W        W48097  36.995   5.970   0.639
75030W        W48098  18.146  11.729   0.032
75031W        W48099   9.909  24.127  10.622
75032W        W48100   6.822  12.870   3.126
75033W        W48101   1.239  20.799   3.526
75034W        W48102  22.558   1.660   1.236
75035W        W48103  42.732   9.783   4.724
75036W        W48104  40.991  11.260   3.167
75037W        W48105  12.408  41.114  13.014
75038W        W48106  32.588  32.407   4.633
75039W        W48107  23.483   4.287   2.115
75040W        W48108  10.670  30.060   1.763
75041W        W48109  17.168  40.220  14.488
75042W        W48110   1.138   2.255  14.883
75043W        W48111  22.714   7.482  14.404
75044W        W48112  20.081  20.470  14.853
75045W        W48113   5.751  24.226   3.335
75046W        W48114  38.279  42.970   2.327
75047W        W48115  17.984   3.683  13.956
75048W        W48116   5.294  10.493   3.750
75049W        W48117   3.296  30.106   3.200
75050W        W48118   8.944  38.534   4.155
75051W        W48119   9.252  40.462  12.042
75052W        W48120  10.177  12.745  14.878
75053W        W48121  39.768  43.330   2.416
75054W        W48122  23.255  39.286   2.054
75055W        W48123  36.170  38.427  12.372
75056W        W48124  36.511   2.268   2.795
75057W        W48125  30.570   0.194   4.208
75058W        W48126  42.723  16.578   4.814
75059W        W48127  20.488  11.223  14.855
75060W        W48128  26.012   8.699   1.452
75061W        W48129   3.002  14.164  11.585
75062W        W48130  27.015  43.197  12.483
75063W        W48131  17.746  33.865   2.293
75064W        W48132  17.698  17.042  14.457
75065W        W48133  13.996  39.409   4.240
75066W        W48134  37.812   7.649  12.437
75067W        W48135   6.427   5.243  12.869
75068W        W48136  14.491  32.109  13.021
75069W        W48137   2.335  32.040  10.520
75070W        W48138   5.909   0.045   4.186
75071W        W48139  34.761   2.916  13.985
75072W        W48140  44.093   8.533   9.925
75073W        W48141  33.082  39.464   1.336
75074W        W48142   4.895  23.001  12.449
75075W        W48143  21.322   1.272  12.435
75076W        W48144  32.543   0.915  11.251
75077W        W48145  28.065   2.151  10.227
75078W        W48146  12.845   0.321   1.665
75079W        W48147  13.871   2.068   2.678
75080W        W48148   8.899  44.907   0.721
75081W        W48149   6.902  41.325  13.243
75082W        W48150  21.797  24.667   2.343
75083W        W48151  32.326  29.644  13.044
75084W        W48152  19.319  40.094  13.509
75085W        W48153  38.285  28.107  12.037
75086W        W48154  29.566  15.848   2.674
75087W        W48155   8.871  30.030   1.847
75088W        W48156  35.536  26.140  10.755
75089W        W48157  42.112  37.598  11.179
75090W        W48158   0.858  27.689   0.936
75091W        W48159  34.314  29.927   2.234
75092W        W48160  11.631  12.128  13.882
75093W        W48161  19.013  11.185  14.727
75094W        W48162   6.387  26.249  12.058
75095W        W48163  12.769  17.627   3.713
75096W        W48164  29.943   2.331  12.043
75097W        W48165   8.323  26.508   5.037
75098W        W48166  30.008  22.669   3.668
75099W        W48167  18.696  41.292  14.091
75100W        W48168  24.618  15.129   3.438
75101W        W48169  22.694  18.748  14.816
75102W        W48170   5.441  22.581   1.803
75103W        W48171   2.635  16.585  10.790
75104W        W48172   1.533  25.645   1.285
75105W        W48173  43.866  15.662   0.506
75106W        W48174   8.257  15.777  12.126
75107W        W48175  32.133  11.516  10.351
75108W        W48176  15.771   3.330  14.981
75109W        W48177  15.625   4.135   2.709
75110W        W48178  32.775  30.876   2.090
75111W        W48179  38.941   8.840  14.883
75112W        W48180  25.641   9.816  13.886
75113W        W48181  21.810  16.714  12.280
75114W        W48182  13.958   2.084   4.279
75115W        W48183  22.070  33.614   0.804
75116W        W48184  17.689  30.987  12.861
75117W        W48185  33.070  32.095   2.779
75118W        W48186  30.113  25.653   1.792
75119W        W48187  20.287   2.286   3.876
75120W        W48188  24.166   0.751  13.483
75121W        W48189  13.238  18.783   9.745
75122W        W48190  27.154  26.667   2.680
75123W        W48191  21.236  40.470  11.087
75124W        W48192  44.066  36.788   4.870
75125W        W48193  29.112   0.027  14.503
75126W        W48194  39.090  17.816   2.509
75127W        W48195  12.322  33.344  12.448
75128W        W48196  24.754  17.879   4.052
75129W        W48197  22.228  21.126   3.275
75130W        W48198   1.244  29.288   4.082
75131W        W48199  36.343  27.122   0.908
75132W        W48200  44.748  38.361  12.622
75133W        W48201  15.961  15.617   3.098
75134W        W48202  30.931  19.604   2.908
75135W        W48203  24.645  41.243   1.265
75136W        W48204  22.967   4.810  11.597
75137W        W48205  12.073  22.088  13.380
75138W        W48206   4.174   9.079   2.766
75139W        W48207  35.445  44.391  12.401
75140W        W48208   8.104  19.819   4.602
75141W        W48209  19.248  27.238   1.888
75142W        W48210   8.763   7.213  11.205
75143W        W48211  13.275  43.292  14.450
75144W        W48212  20.408  35.069  10.663
75145W        W48213   4.864  17.811  11.422
75146W        W48214  33.214  31.840  10.721
75147W        W48215  23.624  44.010  14.038
75148W        W48216   9.663   7.356  11.800
75149W        W48217   6.121  38.393   1.625
75150W        W48218  12.605  34.457  12.092
75151W        W48219  24.663  27.496   3.169
75152W        W48220  39.311  40.321  10.953
75153W        W48221  41.056   7.850   1.770
75154W        W48222   8.791  29.684  12.105
75155W        W48223  32.856  27.870   0.781
75156W        W48224  35.696  22.691  10.693
75157W        W48225  32.965   4.536  11.508
75158W        W48226  20.979   2.140   1.368
75159W        W48227  26.544  40.975   4.541
75160W        W48228  41.963  24.018  10.663
75161W        W48229  20.705  41.717  12.470
75162W        W48230   1.180  37.468   3.145
75163W        W48231  28.530  19.200   4.798
75164W        W48232  42.241  41.760   3.200
75165W        W48233   5.106  10.050   2.434
75166W        W48234   1.262  35.347   4.997
75167W        W48235  29.322  28.519  13.881
75168W        W48236  29.127   2.176  12.472
75169W        W48237  36.325   0.422   4.628
75170W        W48238  10.842  38.939   2.308
75171W        W48239   8.109  33.237  12.159
75172W        W48240  24.689  43.686  13.429
75173W        W48241  25.073   5.375  14.758
75174W        W48242  22.746  25.242  12.817
75175W        W48243  27.690  25.506   1.897
75176W        W48244   3.951  26.984   4.564
75177W        W48245   6.642  19.519   4.154
75178W        W48246   7.185  19.751   4.337
75179W        W48247  35.618   4.875  13.410
75180W        W48248   2.210  11.390   3.703
75181W        W48249  10.547  20.127  11.391
75182W        W48250  28.718  25.132   2.936
75183W        W48251  33.600  23.021   0.515
75184W        W48252  23.494  20.283  13.222
75185W        W48253  16.207  22.541  11.759
75186W        W48254   0.761  35.116  13.054
75187W        W48255  16.409   4.320   1.348
75188W        W48256  41.594  34.120   4.845
75189W        W48257   9.770  23.994   3.924
75190W        W48258   5.362  22.353   1.335
75191W        W48259  17.223   0.358   0.386
75192W        W48260   7.881  38.463   2.460
75193W        W48261  18.550  23.758  10.627
75194W        W48262  16.774   6.484   1.431
75195W        W48263  32.144  38.716   2.829
75196W        W48264  31.538  39.053  13.228
75197W        W48265  10.717   9.319  13.864
75198W        W48266   4.232  12.687   4.886
75199W        W48267  14.669  27.223   0.754
75200W        W48268  44.747  25.806  14.279
75201W        W48269  24.975  13.297  13.935
75202W        W48270  10.429  31.316  11.970
75203W        W48271  23.718  11.134  12.032
75204W        W48272  13.031  15.793   2.653
75205W        W48273  21.938  18.110  13.871
75206W        W48274  19.578   5.937  10.274
75207W        W48275   6.019  22.489   9.895
75208W        W48276  38.224   3.069   4.819
75209W        W48277  32.868   8.893  12.519
75210W        W48278  10.906  43.797   4.510
75211W        W48279   0.433  27.478  13.585
75212W        W48280  39.792  38.508  13.397
75213W        W48281   6.213  19.022   2.789
75214W        W48282  39.463  25.980  11.021
75215W        W48283   5.975  16.008   3.653
75216W        W48284   8.802  20.083  11.168
75217W        W48285  15.806  29.889  13.882
75218W        W48286  26.190  30.030  14.365
75219W        W48287  21.078  23.592   4.136
75220W        W48288  35.936   1.421  12.920
75221W        W48289  43.868  14.086  14.118
75222W        W48290  14.155  39.673  10.499
75223W        W48291  27.873   4.468  11.645
75224W        W48292  14.646  39.977   9.955
75225W        W48293   8.197  42.786   4.595
75226W        W48294   9.004   2.296  13.101
75227W        W48295  43.906  23.488  12.868
75228W        W48296  17.733  38.140  11.944
75229W        W48297  32.685  44.847   1.369
75230W        W48298  23.187  35.771   2.414
75231W        W48299  32.707  15.075  12.213
75232W        W48300  39.885   0.390  11.993
75233W        W48301  33.426  22.124   0.535
75234W        W48302  31.352  30.077  13.368
75235W        W48303   9.695  21.323   2.635
75236W        W48304   6.667  18.084   2.946
75237W        W48305  24.501  37.919   3.245
75238W        W48306  41.004  20.225  13.737
75239W        W48307  28.942  25.534   4.612
75240W        W48308  18.350  30.462   1.363
75241W        W48309  24.600  38.861   4.769
75242W        W48310  42.924  10.204  13.352
75243W        W48311  29.201   3.627  13.417
75244W        W48312   5.330  23.817  14.516
75245W        W48313  25.981  39.029  12.302
75246W        W48314  37.312  15.668  13.001
75247W        W48315  17.198  24.985   4.070
75248W        W48316  27.597   0.781  12.040
75249W        W48317  29.151  36.927  11.078
75250W        W48318  36.954  37.468   0.033
75251W        W48319  35.377  32.588  14.250
75252W        W48320  11.669  22.466   4.517
75253W        W48321  20.626  37.926  13.897
75254W        W48322  21.804  12.189   2.337
75255W        W48323  35.054  22.694  12.843
75256W        W48324  21.705   1.881  12.665
75257W        W48325  39.439  44.318   0.935
75258W        W48326  29.081  41.009  12.588
75259W        W48327  23.081  33.323  11.734
75260W        W48328  10.087  23.101  14.234
75261W        W48329  20.245   3.914   3.337
75262W        W48330  22.821  24.962   1.452
75263W        W48331  16.240  19.343   0.047
75264W        W48332   1.462   2.495  11.596
75265W        W48333  40.336  10.963  14.963
75266W        W48334   9.386  35.152  13.924
75267W        W48335  23.717  22.422   2.657
75268W        W48336  20.584   1.885  10.178
75269W        W48337  35.872  40.359  12.497
75270W        W48338  23.758  40.614  11.063
75271W        W48339   6.362  33.405  13.872
75272W        W48340   4.201  24.459  12.470
75273W        W48341  19.328  15.039  11.174
75274W        W48342  12.245  19.268  14.971
75275W        W48343  21.759  12.657  10.944
75276W        W48344   7.825  18.824   0.809
75277W        W48345  41.703  19.826   3.616
75278W        W48346  39.004  34.862  10.662
75279W        W48347  31.117  42.865  14.720
75280W        W48348  41.880  22.302  13.015
75281W        W48349  16.003   9.096   0.953
75282W        W48350  12.271  31.334   3.802
75283W        W48351  32.667   3.941   4.496
75284W        W48352  12.563  37.607  14.436
75285W        W48353  29.068   9.573  11.651
75286W        W48354  19.439   0.719   0.751
75287W        W48355  20.564   3.324  13.412
75288W        W48356  30.285  34.427  11.624
75289W        W48357  31.050   9.210  10.794
75290W        W48358  14.823   9.499   4.091
75291W        W48359  40.004  12.249  10.862
75292W        W48360  32.086  16.821  12.519
75293W        W48361  28.159  20.847  11.190
75294W        W48362  24.890   2.197   4.144
75295W        W48363  16.370  34.679  12.869
75296W        W48364  15.522  30.332  11.058
75297W        W48365  29.772  37.318   4.085
75298W        W48366  32.499   3.336  11.629
75299W        W48367  12.234  20.089   1.797
75300W        W48368   7.609  15.558  12.746
75301W        W48369  25.565  29.596  14.127
75302W        W48370  36.453  20.118  14.123
75303W        W48371  23.312  12.345   1.391
75304W        W48372   0.567  19.128  13.091
75305W        W48373  16.128  27.201   3.158
75306W        W48374  16.247  37.911   4.539
75307W        W48375  18.359  28.025  11.202
75308W        W48376  37.807  27.870  11.953
75309W        W48377  17.782   6.518  11.096
75310W        W48378  26.105  17.543  12.907
75311W        W48379  25.471  17.967   0.060
75312W        W48380  17.719  44.058   0.279
75313W        W48381  36.469  19.670   4.993
75314W        W48382   9.745   4.508  12.499
75315W        W48383  21.758   4.842   1.249
75316W        W48384  29.585   8.924  14.803
75317W        W48385  13.260   9.737   0.277
75318W        W48386  11.337   2.349   3.103
75319W        W48387  42.485  33.632  11.041
75320W        W48388  24.665  20.724  12.872
75321W        W48389  27.040  19.263   2.269
75322W        W48390   6.960  32.369   1.444
75323W        W48391  31.539  14.661   4.289
75324W        W48392  12.446  14.511   2.413
75325W        W48393   7.615  29.364   3.851
75326W        W48394  41.296  18.153  11.044
75327W        W48395  26.443  41.030   3.676
75328W        W48396  24.231  18.126  13.411
75329W        W48397   5.867  40.307  12.874
75330W        W48398  13.659  19.509   2.130
75331W        W48399   0.983  26.535   3.115
75332W        W48400  24.961  20.895  14.908
75333W        W48401  34.376   0.897   1.008
75334W        W48402  34.565  10.894   0.371
75335W        W48403  42.033   4.962  12.731
75336W        W48404  29.827  23.116  11.947
75337W        W48405  15.280  17.118   4.041
75338W        W48406  39.482  18.333   4.074
75339W        W48407  24.971   7.220   3.153
75340W        W48408  16.683  12.603   0.159
75341W        W48409  11.871  27.472  13.522
75342W        W48410   1.346  36.481   1.104
75343W        W48411   3.872  41.890   3.650
75344W        W48412  11.863   9.810  12.039
75345W        W48413  33.476  44.081   0.272
75346W        W48414   7.487  43.344   2.449
75347W        W48415  25.502  12.844  12.590
75348W        W48416  10.226   8.987   3.312
75349W        W48417  34.869  35.220  12.320
75350W        W48418  33.880  26.589   0.374
75351W        W48419  11.097  42.267   4.046
75352W        W48420  18.038  38.798  12.403
75353W        W48421  29.687  10.126   3.313
75354W        W48422   0.940   1.739   3.725
75355W        W48423  26.485  30.873  14.788
75356W        W48424  14.613  32.348   1.984
75357W        W48425  25.629  14.640  14.292
75358W        W48426  39.921   6.973  14.657
75359W        W48427  23.485   0.887  11.541
75360W        W48428  34.413  12.436  12.636
75361W        W48429  16.898  36.852  11.520
75362W        W48430  30.340  27.368  12.471
75363W        W48431   9.191  35.049  10.646
75364W        W48432  29.957   4.879  10.528
75365W        W48433  17.651  30.487  13.895
75366W        W48434  20.736  25.154   5.054
75367W        W48435   4.325   8.199   4.146
75368W        W48436   0.722  23.613   3.241
75369W        W48437  29.202  11.783  13.840
75370W        W48438  24.186  14.152  12.744
75371W        W48439  27.208  13.032  10.795
75372W        W48440   1.173   3.732   2.334
75373W        W48441  29.320  20.567  11.969
75374W        W48442  23.068  41.009  14.478
75375W        W48443  11.470  12.692  11.105
75376W        W48444  26.926  14.206  13.462
75377W        W48445  17.797  12.646   2.459
75378W        W48446  16.697  25.527   0.253
75379W        W48447  29.446  14.715   1.894
75380W        W48448  19.731   1.985   0.374
75381W        W48449   0.353   4.877  13.529
75382W        W48450  14.221  39.715  14.080
75383W        W48451  37.671   1.497   1.791
75384W        W48452   0.306  35.100  13.347
75385W        W48453  13.507  18.821  11.548
75386W        W48454  40.942   6.834   0.639
75387W        W48455  24.208  12.128  10.733
75388W        W48456   0.469   7.161   3.834
75389W        W48457  37.981  21.011  13.868
75390W        W48458  38.054   6.169  14.508
75391W        W48459  25.130  43.956   1.485
75392W        W48460  24.369  18.888   9.890
75393W        W48461  33.160  26.485   5.002
75394W        W48462  35.011  40.338  10.675
75395W        W48463   9.914   5.194   1.281
75396W        W48464  37.984  31.343   0.275
75397W        W48465  26.169  17.234   0.378
75398W        W48466  26.825   4.306  11.561
75399W        W48467   8.325  37.714   4.240
75400W        W48468   8.325  32.513   4.519
75401W        W48469  14.081   3.669  12.519
75402W        W48470  35.291  36.070  11.486
75403W        W48471  19.465  35.360   3.565
75404W        W48472   9.519   7.176  12.959
75405W        W48473   5.549   3.878   2.646
75406W        W48474  38.926   1.310  11.973
75407W        W48475  30.889  29.446  13.848
75408W        W48476  25.557  42.553   2.724
75409W        W48477  10.174  28.578  11.651
75410W        W48478  32.840  13.050   1.498
75411W        W48479   7.267  16.117  10.537
75412W        W48480  15.065  41.332   2.159
75413W        W48481  21.966   4.881  12.509
75414W        W48482   4.432  26.613   0.271
75415W        W48483  44.774  28.972   3.402
75416W        W48484  44.893  10.247   1.942
75417W        W48485  16.311  29.912   2.411
75418W        W48486  14.893  17.312  13.488
75419W        W48487  20.803  17.793   3.113
75420W        W48488   4.252   4.449   4.047
75421W        W48489  26.258  26.845  13.940
75422W        W48490  15.618  20.850   0.869
75423W        W48491  21.255  13.011  14.815
75424W        W48492  16.271   5.881   2.783
75425W        W48493   1.940  14.228   3.858
75426W        W48494  36.257   2.187   4.251
75427W        W48495  13.371  13.358  11.344
75428W        W48496  44.937  39.977  12.558
75429W        W48497  40.013   2.034  13.506
75430W        W48498  25.262  13.272   2.707
75431W        W48499  42.375   0.622  14.269
75432W        W48500  10.066   6.655   1.370
75433W        W48501  29.177   9.189  10.982
75434W        W48502  20.160  30.401   3.582
75435W        W48503   7.613  25.976   1.189
75436W        W48504  11.223  32.400  12.002
75437W        W48505   7.468   8.901   1.747
75438W        W48506  15.137  20.726   3.313
75439W        W48507  23.329  13.456  10.985
75440W        W48508  22.603  19.264  13.099
75441W        W48509   2.329  21.870  10.823
75442W        W48510  32.059   4.435  14.600
75443W        W48511  26.111   4.267  13.768
75444W        W48512  11.665   0.362   0.334
75445W        W48513  10.592  27.945  14.027
75446W        W48514  17.512  32.290  12.459
75447W        W48515  33.176  29.631  11.182
75448W        W48516  42.718   1.274  14.935
75449W        W48517  15.424   8.325  14.813
75450W        W48518   9.757  40.679   0.235
75451W        W48519  18.685  11.731   2.620
75452W        W48520  12.285   1.211  14.535
75453W        W48521  16.613  19.074   3.765
75454W        W48522  14.556  30.114  10.395
75455W        W48523   2.786   2.547   3.787
75456W        W48524  23.285  32.037   1.383
75457W        W48525   3.630  33.618   3.743
75458W        W48526  24.633  29.990   3.666
75459W        W48527  21.661  36.101  11.688
75460W        W48528  39.528  16.197  14.853
75461W        W48529  15.756  44.820   1.482
75462W        W48530   7.415  37.301  12.930
75463W        W48531  13.322  16.648  13.015
75464W        W48532  30.545   4.421   4.356
75465W        W48533   0.491  24.871   2.731
75466W        W48534   7.508  32.018  11.576
75467W        W48535  40.342  41.352  12.730
75468W        W48536  12.799   1.448   4.403
75469W        W48537  15.973   8.806   4.880
75470W        W48538  16.531  12.847  12.170
75471W        W48539  33.886  35.066  13.852
75472W        W48540  33.007  13.237  13.936
75473W        W48541  18.152  42.776   2.692
75474W        W48542   6.482  11.924   0.278
75475W        W48543  15.478  34.537  14.866
75476W        W48544   0.469  35.899  12.990
75477W        W48545  13.077   5.904   2.713
75478W        W48546  23.175   0.959   0.494
75479W        W48547   1.933  28.531   1.262
75480W        W48548  29.023  23.958  13.748
75481W        W48549  34.708  25.204   0.466
75482W        W48550  29.009  25.991   0.928
75483W        W48551   2.185   6.064  12.083
75484W        W48552  32.481   4.717  11.427
75485W        W48553  37.579  41.258   3.342
75486W        W48554  14.681  24.936  14.789
75487W        W48555  37.313  14.394   4.093
75488W        W48556  14.364   3.447   2.365
75489W        W48557  27.880  16.344   3.852
75490W        W48558  39.386  13.597   1.948
75491W        W48559  37.831  26.514   2.889
75492W        W48560  34.097  33.651   3.350
75493W        W48561  28.679  13.255  10.798
75494W        W48562  15.856   1.471  12.250
75495W        W48563  44.462   3.701   0.971
75496W        W48564  24.212  40.450  12.000
75497W        W48565  38.924  31.846  11.423
75498W        W48566   7.981  11.712  13.350
75499W        W48567  18.733  42.899   0.801
75500W        W48568  24.523   0.219  10.860
75501W        W48569  27.545  15.541   2.148
75502W        W48570  37.297  31.372   1.914
75503W        W48571  10.755  37.759  14.980
75504W        W48572  31.860  32.967   0.954
75505W        W48573  16.970  33.339  12.180
75506W        W48574  11.409  13.594  14.347
75507W        W48575   7.449   0.837  13.661
75508W        W48576   3.347  22.413   1.445
75509W        W48577  31.051  17.311   1.945
75510W        W48578  13.554  29.996  12.772
75511W        W48579  41.351  14.783   1.714
75512W        W48580  21.024  21.665  12.852
75513W        W48581  29.077  20.788   4.808
75514W        W48582  42.213  13.635  13.354
75515W        W48583  32.647  25.309  11.206
75516W        W48584   8.061  37.970   2.322
75517W        W48585  27.005  28.943  13.927
75518W        W48586  29.993   0.303  11.203
75519W        W48587   8.828  38.240   4.705
75520W        W48588  26.120  31.182   4.678
75521W        W48589  20.330  27.257   1.723
75522W        W48590  17.513  35.228  12.800
75523W        W48591  16.321  16.530  14.242
75524W        W48592  25.197  32.326   0.724
75525W        W48593  11.764   6.201  14.226
75526W        W48594  42.792  35.373  13.742
75527W        W48595  21.583  36.884  12.975
75528W        W48596   7.377   0.768   2.264
75529W        W48597  34.123  34.953  11.103
75530W        W48598  39.116   4.297   1.519
75531W        W48599  14.294  10.636   0.295
75532W        W48600  13.657  33.608  11.921
75533W        W48601  16.384  29.027   3.944
75534W        W48602  38.267  24.232  12.104
75535W        W48603  27.472   2.346   0.969
75536W        W48604  28.582  40.106   4.253
75537W        W48605  17.234  39.356   3.352
75538W        W48606  34.425   8.318  14.414
75539W        W48607   7.290  18.358   2.156
75540W        W48608   6.467  25.163  13.504
75541W        W48609  25.317  10.696   1.408
75542W        W48610  35.701  42.557   1.292
75543W        W48611   6.938  25.516   1.322
75544W        W48612  13.372  27.765   3.712
75545W        W48613   5.618  18.000   3.374
75546W        W48614  17.118  39.752  11.153
75547W        W48615  20.582  37.560   4.580
75548W        W48616  30.644  44.177  13.057
75549W        W48617   2.724  37.932  11.028
75550W        W48618  39.839  15.352   4.551
75551W        W48619  25.033  38.353  11.183
75552W        W48620  16.359   0.737  11.254
75553W        W48621  41.924   3.335   1.050
75554W        W48622  29.086  14.501   3.596
75555W        W48623   8.674   6.924   1.842
75556W        W48624  35.020   8.840   5.201
75557W        W48625  16.639  36.474  11.720
75558W        W48626  44.193  35.679   2.143
75559W        W48627  16.016  14.260   2.302
75560W        W48628  15.862  10.685   4.892
75561W        W48629  13.268  27.072  13.405
75562W        W48630  41.300  18.209  13.827
75563W        W48631  27.076  39.591  14.295
75564W        W48632   7.225   9.184  14.891
75565W        W48633   7.222   1.477   2.663
75566W        W48634  44.314  26.623   1.820
75567W        W48635  18.804  34.153   2.372
75568W        W48636  12.170  40.526   0.477
75569W        W48637  37.816  39.366   4.776
75570W        W48638  38.343  13.443  11.527
75571W        W48639  38.582   5.695   0.084
75572W        W48640   7.049   2.441  11.942
75573W        W48641   9.065  15.692   2.366
75574W        W48642  31.506  11.962  12.032
75575W        W48643   0.976  15.721   1.534
75576W        W48644  23.485   3.864   3.789
75577W        W48645  25.527  33.382  11.971
75578W        W48646  44.410  10.461  13.327
75579W        W48647  14.122  41.553   2.478
75580W        W48648  10.822  42.371  13.507
75581W        W48649  16.007  23.915   0.024
75582W        W48650   9.461  19.364   3.266
75583W        W48651  41.029  23.806   4.202
75584W        W48652   4.897  11.763   3.635
75585W        W48653  11.124  13.294   4.057
75586W        W48654  14.294   9.388  14.293
75587W        W48655  33.079  40.408   4.067
75588W        W48656  44.467  18.327  12.059
75589W        W48657  22.058  35.822  13.580
75590W        W48658  14.625  32.987  14.730
75591W        W48659  32.574   9.164   2.337
75592W        W48660  23.988  30.290   4.957
75593W        W48661  23.157  28.063   3.302
75594W        W48662   5.008  36.887   0.842
75595W        W48663  20.511  34.571  10.599
75596W        W48664  40.797   2.393  14.796
75597W        W48665  32.471   4.436  12.681
75598W        W48666  35.173  30.651   4.139
75599W        W48667  35.981  10.177  11.531
75600W        W48668  29.391   0.429  11.520
75601W        W48669   7.903  41.289   5.063
75602W        W48670  19.816   6.201  10.658
75603W        W48671   8.858   4.246  12.063
75604W        W48672  39.826  22.995  13.576
75605W        W48673  30.030  35.571   0.792
75606W        W48674  43.575   8.256   4.761
75607W        W48675  31.910   1.351  13.515
75608W        W48676  23.441  26.629  11.175
75609W        W48677   9.777  14.186  11.687
75610W        W48678   7.670  28.074   1.209
75611W        W48679   3.670  19.058   0.129
75612W        W48680  39.477  42.386   2.537
75613W        W48681  24.063  24.892   0.813
75614W        W48682  38.491  38.779   3.869
75615W        W48683  29.348  32.985   1.226
75616W        W48684  21.267  33.439   2.216
75617W        W48685   0.744  28.637   0.536
75618W        W48686  35.431  13.643   1.669
75619W        W48687  29.081  24.980  12.840
75620W        W48688  34.032   7.594   4.609
75621W        W48689  12.356  19.114   2.263
75622W        W48690  13.664  42.328   4.989
75623W        W48691  13.122  40.500  10.609
75624W        W48692   0.912  15.703  11.340
75625W        W48693  19.300   4.770   0.254
75626W        W48694  22.824  39.586  12.611
75627W        W48695  38.988  26.635  10.646
75628W        W48696  16.799   3.153   2.881
75629W        W48697  33.544  11.705   9.852
75630W        W48698  14.514  24.794  13.910
75631W        W48699  15.578   9.954  11.202
75632W        W48700  34.169  10.197   3.624
75633W        W48701  26.052  27.073   4.233
75634W        W48702  12.759  41.298  14.394
75635W        W48703  22.321  18.995  11.549
75636W        W48704  16.842  43.219   0.308
75637W        W48705   2.482  18.834   3.649
75638W        W48706   4.831   8.590   0.908
75639W        W48707  39.642  42.275   0.565
75640W        W48708   2.748   5.276   1.814
75641W        W48709  36.904  15.716   0.228
75642W        W48710  40.036  14.181  10.712
75643W        W48711  16.157  25.834   4.761
75644W        W48712  24.232   4.812  14.872
75645W        W48713  14.543   6.716   0.343
75646W        W48714   2.596  25.112   0.827
75647W        W48715   2.683   9.972   2.155
75648W        W48716  34.100  21.393  14.584
75649W        W48717  10.209  28.707  11.088
75650W        W48718  28.432  18.711   2.330
75651W        W48719  22.904  35.449  13.642
75652W        W48720  12.764  19.116   3.189
75653W        W48721  38.500  34.780  11.933
75654W        W48722  39.406   7.638   4.205
75655W        W48723  28.009  23.761   1.875
75656W        W48724  15.326   1.984   0.867
75657W        W48725  39.993  23.071  11.451
75658W        W48726   9.700   1.704  14.744
75659W        W48727  16.845  29.241  11.073
75660W        W48728  29.141  16.882  11.125
75661W        W48729  36.518  39.445   1.192
75662W        W48730  16.749  14.809   1.240
75663W        W48731  40.242  30.088  11.935
75664W        W48732  35.487  31.998   2.687
75665W        W48733  36.179  13.343   1.214
75666W        W48734  15.802   0.296  10.662
75667W        W48735  28.469  39.348  13.930
75668W        W48736  15.384  39.353   1.728
75669W        W48737  28.641  14.508  11.556
75670W        W48738  19.532  41.496   4.586
75671W        W48739  44.620  14.579  11.912
75672W        W48740   9.125  37.131   4.154
75673W        W48741  26.105  44.286   0.005
75674W        W48742  32.447  25.990   0.652
75675W        W48743  39.152  35.566  12.500
75676W        W48744  12.882   9.762  10.597
75677W        W48745  39.478  28.428   0.642
75678W        W48746  27.100  42.809   4.255
75679W        W48747  31.064  16.394  11.047
75680W        W48748  10.560  17.579  13.435
75681W        W48749   4.953  35.549  10.570
75682W        W48750  36.334  12.687  12.162
75683W        W48751  36.388  17.945   1.187
75684W        W48752   5.586  27.970   3.736
75685W        W48753  16.265  11.337  14.958
75686W        W48754  43.004   9.672   2.303
75687W        W48755  24.640   2.275   1.254
75688W        W48756   3.170  18.280  14.352
75689W        W48757  20.839  14.569   1.481
75690W        W48758  42.378  43.373  14.724
75691W        W48759   9.682  41.511   2.370
75692W        W48760  28.985  34.747  13.605
75693W        W48761  44.484  18.153  13.532
75694W        W48762   0.154  23.700   2.327
75695W        W48763  15.398  23.578   4.570
75696W        W48764  44.090  10.685  10.856
75697W        W48765  10.377  13.203  11.263
75698W        W48766  44.925  39.747   3.651
75699W        W48767  12.158   9.319   0.760
75700W        W48768  40.949   2.951   2.903
75701W        W48769  15.433  29.135   1.947
75702W        W48770  36.387  15.094  10.692
75703W        W48771   0.859  38.624  12.088
75704W        W48772   7.771  39.921  11.661
75705W        W48773  44.851   1.263  10.594
75706W        W48774  31.937   1.674   1.647
75707W        W48775   0.884  29.610  10.352
75708W        W48776  36.120  14.353   2.812
75709W        W48777   8.908  38.086  14.488
75710W        W48778  16.788  21.015   1.179
75711W        W48779  23.508  19.488  13.487
75712W        W48780  28.253  30.155  11.573
75713W        W48781  28.863   7.267  12.945
75714W        W48782  29.673  14.040  13.834
75715W        W48783   9.101  34.534  14.368
75716W        W48784   1.303  31.684   2.255
75717W        W48785  36.565   7.650   1.079
75718W        W48786  44.731  30.343  11.677
75719W        W48787  34.904  33.062  13.695
75720W        W48788  28.617  39.486  11.147
75721W        W48789   1.445   5.512  10.585
75722W        W48790  21.663  10.770   2.103
75723W        W48791   4.133  31.975   4.538
75724W        W48792  40.978  40.718   4.307
75725W        W48793  16.259  20.829  11.226
75726W        W48794   3.692  24.468  12.435
75727W        W48795  28.539  39.486  14.861
75728W        W48796  30.018  20.283  13.637
75729W        W48797  24.510   7.414   1.694
75730W        W48798  15.342  18.591   0.530
75731W        W48799  25.658  31.389   1.400
75732W        W48800  43.579  39.484   1.387
75733W        W48801  12.260  33.475  14.398
75734W        W48802  39.230   5.500   3.768
75735W        W48803  33.439   2.289  11.467
75736W        W48804  33.011  11.377  13.612
75737W        W48805  16.414  43.703   1.830
75738W        W48806  22.504  13.731  10.883
75739W        W48807  39.782  29.092   4.600
75740W        W48808  10.118  41.730  13.930
75741W        W48809   3.308  10.667   3.656
75742W        W48810  12.671  15.256   3.824
75743W        W48811   5.294  31.725   0.276
75744W        W48812  21.596  20.902  12.395
75745W        W48813  44.727  40.619   2.477
75746W        W48814  37.092  34.862   2.697
75747W        W48815  30.337  14.381  14.912
75748W        W48816  16.410  22.007  13.110
75749W        W48817  29.063  15.953   4.181
75750W        W48818  35.412  44.934   0.007
75751W        W48819  11.207  13.388   1.058
75752W        W48820  29.636  44.490   0.279
75753W        W48821   1.664  19.332  12.040
75754W        W48822  21.869  27.368   3.691
75755W        W48823  15.375  23.325  11.216
75756W        W48824  19.769  16.742   0.510
75757W        W48825   5.766  10.478   2.715
75758W        W48826  37.138  39.825  11.220
75759W        W48827  16.297   3.922  13.525
75760W        W48828  14.777  29.103  13.779
75761W        W48829  44.878  21.932  11.480
75762W        W48830  42.289  36.588   0.759
75763W        W48831  25.953  29.670   3.703
75764W        W48832  11.892   6.388   3.174
75765W        W48833  35.594  20.787  13.773
75766W        W48834   8.682  36.629  14.366
75767W        W48835   7.356   6.723   2.361
75768W        W48836  15.351   5.319   2.393
75769W        W48837  33.151  25.022  14.902
75770W        W48838  17.794  18.284   3.838
75771W        W48839  13.067  44.237   0.542
75772W        W48840  16.672  21.249  12.041
75773W        W48841  37.810  44.937  14.953
75774W        W48842  40.177  15.249  12.567
75775W        W48843  41.551  38.685   0.285
75776W        W48844  40.124  15.072   2.649
75777W        W48845   1.212  12.336  10.616
75778W        W48846  31.982   4.363   0.852
75779W        W48847  17.273  15.097   4.085
75780W        W48848  22.069  34.532   4.900
75781W        W48849  42.771  19.753   3.646
75782W        W48850   3.416  28.066  11.362
75783W        W48851   3.212   5.609   3.656
75784W        W48852  20.122  15.113  12.521
75785W        W48853  21.838  33.053   4.657
75786W        W48854   5.187  40.769   2.357
75787W        W48855  41.607   6.716  12.679
75788W        W48856  11.572  39.077   4.590
75789W        W48857  37.476  13.638  12.138
75790W        W48858   2.403   2.051   3.253
75791W        W48859   0.209   8.192   4.006
75792W        W48860  38.338  43.258   1.702
75793W        W48861  36.358  11.265   2.372
75794W        W48862  41.021  11.734   2.763
75795W        W48863   1.723  10.348  12.103
75796W        W48864   6.091  20.841  13.896
75797W        W48865   2.872  27.372  11.562
75798W        W48866  16.792  43.302   4.153
75799W        W48867   4.759  14.496  13.923
75800W        W48868  36.227  22.785  13.619
75801W        W48869   7.085  20.446  11.608
75802W        W48870  21.005  39.264  14.820
75803W        W48871  31.990  14.554  11.734
75804W        W48872  20.657  11.806   1.227
75805W        W48873  11.104   8.459   2.770
75806W        W48874   8.814  30.910   1.974
75807W        W48875  22.769  15.283   1.661
75808W        W48876  36.946  25.504  14.805
75809W        W48877  40.394   0.268   0.800
75810W        W48878  40.578  36.281  14.384
75811W        W48879  21.126  11.883  14.007
75812W        W48880  21.934  31.612   2.838
75813W        W48881   0.884  32.378   2.232
75814W        W48882  28.955  44.716  11.107
75815W        W48883  37.361  22.329   5.116
75816W        W48884  32.872  19.531   4.522
75817W        W48885  36.626  18.223   3.079
75818W        W48886  16.252  31.110  14.907
75819W        W48887  38.757  37.159  11.942
75820W        W48888  29.882  12.419   2.466
75821W        W48889  11.384  30.531   1.863
75822W        W48890   5.547   1.051   2.798
75823W        W48891   6.219   1.992  11.221
75824W        W48892  29.033  19.505   0.884
75825W        W48893  20.558  20.622   4.706
75826W        W48894   5.688   1.824   0.805
75827W        W48895  35.057  43.560   4.288
75828W        W48896  39.479  12.129   0.384
75829W        W48897  40.241  14.419   5.121
75830W        W48898  41.347  30.602  10.728
75831W        W48899  11.614  36.550   0.914
75832W        W48900  33.285  43.805   4.750
75833W        W48901  17.599  14.755   2.924
75834W        W48902   6.344  34.237   4.323
75835W        W48903  18.408   1.964  12.906
75836W        W48904  17.626  41.988   0.392
75837W        W48905  15.401   8.774   4.656
75838W        W48906  30.493  22.331  10.449
75839W        W48907   8.729  39.486  14.364
75840W        W48908   2.501  35.214  11.618
75841W        W48909  28.578  36.429  12.878
75842W        W48910  24.900  36.761  13.857
75843W        W48911  18.191  43.858  14.429
75844W        W48912  17.237  38.582   1.260
75845W        W48913  38.510  12.686   3.915
75846W        W48914  32.124  37.938   3.135
75847W        W48915  23.055  37.314  11.489
75848W        W48916  14.171  32.635  10.743
75849W        W48917  28.210  43.848  12.896
75850W        W48918  13.932  11.184  13.533
75851W        W48919  18.129  22.593  13.822
75852W        W48920  27.234  20.328   2.236
75853W        W48921   0.938  17.061  14.863
75854W        W48922   5.595   7.268  11.582
75855W        W48923  27.406  30.539   4.186
75856W        W48924  27.939  43.374  10.783
75857W        W48925   5.879  20.764   0.245
75858W        W48926  18.935  16.438  13.966
75859W        W48927   6.951  44.313  11.551
75860W        W48928  34.832   0.341  12.876
75861W        W48929   8.460  35.463  11.511
75862W        W48930  32.156  39.708  14.928
75863W        W48931  42.866  13.048  13.835
75864W        W48932  40.321   8.408  11.974
75865W        W48933  44.850  17.274  12.740
75866W        W48934  40.545  21.710  13.328
75867W        W48935   8.329  13.136   1.370
75868W        W48936   4.418  10.115  13.010
75869W        W48937  13.586   5.891  12.804
75870W        W48938  44.070  30.930  12.359
75871W        W48939  22.767   2.441  10.207
75872W        W48940  27.662  15.378   0.789
75873W        W48941  10.728   9.250   4.091
75874W        W48942  17.489  35.921  13.013
75875W        W48943  43.281  21.688   0.729
75876W        W48944  40.993  12.165  12.494
75877W        W48945  20.196  34.043   0.965
75878W        W48946  29.214  39.252  14.311
75879W        W48947  13.116   5.282   0.339
75880W        W48948   0.724  27.177   3.579
75881W        W48949   7.217  13.761   3.945
75882W        W48950  31.845  29.302  12.012
75883W        W48951  34.289  34.904   3.852
75884W        W48952   3.229  35.124  11.139
75885W        W48953  18.163  25.210   5.095
75886W        W48954  29.078  44.015  14.451
75887W        W48955  19.534  37.032  12.865
75888W        W48956  13.838  18.042  14.583
75889W        W48957  24.717  41.519   2.894
75890W        W48958  19.278   6.751   3.225
75891W        W48959  20.042  34.926  11.537
75892W        W48960  35.939  23.007  14.830
75893W        W48961  10.967  15.872  13.952
75894W        W48962  42.611   2.269   0.499
75895W        W48963   0.197  23.120   0.960
75896W        W48964  25.979  18.873  11.566
75897W        W48965  37.595  29.217   2.598
75898W        W48966  44.853  22.646  14.742
75899W        W48967  28.036  12.315   2.348
75900W        W48968  37.990  21.513  14.965
75901W        W48969  37.100   2.483   1.790
75902W        W48970  33.729  43.920  14.272
75903W        W48971  38.982  30.921   2.949
75904W        W48972  38.798  44.040  13.511
75905W        W48973   2.683  11.235   0.154
75906W        W48974  19.078  23.686   0.032
75907W        W48975  43.327   3.153  11.636
75908W        W48976  21.638  43.569  13.859
75909W        W48977  29.382  31.023   0.298
75910W        W48978  42.144  24.013   0.959
75911W        W48979  33.488  15.192  14.475
75912W        W48980  26.677  15.176   4.536
75913W        W48981  40.423  24.532   2.240
75914W        W48982  13.754  18.175   2.353
75915W        W48983  41.877  41.703  14.251
75916W        W48984  14.719  44.356  12.739
75917W        W48985  15.825  31.236   4.212
75918W        W48986  14.608  22.602  13.987
75919W        W48987  13.767  14.281  12.132
75920W        W48988  15.269  34.818  11.601
75921W        W48989  42.747  23.307  11.051
75922W        W48990  25.540   1.141  13.435
75923W        W48991   4.957  26.040  14.785
75924W        W48992   7.387  43.258   4.549
75925W        W48993  23.091  13.457   4.172
75926W        W48994  33.405  23.251  11.596
75927W        W48995  38.458  28.583   1.182
75928W        W48996  42.973  29.842   0.402
75929W        W48997  27.460  22.151  13.068
75930W        W48998  25.176  11.008  12.237
75931W        W48999  27.026   5.930   0.514
75932W        W49000  12.605  20.773  11.148
75933W        W49001   7.640   7.669  13.395
75934W        W49002  14.929  33.014   4.169
75935W        W49003  15.214  29.769  12.819
75936W        W49004  16.726  37.384  12.168
75937W        W49005  41.991   6.433  12.900
75938W        W49006  22.626  14.613   0.409
75939W        W49007  22.187  17.137  10.277
75940W        W49008  22.135  27.066   1.245
75941W        W49009  25.142  41.369   1.179
75942W        W49010  29.868   5.803  12.421
75943W        W49011  39.380  20.559  13.035
75944W        W49012   6.669  32.661   2.284
75945W        W49013  42.462  15.228   1.382
75946W        W49014   1.306  11.629  13.352
75947W        W49015  11.344  13.936   2.845
75948W        W49016  32.048  29.341  13.411
75949W        W49017   1.150  22.235   0.012
75950W        W49018  38.040   9.792  12.975
75951W        W49019  19.584  38.043  12.832
75952W        W49020  22.841  28.972  13.910
75953W        W49021  41.274  32.568   3.014
75954W        W49022  18.085  19.317  14.161
75955W        W49023  10.701  28.659  10.872
75956W        W49024  36.393  20.117  12.583
75957W        W49025  30.382  18.667  10.689
75958W        W49026  36.452  16.319  13.526
75959W        W49027  30.095  28.996  11.984
75960W        W49028  39.246  43.446  14.417
75961W        W49029  28.492  24.563  11.093
75962W        W49030  23.647  29.514   4.379
75963W        W49031  20.068   7.380   2.259
75964W        W49032  37.033  41.750  14.221
75965W        W49033   7.824  43.385   3.573
75966W        W49034   1.812   7.440   4.618
75967W        W49035  33.603  38.512  12.433
75968W        W49036  28.315  25.596  13.272
75969W        W49037  27.633  15.106  12.795
75970W        W49038   5.467  32.177   2.684
75971W        W49039  35.515  12.172   2.445
75972W        W49040   1.298  21.991   4.048
75973W        W49041   4.685  26.657  11.622
75974W        W49042   0.131  37.462  10.752
75975W        W49043  23.001   3.908   2.726
75976W        W49044  34.620  20.740  13.512
75977W        W49045  14.545  15.086   2.607
75978W        W49046  35.880   9.156   3.623
75979W        W49047   3.772  19.533  13.069
75980W        W49048  28.918   1.173   4.840
75981W        W49049  16.336  32.052   0.808
75982W        W49050  14.097  33.933  14.334
75983W        W49051  38.908   7.627  12.740
75984W        W49052   3.463   9.782   0.813
75985W        W49053  40.939  22.069  11.607
75986W        W49054  12.011  26.904   1.411
75987W        W49055   8.469  42.931   0.076
75988W        W49056   5.401  43.767  10.994
75989W        W49057   9.032  36.348   1.929
75990W        W49058  28.494  15.141  14.351
75991W        W49059  43.397  40.757   2.817
75992W        W49060  14.641  19.776  14.430
75993W        W49061  40.677  23.100  12.594
75994W        W49062  38.210   7.723   1.870
75995W        W49063   4.422   4.412   1.752
75996W        W49064  37.426  21.759   4.345
75997W        W49065  36.879   9.432  14.425
75998W        W49066  27.806  40.390  14.113
75999W        W49067  24.969  44.198   2.460
76000W        W49068  16.130  35.821  10.743
76001W        W49069   1.417  15.084  10.545
76002W        W49070  25.296   2.446   0.533
76003W        W49071  16.148  16.942   4.154
76004W        W49072  29.443   4.877   2.544
76005W        W49073  13.710  18.342  11.483
76006W        W49074  26.716  37.297   3.119
76007W        W49075  32.541  26.574   2.335
76008W        W49076   0.400  44.812  14.312
76009W        W49077  13.066  16.063   1.716
76010W        W49078  11.175  23.258   4.411
76011W        W49079  34.496   7.181  10.689
76012W        W49080  26.366  28.935   3.293
76013W        W49081  16.840   7.353  12.087
76014W        W49082  28.429  18.043   0.212
76015W        W49083  38.476  25.784   4.405
76016W        W49084   9.257  26.262  14.954
76017W        W49085  25.324  37.541  14.769
76018W        W49086  19.715  40.585   5.034
76019W        W49087  16.626  27.965  14.283
76020W        W49088   6.165  28.722   4.129
76021W        W49089  20.141  20.004   1.672
76022W        W49090   5.408  35.121   0.766
76023W        W49091  42.206   4.403  12.620
76024W        W49092  18.892  43.858   5.245
76025W        W49093  13.154  32.895   2.713
76026W        W49094  30.708  24.066   2.506
76027W        W49095  27.981   5.374   2.272
76028W        W49096  24.486  12.182  11.162
76029W        W49097  12.169  33.840  12.343
76030W        W49098  38.814   1.894  12.624
76031W        W49099  14.860   2.352   2.859
76032W        W49100   3.221  38.425  12.245
76033W        W49101   6.018  32.004   0.747
76034W        W49102  42.766  44.441  14.371
76035W        W49103  32.342  14.619   4.680
76036W        W49104  43.710  40.619   2.236
76037W        W49105  12.045  44.556  14.387
76038W        W49106   5.947  25.090  14.898
76039W        W49107  44.242  44.925   2.426
76040W        W49108   6.034   8.603  12.588
76041W        W49109  10.686  44.256  10.206
76042W        W49110  27.092   7.952   4.206
76043W        W49111  19.776  44.469   2.521
76044W        W49112   5.687  25.567  13.434
76045W        W49113   4.470  21.525  12.562
76046W        W49114  27.924  43.641  12.510
76047W        W49115  31.240  41.985   4.514
76048W        W49116  24.305  21.706  13.983
76049W        W49117   0.916  11.306   4.372
76050W        W49118  13.566  31.516   3.592
76051W        W49119  39.704  24.990  11.012
76052W        W49120  18.311  28.043   2.824
76053W        W49121  32.817  33.765   4.364
76054W        W49122   6.604   3.363  10.141
76055W        W49123  14.733  12.142   2.245
76056W        W49124   3.781  40.530  13.972
76057W        W49125  18.763   0.913  12.969
76058W        W49126  28.905  22.949  13.488
76059W        W49127  32.557  25.024  13.482
76060W        W49128   6.467  21.136   4.492
76061W        W49129  17.589  41.304  12.575
76062W        W49130  17.130  28.624  13.949
76063W        W49131  24.010  15.855  10.440
76064W        W49132  32.616  26.250   4.020
76065W        W49133  18.330  41.442   2.378
76066W        W49134   4.220  33.299  13.932
76067W        W49135  39.010   5.506  10.166
76068W        W49136  16.807  24.774  11.205
76069W        W49137  23.206  22.495  14.866
76070W        W49138  29.943  22.926  11.051
76071W        W49139  19.277  15.754  13.303
76072W        W49140   5.710  38.395   3.672
76073W        W49141  36.547  42.496   2.774
76074W        W49142  14.292  16.207  11.930
76075W        W49143  32.189  38.295  11.185
76076W        W49144  33.209  31.316  10.528
76077W        W49145   0.465  14.262  12.468
76078W        W49146  37.207  26.288  11.121
76079W        W49147  34.750  11.625  12.177
76080W        W49148  12.782  11.045   4.084
76081W        W49149   1.990  16.140   2.847
76082W        W49150  18.625   6.435   4.581
76083W        W49151  29.621  27.162  11.129
76084W        W49152  43.071  17.097  12.552
76085W        W49153  41.631  16.547   3.287
76086W        W49154  22.151   0.524   5.152
76087W        W49155  16.234  34.998  10.365
76088W        W49156  18.165  18.666   4.217
76089W        W49157  44.000  35.581  10.841
76090W        W49158  23.196  28.232   4.484
76091W        W49159  28.014  44.524   2.656
76092W        W49160  31.868  44.723   1.770
76093W        W49161  35.126  16.615   1.735
76094W        W49162  23.931  11.812   2.857
76095W        W49163   5.996  31.905  11.616
76096W        W49164  21.469  29.540  14.990
76097W        W49165  44.264  18.284   2.366
76098W        W49166  35.151   4.874  10.269
76099W        W49167  23.193  18.716  11.610
76100W        W49168  23.128  33.249  13.799
76101W        W49169  26.649   9.133  13.809
76102W        W49170  33.453  25.035  10.758
76103W        W49171   0.274  20.481  11.365
76104W        W49172  35.379  26.095  13.134
76105W        W49173  44.733   5.462  11.501
76106W        W49174   0.452  11.917   0.891
76107W        W49175  30.690  37.531  13.376
76108W        W49176   9.330  36.310   0.967
76109W        W49177  17.821  29.723  13.457
76110W        W49178  11.122  35.282  13.102
76111W        W49179  28.961  44.859  12.157
76112W        W49180  43.574  44.063  11.098
76113W        W49181  42.040  10.710   4.303
76114W        W49182  11.140  30.993  11.153
76115W        W49183  16.835  41.490   0.970
76116W        W49184  25.012   5.245   1.161
76117W        W49185   1.721  12.273  10.630
76118W        W49186  21.155  17.106  13.484
76119W        W49187  37.681   0.745   1.399
76120W        W49188  22.149   7.690   4.856
76121W        W49189  27.789  24.114  14.968
76122W        W49190  39.215  35.109  14.175
76123W        W49191  36.842   4.205   4.640
76124W        W49192  26.854  15.215  10.368
76125W        W49193  39.342  29.395   4.623
76126W        W49194   1.195   3.727   3.647
76127W        W49195  26.036   8.113  14.993
76128W        W49196  20.061  25.049   0.807
76129W        W49197  23.539  44.327  13.261
76130W        W49198  11.597  19.189  11.654
76131W        W49199  16.385  21.330  11.205
76132W        W49200  20.231  11.484  11.934
76133W        W49201  19.413  38.872   2.921
76134W        W49202  26.604   3.838  11.621
76135W        W49203  35.349  44.313  11.021
76136W        W49204   3.263  21.088   3.227
76137W        W49205   1.863  44.057   2.609
76138W        W49206   2.551  35.521  10.882
76139W        W49207  10.882  19.155   4.604
76140W        W49208   3.422  22.756   1.845
76141W        W49209  36.545  43.512   2.721
76142W        W49210  17.522  23.512   1.692
76143W        W49211  37.111  14.312  12.853
76144W        W49212  30.569   5.106  14.085
76145W        W49213  39.260   7.820  10.937
76146W        W49214   8.397  34.514  14.005
76147W        W49215  10.117  25.259  12.494
76148W        W49216  30.983  14.685  11.543
76149W        W49217  33.492  10.615   1.290
76150W        W49218  21.616  35.084  14.066
76151W        W49219  20.713  22.519  11.623
76152W        W49220  21.932  38.916  14.024
76153W        W49221  33.657  27.887  14.503
76154W        W49222  18.736  43.979   4.401
76155W        W49223  42.803  15.589   1.172
76156W        W49224  27.565  23.227  12.097
76157W        W49225  36.598   8.692  14.022
76158W        W49226   9.734  16.919  11.886
76159W        W49227  16.662  17.524   2.849
76160W        W49228  17.640  26.491   1.346
76161W        W49229  14.594  19.024   4.335
76162W        W49230  16.243  16.682  11.121
76163W        W49231  30.966  11.459   2.004
76164W        W49232   2.863  24.188  13.749
76165W        W49233  39.353  34.495   3.425
76166W        W49234  34.931  13.711   3.670
76167W        W49235  28.376  32.366   4.112
76168W        W49236  41.685   2.905  10.535
76169W        W49237   7.924  43.311  11.585
76170W        W49238   8.286   0.520  11.881
76171W        W49239  15.777  40.642  13.831
76172W        W49240  12.771  14.096  10.826
76173W        W49241  13.114  16.599   4.696
76174W        W49242  11.180  23.148   0.848
76175W        W49243  18.506   2.964   4.694
76176W        W49244  44.580  31.046  13.410
76177W        W49245   4.004   7.244  14.383
76178W        W49246  10.382   7.321  14.485
76179W        W49247  18.936  26.998  13.081
76180W        W49248  19.787   5.778   0.082
76181W        W49249  14.484  19.526   1.885
76182W        W49250  33.098  39.066  13.012
76183W        W49251  34.740  41.548  12.504
76184W        W49252  42.349  12.286   3.370
76185W        W49253   9.626  22.945   0.431
76186W        W49254  14.509   3.694   2.792
76187W        W49255  27.790   8.793   0.077
76188W        W49256  27.431  13.819  13.035
76189W        W49257  19.986  44.416   1.684
76190W        W49258  25.000  33.104  12.014
76191W        W49259   8.456   9.798  10.683
76192W        W49260  39.505  44.331  11.654
76193W        W49261   3.253  24.776  12.419
76194W        W49262  17.667   4.207  12.421
76195W        W49263  42.442  27.284   1.173
76196W        W49264  41.856   9.202   2.798
76197W        W49265  19.028  14.598   3.762
76198W        W49266  17.261  44.517  11.189
76199W        W49267  12.353  38.598   2.834
76200W        W49268  33.474  14.069  10.743
76201W        W49269  36.657  29.991  12.078
76202W        W49270  15.096   3.893   2.711
76203W        W49271  23.642  38.472   2.334
76204W        W49272  11.162  42.919   1.324
76205W        W49273  37.603  17.565  11.389
76206W        W49274  43.788  42.889  11.873
76207W        W49275  35.768   7.983   0.311
76208W        W49276  40.423  33.361  14.444
76209W        W49277  43.522  41.589   2.382
76210W        W49278  11.115  28.442   1.280
76211W        W49279  39.847   7.775   2.397
76212W        W49280  33.080  21.270  14.425
76213W        W49281  28.964  15.802   0.083
76214W        W49282  23.556  36.675  11.593
76215W        W49283  26.088  41.011   0.843
76216W        W49284  20.083  15.200  14.459
76217W        W49285   7.521  38.403   2.095
76218W        W49286   6.900  30.712  14.889
76219W        W49287  14.729   6.229   1.396
76220W        W49288  40.215   0.043   3.769
76221W        W49289  32.578  34.299  13.317
76222W        W49290  34.044  32.235  11.146
76223W        W49291  19.072  35.534  10.803
76224W        W49292  27.525  41.444   4.871
76225W        W49293   5.285  28.984   4.435
76226W        W49294  19.216   6.917  13.328
76227W        W49295  28.153  44.920  14.440
76228W        W49296  32.115   2.921   2.279
76229W        W49297  21.330  19.684  13.678
76230W        W49298   5.849  14.087   0.964
76231W        W49299  13.761   8.706   3.637
76232W        W49300  34.599   8.855  12.064
76233W        W49301  40.227  35.941  14.649
76234W        W49302   9.209  24.613   1.807
76235W        W49303  27.921  36.931   0.718
76236W        W49304  19.225  17.062  12.479
76237W        W49305  12.704  22.248  12.053
76238W        W49306  22.816   3.822  11.073
76239W        W49307  41.113   4.273   2.650
76240W        W49308  13.524   2.971  11.015
76241W        W49309  22.776   5.311   1.743
76242W        W49310  11.077   0.994   0.202
76243W        W49311   3.847  13.770   2.496
76244W        W49312   3.331  12.746  11.674
76245W        W49313  32.563   2.347   1.823
76246W        W49314  18.181  19.284  13.288
76247W        W49315  11.302  13.205  11.029
76248W        W49316  33.935  40.612  10.713
76249W        W49317  11.451  36.256   0.418
76250W        W49318  21.096  26.264   3.169
76251W        W49319  41.337  21.022   1.440
76252W        W49320   9.094  25.409  14.038
76253W        W49321  11.189   2.300   2.091
76254W        W49322  34.409  11.527  11.807
76255W        W49323  15.106  10.310  12.354
76256W        W49324  43.880   6.063   2.180
76257W        W49325  30.405  35.932   3.055
76258W        W49326   4.940  11.881   2.807
76259W        W49327  24.114  23.635  11.227
76260W        W49328  33.611  41.841  10.681
76261W        W49329   3.230  21.330   4.137
76262W        W49330  19.111   8.633  14.020
76263W        W49331  29.415   9.620   0.459
76264W        W49332  24.814  32.878   1.459
76265W        W49333  38.321  19.570   3.898
76266W        W49334  14.654  41.703   3.715
76267W        W49335  37.136  22.112  11.686
76268W        W49336  27.920  10.165   1.871
76269W        W49337  14.735   0.736  14.057
76270W        W49338   9.193  32.429   0.512
76271W        W49339   8.680  33.652   0.300
76272W        W49340  14.145  23.472   4.032
76273W        W49341  36.548  10.265   4.769
76274W        W49342  15.722  16.759  12.113
76275W        W49343  42.870  12.084   4.106
76276W        W49344  40.322  12.315   4.290
76277W        W49345  35.084   7.226  13.876
76278W        W49346  25.854  28.094   0.357
76279W        W49347  27.116  43.532   1.952
76280W        W49348  40.869  40.372  13.098
76281W        W49349  30.761  27.211  13.257
76282W        W49350  27.278  34.949  12.838
76283W        W49351  32.635   7.466   4.065
76284W        W49352  33.981  42.275  13.928
76285W        W49353  14.374  26.851  12.174
76286W        W49354  21.027  26.546  14.021
76287W        W49355  40.278  40.031   2.856
76288W        W49356   8.738  24.670   4.149
76289W        W49357  28.057  24.982   2.203
76290W        W49358   9.138  23.090   0.425
76291W        W49359  17.624  19.646   4.158
76292W        W49360  12.258  24.850  12.523
76293W        W49361  21.268  33.172  13.540
76294W        W49362  12.771  27.737  14.465
76295W        W49363   2.329   2.331   2.458
76296W        W49364  31.575  39.784   3.263
76297W        W49365  20.620  11.632   2.657
76298W        W49366  18.824  18.201  13.527
76299W        W49367  22.722  31.503   0.257
76300W        W49368  29.289  32.048  14.273
76301W        W49369  25.640  26.030  14.554
76302W        W49370   5.701  11.376  10.746
76303W        W49371  11.710  44.312   3.819
76304W        W49372   5.924   9.852   4.283
76305W        W49373   4.820  15.114  14.742
76306W        W49374  13.095  37.008  13.833
76307W        W49375  22.578  22.019  11.390
76308W        W49376   2.896  25.897  14.082
76309W        W49377   7.435  21.098   4.627
76310W        W49378  44.508   7.873   0.486
76311W        W49379  22.664  37.337   2.889
76312W        W49380  24.255  24.119  11.473
76313W        W49381  26.095  18.696  12.043
76314W        W49382  15.422  27.121   4.387
76315W        W49383  22.503   0.383  11.689
76316W        W49384  15.642  38.946  12.997
76317W        W49385  42.931  17.733   1.219
76318W        W49386  32.161  18.130  13.537
76319W        W49387  39.320  15.255   4.274
76320W        W49388   7.463  40.550  14.306
76321W        W49389  34.988   8.878   1.929
76322W        W49390  35.432  35.042  12.494
76323W        W49391  36.935  12.678   4.000
76324W        W49392  44.233  29.963   2.381
76325W        W49393  37.579  36.986  14.758
76326W        W49394  16.091  26.077  14.011
76327W        W49395  25.228  14.620   0.517
76328W        W49396   2.204  38.910   0.155
76329W        W49397  14.346  25.742   4.723
76330W        W49398  12.352  39.387  13.522
76331W        W49399   5.502   5.667   3.125
76332W        W49400  28.053   2.765   1.475
76333W        W49401  35.773  28.963   0.485
76334W        W49402  38.221  29.559  12.351
76335W        W49403  14.276  15.243  12.079
76336W        W49404   6.364   8.278  12.373
76337W        W49405   7.891  39.386  11.633
76338W        W49406  37.078  34.105   2.171
76339W        W49407  37.497  31.277  14.344
76340W        W49408   6.150  30.407  10.322
76341W        W49409   7.065  12.587  10.693
76342W        W49410  16.192  22.146  14.410
76343W        W49411  20.715   9.329   3.234
76344W        W49412  37.388  37.775   4.205
76345W        W49413  16.787   8.571  14.411
76346W        W49414  11.255   4.158  14.775
76347W        W49415  28.708  10.482   5.412
76348W        W49416  34.979  26.536  11.618
76349W        W49417   2.680  41.834   1.955
76350W        W49418  44.491  30.675   3.139
76351W        W49419  27.914  43.380  12.071
76352W        W49420  39.813  10.086   0.074
76353W        W49421  34.025   3.352  10.630
76354W        W49422  34.932  17.339  14.873
76355W        W49423  34.947  29.605  10.656
76356W        W49424  40.559  17.695  12.077
76357W        W49425  23.731  19.062  13.310
76358W        W49426  30.424  31.529   3.234
76359W        W49427  34.876  43.432   2.621
76360W        W49428  19.621  31.774  12.022
76361W        W49429   8.400  21.991   0.779
76362W        W49430  35.308  36.643  14.933
76363W        W49431  28.643  28.039  14.001
76364W        W49432  41.411  20.435  12.031
76365W        W49433  39.463  25.833   0.435
76366W        W49434  22.192  21.653   3.053
76367W        W49435  44.595  37.555  10.718
76368W        W49436   0.564  21.272   3.670
76369W        W49437   5.709  40.289   3.563
76370W        W49438   5.021  24.503  12.726
76371W        W49439  11.939  37.642  11.193
76372W        W49440   4.738  28.035   2.682
76373W        W49441  21.792  44.374  12.820
76374W        W49442  13.193   9.855   4.119
76375W        W49443  36.900  27.875  13.500
76376W        W49444  13.140  18.741   3.738
76377W        W49445  21.581   8.094  11.060
76378W        W49446  44.486   0.064   4.132
76379W        W49447  21.051  17.645  11.927
76380W        W49448   7.731  16.501   3.922
76381W        W49449  13.957  20.404  11.604
76382W        W49450  23.223  22.128   1.759
76383W        W49451  16.177  28.476  13.357
76384W        W49452   2.688   9.747  10.612
76385W        W49453   0.985   6.064   2.969
76386W        W49454  39.304  33.601   1.286
76387W        W49455  24.641  15.312   1.899
76388W        W49456  17.912  21.730  11.407
76389W        W49457  32.684  28.969   2.581
76390W        W49458  35.591  18.123   4.308
76391W        W49459  44.367  27.530   0.247
76392W        W49460  37.393  35.169  14.381
76393W        W49461   7.600   5.739  11.668
76394W        W49462  34.007   8.592   2.673
76395W        W49463  13.637  11.838  11.251
76396W        W49464  17.043   7.684  13.362
76397W        W49465  24.222   3.872  13.771
76398W        W49466  37.104  23.341   1.568
76399W        W49467  16.813  15.720   0.751
76400W        W49468  29.681  34.281  13.764
76401W        W49469  18.598  40.948   4.571
76402W        W49470   1.862  19.094   3.234
76403W        W49471  38.129  16.676  12.455
76404W        W49472  44.959  22.248  11.075
76405W        W49473   9.128  26.005   4.028
76406W        W49474  17.593   3.051  11.417
76407W        W49475  31.059  44.287   2.254
76408W        W49476  38.450   2.908   3.465
76409W        W49477   2.027  23.003   3.351
76410W        W49478  23.401  41.007  12.687
76411W        W49479   9.364   5.700  14.495
76412W        W49480   9.803  40.506  13.079
76413W        W49481  19.588   2.740   1.805
76414W        W49482  35.574   5.898   3.186
76415W        W49483  11.209  36.972  13.325
76416W        W49484   5.051  38.300   4.520
76417W        W49485  10.923  16.111   4.198
76418W        W49486  31.224  34.596  11.551
76419W        W49487  23.243  40.193   0.622
76420W        W49488  20.205  28.965   2.891
76421W        W49489  41.352  14.393   0.802
76422W        W49490  13.684  26.191  11.207
76423W        W49491  15.639  11.278   0.610
76424W        W49492  17.695  39.777  10.559
76425W        W49493  32.142  20.653   1.346
76426W        W49494  18.298  34.458  11.134
76427W        W49495   6.341   6.858  11.369
76428W        W49496  22.012  12.248  10.733
76429W        W49497   8.390   8.575   2.661
76430W        W49498   8.328  19.163   0.013
76431W        W49499  43.374  19.696   3.229
76432W        W49500  33.089   1.999   2.358
76433W        W49501   5.878  28.923  10.693
76434W        W49502  43.012   2.568   5.070
76435W        W49503  30.110  25.689  12.981
76436W        W49504  13.895  11.320   1.845
76437W        W49505  26.105  16.039   3.705
76438W        W49506  38.847  40.809   1.019
76439W        W49507  30.484  18.606   3.611
76440W        W49508   3.762  31.391  13.256
76441W        W49509  11.171  15.508  14.298
76442W        W49510  35.479  41.348  13.187
76443W        W49511  44.380   6.553   0.925
76444W        W49512  42.666  31.265   4.164
76445W        W49513  29.466  23.107   2.563
76446W        W49514  32.506  43.907  11.904
76447W        W49515   0.407  25.504   4.771
76448W        W49516  20.721   8.347   2.787
76449W        W49517  12.392  44.354  11.682
76450W        W49518  37.425  40.467  13.705
76451W        W49519   9.695  29.877   0.304
76452W        W49520  11.656   3.776   4.233
76453W        W49521  33.607  35.928   0.286
76454W        W49522  12.372  41.988   4.172
76455W        W49523   8.759  13.224   0.201
76456W        W49524  19.306   0.291   3.776
76457W        W49525  33.890   8.257   4.298
76458W        W49526  29.101  30.634   4.865
76459W        W49527  13.801  19.654  13.186
76460W        W49528  34.070  41.724  12.596
76461W        W49529  32.306  28.121   2.677
76462W        W49530   3.351  20.677   0.770
76463W        W49531  27.707  10.483  12.902
76464W        W49532  40.548  30.704  12.502
76465W        W49533  41.354  44.460  12.288
76466W        W49534  37.857  14.417   0.292
76467W        W49535  33.538  21.603  11.260
76468W        W49536   8.839  42.518   2.744
76469W        W49537  28.685   7.723  12.545
76470W        W49538  20.661   5.331  14.574
76471W        W49539  40.903  12.894  13.006
76472W        W49540  19.711  39.626   4.844
76473W        W49541  31.760  19.472  12.544
76474W        W49542  31.051  18.969  14.477
76475W        W49543   0.832  44.443   4.665
76476W        W49544  28.915  23.251   3.686
76477W        W49545   6.792  13.781  14.112
76478W        W49546  27.499  36.433  14.844
76479W        W49547  20.009   0.780  11.620
76480W        W49548  10.632  37.563  10.700
76481W        W49549  22.607  30.884  10.407
76482W        W49550   7.433  32.487   3.726
76483W        W49551  42.361  15.384   0.362
76484W        W49552  34.820  11.796   1.973
76485W        W49553  25.004  15.857   1.413
76486W        W49554   6.344  40.114   4.177
76487W        W49555   1.866  37.339   4.182
76488W        W49556  25.082  39.534   2.751
76489W        W49557  43.335  17.934  12.418
76490W        W49558  35.584  31.593   2.376
76491W        W49559  15.599  17.020  12.564
76492W        W49560  25.775  28.097   9.874
76493W        W49561  42.472  39.294   2.267
76494W        W49562  17.061  29.894   0.437
76495W        W49563  38.882  37.997  14.415
76496W        W49564  36.914  42.366  13.363
76497W        W49565  21.598   1.810  13.156
76498W        W49566  31.396   3.524   0.389
76499W        W49567  44.339   5.397   1.840
76500W        W49568   2.831  22.103  10.618
76501W        W49569  33.056  22.493   0.075
76502W        W49570  20.455   0.329   1.932
76503W        W49571  31.885  15.806   2.224
76504W        W49572   0.052  24.775   3.001
76505W        W49573  15.062  19.263   4.891
76506W        W49574  21.558  10.701   3.177
76507W        W49575  33.280  23.788   1.335
76508W        W49576  31.387  41.265   2.263
76509W        W49577  28.724  38.474   1.138
76510W        W49578  15.339   2.481   2.630
76511W        W49579  44.439   5.407  12.561
76512W        W49580  41.850   8.674   2.838
76513W        W49581   2.283  41.559  12.904
76514W        W49582  26.975  23.008  12.410
76515W        W49583  42.743  44.769  13.093
76516W        W49584  10.314  10.110  11.110
76517W        W49585   6.826  42.408  14.653
76518W        W49586  22.117  18.252   4.275
76519W        W49587  16.160  28.113   4.922
76520W        W49588  36.967  21.650   2.947
76521W        W49589   2.054  29.173   3.681
76522W        W49590  23.716  43.486  12.042
76523W        W49591  10.870  33.351   0.776
76524W        W49592  19.006  11.212  14.223
76525W        W49593  11.724  33.828   1.821
76526W        W49594  11.794  42.347   0.783
76527W        W49595  34.782  31.160  14.805
76528W        W49596  11.551  39.218   0.636
76529W        W49597  18.689  28.188   3.701
76530W        W49598  11.307  12.569  13.885
76531W        W49599  39.837  41.627   1.068
76532W        W49600  13.904   9.270  12.374
76533W        W49601  11.648  35.838  11.631
76534W        W49602  34.244  19.730  11.064
76535W        W49603   4.020   4.679   2.914
76536W        W49604  44.804  29.789  12.956
76537W        W49605  31.311  19.651  12.721
76538W        W49606  13.046   1.919   1.314
76539W        W49607   5.122  29.955   1.339
76540W        W49608   0.376   5.143   1.190
76541W        W49609  15.313  37.034   3.326
76542W        W49610   3.388  20.368  14.802
76543W        W49611  10.316  36.949  13.286
76544W        W49612  12.965  14.198  14.524
76545W        W49613  26.097  16.293   0.369
76546W        W49614   5.651  14.203   2.068
76547W        W49615  10.000   2.261  12.451
76548W        W49616  30.969  33.442  13.041
76549W        W49617  43.234  11.671  12.942
76550W        W49618  31.040  42.566  14.241
76551W        W49619  19.061  30.556   1.967
76552W        W49620  41.101  37.013  14.841
76553W        W49621  17.339   5.120  12.381
76554W        W49622  35.807  13.189  12.143
76555W        W49623   7.412   0.969  12.642
76556W        W49624  24.023  34.656   1.144
76557W        W49625  43.771   7.719  14.778
76558W        W49626  16.164  34.500  14.219
76559W        W49627  17.408  37.559  13.564
76560W        W49628  19.781   7.991  14.532
76561W        W49629  28.528  42.829   2.639
76562W        W49630   6.996  32.162  12.915
76563W        W49631  40.536   1.951  12.662
76564W        W49632  26.463  15.532  11.235
76565W        W49633  43.382  33.404  10.406
76566W        W49634  36.407   5.501  12.144
76567W        W49635  41.805  35.996  10.511
76568W        W49636  43.821   9.389  14.755
76569W        W49637  35.572  22.768  12.041
76570W        W49638   6.608  44.679   0.074
76571W        W49639  25.101  15.592   0.591
76572W        W49640  34.836   9.328   1.723
76573W        W49641  19.659  14.864  12.424
76574W        W49642  17.308  29.683   3.189
76575W        W49643   3.635  22.231   0.005
76576W        W49644  43.093  31.946  11.178
76577W        W49645  44.422  22.747   3.292
76578W        W49646  19.009  29.387  13.069
76579W        W49647   8.038  42.986   1.344
76580W        W49648  21.361  36.457   1.836
76581W        W49649  13.046   5.689  14.670
76582W        W49650  11.847  11.588  12.847
76583W        W49651  35.462  11.286   2.395
76584W        W49652  13.249  27.193   1.783
76585W        W49653  14.312   8.932   1.865
76586W        W49654  17.008  39.527  13.683
76587W        W49655  32.045  38.918  13.252
76588W        W49656  23.985   3.448   1.017
76589W        W49657  30.609  19.750  11.222
76590W        W49658  32.701  18.812  12.868
76591W        W49659   0.918  10.889   4.690
76592W        W49660  27.722   1.478   1.777
76593W        W49661  39.546  42.540  13.896
76594W        W49662  22.454  37.276  12.569
76595W        W49663  32.589  10.967   3.488
76596W        W49664  21.009  16.697  12.612
76597W        W49665  42.357  17.461  14.874
76598W        W49666  11.267  11.810   3.680
76599W        W49667  32.643  37.338   3.688
76600W        W49668  22.992  40.966   2.800
76601W        W49669   0.446  44.553  11.018
76602W        W49670   0.520  39.036   3.646
76603W        W49671  40.473  32.599   1.358
76604W        W49672   8.887  44.244  13.569
76605W        W49673  30.994  20.009  12.861
76606W        W49674  28.993  10.897   3.161
76607W        W49675  35.441  36.830   3.132
76608W        W49676  42.820  18.777   1.759
76609W        W49677  43.784  23.967  13.115
76610W        W49678  18.244  41.765  12.114
76611W        W49679  13.067  28.131   1.064
76612W        W49680  13.257  33.390   4.603
76613W        W49681  28.418  20.060   3.334
76614W        W49682  23.783   1.804   1.706
76615W        W49683  33.127  19.773  13.475
76616W        W49684   0.901  11.896  12.492
76617W        W49685  10.195  41.822  13.018
76618W        W49686  22.937  40.354  11.579
76619W        W49687   3.273  20.313  12.999
76620W        W49688  19.370   4.581  11.211
76621W        W49689   2.884  22.571   4.234
76622W        W49690  32.133  42.271   2.271
76623W        W49691   1.041  16.702   1.670
76624W        W49692  24.035  37.846   3.028
76625W        W49693   4.153  32.186  14.731
76626W        W49694  16.198  35.479   3.940
76627W        W49695  41.038  31.463   4.285
76628W        W49696  32.890  20.815  13.465
76629W        W49697  28.125  43.447   1.834
76630W        W49698   7.433  28.513   1.322
76631W        W49699  15.910  31.754   4.177
76632W        W49700  12.744   2.291   0.453
76633W        W49701  23.286  38.087   4.118
76634W        W49702   5.259  43.914  11.899
76635W        W49703   7.452  10.169  12.630
76636W        W49704  39.476   9.485  13.452
76637W        W49705  28.072  30.968  14.977
76638W        W49706  37.433   5.633   1.958
76639W        W49707   9.898  34.882  14.306
76640W        W49708  15.145  28.670   0.862
76641W        W49709  32.871  19.923  11.059
76642W        W49710   3.333  12.135  10.515
76643W        W49711   3.812  38.816   4.817
76644W        W49712  36.672  29.745   1.789
76645W        W49713  29.788  35.937   1.948
76646W        W49714  41.248  15.359  13.495
76647W        W49715  35.563  12.762   4.092
76648W        W49716  35.619  36.093   2.462
76649W        W49717  20.316   3.825   0.890
76650W        W49718  28.015  30.802  12.830
76651W        W49719  34.601  37.871   2.881
76652W        W49720  31.556  15.765  12.092
76653W        W49721  31.055  44.473   4.622
76654W        W49722   2.879  12.181   3.291
76655W        W49723  35.858  28.698   0.949
76656W        W49724   7.433  31.450  14.800
76657W        W49725   9.075  44.428   2.608
76658W        W49726  18.983  17.581  12.944
76659W        W49727  34.553   4.683   3.319
76660W        W49728   8.164  28.086   1.051
76661W        W49729  30.127   8.237  10.925
76662W        W49730  20.690  16.123   0.605
76663W        W49731  15.145  43.352  12.869
76664W        W49732  27.973  25.384  10.014
76665W        W49733  37.967   2.387   4.233
76666W        W49734  11.621  28.318  12.596
76667W        W49735  21.640   4.431  10.644
76668W        W49736  20.169  23.233   3.744
76669W        W49737  31.903  40.269  13.569
76670W        W49738  25.257  33.105  11.576
76671W        W49739   3.813  35.910  14.300
76672W        W49740  36.781  25.168   0.202
76673W        W49741  26.108  29.120   2.767
76674W        W49742  43.288  41.744  13.549
76675W        W49743  24.667  28.536   2.741
76676W        W49744  17.038  32.420  12.537
76677W        W49745   7.200  42.371   0.438
76678W        W49746  23.223   4.439  10.570
76679W        W49747  39.081  37.880   3.911
76680W        W49748   5.745  23.633   1.227
76681W        W49749  10.328   4.470   3.170
76682W        W49750  21.689  34.481   3.124
76683W        W49751  31.037  13.849   1.011
76684W        W49752  10.082  11.092   0.596
76685W        W49753   2.457   6.431  14.474
76686W        W49754  29.561  35.830  11.236
76687W        W49755   1.668  16.477  14.492
76688W        W49756  42.081  14.760   4.537
76689W        W49757  20.160  35.801  11.443
76690W        W49758  40.837  27.164  13.917
76691W        W49759   7.199  33.236   0.541
76692W        W49760  10.391  20.690  12.539
76693W        W49761  19.311   5.550  11.075
76694W        W49762  40.296  19.355   3.688
76695W        W49763  42.520  39.322   3.134
76696W        W49764  22.524  26.125  13.411
76697W        W49765  11.824  12.122   0.389
76698W        W49766  11.213  19.841   4.146
76699W        W49767   5.625   9.165   0.936
76700W        W49768  13.824  29.391   2.730
76701W        W49769  11.769  10.791  10.684
76702W        W49770   4.940   6.290   4.202
76703W        W49771  35.999  19.733  10.726
76704W        W49772   4.026   0.322   3.137
76705W        W49773  20.502  32.730   4.548
76706W        W49774  28.068  44.432   0.293
76707W        W49775   2.961  21.115   2.808
76708W        W49776  28.082  42.481   4.636
76709W        W49777   4.901  38.445  11.912
76710W        W49778   2.810   3.736  13.834
76711W        W49779  21.364   5.126  13.743
76712W        W49780  43.454  30.657  14.387
76713W        W49781   7.234  15.241  11.818
76714W        W49782   8.860  21.969   3.837
76715W        W49783   7.855   3.306  11.730
76716W        W49784  17.247  42.952  12.163
76717W        W49785  43.935  11.280  13.064
76718W        W49786  20.199  23.556   0.687
76719W        W49787  30.701   9.671   2.179
76720W        W49788   6.471  14.970  10.659
76721W        W49789   3.204  19.554   4.582
76722W        W49790  43.931  27.505   4.571
76723W        W49791  14.421  15.342  13.413
76724W        W49792  37.522   8.918   3.001
76725W        W49793  16.617  15.141   1.641
76726W        W49794  11.139  10.366   1.903
76727W        W49795   7.989  35.778  13.219
76728W        W49796  36.404   6.750   0.499
76729W        W49797  12.195  33.819  10.811
76730W        W49798  44.594  38.998  10.461
76731W        W49799  39.997  20.094   3.504
76732W        W49800  34.085  41.622   3.195
76733W        W49801  28.935  24.198   0.799
76734W        W49802  10.900   0.826  12.544
76735W        W49803  24.799  38.796  14.317
76736W        W49804   4.264   9.266   1.486
76737W        W49805  19.843  21.241  13.068
76738W        W49806   9.288  16.757   1.481
76739W        W49807  21.699  20.650   0.172
76740W        W49808  35.331   3.712   0.541
76741W        W49809  24.228  39.344   1.816
76742W        W49810  41.505  10.631  11.720
76743W        W49811  17.646   0.985   2.614
76744W        W49812   2.576  13.869  11.167
76745W        W49813   5.154  13.339   0.772
76746W        W49814  32.076  12.550   1.467
76747W        W49815  27.507   3.028   2.198
76748W        W49816  37.874   8.234   5.031
76749W        W49817  17.603   1.871   4.819
76750W        W49818  21.612  36.386   0.485
76751W        W49819  20.678   0.865   3.711
76752W        W49820  39.297  21.645   0.310
76753W        W49821  14.297  39.121   2.492
76754W        W49822  16.058  13.804  13.974
76755W        W49823  31.675  15.166  14.253
76756W        W49824  20.063  26.884   1.412
76757W        W49825  28.108  42.430   2.818
76758W        W49826   3.850  14.754   4.256
76759W        W49827  15.523  35.093   2.492
76760W        W49828  27.914  42.025   0.247
76761W        W49829  38.616  44.959   3.126
76762W        W49830  16.474  18.281   4.139
76763W        W49831  11.478  40.304  14.832
76764W        W49832   2.677  39.429  13.912
76765W        W49833   4.130   5.242  11.092
76766W        W49834  33.519  29.910   3.584
76767W        W49835  15.144  32.638   0.457
76768W        W49836  38.637  26.045   1.138
76769W        W49837  14.118  37.560  12.887
76770W        W49838  36.659  29.475   4.144
76771W        W49839  41.855  40.534   2.365
76772W        W49840  38.480  38.888   4.446
76773W        W49841  34.400   6.806  13.795
76774W        W49842  16.784   9.663  11.356
76775W        W49843  35.561   8.444   2.849
76776W        W49844   7.235  38.388  14.314
76777W        W49845  21.191  11.287   4.162
76778W        W49846  17.821   2.930  14.903
76779W        W49847  14.618  30.926  12.188
76780W        W49848  10.629   0.951   2.875
76781W        W49849  43.307  18.256  14.950
76782W        W49850  38.446  42.148   4.179
76783W        W49851  22.636   0.491  10.722
76784W        W49852  39.300   7.257  13.902
76785W        W49853  24.446   1.270  13.329
76786W        W49854   6.206  22.684   1.309
76787W        W49855  22.672   8.819  14.634
76788W        W49856  19.534   8.868   3.247
76789W        W49857  16.603  39.844   3.715
76790W        W49858  26.648  39.593  12.019
76791W        W49859  14.953   6.660   1.676
76792W        W49860   7.162  44.973  12.375
76793W        W49861  38.954  38.675   2.744
76794W        W49862  35.680  17.104  11.571
76795W        W49863  24.652  27.197   1.312
76796W        W49864   0.334   6.757  11.154
76797W        W49865   5.371  39.521   2.651
76798W        W49866  36.098  11.470  11.096
76799W        W49867   1.753   3.488  13.222
76800W        W49868  19.002  31.541  11.209
76801W        W49869  26.998  11.886   3.298
76802W        W49870  12.835  34.468  12.991
76803W        W49871  24.924  19.612  13.393
76804W        W49872  37.822  20.050  13.935
76805W        W49873  16.799  10.193  10.693
76806W        W49874  25.875  23.295   0.699
76807W        W49875  12.544  30.921   2.918
76808W        W49876  44.782  41.695  13.319
76809W        W49877   0.970  12.233   3.861
76810W        W49878   1.876  31.122  12.016
76811W        W49879  13.771  23.671  12.504
76812W        W49880  11.878  25.033  11.021
76813W        W49881  44.515  34.002  12.926
76814W        W49882  30.318  13.802   4.444
76815W        W49883  36.350  11.411  11.618
76816W        W49884   1.865   6.903   4.582
76817W        W49885  11.249  29.630  13.923
76818W        W49886  43.922  41.121  11.713
76819W        W49887   1.154  15.642   2.616
76820W        W49888   4.999  25.376  13.986
76821W        W49889  35.370   6.143  13.866
76822W        W49890  16.738  30.410  14.412
76823W        W49891  25.457  36.196  10.841
76824W        W49892  11.619  32.829  14.205
76825W        W49893  36.347  35.389   2.513
76826W        W49894  44.380  10.607   0.060
76827W        W49895  40.562  31.896  13.072
76828W        W49896  12.239  25.242  12.859
76829W        W49897  16.272  35.324  14.608
76830W        W49898  22.926  31.607  12.582
76831W        W49899  42.761  16.625  14.545
76832W        W49900  29.155  31.614   3.784
76833W        W49901  21.093  29.902   3.702
76834W        W49902  10.217  10.686  12.262
76835W        W49903  15.257  40.324   0.437
76836W        W49904   0.313  44.748  11.486
76837W        W49905  30.604  10.969  12.669
76838W        W49906  27.504   0.108   0.009
76839W        W49907  36.297  13.357   4.208
76840W        W49908  31.351   1.814  12.249
76841W        W49909  26.546  27.519   0.752
76842W        W49910  29.921  24.224  11.222
76843W        W49911  36.276  18.503  12.888
76844W        W49912   9.482  40.540   0.710
76845W        W49913   2.913  11.581  12.102
76846W        W49914  38.306   0.401   4.566
76847W        W49915  17.651   2.919   2.316
76848W        W49916  19.123  33.461   4.589
76849W        W49917   2.231  34.544   0.136
76850W        W49918  17.560  43.385  12.575
76851W        W49919  33.454  43.855   0.772
76852W        W49920  41.874  30.156  13.324
76853W        W49921  19.016  16.626  13.154
76854W        W49922  19.780  40.843  13.016
76855W        W49923  37.881  32.373   3.217
76856W        W49924  25.546  37.883   3.155
76857W        W49925  36.117  15.247  11.115
76858W        W49926  35.314   8.346  13.855
76859W        W49927   5.478  29.510   3.278
76860W        W49928  37.048  11.339   0.234
76861W        W49929  22.718  28.666  12.406
76862W        W49930   7.222   7.097  12.601
76863W        W49931  19.846   3.853   0.734
76864W        W49932  39.279  15.662  11.457
76865W        W49933  39.313  14.408   1.312
76866W        W49934  35.538   5.005  14.882
76867W        W49935  39.915  34.687   4.139
76868W        W49936  10.801  24.283   4.736
76869W        W49937  22.793  39.266   3.253
76870W        W49938  38.915  44.865   2.682
76871W        W49939  33.142  12.331   3.088
76872W        W49940  41.332   0.356   3.302
76873W        W49941   6.699  21.864  10.998
76874W        W49942  23.036  21.779   3.119
76875W        W49943  39.113  38.048   3.431
76876W        W49944  19.010   3.388  11.978
76877W        W49945  35.049  30.601  11.993
76878W        W49946   1.240   1.171  12.981
76879W        W49947  21.142   1.603  10.144
76880W        W49948  29.465   7.213  13.975
76881W        W49949  26.304  31.958  13.595
76882W        W49950  19.707  44.924  12.451
76883W        W49951  40.642  35.063   0.412
76884W        W49952  10.314  10.198   4.071
76885W        W49953  26.502   3.492   2.270
76886W        W49954  21.552  29.830   0.884
76887W        W49955  12.446  20.105   2.803
76888W        W49956  15.463  39.078   0.853
76889W        W49957  28.132  42.785   4.073
76890W        W49958  40.248  16.373   0.366
76891W        W49959  22.513   2.329  13.503
76892W        W49960  28.223  44.370  12.976
76893W        W49961  31.943  20.985   4.439
76894W        W49962  39.016  10.142  11.028
76895W        W49963  17.231  30.304   0.092
76896W        W49964  11.212   7.644  12.572
76897W        W49965  28.530  27.581  11.124
76898W        W49966   1.142  31.114   1.189
76899W        W49967  24.080  30.148   4.442
76900W        W49968   6.854  37.074   2.322
76901W        W49969  33.511   3.705   2.340
76902W        W49970  15.810  10.667  14.415
76903W        W49971  21.505   9.646  11.741
76904W        W49972  22.732   4.790  12.053
76905W        W49973  12.244   9.968  13.639
76906W        W49974  41.062  42.846   0.058
76907W        W49975  18.814  44.897  14.078
76908W        W49976   9.866  34.560  11.005
76909W        W49977  12.126  39.205  13.975
76910W        W49978  16.367  32.125  14.249
76911W        W49979  36.428  42.754  13.387
76912W        W49980  38.376  38.068  14.416
76913W        W49981  23.219  23.600   3.351
76914W        W49982  24.440  17.880   0.651
76915W        W49983   3.500  15.751  14.902
76916W        W49984   3.396  38.719   2.624
76917W        W49985   3.000   4.013   4.441
76918W        W49986   0.811  44.650   0.489
76919W        W49987  31.953  36.360  14.557
76920W        W49988  28.964  43.497   4.019
76921W        W49989  35.123  43.558  14.364
76922W        W49990   0.345  16.326   1.311
76923W        W49991  11.917  22.200  12.444
76924W        W49992   6.924  27.136   4.350
76925W        W49993   4.227  44.706  12.438
76926W        W49994  43.707  20.623  13.283
76927W        W49995  37.658  25.486  13.942
76928W        W49996  13.135  28.711   3.728
76929W        W49997  28.413  26.500   3.287
76930W        W49998  30.174  18.588  13.257
76931W        W49999   1.543  43.408  13.890
76932W        W50000   4.479  29.433   3.141
76933W        W50001  42.253  30.483  13.606
76934W        W50002   7.421  10.244  14.046
76935W        W50003  17.196  18.351   4.660
76936W        W50004  14.257  26.683  11.709
76937W        W50005  13.672  42.348  14.577
76938W        W50006  36.408   6.669   4.133
76939W        W50007   6.414  31.591   4.158
76940W        W50008  33.375  29.583  14.069
76941W        W50009  43.261   0.827  11.737
76942W        W50010   6.226  25.497  11.384
76943W        W50011  15.569  32.540  10.776
76944W        W50012  40.747   3.357  12.829
76945W        W50013  15.095  23.631  12.006
76946W        W50014  37.775  23.999   4.178
76947W        W50015  10.467  19.045   0.562
76948W        W50016  13.814  24.992  14.938
76949W        W50017  16.548   7.658  13.505
76950W        W50018   2.712  21.592  10.598
76951W        W50019   2.541  25.652  11.543
76952W        W50020  26.217  31.688   4.621
76953W        W50021  40.560  18.745   0.402
76954W        W50022  21.914  35.590   3.664
76955W        W50023  25.030  19.534   2.304
76956W        W50024  35.590  19.366   0.458
76957W        W50025  37.583  33.213   0.131
76958W        W50026  18.381   7.380  12.982
76959W        W50027  34.040  17.828   0.387
76960W        W50028  33.613  37.584   1.250
76961W        W50029  29.825   8.243  12.423
76962W        W50030   7.933  37.115   4.817
76963W        W50031   2.822  38.581  14.341
76964W        W50032  36.239  32.176  11.553
76965W        W50033  26.823   2.631  11.947
76966W        W50034   1.674  40.743  11.502
76967W        W50035   4.166  39.581   4.478
76968W        W50036  44.355  36.514   3.268
76969W        W50037  35.119  15.692  10.676
76970W        W50038  44.564  32.819   0.744
76971W        W50039  10.839  15.615   4.084
76972W        W50040  18.742   4.849   1.325
76973W        W50041  40.794   8.290   1.791
76974W        W50042  31.853   2.738   1.850
76975W        W50043  22.047  28.282   0.471
76976W        W50044   6.093  27.006  10.763
76977W        W50045  37.338  35.631   0.358
76978W        W50046  33.073   1.524   0.311
76979W        W50047  21.027  43.591  14.386
76980W        W50048  14.994  23.652   3.027
76981W        W50049  23.092  36.819   1.600
76982W        W50050  32.632  33.121   3.178
76983W        W50051  11.284   1.821   1.849
76984W        W50052  23.564   4.268   1.614
76985W        W50053  29.487  13.833   2.136
76986W        W50054  22.268  38.914  12.016
76987W        W50055  42.843  44.332  11.924
76988W        W50056  42.871  21.664   3.581
76989W        W50057  12.267  27.960   3.321
76990W        W50058  42.315   7.486  14.505
76991W        W50059  14.100  36.137  12.114
76992W        W50060  20.644  43.226  11.206
76993W        W50061  32.943  28.506  11.663
76994W        W50062  32.387  34.809  11.134
76995W        W50063  28.719  41.534   0.421
76996W        W50064   0.743  15.220   3.806
76997W        W50065  23.327  44.844   1.867
76998W        W50066  38.477   2.309   1.189
76999W        W50067  17.441  39.565  13.378
77000W        W50068  36.465  23.502   0.750
77001W        W50069  16.717  19.310  13.438
77002W        W50070  20.696   7.974   1.196
77003W        W50071  27.390  21.734   0.443
77004W        W50072  26.423  44.359  11.483
77005W        W50073  23.257  41.948  11.113
77006W        W50074  20.129  35.934   1.337
77007W        W50075  32.687   7.770   4.558
77008W        W50076   6.843  37.751  14.628
77009W        W50077  21.539  30.441   2.939
77010W        W50078  25.707   8.295  13.790
77011W        W50079  15.513  30.183  13.561
77012W        W50080  20.086  28.939   0.687
77013W        W50081  37.411  19.068  10.695
77014W        W50082  33.646  20.530  14.594
77015W        W50083  40.565   9.434  14.698
77016W        W50084  24.214  34.466   0.104
77017W        W50085  13.596  34.175  14.402
77018W        W50086   9.650   3.592   2.451
77019W        W50087  31.026  44.918   3.400
77020W        W50088  25.080   9.154   4.843
77021W        W50089  22.145  31.049  14.727
77022W        W50090  37.240  37.521  12.051
77023W        W50091  16.023  33.902  11.606
77024W        W50092  17.160  27.413  11.205
77025W        W50093  14.823  42.535   1.767
77026W        W50094  35.866  27.265   0.887
77027W        W50095   3.692  23.655   4.558
77028W        W50096  29.505  30.646   2.740
77029W        W50097   4.937  12.193  11.613
77030W        W50098   1.698  27.154   0.428
77031W        W50099  25.070  11.044   1.687
77032W        W50100  17.825   9.307  14.178
77033W        W50101  18.068  23.237  14.985
77034W        W50102  33.570  24.904  14.280
77035W        W50103   5.248  40.046   3.686
77036W        W50104  42.257  23.570  11.124
77037W        W50105  27.475  31.446   3.665
77038W        W50106   1.975  33.189  11.522
77039W        W50107   8.138  24.002   2.301
77040W        W50108   6.580  32.633   3.414
77041W        W50109  38.062  44.724   0.967
77042W        W50110  44.967   3.916   0.986
77043W        W50111  30.175  13.173  12.354
77044W        W50112  14.550   0.751  10.776
77045W        W50113  27.121  40.985   4.152
77046W        W50114  35.215  27.480   4.661
77047W        W50115  41.450  25.444   4.817
77048W        W50116  25.269  10.842  13.005
77049W        W50117  28.030   4.514   5.191
77050W        W50118  43.451  36.821   4.216
77051W        W50119   2.999  25.663   3.315
77052W        W50120   1.747  26.166   3.321
77053W        W50121  41.368  20.604   4.466
77054W        W50122  32.152  12.176   0.230
77055W        W50123  24.057  41.395   3.126
77056W        W50124  15.273  19.080   0.366
77057W        W50125  19.536  43.869   3.833
77058W        W50126  21.243  34.891  11.870
77059W        W50127  15.669  16.977   3.400
77060W        W50128   3.459  11.411  11.202
77061W        W50129  32.181  43.218   3.332
77062W        W50130  21.580  11.853  14.796
77063W        W50131  30.753  26.990   0.531
77064W        W50132  21.232  27.642  11.544
77065W        W50133  14.548   8.245  12.187
77066W        W50134  28.207  11.213   4.203
77067W        W50135  24.676  38.415   4.042
77068W        W50136  10.676   6.523   2.732
77069W        W50137  26.482  44.998  10.753
77070W        W50138  44.997  33.492   4.334
77071W        W50139  33.326   5.966   1.907
77072W        W50140   9.310   1.813  13.947
77073W        W50141  12.361  19.054   3.573
77074W        W50142  24.045  17.653   1.938
77075W        W50143  39.634  12.698   4.101
77076W        W50144  12.765  34.247  12.540
77077W        W50145   1.432  15.721   3.602
77078W        W50146  25.349  39.139  12.855
77079W        W50147  22.751  26.492  10.727
77080W        W50148  40.849   5.302   2.214
77081W        W50149  19.946  44.160   3.949
77082W        W50150  43.804  18.008  10.716
77083W        W50151   5.526  18.637  11.420
77084W        W50152  40.879  24.296   2.351
77085W        W50153  20.761   1.942   2.735
77086W        W50154  37.418  27.245   2.766
77087W        W50155  21.863   8.951   0.813
77088W        W50156  16.539  25.493   1.451
77089W        W50157  44.657  19.628  13.219
77090W        W50158  12.848  22.070  14.794
77091W        W50159   7.248  20.214  14.101
77092W        W50160  20.600  29.591   1.901
77093W        W50161   1.373   1.663  13.010
77094W        W50162  27.493  20.135   2.652
77095W        W50163  10.220  31.785  13.081
77096W        W50164   7.577  44.288  12.516
77097W        W50165  44.824  13.377  12.430
77098W        W50166  36.005   3.280  11.980
77099W        W50167  12.767  31.938  14.947
77100W        W50168  39.844  39.304  14.075
77101W        W50169  28.657  17.093   2.229
77102W        W50170  25.625  23.694   2.648
77103W        W50171  34.007  31.597  14.755
77104W        W50172   5.853   7.659  12.389
77105W        W50173  17.116  42.858   4.585
77106W        W50174  32.542  19.132  14.444
77107W        W50175  35.967   0.708  13.423
77108W        W50176  10.629  19.341   3.853
77109W        W50177  14.650  41.459   4.655
77110W        W50178  40.936   0.713   1.770
77111W        W50179  37.913  44.822   2.903
77112W        W50180  41.307  15.240   0.389
77113W        W50181  43.597  42.894   2.632
77114W        W50182  36.948  28.572  14.643
77115W        W50183  33.852  24.526   3.913
77116W        W50184   5.291  41.976  10.588
77117W        W50185  30.551  13.451   4.120
77118W        W50186  41.274   5.489   1.919
77119W        W50187  34.194  28.621  13.994
77120W        W50188  18.239  21.350  11.523
77121W        W50189   7.688   9.403   4.226
77122W        W50190   9.851  26.266  14.455
77123W        W50191  10.555  40.523   1.522
77124W        W50192  35.541  36.649  13.524
77125W        W50193  34.711  20.264  11.828
77126W        W50194  33.471  23.342  13.407
77127W        W50195  12.633  34.593  14.893
77128W        W50196  10.673  18.861  12.644
77129W        W50197  42.044  10.503  11.818
77130W        W50198  38.789   3.479   1.430
77131W        W50199  43.893  21.476  10.659
77132W        W50200  30.410   0.321  13.668
77133W        W50201  43.304  35.109   0.799
77134W        W50202  34.348  26.208  12.088
77135W        W50203  40.903  21.517   3.436
77136W        W50204   9.792  43.367   2.836
77137W        W50205  11.657  26.038  14.502
77138W        W50206  35.882  28.724  12.421
77139W        W50207   2.831  28.431  14.046
77140W        W50208  38.399  24.928   4.989
77141W        W50209  37.485  44.419  13.069
77142W        W50210  35.926  28.616  13.733
77143W        W50211   7.960   8.963   1.948
77144W        W50212  19.449  39.793  11.986
77145W        W50213  14.298  25.079   3.690
77146W        W50214   5.541  20.636   4.022
77147W        W50215  10.782  30.094  13.146
77148W        W50216  44.721  28.059   4.158
77149W        W50217  25.014  20.190   4.647
77150W        W50218  14.378   8.630  11.164
77151W        W50219   2.224  33.426   0.300
77152W        W50220   3.992  13.143   3.718
77153W        W50221  20.604   3.238  11.523
77154W        W50222  12.799   4.479   2.326
77155W        W50223   6.895   6.202   0.729
77156W        W50224  32.489  38.595   4.144
77157W        W50225   7.311  26.916  13.482
77158W        W50226  24.636  33.321   4.224
77159W        W50227  13.552  27.578   3.215
77160W        W50228  26.381  22.838   2.302
77161W        W50229   9.728  32.463   0.448
77162W        W50230   2.912   1.460  11.446
77163W        W50231  31.951  37.684   2.194
77164W        W50232  27.099  14.735   2.798
77165W        W50233  19.057  17.631   1.410
77166W        W50234   9.157  31.858  13.849
77167W        W50235  31.450  15.526  10.913
77168W        W50236  17.346  25.557  11.960
77169W        W50237  28.686  11.144  14.469
77170W        W50238  18.063  44.255  11.642
77171W        W50239  18.683   6.371  10.663
77172W        W50240  12.769  31.048  14.812
77173W        W50241   4.895   3.357  12.989
77174W        W50242   1.544  20.007   4.129
77175W        W50243  41.063  32.370   5.203
77176W        W50244   7.716  17.753  13.813
77177W        W50245  11.469  10.847   4.432
77178W        W50246  28.908  20.784  13.876
77179W        W50247  10.642  34.386   4.152
77180W        W50248  31.902  28.638  13.999
77181W        W50249  33.716  40.049  12.368
77182W        W50250  26.197   1.865   1.512
77183W        W50251  38.110  37.007  14.789
77184W        W50252   4.845  31.452  11.975
77185W        W50253  42.521  14.005   5.057
77186W        W50254  18.312  18.197  13.548
77187W        W50255  26.648  17.210   3.582
77188W        W50256  24.366  26.539  12.427
77189W        W50257  18.567  35.275  12.375
77190W        W50258  21.697   6.531  11.710
77191W        W50259  15.616  19.772  14.009
77192W        W50260  19.174  34.820   0.475
77193W        W50261   1.587   8.464  12.622
77194W        W50262  33.918   0.519   1.863
77195W        W50263  34.426  36.336  10.734
77196W        W50264  31.531  22.295   3.357
77197W        W50265   3.188  32.192   3.799
77198W        W50266  15.567  30.700  13.634
77199W        W50267  30.110  26.947  11.112
77200W        W50268  17.795  43.834  12.382
77201W        W50269  31.609   0.450   0.144
77202W        W50270  15.387  36.860  14.871
77203W        W50271  34.131   5.494  10.889
77204W        W50272   9.725  21.735  14.778
77205W        W50273  27.965  35.915  14.516
77206W        W50274  31.544  37.476  14.419
77207W        W50275  23.389  39.326  13.867
77208W        W50276   9.826   1.586   4.616
77209W        W50277  38.526  16.909   4.164
77210W        W50278  16.047  21.406  14.964
77211W        W50279  22.986  19.680  11.519
77212W        W50280   9.335  16.214  11.777
77213W        W50281   6.721  39.751  13.075
77214W        W50282  24.735   1.126   3.549
77215W        W50283   5.796   5.324  14.294
77216W        W50284  34.602  42.009   0.982
77217W        W50285  23.192   3.593   4.992
77218W        W50286   0.473  15.614   4.007
77219W        W50287  22.672   0.956  10.481
77220W        W50288  25.451  18.416  13.958
77221W        W50289   3.438  43.452   3.111
77222W        W50290  43.602   9.946   3.843
77223W        W50291   6.471  29.948  13.484
77224W        W50292  31.983  42.871   0.880
77225W        W50293  26.156  17.868   1.578
77226W        W50294  42.783   1.719  13.793
77227W        W50295  40.063  37.332  13.601
77228W        W50296   2.519   1.916  13.320
77229W        W50297  11.709   7.700   3.850
77230W        W50298  41.330  28.555   4.535
77231W        W50299  27.079  10.790   2.669
77232W        W50300  42.962  14.384  14.471
77233W        W50301  43.267  38.074   4.685
77234W        W50302  28.698  41.483   3.428
77235W        W50303  35.280  10.395   2.796
77236W        W50304  44.874  12.840  11.547
77237W        W50305  27.118  44.554   0.369
77238W        W50306   0.250  43.563  12.646
77239W        W50307  35.440  29.606  12.894
77240W        W50308  22.521   3.784  12.428
77241W        W50309  23.093  22.631   4.277
77242W        W50310   6.209  42.886  14.516
77243W        W50311  30.997  44.138   5.101
77244W        W50312   8.060  22.588  12.478
77245W        W50313  42.961   4.176  13.969
77246W        W50314  10.341  13.332  12.706
77247W        W50315  24.470  43.491  14.434
77248W        W50316   0.007  14.409  10.809
77249W        W50317   4.464  29.928   0.153
77250W        W50318   1.175   4.343  11.695
77251W        W50319  22.754  10.865  13.840
77252W        W50320  16.195  43.836   3.713
77253W        W50321  35.309  35.305   4.270
77254W        W50322   2.736   5.709  11.061
77255W        W50323   1.041   1.083   5.055
77256W        W50324   2.115  30.678  11.821
77257W        W50325  33.171   5.057   2.256
77258W        W50326  28.200  15.359   3.757
77259W        W50327  28.499  21.068   4.147
77260W        W50328  44.318  41.535   0.640
77261W        W50329  10.797  10.870  11.024
77262W        W50330  27.640  14.629   4.634
77263W        W50331   7.464  10.725   3.206
77264W        W50332  17.303  21.360   1.845
77265W        W50333  26.099  17.144  11.998
77266W        W50334  42.301   5.086   2.647
77267W        W50335   6.348  39.296   1.498
77268W        W50336   6.426  37.536  12.922
77269W        W50337   3.387  12.858   4.245
77270W        W50338  29.548  21.195   4.144
77271W        W50339  23.491  42.401  13.900
77272W        W50340  18.643   4.431  11.378
77273W        W50341  16.296  33.601  11.114
77274W        W50342  43.682  31.672   3.630
77275W        W50343  42.361  17.632  10.640
77276W        W50344  43.292   3.786   3.625
77277W        W50345   1.198   1.228   1.186
77278W        W50346   3.044  13.898   2.814
77279W        W50347  37.074  23.665  10.580
77280W        W50348  14.865  12.243  13.072
77281W        W50349   6.315  36.502  10.731
77282W        W50350  36.702  36.679  14.947
77283W        W50351  26.019  11.596  10.583
77284W        W50352   7.014  26.539   0.294
77285W        W50353   6.311   8.616  14.904
77286W        W50354  30.551  38.927   5.033
77287W        W50355  26.181   8.349   0.453
77288W        W50356   8.452  40.483   0.569
77289W        W50357   3.328  13.653   4.627
77290W        W50358  40.553  22.346  12.395
77291W        W50359  40.980  13.550  14.395
77292W        W50360  44.975  44.515   2.666
77293W        W50361  38.107  43.916  14.965
77294W        W50362  13.325   2.346   1.129
77295W        W50363  38.886  42.230  10.712
77296W        W50364  17.443  12.290  14.222
77297W        W50365  26.142  14.314   1.316
77298W        W50366  37.976  36.515   3.235
77299W        W50367   2.264  26.206   4.700
77300W        W50368  41.916  24.311   3.923
77301W        W50369  13.749  33.361   0.053
77302W        W50370  41.839  16.076  12.045
77303W        W50371   3.746   8.340   4.156
77304W        W50372  36.309  19.784  13.403
77305W        W50373  31.651  33.790  13.821
77306W        W50374  31.008  25.720   1.186
77307W        W50375  37.115   7.102  10.461
77308W        W50376   5.268  20.208   1.123
77309W        W50377  23.252  21.047  12.876
77310W        W50378  30.393  38.948  10.651
77311W        W50379  36.844  35.410   0.386
77312W        W50380   3.824  13.837   4.364
77313W        W50381  40.355  42.063  11.638
77314W        W50382   7.437   6.317  11.454
77315W        W50383   9.271   5.906  11.733
77316W        W50384  28.006  25.192  13.409
77317W        W50385  19.373   8.435  11.060
77318W        W50386   8.305  38.876   2.270
77319W        W50387  38.125  17.072  12.003
77320W        W50388  31.132  36.634  14.396
77321W        W50389  33.304  44.791   0.974
77322W        W50390   2.209   5.802   4.273
77323W        W50391   0.021  44.353  14.959
77324W        W50392  23.104  14.019   0.900
77325W        W50393  18.116   3.484  11.527
77326W        W50394   1.875  36.779   0.192
77327W        W50395  21.271  41.662   1.465
77328W        W50396   2.863  31.511   2.224
77329W        W50397  34.000  35.472  12.293
77330W        W50398  26.126  23.633   1.518
77331W        W50399  31.204   5.907  12.342
77332W        W50400  16.005  34.984  14.304
77333W        W50401   8.325  41.575  13.103
77334W        W50402  16.409  14.341  11.164
77335W        W50403  42.733  20.723  10.264
77336W        W50404   8.222  14.841   0.799
77337W        W50405   4.593  34.416   2.131
77338W        W50406  27.968  19.118   3.710
77339W        W50407  13.096  21.031   3.626
77340W        W50408  18.512  17.611  14.787
77341W        W50409   0.406  31.967  10.919
77342W        W50410  43.842  44.003  14.753
77343W        W50411   0.871  36.071   4.653
77344W        W50412  33.497   1.372   5.215
77345W        W50413  18.736  33.347   3.345
77346W        W50414   4.905  27.640  11.259
77347W        W50415  25.253  40.644  10.985
77348W        W50416  15.712  40.633  11.361
77349W        W50417  23.393  13.732   3.822
77350W        W50418   2.512  36.087  14.794
77351W        W50419  28.176  44.388   2.181
77352W        W50420  17.719   6.888   3.069
77353W        W50421  17.773  15.648  14.799
77354W        W50422  31.812  11.732   0.953
77355W        W50423  33.824  15.285  10.598
77356W        W50424  31.523  36.071   1.094
77357W        W50425  34.205  44.094  14.285
77358W        W50426   2.805  30.260  12.734
77359W        W50427  14.565  35.877  13.971
77360W        W50428  24.734  31.603  10.624
77361W        W50429   8.957  36.219   1.405
77362W        W50430  32.111  21.547   0.470
77363W        W50431  23.114  36.451  14.593
77364W        W50432  21.602  12.514   2.942
77365W        W50433  29.977  26.459   4.790
77366W        W50434  44.336   9.379  11.522
77367W        W50435   4.738   7.902   4.201
77368W        W50436  38.026   0.564   2.154
77369W        W50437  21.975  27.578   2.427
77370W        W50438   7.610  21.967   2.713
77371W        W50439  42.166  37.224   3.155
77372W        W50440  22.690  15.033   2.764
77373W        W50441  35.092  11.641   3.732
77374W        W50442  43.300  41.868  12.557
77375W        W50443   1.087   7.547  14.853
77376W        W50444  26.151   1.827   4.434
77377W        W50445  43.780  22.832  11.623
77378W        W50446  19.529  36.098  14.737
77379W        W50447  24.031  32.443  12.516
77380W        W50448  29.378  30.113  13.311
77381W        W50449  28.643  15.693  12.522
77382W        W50450  27.115  21.882   0.859
77383W        W50451  24.850  32.370   4.124
77384W        W50452   1.106   5.564   3.050
77385W        W50453  31.465  36.529   2.167
77386W        W50454  24.133  14.568  11.999
77387W        W50455  14.055  39.699   1.765
77388W        W50456  25.490   2.956   1.419
77389W        W50457  38.532  41.501   3.120
77390W        W50458   6.691  38.150   3.716
77391W        W50459  33.643  29.937  11.973
77392W        W50460  39.872  26.734  14.339
77393W        W50461  34.446   6.654   3.880
77394W        W50462  30.546   6.175  14.038
77395W        W50463   1.277  18.235   4.680
77396W        W50464  14.238  17.752  11.655
77397W        W50465  25.786  41.368  13.959
77398W        W50466  15.766  13.400   1.836
77399W        W50467   3.413  39.115   5.007
77400W        W50468  40.961  44.754  11.465
77401W        W50469  22.643   5.962   4.174
77402W        W50470   8.015   3.811  14.138
77403W        W50471  42.078  32.114  10.742
77404W        W50472  21.000  13.846   1.757
77405W        W50473   2.576  41.906   4.160
77406W        W50474  29.147  19.777   2.384
77407W        W50475  24.328   9.026  12.787
77408W        W50476  29.887  20.732  10.540
77409W        W50477  41.834  40.278  10.405
77410W        W50478  36.070  29.191   2.783
77411W        W50479  42.889   5.694   3.868
77412W        W50480  11.480  38.287  12.490
77413W        W50481   9.654  41.803   4.993
77414W        W50482   9.761  19.388   2.036
77415W        W50483  19.260  27.948  10.728
77416W        W50484  43.070  18.669   3.070
77417W        W50485  37.400  18.702  13.876
77418W        W50486  32.704   4.292  11.153
77419W        W50487   3.769   7.336   1.999
77420W        W50488  41.065  35.499  11.524
77421W        W50489   7.648  32.639   4.182
77422W        W50490  16.321   7.106  12.052
77423W        W50491   5.876  28.395  10.665
77424W        W50492  32.396  11.895  12.494
77425W        W50493   1.877  37.229  11.775
77426W        W50494   8.327  32.712   3.626
77427W        W50495  26.000  40.175  12.307
77428W        W50496  43.920  40.068   0.309
77429W        W50497  21.578  44.425   1.407
77430W        W50498   2.452  29.926  12.495
77431W        W50499  17.354  27.951   2.805
77432W        W50500   7.870  35.601  10.689
77433W        W50501  39.855  23.607  11.250
77434W        W50502   8.148   6.156  14.939
77435W        W50503  28.135  37.464  13.384
77436W        W50504   0.733  33.448  11.207
77437W        W50505   5.248  35.102   1.273
77438W        W50506  20.948  14.004  14.894
77439W        W50507  36.590  19.706  14.455
77440W        W50508  37.566  14.057  12.934
77441W        W50509  18.744  44.721   2.151
77442W        W50510  24.175  11.474   1.845
77443W        W50511  38.003   2.230   0.939
77444W        W50512  39.778   0.814  14.861
77445W        W50513  11.891  37.309  11.618
77446W        W50514  10.207  27.034  11.510
77447W        W50515  35.517  39.493  13.905
77448W        W50516  42.383  22.100   4.239
77449W        W50517  16.579   7.829   3.969
77450W        W50518   3.029  40.044   0.444
77451W        W50519  19.848  27.851   0.516
77452W        W50520   5.514  35.547   0.352
77453W        W50521   2.897  10.757   3.088
77454W        W50522  24.108  39.359  11.860
77455W        W50523  25.094  21.866   3.662
77456W        W50524  33.034  17.990  13.969
77457W        W50525  40.031   8.730   4.994
77458W        W50526  41.204  23.240   1.207
77459W        W50527  18.086  23.684  13.402
77460W        W50528  42.709   2.944   4.891
77461W        W50529  20.209   6.409  10.374
77462W        W50530   4.483  42.034   1.362
77463W        W50531  43.620  37.106  13.590
77464W        W50532   4.218   1.895  13.917
77465W        W50533  15.752  28.991  14.636
77466W        W50534  19.758   5.671  10.712
77467W        W50535  28.587  35.941  13.097
77468W        W50536  44.485  30.644   4.173
77469W        W50537  22.435  12.830  13.503
77470W        W50538  12.277  39.407   3.881
77471W        W50539  22.207  37.397  14.139
77472W        W50540  30.133  35.850   1.235
77473W        W50541  37.460  42.252  14.910
77474W        W50542  28.600  39.858  14.069
77475W        W50543  27.496  33.410  13.938
77476W        W50544  17.599  29.510   1.348
77477W        W50545  14.787  11.784   1.181
77478W        W50546   7.308   0.182   3.251
77479W        W50547  38.681  38.484   2.319
77480W        W50548  15.230  12.065   0.295
77481W        W50549  10.646  20.719   4.158
77482W        W50550   7.695  27.198  13.189
77483W        W50551  13.760  30.159  11.758
77484W        W50552  37.460  36.638   3.300
77485W        W50553   0.679   8.934   1.829
77486W        W50554  43.482  18.824  10.494
77487W        W50555  38.037  10.980   4.392
77488W        W50556  42.506  43.357   0.704
77489W        W50557  20.050  41.281   2.410
77490W        W50558  23.094  25.634  11.058
77491W        W50559  12.441  10.197  11.089
77492W        W50560   8.842   0.513   2.893
77493W        W50561  11.591   3.044  11.187
77494W        W50562   8.866   2.860  12.396
77495W        W50563  18.729  26.570  10.822
77496W        W50564  20.056  34.917  14.851
77497W        W50565  37.297  22.262  12.774
77498W        W50566  11.255  34.119  11.646
77499W        W50567  44.490  38.434  14.233
77500W        W50568   4.821   2.985   0.570
77501W        W50569  25.611  24.928  13.521
77502W        W50570   9.891  29.000   2.881
77503W        W50571   1.329  21.247  14.208
77504W        W50572  41.491  36.119  12.547
77505W        W50573  30.025  28.483  12.123
77506W        W50574  12.562  23.719   3.197
77507W        W50575  30.582  16.333  10.546
77508W        W50576  31.056  11.818   4.677
77509W        W50577  16.249  18.092  10.753
77510W        W50578  32.582  16.867   2.757
77511W        W50579  18.346   8.360   0.713
77512W        W50580  36.646  40.258  14.409
77513W        W50581  14.065  16.874  12.513
77514W        W50582  32.865  39.940   1.440
77515W        W50583  41.127  16.058   3.591
77516W        W50584  24.504   7.037   3.989
77517W        W50585  40.869   8.223   2.699
77518W        W50586   5.956  36.119  10.729
77519W        W50587  37.258  10.441   1.239
77520W        W50588  14.292  15.286   4.818
77521W        W50589  43.625  12.547   2.258
77522W        W50590   9.776  30.316  13.373
77523W        W50591  37.440   3.188   9.970
77524W        W50592   9.179  24.553   3.365
77525W        W50593  12.349   7.677   2.763
77526W        W50594  20.058  21.157   0.887
77527W        W50595  33.138  35.008  14.818
77528W        W50596  13.791  34.550   1.425
77529W        W50597   6.706  15.641   1.717
77530W        W50598  32.098  21.826   3.755
77531W        W50599  22.596  34.392  11.102
77532W        W50600  44.645  36.844   5.105
77533W        W50601   3.710  27.868  13.969
77534W        W50602  29.553  19.634   2.085
77535W        W50603   9.316  44.697  10.685
77536W        W50604  43.760  27.015   4.694
77537W        W50605  19.759  40.167   4.654
77538W        W50606   5.291   9.945   3.648
77539W        W50607  38.165  37.194  10.773
77540W        W50608  16.685  20.776   0.737
77541W        W50609  12.541  35.942  12.595
77542W        W50610   1.225  32.538  12.815
77543W        W50611  19.132  28.099  13.560
77544W        W50612  21.782   6.730  14.044
77545W        W50613  34.349   8.145  12.980
77546W        W50614   1.368   4.951   3.637
77547W        W50615  30.986   6.563   2.671
77548W        W50616  27.044  25.220   1.338
77549W        W50617  42.580  15.897  11.602
77550W        W50618  37.394  40.250   1.374
77551W        W50619  14.267  21.317  13.116
77552W        W50620  10.462   8.166   2.326
77553W        W50621  11.159  43.577   1.840
77554W        W50622   8.796  40.063   5.023
77555W        W50623  19.026  24.257   3.192
77556W        W50624  31.569  11.428   4.530
77557W        W50625  34.926  23.790  11.176
77558W        W50626  11.641  11.363  10.714
77559W        W50627  21.159  25.468   5.070
77560W        W50628   9.760  32.616  12.943
77561W        W50629   1.682  31.098   1.201
77562W        W50630  37.807   9.259  11.201
77563W        W50631  18.499  20.662   0.439
77564W        W50632  16.040  23.841  10.557
77565W        W50633  37.170  18.066  11.941
77566W        W50634  17.636  42.353  12.453
77567W        W50635   3.711  20.692   1.772
77568W        W50636   1.582  15.276   3.392
77569W        W50637  28.538   3.426  10.437
77570W        W50638  29.653  32.637   4.238
77571W        W50639  27.682  26.676   4.628
77572W        W50640  19.718   3.857   4.544
77573W        W50641  34.660  18.748  14.851
77574W        W50642  14.367  42.950  11.445
77575W        W50643  16.535   4.692  14.484
77576W        W50644   5.321  19.829   1.455
77577W        W50645  11.061  18.650  12.926
77578W        W50646   6.415  42.397  10.337
77579W        W50647  23.650  15.627  14.990
77580W        W50648   0.177  35.709   0.923
77581W        W50649  39.313   6.706   3.045
77582W        W50650  12.292  18.169  12.048
77583W        W50651   4.981   3.150  14.832
77584W        W50652  15.306   3.356   3.274
77585W        W50653   9.317  31.156  13.383
77586W        W50654  21.734  35.571   2.220
77587W        W50655   1.857   8.150   0.217
77588W        W50656   8.470  40.486   4.579
77589W        W50657  29.619  20.081   1.807
77590W        W50658  35.893  28.896   2.363
77591W        W50659  12.674   5.417   3.751
77592W        W50660  18.985  25.137  10.530
77593W        W50661  24.714  33.571   0.432
77594W        W50662  32.929  14.180   3.112
77595W        W50663   0.365  11.383  10.500
77596W        W50664   7.349  10.861  11.086
77597W        W50665  14.682  30.662  12.841
77598W        W50666  38.169  41.153  12.901
77599W        W50667  43.914  42.579   3.703
77600W        W50668  35.585   4.441   2.749
77601W        W50669  41.813  13.781   3.761
77602W        W50670   4.477  19.466  12.474
77603W        W50671  20.687  15.337   4.256
77604W        W50672   4.907  12.673  14.323
77605W        W50673  26.442  23.755  14.843
77606W        W50674  21.155  25.927   4.766
77607W        W50675  28.872  44.943   2.753
77608W        W50676   5.303  27.555  12.604
77609W        W50677   6.481   2.354  11.852
77610W        W50678   5.906  30.608  14.766
77611W        W50679  21.787   1.460  12.369
77612W        W50680  36.703  17.957  12.111
77613W        W50681  19.888  23.464  11.169
77614W        W50682  19.468  10.178   4.538
77615W        W50683  41.351   2.491  11.700
77616W        W50684   6.578  37.422  14.344
77617W        W50685  28.602  16.210   4.174
77618W        W50686  23.327  41.461   3.630
77619W        W50687  42.309  44.412  11.166
77620W        W50688  14.732   9.962  12.537
77621W        W50689  21.865  26.805  10.590
77622W        W50690  10.811  15.669  12.962
77623W        W50691   6.539  43.770   1.866
77624W        W50692  24.687  44.354   0.367
77625W        W50693   6.818  13.290   1.405
77626W        W50694   9.191  32.265   1.303
77627W        W50695   7.895  29.118   3.101
77628W        W50696  32.440  31.699   1.135
77629W        W50697  38.151  14.217   3.914
77630W        W50698  16.799  27.049   4.611
77631W        W50699  30.037   9.926   1.467
77632W        W50700  38.472  13.701  11.111
77633W        W50701  30.241  39.225   3.438
77634W        W50702  15.639  16.569   5.033
77635W        W50703  23.078  44.844  10.621
77636W        W50704   4.758  41.983  10.580
77637W        W50705  23.140  21.648  13.630
77638W        W50706  18.956  27.086  14.585
77639W        W50707  43.422  36.388   4.555
77640W        W50708  34.790  17.072   3.020
77641W        W50709  22.640  16.496   3.375
77642W        W50710  24.517   5.431   1.226
77643W        W50711  30.659   7.474  11.254
77644W        W50712  36.930   1.142  12.919
77645W        W50713  37.419  37.333  13.795
77646W        W50714   6.435  29.712   3.180
77647W        W50715  28.651   2.347  13.405
77648W        W50716  14.884  43.459   1.689
77649W        W50717   9.523  29.230   1.878
77650W        W50718  13.570  15.155   1.230
77651W        W50719  38.836   3.226   2.771
77652W        W50720  44.024  11.849  13.865
77653W        W50721  36.225  22.695   5.132
77654W        W50722  18.757  38.369  13.401
77655W        W50723  40.344  22.289  13.871
77656W        W50724  32.523  12.493   0.354
77657W        W50725  27.112  23.707   5.126
77658W        W50726  40.204   7.812   4.650
77659W        W50727  39.425   1.762  13.417
77660W        W50728  15.167   2.867   4.096
77661W        W50729  20.718  39.083   3.755
77662W        W50730  16.854  21.191   4.972
77663W        W50731  14.740   8.917   0.236
77664W        W50732   8.842  16.924   5.105
77665W        W50733  23.031  40.791  14.940
77666W        W50734  36.594  28.024   3.748
77667W        W50735  44.933  38.119   4.222
77668W        W50736  40.536   9.758  12.857
77669W        W50737  26.132  23.366  10.748
77670W        W50738  11.796  41.086  10.871
77671W        W50739   0.560  32.835  13.511
77672W        W50740  32.382  37.240  12.011
77673W        W50741  20.073  19.957  14.833
77674W        W50742  38.028  11.397  13.586
77675W        W50743  11.208  11.229   1.491
77676W        W50744   3.148  17.784  14.938
77677W        W50745  26.009  20.951   0.466
77678W        W50746   5.790  27.742   2.413
77679W        W50747  20.177  25.751   3.192
77680W        W50748  40.573  17.951   5.065
77681W        W50749  12.602  44.866  10.630
77682W        W50750  41.048  11.263  12.428
77683W        W50751   5.399  37.246  12.374
77684W        W50752  43.493  23.300  13.418
77685W        W50753  38.467  25.404  12.608
77686W        W50754   5.720  34.341   1.838
77687W        W50755  13.628  37.519   4.994
77688W        W50756  28.950  20.300   4.118
77689W        W50757  32.866   7.790  10.574
77690W        W50758  17.641  27.619  13.085
77691W        W50759  41.732   5.172  13.974
77692W        W50760  28.634   9.046   1.409
77693W        W50761  22.055  14.133   0.716
77694W        W50762   8.772  12.767   2.067
77695W        W50763   9.329  40.744  11.590
77696W        W50764  19.501   2.885   0.736
77697W        W50765  22.756  22.572   1.014
77698W        W50766  25.006  18.599  13.316
77699W        W50767  11.662  31.122  11.158
77700W        W50768   5.763  19.101  11.526
77701W        W50769   2.354  41.567   3.714
77702W        W50770  25.144   5.726  12.931
77703W        W50771  21.616  13.690   3.223
77704W        W50772  11.836  44.532  14.855
77705W        W50773  35.640  30.965  12.976
77706W        W50774  27.011  33.428  14.830
77707W        W50775   8.604  26.649   3.654
77708W        W50776  22.856  22.168   4.120
77709W        W50777  34.184  20.800  11.250
77710W        W50778  28.323   0.344   4.635
77711W        W50779  13.591   4.615   2.749
77712W        W50780  20.976   6.773  12.636
77713W        W50781   8.121   8.319   1.241
77714W        W50782  28.222   4.365   3.734
77715W        W50783  35.750   9.557  11.104
77716W        W50784  19.647   5.752  12.168
77717W        W50785  35.567  32.471  13.214
77718W        W50786  35.466  21.989  12.472
77719W        W50787   4.145  44.044  14.363
77720W        W50788  36.650  35.119   2.848
77721W        W50789  25.889   7.086  12.446
77722W        W50790  36.872  25.174   0.751
77723W        W50791  24.150  16.540  12.003
77724W        W50792   1.265  44.953   0.716
77725W        W50793  32.948   9.663  13.579
77726W        W50794  21.557   1.368   3.558
77727W        W50795  24.687  23.644  14.556
77728W        W50796  42.946  18.731   3.553
77729W        W50797  29.176  41.383   0.212
77730W        W50798  39.309   2.341  11.012
77731W        W50799   2.477   8.573   3.666
77732W        W50800  20.673  29.139  11.446
77733W        W50801  22.112  44.999  10.140
77734W        W50802   5.756  25.588   2.182
77735W        W50803  30.941  19.069   2.415
77736W        W50804  18.458  10.016  10.876
77737W        W50805  26.303   9.280   2.706
77738W        W50806  28.953   1.676   1.322
77739W        W50807  23.976   0.877  14.006
77740W        W50808  20.620  18.603  12.918
77741W        W50809   4.993  37.050   3.702
77742W        W50810  26.678  25.210  12.729
77743W        W50811  22.141  25.531   2.431
77744W        W50812   0.576  24.924   0.853
77745W        W50813  35.867  37.487   5.054
77746W        W50814  11.186  40.103  12.579
77747W        W50815  35.666   9.296  12.494
77748W        W50816  38.593  18.735   3.960
77749W        W50817  17.950   0.366   1.220
77750W        W50818  14.352  10.215  14.432
77751W        W50819  40.635  17.048  13.561
77752W        W50820  28.875   7.832   4.084
77753W        W50821  44.856   8.609   2.969
77754W        W50822   2.049   3.372   0.409
77755W        W50823  37.032   3.590   2.944
77756W        W50824  28.902   6.668  14.899
77757W        W50825  13.291  38.850   0.822
77758W        W50826  32.065  35.805   2.321
77759W        W50827  25.650   3.775   0.771
77760W        W50828  39.830   6.342   3.789
77761W        W50829  26.972  22.508   4.783
77762W        W50830  20.250  42.577  11.419
77763W        W50831  40.414  31.069   0.479
77764W        W50832   7.832  12.806  11.474
77765W        W50833  13.264   1.816  12.002
77766W        W50834  16.720  37.062  11.073
77767W        W50835  20.998  25.332   2.789
77768W        W50836  13.498  40.933   4.356
77769W        W50837  18.494  10.466  13.038
77770W        W50838  34.952  21.471   1.873
77771W        W50839  24.559  12.359   0.809
77772W        W50840  38.393  18.021   2.448
77773W        W50841  36.517  40.019   2.843
77774W        W50842  36.126   8.216   4.587
77775W        W50843  42.269  19.336   4.311
77776W        W50844  41.447  10.441   0.891
77777W        W50845   8.167  11.758   2.757
77778W        W50846   3.772  20.105  12.697
77779W        W50847  32.079   9.697   2.292
77780W        W50848   6.881  30.660  12.523
77781W        W50849   8.284  26.549  14.015
77782W        W50850  16.475  35.008   2.336
77783W        W50851  26.460   1.851  13.997
77784W        W50852  10.272   8.661  14.613
77785W        W50853   3.236  23.997   0.337
77786W        W50854  40.933  17.690   3.842
77787W        W50855  28.870  30.105  13.364
77788W        W50856  40.516  39.435   1.881
77789W        W50857   6.722  22.730  11.291
77790W        W50858  29.424  31.119   4.149
77791W        W50859  24.558  43.685   2.706
77792W        W50860  15.730  35.023   0.736
77793W        W50861  43.743  29.955   2.276
77794W        W50862  29.125  28.613   4.684
77795W        W50863  31.068  38.572  14.882
77796W        W50864  16.089   2.247  11.878
77797W        W50865  22.058   3.260  14.507
77798W        W50866  42.310  41.879  14.031
77799W        W50867   9.476   6.331  11.537
77800W        W50868  13.915  17.590   2.305
77801W        W50869  22.101  36.816  11.280
77802W        W50870  39.204  25.013  11.123
77803W        W50871   6.844  18.108  12.494
77804W        W50872  40.776  25.519   4.099
77805W        W50873  31.570  43.311   2.888
77806W        W50874  18.112  30.980   2.631
77807W        W50875  40.705   3.207  10.291
77808W        W50876  44.282  44.712  13.126
77809W        W50877  14.436  28.603   3.376
77810W        W50878  13.720  15.874  13.654
77811W        W50879   2.207  36.544   3.407
77812W        W50880  10.559   1.357   2.163
77813W        W50881   3.906  21.301  10.187
77814W        W50882  11.407  30.461   2.843
77815W        W50883  13.893  12.512  14.893
77816W        W50884  22.254  28.896   3.655
77817W        W50885  33.968  17.128   3.850
77818W        W50886  17.664  12.092  13.730
77819W        W50887   9.358   0.466   2.757
77820W        W50888  36.058  16.085  12.870
77821W        W50889  34.109  31.375   3.214
77822W        W50890  23.755  23.545  14.953
77823W        W50891  29.520  22.664   3.422
77824W        W50892  24.834  37.320  10.348
77825W        W50893  10.259   0.231  10.398
77826W        W50894  44.874  24.437   2.022
77827W        W50895  22.165  15.211  12.248
77828W        W50896  28.809   0.029  13.152
77829W        W50897  34.644  23.610  10.769
77830W        W50898  18.722  27.195   3.879
77831W        W50899  18.030  31.132  13.454
77832W        W50900  32.695  15.308   0.795
77833W        W50901   7.200  34.461   0.946
77834W        W50902  26.020  30.603   0.474
77835W        W50903  29.229  17.777  12.511
77836W        W50904  44.868  10.530   0.974
77837W        W50905  35.997   2.210  14.996
77838W        W50906  35.458   0.954  14.526
77839W        W50907  24.141   9.677   2.201
77840W        W50908  15.299  43.823  14.037
77841W        W50909  12.314   5.209   4.401
77842W        W50910  26.152   5.476  13.259
77843W        W50911   9.358  31.081  11.402
77844W        W50912   3.514  20.554   4.498
77845W        W50913  44.863  30.594   2.710
77846W        W50914   8.699  13.312   2.766
77847W        W50915   8.410  35.000  12.983
77848W        W50916   9.087  26.549   2.201
77849W        W50917  17.043   5.137  11.941
77850W        W50918  25.948  30.537  10.924
77851W        W50919  20.984  34.960  11.442
77852W        W50920  32.816  14.751   0.026
77853W        W50921   3.912  29.470  11.963
77854W        W50922   2.452  27.895   3.627
77855W        W50923  31.105  10.665   2.910
77856W        W50924  31.425  41.598   3.074
77857W        W50925  32.417  29.487   4.258
77858W        W50926  16.080  35.840  14.505
77859W        W50927  33.887  32.196   3.145
77860W        W50928  41.545  14.144   2.739
77861W        W50929  34.493  33.891   1.160
77862W        W50930  10.393  23.927  10.618
77863W        W50931  37.980  13.683   1.330
77864W        W50932   0.873  21.957   4.324
77865W        W50933   0.838  43.935  14.080
77866W        W50934  39.241  33.359  11.538
77867W        W50935   4.134   2.543   3.108
77868W        W50936  42.131  39.057  11.199
77869W        W50937  21.175  39.880  13.949
77870W        W50938  37.917  31.953  11.145
77871W        W50939  39.430  26.599  12.449
77872W        W50940   7.670  11.273   0.288
77873W        W50941  30.669  36.886  14.463
77874W        W50942   1.164   6.814  12.411
77875W        W50943  25.692  24.067  12.002
77876W        W50944   2.828  27.801  14.492
77877W        W50945  13.231   2.942  12.064
77878W        W50946   6.517  18.127   3.587
77879W        W50947  32.400  43.829   3.783
77880W        W50948  28.207  13.860   4.890
77881W        W50949  33.382   0.386  14.393
77882W        W50950  10.394  19.569  13.347
77883W        W50951  29.646  24.233   3.655
77884W        W50952  31.494  39.881   0.799
77885W        W50953  34.228   8.505  14.859
77886W        W50954  12.171  28.039  10.698
77887W        W50955  14.321  26.134   3.256
77888W        W50956  33.659  28.704  13.971
77889W        W50957  37.100  42.383   4.672
77890W        W50958  36.801  11.916  14.294
77891W        W50959   8.168   1.594  12.469
77892W        W50960   5.279  42.548  14.843
77893W        W50961  27.662  17.227  11.513
77894W        W50962  42.210  30.402   1.634
77895W        W50963   7.161   2.747   1.801
77896W        W50964  26.418  29.435  11.212
77897W        W50965  19.699  37.806   0.817
77898W        W50966  10.830  10.402  14.807
77899W        W50967  44.449   6.256  10.428
77900W        W50968   9.925   0.266  11.889
77901W        W50969  44.366  28.555   1.191
77902W        W50970   7.973   8.204   3.340
77903W        W50971  34.132  14.175  13.351
77904W        W50972  19.466  10.771   3.894
77905W        W50973  22.450  25.033   5.041
77906W        W50974   1.710  17.196   2.729
77907W        W50975   4.373  13.761  14.384
77908W        W50976  29.647   7.971   4.415
77909W        W50977  11.661  43.804  12.204
77910W        W50978  33.155   9.232  13.394
77911W        W50979  28.158  24.312  10.694
77912W        W50980   5.302  12.870   1.351
77913W        W50981  44.822  13.402   4.724
77914W        W50982   4.146  15.558  13.811
77915W        W50983  34.511  17.084   1.476
77916W        W50984  19.679  15.381  12.490
77917W        W50985  15.248  12.845   0.765
77918W        W50986   2.443   5.667   2.730
77919W        W50987  38.744  23.352  11.117
77920W        W50988  25.150   5.712   2.444
77921W        W50989  38.773  18.137   1.282
77922W        W50990  40.911  37.424  11.271
77923W        W50991  23.688  17.185  10.048
77924W        W50992  23.884  22.625   9.799
77925W        W50993   4.015   1.908  12.989
77926W        W50994   2.634  32.149   0.885
77927W        W50995  13.381  37.298   4.548
77928W        W50996  35.490  15.916  13.563
77929W        W50997  25.073  32.093  12.118
77930W        W50998  29.932  10.250   4.637
77931W        W50999  42.914  15.241   0.148
77932W        W51000  19.459  43.362   0.748
77933W        W51001   8.836   8.636  12.263
77934W        W51002  34.462   7.623  14.981
77935W        W51003   5.146  43.560   2.674
77936W        W51004  12.761  10.135   4.568
77937W        W51005  26.899  29.514   3.623
77938W        W51006  24.510  12.684  14.547
77939W        W51007  27.677  22.750   3.739
77940W        W51008  11.217  24.464  12.798
77941W        W51009  15.835  12.688   1.298
77942W        W51010   0.838   6.077  11.104
77943W        W51011  13.260   6.615   2.056
77944W        W51012   9.642  41.827   4.118
77945W        W51013  22.348  31.922  13.879
77946W        W51014  17.001  15.770  13.945
77947W        W51015   4.482  18.651  11.520
77948W        W51016  39.597  10.823   4.553
77949W        W51017  37.318  44.731   1.366
77950W        W51018   0.347   5.907  12.177
77951W        W51019   0.620  26.124   0.033
77952W        W51020  32.473  15.264   0.329
77953W        W51021  27.682   6.677  12.957
77954W        W51022   6.698   1.162  14.250
77955W        W51023   9.328  18.313  13.752
77956W        W51024  38.067  35.216  10.707
77957W        W51025   7.993  38.903   0.836
77958W        W51026   9.214  40.220  10.235
77959W        W51027  22.864  39.911  11.113
77960W        W51028   6.237   1.543   0.016
77961W        W51029  31.582  18.097   4.143
77962W        W51030  36.633  25.093  13.448
77963W        W51031   2.808  35.571  10.434
77964W        W51032  40.043  43.990  12.918
77965W        W51033  39.025  43.250   4.511
77966W        W51034  34.636  34.550  13.930
77967W        W51035  43.354  11.448   2.723
77968W        W51036  24.504  25.696  11.140
77969W        W51037  23.909  41.113  14.869
77970W        W51038  22.068  39.478  10.501
77971W        W51039   7.957  23.553  10.208
77972W        W51040  34.823   4.651  11.342
77973W        W51041   8.130   5.683   4.159
77974W        W51042   8.246  28.803  14.805
77975W        W51043  25.098  19.358  10.646
77976W        W51044  36.667   7.952  13.020
77977W        W51045  28.910  41.452   1.310
77978W        W51046  20.824   4.873   3.220
77979W        W51047  23.460  17.781   0.817
77980W        W51048  44.257  19.376  12.658
77981W        W51049  11.604   4.864   4.989
77982W        W51050  20.778  14.388   1.012
77983W        W51051  38.211  44.544   1.477
77984W        W51052   4.404   5.191   1.256
77985W        W51053   4.350  22.616  14.752
77986W        W51054  16.738  16.545   2.629
77987W        W51055  29.983  14.726   0.839
77988W        W51056  42.848  32.157  13.002
77989W        W51057   0.759   7.766   2.583
77990W        W51058  34.961  38.882   1.816
77991W        W51059  43.537  25.569  12.835
77992W        W51060  14.328   2.858  14.241
77993W        W51061  19.737  22.670  14.738
77994W        W51062  40.090   0.909  12.017
77995W        W51063  10.505  36.359   2.702
77996W        W51064   6.096   1.722   1.770
77997W        W51065   4.400  27.795   3.257
77998W        W51066   0.847  43.312   0.272
77999W        W51067   2.033  17.699  12.871
78000W        W51068  29.815   0.101  11.657
78001W        W51069  16.725  16.334  12.004
78002W        W51070  23.502  32.994  14.110
78003W        W51071  26.755  44.271  11.090
78004W        W51072  10.682  38.854  12.123
78005W        W51073  37.768  11.269  14.013
78006W        W51074  10.374   8.918   2.812
78007W        W51075   1.002  26.492   3.648
78008W        W51076  40.009  35.926   4.038
78009W        W51077   1.739   0.457  12.410
78010W        W51078  40.931  28.443   4.865
78011W        W51079  40.854  44.479  11.035
78012W        W51080  17.087  14.825   2.791
78013W        W51081  41.421  10.972  11.351
78014W        W51082   2.739  42.364   3.915
78015W        W51083  16.827  35.926   4.898
78016W        W51084  32.171   2.373  13.257
78017W        W51085  17.184  39.260  10.368
78018W        W51086  29.916  13.682  14.287
78019W        W51087  19.245  30.399  12.201
78020W        W51088  35.429  33.672   9.777
78021W        W51089  18.068  18.816   4.825
78022W        W51090   7.996  29.583  11.516
78023W        W51091   2.451  20.563  13.560
78024W        W51092  20.490  21.575  10.390
78025W        W51093  20.229  16.694   3.166
78026W        W51094  36.417  31.159  12.490
78027W        W51095  41.892  19.825   1.196
78028W        W51096  13.506  38.429  12.597
78029W        W51097  12.013  15.444  11.490
78030W        W51098  23.188  35.977  12.023
78031W        W51099  28.050   4.380  13.379
78032W        W51100  40.013  29.402  11.571
78033W        W51101  12.344   8.831   1.448
78034W        W51102  31.068  31.570   4.315
78035W        W51103   1.747  40.586  14.436
78036W        W51104  23.720  28.079   2.708
78037W        W51105   8.165  15.587  14.034
78038W        W51106  43.109  34.649   3.603
78039W        W51107  11.096   3.364   0.253
78040W        W51108   9.283  17.568  11.565
78041W        W51109   4.421  16.814  10.739
78042W        W51110  17.155  31.626   0.772
78043W        W51111  22.310  11.795   1.963
78044W        W51112  38.159  34.535  13.315
78045W        W51113  19.662  22.599   2.227
78046W        W51114  27.534  29.562  14.079
78047W        W51115   9.184   5.637   0.375
78048W        W51116  31.052   8.205  10.581
78049W        W51117  31.686  39.277   3.252
78050W        W51118  24.713  23.515   0.048
78051W        W51119  30.039  11.871   4.641
78052W        W51120  40.500  27.254   3.933
78053W        W51121  24.016  32.177  11.229
78054W        W51122  13.134   2.449  14.345
78055W        W51123  33.207  35.283   1.494
78056W        W51124  16.299  31.896   3.117
78057W        W51125  22.523  14.239   0.045
78058W        W51126  31.626  20.597   0.437
78059W        W51127  32.608  11.444   2.675
78060W        W51128  28.671  38.085  11.154
78061W        W51129  12.600   5.348   0.365
78062W        W51130   1.429  26.506   4.647
78063W        W51131   2.723  42.951  13.557
78064W        W51132  26.613  28.969  11.203
78065W        W51133  41.465  22.635   0.477
78066W        W51134   4.708  16.163   4.615
78067W        W51135  22.107   1.936  11.503
78068W        W51136  26.146  19.173   1.208
78069W        W51137   0.932  22.045   2.890
78070W        W51138  33.108  13.230  14.453
78071W        W51139   6.957  41.162  11.326
78072W        W51140  42.878  14.545  14.959
78073W        W51141  35.270   8.090   0.419
78074W        W51142   8.868  31.991  12.820
78075W        W51143  35.675  28.686  11.669
78076W        W51144   7.639  15.639   2.104
78077W        W51145  40.130  10.096   2.014
78078W        W51146  27.098  19.012   1.307
78079W        W51147  29.902   4.842   2.822
78080W        W51148  12.866  36.452   1.256
78081W        W51149   3.489   7.870   4.080
78082W        W51150   2.027   2.498   0.112
78083W        W51151  36.552  39.512   4.126
78084W        W51152  10.871  27.543   3.005
78085W        W51153   9.804  32.529  14.936
78086W        W51154  27.181   7.311   2.240
78087W        W51155  36.508  15.193   3.560
78088W        W51156  32.422  38.357   1.477
78089W        W51157   9.180  16.222   1.208
78090W        W51158  14.134   5.733  13.866
78091W        W51159  22.237  34.804   1.563
78092W        W51160  14.124  39.409   3.069
78093W        W51161   9.571  35.680   5.061
78094W        W51162  44.037  27.089  10.593
78095W        W51163  44.703  24.734  14.888
78096W        W51164  44.011  41.055  13.436
78097W        W51165   8.346   3.060   0.786
78098W        W51166  16.699  39.916   2.769
78099W        W51167  19.696  12.688   1.136
78100W        W51168  40.081  39.403  13.188
78101W        W51169   1.938  24.588   4.498
78102W        W51170  14.676  22.252  12.363
78103W        W51171   0.944  31.591   1.069
78104W        W51172  39.591  10.135   4.497
78105W        W51173  19.637  34.785  13.556
78106W        W51174  31.467   7.577   1.464
78107W        W51175  11.802   1.734   0.459
78108W        W51176  20.740   3.832   3.241
78109W        W51177   9.493  32.613   2.701
78110W        W51178  42.534  25.671   2.740
78111W        W51179  36.306  15.611  12.858
78112W        W51180  14.678  21.656   1.968
78113W        W51181   7.319  10.212   2.605
78114W        W51182  17.222   8.150  14.397
78115W        W51183  17.075   8.139  10.458
78116W        W51184  33.908  41.311   3.599
78117W        W51185  42.195  10.304  10.604
78118W        W51186  13.274  13.680   4.854
78119W        W51187   1.211  10.882   4.220
78120W        W51188  39.559  17.361  13.036
78121W        W51189  13.198  38.744   2.337
78122W        W51190  14.101  27.957   2.194
78123W        W51191  28.465  36.621  10.664
78124W        W51192   7.680   4.897  10.798
78125W        W51193  36.889   0.712   2.744
78126W        W51194  23.726   9.774   4.837
78127W        W51195  10.573  10.849  14.800
78128W        W51196  31.840  25.137   0.763
78129W        W51197  23.558   6.724   4.376
78130W        W51198  36.469  14.937   3.094
78131W        W51199  28.973  15.602  11.601
78132W        W51200  43.914  10.908   4.617
78133W        W51201   3.915  44.498   1.146
78134W        W51202  19.836  38.009   0.070
78135W        W51203  29.812  36.814   4.412
78136W        W51204   2.349   2.979  13.968
78137W        W51205  36.921  40.880  11.681
78138W        W51206  27.492  32.638  13.590
78139W        W51207  39.348  37.860   1.302
78140W        W51208  28.056  32.981   3.594
78141W        W51209  18.849  18.711  13.915
78142W        W51210  15.641  14.744   2.915
78143W        W51211  37.011  12.629   3.485
78144W        W51212  25.260  32.762   0.183
78145W        W51213  44.049  38.852  12.446
78146W        W51214  10.609  12.814  14.055
78147W        W51215  14.921   8.790  10.501
78148W        W51216   8.154  13.829  11.559
78149W        W51217  40.795  33.008   2.452
78150W        W51218   5.972  24.007   1.869
78151W        W51219  18.776   9.656   2.413
78152W        W51220   0.551  11.432   4.026
78153W        W51221   8.241   5.522   0.999
78154W        W51222   5.259  44.607   3.153
78155W        W51223  34.934  18.013  10.290
78156W        W51224  42.869   0.697  12.965
78157W        W51225  21.335  12.560   4.203
78158W        W51226  30.327   4.795   2.499
78159W        W51227   1.703  14.703   0.479
78160W        W51228   1.784  19.046   2.289
78161W        W51229  12.135  18.459  10.706
78162W        W51230  25.250  31.806  12.542
78163W        W51231   6.924  11.138   2.798
78164W        W51232  41.392  41.062  10.448
78165W        W51233  19.804  17.321   3.741
78166W        W51234  18.661  32.664  10.627
78167W        W51235  36.323  30.605  11.049
78168W        W51236  25.045  25.764  11.044
78169W        W51237  16.048   2.554  13.115
78170W        W51238  38.228  25.105   1.285
78171W        W51239  29.163  27.087  12.033
78172W        W51240  34.962  39.008   3.283
78173W        W51241  18.149  26.440   3.717
78174W        W51242   4.636  36.477   0.163
78175W        W51243  43.850  34.585  14.359
78176W        W51244  43.637  11.644  13.293
78177W        W51245  39.539  13.557   1.433
78178W        W51246  24.448  38.115   1.234
78179W        W51247  10.512   2.301  12.374
78180W        W51248   9.760  27.641  13.033
78181W        W51249  29.313  39.076  14.959
78182W        W51250  28.246  39.494  13.411
78183W        W51251  44.858  10.999  13.035
78184W        W51252  43.073  35.408  12.476
78185W        W51253  30.588  40.065   3.076
78186W        W51254   0.041  26.006   0.869
78187W        W51255  34.949  23.305   3.408
78188W        W51256  25.051  33.419   3.858
78189W        W51257   1.902  12.879  13.442
78190W        W51258  34.054  18.084  11.873
78191W        W51259   7.853  31.140  14.924
78192W        W51260  34.017  24.076  10.784
78193W        W51261  27.129  16.717  13.044
78194W        W51262  12.207  15.318   1.248
78195W        W51263  39.898  17.003   2.934
78196W        W51264  19.112   3.555  14.249
78197W        W51265  44.871   8.322  13.262
78198W        W51266  33.486  33.615  14.894
78199W        W51267  20.603  36.442   1.345
78200W        W51268  26.959   0.386   1.429
78201W        W51269  12.985  28.923  11.647
78202W        W51270  20.303  21.785   4.104
78203W        W51271   8.227  23.512  11.592
78204W        W51272  18.142  10.932   4.044
78205W        W51273  21.537  18.154   2.714
78206W        W51274  41.625  14.930  14.371
78207W        W51275  20.831  13.021  11.587
78208W        W51276  38.547  31.394  13.999
78209W        W51277   3.227   2.019  14.463
78210W        W51278  18.341  36.395   2.132
78211W        W51279   1.266  18.785   4.521
78212W        W51280  43.216  43.431   4.111
78213W        W51281  14.719  37.563  14.757
78214W        W51282  35.150  37.273   1.757
78215W        W51283   0.019  44.875   1.181
78216W        W51284  39.396  27.278   0.590
78217W        W51285   9.398   4.346   1.869
78218W        W51286  18.533  18.194   2.387
78219W        W51287  20.552  13.277  10.657
78220W        W51288  22.628  22.790   1.884
78221W        W51289  41.299   4.451  13.524
78222W        W51290  32.622  33.385   4.068
78223W        W51291  35.347  35.403   0.321
78224W        W51292  43.466  43.544  11.509
78225W        W51293  13.848   5.743   0.822
78226W        W51294  35.787  27.010   0.024
78227W        W51295  18.646  10.763   4.202
78228W        W51296  24.465  32.414  11.320
78229W        W51297  43.573  33.126   0.957
78230W        W51298  24.830   7.180   2.345
78231W        W51299   2.220   0.379   0.477
78232W        W51300  34.623  10.338  11.251
78233W        W51301  35.456  11.183  12.025
78234W        W51302  30.445  24.133  13.593
78235W        W51303  32.471  32.917   4.526
78236W        W51304  41.432   2.943  14.500
78237W        W51305  44.031   9.529  14.317
78238W        W51306  20.302  36.890   0.306
78239W        W51307  29.456  37.795   1.747
78240W        W51308  25.782  34.117   4.199
78241W        W51309   7.838  43.479   3.074
78242W        W51310  30.855  28.493   3.039
78243W        W51311   5.776  11.121   3.361
78244W        W51312  37.821   7.446  14.050
78245W        W51313  27.103  34.786   1.344
78246W        W51314  11.887  20.016   1.388
78247W        W51315   2.910  21.985  12.591
78248W        W51316   7.705  37.553   2.394
78249W        W51317  31.097   9.389  14.115
78250W        W51318   5.182  43.170  12.382
78251W        W51319  29.097  20.910   3.345
78252W        W51320   6.200  12.076   3.336
78253W        W51321  21.027  28.261   2.780
78254W        W51322   3.396  33.890  14.035
78255W        W51323  40.148  44.864  13.030
78256W        W51324  11.448  11.687   1.428
78257W        W51325  20.502   6.698   1.837
78258W        W51326   5.806  20.548  11.982
78259W        W51327  22.562  14.004   2.891
78260W        W51328  10.861  12.823   4.440
78261W        W51329  19.252  11.874  11.169
78262W        W51330   3.665  43.528  12.527
78263W        W51331   3.293  23.053  12.242
78264W        W51332   2.917  25.042   2.861
78265W        W51333  22.446  42.352  11.049
78266W        W51334  10.927   3.887   2.674
78267W        W51335   9.353  19.918   5.092
78268W        W51336  34.108  38.324  12.410
78269W        W51337  26.730  41.761   3.177
78270W        W51338  14.177  16.864   0.707
78271W        W51339  13.756  40.053   4.548
78272W        W51340  24.851  41.584  14.009
78273W        W51341  16.121  22.971  10.806
78274W        W51342  30.662   1.215   3.033
78275W        W51343  33.800  19.581   4.542
78276W        W51344  42.902  31.207  10.695
78277W        W51345  10.435  32.252  12.907
78278W        W51346  20.157  27.946  11.749
78279W        W51347  11.175  11.273   3.722
78280W        W51348  22.505  43.022   1.207
78281W        W51349  44.300  25.145  13.874
78282W        W51350   4.402   6.336  11.811
78283W        W51351  40.124   4.860  14.898
78284W        W51352  34.524  29.265  12.026
78285W        W51353  40.456  26.135  13.983
78286W        W51354  27.459   3.104  13.492
78287W        W51355  24.119  19.141  12.115
78288W        W51356   6.812  15.781  11.617
78289W        W51357  37.454  29.190   4.652
78290W        W51358   5.270  34.668   0.500
78291W        W51359  32.053  20.969   0.452
78292W        W51360  24.969  32.693   2.635
78293W        W51361   9.458  25.997   1.290
78294W        W51362  41.904  12.106   0.406
78295W        W51363   3.304  39.041  13.093
78296W        W51364  31.227  12.637   4.043
78297W        W51365  16.244  34.525   0.462
78298W        W51366  33.127   8.699  13.460
78299W        W51367  15.910  41.454  13.376
78300W        W51368   7.132  19.714   4.834
78301W        W51369  10.586  13.839   2.247
78302W        W51370  17.305   6.702  13.391
78303W        W51371   1.387  41.497  14.755
78304W        W51372  13.062  28.087  11.528
78305W        W51373   4.198  11.150  10.607
78306W        W51374  38.940   3.283   1.877
78307W        W51375  37.933  26.964   1.649
78308W        W51376  36.390   0.022  11.987
78309W        W51377  25.067  30.710   1.418
78310W        W51378   5.057  41.643   3.239
78311W        W51379   0.020   0.250  14.793
78312W        W51380  43.847  15.415  14.533
78313W        W51381  15.223  35.102  13.888
78314W        W51382   1.865   7.451  13.871
78315W        W51383  44.417  34.126  13.438
78316W        W51384  25.602  28.166  10.937
78317W        W51385  14.168  40.766   5.102
78318W        W51386  37.240  19.731   1.879
78319W        W51387  15.875  10.338  14.009
78320W        W51388  42.569  30.192   1.310
78321W        W51389  24.352  23.850  10.265
78322W        W51390  40.313   9.299  12.777
78323W        W51391  16.112  18.792  11.977
78324W        W51392  11.277   8.430   0.338
78325W        W51393  41.738  16.732   9.686
78326W        W51394  32.460  31.660  12.372
78327W        W51395   7.279  40.799   0.249
78328W        W51396  34.549  28.743  12.058
78329W        W51397  44.264  37.567  12.031
78330W        W51398   9.296  18.590  11.880
78331W        W51399  13.280   2.151  13.907
78332W        W51400   9.171  29.251   0.621
78333W        W51401  34.501  28.706   1.765
78334W        W51402  21.920   8.640  13.928
78335W        W51403  19.316  22.626   3.803
78336W        W51404   3.811   6.400   1.737
78337W        W51405  25.204  41.425  10.323
78338W        W51406  13.226  19.299  13.942
78339W        W51407   6.378   6.353   0.126
78340W        W51408  17.581  16.772   0.295
78341W        W51409  17.592  41.517  12.047
78342W        W51410   3.811  33.265   3.429
78343W        W51411  12.674  40.699  10.423
78344W        W51412  41.300  11.638  10.605
78345W        W51413  40.343  14.625  10.871
78346W        W51414  27.336  23.994  14.042
78347W        W51415  30.556  36.666   1.841
78348W        W51416  20.799  34.021  13.299
78349W        W51417  31.027  13.752   2.874
78350W        W51418  38.811   2.401   3.273
78351W        W51419  15.373   9.013  13.608
78352W        W51420  19.767  18.750  12.864
78353W        W51421  26.571  20.112   2.491
78354W        W51422   0.389   1.251  12.431
78355W        W51423  18.482  44.464  11.390
78356W        W51424  20.552  28.889   1.443
78357W        W51425  42.927  42.961  11.925
78358W        W51426   1.030  22.649  11.903
78359W        W51427   0.800   8.571   4.274
78360W        W51428  10.832  30.991   3.458
78361W        W51429  21.624  15.216   2.357
78362W        W51430  15.198  14.271   1.184
78363W        W51431   6.077  17.746   2.324
78364W        W51432  16.661  38.331   0.453
78365W        W51433  15.123  39.090   3.066
78366W        W51434   6.580  15.335  11.616
78367W        W51435   7.375   7.590   1.757
78368W        W51436  24.519  15.046   2.355
78369W        W51437   8.869  12.068  13.148
78370W        W51438  19.749  39.342  12.008
78371W        W51439  29.464  28.429  12.571
78372W        W51440  43.378  16.708   2.658
78373W        W51441  16.358   1.064   4.152
78374W        W51442  33.612  16.771   4.546
78375W        W51443  33.518  21.508   1.913
78376W        W51444   7.333  16.624  10.546
78377W        W51445   4.161  34.057   4.872
78378W        W51446  19.237  19.560   3.331
78379W        W51447  27.492  30.298  12.441
78380W        W51448  22.737  18.585  13.909
78381W        W51449  22.782  11.092   1.445
78382W        W51450  29.507   6.954   0.802
78383W        W51451   1.409  41.759   3.622
78384W        W51452  44.802  24.255  12.063
78385W        W51453   5.452  38.870   1.893
78386W        W51454  11.091  39.282  13.966
78387W        W51455  26.556  39.180   2.680
78388W        W51456  36.010  17.513  13.062
78389W        W51457  19.565  14.447  13.823
78390W        W51458  35.988  23.169   2.361
78391W        W51459  14.468  31.586   1.460
78392W        W51460  32.592  29.729  14.449
78393W        W51461   2.562   3.405   0.260
78394W        W51462  25.200  32.846   2.190
78395W        W51463   7.859  25.616   4.592
78396W        W51464  37.059  22.774  10.558
78397W        W51465  30.077   6.047   2.275
78398W        W51466   8.723  42.851  14.170
78399W        W51467  11.715   5.494  11.959
78400W        W51468  28.036  33.608   0.441
78401W        W51469  39.406  17.211  11.586
78402W        W51470   4.810   3.908   0.816
78403W        W51471  35.952  22.118  12.340
78404W        W51472   5.523  29.999   0.352
78405W        W51473  40.375  32.137  14.012
78406W        W51474   5.254  26.495   1.377
78407W        W51475   4.206  35.302   0.393
78408W        W51476  42.081  13.726   5.064
78409W        W51477  38.908   1.029  11.541
78410W        W51478  26.759   2.007   0.294
78411W        W51479  30.547  44.753   0.563
78412W        W51480   2.037  12.621   4.267
78413W        W51481   2.359   5.908   0.461
78414W        W51482   5.797  10.881  14.882
78415W        W51483   3.657   4.560   1.506
78416W        W51484  28.050  33.447   4.965
78417W        W51485  44.531  41.366   4.742
78418W        W51486  31.612  27.007   2.250
78419W        W51487   9.229  29.838  13.985
78420W        W51488  14.691  13.928  12.602
78421W        W51489  42.891  16.636   0.548
78422W        W51490   8.711   3.179  11.135
78423W        W51491  15.828  25.233  11.247
78424W        W51492  36.022  22.290  12.833
78425W        W51493  16.778  39.293  14.085
78426W        W51494   0.878   1.538  13.151
78427W        W51495  30.252  43.228   2.844
78428W        W51496   6.348  33.828   0.319
78429W        W51497  17.742  29.239   1.801
78430W        W51498  17.233   0.214   2.315
78431W        W51499   8.159  18.034   2.269
78432W        W51500   7.179  23.279  13.539
78433W        W51501  34.074  15.689  10.376
78434W        W51502  32.004   6.880   3.631
78435W        W51503  42.338  20.187   3.889
78436W        W51504  34.983  34.930  10.612
78437W        W51505  27.438  38.484   1.347
78438W        W51506  34.008  30.334  14.284
78439W        W51507  33.953  39.317  12.599
78440W        W51508  34.019  16.799   1.323
78441W        W51509  29.115  39.612  12.857
78442W        W51510   2.746   5.795  11.881
78443W        W51511  29.680  30.592  12.358
78444W        W51512   0.270  41.399  12.059
78445W        W51513  21.286  12.141   2.399
78446W        W51514  26.983  43.960   1.268
78447W        W51515  11.686  14.354   3.190
78448W        W51516  11.874  38.410   2.759
78449W        W51517  22.064   2.736  13.081
78450W        W51518  27.946  41.407  11.648
78451W        W51519  17.377  23.662   4.717
78452W        W51520  31.916  28.861  12.948
78453W        W51521  31.412  27.007  14.860
78454W        W51522  19.101  17.604  10.683
78455W        W51523   8.337  37.474  11.410
78456W        W51524  10.464  17.430   4.531
78457W        W51525   4.764   5.838   0.037
78458W        W51526  41.848  26.576   3.152
78459W        W51527  42.415  29.047   4.721
78460W        W51528  10.995  20.035   2.493
78461W        W51529  13.248   6.494   0.992
78462W        W51530  28.199  26.976  12.902
78463W        W51531   8.377  36.797  13.056
78464W        W51532  14.891  24.684   0.203
78465W        W51533  26.072  18.024  13.127
78466W        W51534  24.179  36.800  12.569
78467W        W51535  37.452  28.877   2.241
78468W        W51536  27.619   9.721   2.951
78469W        W51537  16.622  19.280  12.597
78470W        W51538  20.144  26.119   3.596
78471W        W51539   1.462  38.098   3.950
78472W        W51540   6.810  16.273   2.686
78473W        W51541  25.112   4.903   3.558
78474W        W51542  15.580   9.280   4.671
78475W        W51543  29.117   3.449   2.898
78476W        W51544  43.672  31.985   1.836
78477W        W51545  28.596   2.677   3.712
78478W        W51546  21.304  23.939   3.853
78479W        W51547   6.850  19.576  12.178
78480W        W51548   5.958  23.963   4.174
78481W        W51549  13.446  27.208  14.530
78482W        W51550  39.910  35.359  10.787
78483W        W51551  23.856  33.021   1.943
78484W        W51552  42.558  27.627   4.491
78485W        W51553   1.664  41.538  11.157
78486W        W51554  27.079  32.950  11.608
78487W        W51555   8.252   7.758   4.105
78488W        W51556   9.191  26.628   3.642
78489W        W51557  23.680   5.875  14.709
78490W        W51558  43.339  22.586  10.758
78491W        W51559  10.375  36.492   0.448
78492W        W51560  39.763   6.614   1.154
78493W        W51561   5.411   1.030  11.995
78494W        W51562  32.613  39.740  13.272
78495W        W51563  35.352  15.211  13.772
78496W        W51564   1.683  30.433  14.513
78497W        W51565   4.390  23.994   0.055
78498W        W51566   7.915  17.534  11.479
78499W        W51567  40.479  23.578  12.470
78500W        W51568  17.187  15.211   4.583
78501W        W51569  15.160  37.322   0.574
78502W        W51570  36.327  20.940   1.968
78503W        W51571  40.822  12.266   4.144
78504W        W51572  30.208  19.581   5.141
78505W        W51573  30.575  34.275   0.711
78506W        W51574  22.076  19.054   2.158
78507W        W51575   5.588  36.089   0.290
78508W        W51576   5.489  40.813   0.717
78509W        W51577   9.209  27.590  11.752
78510W        W51578  39.123  23.194  10.775
78511W        W51579  39.069  27.370   2.876
78512W        W51580  34.880  40.994   1.914
78513W        W51581  37.935   6.906   0.855
78514W        W51582  34.689   5.308  12.659
78515W        W51583   7.111  39.939  12.188
78516W        W51584  19.655  36.125   2.239
78517W        W51585  19.168  24.133   0.764
78518W        W51586   1.822  38.407   2.366
78519W        W51587  15.341  25.720  12.149
78520W        W51588   8.869  34.961  12.677
78521W        W51589   1.841  41.110   4.226
78522W        W51590  25.598  24.224  13.042
78523W        W51591  12.819   1.570   1.718
78524W        W51592  14.110  25.674   1.995
78525W        W51593  35.077  14.550  11.140
78526W        W51594   8.841  18.143   0.556
78527W        W51595  31.431  37.076   2.154
78528W        W51596  39.035   2.266   5.023
78529W        W51597  28.602  19.413  13.821
78530W        W51598  12.609  26.715   0.764
78531W        W51599   0.754  22.526   0.942
78532W        W51600   4.156  23.750   1.815
78533W        W51601  37.045  25.979  10.533
78534W        W51602  30.884  40.283   4.176
78535W        W51603  21.307  14.304   2.707
78536W        W51604  26.439  16.169   2.609
78537W        W51605  29.904   2.017  14.408
78538W        W51606  41.705  32.143   4.578
78539W        W51607  30.185  34.580   1.736
78540W        W51608  40.542  16.040  13.134
78541W        W51609  22.593  22.521  11.554
78542W        W51610  21.180   7.372  13.276
78543W        W51611  31.598  32.840   2.664
78544W        W51612  38.605   5.659   3.187
78545W        W51613  11.689  32.229  12.158
78546W        W51614  12.815  24.648  14.334
78547W        W51615  23.555  19.258   4.150
78548W        W51616  15.246  28.240  14.171
78549W        W51617  31.978   2.420  10.697
78550W        W51618  14.758  40.976   2.460
78551W        W51619  12.714   9.908   3.335
78552W        W51620  32.589  14.789   0.969
78553W        W51621  23.152  40.776   1.714
78554W        W51622  40.500  21.073  11.153
78555W        W51623  11.506  28.281   5.094
78556W        W51624  38.497  31.596   1.846
78557W        W51625  25.218  31.411  11.920
78558W        W51626  41.273  35.845  12.128
78559W        W51627  25.004  40.341  10.656
78560W        W51628   3.005  41.742  14.341
78561W        W51629  34.892  34.165   2.519
78562W        W51630  36.129  27.386  13.352
78563W        W51631  39.319  25.513  13.315
78564W        W51632  38.796  42.367   4.467
78565W        W51633  30.269  15.591   0.312
78566W        W51634  32.530  20.841  12.855
78567W        W51635   3.238  38.529  14.036
78568W        W51636  20.279  34.771   3.326
78569W        W51637   1.544   2.677   3.623
78570W        W51638   9.594  23.560   3.666
78571W        W51639  11.642  24.527  10.955
78572W        W51640   9.388   6.275   3.667
78573W        W51641  25.008  17.065   0.834
78574W        W51642   8.723   0.827   4.561
78575W        W51643   0.516  28.513   3.331
78576W        W51644  36.255  38.393  14.740
78577W        W51645  36.381   1.010  13.591
78578W        W51646  19.684  30.594   2.895
78579W        W51647  38.461  12.685  11.129
78580W        W51648  28.631   8.156   3.733
78581W        W51649   1.239  10.687   0.283
78582W        W51650  28.568  13.173   0.279
78583W        W51651  34.347  21.782   3.508
78584W        W51652  44.520  36.603  12.587
78585W        W51653  43.586  25.881  12.411
78586W        W51654  11.898  12.633  10.147
78587W        W51655  38.809  44.863  13.860
78588W        W51656  18.012  37.458   4.043
78589W        W51657  10.190   4.516  12.249
78590W        W51658   2.067  24.606  11.116
78591W        W51659  18.123  24.485  13.891
78592W        W51660  38.275  21.702  14.522
78593W        W51661  33.392  26.119   3.874
78594W        W51662  44.826  31.014  11.084
78595W        W51663   5.310  39.246  11.146
78596W        W51664  29.214  32.838  13.578
78597W        W51665  31.371  19.273   2.192
78598W        W51666  44.039  36.125  12.502
78599W        W51667   8.304  36.336  12.794
78600W        W51668  38.586   5.440  13.373
78601W        W51669  24.043  26.687  11.979
78602W        W51670   5.946  36.299  14.937
78603W        W51671  43.486  35.397  14.215
78604W        W51672  36.804  33.545  14.031
78605W        W51673  22.552  41.902  13.538
78606W        W51674  13.980   4.944  13.028
78607W        W51675   9.327  22.991   0.909
78608W        W51676  23.706  11.365  14.285
78609W        W51677  32.572   7.775  13.359
78610W        W51678  27.127  24.276  14.434
78611W        W51679  33.561  43.433  14.379
78612W        W51680  13.624  21.538   0.985
78613W        W51681  25.075  22.081   1.304
78614W        W51682  34.980  38.367   2.727
78615W        W51683  43.716  33.239   2.241
78616W        W51684  29.111  30.536   1.446
78617W        W51685  29.978  31.546  12.116
78618W        W51686  41.854  44.068   3.168
78619W        W51687  18.704  26.530   3.116
78620W        W51688   1.258  38.267  12.133
78621W        W51689  34.911   6.476   4.013
78622W        W51690   4.777  19.686   5.082
78623W        W51691  16.181  26.973   1.777
78624W        W51692  34.303   1.226   4.437
78625W        W51693  40.507   8.098   5.064
78626W        W51694   1.021  20.075  12.535
78627W        W51695  43.010  25.511  14.023
78628W        W51696  24.505  17.080   0.231
78629W        W51697   2.901  28.160  13.546
78630W        W51698  30.975   8.373  11.068
78631W        W51699  43.684   3.727  13.782
78632W        W51700  17.564   6.252  13.532
78633W        W51701  11.945  26.674   4.132
78634W        W51702  27.808  27.698  14.891
78635W        W51703  19.395  16.053   0.024
78636W        W51704  37.355   0.074  14.048
78637W        W51705  32.646  32.935   1.799
78638W        W51706  40.701   8.809   1.010
78639W        W51707  24.576  30.672  10.632
78640W        W51708  31.247  36.427   4.868
78641W        W51709   2.904   8.392   1.364
78642W        W51710  26.430  39.500  12.933
78643W        W51711   1.455  35.537   2.798
78644W        W51712  42.875  32.935  11.909
78645W        W51713  20.019   3.282  12.775
78646W        W51714  18.312  43.447  12.061
78647W        W51715  28.969   2.177   1.175
78648W        W51716   0.333  13.841  10.801
78649W        W51717  24.706  21.232   3.988
78650W        W51718  13.447  22.099   1.797
78651W        W51719  30.148  33.963   4.181
78652W        W51720  36.474  30.342  14.345
78653W        W51721  31.405  19.622  10.683
78654W        W51722  20.342   4.479   1.397
78655W        W51723  24.393  22.976   3.702
78656W        W51724   3.730  44.244   0.654
78657W        W51725   2.421  41.218  11.328
78658W        W51726  12.788  30.513  14.012
78659W        W51727  42.729  43.057   2.313
78660W        W51728  30.046  25.236  10.420
78661W        W51729  33.937   8.422   3.310
78662W        W51730   3.448  34.998   0.245
78663W        W51731  42.076   0.472  14.901
78664W        W51732  24.189  15.244  11.165
78665W        W51733  35.904  41.003  10.783
78666W        W51734   7.899  34.637   3.771
78667W        W51735   9.817  26.561  13.621
78668W        W51736  41.713  16.032   2.280
78669W        W51737  15.078  14.629  13.077
78670W        W51738   3.747   5.854  10.351
78671W        W51739  44.872  33.438   3.843
78672W        W51740  39.542   4.608  12.835
78673W        W51741  10.765   5.015  12.896
78674W        W51742   9.793  18.769  13.345
78675W        W51743  41.342  25.552  11.922
78676W        W51744  40.364  12.196   4.809
78677W        W51745   1.699  42.521   0.465
78678W        W51746  32.508  24.527   2.813
78679W        W51747  34.279  37.491   3.119
78680W        W51748  11.083  19.646   4.605
78681W        W51749  41.020   5.325   3.281
78682W        W51750  18.357  28.964  11.552
78683W        W51751   9.314  32.191  13.458
78684W        W51752  25.303  26.026  14.968
78685W        W51753  10.639  17.336  14.756
78686W        W51754  28.421  21.814  14.569
78687W        W51755  33.350  30.135   3.148
78688W        W51756   2.389  37.530  11.065
78689W        W51757  14.891  34.606  12.754
78690W        W51758  28.473  38.038  13.031
78691W        W51759  28.386  33.400   3.710
78692W        W51760   9.486  18.545   3.721
78693W        W51761   6.655  19.129   3.773
78694W        W51762  42.549  15.272   5.099
78695W        W51763  21.256   3.777  13.304
78696W        W51764   9.873  14.994  11.764
78697W        W51765  36.554  16.166  12.062
78698W        W51766  18.836  21.231   3.591
78699W        W51767  18.161  11.238  14.829
78700W        W51768  44.399   4.012   2.739
78701W        W51769   5.260  15.667  13.848
78702W        W51770  44.097  43.058   2.284
78703W        W51771  38.530   9.252   3.298
78704W        W51772  11.847  43.874   3.534
78705W        W51773  26.344  10.037   3.156
78706W        W51774  39.430  17.169   2.788
78707W        W51775   9.137  21.619  13.832
78708W        W51776  30.144  37.386   0.834
78709W        W51777   3.400  36.747   4.718
78710W        W51778  11.863   9.343  12.595
78711W        W51779  10.935  36.395   0.337
78712W        W51780  18.051  23.573  10.640
78713W        W51781  15.498   4.418   2.302
78714W        W51782  13.197  14.359  11.427
78715W        W51783  35.821  31.475  11.023
78716W        W51784  20.868  42.648   1.630
78717W        W51785  13.089  25.265   3.555
78718W        W51786   7.216  29.142  11.621
78719W        W51787  34.456  26.336   3.235
78720W        W51788  31.023  38.991  14.325
78721W        W51789  23.806  19.649   1.498
78722W        W51790  14.322  11.081  10.823
78723W        W51791   4.155   5.498   4.194
78724W        W51792  27.865  38.789  14.938
78725W        W51793   1.788  43.555  13.464
78726W        W51794  38.563  28.677  13.473
78727W        W51795   7.656  35.018  13.495
78728W        W51796  14.413  23.988   1.369
78729W        W51797  36.578  43.850  11.574
78730W        W51798  26.164  42.590   1.295
78731W        W51799  37.761  22.395  11.852
78732W        W51800   2.438  37.644  14.431
78733W        W51801  40.383  25.954   2.094
78734W        W51802  10.228  16.569  14.370
78735W        W51803   1.177  36.421   3.204
78736W        W51804   6.448  25.029  14.063
78737W        W51805  15.633  23.214  10.748
78738W        W51806  32.594  34.026  12.336
78739W        W51807  44.551  16.581  14.841
78740W        W51808  38.989  40.040   3.231
78741W        W51809   7.080   8.370   3.337
78742W        W51810   9.525  38.927  11.289
78743W        W51811   3.681  11.868  14.346
78744W        W51812  10.297   4.756   0.644
78745W        W51813  11.138   6.283   4.592
78746W        W51814  22.844  32.088   1.614
78747W        W51815  34.049  21.220   3.617
78748W        W51816   5.839   6.342  13.354
78749W        W51817  37.146  33.232   0.402
78750W        W51818  31.071  42.114  14.532
78751W        W51819  35.638  13.764  13.835
78752W        W51820  30.514  16.231   4.330
78753W        W51821  34.310   6.201  11.567
78754W        W51822  28.842   7.699   0.798
78755W        W51823  21.584  13.889  14.452
78756W        W51824  35.538  42.800   3.248
78757W        W51825   6.430  38.628  13.749
78758W        W51826  25.063  28.869  11.591
78759W        W51827  40.460   4.758  13.851
78760W        W51828  21.697   0.833  14.071
78761W        W51829   2.779  12.833  10.605
78762W        W51830  15.741  17.076  11.707
78763W        W51831  17.668  29.029   2.591
78764W        W51832  18.185  18.022   0.965
78765W        W51833  16.691  13.457   2.042
78766W        W51834   1.548  17.106  13.116
78767W        W51835  13.718  30.965  13.085
78768W        W51836  36.801   5.454   1.225
78769W        W51837  36.538  22.121  13.470
78770W        W51838  18.565   7.279   3.334
78771W        W51839  11.888  26.592  12.143
78772W        W51840  39.477  34.930  12.185
78773W        W51841  18.209  26.939   0.740
78774W        W51842  28.027  32.657   1.840
78775W        W51843  38.233  19.526   0.807
78776W        W51844  40.770  23.448   0.845
78777W        W51845  40.891  14.798   0.764
78778W        W51846  25.513  31.686  12.976
78779W        W51847  39.874  43.343   1.899
78780W        W51848  16.003   2.122   0.832
78781W        W51849   8.295   5.737   1.490
78782W        W51850   3.250  30.037   0.070
78783W        W51851  41.484  15.788   3.821
78784W        W51852  13.800  35.647   4.787
78785W        W51853  36.184  23.557  11.911
78786W        W51854  34.568  14.720   0.891
78787W        W51855  26.937  32.928  14.913
78788W        W51856  38.071  40.352  12.138
78789W        W51857  24.172  40.660   2.214
78790W        W51858  41.491  12.425   3.028
78791W        W51859  21.697  43.725   2.236
78792W        W51860  18.215  23.548  11.575
78793W        W51861  10.016   0.674  14.522
78794W        W51862  21.758  32.131  11.558
78795W        W51863  23.711  37.096  14.352
78796W        W51864  34.280  26.765  11.246
78797W        W51865  30.876  17.075   4.356
78798W        W51866  30.626  39.091   0.258
78799W        W51867  10.749  28.918   2.551
78800W        W51868  41.208  11.656   0.455
78801W        W51869  25.239   9.414  13.009
78802W        W51870   0.968   9.356   1.890
78803W        W51871  43.515  22.085  14.019
78804W        W51872  35.221   4.847   2.795
78805W        W51873  38.443  22.545   4.315
78806W        W51874   0.054  32.917  13.543
78807W        W51875   6.196  22.364   3.750
78808W        W51876   0.848  30.528   4.607
78809W        W51877  20.997  10.501   0.284
78810W        W51878  25.698  16.341   1.817
78811W        W51879  16.807   6.876  11.903
78812W        W51880  28.384   6.308   4.765
78813W        W51881  23.312  14.211  10.665
78814W        W51882   9.458  17.140   3.836
78815W        W51883  13.293  41.007   4.854
78816W        W51884  15.880  42.131  14.717
78817W        W51885  37.377   7.445   1.399
78818W        W51886  40.068  11.516  14.806
78819W        W51887   7.214  13.154  11.332
78820W        W51888  43.122  44.530  10.121
78821W        W51889  10.921  34.872  11.174
78822W        W51890  15.091  33.070   1.731
78823W        W51891   2.798  19.216  10.536
78824W        W51892   6.720  29.016  11.658
78825W        W51893  21.667  13.970  11.893
78826W        W51894  31.952  14.701  12.491
78827W        W51895  34.809  17.639   1.733
78828W        W51896   4.835   8.352  12.399
78829W        W51897   9.167  42.385   3.347
78830W        W51898  15.568   5.921  14.880
78831W        W51899   5.412   3.928  11.401
78832W        W51900  39.025  39.535   3.181
78833W        W51901   7.191   6.627   0.034
78834W        W51902  44.013  37.532   0.330
78835W        W51903  40.718  16.656   3.810
78836W        W51904  32.628  12.403   2.908
78837W        W51905  11.223  27.472   4.161
78838W        W51906  12.675  42.376   3.536
78839W        W51907  32.433  24.283   4.152
78840W        W51908  32.418   7.758   0.911
78841W        W51909   0.241   9.178   1.382
78842W        W51910  37.544  11.496   2.343
78843W        W51911  22.567  13.601   2.587
78844W        W51912  23.195  27.405   3.233
78845W        W51913   3.684  28.624  13.507
78846W        W51914  15.904  35.362  12.331
78847W        W51915   2.610  41.925  11.606
78848W        W51916  14.491  22.542   2.406
78849W        W51917  10.740   5.203  10.739
78850W        W51918  17.656  16.598   1.152
78851W        W51919  31.108  29.484   3.184
78852W        W51920   7.605   6.686   1.852
78853W        W51921   8.471  37.624  10.894
78854W        W51922  26.834  38.124   5.049
78855W        W51923   0.497  24.105   2.340
78856W        W51924  44.253  39.595   1.826
78857W        W51925  28.001  32.043  11.667
78858W        W51926  40.074  22.566  14.471
78859W        W51927  24.885  33.808   4.210
78860W        W51928  34.504  37.411   1.196
78861W        W51929   3.590  11.879   0.943
78862W        W51930  32.560  20.962   2.881
78863W        W51931  31.741   2.944   0.519
78864W        W51932  35.617   9.307   1.318
78865W        W51933   3.175   4.784   1.532
78866W        W51934  11.306  18.643  13.384
78867W        W51935  17.157  22.092  14.568
78868W        W51936  34.047   7.683   0.790
78869W        W51937  12.137   2.467   3.849
78870W        W51938  33.052  39.912  14.975
78871W        W51939  20.770   0.942   0.753
78872W        W51940  14.338  28.721  14.895
78873W        W51941   8.769  22.996   2.704
78874W        W51942  39.980  39.458  11.321
78875W        W51943  30.665  14.487   2.154
78876W        W51944  37.162  20.113  11.116
78877W        W51945  37.303   4.880   5.191
78878W        W51946   8.437  20.206   3.397
78879W        W51947   7.273  30.152  10.704
78880W        W51948  42.995  19.697   1.852
78881W        W51949   0.526   8.294  12.488
78882W        W51950  35.367  18.490  13.410
78883W        W51951  11.499  35.315  13.932
78884W        W51952  10.654  26.275  14.856
78885W        W51953  33.932  36.669  13.573
78886W        W51954   8.701  18.128   1.595
78887W        W51955  23.267  18.487   4.508
78888W        W51956  33.098  10.437   0.681
78889W        W51957  36.902  30.400   0.099
78890W        W51958   5.786  29.230  13.395
78891W        W51959   6.423  24.279   1.784
78892W        W51960  39.320  21.579   1.805
78893W        W51961  27.265  29.499  12.001
78894W        W51962  44.294  19.538  11.554
78895W        W51963  36.548  17.831   3.920
78896W        W51964  30.456   2.497   3.507
78897W        W51965  10.819  31.963   0.059
78898W        W51966  24.412  19.652  10.203
78899W        W51967   2.221  14.641   0.446
78900W        W51968  19.769  34.677   2.322
78901W        W51969  43.949  13.907  10.409
78902W        W51970  33.450  14.904  13.130
78903W        W51971  16.698   6.763  12.615
78904W        W51972  13.836  27.933   3.921
78905W        W51973  18.383  16.008   1.391
78906W        W51974  24.642  23.670  10.681
78907W        W51975  19.717  20.837  13.473
78908W        W51976  20.682  31.992   3.196
78909W        W51977   1.950  28.330  11.546
78910W        W51978  23.660  24.629  13.560
78911W        W51979   2.432   5.266   1.398
78912W        W51980   7.621  29.972  12.752
78913W        W51981  25.098  28.905  12.514
78914W        W51982  29.083  29.273   4.179
78915W        W51983  38.040   0.484  12.732
78916W        W51984  25.046  19.332  14.769
78917W        W51985  24.852  42.378   3.333
78918W        W51986  25.778  27.442  11.643
78919W        W51987  18.666  19.509  13.967
78920W        W51988  43.250  15.412   0.963
78921W        W51989  12.130   0.960  11.885
78922W        W51990  31.957  20.902   1.868
78923W        W51991   6.198  14.789  13.830
78924W        W51992  28.504   3.926   3.673
78925W        W51993  29.164  32.927   4.113
78926W        W51994  24.959  10.753  10.532
78927W        W51995  13.758   3.895  12.106
78928W        W51996  36.966   3.692  13.434
78929W        W51997  22.001  41.057   1.460
78930W        W51998  44.799  19.162   2.309
78931W        W51999  19.775   9.400  13.059
78932W        W52000  38.041  25.526   1.525
78933W        W52001  35.917  32.987  11.712
78934W        W52002  13.616  43.860  12.460
78935W        W52003   2.714   5.790   4.072
78936W        W52004  39.077  27.927   3.775
78937W        W52005   3.419  35.511   3.541
78938W        W52006  17.490  14.782   1.063
78939W        W52007  19.978  24.635  13.635
78940W        W52008  35.527   3.675  11.657
78941W        W52009  21.627  41.412   2.795
78942W        W52010   0.875  35.066   1.366
78943W        W52011  24.194  21.201  12.355
78944W        W52012  43.474  43.366   2.801
78945W        W52013  34.559   4.749   0.254
78946W        W52014  16.317  15.133  13.108
78947W        W52015  14.701   9.628  12.969
78948W        W52016  25.651  32.144  10.768
78949W        W52017  30.936   9.466   1.753
78950W        W52018  36.917  36.024   4.480
78951W        W52019   7.630  34.512  12.023
78952W        W52020  35.289  28.644  14.360
78953W        W52021  43.864   4.062   1.937
78954W        W52022   8.031  12.096   2.334
78955W        W52023  41.285   6.476   0.841
78956W        W52024  21.978  39.128  12.401
78957W        W52025  43.437  28.556   3.375
78958W        W52026  27.190  41.490  12.952
78959W        W52027  13.266  32.417   4.019
78960W        W52028   2.922  21.894  13.942
78961W        W52029  10.916  30.458   1.412
78962W        W52030   4.716  24.449   3.233
78963W        W52031  15.914  22.226   4.820
78964W        W52032  39.854  44.082   0.686
78965W        W52033  29.413   4.992  11.106
78966W        W52034  31.094   8.453   1.564
78967W        W52035   5.828  23.028   2.700
78968W        W52036   7.205  25.643   1.895
78969W        W52037  31.872  34.999  12.387
78970W        W52038   1.980   7.254   2.390
78971W        W52039  16.364  38.349   1.252
78972W        W52040  25.246   0.161  12.644
78973W        W52041  10.150   7.556   3.768
78974W        W52042  11.842  43.051  12.849
78975W        W52043  42.381  30.653  12.638
78976W        W52044  35.976  31.225   2.877
78977W        W52045  15.408  21.039  11.091
78978W        W52046   9.677   5.240   1.756
78979W        W52047  21.512  14.257  11.517
78980W        W52048  44.111  35.033   3.620
78981W        W52049  28.419  42.250  12.617
78982W        W52050   8.884   2.022  12.171
78983W        W52051   6.207  16.339   1.861
78984W        W52052   1.475  37.377  10.981
78985W        W52053  13.105  34.433   2.192
78986W        W52054  38.334  37.444   3.897
78987W        W52055  29.467  38.849  14.017
78988W        W52056   4.763  20.025  11.636
78989W        W52057   5.352  12.256  13.743
78990W        W52058  18.057   8.599   3.968
78991W        W52059  16.741  28.729  11.075
78992W        W52060  43.424  29.424  10.703
78993W        W52061  20.901   5.254  13.028
78994W        W52062  38.123  14.757   0.010
78995W        W52063  20.966  22.527   0.318
78996W        W52064  10.341  19.806  10.207
78997W        W52065  41.331  31.286  14.976
78998W        W52066  33.565  28.110  10.057
78999W        W52067   7.206  20.679   1.865
79000W        W52068  11.595  38.796  11.660
79001W        W52069  40.321  14.616  13.749
79002W        W52070  25.941  13.755  14.005
79003W        W52071  32.609  33.532  14.020
79004W        W52072  33.590  31.451  12.194
79005W        W52073   6.930  13.592  12.072
79006W        W52074  31.192  17.456  10.100
79007W        W52075  28.274  29.746   4.107
79008W        W52076  40.684  18.861   4.468
79009W        W52077   0.972  13.200   4.865
79010W        W52078   6.468   4.758   1.070
79011W        W52079  14.249  22.269  11.190
79012W        W52080  22.900   4.803   1.702
79013W        W52081  44.342  23.001   2.167
79014W        W52082  12.217  44.225   3.592
79015W        W52083  22.623  22.806   3.575
79016W        W52084  38.491  18.328  14.027
79017W        W52085  24.415  19.495  13.423
79018W        W52086  41.337   1.047  14.725
79019W        W52087  28.516  10.820  14.836
79020W        W52088  24.548  44.090  11.515
79021W        W52089  23.660  19.119  11.902
79022W        W52090  29.027  16.939   3.747
79023W        W52091  13.382  42.520   4.112
79024W        W52092  41.571  23.120  14.724
79025W        W52093  38.497  32.944   0.573
79026W        W52094  17.644  36.576   0.804
79027W        W52095   0.533  12.551  11.128
79028W        W52096  37.121  18.489  14.928
79029W        W52097  23.632  29.433  14.841
79030W        W52098  31.617  33.523   1.467
79031W        W52099  41.369  43.807  13.090
79032W        W52100   6.982  16.204  11.373
79033W        W52101  43.443  30.691   1.474
79034W        W52102   6.133  14.266   1.863
79035W        W52103   7.165  24.658  10.702
79036W        W52104   6.251  15.134   4.680
79037W        W52105  26.190  22.219  14.745
79038W        W52106   3.554   3.832  12.499
79039W        W52107  39.536   6.060  12.013
79040W        W52108  43.459  12.764  13.103
79041W        W52109  22.055  13.654   0.897
79042W        W52110   9.364   3.936  14.777
79043W        W52111  24.633  43.884   2.237
79044W        W52112   1.667  34.954   3.681
79045W        W52113  33.831  21.050   1.000
79046W        W52114  29.015  35.301   4.450
79047W        W52115  17.641   5.932  12.748
79048W        W52116   2.776  28.908  11.380
79049W        W52117  28.343  13.854   0.959
79050W        W52118   2.902   1.766  13.623
79051W        W52119  39.473  23.444  12.837
79052W        W52120  43.800   1.843  11.849
79053W        W52121  24.578  17.667  13.388
79054W        W52122  18.991  28.092  14.454
79055W        W52123   4.758  41.570  10.223
79056W        W52124  33.425  34.136  13.860
79057W        W52125  10.356  23.114  14.697
79058W        W52126  16.236  36.356   2.352
79059W        W52127  16.432  36.149   0.261
79060W        W52128  12.672  33.974   3.475
79061W        W52129  29.036  21.161   3.980
79062W        W52130  29.792   1.211  11.561
79063W        W52131  18.741   6.641  11.204
79064W        W52132  25.173  27.141  12.124
79065W        W52133  16.239  31.647  14.091
79066W        W52134  26.949   9.357  12.399
79067W        W52135  31.678  38.967   2.808
79068W        W52136  27.678  30.585   4.637
79069W        W52137  34.005  42.290   4.868
79070W        W52138   0.748  41.472   0.612
79071W        W52139  20.323  30.766   1.207
79072W        W52140  43.009  39.652  12.104
79073W        W52141  14.121  22.558   0.087
79074W        W52142  17.033  27.957  11.394
79075W        W52143  36.619  12.571  10.086
79076W        W52144  38.897  11.317  12.154
79077W        W52145   2.062  28.446  10.570
79078W        W52146  31.914  29.109   0.822
79079W        W52147  28.108  31.669   1.923
79080W        W52148  39.113   7.849   2.828
79081W        W52149  34.024   9.373  10.656
79082W        W52150  23.638  18.229  10.647
79083W        W52151  44.441  33.098  13.901
79084W        W52152  22.712   5.922   0.846
79085W        W52153  22.047  42.891   1.959
79086W        W52154  14.177  14.787  14.160
79087W        W52155  21.021  38.880  12.931
79088W        W52156  38.372  16.200  14.236
79089W        W52157  27.669   2.449  10.417
79090W        W52158  28.975   4.288   4.238
79091W        W52159  10.762  23.506  13.734
79092W        W52160  40.271  16.764   4.569
79093W        W52161  21.140   7.944  13.488
79094W        W52162  36.670   4.610  12.910
79095W        W52163  41.999  29.071   3.818
79096W        W52164  24.169  39.457  12.768
79097W        W52165  18.246  31.345  10.556
79098W        W52166   6.440  39.299   4.362
79099W        W52167  31.586  30.583   0.912
79100W        W52168  23.680  20.630  11.964
79101W        W52169  11.644  34.334  10.605
79102W        W52170  25.750   7.728  13.483
79103W        W52171   7.378  34.590  14.930
79104W        W52172  32.316   3.628   5.065
79105W        W52173  44.918  24.586   1.512
79106W        W52174   2.285  40.980   2.450
79107W        W52175  37.886  23.386   0.938
79108W        W52176  37.730   0.044  12.637
79109W        W52177  23.021   5.984  10.628
79110W        W52178  22.394  20.181   1.423
79111W        W52179  25.832  18.568   4.014
79112W        W52180  25.064   2.990   2.417
79113W        W52181   7.100   1.761  14.703
79114W        W52182   1.155  10.255   1.315
79115W        W52183   5.243   1.766  12.480
79116W        W52184   6.259  41.005   2.895
79117W        W52185  41.447  37.333   4.581
79118W        W52186   6.146  37.469   3.281
79119W        W52187  23.106   6.176  14.545
79120W        W52188  16.490  26.920  11.128
79121W        W52189  20.075  34.748  13.855
79122W        W52190   3.089   5.826   0.050
79123W        W52191  20.650  42.329  11.652
79124W        W52192  16.588  31.658  11.611
79125W        W52193  42.893  31.084  11.189
79126W        W52194  44.892   8.137  14.268
79127W        W52195  43.573  41.452  11.105
79128W        W52196   2.814  27.495  10.999
79129W        W52197   1.369  22.703  13.657
79130W        W52198  33.516  34.116  12.873
79131W        W52199   1.485   0.367   4.142
79132W        W52200  42.859  10.631   1.234
79133W        W52201   8.902  19.174  12.922
79134W        W52202  17.060  39.532   2.886
79135W        W52203  13.758  38.348  11.600
79136W        W52204  11.053   2.395  11.548
79137W        W52205  24.098  43.084  12.105
79138W        W52206  15.255  10.354   0.045
79139W        W52207  37.002  11.631   4.427
79140W        W52208   3.253   9.335  14.867
79141W        W52209  25.692  35.187  13.477
79142W        W52210  28.470  27.104  14.628
79143W        W52211  41.500  31.575  13.882
79144W        W52212  23.172  16.275  10.668
79145W        W52213  14.800  17.703  12.542
79146W        W52214  23.237  43.010   4.651
79147W        W52215  10.780  26.005   1.717
79148W        W52216   2.872  38.496   1.670
79149W        W52217  17.965   9.873  14.524
79150W        W52218   0.398  15.710   4.512
79151W        W52219  27.623   4.854   0.800
79152W        W52220  33.071  38.259  10.989
79153W        W52221  32.485  16.837  14.203
79154W        W52222  17.380  17.115   3.328
79155W        W52223  22.011  32.492   2.806
79156W        W52224  23.768  14.850  13.861
79157W        W52225  27.633   3.448  12.043
79158W        W52226  35.362  28.473  12.523
79159W        W52227   1.574  15.655  11.967
79160W        W52228  19.622  10.939   4.901
79161W        W52229  14.172  29.405  13.851
79162W        W52230  40.795  20.188   2.841
79163W        W52231  37.329  27.681   3.780
79164W        W52232  17.563  26.659   2.236
79165W        W52233  12.853  40.525  13.920
79166W        W52234  43.824  11.373  11.100
79167W        W52235  23.756  13.103  14.375
79168W        W52236  16.772  31.413   2.793
79169W        W52237  31.801  34.601   2.776
79170W        W52238  28.798   9.458   3.282
79171W        W52239   0.705  14.725  11.601
79172W        W52240  29.654   2.804   4.321
79173W        W52241   4.199  16.063   3.720
79174W        W52242  37.912  14.309  13.808
79175W        W52243   4.862  13.774   0.717
79176W        W52244  33.057  44.861   2.879
79177W        W52245   4.092  36.608  11.971
79178W        W52246  12.782  18.592  12.569
79179W        W52247  15.049  11.262  14.480
79180W        W52248  11.360  19.775   5.077
79181W        W52249  15.642   2.612   1.268
79182W        W52250  34.927  14.612  12.061
79183W        W52251  13.855  29.414  14.847
79184W        W52252  32.491  23.263  13.549
79185W        W52253  29.903  19.610   1.134
79186W        W52254  11.613  17.096  12.005
79187W        W52255  33.360  33.159  13.966
79188W        W52256  43.647  38.605   4.001
79189W        W52257  31.238  29.596   2.240
79190W        W52258  31.076   7.180  11.376
79191W        W52259  39.601   4.769   4.184
79192W        W52260  15.235   7.231  13.826
79193W        W52261  13.111  30.203   0.098
79194W        W52262  40.365   2.733   0.576
79195W        W52263  43.564  20.015  11.490
79196W        W52264  10.297  40.996   4.339
79197W        W52265  29.071  35.617  13.088
79198W        W52266  30.216  19.706   0.734
79199W        W52267   7.276  14.261   1.225
79200W        W52268  13.860  43.154  13.342
79201W        W52269  10.304   0.721   1.435
79202W        W52270  17.709   6.897   4.334
79203W        W52271  23.583   9.196   2.137
79204W        W52272   9.755  39.255  14.995
79205W        W52273  38.896   4.713  13.435
79206W        W52274  39.953  33.538  14.430
79207W        W52275  25.421   0.780   1.925
79208W        W52276  43.383   3.450   1.389
79209W        W52277  42.255  39.010   1.885
79210W        W52278  44.530  11.845  12.484
79211W        W52279  37.388  27.571  12.776
79212W        W52280  24.810  19.180   0.273
79213W        W52281  43.870   6.756  10.843
79214W        W52282  14.370  41.838   3.325
79215W        W52283  21.568  44.573   0.846
79216W        W52284   3.965  22.985  11.455
79217W        W52285  11.630  40.116  14.367
79218W        W52286  28.171  21.137   1.423
79219W        W52287  35.310   8.844   0.603
79220W        W52288  18.113   2.253  14.018
79221W        W52289   6.439  44.960   4.149
79222W        W52290  19.122  14.761  13.517
79223W        W52291   6.285  23.184   0.150
79224W        W52292  29.382  27.487   3.526
79225W        W52293  31.941  36.321  13.050
79226W        W52294  13.275  21.154   4.582
79227W        W52295   0.765  28.141   1.224
79228W        W52296   9.369   9.788  12.074
79229W        W52297  13.655  18.619   0.881
79230W        W52298  33.166  40.783   2.275
79231W        W52299   9.149  16.789   0.480
79232W        W52300   7.321   2.323   0.293
79233W        W52301  32.942  29.571   4.100
79234W        W52302  32.350  24.195  13.069
79235W        W52303   0.010  12.096   2.223
79236W        W52304  13.776  17.570   1.087
79237W        W52305  21.744  44.918  12.747
79238W        W52306  44.895  27.704  14.980
79239W        W52307  42.977  30.967  11.685
79240W        W52308   2.844  18.599  12.219
79241W        W52309  27.663  34.872  13.816
79242W        W52310  28.660   5.025   3.191
79243W        W52311  24.133  36.170  14.765
79244W        W52312  34.410  22.119   0.058
79245W        W52313  22.735  39.015   0.414
79246W        W52314  42.784  19.456  13.451
79247W        W52315  23.235  30.078   4.570
79248W        W52316  15.083  21.411  12.058
79249W        W52317  35.838  11.079   2.124
79250W        W52318  22.743  35.510  12.639
79251W        W52319  30.489   3.504   2.843
79252W        W52320  14.165  41.880  12.939
79253W        W52321  10.474   0.806   3.667
79254W        W52322  18.681   8.294  13.165
79255W        W52323  14.638  26.611   0.770
79256W        W52324   1.681  10.213   1.292
79257W        W52325   9.313  25.688   1.846
79258W        W52326  12.093  32.046  10.848
79259W        W52327  19.870   8.123  13.739
79260W        W52328  20.091   4.508  11.166
79261W        W52329  22.831  24.475   2.302
79262W        W52330   8.920  26.661   2.686
79263W        W52331  27.448  26.020  11.553
79264W        W52332  10.638  42.865  12.074
79265W        W52333  16.226  17.811   3.010
79266W        W52334  36.551  38.098  12.899
79267W        W52335  39.832  37.970  12.836
79268W        W52336  20.178  11.154   0.288
79269W        W52337  22.966   6.805  12.516
79270W        W52338   2.817  13.055  11.941
79271W        W52339  22.603  19.669   1.505
79272W        W52340  41.795   8.334   2.405
79273W        W52341  38.871  39.842  13.816
79274W        W52342   7.790  27.976  14.379
79275W        W52343  31.366  10.113   2.790
79276W        W52344  44.988  15.993  12.215
79277W        W52345  12.153  26.421   1.296
79278W        W52346  26.417   9.406  14.208
79279W        W52347  31.856  12.136  11.595
79280W        W52348  40.802   2.857  12.892
79281W        W52349   0.443  37.755  11.071
79282W        W52350  12.375  12.610   4.048
79283W        W52351   1.976  35.554  14.590
79284W        W52352   9.763  43.055   3.688
79285W        W52353  21.662  43.327   0.257
79286W        W52354  23.051  13.138  14.931
79287W        W52355   0.579  36.902   1.694
79288W        W52356   4.875  40.974   3.632
79289W        W52357   5.278  20.988  11.497
79290W        W52358   5.026  37.421  13.546
79291W        W52359  33.918  37.226  10.708
79292W        W52360  39.568  17.299   1.259
79293W        W52361  11.385   2.223  13.466
79294W        W52362  17.864   6.852  10.681
79295W        W52363  25.620   1.018   0.918
79296W        W52364   1.887  33.763  12.328
79297W        W52365   9.304   1.216  14.537
79298W        W52366  38.490  32.121  12.168
79299W        W52367  27.720  32.251   0.013
79300W        W52368  12.996  22.796   1.549
79301W        W52369  44.572  12.544  12.507
79302W        W52370   6.624  41.896   2.874
79303W        W52371  34.840   5.208   2.725
79304W        W52372  37.290  28.406   2.373
79305W        W52373  42.416  30.033  14.843
79306W        W52374  10.395  10.033   5.086
79307W        W52375  39.668  40.628  11.198
79308W        W52376   4.259   0.336   3.627
79309W        W52377  37.942  26.230   3.807
79310W        W52378  42.081  15.060   4.974
79311W        W52379   6.897   6.153   4.078
79312W        W52380  39.539  44.351  14.267
79313W        W52381   3.759  29.574  14.616
79314W        W52382  22.450  39.079   0.860
79315W        W52383  15.247  22.001   2.866
79316W        W52384  20.494  18.147   4.185
79317W        W52385  30.663  38.065   2.511
79318W        W52386  13.350   6.345  10.652
79319W        W52387  36.501  20.115   0.050
79320W        W52388  32.867  15.848   3.290
79321W        W52389  11.699  28.927   2.903
79322W        W52390  10.967   3.304  14.505
79323W        W52391  31.511  11.687  13.645
79324W        W52392   2.162   9.906  11.954
79325W        W52393   0.322  11.321   2.569
79326W        W52394   4.837  21.754  13.662
79327W        W52395  40.954  43.076  11.163
79328W        W52396  25.797  40.678   5.533
79329W        W52397  35.862  24.110   3.278
79330W        W52398  15.671  15.834  10.315
79331W        W52399  17.820  23.301   2.684
79332W        W52400  14.889  33.435   2.520
79333W        W52401  30.385  12.707  12.341
79334W        W52402  34.369  41.556   0.868
79335W        W52403  30.481  23.160  12.090
79336W        W52404  14.863  42.881  11.574
79337W        W52405  35.939  40.968   3.788
79338W        W52406   5.786   5.456   3.963
79339W        W52407  39.365  19.760  10.915
79340W        W52408  35.888  33.657   1.250
79341W        W52409  25.354  26.602  13.293
79342W        W52410  36.011  11.618   3.639
79343W        W52411   5.954  36.783   0.818
79344W        W52412   8.825  21.464   3.692
79345W        W52413  26.264  25.533   2.277
79346W        W52414  30.365  38.805  14.290
79347W        W52415  43.418   3.315   3.813
79348W        W52416  11.962  30.888  13.590
79349W        W52417  29.389  18.067  12.932
79350W        W52418  11.820   7.083  14.228
79351W        W52419   2.203  21.985   0.165
79352W        W52420  10.207  11.668  13.308
79353W        W52421  10.133  41.298  11.912
79354W        W52422  20.211  28.457  10.386
79355W        W52423  37.581   9.689   2.704
79356W        W52424  30.446  43.813   1.013
79357W        W52425  13.726  14.298  13.021
79358W        W52426  12.199   1.294   3.625
79359W        W52427  40.623   1.389   4.675
79360W        W52428   9.150  29.091  11.153
79361W        W52429  41.519  38.986   3.190
79362W        W52430  19.801  44.978  13.323
79363W        W52431  14.822  29.107  12.905
79364W        W52432  43.286  42.161  12.127
79365W        W52433  34.619  33.064   4.982
79366W        W52434  39.284   4.708   1.242
79367W        W52435  26.512  32.089  10.682
79368W        W52436  36.399  29.274   4.557
79369W        W52437  14.671  28.558  12.074
79370W        W52438  36.221   5.249   4.319
79371W        W52439  20.043  39.498   3.205
79372W        W52440  23.394  19.556  10.277
79373W        W52441   6.557  41.558  10.318
79374W        W52442  39.924  13.466  10.172
79375W        W52443  40.900   2.442   1.181
79376W        W52444   0.753  43.549   1.745
79377W        W52445   0.529  33.620  12.610
79378W        W52446  12.931  35.450  13.987
79379W        W52447   3.320  13.713  11.554
79380W        W52448   1.053  36.098  12.995
79381W        W52449  13.268   5.342   3.204
79382W        W52450  18.499  30.927  13.491
79383W        W52451  36.079  44.546   4.299
79384W        W52452  41.979  43.300  11.084
79385W        W52453   8.074  31.000   0.367
79386W        W52454  28.806   4.578  11.695
79387W        W52455  39.050   9.658  14.523
79388W        W52456  10.132  23.992  11.496
79389W        W52457  26.016  29.698  11.459
79390W        W52458  13.460  16.578  11.965
79391W        W52459  42.089  21.270   2.469
79392W        W52460  20.597  40.544   2.912
79393W        W52461  32.120  11.884  13.866
79394W        W52462  33.383  28.209   4.083
79395W        W52463  37.770  32.716   2.812
79396W        W52464  36.168  10.232  10.664
79397W        W52465  26.573  15.733  13.805
79398W        W52466  29.547  14.798   3.357
79399W        W52467   1.435  32.181   2.466
79400W        W52468  14.869  19.650  13.533
79401W        W52469  14.540  12.427  14.427
79402W        W52470  10.625  17.448  12.588
79403W        W52471   2.277  16.207   2.395
79404W        W52472   2.818  19.617  12.630
79405W        W52473  33.374  12.140  10.777
79406W        W52474  24.659  33.589  12.024
79407W        W52475  12.748  19.278  11.661
79408W        W52476  42.205  32.912   3.238
79409W        W52477  40.404  17.808   4.585
79410W        W52478  16.132  20.964   3.193
79411W        W52479  31.569   0.150   0.833
79412W        W52480   7.116   8.732  13.975
79413W        W52481  14.756  31.635  13.053
79414W        W52482  39.372  14.357  13.088
79415W        W52483  31.702  10.253   3.167
79416W        W52484   9.843  31.147  10.462
79417W        W52485  35.138  36.040   2.681
79418W        W52486  16.611  16.829  11.927
79419W        W52487  25.923  30.589   0.984
79420W        W52488  24.143  40.418   4.056
79421W        W52489   6.498  37.442  11.579
79422W        W52490  42.306  13.106  12.093
79423W        W52491  19.733  20.698  11.634
79424W        W52492   5.755  10.683  13.772
79425W        W52493  41.972   9.023  10.966
79426W        W52494  19.572  37.030   2.739
79427W        W52495  14.608   8.178  14.548
79428W        W52496   9.873  36.896   3.290
79429W        W52497  43.519  44.900   1.802
79430W        W52498  10.579  36.156  11.841
79431W        W52499  19.946  44.314  13.419
79432W        W52500  26.991  14.207  14.359
79433W        W52501   5.824  11.525  14.288
79434W        W52502  32.699  14.219  12.414
79435W        W52503  16.616  14.792  11.990
79436W        W52504  24.387  22.438  13.411
79437W        W52505   9.471   8.278  14.913
79438W        W52506  16.176   4.765  12.099
79439W        W52507   4.304  30.015   2.475
79440W        W52508  25.155   3.749  11.731
79441W        W52509   4.890  22.225   2.217
79442W        W52510  34.474   0.533   2.257
79443W        W52511  10.278   3.999   1.853
79444W        W52512  28.366   1.329  13.127
79445W        W52513  32.702  12.604  12.098
79446W        W52514  17.789  42.537  12.963
79447W        W52515  18.753  24.334  13.542
79448W        W52516  28.481   3.877  12.972
79449W        W52517  40.141  40.945   4.329
79450W        W52518  32.905   2.969   2.666
79451W        W52519   4.568  36.405  11.921
79452W        W52520  41.880   2.207   1.967
79453W        W52521  17.799  13.631  14.277
79454W        W52522  14.229  30.233   2.815
79455W        W52523  22.265  30.184  12.925
79456W        W52524  40.865  38.397   3.772
79457W        W52525   5.853  11.778   3.638
79458W        W52526  24.541  39.302   4.447
79459W        W52527  34.506  40.265   3.365
79460W        W52528  12.348  34.977   0.092
79461W        W52529   0.313  16.204  11.443
79462W        W52530  21.575  31.376  11.187
79463W        W52531  30.609  24.557   3.760
79464W        W52532  19.199  11.169  13.220
79465W        W52533  37.761  33.524   0.517
79466W        W52534  27.529  42.064   4.528
79467W        W52535  36.999  43.733  11.245
79468W        W52536   3.696  29.409   4.153
79469W        W52537  26.711  22.457   2.319
79470W        W52538   8.267  29.649  10.777
79471W        W52539   5.018  28.356  14.713
79472W        W52540  31.577   1.022   2.803
79473W        W52541   7.948  36.381  13.788
79474W        W52542  20.414  27.081   2.195
79475W        W52543  13.038  19.068   4.169
79476W        W52544  22.099  35.200  14.226
79477W        W52545  11.336   5.256   4.458
79478W        W52546  29.112  24.227  11.578
79479W        W52547  12.533  39.806   4.130
79480W        W52548  33.554   4.568  13.890
79481W        W52549  32.563   3.186   2.263
79482W        W52550  40.065  32.134   1.767
79483W        W52551  32.644  41.881  14.091
79484W        W52552  25.727  36.824   0.949
79485W        W52553  37.404   3.389   1.717
79486W        W52554  33.567   3.916  12.500
79487W        W52555  14.880  36.555  14.408
79488W        W52556  40.601   1.898  14.978
79489W        W52557  35.573  19.558   0.939
79490W        W52558  34.186  32.522   0.004
79491W        W52559  18.997  12.290  13.432
79492W        W52560   9.965  22.516  11.141
79493W        W52561   9.712  17.787  14.502
79494W        W52562   9.995  40.472  14.799
79495W        W52563  36.443   5.548   4.807
79496W        W52564  29.250  10.423   3.199
79497W        W52565  39.514   6.391  14.441
79498W        W52566  11.623  37.358  14.488
79499W        W52567  10.779  37.787   2.750
79500W        W52568   3.258  30.214  10.406
79501W        W52569  35.505   8.264  14.718
79502W        W52570   4.564  23.562   2.754
79503W        W52571  26.933  12.350  12.031
79504W        W52572  37.934  36.870  14.316
79505W        W52573  28.229  15.594  14.572
79506W        W52574  37.868   5.808   2.775
79507W        W52575  38.412  10.134  10.775
79508W        W52576  32.087   5.602  11.574
79509W        W52577  10.814  32.115  12.114
79510W        W52578  19.742  43.927   1.735
79511W        W52579  36.684  41.241  13.432
79512W        W52580  29.060  10.868   4.198
79513W        W52581  30.446  21.557  10.439
79514W        W52582  23.005  19.827   4.465
79515W        W52583   7.769  23.675   3.841
79516W        W52584  12.050  25.964   2.273
79517W        W52585  17.265  24.133   0.472
79518W        W52586   7.717  29.400   2.711
79519W        W52587   0.621  41.028  12.021
79520W        W52588  32.384  41.322   3.114
79521W        W52589  17.242  18.787   0.463
79522W        W52590  10.798   2.480   4.799
79523W        W52591  32.333   9.189   1.037
79524W        W52592  42.265  29.613   2.661
79525W        W52593  30.270  21.587   2.832
79526W        W52594  22.462   8.387   3.253
79527W        W52595  34.086  28.526  12.188
79528W        W52596  29.264   0.467  12.812
79529W        W52597   9.912  37.308   4.693
79530W        W52598   5.460  44.925  12.894
79531W        W52599  25.215  36.461  12.092
79532W        W52600  10.339  27.963  14.487
79533W        W52601  12.209  41.338   2.400
79534W        W52602  20.284  25.524  14.953
79535W        W52603  43.752  43.504  14.327
79536W        W52604  17.315  40.984   4.698
79537W        W52605   8.577  32.864  13.620
79538W        W52606  25.977  21.536   1.319
79539W        W52607  25.963  21.531   0.409
79540W        W52608  41.495   1.474   4.628
79541W        W52609  20.059   7.812  11.569
79542W        W52610  27.524  39.539  13.961
79543W        W52611  16.553  41.497  11.953
79544W        W52612  41.036  21.653  10.494
79545W        W52613   0.438  34.579  11.594
79546W        W52614  35.549  13.291  12.983
79547W        W52615   1.886   5.239   0.305
79548W        W52616   6.275  29.459   1.252
79549W        W52617  39.496  33.411   1.953
79550W        W52618   5.325  33.029   2.119
79551W        W52619  37.891  35.772   2.470
79552W        W52620  43.768  19.381  12.417
79553W        W52621  13.312   1.378  12.544
79554W        W52622   9.726  18.801  11.473
79555W        W52623  34.233  19.628   0.982
79556W        W52624   2.725  32.609   1.661
79557W        W52625  31.091  14.786   0.960
79558W        W52626  29.964  35.063   3.257
79559W        W52627  37.365   6.325   1.281
79560W        W52628  35.100  19.799   4.942
79561W        W52629  28.773  36.578  11.067
79562W        W52630   2.550  20.059   1.991
79563W        W52631  35.046  36.951  12.233
79564W        W52632  28.400  11.650  12.271
79565W        W52633  25.420  20.585   3.700
79566W        W52634  15.855  24.028   1.772
79567W        W52635   3.800   1.204   3.264
79568W        W52636  27.180  38.534   2.984
79569W        W52637  38.837  19.734  13.084
79570W        W52638  41.474  11.345   1.754
79571W        W52639  26.192   3.969   4.524
79572W        W52640  41.800  19.302   2.175
79573W        W52641   0.840  21.133   1.400
79574W        W52642  39.294  19.698   4.895
79575W        W52643  43.768  39.350  12.482
79576W        W52644  35.050   6.349  13.246
79577W        W52645  13.018  30.002   3.430
79578W        W52646  36.329  35.489   0.297
79579W        W52647  17.798  28.696   3.650
79580W        W52648  20.498  27.382  11.279
79581W        W52649  23.207  36.364  13.114
79582W        W52650  38.725  32.078  14.436
79583W        W52651  43.049  22.025   4.945
79584W        W52652   9.569  43.553   3.799
79585W        W52653  33.935  18.543   4.572
79586W        W52654  23.119  24.605  14.414
79587W        W52655   8.505  23.982  14.783
79588W        W52656  37.878   1.104   3.251
79589W        W52657  42.688  34.110   1.936
79590W        W52658  42.654  41.150   0.919
79591W        W52659  22.533  33.468   4.787
79592W        W52660  19.076  42.780  13.385
79593W        W52661   8.247  11.784   3.702
79594W        W52662   2.719  34.404  14.255
79595W        W52663  39.795  27.164   0.918
79596W        W52664   4.420  10.729  13.489
79597W        W52665  25.466  21.163   2.337
79598W        W52666   1.950  23.291  14.101
79599W        W52667  27.968  20.491   0.034
79600W        W52668  18.575   7.593   2.230
79601W        W52669   1.483   2.392   0.330
79602W        W52670   5.062  21.768  10.579
79603W        W52671   0.825  12.894  12.597
79604W        W52672   1.845  13.468   2.306
79605W        W52673  44.573  16.234  14.446
79606W        W52674  16.381  24.207   3.970
79607W        W52675  44.839  17.010  11.922
79608W        W52676   5.349  38.538  14.508
79609W        W52677   6.440  32.197   3.132
79610W        W52678  10.763  12.737  12.615
79611W        W52679  36.316  41.060  13.917
79612W        W52680  18.637  34.102   4.379
79613W        W52681  39.428  36.495   4.029
79614W        W52682  38.378   5.496   0.510
79615W        W52683  25.379   7.900  13.854
79616W        W52684   1.918   1.403  14.470
79617W        W52685  24.501  29.585   2.306
79618W        W52686  24.769  41.967   1.605
79619W        W52687  13.442   2.387   1.755
79620W        W52688  10.756  12.614   1.182
79621W        W52689  35.077  33.134   1.584
79622W        W52690   5.870  44.308   2.091
79623W        W52691  34.000  23.760  14.031
79624W        W52692  15.983  37.426  12.492
79625W        W52693  14.729  14.768   5.112
79626W        W52694  34.399  12.062  13.464
79627W        W52695   6.438  29.487  11.528
79628W        W52696  28.629  35.141  11.674
79629W        W52697  42.674  14.042  14.843
79630W        W52698  17.588  19.930   3.731
79631W        W52699  14.117   5.141   0.518
79632W        W52700  36.369   1.624  13.718
79633W        W52701  16.299  29.616  11.814
79634W        W52702  32.605  25.021   1.202
79635W        W52703  34.444  33.056  11.848
79636W        W52704  19.744  43.786  13.007
79637W        W52705   8.108  11.262  14.352
79638W        W52706  27.009  31.005  13.884
79639W        W52707  38.213   2.817  11.442
79640W        W52708  39.727  37.033  13.839
79641W        W52709   7.266  15.965   2.380
79642W        W52710  44.014  18.200   1.912
79643W        W52711   7.640  25.225  14.398
79644W        W52712  17.637  12.702  14.442
79645W        W52713  22.905  11.685  11.520
79646W        W52714  34.483  31.212   4.620
79647W        W52715  26.188  37.821   3.607
79648W        W52716  34.096  34.441   4.046
79649W        W52717  11.859   3.897  14.496
79650W        W52718  18.249  27.511  11.125
79651W        W52719   3.224   1.516   2.750
79652W        W52720  14.338   9.842  11.576
79653W        W52721   7.672  37.525  13.336
79654W        W52722  20.620  30.664   3.730
79655W        W52723  16.041  23.532  10.951
79656W        W52724  24.251   8.003   0.527
79657W        W52725   0.665  16.087   3.734
79658W        W52726  21.462  18.385  10.379
79659W        W52727  24.717  15.844  12.866
79660W        W52728  35.564  33.059   1.757
79661W        W52729  17.322  38.970  13.045
79662W        W52730  26.567  14.360   1.033
79663W        W52731  19.659  26.802   4.074
79664W        W52732  24.300   3.944   1.713
79665W        W52733   9.678   9.783   3.599
79666W        W52734  24.628  41.458   1.830
79667W        W52735  39.471  40.262  11.500
79668W        W52736   1.326  38.453   2.283
79669W        W52737   7.612   0.970  12.083
79670W        W52738  24.480  24.788   2.787
79671W        W52739  23.977   0.312   4.716
79672W        W52740  36.604  25.209  12.303
79673W        W52741  43.751  15.036  11.746
79674W        W52742  21.745  15.446  12.100
79675W        W52743  16.350  27.586  13.060
79676W        W52744  12.414  20.893  12.437
79677W        W52745  16.181  40.432   2.122
79678W        W52746  25.257  34.228   4.143
79679W        W52747  33.473   9.147  14.851
79680W        W52748  24.617   1.247  10.718
79681W        W52749  38.146  23.488   4.263
79682W        W52750  25.406  25.150  14.484
79683W        W52751  21.543  20.590   2.701
79684W        W52752  30.441  39.255   1.692
79685W        W52753   9.864  16.099  11.255
79686W        W52754  42.576   6.044  13.484
79687W        W52755  14.388   5.224  13.158
79688W        W52756  16.182   0.426   3.693
79689W        W52757  29.038  34.009  12.822
79690W        W52758  14.910  17.476  10.277
79691W        W52759  13.259  28.352   3.343
79692W        W52760  30.454  27.487   3.274
79693W        W52761  25.069  15.906   5.059
79694W        W52762  14.566  37.963  10.622
79695W        W52763   3.225  28.981   2.218
79696W        W52764  29.073  18.208  11.039
79697W        W52765  15.221  21.051  12.439
79698W        W52766  37.491  14.241  10.680
79699W        W52767   9.295   5.518  12.103
79700W        W52768  20.542  11.896   1.716
79701W        W52769   6.696  42.807  14.291
79702W        W52770  30.455  11.137  13.131
79703W        W52771   0.190   9.140   2.250
79704W        W52772  31.660  41.754  11.061
79705W        W52773  43.006  38.973   0.499
79706W        W52774   2.980  43.399   3.837
79707W        W52775  20.046  14.875   4.607
79708W        W52776  12.254  12.155   3.806
79709W        W52777   8.474   3.664  13.847
79710W        W52778  43.292  34.664  12.077
79711W        W52779  26.216   4.878   0.277
79712W        W52780   2.537  20.861  12.579
79713W        W52781  42.191  36.358   4.111
79714W        W52782  26.495  31.491   2.936
79715W        W52783   0.696  42.309  10.428
79716W        W52784  40.857  14.387  14.942
79717W        W52785  31.878   9.462  11.124
79718W        W52786  25.048  30.553  10.425
79719W        W52787   3.714  18.254  13.027
79720W        W52788  11.702   8.145   1.790
79721W        W52789  16.117  15.769  11.596
79722W        W52790   9.859   6.873   4.647
79723W        W52791  36.913  43.546  14.853
79724W        W52792   1.198   9.810   1.755
79725W        W52793  21.547  21.977   0.889
79726W        W52794  42.510  42.915  10.307
79727W        W52795   4.917  38.264   0.246
79728W        W52796  35.742  20.546   0.729
79729W        W52797  43.530   2.375  13.095
79730W        W52798  42.217  28.085   2.588
79731W        W52799   5.737  15.271   4.539
79732W        W52800  25.171  15.297  14.867
79733W        W52801  25.936  42.809   3.704
79734W        W52802  36.186  12.171   1.090
79735W        W52803  10.247  35.527   0.285
79736W        W52804  39.058  35.227   4.371
79737W        W52805  27.373  18.559  10.747
79738W        W52806  43.087   5.329  13.150
79739W        W52807  28.163  33.211   2.699
79740W        W52808  44.545  30.007  13.962
79741W        W52809   1.291  27.862   3.682
79742W        W52810  31.391   8.596   1.193
79743W        W52811  24.970   9.238  14.046
79744W        W52812  20.237  21.030  12.085
79745W        W52813  30.684  38.590  13.619
79746W        W52814  10.309  12.854   1.431
79747W        W52815  26.981  44.538   2.877
79748W        W52816  41.624   2.513   0.458
79749W        W52817   6.655  23.785  13.308
79750W        W52818  20.439  39.481   0.164
79751W        W52819   4.412  39.506   2.164
79752W        W52820  42.983  34.183   2.762
79753W        W52821  32.384  13.003   0.318
79754W        W52822  34.899  29.275  12.431
79755W        W52823  41.329  25.674  12.486
79756W        W52824  16.203  19.890   4.583
79757W        W52825  12.997   7.244   2.431
79758W        W52826  33.816  22.180  10.165
79759W        W52827  16.388   1.800   5.204
79760W        W52828  41.483  23.538   4.218
79761W        W52829   8.353   4.267   4.690
79762W        W52830  26.981  42.680  12.492
79763W        W52831  15.608  44.780  13.055
79764W        W52832  11.293  18.120  13.348
79765W        W52833  31.406  31.812   3.431
79766W        W52834  23.603  35.425   3.290
79767W        W52835  11.563  19.503  10.389
79768W        W52836  13.642   3.769   2.201
79769W        W52837  34.404  43.516  12.516
79770W        W52838  15.647  17.056  10.775
79771W        W52839  40.371  34.600  14.165
79772W        W52840  28.242  21.065  12.399
79773W        W52841  10.691   1.120  12.929
79774W        W52842  28.655   5.408   0.953
79775W        W52843  16.798  29.641   3.221
79776W        W52844  29.455  20.326   4.176
79777W        W52845   9.139  25.514   2.354
79778W        W52846  44.842   1.875  12.009
79779W        W52847  27.936  40.898   3.757
79780W        W52848  17.577   8.429   4.866
79781W        W52849  32.743  36.946   2.868
79782W        W52850  11.235   5.468   3.995
79783W        W52851  21.751  42.998  13.214
79784W        W52852  16.916  23.741   1.748
79785W        W52853  39.489  10.864   3.296
79786W        W52854  12.766  19.971   2.197
79787W        W52855  28.418  42.716  10.006
79788W        W52856  13.360  32.404   1.314
79789W        W52857  40.914  44.737  12.314
79790W        W52858   9.686  38.458  12.331
79791W        W52859  34.590  31.439   4.160
79792W        W52860  36.777  12.908  12.033
79793W        W52861  29.934  32.948   4.585
79794W        W52862  44.718   7.694   0.033
79795W        W52863  18.655  34.594   2.608
79796W        W52864   2.975   6.328  11.855
79797W        W52865  20.224   9.577  11.185
79798W        W52866  17.204  41.877   1.151
79799W        W52867  44.671  26.446  12.817
79800W        W52868  37.544  30.702   0.699
79801W        W52869  31.458  39.911   1.679
79802W        W52870   0.879  32.115  11.121
79803W        W52871  24.455  22.162   3.094
79804W        W52872  33.974  10.534   2.418
79805W        W52873  12.114  23.459   0.499
79806W        W52874   3.920   5.409  12.441
79807W        W52875  41.475  31.124  12.452
79808W        W52876  17.158  24.718  13.907
79809W        W52877  39.915  19.279  10.797
79810W        W52878  21.108  28.766   2.873
79811W        W52879  27.448  22.007  10.984
79812W        W52880   3.704   0.965  13.868
79813W        W52881   9.113  14.193   1.325
79814W        W52882  21.315  35.445   1.418
79815W        W52883  34.013   9.569   1.434
79816W        W52884  25.475   3.479  11.040
79817W        W52885  15.898  35.547  11.850
79818W        W52886  27.753  42.877  10.734
79819W        W52887   4.022   5.927   2.768
79820W        W52888  19.041  43.891   0.987
79821W        W52889  21.918  11.662   4.797
79822W        W52890   3.316  12.734  12.711
79823W        W52891   3.414  19.414   1.442
79824W        W52892   8.914   1.909   3.687
79825W        W52893  13.321  37.913  12.545
79826W        W52894   1.994  35.158  11.579
79827W        W52895  39.435   4.212  14.056
79828W        W52896  18.057   5.704   0.401
79829W        W52897   1.770  15.571  14.692
79830W        W52898   5.361  10.892  12.518
79831W        W52899  28.481  17.770  12.130
79832W        W52900  43.542   6.455  12.066
79833W        W52901  41.000  40.770   0.740
79834W        W52902  44.239  34.476   4.847
79835W        W52903  35.424  32.872  10.713
79836W        W52904  16.556   4.816   4.237
79837W        W52905  32.456  43.957  10.583
79838W        W52906  39.281   1.177   9.792
79839W        W52907   3.935  21.512   2.873
79840W        W52908  35.619  18.374   3.333
79841W        W52909  10.460  33.128  13.164
79842W        W52910  13.171  19.827  14.877
79843W        W52911   8.404  33.909  11.047
79844W        W52912  16.077   9.303  14.011
79845W        W52913  12.115  12.259   4.302
79846W        W52914  15.988  40.767   2.830
79847W        W52915  43.786  18.736   2.589
79848W        W52916  23.233  33.994   2.666
79849W        W52917  16.450  25.988  11.197
79850W        W52918  11.786  36.534   3.606
79851W        W52919  27.553   5.645   4.529
79852W        W52920  32.999  23.235  12.307
79853W        W52921   3.927  29.630   0.115
79854W        W52922  11.324  32.240  10.780
79855W        W52923  10.728  22.985   4.290
79856W        W52924  40.256  19.161   0.425
79857W        W52925  14.305  40.757   1.794
79858W        W52926  18.520  38.132  14.780
79859W        W52927   7.381   3.413   1.047
79860W        W52928  19.572  15.025  10.718
79861W        W52929  16.121  33.544   4.995
79862W        W52930  27.678   1.026  13.474
79863W        W52931  10.380  10.797  13.363
79864W        W52932  21.535  36.158  12.531
79865W        W52933  28.534  19.447   0.714
79866W        W52934   5.936  29.646  11.476
79867W        W52935  13.863  19.182  12.871
79868W        W52936  27.675   4.750   4.906
79869W        W52937  40.954   1.498   3.800
79870W        W52938  16.087  27.295  14.443
79871W        W52939  33.538  33.634  10.093
79872W        W52940  29.290  39.285   2.132
79873W        W52941   9.121  44.240  10.816
79874W        W52942  11.737  38.080   3.140
79875W        W52943  42.614  14.417  11.476
79876W        W52944  42.413  43.149  13.747
79877W        W52945  20.941  31.918   1.920
79878W        W52946  25.625  33.504   4.547
79879W        W52947  19.516   0.981  11.645
79880W        W52948   9.161   7.397   1.310
79881W        W52949   4.452  27.844  14.437
79882W        W52950  15.651  29.446   0.857
79883W        W52951   2.693  37.653  13.922
79884W        W52952   3.283  44.316   3.113
79885W        W52953  38.020   6.881   2.309
79886W        W52954  40.992   1.983   0.954
79887W        W52955   9.404  35.428   2.024
79888W        W52956   9.702  20.880  14.253
79889W        W52957  10.415  16.634   2.399
79890W        W52958  32.561  14.808   1.940
79891W        W52959   8.401  43.705   0.567
79892W        W52960  36.453  19.608   0.349
79893W        W52961  16.529   2.463   2.395
79894W        W52962  41.393   6.955   1.781
79895W        W52963   2.076  33.956   2.820
79896W        W52964  19.185  22.150  14.492
79897W        W52965  14.439  41.826   4.151
79898W        W52966  11.189  19.997  14.418
79899W        W52967  24.179  16.065  11.756
79900W        W52968  31.469   6.767  12.395
79901W        W52969  40.388   9.656  12.363
79902W        W52970  23.978  17.973   2.343
79903W        W52971  33.357   0.565   3.250
79904W        W52972  13.186   8.476  11.689
79905W        W52973  14.619  15.760  14.133
79906W        W52974   4.411  31.222  10.732
79907W        W52975   4.747  43.296   0.914
79908W        W52976  20.684  32.212   3.685
79909W        W52977  26.126  14.319   0.167
79910W        W52978  18.665  18.666  13.416
79911W        W52979  42.907   8.436   0.178
79912W        W52980  42.865  22.471   4.729
79913W        W52981  12.665  22.798   3.298
79914W        W52982   1.624  29.142   2.771
79915W        W52983   8.218  20.515  12.398
79916W        W52984  15.755  26.939  12.958
79917W        W52985  39.027  38.159   2.915
79918W        W52986  14.128  35.400   0.928
79919W        W52987  22.077  32.358  13.880
79920W        W52988   9.142  13.408  11.586
79921W        W52989  34.205  16.271   4.159
79922W        W52990  42.300  15.157  11.139
79923W        W52991  28.677   2.761   0.324
79924W        W52992  38.431  14.397  13.891
79925W        W52993  12.961  31.970   4.789
79926W        W52994  37.105  42.111  12.363
79927W        W52995  33.626  43.391   3.883
79928W        W52996  25.380  23.704   4.638
79929W        W52997   1.341  21.764   3.103
79930W        W52998  10.662   8.255  10.864
79931W        W52999  34.549  29.517  14.291
79932W        W53000  33.452   2.561  11.891
79933W        W53001  29.617  34.214  11.943
79934W        W53002  21.703  31.730  12.499
79935W        W53003  33.444  21.726  11.735
79936W        W53004  16.319  14.617  11.574
79937W        W53005  27.099  28.617   3.713
79938W        W53006  38.364   0.897  12.628
79939W        W53007  13.727  44.774   2.295
79940W        W53008  39.115  24.198   2.400
79941W        W53009  24.963  22.862  14.316
79942W        W53010  25.077   4.463  13.330
79943W        W53011  21.941   1.044  10.238
79944W        W53012  28.469  15.099   1.391
79945W        W53013  39.083  31.666   3.645
79946W        W53014  12.591  33.911  14.329
79947W        W53015  38.114   4.199   2.811
79948W        W53016  32.293   9.056  12.010
79949W        W53017  42.016  25.612  13.632
79950W        W53018  29.886   1.287  12.896
79951W        W53019  34.388  41.517  11.204
79952W        W53020  25.116  28.946  10.594
79953W        W53021   8.966  39.612   0.793
79954W        W53022  10.107  14.454   1.558
79955W        W53023  17.796   7.255   1.206
79956W        W53024   5.108  17.135  13.857
79957W        W53025  15.100  37.904  13.307
79958W        W53026   4.240   1.763  12.535
79959W        W53027  21.598   0.257  11.031
79960W        W53028   4.492   9.349   2.323
79961W        W53029  13.073  30.967  14.384
79962W        W53030  14.683  14.988   4.648
79963W        W53031  34.679  31.437  12.023
79964W        W53032  41.801  24.279  12.178
79965W        W53033  29.872  32.137   2.913
79966W        W53034  24.071  40.569  14.791
79967W        W53035   3.076  10.745  14.969
79968W        W53036   3.280  16.814   4.314
79969W        W53037  16.094   6.983  11.603
79970W        W53038  15.698   4.512  14.124
79971W        W53039   8.836  15.665  10.612
79972W        W53040  16.409  44.280   2.849
79973W        W53041  20.028  39.275  14.961
79974W        W53042  42.778   5.638  11.469
79975W        W53043  29.896  26.395  12.012
79976W        W53044   3.041   0.372  13.013
79977W        W53045  27.730  25.618  13.873
79978W        W53046  28.089  44.395  11.702
79979W        W53047  28.462  26.162   2.852
79980W        W53048   7.879   4.385  12.095
79981W        W53049  32.496   2.801  13.290
79982W        W53050   9.118  15.712  13.555
79983W        W53051  12.153  27.415  12.053
79984W        W53052  13.094   5.930  13.004
79985W        W53053  12.192  37.004   1.548
79986W        W53054  38.504   4.451  14.387
79987W        W53055   3.310  13.417   1.786
79988W        W53056  20.190   2.835  12.042
79989W        W53057  30.111  35.581   1.734
79990W        W53058  20.040  10.091  10.340
79991W        W53059  25.002   9.437   0.894
79992W        W53060  16.970  38.913  11.511
79993W        W53061  20.145   4.208   0.443
79994W        W53062  36.287   2.238  12.889
79995W        W53063   2.271   9.793   4.409
79996W        W53064  19.596  43.869   0.780
79997W        W53065  33.781  34.841   3.910
79998W        W53066  26.500  21.121  13.037
79999W        W53067   8.288   9.880  12.438
80000W        W53068  39.591  37.916   4.248
80001W        W53069  18.309  39.264  13.767
80002W        W53070   4.589  34.983  12.847
80003W        W53071  33.391   8.972   3.885
80004W        W53072  41.237   4.202  11.108
80005W        W53073   7.847   6.404   4.602
80006W        W53074  34.569   9.297   0.298
80007W        W53075  11.615  27.063  10.983
80008W        W53076  43.277  37.762  11.031
80009W        W53077  11.755  26.614  12.648
80010W        W53078  43.085  15.069   2.771
80011W        W53079   2.563  40.356  10.729
80012W        W53080  37.863  28.147   0.746
80013W        W53081  14.722   5.311   4.597
80014W        W53082  38.581   2.761   1.414
80015W        W53083  35.427   0.440  14.420
80016W        W53084  43.802  27.118  11.900
80017W        W53085  34.812  23.733   3.143
80018W        W53086  41.519  19.152   4.323
80019W        W53087  37.544  28.065  12.825
80020W        W53088  33.130   1.330   3.076
80021W        W53089  37.070  34.561  12.558
80022W        W53090  40.826  17.808   1.862
80023W        W53091   6.913  37.420  13.027
80024W        W53092  28.134  33.792   3.953
80025W        W53093  40.338  19.108  11.701
80026W        W53094  24.000  11.067   4.086
80027W        W53095  23.879  42.286  11.572
80028W        W53096   7.001  39.893  11.251
80029W        W53097  14.541  44.452  13.719
80030W        W53098  26.020   8.439   3.744
80031W        W53099  44.477  13.298   3.320
80032W        W53100   9.618   9.696   0.947
80033W        W53101  36.324  42.843  11.623
80034W        W53102  41.486   7.158   4.780
80035W        W53103  21.280  31.651   4.169
80036W        W53104  36.217   9.303   4.548
80037W        W53105  43.271  43.975  12.548
80038W        W53106   5.107  20.888  10.657
80039W        W53107  30.536  12.437   0.825
80040W        W53108  42.995  18.651   2.233
80041W        W53109  31.595   2.683   3.525
80042W        W53110  12.676   6.476   2.672
80043W        W53111   0.002  12.069  11.149
80044W        W53112  40.886  11.062  13.290
80045W        W53113  21.527  31.400   4.930
80046W        W53114  42.813  44.718   4.215
80047W        W53115  39.616   7.787   2.843
80048W        W53116  35.316  12.147   4.811
80049W        W53117   4.804  27.956   2.171
80050W        W53118  24.802  44.247  11.104
80051W        W53119  33.196  43.239  13.043
80052W        W53120   5.794  21.755   0.088
80053W        W53121   5.750  40.810   3.578
80054W        W53122  15.744  27.402  11.120
80055W        W53123  26.544  39.842  10.657
80056W        W53124   6.367  20.269   4.098
80057W        W53125   3.170  32.576  13.303
80058W        W53126  44.755  15.816   3.168
80059W        W53127  16.159  44.905  14.335
80060W        W53128   6.810  35.481   3.362
80061W        W53129  24.686  12.198  14.384
80062W        W53130  29.072  35.215   3.673
80063W        W53131  38.357  31.554  14.963
80064W        W53132  37.942  11.881   2.016
80065W        W53133  31.136  16.369   1.822
80066W        W53134   2.803  26.824  14.419
80067W        W53135  14.167  11.088  12.133
80068W        W53136  25.497   0.921  13.896
80069W        W53137  29.579  42.216   0.184
80070W        W53138  11.919   1.853  14.019
80071W        W53139   4.724  35.006  14.233
80072W        W53140   4.304  26.125  10.644
80073W        W53141  10.841  36.750  11.017
80074W        W53142   7.309  11.306   4.506
80075W        W53143  32.113  30.319  13.547
80076W        W53144  40.334  29.816  10.924
80077W        W53145   2.557  40.309  14.918
80078W        W53146  15.823  44.389   2.376
80079W        W53147   2.541  17.555  13.011
80080W        W53148  40.944   7.945  14.288
80081W        W53149  42.521  10.630   2.330
80082W        W53150  15.913  17.192  13.456
80083W        W53151   9.595  14.083   3.559
80084W        W53152  13.153  31.230   3.699
80085W        W53153   1.190  40.904   1.443
80086W        W53154  37.265  19.865  12.493
80087W        W53155  35.473  10.277   2.306
80088W        W53156  14.028  38.140   2.374
80089W        W53157  23.651  36.425   3.795
80090W        W53158  42.049   5.222   0.371
80091W        W53159   7.938   8.482   0.578
80092W        W53160   9.759   2.477   1.189
80093W        W53161  13.578  10.018  14.961
80094W        W53162   3.494   9.881   1.327
80095W        W53163  41.992   1.049   0.445
80096W        W53164  18.310  31.487   2.530
80097W        W53165   2.440  22.316   3.011
80098W        W53166   8.733   1.862  12.800
80099W        W53167   6.400   6.353  11.247
80100W        W53168  33.422  38.483   2.695
80101W        W53169   7.395  38.916   4.414
80102W        W53170  34.415  44.435   4.862
80103W        W53171  44.293  24.252  13.799
80104W        W53172  39.514  16.765   4.115
80105W        W53173  28.589  22.757   2.139
80106W        W53174  41.412  13.217  13.812
80107W        W53175  18.528  21.272   3.155
80108W        W53176   7.854  14.632  12.376
80109W        W53177  39.948  14.189   4.621
80110W        W53178  29.460  14.638  12.717
80111W        W53179  16.676  20.336  12.492
80112W        W53180  36.839  11.529   1.810
80113W        W53181   4.677  28.954  11.853
80114W        W53182   7.028  23.158  14.457
80115W        W53183  30.364  30.941   4.630
80116W        W53184  19.826   4.711   1.003
80117W        W53185  22.736  22.381  12.038
80118W        W53186  36.012  26.557   2.433
80119W        W53187   9.676  38.803  14.768
80120W        W53188  37.003  20.122   0.835
80121W        W53189  28.533  19.206  10.450
80122W        W53190  44.216  29.530   3.566
80123W        W53191   5.299  25.589   0.849
80124W        W53192  13.734  39.224   3.844
80125W        W53193  18.189   5.277   4.202
80126W        W53194   8.392  35.715  11.946
80127W        W53195  42.744   6.442  12.420
80128W        W53196  29.315  18.276   0.334
80129W        W53197   6.424  41.381   1.339
80130W        W53198  31.864  41.863  12.396
80131W        W53199  27.713  33.180  14.398
80132W        W53200  30.620  19.126  10.688
80133W        W53201   8.739  31.222   1.102
80134W        W53202   4.854  36.120   4.525
80135W        W53203  14.427  10.341   2.368
80136W        W53204  28.826  25.407  14.462
80137W        W53205  44.935  18.102   4.130
80138W        W53206  15.227  23.229  11.708
80139W        W53207  38.905  35.117  12.022
80140W        W53208  23.128  37.488   3.011
80141W        W53209  18.531  29.072  14.502
80142W        W53210  36.595  33.982   1.455
80143W        W53211  11.286  42.225   0.766
80144W        W53212  27.053  17.817  11.108
80145W        W53213  35.329  31.587   0.832
80146W        W53214  24.175  40.970   4.909
80147W        W53215  44.963  28.845  13.281
80148W        W53216  22.998  20.367  13.372
80149W        W53217  38.772  44.888  14.403
80150W        W53218  21.177  30.220   0.199
80151W        W53219  33.901  15.018   1.738
80152W        W53220  17.972   1.864   0.826
80153W        W53221  34.072   2.967  13.368
80154W        W53222  39.537  42.067   3.944
80155W        W53223  10.745  12.133   1.419
80156W        W53224  23.141   0.533  10.968
80157W        W53225  17.274  22.083  10.802
80158W        W53226  17.113  26.663   3.718
80159W        W53227  14.032  27.641  14.928
80160W        W53228  26.111  33.826  12.445
80161W        W53229  26.021   1.262   3.248
80162W        W53230  22.747  23.159  12.533
80163W        W53231  17.226  35.274   1.796
80164W        W53232  32.428   9.812   4.182
80165W        W53233  37.498  37.765   0.664
80166W        W53234  26.105  22.659  14.483
80167W        W53235  34.620  43.761  14.404
80168W        W53236   0.075  22.263   0.371
80169W        W53237   0.513  34.067   2.690
80170W        W53238  34.400  37.015  11.560
80171W        W53239  41.399  44.451  13.933
80172W        W53240   0.881   0.190  10.742
80173W        W53241  32.703   0.003   2.460
80174W        W53242  11.125   7.167   4.319
80175W        W53243  13.272   4.323   3.219
80176W        W53244  33.897   6.895  12.472
80177W        W53245  37.762   1.911  14.405
80178W        W53246  29.973  18.676   3.537
80179W        W53247   2.354  34.418   4.694
80180W        W53248  10.219   7.363  13.955
80181W        W53249  21.292  32.848   1.734
80182W        W53250   4.990  16.631   1.893
80183W        W53251   8.895  17.649  12.927
80184W        W53252  41.206  10.187   1.264
80185W        W53253  33.038  10.338   1.172
80186W        W53254  19.150   5.663  12.929
80187W        W53255  37.023  44.375  11.884
80188W        W53256  31.553   6.273  12.082
80189W        W53257  35.808  40.674  12.050
80190W        W53258  40.299  42.098   3.195
80191W        W53259  31.640  13.254   0.989
80192W        W53260  40.066  40.003   2.388
80193W        W53261   4.480  15.565  14.785
80194W        W53262   1.199  17.555   3.816
80195W        W53263  41.422   0.329  12.089
80196W        W53264  31.370  40.511  12.125
80197W        W53265  36.841  15.750  11.935
80198W        W53266  15.104  25.626  10.795
80199W        W53267  26.699  43.805   3.122
80200W        W53268  20.033  33.418   5.097
80201W        W53269  37.040  16.612  11.594
80202W        W53270  31.640  29.004  14.938
80203W        W53271  11.738   7.614   0.338
80204W        W53272  34.606  35.435   2.748
80205W        W53273   3.484   7.205  14.503
80206W        W53274  37.346   0.491   2.821
80207W        W53275   9.092  26.919   4.071
80208W        W53276   8.388  44.844  11.667
80209W        W53277  16.710  43.973  11.459
80210W        W53278  40.707  33.858   2.311
80211W        W53279   7.759  13.614   0.767
80212W        W53280  22.484  27.728  11.681
80213W        W53281   2.954   8.247  14.063
80214W        W53282  35.908   2.767   4.677
80215W        W53283  21.346  16.376  10.332
80216W        W53284  27.449   7.811  10.679
80217W        W53285  24.962   9.938   0.791
80218W        W53286  28.199  12.259   0.272
80219W        W53287  12.630  32.000  12.150
80220W        W53288  39.429   2.672  10.618
80221W        W53289  36.692  22.080   0.346
80222W        W53290  19.926  39.546  12.486
80223W        W53291  33.588  28.144   3.364
80224W        W53292   2.421  24.765  12.043
80225W        W53293  13.695  21.003   0.992
80226W        W53294   7.897  31.649  14.964
80227W        W53295  17.409  12.565   4.548
80228W        W53296  23.196  10.887  11.013
80229W        W53297  21.152  12.090   4.900
80230W        W53298  23.295  13.309  12.320
80231W        W53299  38.952  16.777   1.707
80232W        W53300  38.246  13.106   0.262
80233W        W53301  31.019  43.745   0.212
80234W        W53302   9.757   6.959  12.135
80235W        W53303  11.768  12.613  13.083
80236W        W53304  27.466  35.857  11.203
80237W        W53305  20.511   7.751  12.560
80238W        W53306  20.750   9.846  12.429
80239W        W53307  29.553  31.067  14.030
80240W        W53308  14.617  17.613   0.849
80241W        W53309  43.095   0.470  11.334
80242W        W53310   4.019   3.324   1.216
80243W        W53311  16.343   4.292   3.799
80244W        W53312   5.225  28.177   2.810
80245W        W53313  42.931  22.691   2.380
80246W        W53314   8.924  34.103   0.435
80247W        W53315  29.946   4.899  11.097
80248W        W53316  23.612   8.319   3.202
80249W        W53317  25.952  26.447  12.473
80250W        W53318  43.871   6.435   4.711
80251W        W53319  44.839  35.407  13.388
80252W        W53320  33.621  23.939   0.870
80253W        W53321  43.425  18.707  14.697
80254W        W53322  31.296  38.958   0.826
80255W        W53323  23.206  36.106   3.738
80256W        W53324  35.566  18.839   3.578
80257W        W53325  31.440  26.237   3.844
80258W        W53326  10.881   9.694   1.294
80259W        W53327  33.005  30.851  10.749
80260W        W53328  37.276  36.526   2.826
80261W        W53329  16.594  30.890   3.803
80262W        W53330   8.285   0.454  12.880
80263W        W53331  43.524  12.619  12.386
80264W        W53332  23.259  18.239   1.723
80265W        W53333  23.486  42.715   1.277
80266W        W53334  37.826  40.400   3.229
80267W        W53335  34.990  21.636   4.476
80268W        W53336   9.783  26.546  11.111
80269W        W53337   2.414  29.203  14.405
80270W        W53338  32.758   5.734  11.971
80271W        W53339  37.532  41.279  11.497
80272W        W53340  17.608  33.465  12.936
80273W        W53341  14.809  24.545   1.255
80274W        W53342  17.630  17.705  11.904
80275W        W53343  10.589  38.804  12.635
80276W        W53344  43.680  15.193   0.436
80277W        W53345  21.102  35.164   4.540
80278W        W53346  21.082  42.245  10.679
80279W        W53347   4.885  12.181  13.553
80280W        W53348   0.481  30.582   4.156
80281W        W53349  11.162  24.656  12.319
80282W        W53350   6.792   9.521  12.963
80283W        W53351  23.288  39.412   0.172
80284W        W53352   9.086  23.147  10.741
80285W        W53353   4.710  19.776   4.513
80286W        W53354  19.215  27.584   2.707
80287W        W53355   3.005   3.850  12.585
80288W        W53356   0.503   6.653   3.740
80289W        W53357   4.007  31.142   0.469
80290W        W53358  44.559   9.698  13.441
80291W        W53359  42.303   0.911   0.845
80292W        W53360   6.263   7.447   2.845
80293W        W53361  24.070   9.096   2.174
80294W        W53362   5.665   2.759  14.273
80295W        W53363  33.508   6.201  14.558
80296W        W53364  29.406  21.794   2.874
80297W        W53365   6.435   4.772  12.682
80298W        W53366  43.307   3.930  14.683
80299W        W53367  33.335  25.721   0.362
80300W        W53368  10.573  33.217  12.124
80301W        W53369  30.209  36.102   1.676
80302W        W53370  26.885  17.752  14.697
80303W        W53371   6.414   1.288  12.001
80304W        W53372  19.324  14.795   4.121
80305W        W53373  44.263   3.145  13.395
80306W        W53374  44.948  25.575   0.255
80307W        W53375   8.228  32.157  14.060
80308W        W53376  35.392  38.847  12.857
80309W        W53377  16.884  23.022  12.831
80310W        W53378  29.444  12.929  11.117
80311W        W53379  26.070  28.592  14.425
80312W        W53380  21.223   1.611   9.590
80313W        W53381  41.020   2.877   0.930
80314W        W53382  33.416  21.592   0.848
80315W        W53383  32.374  43.385  11.983
80316W        W53384  42.960  26.403   2.594
80317W        W53385  39.566  20.812  13.882
80318W        W53386  10.271  39.862   1.631
80319W        W53387  44.361  27.049   0.057
80320W        W53388   6.226   0.934  12.717
80321W        W53389  12.334  31.457   4.624
80322W        W53390  13.425  24.104   1.296
80323W        W53391  18.637  17.767  11.629
80324W        W53392   4.407  12.120  13.433
80325W        W53393   8.082  11.509  11.133
80326W        W53394   6.607  21.032   3.663
80327W        W53395  18.300  27.003   2.754
80328W        W53396  32.868   0.197  13.002
80329W        W53397  32.066  34.614   0.316
80330W        W53398  21.976  17.653  10.366
80331W        W53399  39.391   5.097  12.798
80332W        W53400  22.567  36.860  14.972
80333W        W53401  35.488  32.969   2.891
80334W        W53402  11.297  40.612  12.617
80335W        W53403  39.083   7.817  10.478
80336W        W53404  35.356  10.636   3.511
80337W        W53405  22.970  10.218   1.790
80338W        W53406  41.807  27.652   3.818
80339W        W53407  29.949  18.412   4.380
80340W        W53408  41.532  29.417   2.201
80341W        W53409  10.631  12.253   2.846
80342W        W53410  13.060  23.692   2.324
80343W        W53411  31.143  43.050   1.024
80344W        W53412  11.614  11.367  12.104
80345W        W53413  34.865  15.227  13.998
80346W        W53414  28.409   1.192   3.817
80347W        W53415  41.545   1.429   3.098
80348W        W53416  33.887  43.417   3.210
80349W        W53417   8.657  25.999   4.221
80350W        W53418  41.765  11.164   3.607
80351W        W53419  32.497  18.555   0.545
80352W        W53420  18.278   1.773   4.233
80353W        W53421  32.964   1.889  14.304
80354W        W53422  20.281  36.373   1.746
80355W        W53423  14.268  33.857   3.254
80356W        W53424  36.182  17.330  14.361
80357W        W53425   8.657   6.868  13.055
80358W        W53426  41.118  30.152   4.208
80359W        W53427  15.542  18.340   5.003
80360W        W53428  34.899  43.553  12.116
80361W        W53429   7.741   9.833   1.710
80362W        W53430  17.853  15.601   2.815
80363W        W53431  42.000  26.286  12.052
80364W        W53432   1.757  27.550  14.738
80365W        W53433  17.478  23.521   3.638
80366W        W53434  37.631   7.876  12.858
80367W        W53435  14.254  43.545   2.855
80368W        W53436  34.029   2.025   0.741
80369W        W53437  28.621  27.810   4.620
80370W        W53438  12.720  14.282  13.056
80371W        W53439  28.482  38.655   2.526
80372W        W53440  36.421  11.840   1.657
80373W        W53441  13.320  39.975  12.940
80374W        W53442  44.225  25.462  11.087
80375W        W53443   7.763  17.576   0.684
80376W        W53444   6.902   2.271   2.866
80377W        W53445   7.284  16.754   0.690
80378W        W53446   6.112  22.696   0.270
80379W        W53447  44.643  12.147  13.630
80380W        W53448   7.131  20.970  11.539
80381W        W53449  38.467  13.254   3.114
80382W        W53450  37.105  13.881   2.144
80383W        W53451  14.719  14.173  13.032
80384W        W53452   8.576  27.442  12.508
80385W        W53453  21.457   9.661  14.332
80386W        W53454  10.344  27.003  14.415
80387W        W53455  15.017  25.706   1.120
80388W        W53456  41.013  15.859   0.810
80389W        W53457  44.281  18.821   2.710
80390W        W53458   6.225  37.936  12.019
80391W        W53459   3.213   1.965  12.114
80392W        W53460  16.611  21.807   1.559
80393W        W53461  29.903  10.659   4.041
80394W        W53462  43.219   0.314   4.496
80395W        W53463  16.927  26.465  12.974
80396W        W53464   0.675  40.862   3.565
80397W        W53465  14.062  17.889   2.718
80398W        W53466  32.130  31.101  13.187
80399W        W53467   4.392  30.930  11.678
80400W        W53468  42.427  44.576  12.729
80401W        W53469  18.083  41.365  12.434
80402W        W53470  44.270  34.795   0.932
80403W        W53471   8.341  29.321  14.746
80404W        W53472  28.489  33.900   4.680
80405W        W53473  13.310  38.857  14.299
80406W        W53474  10.915  22.451  13.810
80407W        W53475  28.021  21.970  13.164
80408W        W53476  12.804  26.046  14.109
80409W        W53477   8.372  13.195   4.139
80410W        W53478   0.541   1.358  11.507
80411W        W53479   7.443  23.414   1.751
80412W        W53480  31.119  23.489   1.717
80413W        W53481  10.255  31.650   2.304
80414W        W53482   0.991  11.229   3.319
80415W        W53483  23.574  42.019  14.523
80416W        W53484  41.728   9.804   0.225
80417W        W53485  42.192  44.489   1.279
80418W        W53486  40.210  44.363  13.640
80419W        W53487  23.518   3.301   4.044
80420W        W53488   9.829  35.148   4.661
80421W        W53489  27.456  34.931   1.700
80422W        W53490  34.514  44.414   3.698
80423W        W53491  19.110  11.738   0.426
80424W        W53492  28.963  42.561   1.449
80425W        W53493  26.604   2.429   3.690
80426W        W53494  44.955   9.859  14.860
80427W        W53495  19.276  32.981  13.538
80428W        W53496  39.857  29.125  13.522
80429W        W53497   7.163  12.851  12.591
80430W        W53498   6.627  31.155  14.810
80431W        W53499  17.751  11.273  14.280
80432W        W53500  16.750   9.094  14.492
80433W        W53501  23.643  14.743   2.226
80434W        W53502  34.415  27.503  12.953
80435W        W53503  16.544  21.286  13.496
80436W        W53504  36.562  35.481  11.668
80437W        W53505   2.041  35.020   0.089
80438W        W53506   8.145  36.815  13.527
80439W        W53507  35.017   1.384  10.475
80440W        W53508  39.819  22.274  11.103
80441W        W53509   4.054  19.066  13.216
80442W        W53510   8.360   4.210  12.116
80443W        W53511  14.557  32.974  13.256
80444W        W53512  14.166  16.814   1.680
80445W        W53513  23.460  22.416  14.052
80446W        W53514  32.950  10.201   1.659
80447W        W53515  22.201   2.132  12.818
80448W        W53516  20.319  42.426  12.944
80449W        W53517  35.115  25.125   3.410
80450W        W53518   9.061  30.931   3.976
80451W        W53519  15.942  25.972  11.148
80452W        W53520  30.183   2.146  13.987
80453W        W53521  44.440  11.401   4.526
80454W        W53522  27.490  36.103   0.473
80455W        W53523   9.323  28.002   2.129
80456W        W53524  37.791  24.244   0.255
80457W        W53525  19.507   1.493   4.941
80458W        W53526  41.233  13.087   5.491
80459W        W53527  39.057  38.969   0.976
80460W        W53528   7.887  40.984  10.464
80461W        W53529   5.633   1.311   1.302
80462W        W53530  20.560  24.180  10.744
80463W        W53531  34.370   8.422   0.348
80464W        W53532  38.016  21.873   0.940
80465W        W53533  19.476  12.214  10.779
80466W        W53534   2.924  43.947   1.915
80467W        W53535   1.753   3.159   0.780
80468W        W53536  23.528  39.046   3.203
80469W        W53537  26.351  30.818  12.312
80470W        W53538  34.001   9.110   2.678
80471W        W53539  30.662  23.304  13.619
80472W        W53540  16.249  20.574   1.890
80473W        W53541  41.223  20.248   3.112
80474W        W53542  34.375  27.958   2.206
80475W        W53543  33.438  35.104  12.390
80476W        W53544  14.038  19.138  14.474
80477W        W53545  21.703   9.240  12.652
80478W        W53546  33.978   2.100   4.134
80479W        W53547  19.192  42.990   1.050
80480W        W53548  27.101  17.548  13.802
80481W        W53549  37.619   0.387  13.279
80482W        W53550  34.497  16.826   0.498
80483W        W53551  19.146  31.940   3.695
80484W        W53552  11.449  40.995  13.349
80485W        W53553  13.623  19.601  14.125
80486W        W53554  27.839  24.214  13.325
80487W        W53555  21.981   3.731   1.320
80488W        W53556  13.365   3.440  13.424
80489W        W53557  16.333   1.058   0.875
80490W        W53558   9.093  19.257   4.481
80491W        W53559  16.584  10.168  12.593
80492W        W53560  27.975  17.790   0.328
80493W        W53561  29.575  23.502  11.703
80494W        W53562  28.950  18.142   1.845
80495W        W53563  35.890  25.028   1.232
80496W        W53564   4.879  28.208   5.006
80497W        W53565   5.836  22.624  10.603
80498W        W53566   0.991   7.024  14.966
80499W        W53567  22.598  41.518   2.219
80500W        W53568  31.943  31.567   1.886
80501W        W53569  22.768   5.887  12.901
80502W        W53570  23.271  40.346  14.083
80503W        W53571   1.303  42.478   3.138
80504W        W53572  25.829  37.552   9.551
80505W        W53573  31.644   0.489  11.107
80506W        W53574   8.996  20.455  12.883
80507W        W53575   8.845  20.209   3.092
80508W        W53576  14.864   1.292  12.584
80509W        W53577  22.645  25.689  12.453
80510W        W53578  34.853  35.710   1.310
80511W        W53579  35.600  32.466   2.492
80512W        W53580  18.034   4.613   4.835
80513W        W53581   3.733   7.712  14.355
80514W        W53582  44.549   2.972  13.004
80515W        W53583  32.390  35.060  12.354
80516W        W53584  13.621  25.386  11.549
80517W        W53585  19.320  26.948   5.010
80518W        W53586  10.616  15.691  11.124
80519W        W53587  31.941  13.808  11.178
80520W        W53588  43.174  38.837   0.980
80521W        W53589  44.052  23.265   1.807
80522W        W53590  36.409   4.176   0.469
80523W        W53591  26.440  13.309  12.597
80524W        W53592   6.289  14.573   2.285
80525W        W53593  36.644  33.837   2.310
80526W        W53594  21.968  17.812   0.734
80527W        W53595   9.128  15.275   3.358
80528W        W53596  27.045  42.105   1.926
80529W        W53597  44.086  25.557   4.518
80530W        W53598  25.544  36.551   3.704
80531W        W53599  32.706  31.787  11.605
80532W        W53600   7.842  24.581   4.184
80533W        W53601   6.237  35.247  11.062
80534W        W53602   7.852  20.866   4.903
80535W        W53603  15.803  11.228   1.613
80536W        W53604  30.641  21.134   4.163
80537W        W53605  24.465   8.633   0.330
80538W        W53606  22.408  33.348  11.176
80539W        W53607  42.314  35.015  14.932
80540W        W53608  24.195   0.933  12.988
80541W        W53609   6.418  34.920   1.897
80542W        W53610   1.784   4.749   3.889
80543W        W53611  14.591  30.302  14.938
80544W        W53612  20.719  21.680   1.285
80545W        W53613  28.711   0.032   2.246
80546W        W53614  28.517  44.005  10.466
80547W        W53615  38.798   3.645  11.985
80548W        W53616  36.938   7.453  12.473
80549W        W53617  30.627  43.563  11.815
80550W        W53618  30.305   5.665  12.186
80551W        W53619  22.153   5.385  10.621
80552W        W53620  39.147  20.290   2.237
80553W        W53621  34.450  13.398  13.744
80554W        W53622  11.637  16.726  12.372
80555W        W53623   7.770  40.884   0.155
80556W        W53624  11.534  22.957  13.353
80557W        W53625   6.690   1.816   3.734
80558W        W53626  17.569   2.811   3.713
80559W        W53627  35.666   6.947  12.989
80560W        W53628   4.921  21.587   0.462
80561W        W53629  13.183  12.403  12.864
80562W        W53630   2.736  43.891  13.614
80563W        W53631  20.058   6.609   3.698
80564W        W53632  32.388  17.569   3.328
80565W        W53633  17.608  34.052  10.768
80566W        W53634  20.255  20.218  11.574
80567W        W53635   1.747   0.018   0.404
80568W        W53636  25.309  18.576  11.064
80569W        W53637  10.704  37.192   0.892
80570W        W53638   9.122  12.786   1.624
80571W        W53639   8.724   1.277  13.808
80572W        W53640  18.113   0.715   2.472
80573W        W53641  40.460  32.805  11.430
80574W        W53642  14.001  17.389  12.424
80575W        W53643  13.499  40.069   4.087
80576W        W53644  15.709  40.934   1.293
80577W        W53645  27.869  33.677  11.136
80578W        W53646   1.256  30.953   4.356
80579W        W53647  29.407  44.932  11.364
80580W        W53648  37.802  25.519   2.002
80581W        W53649   0.620  28.316   4.214
80582W        W53650  11.494  27.889   4.137
80583W        W53651  15.333  26.504  10.264
80584W        W53652  21.836  32.467   4.101
80585W        W53653   9.341   9.241   3.255
80586W        W53654   0.803  29.126   1.393
80587W        W53655  15.320  15.535  14.864
80588W        W53656  17.978  13.030  14.718
80589W        W53657   1.531   3.369   0.356
80590W        W53658   2.432  16.986   5.051
80591W        W53659   8.236   6.856  12.452
80592W        W53660  13.833  26.545   1.433
80593W        W53661  18.270  22.103  14.536
80594W        W53662  31.548  31.786  11.623
80595W        W53663  34.950  16.640   3.271
80596W        W53664  42.994  10.557  10.672
80597W        W53665   6.847  38.071  13.592
80598W        W53666   0.846   3.285  14.916
80599W        W53667  40.720   9.819   0.390
80600W        W53668  35.410  34.606  13.444
80601W        W53669  23.601   8.612   0.508
80602W        W53670  37.841  28.618  14.107
80603W        W53671  17.341  22.775  12.055
80604W        W53672  16.881  14.391   0.497
80605W        W53673  27.474   0.255   4.060
80606W        W53674  35.923  24.399   4.855
80607W        W53675   9.618  34.873   3.290
80608W        W53676  36.032  21.014  14.542
80609W        W53677  42.299  23.243  11.506
80610W        W53678  43.576  11.311  13.696
80611W        W53679  10.601  39.350  12.004
80612W        W53680  12.722  20.989   0.816
80613W        W53681  38.503  42.677   4.135
80614W        W53682   9.270  44.883   4.421
80615W        W53683  19.038  37.956  12.707
80616W        W53684  37.240   7.911  11.554
80617W        W53685  11.252  12.976   4.904
80618W        W53686   9.391  43.982   1.834
80619W        W53687  41.006  25.192   4.746
80620W        W53688   4.673  41.353   4.041
80621W        W53689  39.547   1.721   4.111
80622W        W53690  34.936   5.722   2.709
80623W        W53691  10.521  11.837   3.171
80624W        W53692  36.973  36.518  11.185
80625W        W53693   9.826  37.804  11.089
80626W        W53694  16.674  17.474  13.153
80627W        W53695   1.328  29.557  10.629
80628W        W53696  36.699  43.661   0.350
80629W        W53697   9.628  39.762  10.986
80630W        W53698  27.631  41.438  11.241
80631W        W53699   8.890  22.141   2.384
80632W        W53700  13.241  19.486   5.383
80633W        W53701  33.528  26.053  11.031
80634W        W53702  17.150   8.226   3.100
80635W        W53703  22.560  15.210  11.919
80636W        W53704  12.201  36.905  11.548
80637W        W53705  17.635  22.989   4.731
80638W        W53706   1.605  19.249   0.981
80639W        W53707  12.586   0.430  13.818
80640W        W53708  27.656   1.753   2.735
80641W        W53709  33.325   4.298  13.487
80642W        W53710   8.042  18.119   3.220
80643W        W53711  14.949  34.929  13.462
80644W        W53712   7.264  14.521   5.062
80645W        W53713  42.814   3.709   3.436
80646W        W53714  25.950  23.771   0.489
80647W        W53715  43.423   0.244   2.649
80648W        W53716  12.601  37.088  11.271
80649W        W53717  24.237  23.524  14.772
80650W        W53718  24.509  38.106  13.987
80651W        W53719  33.079   1.474   4.911
80652W        W53720  26.996  12.180  12.896
80653W        W53721  44.293  29.367   1.778
80654W        W53722  16.158  27.669  10.964
80655W        W53723  14.223   1.731   2.404
80656W        W53724  27.458   9.365  13.656
80657W        W53725  40.850   5.894  10.748
80658W        W53726   9.786  43.865   2.633
80659W        W53727  25.641  15.651   2.772
80660W        W53728  39.758  17.701   1.956
80661W        W53729  13.890   3.042  10.628
80662W        W53730  22.084  15.111   3.565
80663W        W53731  34.639   2.007  11.555
80664W        W53732   9.798   4.905   0.843
80665W        W53733  38.589   8.755   4.151
80666W        W53734  15.952   4.837   0.680
80667W        W53735   9.927  10.714  14.523
80668W        W53736  20.605  36.033  11.553
80669W        W53737  18.498   6.990  13.786
80670W        W53738  29.034  27.015  13.342
80671W        W53739  37.507  28.210   4.698
80672W        W53740  17.680  38.169  14.110
80673W        W53741  14.255  32.606  13.064
80674W        W53742   3.797   2.743   2.201
80675W        W53743  36.315   3.172  13.112
80676W        W53744  14.027  31.630  14.724
80677W        W53745  22.167  41.984   4.617
80678W        W53746   9.788   8.605   2.427
80679W        W53747   9.069  26.392  11.627
80680W        W53748   5.410   4.826  11.346
80681W        W53749  27.562  27.487   0.288
80682W        W53750   2.267  43.970   3.099
80683W        W53751  43.972  32.884   1.882
80684W        W53752  14.811  36.915   3.018
80685W        W53753  38.873  26.643   0.437
80686W        W53754  41.618  38.547  10.763
80687W        W53755   7.488  29.208  13.790
80688W        W53756  15.162  27.344  11.298
80689W        W53757  19.391  30.593   1.536
80690W        W53758   9.406  14.758  11.628
80691W        W53759  34.058  29.099  13.916
80692W        W53760  20.240  13.423  14.012
80693W        W53761   0.729  31.077   1.488
80694W        W53762  27.175  11.096  13.006
80695W        W53763  40.821  27.091  11.990
80696W        W53764  29.131  32.681  11.053
80697W        W53765  31.464  18.701  12.439
80698W        W53766  16.440  21.837  11.193
80699W        W53767   5.482  26.658  12.899
80700W        W53768   8.169  41.979  14.830
80701W        W53769  28.461  30.799   1.738
80702W        W53770   1.458  35.956   4.169
80703W        W53771  30.912  38.483   3.819
80704W        W53772  17.779  28.553  12.718
80705W        W53773  37.279  39.439  12.983
80706W        W53774  19.765   7.250  12.089
80707W        W53775  11.889  11.567   4.149
80708W        W53776  24.115  15.679  11.433
80709W        W53777  10.455  19.482  11.171
80710W        W53778   3.851  28.399   2.608
80711W        W53779  32.755  44.272  12.182
80712W        W53780  43.052  35.037   0.367
80713W        W53781  28.003   5.950  12.559
80714W        W53782  17.274   0.055  12.998
80715W        W53783   6.190   2.635  13.405
80716W        W53784  37.611   3.636  13.959
80717W        W53785  37.139  18.256  12.490
80718W        W53786  12.556  15.931  10.744
80719W        W53787  29.932  26.267  13.412
80720W        W53788  17.374  43.322   0.412
80721W        W53789  30.951  43.840  14.228
80722W        W53790  24.679  18.247  10.206
80723W        W53791  37.865  27.687   3.782
80724W        W53792   0.946  38.555  13.279
80725W        W53793  41.723   3.573  11.766
80726W        W53794  18.803  13.617  12.021
80727W        W53795  42.163   0.696   2.371
80728W        W53796  42.656   4.424   0.445
80729W        W53797  26.914  30.907  12.076
80730W        W53798  13.357  43.440   1.265
80731W        W53799  35.145  18.654   5.111
80732W        W53800  24.579  35.998  11.047
80733W        W53801  31.129  44.802   2.175
80734W        W53802  32.660  34.878  14.926
80735W        W53803  18.580  12.287  11.205
80736W        W53804   1.198  15.505   0.790
80737W        W53805  32.664  28.634   1.910
80738W        W53806  35.515   6.455  10.651
80739W        W53807  11.640  26.643  13.934
80740W        W53808  15.188  20.502   1.783
80741W        W53809  29.024  10.770  14.655
80742W        W53810   6.771  28.897  10.431
80743W        W53811   2.475  27.681  12.569
80744W        W53812  13.930  42.077  11.636
80745W        W53813  23.891  14.728  14.983
80746W        W53814  14.732  26.109  14.087
80747W        W53815  29.696   4.332   4.835
80748W        W53816   0.912  36.058   4.133
80749W        W53817  39.289   6.219   5.235
80750W        W53818  37.842  14.455   3.116
80751W        W53819  26.137  16.237   4.225
80752W        W53820  15.449  24.688  14.747
80753W        W53821  41.603  35.765  14.372
80754W        W53822  20.867   5.199  13.558
80755W        W53823  24.747  11.748   4.323
80756W        W53824  21.135  31.854  10.389
80757W        W53825  39.751  15.737  12.901
80758W        W53826  11.600   3.921  12.379
80759W        W53827  15.823   1.704   3.692
80760W        W53828  23.497  30.990   0.864
80761W        W53829  23.440  30.024  13.419
80762W        W53830  32.997  40.312  11.415
80763W        W53831  40.277  30.013   2.770
80764W        W53832  21.745  24.736  14.356
80765W        W53833  13.329   3.136  12.552
80766W        W53834  36.572   0.320  14.353
80767W        W53835   4.268  39.048  11.397
80768W        W53836  32.287  13.776   3.003
80769W        W53837  17.278  34.066  13.454
80770W        W53838  37.942  44.244  12.904
80771W        W53839  36.025  34.668  12.898
80772W        W53840   4.344   6.373   1.759
80773W        W53841  20.794  43.738   1.645
80774W        W53842  40.579  39.525  13.931
80775W        W53843   9.348  13.705   4.607
80776W        W53844  36.842  29.920  12.559
80777W        W53845  43.539  24.653   1.391
80778W        W53846  30.308  39.853  10.485
80779W        W53847  42.491  29.095  12.925
80780W        W53848  23.278  18.256  14.338
80781W        W53849  42.729  11.624   1.378
80782W        W53850   8.319   0.104   1.310
80783W        W53851  18.139  12.663  12.264
80784W        W53852  37.326  16.602   2.775
80785W        W53853  20.607  37.593  12.681
80786W        W53854  19.423  31.030   2.790
80787W        W53855  43.761  42.482  13.137
80788W        W53856  32.862   7.875  12.499
80789W        W53857  15.286  44.121   3.119
80790W        W53858  40.572  20.162   0.093
80791W        W53859  14.057  35.785   3.358
80792W        W53860   5.024   2.361   3.593
80793W        W53861   3.971   6.275  13.461
80794W        W53862  20.287  19.520   4.162
80795W        W53863  32.498  26.170   0.122
80796W        W53864   6.230  18.787  13.463
80797W        W53865   7.855  40.901  12.915
80798W        W53866  18.670  23.394   0.177
80799W        W53867  10.369   3.857  11.651
80800W        W53868   5.097  40.450   2.766
80801W        W53869  34.451  29.560   1.318
80802W        W53870  25.222  28.851  13.369
80803W        W53871  38.789  21.027  11.986
80804W        W53872  22.443   5.873   0.425
80805W        W53873  10.461  26.576   5.117
80806W        W53874   2.076  24.675  13.829
80807W        W53875  14.370  14.135  14.893
80808W        W53876   6.644   0.892   3.720
80809W        W53877  20.596  33.041   4.125
80810W        W53878  44.310  31.897  14.683
80811W        W53879  10.127  43.744  13.069
80812W        W53880  25.429  41.971   4.927
80813W        W53881  39.053  40.022   2.440
80814W        W53882  20.013  42.287   1.349
80815W        W53883  19.271  12.690  10.695
80816W        W53884  32.557   9.631  14.749
80817W        W53885  26.503  43.049   5.002
80818W        W53886  42.208  13.564  11.714
80819W        W53887   1.982   0.765  13.116
80820W        W53888  31.204  36.901  12.541
80821W        W53889  43.797   2.735  12.483
80822W        W53890  14.762   7.675   1.799
80823W        W53891   4.757  41.988  13.010
80824W        W53892   9.286  23.949   1.312
80825W        W53893  29.903  27.642  12.430
80826W        W53894   0.272  25.389  11.897
80827W        W53895  34.595  26.912  11.646
80828W        W53896  13.866  13.038  13.563
80829W        W53897   3.408  13.085   2.843
80830W        W53898  43.827  39.561  13.592
80831W        W53899   7.435   7.732   3.686
80832W        W53900   8.555  38.818  10.179
80833W        W53901  27.605  10.126  12.108
80834W        W53902  44.371  26.604  13.796
80835W        W53903  39.108   8.750  12.994
80836W        W53904  37.955  41.802  10.723
80837W        W53905  39.738   4.342  13.627
80838W        W53906  43.550  40.523  11.165
80839W        W53907  29.119   1.111  13.737
80840W        W53908   4.356  24.565   4.625
80841W        W53909  42.869  29.095  11.108
80842W        W53910  25.007  12.816   2.815
80843W        W53911   4.549  25.167  10.430
80844W        W53912  23.639  15.780  13.935
80845W        W53913  43.982  14.359  12.558
80846W        W53914   4.835  21.614   3.400
80847W        W53915  25.155  37.618  10.076
80848W        W53916  36.381  16.161   5.015
80849W        W53917  38.753  40.457  12.941
80850W        W53918  10.053  30.875  12.026
80851W        W53919   9.469  40.139   1.882
80852W        W53920  38.485   2.835   2.921
80853W        W53921  26.427  38.934  12.531
80854W        W53922  35.300   0.674   2.808
80855W        W53923  16.634  25.076   0.531
80856W        W53924  37.646  41.267  13.676
80857W        W53925  20.034  34.593   1.221
80858W        W53926  31.026  44.432   3.115
80859W        W53927   4.796  11.349   2.853
80860W        W53928  19.128  29.474  14.028
80861W        W53929  24.653   8.277  12.084
80862W        W53930  27.731  31.323  12.267
80863W        W53931   4.781  15.036  13.263
80864W        W53932   7.716  16.141   2.186
80865W        W53933   3.337  18.784  12.122
80866W        W53934  22.046  10.072  11.857
80867W        W53935  42.739  41.271  10.361
80868W        W53936  27.723   8.456  11.507
80869W        W53937  10.892  24.000  13.901
80870W        W53938  10.865   0.916  10.859
80871W        W53939  37.332   3.049  11.903
80872W        W53940  34.853  36.624   4.059
80873W        W53941  28.158   7.436  13.426
80874W        W53942   5.868  13.689   0.614
80875W        W53943   6.316  37.187  11.143
80876W        W53944  40.762  22.595  13.778
80877W        W53945  12.715  35.700  13.526
80878W        W53946   5.388  28.127   4.188
80879W        W53947   8.802   2.075  14.264
80880W        W53948  42.800   6.930   0.779
80881W        W53949  13.542  42.351   0.536
80882W        W53950  21.751  41.928  11.175
80883W        W53951  25.094  42.401  14.271
80884W        W53952  30.148  12.343  12.612
80885W        W53953   4.664  41.523   4.543
80886W        W53954   5.717   2.492   4.393
80887W        W53955  26.944   1.730   2.179
80888W        W53956  30.333  16.176  14.476
80889W        W53957  33.530  23.966  12.011
80890W        W53958  43.990   9.875  14.721
80891W        W53959  44.470   9.176  12.003
80892W        W53960  37.322  42.024   2.981
80893W        W53961   5.144   8.937   1.721
80894W        W53962  34.623  40.580   4.283
80895W        W53963   2.056  28.116   0.374
80896W        W53964  24.277  20.253   2.797
80897W        W53965  37.034  36.509  10.669
80898W        W53966  37.358  15.821  12.076
80899W        W53967  28.094  43.861   3.080
80900W        W53968  40.775  22.044  10.735
80901W        W53969  29.937  38.536   2.864
80902W        W53970  31.101  41.687   1.067
80903W        W53971  16.808  25.949   3.154
80904W        W53972  31.491  15.704   3.625
80905W        W53973  11.080   9.833  12.517
80906W        W53974  12.734  44.778  12.526
80907W        W53975  12.397   1.001   0.536
80908W        W53976  20.983  11.643  12.880
80909W        W53977  42.991  29.531   2.109
80910W        W53978  18.601  33.057  12.864
80911W        W53979   7.681  31.088   2.187
80912W        W53980  38.845  23.692  12.991
80913W        W53981  15.794   9.056   0.458
80914W        W53982  17.712  34.002  14.546
80915W        W53983  36.296  21.131   0.028
80916W        W53984   9.293  25.145  11.598
80917W        W53985  42.887  12.794  11.628
80918W        W53986  21.643  42.507  10.408
80919W        W53987  31.196  41.507  11.152
80920W        W53988   1.229   2.443   4.092
80921W        W53989  26.781  35.116   4.340
80922W        W53990  42.231  19.757   3.631
80923W        W53991  13.045  35.900  12.554
80924W        W53992  38.373   9.784   2.405
80925W        W53993  16.065  29.563  10.848
80926W        W53994  19.680  43.669   5.609
80927W        W53995  13.435  43.768  14.248
80928W        W53996  16.107  19.057  12.640
80929W        W53997  32.108  21.693   1.414
80930W        W53998  25.064  31.392  13.072
80931W        W53999  33.163  11.376   2.816
80932W        W54000  30.648  18.996  11.922
80933W        W54001  16.272  40.250  12.990
80934W        W54002  27.914  44.526  14.127
80935W        W54003  42.562   3.921   0.662
80936W        W54004  39.641  34.349  11.359
80937W        W54005  20.658  42.272  12.526
80938W        W54006  14.797  19.385  11.737
80939W        W54007  12.295  15.585   4.585
80940W        W54008  25.872  15.830  12.413
80941W        W54009  18.754  44.421  13.856
80942W        W54010  22.969  14.943  11.167
80943W        W54011  20.430  24.340   0.684
80944W        W54012  37.649  39.097  11.151
80945W        W54013   1.168  14.530   1.377
80946W        W54014  24.220  28.576   0.380
80947W        W54015  23.726  14.121  12.513
80948W        W54016  10.222  21.714  14.948
80949W        W54017  13.921   5.752  14.387
80950W        W54018  32.344  24.608  12.022
80951W        W54019  16.686  29.366  13.710
80952W        W54020  32.522  22.742  13.486
80953W        W54021  42.272   0.142   5.375
80954W        W54022  11.086  23.500  11.435
80955W        W54023  12.878  28.817  13.028
80956W        W54024  10.681  40.976   4.702
80957W        W54025  39.483  11.348  10.564
80958W        W54026   2.143  26.490  14.003
80959W        W54027  17.197   7.207   3.691
80960W        W54028  21.585  24.183  13.826
80961W        W54029  25.871  22.708   2.328
80962W        W54030  25.430  25.614  12.344
80963W        W54031  17.844   3.367  14.639
80964W        W54032  42.179  24.090  11.129
80965W        W54033   4.226  12.756  11.945
80966W        W54034   8.760  37.592  12.931
80967W        W54035  25.473  41.465  13.548
80968W        W54036   7.672  19.493  13.193
80969W        W54037   9.869  11.653   4.166
80970W        W54038  28.312  17.975   2.635
80971W        W54039  27.008  16.746   1.228
80972W        W54040  37.152  39.473  13.487
80973W        W54041  40.475   4.015  13.564
80974W        W54042  11.316  19.050   3.810
80975W        W54043   2.701  32.679  12.962
80976W        W54044  31.654  21.525   3.691
80977W        W54045   4.466  42.088  13.436
80978W        W54046  33.903  11.920  14.725
80979W        W54047  32.477   2.188   3.735
80980W        W54048  44.862  15.429  13.024
80981W        W54049  23.658  42.688   3.941
80982W        W54050  25.943  21.670   4.181
80983W        W54051   6.686  32.109   2.384
80984W        W54052  15.843  26.510   2.793
80985W        W54053   4.281  40.117   3.696
80986W        W54054   7.051  41.892   5.573
80987W        W54055  16.801  26.865  14.842
80988W        W54056  42.498  21.474   2.172
80989W        W54057  16.202   7.200  14.270
80990W        W54058   7.645  24.138   2.279
80991W        W54059  44.777  13.638   2.418
80992W        W54060  25.369  37.495  14.233
80993W        W54061  17.135  16.193  13.664
80994W        W54062  18.103  15.259  14.319
80995W        W54063  33.306  15.217  13.970
80996W        W54064  40.842  14.806   3.358
80997W        W54065  26.954  43.588  14.406
80998W        W54066  36.374  39.211   1.693
80999W        W54067  31.519  19.134  12.123
81000W        W54068  25.497   4.738  13.547
81001W        W54069   2.875  39.031   3.467
81002W        W54070  22.224  31.927  14.819
81003W        W54071  23.753  42.345   0.995
81004W        W54072  19.278  32.584   2.305
81005W        W54073  20.218  22.137   0.504
81006W        W54074  31.072  44.137   1.298
81007W        W54075  17.538  38.927  11.613
81008W        W54076  25.608  37.517   4.068
81009W        W54077   4.412  36.587   0.879
81010W        W54078  16.103  20.706  11.982
81011W        W54079  41.033   2.022  12.511
81012W        W54080   5.021  43.045  11.890
81013W        W54081   2.497  22.207  12.372
81014W        W54082  37.833   0.340   2.624
81015W        W54083   7.804   7.383   4.281
81016W        W54084  21.206  22.548   0.855
81017W        W54085   4.595   4.316  12.085
81018W        W54086   0.470   5.362  14.675
81019W        W54087  21.536  12.363   0.038
81020W        W54088   6.331  20.476  12.541
81021W        W54089  32.656   3.790  13.847
81022W        W54090  39.392  20.059  13.144
81023W        W54091  13.160   2.879   2.450
81024W        W54092  26.930   7.861  10.671
81025W        W54093   4.441  24.187  14.065
81026W        W54094  17.712  30.216  13.441
81027W        W54095  20.614   9.415   4.225
81028W        W54096  44.310  32.196   1.233
81029W        W54097   6.929  17.659   3.098
81030W        W54098   5.409  26.817   0.835
81031W        W54099  27.566  13.073  14.850
81032W        W54100  44.904   6.200  13.152
81033W        W54101  28.091  34.064   0.163
81034W        W54102  23.415  30.620   1.382
81035W        W54103   9.551  43.351   0.540
81036W        W54104  34.756  13.646   0.940
81037W        W54105  42.960  28.075   0.433
81038W        W54106  44.148  38.948  13.871
81039W        W54107  20.593  33.908   0.285
81040W        W54108  20.791   3.832   0.760
81041W        W54109   2.402   0.459  11.902
81042W        W54110  24.070  39.555   4.465
81043W        W54111   2.623  22.213  14.963
81044W        W54112   1.420  44.447   3.347
81045W        W54113  22.270  34.450  12.396
81046W        W54114   5.883  10.953  12.470
81047W        W54115  14.114  21.554  12.115
81048W        W54116  38.979   2.757   1.782
81049W        W54117  29.815  39.001  14.976
81050W        W54118   1.241  24.450  13.359
81051W        W54119  25.038  26.715  14.034
81052W        W54120  33.234  25.793   3.088
81053W        W54121  18.724  16.772  12.289
81054W        W54122  44.915   4.799  11.986
81055W        W54123  21.023   3.717  10.676
81056W        W54124  31.456   4.289   0.850
81057W        W54125  42.556  35.335  10.748
81058W        W54126  21.202  35.556   4.205
81059W        W54127  33.698  26.684  13.321
81060W        W54128   9.630  16.590   0.523
81061W        W54129  24.278  19.427  11.264
81062W        W54130  32.934  18.704  10.669
81063W        W54131  14.234  24.418  14.220
81064W        W54132  30.821  28.204   2.598
81065W        W54133   8.822  11.936  13.653
81066W        W54134  17.366  22.122   0.854
81067W        W54135   7.203  44.414   4.947
81068W        W54136  24.971  11.282   4.211
81069W        W54137  17.755  20.564  13.843
81070W        W54138  37.148  24.579  14.045
81071W        W54139  25.043  44.803   4.193
81072W        W54140  10.146  23.459  11.512
81073W        W54141  36.971  13.894   1.491
81074W        W54142  42.707  24.623  10.516
81075W        W54143  31.100  31.590  12.394
81076W        W54144   4.451  16.617   1.908
81077W        W54145  26.944  13.615   0.378
81078W        W54146  31.173  38.951   2.693
81079W        W54147  35.655  23.971   1.418
81080W        W54148  16.912  12.317  13.447
81081W        W54149  38.387   6.343  11.436
81082W        W54150  21.685   0.567  12.143
81083W        W54151  25.609  16.235   3.687
81084W        W54152  27.445  26.132  10.682
81085W        W54153  43.282  16.212   3.222
81086W        W54154  17.856  20.945   3.683
81087W        W54155  19.074   5.409  11.558
81088W        W54156  28.455  39.764  10.728
81089W        W54157  34.557  20.472   1.003
81090W        W54158  29.581   8.442  11.120
81091W        W54159  26.165  11.062  12.502
81092W        W54160  19.494  15.567  12.036
81093W        W54161  29.455   8.451   2.299
81094W        W54162  18.052  10.628   1.017
81095W        W54163   0.491  22.463   5.114
81096W        W54164  19.950  29.396  10.789
81097W        W54165  10.358   2.723   4.650
81098W        W54166  36.783   2.171   0.409
81099W        W54167  40.834   4.788   2.363
81100W        W54168  32.036   3.318  12.987
81101W        W54169  29.576  40.732  13.474
81102W        W54170  44.216  43.389   4.235
81103W        W54171  44.520  15.895   2.171
81104W        W54172  18.807   6.989   0.447
81105W        W54173  19.404  36.495   4.680
81106W        W54174   2.858  10.631  12.134
81107W        W54175   9.728  41.733   3.623
81108W        W54176  40.986  24.106   3.785
81109W        W54177  41.543  26.220   1.659
81110W        W54178  28.633   8.790  13.973
81111W        W54179  40.039  42.633  11.153
81112W        W54180  12.174  28.908  14.492
81113W        W54181  17.658  41.371   4.813
81114W        W54182  33.358  31.231   1.305
81115W        W54183  39.899   9.284  11.051
81116W        W54184  36.377  36.474   3.625
81117W        W54185  21.263  22.518   1.707
81118W        W54186  14.670  40.491   2.631
81119W        W54187  12.101  15.322   2.576
81120W        W54188  12.075  21.672   4.599
81121W        W54189  37.073  40.280   3.871
81122W        W54190   8.269  17.645   3.915
81123W        W54191   5.248   3.000   3.653
81124W        W54192  25.441  23.599  13.863
81125W        W54193   0.778  27.831   4.261
81126W        W54194  12.887  21.781  12.925
81127W        W54195  33.426  27.929  12.640
81128W        W54196  19.435  16.756  10.860
81129W        W54197   3.822  20.319   1.422
81130W        W54198  10.376  17.989   2.803
81131W        W54199  18.258   9.468  14.439
81132W        W54200  13.252  22.967   4.901
81133W        W54201   4.091  28.216   3.280
81134W        W54202   0.110   9.636  11.110
81135W        W54203  43.928  32.554  13.524
81136W        W54204  32.383   4.719  13.578
81137W        W54205  13.299   1.349  13.643
81138W        W54206  38.526   9.944  12.612
81139W        W54207   8.310  21.152  13.068
81140W        W54208  38.954  22.798  12.175
81141W        W54209   1.388  12.550   0.236
81142W        W54210  35.828  37.289   2.763
81143W        W54211   6.578   6.176  11.739
81144W        W54212  44.371   5.455   4.167
81145W        W54213  27.536  14.670  10.775
81146W        W54214  29.611  13.471  11.083
81147W        W54215  15.395  24.653  13.264
81148W        W54216  35.502  26.057  14.132
81149W        W54217   3.250  32.540  11.334
81150W        W54218  14.356   6.378  10.690
81151W        W54219  40.011  23.210   2.251
81152W        W54220  12.173  24.466  12.138
81153W        W54221   2.238  43.485  13.156
81154W        W54222  22.640  42.830  11.077
81155W        W54223  35.640  39.025   2.861
81156W        W54224   1.349  21.527   0.468
81157W        W54225  12.804  15.039  12.427
81158W        W54226  25.349  21.526   1.855
81159W        W54227  20.975  11.847   0.349
81160W        W54228  31.708   6.434   0.787
81161W        W54229  25.059   1.717  12.905
81162W        W54230   2.468  42.437  14.458
81163W        W54231  11.357  13.288   1.539
81164W        W54232   6.826  16.581   2.262
81165W        W54233  31.532   8.768  10.973
81166W        W54234  22.703  39.729  10.050
81167W        W54235  34.832   8.896   1.423
81168W        W54236  11.224  16.183   4.610
81169W        W54237  37.117  26.191   4.413
81170W        W54238  21.267  33.922  10.639
81171W        W54239  34.851   4.487  11.846
81172W        W54240  32.401  20.881  14.931
81173W        W54241   2.721  17.061  12.449
81174W        W54242  26.093  34.811   3.414
81175W        W54243  27.922   7.259  11.959
81176W        W54244  13.469  38.798  13.803
81177W        W54245  25.106  31.164  13.899
81178W        W54246  15.423   0.046  13.472
81179W        W54247  23.462  13.237   3.255
81180W        W54248  27.233  19.793   1.002
81181W        W54249  26.650  19.708   1.695
81182W        W54250  35.382  42.480  12.476
81183W        W54251   2.478  19.145  11.126
81184W        W54252   1.353   6.803   4.594
81185W        W54253  20.251   5.883   4.138
81186W        W54254  24.168  24.118  14.152
81187W        W54255  37.654   5.685  12.228
81188W        W54256  40.487  25.042  14.505
81189W        W54257  23.649   3.205  10.807
81190W        W54258   4.673  42.419   5.092
81191W        W54259  33.329  44.653   9.931
81192W        W54260  12.108  39.089  10.095
81193W        W54261   2.498  12.358   3.661
81194W        W54262   8.831  38.997   3.164
81195W        W54263  20.121  12.790   0.860
81196W        W54264   4.809  26.944   2.122
81197W        W54265   7.816  42.096   3.058
81198W        W54266  15.169   4.067  11.671
81199W        W54267   5.347  11.648   0.758
81200W        W54268  23.735  33.544  14.776
81201W        W54269   1.906  25.674   0.907
81202W        W54270  32.059  43.420   3.790
81203W        W54271   4.879  17.368  14.259
81204W        W54272  17.238   8.743  12.452
81205W        W54273  10.249  16.373  11.577
81206W        W54274   5.759  37.027   1.239
81207W        W54275  16.208   8.906   1.670
81208W        W54276   4.948  34.395   0.810
81209W        W54277  31.410  15.234  13.366
81210W        W54278   1.764  25.385  14.818
81211W        W54279  41.982  20.580   1.754
81212W        W54280   6.828  13.281   4.440
81213W        W54281  40.299   7.105  11.484
81214W        W54282  32.688  40.256   4.804
81215W        W54283  11.597  17.717  12.548
81216W        W54284  42.050  40.340   1.064
81217W        W54285  22.255   9.298  11.811
81218W        W54286  23.839   8.860  12.815
81219W        W54287  22.908   6.474  14.984
81220W        W54288  13.185  20.067  11.101
81221W        W54289  16.896  43.127  14.418
81222W        W54290   4.948  44.781  13.075
81223W        W54291  17.886  16.135   1.334
81224W        W54292  44.138  26.675   0.320
81225W        W54293  23.922  41.703  14.153
81226W        W54294  43.912  30.123  10.592
81227W        W54295  18.627  41.532   0.449
81228W        W54296  15.708  21.934   1.214
81229W        W54297  24.503  18.624   0.730
81230W        W54298  35.485  16.788   3.158
81231W        W54299  42.369  17.525   2.429
81232W        W54300  21.788  39.618  12.332
81233W        W54301  18.875  24.333  11.267
81234W        W54302   4.414  10.483  13.944
81235W        W54303  25.214  14.622   4.122
81236W        W54304  22.094  20.563   2.418
81237W        W54305  14.301  13.346  10.566
81238W        W54306   7.241  13.236  11.840
81239W        W54307   1.519   1.960   2.753
81240W        W54308   7.930  28.871   5.128
81241W        W54309  42.737  38.379  12.491
81242W        W54310  19.638  11.826   4.596
81243W        W54311   0.267  13.265   0.743
81244W        W54312  33.157  24.444   4.778
81245W        W54313  14.345  28.925  12.946
81246W        W54314  14.656  27.621  12.975
81247W        W54315  33.371  20.948   5.083
81248W        W54316  11.400  12.856  13.423
81249W        W54317   1.314  33.678   3.864
81250W        W54318  24.942   2.868  11.518
81251W        W54319   0.801  34.735   1.761
81252W        W54320  41.525  41.828  11.989
81253W        W54321  34.958   2.503  12.382
81254W        W54322  43.479  26.554   3.307
81255W        W54323  27.988  26.188   2.666
81256W        W54324  32.665  12.748   4.087
81257W        W54325  11.848  12.647  12.065
81258W        W54326  25.803  34.434   0.259
81259W        W54327  21.745  14.906  12.066
81260W        W54328  29.246   0.785   3.088
81261W        W54329  42.523  23.815   1.283
81262W        W54330  21.189   5.597  11.132
81263W        W54331   4.278  23.778  10.927
81264W        W54332   5.660  43.724  10.550
81265W        W54333  43.421  12.812   3.986
81266W        W54334  25.755  10.250  14.378
81267W        W54335  39.175  18.826   3.198
81268W        W54336  16.351  42.782  13.048
81269W        W54337  41.567   0.603  14.608
81270W        W54338  37.982  42.319   1.974
81271W        W54339  27.980   6.989  13.636
81272W        W54340   7.704   1.281   0.893
81273W        W54341  13.756  12.537  12.526
81274W        W54342  28.292   5.420   4.166
81275W        W54343   7.668  14.980  13.012
81276W        W54344  12.922   8.972  14.332
81277W        W54345   1.772  33.458   2.885
81278W        W54346  11.756  37.784   4.133
81279W        W54347   2.503  33.058   1.859
81280W        W54348  17.747  14.341  13.445
81281W        W54349   2.953   2.030   1.703
81282W        W54350  29.062  12.245   4.022
81283W        W54351  14.580  15.875  14.626
81284W        W54352  16.788  16.250  12.829
81285W        W54353  17.359   6.256  11.936
81286W        W54354   9.339  20.671  11.428
81287W        W54355  26.442  17.735   0.294
81288W        W54356   2.853  35.461   2.346
81289W        W54357   5.444  29.578  11.611
81290W        W54358  10.092  14.451  10.247
81291W        W54359  38.108  20.030   1.476
81292W        W54360  29.533   9.234  13.506
81293W        W54361   0.467  33.222  13.880
81294W        W54362  37.585  13.190  11.893
81295W        W54363  39.087  21.433  13.372
81296W        W54364  42.243   5.710  13.255
81297W        W54365  11.032  18.523   2.211
81298W        W54366  22.221  39.714   0.822
81299W        W54367  23.541  16.154   3.957
81300W        W54368   0.380   8.827  11.833
81301W        W54369  15.678  41.840   0.975
81302W        W54370  21.611  38.123   1.358
81303W        W54371  13.141  38.027   2.882
81304W        W54372  13.415  19.721  11.685
81305W        W54373  14.059  40.685   3.594
81306W        W54374  13.196  34.727  12.013
81307W        W54375  40.003  32.864   3.630
81308W        W54376  42.452  16.507   2.509
81309W        W54377  43.386  22.784   1.473
81310W        W54378   5.039  20.493  11.504
81311W        W54379  25.174  43.033  12.005
81312W        W54380  31.642  44.976   2.156
81313W        W54381  32.468   0.268  13.696
81314W        W54382  22.104   1.780  10.660
81315W        W54383  27.512  35.603   1.267
81316W        W54384  32.589  34.552  14.296
81317W        W54385  25.645  14.295   5.084
81318W        W54386   0.781  30.416  13.222
81319W        W54387   0.704   4.316   1.827
81320W        W54388  11.418  22.179  11.182
81321W        W54389   1.931  17.574   4.293
81322W        W54390  41.887  21.707   3.868
81323W        W54391   2.866   8.801   1.689
81324W        W54392  18.594  13.665   2.958
81325W        W54393  20.308  24.022  11.576
81326W        W54394  23.265  24.781   2.371
81327W        W54395  44.191   8.729   2.187
81328W        W54396  15.652  20.806   3.399
81329W        W54397  44.955   4.847   1.726
81330W        W54398  22.627   6.202   2.668
81331W        W54399  39.457   3.492  13.878
81332W        W54400  36.646  39.657   1.680
81333W        W54401   4.827  31.212  12.440
81334W        W54402  22.104  18.328   5.164
81335W        W54403  43.123  17.875   0.755
81336W        W54404  32.473  34.740   1.888
81337W        W54405  13.605  41.025  11.139
81338W        W54406  16.809   3.378  14.962
81339W        W54407  33.085   0.397  14.831
81340W        W54408   4.393   0.489  14.653
81341W        W54409  35.877   4.850   3.553
81342W        W54410  24.721   3.438  14.449
81343W        W54411  10.910  42.257  12.650
81344W        W54412  21.208  20.730  14.918
81345W        W54413  18.601  44.264  10.919
81346W        W54414  33.904  44.795  12.107
81347W        W54415  39.673  15.380  12.536
81348W        W54416  30.579   0.896   1.745
81349W        W54417   1.727   5.859   1.366
81350W        W54418   7.441  25.855  13.427
81351W        W54419   6.852   4.117   3.112
81352W        W54420  39.323  10.667   3.740
81353W        W54421  30.056   9.124   2.211
81354W        W54422  43.231  36.096  10.724
81355W        W54423  20.686   9.253   0.498
81356W        W54424   9.481  42.007  10.024
81357W        W54425  33.880  36.782  10.950
81358W        W54426   5.455   6.182   2.133
81359W        W54427   5.983  22.426  12.981
81360W        W54428   8.807  35.021   0.824
81361W        W54429   2.378  16.709  11.550
81362W        W54430   6.998  42.804   0.974
81363W        W54431  28.440  42.382  12.109
81364W        W54432  42.994  38.545  12.920
81365W        W54433  31.184  15.734   4.614
81366W        W54434  35.917  21.557   2.706
81367W        W54435  18.231   3.980   3.424
81368W        W54436  10.938  16.590   2.333
81369W        W54437  36.946  40.730   0.295
81370W        W54438   7.382  33.133   1.366
81371W        W54439  13.206   3.765   2.479
81372W        W54440   4.760   2.741   0.105
81373W        W54441  28.655  44.340  12.063
81374W        W54442  28.637  36.470  14.328
81375W        W54443  20.625  34.076  14.792
81376W        W54444  35.011  21.735  12.467
81377W        W54445  32.498  13.857   3.861
81378W        W54446   9.450   7.888   1.325
81379W        W54447   8.779  29.059  13.350
81380W        W54448  12.091  29.142   4.944
81381W        W54449  10.449  34.379  12.494
81382W        W54450  37.814  10.989   4.883
81383W        W54451  43.227   6.072  12.415
81384W        W54452   4.279  38.095   0.895
81385W        W54453   9.866   1.391   2.740
81386W        W54454  36.613   0.393   0.339
81387W        W54455  31.248  28.237  10.093
81388W        W54456  27.524  15.846  14.935
81389W        W54457  16.402   3.162   4.111
81390W        W54458  25.491  38.821   1.905
81391W        W54459   8.766   6.841  12.535
81392W        W54460   2.668  17.973   3.126
81393W        W54461  18.645  30.957   1.220
81394W        W54462  20.049   8.730   4.602
81395W        W54463  36.125   0.481  12.031
81396W        W54464  43.324  34.154  12.100
81397W        W54465  18.571  37.605  11.087
81398W        W54466  23.467  33.106   0.058
81399W        W54467  16.657  28.120   3.917
81400W        W54468  25.751  40.040   1.443
81401W        W54469  43.718  34.005  11.805
81402W        W54470  27.983  43.290   4.088
81403W        W54471  20.462  19.701  11.577
81404W        W54472  42.583  29.679  14.484
81405W        W54473  23.949   9.359   1.003
81406W        W54474  26.041  43.040  11.868
81407W        W54475  36.066   4.945   3.086
81408W        W54476  42.058  43.018  11.938
81409W        W54477  28.198  13.178  10.640
81410W        W54478  12.775  41.346   3.997
81411W        W54479  41.864  13.405  12.089
81412W        W54480  10.290  20.791   2.387
81413W        W54481  35.409  37.363  10.589
81414W        W54482  14.082  11.170  14.482
81415W        W54483  41.914  22.094   1.048
81416W        W54484  37.016   0.351  11.486
81417W        W54485  20.544   4.281  10.839
81418W        W54486  30.157  33.246  14.429
81419W        W54487  28.935  40.732   1.745
81420W        W54488   2.181  27.592   4.433
81421W        W54489  32.840  43.056  13.380
81422W        W54490  24.210  14.639   0.417
81423W        W54491  17.007  27.657   0.509
81424W        W54492   1.928  34.869  12.561
81425W        W54493  17.999  39.909  11.758
81426W        W54494   1.141  13.390  12.645
81427W        W54495  44.484  13.875  14.857
81428W        W54496  30.687  40.530  11.565
81429W        W54497  36.024  20.878  13.473
81430W        W54498  19.087   8.663   3.360
81431W        W54499  40.078  44.788  11.149
81432W        W54500   5.944  22.785  12.420
81433W        W54501   0.972  23.169   1.447
81434W        W54502   4.179   9.675  11.973
81435W        W54503   6.289  32.789   0.313
81436W        W54504  22.171  23.998   2.864
81437W        W54505  21.242  17.282  13.980
81438W        W54506  40.857   0.948  10.679
81439W        W54507  30.920   3.196  14.733
81440W        W54508   9.609  22.889  12.614
81441W        W54509  16.558  31.883   2.025
81442W        W54510  22.174  41.559   1.376
81443W        W54511  30.695   3.907   2.003
81444W        W54512  24.696  21.684  12.879
81445W        W54513   7.360  25.250  12.454
81446W        W54514  28.101   1.376  11.938
81447W        W54515   1.378  35.649   1.378
81448W        W54516  27.439  20.790   0.511
81449W        W54517  42.836  29.906  13.531
81450W        W54518  44.755  21.924  14.985
81451W        W54519  30.355  19.651  10.796
81452W        W54520  35.915  34.434  11.163
81453W        W54521  29.556  35.437   3.727
81454W        W54522   5.656   8.465  11.979
81455W        W54523   2.948   3.422  12.871
81456W        W54524  20.755  35.502   2.269
81457W        W54525  28.048  42.955   2.800
81458W        W54526  41.547   4.512   1.846
81459W        W54527  26.662  41.808  14.335
81460W        W54528  10.210   0.319   3.708
81461W        W54529  18.139  37.036   3.107
81462W        W54530  39.238   1.972   0.535
81463W        W54531  17.858  44.907  11.153
81464W        W54532  31.060  12.274  12.625
81465W        W54533  31.636  26.605   0.955
81466W        W54534  42.369   3.638   0.247
81467W        W54535   3.412   9.207   3.662
81468W        W54536  35.809  42.246   0.793
81469W        W54537  20.535  27.175  14.560
81470W        W54538  10.442  22.168   0.913
81471W        W54539   8.222  35.924   0.965
81472W        W54540  17.246  36.124  10.036
81473W        W54541  31.650  23.978  14.897
81474W        W54542  18.639   3.389   4.141
81475W        W54543  30.606   6.683  14.014
81476W        W54544  40.232  23.656   3.767
81477W        W54545  12.932  20.050  10.647
81478W        W54546  35.403   3.964  12.960
81479W        W54547  38.949   3.420  12.422
81480W        W54548  27.303  16.252   4.768
81481W        W54549   5.526   4.389   0.902
81482W        W54550  18.586  29.613   1.896
81483W        W54551  38.603  43.557   4.601
81484W        W54552  20.489  11.552  11.174
81485W        W54553  35.235   1.365   0.855
81486W        W54554  26.220  22.351   2.162
81487W        W54555   9.349   3.168   0.838
81488W        W54556  33.582  41.045   2.420
81489W        W54557   4.265  26.244   4.178
81490W        W54558   8.457   4.750  14.445
81491W        W54559  22.691  43.257   3.352
81492W        W54560  41.757  13.869  13.455
81493W        W54561   7.776  20.575   3.919
81494W        W54562  10.718   3.712   1.820
81495W        W54563  19.388  15.676   1.187
81496W        W54564  16.920  38.463  12.099
81497W        W54565  14.460   8.458   0.217
81498W        W54566  42.072   8.136   3.371
81499W        W54567  23.960  42.548   5.199
81500W        W54568  43.772  20.955  11.629
81501W        W54569  43.366   7.412  13.058
81502W        W54570  43.836  18.749   4.639
81503W        W54571  11.153  39.379   4.435
81504W        W54572  22.253  17.039   0.397
81505W        W54573  12.560  20.992   4.506
81506W        W54574  24.943  44.903  12.321
81507W        W54575   5.501  14.851  13.488
81508W        W54576  13.276  23.569   5.109
81509W        W54577   8.057  20.662   3.065
81510W        W54578  13.057  16.133  10.722
81511W        W54579  24.059  18.730   3.661
81512W        W54580  38.844   5.055   1.250
81513W        W54581  34.408  31.871  10.256
81514W        W54582  15.948  33.509  13.421
81515W        W54583  20.608  13.507   3.756
81516W        W54584  39.494  19.252   1.019
81517W        W54585  17.176  41.774   3.587
81518W        W54586  14.713  10.740  10.825
81519W        W54587  37.267   2.190   0.550
81520W        W54588  38.990  35.426  13.823
81521W        W54589  40.034  16.631  14.656
81522W        W54590   0.369  16.628   0.448
81523W        W54591  13.061  38.556   0.451
81524W        W54592   3.742  12.675  11.029
81525W        W54593  21.107   1.939  11.703
81526W        W54594   1.872  40.783   0.741
81527W        W54595  32.628   6.852  10.678
81528W        W54596   0.049  30.060   3.671
81529W        W54597  36.219   3.554  12.350
81530W        W54598  33.185   6.697   4.066
81531W        W54599  14.758  18.019  11.549
81532W        W54600  27.526   3.805  12.834
81533W        W54601   0.454  33.333   0.930
81534W        W54602  20.263  31.991  10.689
81535W        W54603  33.572  43.889  11.169
81536W        W54604   3.773   5.630   0.484
81537W        W54605   8.595  36.475  12.078
81538W        W54606  21.745  22.692   1.731
81539W        W54607  44.516   7.387   2.815
81540W        W54608  30.521  38.993  13.337
81541W        W54609   9.669   1.413  10.853
81542W        W54610  17.839  31.993   0.939
81543W        W54611  17.716  38.022  13.611
81544W        W54612  23.132  15.175  10.743
81545W        W54613   3.804  14.840  13.767
81546W        W54614  21.970   8.744   0.301
81547W        W54615  32.047  21.050   0.969
81548W        W54616  28.193   6.302   0.724
81549W        W54617  22.581   3.677  13.555
81550W        W54618  31.196  20.662   1.479
81551W        W54619  27.493   9.651  14.081
81552W        W54620  12.876   3.179   0.738
81553W        W54621   9.720  14.332  10.981
81554W        W54622  17.563   4.380   0.051
81555W        W54623  25.720  39.877   4.932
81556W        W54624  37.597  42.258   1.459
81557W        W54625  42.914   3.821   2.919
81558W        W54626  18.510  37.246  12.463
81559W        W54627  10.737   1.917  11.604
81560W        W54628  42.897  22.022   1.384
81561W        W54629  15.538  26.505  12.731
81562W        W54630   2.368  12.246  12.958
81563W        W54631   0.188  16.653  14.595
81564W        W54632   5.816  36.535   0.390
81565W        W54633  41.909  28.139  13.119
81566W        W54634  14.635   8.438  10.740
81567W        W54635   8.905  36.443   4.118
81568W        W54636   1.231  17.094   4.694
81569W        W54637  15.993  22.047  12.136
81570W        W54638  34.860  39.497  12.095
81571W        W54639   7.461  22.215  11.225
81572W        W54640   5.221  25.887  11.705
81573W        W54641  27.085  22.151  10.606
81574W        W54642   9.156  24.202   2.562
81575W        W54643  10.632  22.255  14.180
81576W        W54644  30.243  12.765   3.129
81577W        W54645   2.842  11.726  13.305
81578W        W54646   7.978   1.497   0.364
81579W        W54647  35.758  12.465  11.095
81580W        W54648  24.189  19.538   1.071
81581W        W54649  12.152  24.147   0.824
81582W        W54650  12.159  37.915  10.755
81583W        W54651  42.908  24.111   0.313
81584W        W54652  33.913   2.031  14.254
81585W        W54653  36.387  43.821   1.875
81586W        W54654   3.225   5.132   3.838
81587W        W54655   4.678  18.535   1.360
81588W        W54656  38.969   4.971  13.908
81589W        W54657  30.743  15.067  11.043
81590W        W54658  17.690  20.845   1.250
81591W        W54659  16.174  34.031   3.194
81592W        W54660   5.741  29.082   0.733
81593W        W54661  19.187  14.762  12.975
81594W        W54662  41.451  33.953  13.564
81595W        W54663  43.422  34.028  13.114
81596W        W54664  14.863  32.522   4.863
81597W        W54665  24.712  34.453  14.907
81598W        W54666  28.485  43.259   3.997
81599W        W54667  30.924  28.134   1.222
81600W        W54668  24.776  34.568   2.945
81601W        W54669  12.119  19.255   3.989
81602W        W54670  33.583   1.001   4.185
81603W        W54671   1.901  19.121  12.560
81604W        W54672   0.797  41.508  12.010
81605W        W54673  20.164  34.526  12.333
81606W        W54674  20.479  26.503   3.705
81607W        W54675  43.437  31.834  12.567
81608W        W54676  24.768   4.088   1.966
81609W        W54677  44.907  21.628   4.885
81610W        W54678   7.813  29.458   4.300
81611W        W54679   4.001  31.501   4.718
81612W        W54680   4.195  10.584  11.987
81613W        W54681  14.075  34.593   4.657
81614W        W54682  17.125  27.454   1.993
81615W        W54683   6.636  36.533   2.314
81616W        W54684  13.741  38.352  14.789
81617W        W54685  19.773  32.752   2.333
81618W        W54686  10.663   2.281   1.962
81619W        W54687   7.361  42.075  12.173
81620W        W54688  42.725  34.442   4.481
81621W        W54689   8.644  33.336  13.875
81622W        W54690  35.399  17.143  11.093
81623W        W54691  19.234  30.896  11.856
81624W        W54692   7.485   6.766   3.366
81625W        W54693   7.380   7.001  13.891
81626W        W54694  23.174  18.662   2.377
81627W        W54695  36.145   0.774   2.315
81628W        W54696  11.948   2.902  11.560
81629W        W54697   7.683  32.408   0.387
81630W        W54698  20.131  42.280   2.227
81631W        W54699  15.963  39.113   3.389
81632W        W54700   2.957  14.386   2.753
81633W        W54701  12.579   0.524   0.757
81634W        W54702  32.073  36.506   3.636
81635W        W54703  10.621  37.288   2.697
81636W        W54704   8.631  12.761   3.611
81637W        W54705  10.782  39.657   3.056
81638W        W54706  33.483  19.180   4.129
81639W        W54707  11.318   8.297  11.262
81640W        W54708  31.943  38.498   0.724
81641W        W54709   1.399  33.600  12.590
81642W        W54710  21.477   9.263  13.288
81643W        W54711   4.667  24.373   3.770
81644W        W54712  17.596   3.969  10.686
81645W        W54713  25.505  42.730  13.880
81646W        W54714  31.244  23.731  14.004
81647W        W54715  19.752   8.204  14.986
81648W        W54716  33.747  31.993  10.579
81649W        W54717  37.035  23.567  12.506
81650W        W54718  39.484  44.025  13.858
81651W        W54719   5.161  16.844  11.646
81652W        W54720  33.031  14.587  13.076
81653W        W54721  26.529  13.383  10.086
81654W        W54722   4.389  10.083   1.876
81655W        W54723  11.227  22.065  14.000
81656W        W54724  34.115  29.610  12.504
81657W        W54725  38.804  13.359  14.179
81658W        W54726   4.928  38.958   1.905
81659W        W54727  25.530   1.185  12.538
81660W        W54728  16.350  12.872  14.774
81661W        W54729  42.125  11.764  10.780
81662W        W54730  29.927  26.517   1.434
81663W        W54731  38.454  17.545   1.737
81664W        W54732  15.387  17.355   2.664
81665W        W54733   4.794  43.017   1.377
81666W        W54734  35.149  40.639   2.170
81667W        W54735  13.335   8.720   2.740
81668W        W54736   7.388  38.053  12.409
81669W        W54737  10.690  17.594   4.966
81670W        W54738  12.381  43.926  11.994
81671W        W54739  31.017  44.990   4.951
81672W        W54740  33.953  19.902   0.114
81673W        W54741  43.931  30.632  14.605
81674W        W54742  27.646  34.050   1.241
81675W        W54743  28.740  20.066   2.222
81676W        W54744  24.756  33.490  14.860
81677W        W54745  43.513   2.865  12.902
81678W        W54746  16.018  11.171  10.168
81679W        W54747  28.061  28.532   3.470
81680W        W54748  10.344   2.126  14.432
81681W        W54749   6.316  32.092   4.094
81682W        W54750   7.455  20.117   3.117
81683W        W54751  42.944  33.471  14.907
81684W        W54752  27.609  16.187  10.600
81685W        W54753   0.565  28.961   2.757
81686W        W54754  35.051  39.718   0.301
81687W        W54755  35.455  35.296  13.080
81688W        W54756  15.100  39.861  13.891
81689W        W54757   7.927  32.879  11.835
81690W        W54758  12.502  24.746  11.134
81691W        W54759  39.460  13.851   2.436
81692W        W54760  15.165   6.769   2.129
81693W        W54761  38.164  26.468  11.268
81694W        W54762  31.569  20.807  13.867
81695W        W54763  21.459  14.802   1.678
81696W        W54764   3.238  28.895   1.667
81697W        W54765  26.496  18.674  10.702
81698W        W54766  16.833  21.012  13.863
81699W        W54767  39.037  21.329  11.103
81700W        W54768  41.001   1.195  11.106
81701W        W54769   3.247  37.145   3.078
81702W        W54770  36.903  31.891   9.665
81703W        W54771  14.178  41.487   1.876
81704W        W54772  36.964  41.370   1.807
81705W        W54773  18.194  17.199  10.660
81706W        W54774  16.146  30.620   1.733
81707W        W54775  31.812  43.383  10.381
81708W        W54776  13.811  11.795   2.565
81709W        W54777   4.821  23.145   4.572
81710W        W54778  10.340  32.580   1.279
81711W        W54779  28.702  23.330   4.914
81712W        W54780  17.592  37.588   3.681
81713W        W54781  41.211   2.884   3.395
81714W        W54782  25.130   2.089   1.365
81715W        W54783  37.807  38.475   1.959
81716W        W54784  30.367  40.559  11.982
81717W        W54785  28.924  43.941   1.946
81718W        W54786  22.782  19.176  13.576
81719W        W54787  37.032   6.742  11.925
81720W        W54788  16.267   9.439  13.528
81721W        W54789   2.005  29.100  13.910
81722W        W54790  41.507  10.704  12.209
81723W        W54791  40.051  18.621  11.555
81724W        W54792  18.081  39.011  10.488
81725W        W54793  43.930  33.461   1.297
81726W        W54794  27.690  31.697   1.245
81727W        W54795  37.369  16.556   4.734
81728W        W54796   3.727   8.942   4.112
81729W        W54797   2.929  13.608   3.234
81730W        W54798  27.159   4.209   4.565
81731W        W54799   9.843  26.813   0.284
81732W        W54800  31.538  28.430   2.318
81733W        W54801  43.463   2.657  10.613
81734W        W54802  40.700  36.799  13.457
81735W        W54803  14.258  32.136  12.553
81736W        W54804  13.192  21.428  10.852
81737W        W54805  29.123  21.273   4.481
81738W        W54806  21.825  28.424  14.242
81739W        W54807  40.330   2.453   5.328
81740W        W54808   1.444  16.156  12.574
81741W        W54809  13.212  44.518   0.963
81742W        W54810   9.941  34.388  13.814
81743W        W54811  44.808  25.737   2.672
81744W        W54812  18.490  43.986  14.018
81745W        W54813  24.064  22.594   4.633
81746W        W54814  33.070  42.426  12.431
81747W        W54815  16.136   2.958  14.364
81748W        W54816   7.977  28.620   4.680
81749W        W54817   5.748  25.778  11.600
81750W        W54818  11.295  32.933   2.671
81751W        W54819  25.978  14.233  10.879
81752W        W54820  33.967  24.214  12.159
81753W        W54821  36.396  38.518   3.878
81754W        W54822  42.348   2.810  13.418
81755W        W54823   5.761  22.040   2.744
81756W        W54824   0.934  22.972   0.309
81757W        W54825   3.720   7.724  12.506
81758W        W54826  17.684  15.356  12.031
81759W        W54827  33.466  32.255  12.535
81760W        W54828  27.717  27.140  10.594
81761W        W54829  16.162  15.808   2.641
81762W        W54830  41.568  18.720  12.386
81763W        W54831  25.800  22.118  12.411
81764W        W54832  30.083  18.714   0.982
81765W        W54833  38.415  24.015  13.075
81766W        W54834  10.771  20.515   2.404
81767W        W54835  12.984  17.838  10.224
81768W        W54836  11.106  11.337  14.477
81769W        W54837  15.423   5.266   0.309
81770W        W54838  35.661  34.259  12.039
81771W        W54839   8.933   1.559  12.377
81772W        W54840  41.982   9.810  11.074
81773W        W54841  37.899   6.785   3.239
81774W        W54842  18.256   5.900   0.854
81775W        W54843  29.699  29.110   2.876
81776W        W54844  43.644  13.394  11.906
81777W        W54845  25.566  24.327  11.167
81778W        W54846  26.516  13.271   1.844
81779W        W54847   8.948  40.559  12.469
81780W        W54848  41.079   8.416   4.164
81781W        W54849  25.448  26.498  12.350
81782W        W54850  15.760  42.475  10.710
81783W        W54851  22.901   8.209  12.427
81784W        W54852  29.496  24.238  14.527
81785W        W54853   5.657  26.687  13.485
81786W        W54854  18.043  19.473   2.869
81787W        W54855   3.744  36.589  13.548
81788W        W54856  26.529  44.041   1.547
81789W        W54857  24.463  13.137  11.619
81790W        W54858  42.767  26.342   4.411
81791W        W54859   1.705  18.829  12.160
81792W        W54860  15.536  11.566  14.259
81793W        W54861  18.494  23.234   2.005
81794W        W54862  33.347  15.577   3.299
81795W        W54863  13.129  29.506   1.626
81796W        W54864  18.614  20.219   3.668
81797W        W54865  30.499  33.695   1.870
81798W        W54866  11.348  12.862  12.891
81799W        W54867   6.667   3.942  13.312
81800W        W54868  27.048  41.105   1.811
81801W        W54869  34.512  33.990   4.966
81802W        W54870  39.540   8.252  11.607
81803W        W54871  10.521  28.226  11.817
81804W        W54872  28.998  23.191   2.825
81805W        W54873  29.357  36.097   2.331
81806W        W54874  33.095   8.871   1.787
81807W        W54875  42.859   2.170  12.904
81808W        W54876  39.406   1.160  11.594
81809W        W54877  29.913  18.966  11.055
81810W        W54878   6.757  40.460   4.208
81811W        W54879  33.900  32.088  11.963
81812W        W54880  21.500  36.577  10.811
81813W        W54881   6.711  10.637  12.472
81814W        W54882   3.800  24.991  11.158
81815W        W54883  30.105  16.899   3.684
81816W        W54884  11.134  42.775  13.518
81817W        W54885  19.953   8.428  12.556
81818W        W54886  13.031   6.186  11.980
81819W        W54887  35.821  17.996   3.611
81820W        W54888  28.104  33.961  12.468
81821W        W54889   2.173  39.346  13.975
81822W        W54890  39.812  21.625  14.289
81823W        W54891  44.058   5.721   0.666
81824W        W54892   8.781  43.579   0.079
81825W        W54893  16.215  11.666  11.057
81826W        W54894  15.091  39.893  12.332
81827W        W54895   5.914  40.103   1.334
81828W        W54896   9.472  18.308   3.241
81829W        W54897   6.162  27.932  11.707
81830W        W54898   6.801   7.141   0.427
81831W        W54899  19.805   4.211   3.237
81832W        W54900  17.151  29.134  13.832
81833W        W54901  37.910  15.190   3.839
81834W        W54902  30.483  35.904   3.566
81835W        W54903  19.446  16.489  14.080
81836W        W54904   4.380   4.583  12.465
81837W        W54905  32.012  15.690  10.327
81838W        W54906  16.999   3.414  12.605
81839W        W54907  22.587  41.633   1.705
81840W        W54908  21.402  38.007   2.682
81841W        W54909  22.004  13.828  10.687
81842W        W54910  14.361  41.771   1.468
81843W        W54911  36.413  12.153   4.830
81844W        W54912  21.559  38.621   0.580
81845W        W54913  26.176  11.835  11.006
81846W        W54914  24.406  36.601  14.892
81847W        W54915   6.160   1.869   2.654
81848W        W54916  32.980  33.079  13.372
81849W        W54917  16.544  29.585   1.209
81850W        W54918  27.744  15.093  12.307
81851W        W54919  35.740   4.325   4.543
81852W        W54920  10.943  41.530  12.869
81853W        W54921   3.887  19.184  14.139
81854W        W54922  38.902  18.630   2.797
81855W        W54923  11.797  34.212  14.647
81856W        W54924  37.061  23.789  13.436
81857W        W54925  10.304   7.938  12.062
81858W        W54926  37.006   2.322  12.392
81859W        W54927  10.815  32.365   3.192
81860W        W54928  23.085  39.745   3.649
81861W        W54929  26.024  26.153  13.395
81862W        W54930  36.924  28.815   2.339
81863W        W54931  27.950  41.920  11.863
81864W        W54932  23.172  33.822  11.681
81865W        W54933  30.445  40.580   4.175
81866W        W54934  27.685  29.352   0.956
81867W        W54935  14.132   7.645   2.737
81868W        W54936   8.184  25.554  10.740
81869W        W54937   7.629  23.008   0.426
81870W        W54938   1.974  31.088  14.706
81871W        W54939  41.602  25.097   4.480
81872W        W54940  39.369  23.128   0.952
81873W        W54941  10.744  29.947  12.661
81874W        W54942  15.692  25.080   0.984
81875W        W54943   6.900  28.355  14.849
81876W        W54944   2.529  10.610   0.803
81877W        W54945  32.317  23.566   0.429
81878W        W54946  29.614  12.274  11.919
81879W        W54947  39.551  44.286   4.144
81880W        W54948   3.711  25.707   4.711
81881W        W54949   7.667  34.892  14.436
81882W        W54950  34.864  22.794   2.637
81883W        W54951  44.326  39.572  13.767
81884W        W54952  35.982   2.207  14.449
81885W        W54953  23.096   2.000   1.439
81886W        W54954  21.110  26.582  10.622
81887W        W54955  11.646  14.608   4.258
81888W        W54956  42.886  18.824  11.200
81889W        W54957   3.939  17.324   4.131
81890W        W54958  20.304   8.248  11.633
81891W        W54959   5.609  17.843   2.139
81892W        W54960  24.585  11.520  12.968
81893W        W54961  31.215  34.572  12.956
81894W        W54962   1.375  16.395  11.088
81895W        W54963  10.285  20.546   1.397
81896W        W54964  27.647  28.006   4.579
81897W        W54965  19.061  37.767  11.083
81898W        W54966  27.504  14.695  12.118
81899W        W54967  17.100  36.095   3.235
81900W        W54968  20.513  41.790  13.837
81901W        W54969  43.985  17.747  13.851
81902W        W54970  13.772  20.735  12.522
81903W        W54971  36.953  41.848   0.181
81904W        W54972  26.975  33.538   2.203
81905W        W54973   5.245  24.630  11.001
81906W        W54974  33.970   4.850   0.921
81907W        W54975  38.307  13.809  14.782
81908W        W54976  10.634   0.001   1.849
81909W        W54977   2.294   0.288   3.742
81910W        W54978  10.946  20.054   4.926
81911W        W54979  36.611  30.776   0.283
81912W        W54980   7.868  39.510  10.757
81913W        W54981   3.992  36.564   0.058
81914W        W54982   9.895  37.300   0.390
81915W        W54983  25.927  27.993  13.807
81916W        W54984  24.184   8.374   4.087
81917W        W54985  32.005  37.033   3.392
81918W        W54986  15.052  17.685   4.122
81919W        W54987  14.956   3.465  13.270
81920W        W54988  38.121   9.148  11.604
81921W        W54989  22.496   1.476  10.447
81922W        W54990  29.698  28.667  13.038
81923W        W54991  16.901  28.342   1.020
81924W        W54992  13.308  31.684  11.093
81925W        W54993  13.354  10.584   3.612
81926W        W54994   2.531  39.272   1.821
81927W        W54995  36.401   4.328  10.428
81928W        W54996  16.648  24.733   0.965
81929W        W54997  16.644   6.234   2.858
81930W        W54998  24.229  22.460  12.916
81931W        W54999   5.129  18.080  10.443
81932W        W55000  41.845  24.741  14.379
81933W        W55001   1.987  32.620  14.491
81934W        W55002  43.335  11.550   3.272
81935W        W55003   1.488  40.800  14.924
81936W        W55004   3.188  33.231   2.794
81937W        W55005   9.106   0.744  14.310
81938W        W55006  13.710  21.211  10.642
81939W        W55007  15.721  42.735  13.921
81940W        W55008   1.414  33.123  13.751
81941W        W55009  42.919   0.803  13.484
81942W        W55010   7.393  23.010   3.923
81943W        W55011  24.002  28.482  14.899
81944W        W55012  28.445  29.894   1.229
81945W        W55013  29.643   2.180   0.876
81946W        W55014   6.448  25.052  14.994
81947W        W55015  25.561  37.979   5.147
81948W        W55016   8.130   2.656  13.079
81949W        W55017  26.022  21.280   0.873
81950W        W55018  20.292   1.219   2.910
81951W        W55019   8.339  26.314  12.991
81952W        W55020  20.617   4.860  12.894
81953W        W55021  40.873  16.421  12.326
81954W        W55022  30.021  21.339  11.987
81955W        W55023  10.322  38.336  14.321
81956W        W55024  15.415  11.784  14.848
81957W        W55025  31.715  13.342  12.478
81958W        W55026  11.661   5.095   2.673
81959W        W55027  18.830   2.059   1.449
81960W        W55028   8.953  19.237   3.404
81961W        W55029  16.150  19.664   0.474
81962W        W55030  25.598  10.884  12.002
81963W        W55031  29.925   7.721   1.944
81964W        W55032   2.297  44.903   2.569
81965W        W55033  39.104  41.284  11.502
81966W        W55034   0.852   7.646   4.068
81967W        W55035   1.289   0.373  14.478
81968W        W55036  23.519  34.776  12.889
81969W        W55037  20.108  16.754  12.852
81970W        W55038   0.257  22.493  14.460
81971W        W55039  27.568   4.325  14.027
81972W        W55040   8.871  29.635  12.604
81973W        W55041  33.596  20.541   1.826
81974W        W55042  21.205  29.271   2.850
81975W        W55043  12.600  11.829   1.830
81976W        W55044  18.806   0.317  14.418
81977W        W55045  39.764  44.433   4.595
81978W        W55046   6.331  39.613  11.865
81979W        W55047  15.817   6.990   1.753
81980W        W55048  24.536   1.629   3.083
81981W        W55049  27.354   4.397  11.636
81982W        W55050  26.232   2.176   2.374
81983W        W55051  26.508  19.681  12.124
81984W        W55052  20.774  36.077   4.366
81985W        W55053   9.606   5.109  13.841
81986W        W55054  29.855  31.113   4.932
81987W        W55055  30.005   8.165   4.072
81988W        W55056  13.216  26.737  14.497
81989W        W55057  29.398   6.281  14.469
81990W        W55058  32.625  34.520  13.784
81991W        W55059  26.931   7.103   1.814
81992W        W55060  38.274  15.583  12.475
81993W        W55061  42.706   5.881  12.373
81994W        W55062   2.044   8.424  11.893
81995W        W55063   1.372  32.159   3.998
81996W        W55064  12.662  34.939   3.322
81997W        W55065  31.035  18.609  14.069
81998W        W55066  10.090   2.319  11.144
81999W        W55067   8.926  28.081   2.862
82000W        W55068  33.437  23.671   3.041
82001W        W55069  41.640  12.212   4.049
82002W        W55070   8.081  27.893  12.497
82003W        W55071  25.227   5.148  11.611
82004W        W55072  29.925  25.598   2.317
82005W        W55073  27.225   6.820  11.269
82006W        W55074  30.997  39.817  10.417
82007W        W55075   5.991  17.794   0.425
82008W        W55076  31.030  17.154  10.545
82009W        W55077   0.058   2.880   3.851
82010W        W55078  18.219  41.501  14.060
82011W        W55079  11.462   5.761  14.358
82012W        W55080  18.117  17.219  13.315
82013W        W55081  35.103  10.617  13.749
82014W        W55082  18.220  33.994  11.380
82015W        W55083   6.689   5.691  11.665
82016W        W55084  40.414  15.039   0.852
82017W        W55085  36.240  25.163   5.015
82018W        W55086  18.879  20.266   3.174
82019W        W55087  39.929  10.427  12.466
82020W        W55088  10.712  10.537   0.794
82021W        W55089  42.514  21.670  10.566
82022W        W55090  36.993  34.044   3.700
82023W        W55091  14.276  35.872   1.712
82024W        W55092  15.753  19.881  12.587
82025W        W55093  39.780  10.784   0.287
82026W        W55094   7.693  12.827   3.350
82027W        W55095  25.136  33.324   0.606
82028W        W55096   3.590  36.390   0.529
82029W        W55097  27.113   3.765  10.639
82030W        W55098   7.458   5.370  12.079
82031W        W55099   1.450  24.186   2.207
82032W        W55100   8.101   4.187  11.671
82033W        W55101  15.383  36.433  14.510
82034W        W55102  27.569  26.695  11.909
82035W        W55103  10.176  37.336  10.566
82036W        W55104  35.081   5.338   0.426
82037W        W55105   5.669  43.296   4.506
82038W        W55106  39.941  26.749  12.451
82039W        W55107  29.363  31.515  13.794
82040W        W55108   0.377  10.401   1.760
82041W        W55109  16.734  33.208  13.106
82042W        W55110  21.535  35.590  14.081
82043W        W55111  38.740  16.108  10.943
82044W        W55112  29.032   7.845  11.560
82045W        W55113  25.649  23.978   0.880
82046W        W55114  30.915  19.769  12.405
82047W        W55115  44.163  33.887  14.974
82048W        W55116  17.583  34.916  12.407
82049W        W55117  12.780   1.918   4.693
82050W        W55118  12.842   0.981   0.822
82051W        W55119   7.537  40.356   0.233
82052W        W55120   0.827  30.119  14.081
82053W        W55121  25.521  13.767  13.655
82054W        W55122  29.615  17.662   0.850
82055W        W55123  26.421  43.078  14.967
82056W        W55124  39.941   3.567   4.642
82057W        W55125   3.827  42.897   5.150
82058W        W55126  23.622  35.141   1.781
82059W        W55127  35.379  10.334  13.409
82060W        W55128  28.464  11.974   9.957
82061W        W55129   2.204  16.869  10.684
82062W        W55130  30.457  17.302   1.191
82063W        W55131  10.195  34.616   3.265
82064W        W55132   2.271  44.410   3.368
82065W        W55133  31.688   4.783   0.920
82066W        W55134   0.101   8.113  12.785
82067W        W55135   7.200  20.488   3.347
82068W        W55136   5.926  18.236   4.121
82069W        W55137   5.888  42.874  12.046
82070W        W55138   2.870  11.212  13.357
82071W        W55139  24.983  28.074   3.639
82072W        W55140   0.929   2.775  14.822
82073W        W55141  18.583   4.357  10.873
82074W        W55142   9.151   2.304  10.787
82075W        W55143   2.628   2.660   4.688
82076W        W55144   6.143   1.034   4.971
82077W        W55145  30.636  27.287  11.171
82078W        W55146  22.121  30.576  14.951
82079W        W55147  22.082  28.786   1.899
82080W        W55148  10.151  17.654   4.169
82081W        W55149   9.332  18.709   2.234
82082W        W55150  22.093  25.045   0.913
82083W        W55151  15.115   7.449   2.746
82084W        W55152  37.566  14.310   0.721
82085W        W55153  38.026  44.227  12.102
82086W        W55154  38.730  41.849   2.380
82087W        W55155  23.536  26.549  12.000
82088W        W55156   9.445  13.640  12.912
82089W        W55157  37.321  34.377   0.850
82090W        W55158   7.757  36.233   2.864
82091W        W55159  11.188  22.524   1.494
82092W        W55160  29.233  17.791   2.152
82093W        W55161  43.961  10.163   4.208
82094W        W55162   4.801  37.420   4.038
82095W        W55163  21.790  15.623  14.748
82096W        W55164  18.194  17.712  13.371
82097W        W55165  25.345  12.047   3.874
82098W        W55166   6.508   2.870  12.470
82099W        W55167  22.508  23.026  11.560
82100W        W55168  37.346  33.459   0.806
82101W        W55169  40.520  43.435  11.160
82102W        W55170  31.881  37.509   4.249
82103W        W55171   4.343  30.730  13.041
82104W        W55172   4.413  19.568  14.862
82105W        W55173  31.705  18.622  12.880
82106W        W55174  21.299  34.848   1.678
82107W        W55175  15.462  30.860  11.081
82108W        W55176  30.457  22.616  12.473
82109W        W55177   8.959  39.690   5.516
82110W        W55178  31.182   3.955   2.228
82111W        W55179   6.227  25.440  10.871
82112W        W55180   6.823  44.225   1.804
82113W        W55181  44.730  28.343   3.720
82114W        W55182   9.632   5.878  11.357
82115W        W55183  37.068  23.755   2.003
82116W        W55184  10.147  22.573   3.215
82117W        W55185  36.461   2.815   4.854
82118W        W55186  25.706  41.884  11.327
82119W        W55187  40.804  15.720  10.582
82120W        W55188  39.817  36.400   2.313
82121W        W55189   2.268  31.747  14.382
82122W        W55190   9.448  44.993  12.951
82123W        W55191  25.077   9.534   3.216
82124W        W55192   1.358  43.927   2.624
82125W        W55193   0.966  24.983  13.305
82126W        W55194   4.161  27.617   0.922
82127W        W55195  35.600   1.233   4.900
82128W        W55196  38.330  41.959  13.872
82129W        W55197  40.031  11.868   1.473
82130W        W55198  41.179  25.299   0.458
82131W        W55199  36.412  27.035  10.562
82132W        W55200  11.348  15.306   1.262
82133W        W55201  16.974  30.675   4.056
82134W        W55202  19.818  27.514  13.323
82135W        W55203  37.540  34.728   5.103
82136W        W55204  27.567  10.727   2.463
82137W        W55205  44.844  43.977   1.859
82138W        W55206  31.583   2.647  11.680
82139W        W55207   7.164   1.280  13.437
82140W        W55208  11.281  30.443   3.363
82141W        W55209  20.776  11.086   2.088
82142W        W55210  29.167  41.417  12.286
82143W        W55211   6.396   4.470  11.481
82144W        W55212  21.181   8.471  14.894
82145W        W55213  14.881   1.211  11.633
82146W        W55214   4.488  36.128  12.819
82147W        W55215  19.981  31.555  12.845
82148W        W55216   0.886  16.367   3.359
82149W        W55217  22.352   2.848  14.385
82150W        W55218  20.047  24.570   2.354
82151W        W55219  15.170  15.838  13.423
82152W        W55220  40.560  37.295  13.461
82153W        W55221  17.366  11.984   2.671
82154W        W55222   8.221  28.279   4.991
82155W        W55223   2.138   0.789   0.156
82156W        W55224   1.717  34.998   4.190
82157W        W55225  28.531  30.036  13.788
82158W        W55226  22.409  30.392   1.412
82159W        W55227  14.867   0.204  12.104
82160W        W55228  41.705  16.882   3.729
82161W        W55229  32.302   2.552  11.100
82162W        W55230  10.807  27.961  10.733
82163W        W55231   2.268  15.083   4.624
82164W        W55232  43.283  32.385  10.413
82165W        W55233   5.321  26.743  11.953
82166W        W55234  44.285   1.985  12.787
82167W        W55235  42.473  23.756  12.631
82168W        W55236  32.042  33.861  14.152
82169W        W55237  27.570  21.616  14.329
82170W        W55238   4.958  17.013  11.214
82171W        W55239  24.058  18.137   4.515
82172W        W55240  30.981  29.533   0.992
82173W        W55241  26.064   7.941  13.870
82174W        W55242   0.997  12.677  13.587
82175W        W55243  43.101  36.996   4.570
82176W        W55244  39.092   1.995   3.112
82177W        W55245  29.479  13.758   4.233
82178W        W55246  32.208  29.612  10.315
82179W        W55247  25.477   9.804   2.648
82180W        W55248  37.862  18.916   2.899
82181W        W55249   9.669  42.308  11.096
82182W        W55250  11.993  29.169  10.806
82183W        W55251  44.871   7.687   3.087
82184W        W55252  13.330  26.074  14.502
82185W        W55253   8.411  18.603   1.723
82186W        W55254  19.476   3.421   4.781
82187W        W55255  27.190  40.882   3.217
82188W        W55256  40.457  36.400  13.889
82189W        W55257   3.917  23.035   3.846
82190W        W55258   0.502  32.226  11.895
82191W        W55259  21.630  26.984  14.588
82192W        W55260   1.517  26.110   1.949
82193W        W55261  22.066  33.365  11.596
82194W        W55262  40.501  17.542   4.130
82195W        W55263  44.971  25.630   1.252
82196W        W55264  40.303  41.843  11.166
82197W        W55265  20.265  41.327   5.052
82198W        W55266  39.838  24.718  13.126
82199W        W55267   8.369  27.521  14.055
82200W        W55268  19.205  11.104   2.985
82201W        W55269   9.922  20.957   1.340
82202W        W55270  26.594   6.662  12.035
82203W        W55271  26.151  11.590   1.753
82204W        W55272   6.188  36.338   2.618
82205W        W55273  11.884  23.359   3.621
82206W        W55274  14.623  33.963  14.959
82207W        W55275  22.756  22.974   2.345
82208W        W55276  33.278  13.193   1.292
82209W        W55277   8.211  31.324  10.990
82210W        W55278  35.088  13.231  12.609
82211W        W55279  18.474   0.364   1.297
82212W        W55280  38.522  25.008   2.241
82213W        W55281  20.790  34.740   0.893
82214W        W55282  40.509   8.723   1.830
82215W        W55283  21.028  38.840  13.452
82216W        W55284   6.200  31.997  12.433
82217W        W55285  40.967  44.191  13.819
82218W        W55286  37.009  38.958   3.205
82219W        W55287  15.525  25.569   1.108
82220W        W55288  18.176  16.200  14.514
82221W        W55289  11.614  30.927   2.707
82222W        W55290  30.755  32.065   0.319
82223W        W55291  42.072  23.670  13.530
82224W        W55292  31.420  18.855   2.498
82225W        W55293  21.640   5.455  10.672
82226W        W55294   9.526   6.217   5.106
82227W        W55295  43.056   3.424  10.806
82228W        W55296  19.837   0.571   5.093
82229W        W55297  38.842   6.022  11.406
82230W        W55298  15.179  31.723   0.428
82231W        W55299  25.635  41.232  10.072
82232W        W55300  42.802  24.705   5.012
82233W        W55301  27.242   5.339  13.048
82234W        W55302  40.097   6.273   1.764
82235W        W55303  41.738  12.302   4.577
82236W        W55304  41.209  38.092   4.105
82237W        W55305  32.390  18.327  11.117
82238W        W55306   4.370  37.495   2.766
82239W        W55307  38.163   5.427   2.543
82240W        W55308  37.615  15.697  13.408
82241W        W55309  16.418   4.912   3.072
82242W        W55310   5.251  13.112   2.657
82243W        W55311  21.638  42.474   1.325
82244W        W55312  12.575  28.172   3.784
82245W        W55313  38.610   1.855   1.850
82246W        W55314   8.231   9.151   4.350
82247W        W55315  18.215  24.570  10.688
82248W        W55316   0.770  41.026   0.256
82249W        W55317  42.568  21.033  14.719
82250W        W55318  32.838  29.986  12.361
82251W        W55319  32.629  33.579  12.609
82252W        W55320  12.927  26.728   3.798
82253W        W55321  32.066  29.933  11.303
82254W        W55322  18.595  19.782  10.807
82255W        W55323  28.299  23.637   1.453
82256W        W55324  17.169  41.868  13.997
82257W        W55325  28.649  38.318   1.612
82258W        W55326   9.883  23.936   0.114
82259W        W55327  25.707  41.599   4.213
82260W        W55328   0.968  16.599   0.798
82261W        W55329  22.500  21.130  13.309
82262W        W55330  23.431   0.339   1.884
82263W        W55331  40.825   1.456  13.294
82264W        W55332  30.445  18.041  13.952
82265W        W55333  26.945  40.126  10.366
82266W        W55334  40.298  23.238   3.075
82267W        W55335   8.313  27.250   3.794
82268W        W55336  30.683  20.316   4.688
82269W        W55337  14.095  43.535  13.651
82270W        W55338   7.718  22.953   1.801
82271W        W55339  33.019  38.247   3.578
82272W        W55340   9.639  22.158  14.457
82273W        W55341  14.176  39.900  11.696
82274W        W55342  31.202   9.366   2.661
82275W        W55343  42.442  41.854   4.943
82276W        W55344  23.760   3.876  12.088
82277W        W55345  43.133   3.452  12.593
82278W        W55346  32.611  36.536  10.759
82279W        W55347  19.529  23.511   2.784
82280W        W55348  21.202   4.476  11.567
82281W        W55349  30.403  33.929  11.551
82282W        W55350  41.572  43.535  14.401
82283W        W55351  42.361  20.517   2.558
82284W        W55352  17.053  11.605  10.926
82285W        W55353  31.381   8.936   4.102
82286W        W55354   4.858  11.666  11.682
82287W        W55355  25.491   6.844   0.315
82288W        W55356  10.727  38.854  10.195
82289W        W55357   1.510  18.366  14.842
82290W        W55358  12.021  17.306   9.900
82291W        W55359  34.649   4.254   4.487
82292W        W55360  36.118  10.965  11.424
82293W        W55361  32.555  26.845   3.328
82294W        W55362  32.364  10.444   2.647
82295W        W55363  11.623   7.405   0.817
82296W        W55364  25.614  44.825   2.124
82297W        W55365  11.624  16.841   1.892
82298W        W55366  22.662  27.388  14.538
82299W        W55367  12.165  38.000   1.896
82300W        W55368  29.687  27.163   3.826
82301W        W55369  44.410  14.200   1.016
82302W        W55370   0.836  32.912   1.423
82303W        W55371  21.086  38.810  11.518
82304W        W55372  30.590  43.355  14.743
82305W        W55373  29.146  41.035  13.591
82306W        W55374  35.628  21.159   2.520
82307W        W55375  17.625   3.527   3.225
82308W        W55376  24.621  17.434  10.468
82309W        W55377  37.787  19.582  13.115
82310W        W55378  13.338  40.985   0.873
82311W        W55379  33.443  14.527   2.385
82312W        W55380  32.164  33.580  10.676
82313W        W55381  35.653  17.333  14.384
82314W        W55382  13.268  38.985  10.467
82315W        W55383  43.312  11.218  11.109
82316W        W55384  35.506  44.825   2.691
82317W        W55385   7.225  26.399   1.132
82318W        W55386  36.070  32.533   0.399
82319W        W55387  16.180   3.928  14.718
82320W        W55388  33.932   7.741   2.171
82321W        W55389   7.579  25.348  11.161
82322W        W55390  31.208  22.732   0.492
82323W        W55391  20.167  26.919   4.190
82324W        W55392  34.786  24.445   4.756
82325W        W55393  31.426  37.049   0.729
82326W        W55394  10.805  25.517  11.139
82327W        W55395   8.837   1.496   2.803
82328W        W55396   4.244  44.365   3.611
82329W        W55397   0.719  41.459  13.371
82330W        W55398  17.752  17.554  10.618
82331W        W55399  43.708  42.051  12.815
82332W        W55400  30.350  43.814   3.517
82333W        W55401   0.520  20.133   1.857
82334W        W55402  32.129  25.469   1.607
82335W        W55403  12.704  23.105  11.673
82336W        W55404  31.436  29.143  12.877
82337W        W55405  37.836   3.447   1.363
82338W        W55406  13.734  30.789   1.821
82339W        W55407  36.503  31.599   1.975
82340W        W55408  33.054  15.847  11.861
82341W        W55409  14.373  32.689  14.004
82342W        W55410  27.220   5.773  11.053
82343W        W55411   8.341  21.332   1.435
82344W        W55412  43.103  29.705  14.411
82345W        W55413  32.848  36.826   2.384
82346W        W55414  33.839   2.355   1.330
82347W        W55415   6.630  30.431  13.377
82348W        W55416  34.392   2.475  11.599
82349W        W55417  31.934   8.329   0.447
82350W        W55418  36.892  28.694  11.059
82351W        W55419  42.834   4.729   4.919
82352W        W55420  39.432  42.038  11.934
82353W        W55421  19.812  36.613   0.321
82354W        W55422   2.631  27.929   2.234
82355W        W55423  11.126  27.215  11.222
82356W        W55424  42.187  14.534   4.094
82357W        W55425  16.714  13.901   4.043
82358W        W55426   3.764  12.398   4.420
82359W        W55427  10.133  11.647  13.866
82360W        W55428  27.483   1.231   1.383
82361W        W55429  32.978  44.357   3.607
82362W        W55430  29.629  42.272   2.171
82363W        W55431   0.319   2.666  11.615
82364W        W55432  12.638   1.033   3.720
82365W        W55433   3.008  23.099   0.948
82366W        W55434   9.787   8.949  12.067
82367W        W55435  28.139  24.809  10.788
82368W        W55436  18.152  10.419   4.664
82369W        W55437   7.509  36.845   0.350
82370W        W55438  36.211  19.665  11.219
82371W        W55439  29.674  42.420   1.687
82372W        W55440  14.223   7.667  12.355
82373W        W55441  32.614  25.811  11.137
82374W        W55442  44.062   8.075  12.867
82375W        W55443  39.062  25.014  11.620
82376W        W55444   8.664   4.442  11.081
82377W        W55445  30.497  23.958   4.300
82378W        W55446  19.216   6.180  13.855
82379W        W55447  26.001  15.643  11.050
82380W        W55448  33.832   6.368  11.567
82381W        W55449   7.705  41.552   0.935
82382W        W55450  20.835   5.744  14.294
82383W        W55451  28.234  40.098  12.124
82384W        W55452  34.609  10.173  14.328
82385W        W55453  12.615  32.585  12.901
82386W        W55454   4.798  22.612   3.709
82387W        W55455  25.781  29.077   2.336
82388W        W55456  31.330  26.836  10.008
82389W        W55457  43.123  24.999  14.745
82390W        W55458   8.769   9.349   3.224
82391W        W55459  39.355   7.530   2.472
82392W        W55460   2.032   4.128   0.871
82393W        W55461  27.668  44.438   2.215
82394W        W55462   0.177  22.223  14.879
82395W        W55463  20.809  22.098  12.582
82396W        W55464  31.032  23.508  11.262
82397W        W55465  21.682  21.502  13.937
82398W        W55466  30.837  42.094   4.164
82399W        W55467   4.360  28.721  13.075
82400W        W55468  36.537  37.099   4.909
82401W        W55469  43.573  31.135   1.765
82402W        W55470  23.887   6.296  14.948
82403W        W55471  42.759  18.285   1.401
82404W        W55472   0.469   1.934  10.921
82405W        W55473  29.190   5.242   4.586
82406W        W55474  17.891  30.614   3.834
82407W        W55475  11.764  43.585  12.775
82408W        W55476   7.656  38.750   3.649
82409W        W55477  16.619  40.240  13.411
82410W        W55478  12.824  29.994  13.879
82411W        W55479   8.312  31.278  12.383
82412W        W55480  16.796  38.048  14.071
82413W        W55481  33.463  15.724   0.917
82414W        W55482   1.289  43.014   2.324
82415W        W55483  11.132  30.546  10.683
82416W        W55484  41.617   0.572  10.210
82417W        W55485  32.411  40.513   0.942
82418W        W55486  42.400  10.345  12.809
82419W        W55487  33.366  17.800   1.723
82420W        W55488  11.824  43.725  13.371
82421W        W55489  26.957  22.254  12.902
82422W        W55490   0.424  35.042  13.861
82423W        W55491  11.639  29.161  12.844
82424W        W55492  37.350   5.141   2.185
82425W        W55493  36.150   7.411   3.153
82426W        W55494  39.995  34.667   1.721
82427W        W55495   8.400   4.349  13.526
82428W        W55496  19.487  33.690   2.050
82429W        W55497  25.736  12.093  14.223
82430W        W55498  24.823  21.129  10.371
82431W        W55499  21.996  22.729  14.371
82432W        W55500   9.754  12.733  14.417
82433W        W55501  16.284  31.735   3.807
82434W        W55502  16.914  16.518  10.513
82435W        W55503  20.892   7.338  11.033
82436W        W55504   5.919  13.335  13.030
82437W        W55505  14.299  16.655  10.783
82438W        W55506  11.947  11.056  12.602
82439W        W55507   4.485  32.143  14.326
82440W        W55508  11.723  43.486  13.806
82441W        W55509  14.354   5.874   3.847
82442W        W55510  21.033  24.501  11.827
82443W        W55511   9.112  17.216  14.801
82444W        W55512   3.460  28.004   0.606
82445W        W55513  10.156   4.872  13.717
82446W        W55514  44.538   1.941   2.846
82447W        W55515  10.925  40.972  13.242
82448W        W55516  31.509  26.180   0.057
82449W        W55517  40.380  11.116  12.989
82450W        W55518  12.352  29.479  12.436
82451W        W55519  17.220   1.508  11.163
82452W        W55520  33.852  18.796  14.324
82453W        W55521  20.683  12.670  11.943
82454W        W55522  40.425   0.880   3.545
82455W        W55523  42.230  17.337  13.914
82456W        W55524  22.229  41.889  10.983
82457W        W55525   1.662  11.257  11.168
82458W        W55526  15.773   1.209   3.749
82459W        W55527   8.284  15.895   3.308
82460W        W55528   1.710  10.720   4.256
82461W        W55529  28.448  14.266   4.653
82462W        W55530   8.072   3.386   4.568
82463W        W55531  28.821  31.552   3.352
82464W        W55532  40.877  33.437   2.740
82465W        W55533  28.452  36.061   3.616
82466W        W55534  33.013  25.014   3.066
82467W        W55535   5.417  37.013   4.699
82468W        W55536  17.198  25.731   1.360
82469W        W55537  35.581  37.489  14.950
82470W        W55538   9.630  28.889  12.548
82471W        W55539  31.432   9.789   3.332
82472W        W55540   1.428  23.544  12.922
82473W        W55541   1.001  37.668   1.998
82474W        W55542   8.272  29.931  11.956
82475W        W55543  36.999  40.227  13.565
82476W        W55544  31.470  27.272   1.805
82477W        W55545  18.303  15.712  14.435
82478W        W55546  21.582   1.219  11.413
82479W        W55547  30.644  40.392   3.718
82480W        W55548  40.050   9.518  11.508
82481W        W55549  10.671  44.751   1.391
82482W        W55550   6.826   6.337  13.348
82483W        W55551  10.745  24.186  11.491
82484W        W55552  35.029  31.982  11.499
82485W        W55553  18.858  14.803  11.202
82486W        W55554  12.726  43.065   2.381
82487W        W55555  39.935  15.167   3.148
82488W        W55556  24.071  24.024  12.938
82489W        W55557  19.700   4.922   4.585
82490W        W55558   7.081  18.107  12.970
82491W        W55559  22.058  24.114   4.257
82492W        W55560  34.077  19.958  13.724
82493W        W55561  26.877  25.773  12.544
82494W        W55562   9.155  12.642  12.908
82495W        W55563  22.642  36.027   2.222
82496W        W55564  21.118  39.816   0.622
82497W        W55565  13.702  22.809   0.259
82498W        W55566  22.352  17.793  11.982
82499W        W55567  25.267  40.349   4.091
82500W        W55568  17.290   2.267   2.369
82501W        W55569   2.044  24.944  14.549
82502W        W55570  21.492  43.921   2.656
82503W        W55571   3.722  41.404   0.704
82504W        W55572  42.516  22.134  13.860
82505W        W55573  16.698  44.977  12.979
82506W        W55574  24.622  25.493   4.867
82507W        W55575   7.394  30.898  14.804
82508W        W55576  25.441  21.619   1.316
82509W        W55577  44.366  38.893   2.298
82510W        W55578  36.017  44.117  10.590
82511W        W55579  20.603  11.494   0.273
82512W        W55580  42.448  32.878   4.827
82513W        W55581  42.115   5.797  14.255
82514W        W55582  26.429  13.709   3.195
82515W        W55583  34.835  27.902   3.371
82516W        W55584   4.404  25.092   2.287
82517W        W55585  38.477  39.268   4.045
82518W        W55586   5.464  17.491  13.990
82519W        W55587  37.461   1.176  11.638
82520W        W55588  37.783   4.732   3.729
82521W        W55589   2.705  21.087  14.202
82522W        W55590  36.508  23.110   2.367
82523W        W55591  10.160  40.934   0.018
82524W        W55592  14.424  18.722  11.216
82525W        W55593  21.318  24.959   2.236
82526W        W55594  38.453  30.403  12.548
82527W        W55595  16.522  30.369   3.867
82528W        W55596   9.219  35.534   3.624
82529W        W55597   5.743  18.257  12.637
82530W        W55598  41.892  42.776   1.788
82531W        W55599   6.490  40.484  11.966
82532W        W55600  15.786  28.996   1.537
82533W        W55601  40.829  36.291   3.864
82534W        W55602  32.536  39.081  11.775
82535W        W55603  15.285  31.246   0.704
82536W        W55604  39.584  43.398  11.591
82537W        W55605  24.237  23.628  14.278
82538W        W55606  21.232  13.819  11.641
82539W        W55607  35.746  42.285  13.670
82540W        W55608  34.139  38.752   3.696
82541W        W55609  20.957  15.511  14.535
82542W        W55610  36.912  29.885  13.478
82543W        W55611   1.508  28.700  14.456
82544W        W55612   2.303  10.581  10.420
82545W        W55613  12.319  37.421   1.261
82546W        W55614  27.346   3.218   4.251
82547W        W55615  14.746  31.658  13.969
82548W        W55616   4.202   2.256   0.964
82549W        W55617  20.764  42.517   0.833
82550W        W55618  16.366  34.042   4.336
82551W        W55619  22.104  16.188   3.600
82552W        W55620  20.815  10.896   1.599
82553W        W55621  11.556   8.563   3.364
82554W        W55622  35.518  34.748   1.400
82555W        W55623  17.420  30.546   3.622
82556W        W55624   1.949  29.791   4.913
82557W        W55625  11.980  32.322  10.150
82558W        W55626   4.889   5.152   1.928
82559W        W55627  24.699   0.449  14.838
82560W        W55628  37.138  14.016   3.797
82561W        W55629  35.301  11.220   1.289
82562W        W55630  19.438  18.072  11.057
82563W        W55631  22.995   4.797  13.393
82564W        W55632  21.093  15.161  14.180
82565W        W55633  15.474  19.277   0.807
82566W        W55634   0.568  29.471  13.471
82567W        W55635  35.066   2.412  10.761
82568W        W55636  34.738  26.954  14.981
82569W        W55637   8.877   7.228   2.801
82570W        W55638  19.254  18.287  11.771
82571W        W55639  41.102  20.937  10.342
82572W        W55640  22.144  23.172   1.216
82573W        W55641  41.221  31.811   0.088
82574W        W55642  29.424  23.030   3.077
82575W        W55643  22.677  35.442  11.013
82576W        W55644   5.299   2.748  14.893
82577W        W55645  21.555  16.204   2.140
82578W        W55646  16.943  21.104   2.281
82579W        W55647  24.548   8.087  14.471
82580W        W55648  29.027   1.725  10.613
82581W        W55649  39.517  31.225  11.659
82582W        W55650  29.648   0.333   3.541
82583W        W55651  38.008  17.070   3.472
82584W        W55652  42.819  27.446   3.327
82585W        W55653  33.471  40.081  10.916
82586W        W55654  19.330  26.232   3.330
82587W        W55655   8.869  25.420   2.802
82588W        W55656  19.129  42.398  14.312
82589W        W55657  43.599   8.259   3.161
82590W        W55658  37.158  10.791  13.104
82591W        W55659   6.300  39.336   3.873
82592W        W55660  36.036   0.877   4.633
82593W        W55661  34.080  21.717  14.981
82594W        W55662  26.977  37.677   2.880
82595W        W55663  16.603   2.773   4.383
82596W        W55664  12.301   4.872   3.285
82597W        W55665   1.347  22.074  11.709
82598W        W55666  26.586  38.266   2.223
82599W        W55667  31.027  15.211   2.732
82600W        W55668   7.133  11.631  14.003
82601W        W55669  11.653   0.892   0.752
82602W        W55670  12.955  38.824  13.881
82603W        W55671  23.097   8.991   3.228
82604W        W55672  44.769  20.230  12.079
82605W        W55673  28.138  12.210   5.004
82606W        W55674  13.306  33.249  13.292
82607W        W55675   2.853  30.802  14.738
82608W        W55676   4.313   8.364  12.446
82609W        W55677  37.919  34.357  12.877
82610W        W55678  20.276  30.566  14.917
82611W        W55679  23.948  30.728   0.234
82612W        W55680   2.219  42.296   0.848
82613W        W55681  12.185   0.944  12.989
82614W        W55682   2.099  28.901   4.136
82615W        W55683  34.920  12.645  14.982
82616W        W55684   5.751  30.481   1.724
82617W        W55685  33.389  18.150  12.592
82618W        W55686  36.878  40.546  12.581
82619W        W55687   7.367  39.170   1.681
82620W        W55688  11.228  14.924  11.443
82621W        W55689  31.904  27.818   5.380
82622W        W55690   8.205  41.394  13.563
82623W        W55691  34.509   1.498  10.655
82624W        W55692   3.222  29.395  10.015
82625W        W55693  16.803  20.981   0.250
82626W        W55694  26.937  37.779  13.863
82627W        W55695  40.054   6.505  12.912
82628W        W55696  10.167  18.252   5.013
82629W        W55697  16.883  40.558  12.130
82630W        W55698  44.117  29.720  11.241
82631W        W55699   3.965  41.650   0.301
82632W        W55700  13.454   0.415  13.338
82633W        W55701  36.164  40.587   3.351
82634W        W55702  34.265  24.335  11.748
82635W        W55703  43.546  31.702  13.052
82636W        W55704   8.226  44.086   3.784
82637W        W55705  10.799  22.154  11.717
82638W        W55706  36.441  30.379  13.375
82639W        W55707  22.449   7.301   1.731
82640W        W55708  40.514  22.576  13.309
82641W        W55709  44.804   7.959   1.368
82642W        W55710   1.868   2.695  12.438
82643W        W55711   7.881   9.156   1.431
82644W        W55712  36.523  32.531  13.841
82645W        W55713  18.234  38.563   2.099
82646W        W55714  43.777  37.564   2.399
82647W        W55715  24.616  43.818  10.671
82648W        W55716  36.813  24.077  11.384
82649W        W55717  10.601  35.648  14.270
82650W        W55718  15.114   9.353   1.761
82651W        W55719   5.325  40.098  12.894
82652W        W55720  26.063  23.776   3.533
82653W        W55721   1.616  31.871   2.931
82654W        W55722  40.027   9.102   0.417
82655W        W55723  36.557  23.235  12.158
82656W        W55724   1.261  22.376   0.893
82657W        W55725  25.985  34.358   3.635
82658W        W55726  42.340   3.914  12.526
82659W        W55727  11.747  19.434   3.155
82660W        W55728  36.343   8.374  13.058
82661W        W55729  36.742  43.401   2.236
82662W        W55730  42.817  12.895   1.930
82663W        W55731   4.019   5.694   0.022
82664W        W55732   2.547  22.549   3.837
82665W        W55733   6.654  24.293   0.481
82666W        W55734  39.372  10.896  14.639
82667W        W55735   8.456  21.341   2.065
82668W        W55736  39.977  31.819  13.939
82669W        W55737   8.388   4.561  12.493
82670W        W55738  36.291  12.535  14.914
82671W        W55739  19.990   4.930   4.148
82672W        W55740  10.958  36.482  13.458
82673W        W55741   7.810  38.339  12.425
82674W        W55742  28.423  25.192   2.523
82675W        W55743  37.644   0.817  13.599
82676W        W55744  38.588   8.653  10.913
82677W        W55745  16.087  31.941   2.265
82678W        W55746  14.688  20.161  14.783
82679W        W55747  31.480  43.218  12.442
82680W        W55748   1.876  35.962  12.373
82681W        W55749  37.837  29.419  13.235
82682W        W55750  43.812  32.974   1.404
82683W        W55751   6.575   4.973  14.812
82684W        W55752  23.973  19.479  13.710
82685W        W55753  42.406  26.455   2.328
82686W        W55754  13.310  21.171  14.871
82687W        W55755  29.387  29.924  12.424
82688W        W55756  12.454  30.773  13.688
82689W        W55757   9.147  35.040  14.502
82690W        W55758  38.012  40.752   0.937
82691W        W55759  26.782   4.559  10.147
82692W        W55760  27.113  42.791   1.350
82693W        W55761  22.156   4.245  14.590
82694W        W55762  38.996  22.066  12.568
82695W        W55763   2.724  23.423  11.730
82696W        W55764   5.207   3.004  14.364
82697W        W55765  39.817  15.756   2.271
82698W        W55766   3.701  37.471   4.764
82699W        W55767   8.196  35.040   4.682
82700W        W55768  30.696  39.038  11.951
82701W        W55769  10.366  34.965   2.799
82702W        W55770   4.925   4.160  11.614
82703W        W55771  19.703   0.748   1.200
82704W        W55772  27.533  32.890   3.397
82705W        W55773  40.805  19.787  11.147
82706W        W55774  11.650  16.709  14.319
82707W        W55775   9.992  43.074  11.821
82708W        W55776  24.228  18.636  11.379
82709W        W55777  11.092  10.216   0.971
82710W        W55778  36.269  38.802   0.387
82711W        W55779  44.397  14.514  13.759
82712W        W55780  22.618  25.553   0.310
82713W        W55781  43.234  35.457   2.150
82714W        W55782  41.849   3.405   3.904
82715W        W55783  16.515  43.424  14.861
82716W        W55784  37.279  13.443   1.898
82717W        W55785  40.108   9.180  14.614
82718W        W55786  20.722  40.564  14.411
82719W        W55787  27.902  14.539  10.428
82720W        W55788  21.233  22.645   3.701
82721W        W55789   3.290  36.822  12.500
82722W        W55790  34.944  38.601   4.092
82723W        W55791   9.120  32.951   2.503
82724W        W55792  16.617  22.712   1.948
82725W        W55793  23.371  44.796  11.022
82726W        W55794   3.506  10.730   1.203
82727W        W55795   4.728  15.027  13.817
82728W        W55796   4.947  10.793  13.502
82729W        W55797  19.143  35.753  14.920
82730W        W55798  22.867  33.610  11.320
82731W        W55799  39.730  36.695   1.787
82732W        W55800  23.078   3.184  11.840
82733W        W55801  15.790   4.639   2.673
82734W        W55802   9.792  25.465   1.965
82735W        W55803  31.151   1.246   2.189
82736W        W55804  44.219  15.333   1.849
82737W        W55805  26.573  12.747   3.083
82738W        W55806  22.591  21.513   4.789
82739W        W55807  14.176  26.589   2.409
82740W        W55808   2.451  17.499  14.380
82741W        W55809  21.520  39.084   0.821
82742W        W55810  22.301  15.555  11.009
82743W        W55811  12.637  14.773  12.867
82744W        W55812  14.139   6.698   1.346
82745W        W55813   5.936  42.513   2.364
82746W        W55814  23.099  44.806   3.886
82747W        W55815  36.558   9.240   0.215
82748W        W55816  11.617  24.082  10.715
82749W        W55817   6.554  31.748   9.857
82750W        W55818  35.538  38.326  12.981
82751W        W55819  13.170  27.227  10.744
82752W        W55820  37.917  25.650  14.961
82753W        W55821  15.240  12.816  13.818
82754W        W55822  13.292  42.916   1.208
82755W        W55823  12.163  38.087   4.240
82756W        W55824  19.395  27.681   0.372
82757W        W55825  16.715  37.589  14.989
82758W        W55826  39.935  24.031  11.537
82759W        W55827  11.344   3.001   3.839
82760W        W55828   1.481   0.900   4.141
82761W        W55829  32.668  28.011   4.442
82762W        W55830  17.584  32.928   0.051
82763W        W55831  24.886  19.599  13.913
82764W        W55832  27.769  16.789  11.859
82765W        W55833  17.160  43.958  14.338
82766W        W55834   3.044   5.688   1.872
82767W        W55835  34.986   7.215  14.380
82768W        W55836  38.090   9.353   3.573
82769W        W55837  24.555  23.598  13.841
82770W        W55838  41.494  27.400  14.927
82771W        W55839  35.071   8.394  12.470
82772W        W55840   3.690  12.820   0.043
82773W        W55841  14.252  26.015  11.475
82774W        W55842  27.192   9.352   4.809
82775W        W55843   5.386   7.035  12.943
82776W        W55844  42.557  16.995   2.370
82777W        W55845  34.078  34.118   0.913
82778W        W55846  23.917   7.660   3.829
82779W        W55847  39.902  31.859  10.476
82780W        W55848   1.918  28.424   4.095
82781W        W55849  33.806  16.728  14.921
82782W        W55850  27.549   4.695   3.326
82783W        W55851  38.793   1.584   3.248
82784W        W55852  31.477  38.308  12.138
82785W        W55853  19.627  13.686  14.977
82786W        W55854  34.120  15.253  14.859
82787W        W55855   2.732  32.215   4.991
82788W        W55856  22.821  43.088   2.852
82789W        W55857  11.060  38.509  12.704
82790W        W55858  12.551  43.357  12.132
82791W        W55859   8.664  33.295  12.085
82792W        W55860  34.333  44.830   3.225
82793W        W55861   3.190  19.707   2.416
82794W        W55862  15.174  15.706   4.500
82795W        W55863  34.526   0.008   2.298
82796W        W55864  18.520  39.361   0.659
82797W        W55865  21.257  27.268  12.879
82798W        W55866  13.893   8.698  10.966
82799W        W55867   5.854  11.636   1.200
82800W        W55868  20.479  39.388  12.538
82801W        W55869  35.116   8.914   3.184
82802W        W55870  18.562  39.852   2.307
82803W        W55871  43.465   7.294  11.002
82804W        W55872  30.847  34.958  14.237
82805W        W55873  36.043  32.324   1.843
82806W        W55874   0.236  41.977  12.432
82807W        W55875   0.983  20.798   0.248
82808W        W55876  10.707  14.607   4.187
82809W        W55877  26.608  27.001  14.711
82810W        W55878  37.512  19.599  10.718
82811W        W55879  18.790  23.170   4.089
82812W        W55880  14.513   3.403  12.013
82813W        W55881  30.195  33.561   0.998
82814W        W55882  43.788  17.500  10.728
82815W        W55883  33.925  44.717   4.069
82816W        W55884  31.634   7.648  11.122
82817W        W55885  38.610   0.990   5.529
82818W        W55886  32.277  35.522   1.929
82819W        W55887  35.728  33.997  13.366
82820W        W55888   0.700  33.063   4.957
82821W        W55889  11.323   0.918   4.151
82822W        W55890   2.449   7.310  10.629
82823W        W55891  19.580  14.702   3.680
82824W        W55892  18.410  29.328  11.187
82825W        W55893  40.377  26.153   1.236
82826W        W55894   0.467  12.656   3.319
82827W        W55895  27.092   0.802   1.919
82828W        W55896  39.522  37.065   3.685
82829W        W55897  35.944   5.186  10.731
82830W        W55898  37.019  17.974  14.897
82831W        W55899  35.828  17.768   1.976
82832W        W55900  39.533  26.673   3.255
82833W        W55901  35.031  31.380  14.389
82834W        W55902   1.827  29.351  11.591
82835W        W55903  23.023  25.132   4.365
82836W        W55904  35.988  11.368   4.103
82837W        W55905   2.209  25.489  11.118
82838W        W55906   0.428  44.617   4.274
82839W        W55907   0.213  43.286   0.674
82840W        W55908   7.673  43.268  13.088
82841W        W55909  32.649  36.304   0.322
82842W        W55910  21.437   5.250  12.001
82843W        W55911  38.548  10.292   4.559
82844W        W55912  38.936  31.564   4.574
82845W        W55913  37.276  33.595  14.298
82846W        W55914  11.221  18.801   2.589
82847W        W55915  19.735  34.165  14.241
82848W        W55916  29.024  20.828  10.694
82849W        W55917  25.785   8.745   3.340
82850W        W55918  43.000  11.367  10.567
82851W        W55919  13.909  43.839  14.027
82852W        W55920   9.466  12.845  13.271
82853W        W55921  25.751   8.206   3.355
82854W        W55922  24.106  37.526   3.866
82855W        W55923  35.385   5.842   4.818
82856W        W55924  12.346  44.423  12.214
82857W        W55925   2.857   4.927  13.263
82858W        W55926   0.336  10.335   0.806
82859W        W55927   0.900  43.185   1.351
82860W        W55928  16.667  12.581   4.220
82861W        W55929  43.120  41.024  12.957
82862W        W55930  25.303   3.890  14.478
82863W        W55931  17.143  17.276  11.525
82864W        W55932  34.140  30.037   2.738
82865W        W55933  36.909  27.523  14.541
82866W        W55934  31.985  43.070  11.229
82867W        W55935   1.297  38.191   4.443
82868W        W55936  37.306   6.072   4.637
82869W        W55937  43.997  14.759   2.106
82870W        W55938  37.878  36.296   1.777
82871W        W55939   3.986  11.443  14.427
82872W        W55940   7.911  30.211  11.087
82873W        W55941  10.572  34.485  11.585
82874W        W55942  34.720  43.216  13.078
82875W        W55943  21.090  29.745   1.814
82876W        W55944  40.741  13.043   1.319
82877W        W55945   1.423  36.434  13.152
82878W        W55946  17.114  32.886  13.352
82879W        W55947  40.081  22.153   2.342
82880W        W55948  38.587  28.567   1.686
82881W        W55949  16.097  22.015   0.772
82882W        W55950  19.387   7.822  12.341
82883W        W55951  42.795  42.742  13.484
82884W        W55952  36.170  44.776  13.308
82885W        W55953   5.123   4.260   0.542
82886W        W55954  31.232  14.596  11.988
82887W        W55955  36.186   9.137  12.444
82888W        W55956  30.904   9.236  14.777
82889W        W55957  38.394  43.007   0.526
82890W        W55958   2.474   1.298   3.354
82891W        W55959  15.831  26.529  14.906
82892W        W55960  20.096   3.427   4.177
82893W        W55961   0.868  33.162  11.661
82894W        W55962   9.701  33.990   0.890
82895W        W55963  26.258  37.750  13.533
82896W        W55964  40.396  35.141  10.761
82897W        W55965  27.389  21.213  12.562
82898W        W55966  10.566  13.653  14.794
82899W        W55967  29.630   7.719   2.937
82900W        W55968  22.560  27.195   4.091
82901W        W55969  17.341  31.090   0.888
82902W        W55970   5.844  12.351   2.706
82903W        W55971   4.728   4.757   3.831
82904W        W55972  13.139  42.671  14.380
82905W        W55973  17.746  21.238   4.151
82906W        W55974  25.761  33.201  11.557
82907W        W55975  29.313   3.241   4.310
82908W        W55976  23.577   1.921   3.067
82909W        W55977  29.683  41.091  14.359
82910W        W55978   7.487  14.308   0.389
82911W        W55979   3.012  40.901  12.486
82912W        W55980  14.064   0.533  14.926
82913W        W55981  28.605  16.278   1.980
82914W        W55982  13.654   4.738   0.789
82915W        W55983  32.503   2.281  11.506
82916W        W55984  20.466  36.019  14.099
82917W        W55985   0.256  44.245  11.611
82918W        W55986  22.552   5.392  10.234
82919W        W55987   5.492  26.443   0.399
82920W        W55988   9.645  36.897   2.821
82921W        W55989  12.280  23.728  11.102
82922W        W55990  16.317   9.188   0.542
82923W        W55991  33.512  22.412  13.840
82924W        W55992   8.554  14.148  10.332
82925W        W55993   9.750  41.053  10.715
82926W        W55994   6.691  32.927   4.727
82927W        W55995   5.680  39.048  12.522
82928W        W55996  34.619  24.561   2.722
82929W        W55997   5.316  37.986  12.969
82930W        W55998  30.252  44.609  13.025
82931W        W55999   5.828  44.756   2.327
82932W        W56000   2.523  42.781   3.561
82933W        W56001  12.823   8.640   4.463
82934W        W56002  26.990  35.510   1.933
82935W        W56003  41.679  17.595  13.919
82936W        W56004  38.989  18.330   3.244
82937W        W56005  25.590  28.821   3.779
82938W        W56006  36.795  15.176   2.744
82939W        W56007  25.671  19.590   1.710
82940W        W56008  21.740  30.122  10.723
82941W        W56009  26.839  24.761  13.007
82942W        W56010  25.702   5.832  13.960
82943W        W56011  15.544  18.791   0.050
82944W        W56012  26.079  36.395  12.456
82945W        W56013  41.348  33.642  10.727
82946W        W56014  11.897  43.004   2.580
82947W        W56015  42.457   9.683  12.834
82948W        W56016   7.334  32.636   1.209
82949W        W56017  16.820   4.497   1.686
82950W        W56018  25.166  18.044  10.142
82951W        W56019   2.014  13.229   0.341
82952W        W56020  14.717  15.769  13.128
82953W        W56021  37.869  33.635   0.022
82954W        W56022  39.517   9.743  14.315
82955W        W56023  28.163   7.932  13.308
82956W        W56024  18.643  19.097  13.115
82957W        W56025  15.735  12.843  12.582
82958W        W56026  15.357   0.978   3.298
82959W        W56027  41.523  41.390   4.773
82960W        W56028  34.696  27.940  13.040
82961W        W56029  41.490  44.218   2.621
82962W        W56030   4.511  21.500  13.357
82963W        W56031  13.859  20.883  11.472
82964W        W56032  12.788  36.949   0.707
82965W        W56033  30.412  28.482   3.376
82966W        W56034  11.292  42.321  13.785
82967W        W56035  17.164  29.253   4.144
82968W        W56036  41.192  43.293  14.132
82969W        W56037  37.313  27.223  13.175
82970W        W56038   2.831  38.293   4.205
82971W        W56039  12.693  32.934  14.527
82972W        W56040  10.894  31.232  14.243
82973W        W56041   6.726  31.628   4.986
82974W        W56042  36.562  10.527   0.218
82975W        W56043  27.067  26.456   2.215
82976W        W56044  28.087   1.878  12.024
82977W        W56045  13.595   3.411   0.336
82978W        W56046  32.165   7.361   1.185
82979W        W56047  38.712  37.629   4.185
82980W        W56048  10.271  13.394   1.483
82981W        W56049  18.544   9.205  12.967
82982W        W56050  30.085  25.292  13.364
82983W        W56051  35.857  33.039  13.563
82984W        W56052  17.268   2.398  12.548
82985W        W56053  22.056  43.997  14.843
82986W        W56054  13.102  36.934   1.164
82987W        W56055  23.607   2.513  12.066
82988W        W56056  35.547  40.945   3.259
82989W        W56057  35.590  26.641   5.177
82990W        W56058  44.233  22.643   0.323
82991W        W56059  23.915  38.343   0.338
82992W        W56060  42.296  44.115   2.864
82993W        W56061  15.030  33.700  14.252
82994W        W56062  30.015   1.875   2.785
82995W        W56063  18.563  19.511   0.405
82996W        W56064  14.091  27.537   1.270
82997W        W56065   2.643  15.138   1.404
82998W        W56066  39.333   9.145  12.015
82999W        W56067   2.946  44.011   4.722
83000W        W56068  23.031  37.572   0.018
83001W        W56069  40.841  13.092  14.948
83002W        W56070  33.887  32.695   2.441
83003W        W56071  32.931  34.423   0.933
83004W        W56072  14.613   3.254   0.363
83005W        W56073  24.549  39.639   2.889
83006W        W56074  13.227  30.438  12.745
83007W        W56075  41.377  13.299   3.204
83008W        W56076  15.685   8.083  13.531
83009W        W56077  31.167  22.313   3.763
83010W        W56078  38.002   1.895   4.476
83011W        W56079  36.072  11.726  14.902
83012W        W56080   0.828  45.000  13.124
83013W        W56081  16.766  15.996  13.284
83014W        W56082   0.706  18.747  13.984
83015W        W56083  12.189  18.567  14.369
83016W        W56084  36.103  31.994   0.517
83017W        W56085   0.581  43.953  12.579
83018W        W56086  28.025  27.609  10.730
83019W        W56087  32.973  15.105   0.386
83020W        W56088  31.077  25.710  12.297
83021W        W56089   8.527   3.743  11.401
83022W        W56090  16.680  41.105   3.344
83023W        W56091  26.582  20.698   2.745
83024W        W56092  23.181  32.649  11.211
83025W        W56093  20.677  24.531   2.930
83026W        W56094  24.562  34.876  10.591
83027W        W56095  22.580  25.431   2.176
83028W        W56096  40.420   7.412  11.087
83029W        W56097   0.324   0.068   0.318
83030W        W56098   8.410  18.539  12.930
83031W        W56099  17.580  43.959  13.432
83032W        W56100   6.879  42.279  12.054
83033W        W56101  35.974  21.664  10.694
83034W        W56102   8.629  26.192   1.349
83035W        W56103  28.849  12.718   0.458
83036W        W56104  19.648   5.025  14.506
83037W        W56105  13.082  33.434   2.385
83038W        W56106  17.863  30.508   1.224
83039W        W56107  22.640  44.923  11.477
83040W        W56108   7.355  12.090   3.640
83041W        W56109  44.934  14.679   4.560
83042W        W56110  36.841  41.411  12.910
83043W        W56111  10.259   5.978   1.798
83044W        W56112  27.044  21.992   2.644
83045W        W56113   3.995  31.012  14.372
83046W        W56114  27.969   2.735   4.806
83047W        W56115   7.327   9.470   0.366
83048W        W56116  34.358  35.078   1.687
83049W        W56117  35.665  26.127   2.669
83050W        W56118  40.817  13.649   0.660
83051W        W56119   4.825   0.992   1.045
83052W        W56120   4.991   1.498   4.542
83053W        W56121  12.762  37.851  11.577
83054W        W56122  27.601  35.365   3.449
83055W        W56123   7.117  40.008  13.939
83056W        W56124  17.593   6.936  13.807
83057W        W56125  18.220  37.972  11.103
83058W        W56126  25.138   8.666   3.377
83059W        W56127  22.404  26.381   3.119
83060W        W56128   0.666  37.665   2.384
83061W        W56129  12.593  21.754  12.138
83062W        W56130  22.825  31.846   1.161
83063W        W56131   8.183   6.331  11.028
83064W        W56132  44.276  40.405  10.689
83065W        W56133  18.104   3.088   3.281
83066W        W56134  33.971  40.434  12.617
83067W        W56135  20.545  34.089  11.979
83068W        W56136  16.722  32.021   2.883
83069W        W56137   9.918  11.187  10.287
83070W        W56138  44.264  20.687   0.174
83071W        W56139  24.103  35.022   1.939
83072W        W56140  32.535  27.129  11.493
83073W        W56141  16.767  43.614  14.448
83074W        W56142   1.347  39.388   0.241
83075W        W56143  23.704  24.564   1.491
83076W        W56144  10.743  39.971   4.871
83077W        W56145  14.568  27.200  10.968
83078W        W56146  28.943  16.382  12.466
83079W        W56147   5.216  33.822  12.784
83080W        W56148  35.046  32.321  12.135
83081W        W56149  41.421  15.961   9.975
83082W        W56150  28.151  20.993   3.321
83083W        W56151  22.844  14.647  14.924
83084W        W56152  33.127  30.432  11.638
83085W        W56153  42.780  15.642  13.440
83086W        W56154  35.027   7.216  10.575
83087W        W56155   4.974  32.851   0.904
83088W        W56156  22.627  21.481   3.251
83089W        W56157  34.070   5.909   3.583
83090W        W56158   0.228   9.899  12.011
83091W        W56159  20.742  43.031   0.687
83092W        W56160  14.703  19.652  13.037
83093W        W56161  33.626  35.001  10.372
83094W        W56162  36.743   6.694   2.384
83095W        W56163  13.671  26.495  14.599
83096W        W56164  18.191   4.908   3.847
83097W        W56165  35.042  44.165  10.615
83098W        W56166  22.596   5.224   1.246
83099W        W56167  37.349  38.850   4.453
83100W        W56168  32.437  23.479  11.599
83101W        W56169  12.178   2.960  13.058
83102W        W56170  19.142   1.215   2.222
83103W        W56171  13.756   8.284  13.987
83104W        W56172  42.901  25.239   3.659
83105W        W56173  24.981  44.277  14.349
83106W        W56174  17.404  20.453  11.500
83107W        W56175  40.907   4.576  11.197
83108W        W56176   6.858  35.284   2.856
83109W        W56177  14.386   3.323  14.467
83110W        W56178  44.102  37.157   2.788
83111W        W56179   4.218  15.117   4.633
83112W        W56180  28.496   2.362  11.981
83113W        W56181  44.811  14.648   2.134
83114W        W56182   8.142   9.392  12.466
83115W        W56183  37.290  39.122  11.527
83116W        W56184  43.311   5.839  10.674
83117W        W56185   6.532  44.501   4.396
83118W        W56186  42.306  32.298  12.792
83119W        W56187  11.793   4.006   3.789
83120W        W56188   4.353  39.041  12.932
83121W        W56189   9.883  10.615   0.489
83122W        W56190  14.365  44.364   1.391
83123W        W56191   9.759  21.740   0.707
83124W        W56192  44.224   0.718   0.851
83125W        W56193  29.585  25.498   1.911
83126W        W56194  15.531  42.967  14.992
83127W        W56195   9.849   7.185  11.350
83128W        W56196  16.317   5.167  14.010
83129W        W56197  23.132  32.636   4.621
83130W        W56198  30.543  34.857  11.094
83131W        W56199   1.821  13.899  11.974
83132W        W56200   4.463  30.263  13.878
83133W        W56201  42.956   7.230  10.269
83134W        W56202  29.317  33.514  11.035
83135W        W56203  18.521  32.370  12.464
83136W        W56204   1.282  33.517   0.538
83137W        W56205  11.571  11.745   3.258
83138W        W56206  17.981  12.164  11.436
83139W        W56207  34.725  32.913  11.050
83140W        W56208  15.497   0.717  10.623
83141W        W56209   4.995  25.387  10.572
83142W        W56210   3.175  30.504  11.135
83143W        W56211  17.188   1.728  10.332
83144W        W56212  11.532  19.156   2.778
83145W        W56213  30.426  42.402   4.040
83146W        W56214   5.623  20.954  12.842
83147W        W56215  26.922   0.540   0.431
83148W        W56216   8.824  10.340  12.428
83149W        W56217   5.417   1.802   1.256
83150W        W56218  27.735  22.796  11.058
83151W        W56219  36.302  34.472  14.329
83152W        W56220  15.515  42.981  14.454
83153W        W56221   9.968  25.222   3.437
83154W        W56222   2.479   3.275  11.954
83155W        W56223  11.168   6.326   3.715
83156W        W56224  11.144  36.137   4.293
83157W        W56225  30.692  31.089  11.226
83158W        W56226  16.477  33.309  14.290
83159W        W56227  15.368  39.960  10.891
83160W        W56228  27.068   7.270  14.201
83161W        W56229  10.270  10.581  11.275
83162W        W56230  15.667  27.288   0.312
83163W        W56231   2.957  10.218  11.633
83164W        W56232  16.098  38.111   3.120
83165W        W56233  13.838  10.327  12.231
83166W        W56234  26.983  36.319  13.856
83167W        W56235  36.986  24.164  13.795
83168W        W56236  16.147  43.833   0.462
83169W        W56237  21.716  38.144  12.394
83170W        W56238  15.886  21.661   4.083
83171W        W56239  25.779  33.117  14.383
83172W        W56240  27.410  21.641  14.852
83173W        W56241   6.681  24.085   3.588
83174W        W56242  12.818  15.584   1.273
83175W        W56243  26.523  42.418  11.069
83176W        W56244  33.660  28.927  11.456
83177W        W56245  38.507  19.999   1.781
83178W        W56246   2.278  30.671  12.893
83179W        W56247  40.958  19.035  13.897
83180W        W56248   2.922  29.576   4.867
83181W        W56249  30.007  16.292   2.200
83182W        W56250  41.753  33.611  12.485
83183W        W56251  16.661  23.929   1.317
83184W        W56252  12.018   9.042   4.114
83185W        W56253  14.317  17.739  11.157
83186W        W56254  19.981  21.836   1.997
83187W        W56255  41.468   3.182   4.187
83188W        W56256  35.150  12.524   2.377
83189W        W56257  11.591  21.222  12.512
83190W        W56258   7.085  21.516  13.847
83191W        W56259  30.552  28.632  12.933
83192W        W56260  25.838  37.396  14.712
83193W        W56261  33.973  21.725  12.918
83194W        W56262   2.331  11.063  10.609
83195W        W56263  19.211  25.834  12.032
83196W        W56264  28.932  35.154  14.361
83197W        W56265   0.249  34.603  13.230
83198W        W56266  40.351  39.226   2.322
83199W        W56267  32.151  31.571   4.634
83200W        W56268   8.294  32.011  12.072
83201W        W56269   6.209   7.791  11.586
83202W        W56270  11.621  15.207  11.713
83203W        W56271  35.037  13.805   4.537
83204W        W56272  35.025  11.243  10.636
83205W        W56273  10.033  30.304   3.426
83206W        W56274  38.990   8.255  12.917
83207W        W56275  34.328  16.146  10.441
83208W        W56276  23.737  38.958   0.350
83209W        W56277  26.696  19.540  13.443
83210W        W56278  11.671   2.040  11.630
83211W        W56279   5.227   4.654   2.208
83212W        W56280  28.051  32.549   0.376
83213W        W56281  26.776  43.572   0.259
83214W        W56282  27.380  13.040  11.613
83215W        W56283  14.789  29.117  12.004
83216W        W56284   0.414  43.708   2.839
83217W        W56285   2.665  44.693  13.384
83218W        W56286  33.572  22.994   3.768
83219W        W56287  26.765  12.203  10.662
83220W        W56288   7.900  30.108   0.015
83221W        W56289   7.350  17.743  14.195
83222W        W56290  40.875  41.975  12.034
83223W        W56291   3.437   2.864   2.626
83224W        W56292  42.846  32.593   2.883
83225W        W56293  21.061  16.598   4.680
83226W        W56294   4.396  13.609  12.541
83227W        W56295   0.851  17.839   0.319
83228W        W56296   1.994  38.806  12.349
83229W        W56297  44.307   9.190  14.966
83230W        W56298  31.845  28.012  10.751
83231W        W56299  12.633  35.038   4.393
83232W        W56300  18.223  27.748  14.022
83233W        W56301  22.261  24.271  11.134
83234W        W56302  15.229  21.322   3.675
83235W        W56303  23.013   0.482   4.669
83236W        W56304   0.234  12.192   0.168
83237W        W56305   4.668  42.993   9.999
83238W        W56306  13.098   1.847  12.514
83239W        W56307   9.043  18.169  12.044
83240W        W56308  17.263  39.169   4.164
83241W        W56309  35.582  36.022   4.620
83242W        W56310  30.437  15.719   3.912
83243W        W56311   5.952  17.680  10.688
83244W        W56312  11.943  23.698   0.949
83245W        W56313  19.528   5.421   4.661
83246W        W56314  20.214   8.862  10.745
83247W        W56315  32.502  32.127   0.855
83248W        W56316  40.473   9.384   0.227
83249W        W56317   1.165  14.729  12.483
83250W        W56318  35.427  36.365   3.392
83251W        W56319  23.968  13.013  12.949
83252W        W56320  11.551  27.588  13.926
83253W        W56321  12.567  13.753  11.877
83254W        W56322   1.532  10.536  11.637
83255W        W56323  11.942  21.449  10.953
83256W        W56324  25.185   1.980  14.734
83257W        W56325  37.103  10.418   2.425
83258W        W56326  18.528  14.615   4.544
83259W        W56327  43.397  31.203   4.571
83260W        W56328  35.828  24.054  14.933
83261W        W56329  34.086  30.600   1.387
83262W        W56330   4.145  30.543   0.890
83263W        W56331  12.216  27.618  11.583
83264W        W56332  15.005  12.354   3.544
83265W        W56333   3.691  17.341  13.886
83266W        W56334  43.449  17.119  11.015
83267W        W56335  13.427  33.592   3.330
83268W        W56336  21.571  13.419   0.946
83269W        W56337  19.585  25.318   2.607
83270W        W56338  28.062  21.338  11.048
83271W        W56339  18.395   7.127   2.332
83272W        W56340  39.549   0.781   1.199
83273W        W56341  21.593   5.490   0.029
83274W        W56342  26.009   1.320  13.353
83275W        W56343  25.967  23.757   4.993
83276W        W56344  28.385  13.412   2.662
83277W        W56345  30.404  30.972  13.533
83278W        W56346   7.863  35.427   0.279
83279W        W56347  12.726  10.537   1.771
83280W        W56348   0.932  31.231  10.503
83281W        W56349  39.429  28.676  11.041
83282W        W56350  42.426   6.021  11.486
83283W        W56351   5.575  10.180  10.988
83284W        W56352  25.703  32.388  11.213
83285W        W56353   9.238  24.985  13.796
83286W        W56354   7.785  37.589  10.219
83287W        W56355   7.098  42.439   4.245
83288W        W56356  25.872   0.364   0.265
83289W        W56357  37.053  34.466  13.958
83290W        W56358  31.067  18.281   1.906
83291W        W56359  25.404  16.632  13.545
83292W        W56360  13.783  13.553  11.625
83293W        W56361  33.608   2.331  13.499
83294W        W56362  11.620  28.795  12.433
83295W        W56363  20.822  11.294  12.498
83296W        W56364  10.081   6.494  13.473
83297W        W56365  40.770  30.968   4.004
83298W        W56366  31.659  13.250   4.577
83299W        W56367   8.554  44.893   1.740
83300W        W56368  34.537  44.413   1.745
83301W        W56369  37.929  44.562  13.481
83302W        W56370   5.379  38.479   0.031
83303W        W56371  26.640   7.345  14.540
83304W        W56372  41.679  29.044   4.220
83305W        W56373  10.215  24.912  14.381
83306W        W56374  33.043  37.727  12.480
83307W        W56375   5.399  34.126   3.787
83308W        W56376  20.637  10.401   3.959
83309W        W56377  30.535  19.138   0.891
83310W        W56378  35.058  22.864  13.914
83311W        W56379   5.838  37.746  10.390
83312W        W56380  23.256  32.914  12.536
83313W        W56381  33.214   0.965   1.620
83314W        W56382   9.793  42.425  13.380
83315W        W56383   2.477   3.877   3.106
83316W        W56384   9.930   7.523  14.337
83317W        W56385  34.234  43.439  13.015
83318W        W56386  21.587   1.893   1.292
83319W        W56387  24.269   1.541  11.436
83320W        W56388   8.946   3.652   3.653
83321W        W56389  11.255   6.978   1.700
83322W        W56390   6.719  39.530  12.190
83323W        W56391  21.086  21.125   4.168
83324W        W56392  12.356  43.861   1.905
83325W        W56393  21.926  25.619  13.817
83326W        W56394  27.443  44.757   2.553
83327W        W56395  40.401   8.750  11.343
83328W        W56396  32.664  42.249   2.806
83329W        W56397  14.811  14.270  13.855
83330W        W56398  14.783   5.324   1.541
83331W        W56399  42.039  26.070  11.286
83332W        W56400  32.986  18.842   0.362
83333W        W56401   1.953  11.656  13.027
83334W        W56402  33.129   7.235  14.501
83335W        W56403  21.142  19.638   3.927
83336W        W56404  25.037  23.544  14.208
83337W        W56405  34.574  22.455   1.756
83338W        W56406  15.722  24.529   1.217
83339W        W56407  42.557  34.740   1.527
83340W        W56408  35.606  32.329   0.408
83341W        W56409  29.366  41.747  11.000
83342W        W56410  43.503  38.507  14.426
83343W        W56411  30.937  15.132  13.134
83344W        W56412  29.589  36.540  12.860
83345W        W56413  25.192  37.808   0.249
83346W        W56414  13.909  12.637  13.863
83347W        W56415  23.165   4.950   4.114
83348W        W56416  22.912  30.504   1.423
83349W        W56417  40.432   9.282  14.225
83350W        W56418   6.389   9.700  10.518
83351W        W56419  37.864   7.446  11.959
83352W        W56420  38.172  41.016   1.897
83353W        W56421   4.013  39.801  10.619
83354W        W56422  34.885  38.092  14.011
83355W        W56423  19.659  32.983  10.736
83356W        W56424  28.221  12.366   3.643
83357W        W56425  42.964  26.622   1.299
83358W        W56426  43.378  10.425  11.555
83359W        W56427  33.493  36.389   4.546
83360W        W56428  43.801  30.840   3.226
83361W        W56429  33.674  34.947  10.876
83362W        W56430  12.414  37.891  11.186
83363W        W56431  30.488   8.393  11.263
83364W        W56432   1.751  25.638   1.849
83365W        W56433  29.029  12.932   4.662
83366W        W56434   5.335  18.277   2.101
83367W        W56435  22.033   4.282  11.900
83368W        W56436  18.516  29.914  11.613
83369W        W56437  29.439  34.408  11.187
83370W        W56438  41.298   0.700   3.859
83371W        W56439   9.863  27.475   1.613
83372W        W56440   6.825  10.927   0.745
83373W        W56441  35.049  41.063  13.034
83374W        W56442  37.238   9.591  14.959
83375W        W56443   5.157   6.749  12.080
83376W        W56444  36.027  15.149   2.275
83377W        W56445  13.304  16.172  12.805
83378W        W56446  31.957  18.539   4.554
83379W        W56447   0.742  12.351  14.513
83380W        W56448   4.349  25.721   3.320
83381W        W56449  41.743  30.892   3.229
83382W        W56450  13.269   9.226   3.702
83383W        W56451   2.275  34.451  14.631
83384W        W56452   4.998  21.964  14.604
83385W        W56453   8.699   8.053  14.338
83386W        W56454  34.381   2.204   4.454
83387W        W56455   1.966  14.760  14.110
83388W        W56456  27.942  41.622   1.845
83389W        W56457  28.024   4.915  13.422
83390W        W56458  10.238   6.642   0.828
83391W        W56459  26.974  35.384  13.724
83392W        W56460   5.961  31.737   3.979
83393W        W56461  38.804  22.356  11.944
83394W        W56462  43.300   4.942   3.670
83395W        W56463   1.244   0.929   0.682
83396W        W56464  31.992   3.685   1.657
83397W        W56465   4.680   6.915  14.873
83398W        W56466  20.655  26.270  12.200
83399W        W56467   2.531  17.189   2.324
83400W        W56468  28.287   1.906  10.642
83401W        W56469  18.056  17.840  14.847
83402W        W56470  24.438  43.066  11.695
83403W        W56471   6.160  28.983   3.664
83404W        W56472  26.159  14.798  13.363
83405W        W56473  32.865   5.434  11.048
83406W        W56474   4.114  16.096  10.654
83407W        W56475  18.234  40.305   0.387
83408W        W56476  38.151  12.986   4.848
83409W        W56477  28.416  20.296  13.557
83410W        W56478   5.323  18.765   3.950
83411W        W56479   0.522  23.028  13.274
83412W        W56480  41.788   3.337   1.563
83413W        W56481  42.765  26.159   1.337
83414W        W56482   6.869  21.499  11.977
83415W        W56483  21.781  10.523  10.614
83416W        W56484  33.539  32.849  10.669
83417W        W56485   6.687  34.220  12.920
83418W        W56486  35.932  23.525  14.812
83419W        W56487  37.433   0.249   1.362
83420W        W56488   1.861  12.879   4.676
83421W        W56489   0.424  20.314   4.503
83422W        W56490   2.887  25.250  12.463
83423W        W56491  32.846  35.019  14.357
83424W        W56492  36.329  10.287  11.154
83425W        W56493   8.330  26.952  12.455
83426W        W56494  38.332  24.460  13.340
83427W        W56495  40.172  23.962  11.977
83428W        W56496  29.455  31.612  12.117
83429W        W56497  10.904   7.301   1.931
83430W        W56498  31.117   9.720  12.811
83431W        W56499  15.567  23.211   3.765
83432W        W56500  25.227  34.575   0.927
83433W        W56501  27.507  15.086  13.393
83434W        W56502  31.146   3.837  10.504
83435W        W56503  20.066  10.678  12.434
83436W        W56504  23.721  27.620   0.323
83437W        W56505  32.034  11.172   4.757
83438W        W56506  12.623  24.088   3.622
83439W        W56507  25.510  15.232  10.688
83440W        W56508  44.862  19.739  13.677
83441W        W56509   3.295  30.706   2.345
83442W        W56510   8.433   3.597   4.884
83443W        W56511  14.106  10.320   4.076
83444W        W56512  35.827  18.612  14.515
83445W        W56513  31.517   6.587  14.046
83446W        W56514  44.556  17.726   5.117
83447W        W56515  35.108  26.166  10.474
83448W        W56516   3.282   0.258   2.675
83449W        W56517   4.670  30.907   4.126
83450W        W56518  29.009  34.047  14.581
83451W        W56519  37.101  28.160   3.740
83452W        W56520  18.284  24.426   0.766
83453W        W56521  19.713  42.905   1.808
83454W        W56522  11.701  10.645  11.166
83455W        W56523  39.522   5.311   0.452
83456W        W56524  15.498  18.511   4.331
83457W        W56525  27.980  42.513   1.447
83458W        W56526  36.121   4.882  13.334
83459W        W56527  44.489  31.578   4.028
83460W        W56528  36.784  13.601   1.855
83461W        W56529  35.544   9.368  10.658
83462W        W56530  41.973  34.897  11.993
83463W        W56531  22.601  20.347   0.140
83464W        W56532   5.368  43.986  13.962
83465W        W56533  39.859  24.268   1.360
83466W        W56534  39.472  24.540  11.143
83467W        W56535  38.975   3.301   4.717
83468W        W56536  20.502  39.410  10.614
83469W        W56537   5.801   9.123   4.757
83470W        W56538  39.749  29.227  10.994
83471W        W56539  11.756  43.418   4.890
83472W        W56540   1.219  33.214   3.656
83473W        W56541  10.806  29.853   4.063
83474W        W56542  10.304  25.286  11.111
83475W        W56543   3.307  12.018  14.917
83476W        W56544  11.098  31.683  14.489
83477W        W56545  38.777  39.139   2.961
83478W        W56546   7.889  17.220  13.135
83479W        W56547  34.136  44.834   0.495
83480W        W56548  15.818  27.045   1.168
83481W        W56549  41.825   4.079  12.309
83482W        W56550  38.959  35.308   3.834
83483W        W56551  32.052  14.322  11.242
83484W        W56552  22.029  33.916   1.752
83485W        W56553  27.059   6.983  10.783
83486W        W56554  24.501  16.651  11.585
83487W        W56555  11.967   7.319   3.570
83488W        W56556  24.582  42.845   1.723
83489W        W56557  28.776  30.202  10.913
83490W        W56558  44.980  22.752  12.962
83491W        W56559  10.881   4.254  10.586
83492W        W56560  36.950  41.296   2.794
83493W        W56561  15.614  14.323   4.178
83494W        W56562  24.998  26.675   1.896
83495W        W56563  21.690  41.466   1.217
83496W        W56564  22.171  30.491   0.971
83497W        W56565  39.819   0.848  12.941
83498W        W56566  21.381   0.405   1.095
83499W        W56567  40.079  17.627  11.372
83500W        W56568  28.249  34.412  12.181
83501W        W56569  39.993  16.755  10.990
83502W        W56570  41.315  20.672   3.948
83503W        W56571  24.760  30.626  11.937
83504W        W56572   2.424   8.179  12.133
83505W        W56573  14.672  34.166  11.432
83506W        W56574  31.514  19.731  13.728
83507W        W56575  23.445  44.244  12.311
83508W        W56576   2.443  21.733  14.517
83509W        W56577  19.006  20.808  14.518
83510W        W56578  31.085  13.323   4.248
83511W        W56579  16.102  17.453   3.355
83512W        W56580  39.062  22.141  14.515
83513W        W56581  14.280  25.876  13.932
83514W        W56582  36.542  18.692  13.836
83515W        W56583   9.754  38.561  12.899
83516W        W56584  15.366   4.018   4.603
83517W        W56585   9.428  17.877  11.171
83518W        W56586  25.967  35.136  11.552
83519W        W56587  13.226  35.380   2.466
83520W        W56588  19.611  25.145  11.591
83521W        W56589  17.370  29.938  10.472
83522W        W56590  44.782  29.850   4.423
83523W        W56591   7.408  14.015   0.790
83524W        W56592   6.799  42.877   2.885
83525W        W56593  22.599  42.432   2.487
83526W        W56594  13.872  26.563  13.793
83527W        W56595  17.778  44.292  14.803
83528W        W56596  18.221  15.631   4.068
83529W        W56597  35.790  44.979  13.618
83530W        W56598  38.989  35.208   0.772
83531W        W56599  44.368   2.592  14.217
83532W        W56600  32.533  29.659   3.786
83533W        W56601  33.405   6.011   0.493
83534W        W56602  27.089  33.440  10.722
83535W        W56603  14.218   6.182   1.388
83536W        W56604  39.161  12.239  11.388
83537W        W56605  17.502  34.998  14.483
83538W        W56606  42.195  20.223   3.413
83539W        W56607   3.415   3.799   2.750
83540W        W56608  23.042  17.650   2.033
83541W        W56609  38.600  16.700  14.101
83542W        W56610  26.681  19.636   2.223
83543W        W56611  21.706   5.850   0.762
83544W        W56612  14.787  44.007   0.854
83545W        W56613  39.022   5.439  14.863
83546W        W56614  28.086  10.538   0.981
83547W        W56615  18.635  19.011  11.944
83548W        W56616  18.940  32.232  14.895
83549W        W56617   0.190  24.669   4.648
83550W        W56618   0.959  30.847  11.994
83551W        W56619  23.062  36.275   2.387
83552W        W56620  40.238   1.275   0.768
83553W        W56621  28.445  34.675  12.579
83554W        W56622  26.194  38.736   0.093
83555W        W56623  38.789  25.093   3.363
83556W        W56624  25.223  26.600   4.513
83557W        W56625  41.529  15.129  14.843
83558W        W56626  43.562   9.128   3.090
83559W        W56627  22.730  32.101  12.520
83560W        W56628  15.936  18.057  13.535
83561W        W56629   9.440   2.892   4.416
83562W        W56630  21.092  33.372   4.956
83563W        W56631  19.720  25.605   5.081
83564W        W56632  25.456  21.090  14.852
83565W        W56633  31.686  25.126   4.326
83566W        W56634  20.801   0.729  12.072
83567W        W56635  28.145   9.777   3.091
83568W        W56636  24.540  13.732  14.464
83569W        W56637  13.413  17.646  12.966
83570W        W56638  23.786   7.051   2.526
83571W        W56639  44.437  38.833   9.988
83572W        W56640  13.184   3.982  10.623
83573W        W56641  37.480  24.563  13.028
83574W        W56642   6.507   7.257  14.484
83575W        W56643   5.348  28.181  14.325
83576W        W56644  20.090  44.915  10.390
83577W        W56645   2.066  39.413   3.274
83578W        W56646  36.485  40.538  14.004
83579W        W56647   8.739  35.069   0.302
83580W        W56648   9.948  42.556  13.873
83581W        W56649  26.636  10.689   4.148
83582W        W56650   2.252  37.898  14.029
83583W        W56651  36.343  23.023   1.879
83584W        W56652   4.652  23.132   1.416
83585W        W56653  16.177  31.407   2.309
83586W        W56654   2.547  38.633  14.874
83587W        W56655  26.712  43.106   9.963
83588W        W56656  28.576  15.335   2.798
83589W        W56657   0.200  35.952  14.513
83590W        W56658  43.312   8.676  10.217
83591W        W56659  33.953  33.403  11.415
83592W        W56660  26.989   7.934  12.960
83593W        W56661  19.897   5.278   5.020
83594W        W56662  40.519  11.647  10.261
83595W        W56663   5.214   0.176   4.254
83596W        W56664  16.109  25.201   2.244
83597W        W56665  22.326  28.570  12.982
83598W        W56666  11.145  20.873  11.082
83599W        W56667  24.491  12.598  14.042
83600W        W56668  35.068  36.018   3.227
83601W        W56669   5.156  41.469  13.897
83602W        W56670  37.586  26.378  13.700
83603W        W56671   1.200  34.904   4.179
83604W        W56672   7.962  30.464   4.724
83605W        W56673  39.961  15.087   0.471
83606W        W56674  17.574  34.437   3.439
83607W        W56675   4.822   3.069   4.635
83608W        W56676   3.441  14.702  12.748
83609W        W56677  25.788  19.320  14.913
83610W        W56678  12.608  31.659   3.284
83611W        W56679  42.461  38.596  12.898
83612W        W56680  29.906  25.213   1.571
83613W        W56681  36.486  37.932  14.887
83614W        W56682  21.180  33.406  10.483
83615W        W56683  39.821   6.748   4.188
83616W        W56684  25.229  24.315   4.475
83617W        W56685  22.111  13.809   2.583
83618W        W56686  27.524  20.741  13.297
83619W        W56687  12.362  31.167  14.025
83620W        W56688  35.508  43.472   3.199
83621W        W56689  39.291   1.335  14.810
83622W        W56690  36.840  24.044  12.397
83623W        W56691  35.616  39.241  13.111
83624W        W56692  19.189  33.977  11.534
83625W        W56693   9.114  26.019   2.225
83626W        W56694  11.343  41.023   3.525
83627W        W56695  10.434  15.786   1.269
83628W        W56696  21.552  21.204  11.339
83629W        W56697  38.499  24.505  10.852
83630W        W56698  34.144   0.937  14.405
83631W        W56699  40.946  26.033  13.266
83632W        W56700  14.407  28.468  12.669
83633W        W56701  14.195   6.845  12.976
83634W        W56702  21.826  36.933   4.567
83635W        W56703   8.389   9.701  14.021
83636W        W56704  13.226  10.880  12.967
83637W        W56705   3.220  18.856  14.931
83638W        W56706  39.983  24.172  12.397
83639W        W56707  18.341   8.355  11.137
83640W        W56708  39.503  24.944  14.394
83641W        W56709  16.349  19.065  14.622
83642W        W56710  10.201   4.147  12.591
83643W        W56711  17.964  44.004  12.990
83644W        W56712  37.284  38.488   1.773
83645W        W56713  13.508  20.695   4.851
83646W        W56714  22.588  16.767   1.315
83647W        W56715   2.219  27.049   3.221
83648W        W56716   8.326  20.185   2.887
83649W        W56717  35.864  32.839  12.197
83650W        W56718  13.873  24.967   2.929
83651W        W56719  36.462   3.346   3.599
83652W        W56720  22.290  40.436   3.010
83653W        W56721  20.690  27.951  14.926
83654W        W56722   6.253  39.111  13.739
83655W        W56723  29.073  27.069   3.291
83656W        W56724   5.427  38.592  10.279
83657W        W56725  41.997  26.708  14.823
83658W        W56726  44.742  19.476   1.633
83659W        W56727  43.017  44.387   3.794
83660W        W56728  35.901  22.544   2.747
83661W        W56729  36.267  14.302  11.851
83662W        W56730   9.299  42.272  10.436
83663W        W56731  37.018  12.357   1.333
83664W        W56732   4.802  31.613   3.725
83665W        W56733  26.537  38.776   3.844
83666W        W56734  27.429   2.515   4.329
83667W        W56735  44.158  23.187  11.491
83668W        W56736  37.362  29.714   3.439
83669W        W56737  37.554  34.913   3.767
83670W        W56738  44.662  21.445  13.396
83671W        W56739  10.606  12.554   4.047
83672W        W56740  17.568  15.214   1.732
83673W        W56741  10.297  28.643   0.280
83674W        W56742  20.617  12.485   3.764
83675W        W56743  23.387   9.887  14.305
83676W        W56744  32.176  40.108   3.243
83677W        W56745  44.881  34.901  13.549
83678W        W56746  14.568  43.523   0.829
83679W        W56747   8.273  32.630  12.915
83680W        W56748  31.718  27.593  14.387
83681W        W56749  38.448  21.283  13.804
83682W        W56750  23.674   6.228  12.661
83683W        W56751  33.600  11.190  12.911
83684W        W56752  13.210  28.470   1.897
83685W        W56753  20.081  13.070  10.816
83686W        W56754   6.826   6.194   3.143
83687W        W56755  26.276  29.293   0.891
83688W        W56756  11.713   0.353   2.427
83689W        W56757  16.079  39.910  14.956
83690W        W56758  12.442  27.818  12.875
83691W        W56759   4.234  24.842   0.361
83692W        W56760  42.806  44.900  10.502
83693W        W56761  12.820  35.765  10.589
83694W        W56762  26.528  26.128  13.274
83695W        W56763  39.055   9.144  14.451
83696W        W56764  26.240  41.806   3.308
83697W        W56765  33.454  34.543   0.277
83698W        W56766  13.878  39.062  13.556
83699W        W56767  18.396   5.701  11.271
83700W        W56768  28.408  11.721  10.392
83701W        W56769  29.558  33.140   1.761
83702W        W56770  28.203  26.606  12.526
83703W        W56771  21.054  36.955  14.757
83704W        W56772   6.958   0.270   4.181
83705W        W56773  20.217  33.056  13.980
83706W        W56774  27.665  44.966  14.265
83707W        W56775   2.782  26.437   2.801
83708W        W56776  17.617   5.750   2.203
83709W        W56777  21.093  28.570   2.367
83710W        W56778  42.772  11.810   0.520
83711W        W56779  35.004  16.216  12.381
83712W        W56780  37.825  10.440  13.899
83713W        W56781  33.737   1.274  12.739
83714W        W56782  15.240  44.749  12.650
83715W        W56783  13.244  41.358  14.533
83716W        W56784  27.155   9.563   5.366
83717W        W56785  10.811   6.785  12.491
83718W        W56786  16.843  17.649  13.632
83719W        W56787  35.564  16.338   2.346
83720W        W56788   0.833  10.000   4.789
83721W        W56789  28.303  30.891   2.281
83722W        W56790  42.466  18.508  11.201
83723W        W56791   0.279  39.917   3.165
83724W        W56792  15.139  28.722  11.949
83725W        W56793  19.943  17.292   1.445
83726W        W56794  30.943  38.260  10.686
83727W        W56795  26.939  23.580  11.524
83728W        W56796  24.756   2.368  12.678
83729W        W56797  20.233  32.652  11.289
83730W        W56798  32.608  16.057  12.009
83731W        W56799  40.239  43.928   2.787
83732W        W56800  36.128  15.513  10.559
83733W        W56801   8.739  40.988   4.724
83734W        W56802  12.122  13.710   3.450
83735W        W56803   2.261  32.147  13.491
83736W        W56804  30.185  11.766   1.705
83737W        W56805  36.337  43.377   4.530
83738W        W56806  12.052  12.302  10.549
83739W        W56807  10.227  20.024   1.335
83740W        W56808  43.487  30.862  10.404
83741W        W56809   3.644  43.012   3.288
83742W        W56810  11.663  21.267   1.974
83743W        W56811  17.785  22.937  11.023
83744W        W56812   5.269  28.233  12.096
83745W        W56813  20.926  26.444   3.988
83746W        W56814  31.021  12.144  11.993
83747W        W56815  16.700  19.062   4.643
83748W        W56816  39.541  14.369   2.681
83749W        W56817  30.147   2.654  13.947
83750W        W56818   6.749   3.125   1.755
83751W        W56819  13.379  39.488   1.336
83752W        W56820  30.569  15.673   1.892
83753W        W56821  28.427  35.052  14.261
83754W        W56822  27.115  42.075  11.645
83755W        W56823  33.316  41.540   4.723
83756W        W56824  33.112  20.017   0.765
83757W        W56825  42.068  16.719  11.592
83758W        W56826  33.312  44.551   3.245
83759W        W56827  32.977  36.043   2.847
83760W        W56828  27.071  31.960   1.848
83761W        W56829  41.026  18.098   0.657
83762W        W56830  20.612  16.318   5.018
83763W        W56831  17.278   4.244   1.586
83764W        W56832  42.855   2.211   0.036
83765W        W56833  12.153  13.828  12.199
83766W        W56834  13.065   6.270  11.060
83767W        W56835   6.388  14.202   3.198
83768W        W56836  34.162  42.952   4.156
83769W        W56837   1.843  14.343   3.359
83770W        W56838   2.386  15.547   0.388
83771W        W56839  30.681  35.793  14.687
83772W        W56840   7.140  42.224   0.925
83773W        W56841  42.226   4.978  13.324
83774W        W56842  27.980   7.922   3.841
83775W        W56843  38.594  31.527   4.153
83776W        W56844  11.618  19.920   0.919
83777W        W56845   4.731  26.124   4.631
83778W        W56846  26.597  22.714   1.847
83779W        W56847  17.238   8.240  12.272
83780W        W56848   3.495  16.590   2.325
83781W        W56849  22.925  10.110   0.216
83782W        W56850  20.215   5.680   3.638
83783W        W56851   9.676  22.570  10.716
83784W        W56852  10.344  26.493   0.609
83785W        W56853   8.724  38.023  10.595
83786W        W56854  21.477  44.784   2.766
83787W        W56855   2.833  19.622   1.987
83788W        W56856  40.449  25.991   0.740
83789W        W56857  22.811   6.726   1.417
83790W        W56858  12.728   0.055  14.778
83791W        W56859  20.062  37.730   2.867
83792W        W56860  35.665   2.915  11.185
83793W        W56861  38.823   8.364  13.388
83794W        W56862   2.762   3.434   1.751
83795W        W56863   6.921  21.582   2.828
83796W        W56864   5.891  23.743  10.444
83797W        W56865  19.478   2.214   1.663
83798W        W56866  18.028  24.157  14.802
83799W        W56867  37.979  17.425  11.091
83800W        W56868   0.432  21.498   0.443
83801W        W56869  36.531  37.044  12.556
83802W        W56870  21.118   7.830  10.208
83803W        W56871  18.765  28.607  10.676
83804W        W56872  34.663  33.025  12.299
83805W        W56873   8.428  13.769  11.115
83806W        W56874  26.179   7.923  11.958
83807W        W56875   3.691  26.968  12.147
83808W        W56876  36.121  29.051   1.913
83809W        W56877  26.404  43.319   2.162
83810W        W56878  31.014  42.827  12.819
83811W        W56879  29.461  25.931  10.493
83812W        W56880  26.768   1.950   3.786
83813W        W56881  12.809   4.166   0.875
83814W        W56882   0.922   9.869  10.556
83815W        W56883   7.350   8.281  11.150
83816W        W56884  30.446   2.181  12.087
83817W        W56885  23.158  30.734  12.877
83818W        W56886  35.471   3.535  14.379
83819W        W56887  43.029   1.287  14.004
83820W        W56888   2.428   7.452  11.589
83821W        W56889  17.711  11.723   4.277
83822W        W56890  12.251   9.745   3.169
83823W        W56891   0.484  38.436  12.377
83824W        W56892  16.523  39.302  13.624
83825W        W56893  10.661   1.549   3.264
83826W        W56894   9.335  42.242  13.531
83827W        W56895  14.225  18.692   4.514
83828W        W56896  26.264  18.648   2.341
83829W        W56897  12.713  12.422   3.693
83830W        W56898  20.462  27.886   1.142
83831W        W56899  14.332  36.324   1.447
83832W        W56900  38.800  10.465  10.699
83833W        W56901  16.753   3.303   4.529
83834W        W56902  34.343  27.189  12.019
83835W        W56903   3.494   3.182   2.166
83836W        W56904  29.680  31.640   4.985
83837W        W56905  24.203  40.837   0.686
83838W        W56906  16.930  20.583  11.634
83839W        W56907  35.069  34.675   0.159
83840W        W56908   9.242   0.250  14.534
83841W        W56909  36.434  25.709  12.565
83842W        W56910  12.042  22.753  11.659
83843W        W56911  18.612   7.992   4.662
83844W        W56912  40.494  32.441  13.445
83845W        W56913  31.599   4.393   3.549
83846W        W56914  22.023  14.701  12.462
83847W        W56915  26.034  21.105  14.948
83848W        W56916  30.173  12.000   0.329
83849W        W56917  32.859  39.113   3.231
83850W        W56918  42.770   9.320  13.474
83851W        W56919  33.926   6.925  14.105
83852W        W56920   6.786  33.695  13.820
83853W        W56921  27.206   0.021  12.040
83854W        W56922   1.090  29.885   0.846
83855W        W56923   2.817   9.734   1.726
83856W        W56924  14.277  21.751  11.156
83857W        W56925  43.770  20.779   3.547
83858W        W56926  16.178  36.397   3.382
83859W        W56927  40.240  40.508  12.565
83860W        W56928   6.955  17.598   2.199
83861W        W56929  20.125  11.686   0.221
83862W        W56930  20.230  43.032   1.816
83863W        W56931  14.529  26.638   1.963
83864W        W56932  10.120  37.994  12.014
83865W        W56933  34.033  35.125  13.341
83866W        W56934  40.643  25.039  10.757
83867W        W56935   6.108  31.411  11.664
83868W        W56936  27.148  38.998  10.319
83869W        W56937  39.311   4.530   1.986
83870W        W56938   9.598  13.871   0.859
83871W        W56939  19.716  28.078  10.996
83872W        W56940   4.815  26.757   3.700
83873W        W56941  32.154  41.100  11.128
83874W        W56942  36.670  31.730  13.801
83875W        W56943  15.706  24.034  13.614
83876W        W56944  23.568   4.827   3.319
83877W        W56945  10.416  27.081  12.503
83878W        W56946  18.559  22.781  10.652
83879W        W56947   0.443  40.849  14.016
83880W        W56948  31.243  36.055  12.072
83881W        W56949  44.856  35.872   4.669
83882W        W56950  41.378   5.305   2.915
83883W        W56951  41.447  34.988   4.646
83884W        W56952   9.176  28.168   3.648
83885W        W56953   4.220  34.611  11.308
83886W        W56954  24.453  28.513   4.127
83887W        W56955  35.068  32.837  12.029
83888W        W56956  28.077   1.549   3.610
83889W        W56957  11.521   3.563   0.477
83890W        W56958   5.088  25.895  13.924
83891W        W56959   6.923  38.818   2.491
83892W        W56960  35.048  35.492   2.438
83893W        W56961  27.517  38.357  14.924
83894W        W56962  30.666  11.858  10.627
83895W        W56963  40.914  32.350   3.868
83896W        W56964   6.208  36.995  10.624
83897W        W56965  35.543  33.044  12.548
83898W        W56966  21.169   7.210  12.775
83899W        W56967  31.979  20.792  12.118
83900W        W56968  15.645   2.746   2.938
83901W        W56969  37.955  36.963   4.560
83902W        W56970   7.953  31.597  12.171
83903W        W56971   8.156  24.454   1.766
83904W        W56972   5.554  20.220   3.680
83905W        W56973  18.270  44.837  14.233
83906W        W56974  28.964  39.967   2.102
83907W        W56975   3.740   1.906  14.901
83908W        W56976  38.369  34.631   2.224
83909W        W56977   2.755  31.819  12.763
83910W        W56978  23.638  31.882   4.510
83911W        W56979  27.610  28.740   3.599
83912W        W56980  26.966   8.942   1.497
83913W        W56981  30.142  32.016   0.895
83914W        W56982  43.276  38.985  12.887
83915W        W56983  40.689  14.863   4.245
83916W        W56984  34.609  19.079   0.276
83917W        W56985   2.484  30.089   2.787
83918W        W56986  43.022  34.183  12.818
83919W        W56987  43.917  17.999  14.950
83920W        W56988   4.368  31.716  12.088
83921W        W56989  12.357  44.261  13.622
83922W        W56990  24.708  16.760   9.666
83923W        W56991   4.464  31.761  13.089
83924W        W56992  38.798  12.766   2.635
83925W        W56993  18.621   1.394  11.126
83926W        W56994  12.048  38.451  13.857
83927W        W56995   6.137   3.838  11.225
83928W        W56996  20.351  38.116  11.141
83929W        W56997  29.469  31.239  14.594
83930W        W56998  26.054  22.929  10.992
83931W        W56999  10.251  39.317  11.523
83932W        W57000  37.385  22.978   1.857
83933W        W57001  22.470  44.936  11.970
83934W        W57002  41.407   5.688   3.269
83935W        W57003  37.242  43.766   0.245
83936W        W57004  10.235  34.339  10.752
83937W        W57005  42.347   0.160  10.480
83938W        W57006  31.729   8.972  14.777
83939W        W57007  31.016  20.167   0.950
83940W        W57008  38.384   7.199   2.598
83941W        W57009  38.292  29.362  14.519
83942W        W57010   4.145   4.761  12.873
83943W        W57011  23.735  35.509   4.191
83944W        W57012   8.875  26.457   4.075
83945W        W57013   1.744   5.568  14.403
83946W        W57014  39.011  13.592   0.471
83947W        W57015  38.682  11.930  13.492
83948W        W57016   4.235  14.641  12.402
83949W        W57017  21.773  25.916   0.744
83950W        W57018  36.082  10.828  11.928
83951W        W57019  34.587   6.282  11.151
83952W        W57020   6.934  30.867  13.414
83953W        W57021  36.390   6.129  11.550
83954W        W57022  19.300  10.353  14.792
83955W        W57023   3.931  33.614  10.685
83956W        W57024  40.695   4.143  10.990
83957W        W57025  39.393  38.798  10.524
83958W        W57026  15.379   9.816  14.485
83959W        W57027  14.779  25.344   3.258
83960W        W57028   9.753  32.416   3.833
83961W        W57029  33.371  35.545   3.511
83962W        W57030  43.409  21.231   9.786
83963W        W57031  28.928   2.306   0.322
83964W        W57032  40.448  27.008   4.382
83965W        W57033  44.261   6.202  14.024
83966W        W57034  22.649   9.847  10.552
83967W        W57035   6.222  39.023  10.549
83968W        W57036  42.764  20.047   0.897
83969W        W57037  23.438  14.378   3.293
83970W        W57038  14.717  42.327  13.281
83971W        W57039  18.783  43.721   1.930
83972W        W57040  23.723  19.317  11.444
83973W        W57041  16.852  21.526   1.204
83974W        W57042  44.691   7.841   2.627
83975W        W57043  34.219  41.893  14.332
83976W        W57044  25.656   4.971   1.785
83977W        W57045  29.564  25.251   3.644
83978W        W57046  32.308  22.312  10.259
83979W        W57047  11.105  27.565  13.505
83980W        W57048  34.577  17.652  14.691
83981W        W57049  42.533  37.294   1.288
83982W        W57050   4.687   2.887  12.103
83983W        W57051  28.942  17.024   4.236
83984W        W57052  18.925   5.277  13.152
83985W        W57053   1.095  40.131   4.619
83986W        W57054  32.123  44.646  13.133
83987W        W57055  35.891  31.981  14.500
83988W        W57056  34.175  18.625  13.955
83989W        W57057  38.039  32.647   0.418
83990W        W57058  38.624  31.817  10.073
83991W        W57059  34.945  10.247  12.086
83992W        W57060  41.908  19.036   1.686
83993W        W57061  27.224   5.802  13.911
83994W        W57062  41.604  34.935   1.330
83995W        W57063  40.172  29.492   2.831
83996W        W57064  30.934  20.093   3.075
83997W        W57065   4.745  24.477   2.662
83998W        W57066   7.944   8.898  13.881
83999W        W57067   5.293   6.222   1.258
84000W        W57068  32.515  28.539   2.879
84001W        W57069   6.308   4.223   4.375
84002W        W57070  10.400  14.480  14.830
84003W        W57071   3.507  24.666  12.874
84004W        W57072  44.069  30.970  13.339
84005W        W57073  31.790  45.000  11.036
84006W        W57074  34.977  20.713  14.762
84007W        W57075  15.599  40.841   3.277
84008W        W57076   3.424  14.711   0.844
84009W        W57077  11.167  43.062   1.820
84010W        W57078   3.034  24.169   4.250
84011W        W57079   7.851  26.359   4.099
84012W        W57080   7.019   9.350  13.920
84013W        W57081  22.766  34.731  12.080
84014W        W57082   0.769  27.452   0.465
84015W        W57083  43.256   1.287   1.726
84016W        W57084  20.776  19.494   2.811
84017W        W57085   3.869  10.018  12.972
84018W        W57086  37.285  21.588  14.384
84019W        W57087  40.348  33.038   1.627
84020W        W57088  18.191  31.623   0.864
84021W        W57089   8.765   0.872   3.303
84022W        W57090   1.785  33.090  10.698
84023W        W57091  25.263  27.198   2.201
84024W        W57092   2.812   6.142   0.375
84025W        W57093  23.346  15.839   2.823
84026W        W57094  24.641  41.926   2.118
84027W        W57095   0.315  26.887  13.956
84028W        W57096  30.147  33.343  12.516
84029W        W57097   7.841  21.660  14.270
84030W        W57098  23.470  23.516   1.774
84031W        W57099   1.293  34.145   1.173
84032W        W57100  16.846  21.989  12.820
84033W        W57101  25.475  36.602  11.149
84034W        W57102  12.572  32.062  10.707
84035W        W57103  27.464  30.001  14.846
84036W        W57104  33.546  28.387   0.237
84037W        W57105  27.259  12.720  11.195
84038W        W57106  14.958  36.390   0.399
84039W        W57107   2.297  29.720  14.335
84040W        W57108  20.207  12.038   1.335
84041W        W57109  37.586  24.514  11.445
84042W        W57110  14.061  31.636   3.428
84043W        W57111  17.867   4.736  14.857
84044W        W57112  42.616  16.419   1.480
84045W        W57113   6.376  21.606  14.344
84046W        W57114  12.528  43.250   3.205
84047W        W57115  38.276   8.867   3.553
84048W        W57116  24.094  28.137   3.561
84049W        W57117  19.514  21.666  13.172
84050W        W57118  28.710  22.064   0.325
84051W        W57119  36.043  18.179   2.205
84052W        W57120   7.099  12.938   0.729
84053W        W57121  21.812  10.928  13.883
84054W        W57122  22.459  12.253   4.937
84055W        W57123  11.122   1.070   0.718
84056W        W57124  27.393  22.976   2.480
84057W        W57125  19.166   9.729  14.177
84058W        W57126  34.562  42.952  11.168
84059W        W57127  44.705  12.622  13.437
84060W        W57128  33.224  21.043  11.994
84061W        W57129  16.701   4.434   4.613
84062W        W57130  30.418   1.724  12.343
84063W        W57131  21.167   9.753  11.376
84064W        W57132  17.309   2.246  11.686
84065W        W57133  27.947  11.681  12.568
84066W        W57134   8.855  33.936   3.742
84067W        W57135  34.066  10.758   0.399
84068W        W57136  42.402   8.960  13.561
84069W        W57137  29.822  26.484  11.042
84070W        W57138  14.712  20.625  14.510
84071W        W57139  31.494  27.794  13.535
84072W        W57140  41.772  18.242   2.158
84073W        W57141  29.950  19.710   0.262
84074W        W57142  19.016  12.290  10.958
84075W        W57143  16.543  27.094  11.910
84076W        W57144  23.392   9.944   1.878
84077W        W57145   3.294   2.396   1.513
84078W        W57146  26.156  41.100   1.713
84079W        W57147  42.658   0.808   3.125
84080W        W57148  11.596  29.854  13.612
84081W        W57149   7.164  37.527   3.121
84082W        W57150  12.386  31.088   4.244
84083W        W57151  32.032  32.161  14.329
84084W        W57152  35.940  17.638   1.094
84085W        W57153  10.398  11.362   3.379
84086W        W57154  14.875  40.030   0.221
84087W        W57155  44.959  27.552   3.330
84088W        W57156   5.783  44.207  12.879
84089W        W57157  24.557  25.917   0.272
84090W        W57158   4.951  43.472  11.592
84091W        W57159  26.491  27.573  12.054
84092W        W57160  42.251   6.727   1.327
84093W        W57161  10.025  27.642   0.247
84094W        W57162   5.741  29.651  12.415
84095W        W57163  36.436  11.694  12.834
84096W        W57164   8.107  25.726  12.177
84097W        W57165  42.709  10.448  12.376
84098W        W57166  36.822   4.289   0.118
84099W        W57167  17.195  42.954   3.289
84100W        W57168  38.867  39.838  14.950
84101W        W57169   7.725  10.271  13.566
84102W        W57170  39.903  35.056   2.930
84103W        W57171  14.074  41.077   2.203
84104W        W57172  23.528  37.951  13.077
84105W        W57173  20.951   9.236   0.943
84106W        W57174   3.507   7.206   0.518
84107W        W57175  38.512   6.759  11.147
84108W        W57176   1.220  30.530   5.022
84109W        W57177  36.149   8.715   4.231
84110W        W57178  15.745   4.794  11.798
84111W        W57179  44.358  30.103  12.998
84112W        W57180   4.753  11.319   4.320
84113W        W57181  44.242   4.508   2.877
84114W        W57182  27.513   2.402  14.298
84115W        W57183  13.326  15.167   4.762
84116W        W57184  17.093   7.384  12.522
84117W        W57185  39.060   1.075  12.416
84118W        W57186   5.579  30.959   1.502
84119W        W57187  30.183  43.352  12.507
84120W        W57188  44.561  20.479   2.286
84121W        W57189  21.668  20.078   4.697
84122W        W57190  37.778  13.693  10.712
84123W        W57191  10.725  42.109  14.897
84124W        W57192  25.899  29.680   1.975
84125W        W57193  27.795   2.073  10.803
84126W        W57194  19.236  29.196   1.185
84127W        W57195   4.247  35.826  14.016
84128W        W57196  25.208  41.981  12.993
84129W        W57197  36.556   4.129  13.026
84130W        W57198   1.429  25.253   2.807
84131W        W57199  12.612  20.039   3.774
84132W        W57200  40.262  43.717   4.169
84133W        W57201  13.829  27.511  14.083
84134W        W57202  25.414  28.526   4.328
84135W        W57203   1.428  14.655  11.159
84136W        W57204  40.002  29.956  12.388
84137W        W57205   3.586   3.804   0.939
84138W        W57206   6.290  29.447  13.376
84139W        W57207  18.204   3.946   2.170
84140W        W57208  40.640   8.308   9.660
84141W        W57209  31.407  29.500  13.851
84142W        W57210  41.736  15.732   1.854
84143W        W57211  22.443  18.204  13.023
84144W        W57212   1.568  43.037  13.518
84145W        W57213  42.268  23.884   3.045
84146W        W57214  34.655  26.574  13.089
84147W        W57215  23.565  16.061   5.234
84148W        W57216  40.805  18.332   0.254
84149W        W57217  15.574  41.292   2.319
84150W        W57218   3.358  41.025  12.087
84151W        W57219  10.643   0.529  13.840
84152W        W57220  15.156  15.000  11.154
84153W        W57221  24.265   4.064  11.579
84154W        W57222  33.504  40.343   1.752
84155W        W57223  10.195  12.360   3.763
84156W        W57224  10.347  37.913  14.021
84157W        W57225  21.641  18.993   0.395
84158W        W57226  14.522  26.017  11.931
84159W        W57227   4.755  43.318  13.084
84160W        W57228  32.034  29.617   0.881
84161W        W57229  14.859  19.553  14.863
84162W        W57230   5.195  16.355  11.398
84163W        W57231  27.599  18.640  13.378
84164W        W57232  31.065  42.600   1.311
84165W        W57233  37.918  16.264  11.477
84166W        W57234  40.865  26.532   3.759
84167W        W57235  39.016  32.919   4.152
84168W        W57236  25.143  16.383  13.966
84169W        W57237  25.707   8.887  14.450
84170W        W57238  32.850  19.545  14.778
84171W        W57239  32.005  14.639  13.913
84172W        W57240   6.683   1.701   0.533
84173W        W57241  43.531  36.215   0.887
84174W        W57242  23.503   7.807   4.089
84175W        W57243  30.045  42.103  14.996
84176W        W57244  22.454  21.619   0.538
84177W        W57245  23.488  42.204   1.445
84178W        W57246  38.759  35.457   1.185
84179W        W57247  18.088  19.745  11.543
84180W        W57248   5.598   3.838  12.850
84181W        W57249  28.631  32.902  13.001
84182W        W57250  25.510  26.985  12.489
84183W        W57251  19.545  30.631   0.744
84184W        W57252   6.740  11.274   1.289
84185W        W57253  19.239  38.350   2.734
84186W        W57254  34.337   5.126  14.953
84187W        W57255  31.882  32.392  14.975
84188W        W57256  13.439  22.266  11.008
84189W        W57257  19.511  20.079  14.280
84190W        W57258  31.363  38.358  11.638
84191W        W57259  30.928  10.829  13.889
84192W        W57260  11.345  26.136   2.683
84193W        W57261  44.834  20.179  14.438
84194W        W57262  33.652  35.189   0.907
84195W        W57263  29.073  33.122  13.103
84196W        W57264  30.182   4.926   1.152
84197W        W57265   4.980  35.944   0.781
84198W        W57266  40.855   2.270   4.952
84199W        W57267  30.937   3.986   0.781
84200W        W57268  24.772  24.084  11.622
84201W        W57269  12.025  18.384   4.298
84202W        W57270   0.695   4.312  11.904
84203W        W57271  12.136  44.893  12.418
84204W        W57272   5.778  19.596   1.371
84205W        W57273   3.214   4.191  12.284
84206W        W57274  33.862  33.446   4.705
84207W        W57275  42.045  42.630   2.327
84208W        W57276  37.538  13.052  13.536
84209W        W57277  18.339  26.612  12.422
84210W        W57278  40.820  20.006   3.339
84211W        W57279   3.673   1.210  12.857
84212W        W57280  25.158   4.892   4.553
84213W        W57281  22.935  31.828   2.604
84214W        W57282  32.104  21.198   2.284
84215W        W57283   1.969  34.047  14.451
84216W        W57284  39.817  40.415   3.048
84217W        W57285  39.299   4.578  13.719
84218W        W57286  42.426  34.119  11.119
84219W        W57287  23.246  15.730  12.216
84220W        W57288  38.151  29.672  11.388
84221W        W57289  27.415  41.735   3.709
84222W        W57290  44.697  12.255  10.734
84223W        W57291   6.192   8.287   1.877
84224W        W57292   2.461  14.242   3.592
84225W        W57293  18.855   0.665  10.765
84226W        W57294   8.864  16.991   3.173
84227W        W57295  29.618  37.871  13.796
84228W        W57296  40.520  15.389   4.282
84229W        W57297   5.118  16.540   1.000
84230W        W57298   8.886  42.664  13.305
84231W        W57299  24.643   6.601   2.866
84232W        W57300  13.219  20.019   1.868
84233W        W57301  37.614  24.594  11.960
84234W        W57302  25.547  22.953  12.493
84235W        W57303  10.747   0.046  10.415
84236W        W57304  19.084  28.955  13.865
84237W        W57305   2.943  28.056   1.327
84238W        W57306  19.736   9.367   3.298
84239W        W57307   5.839  38.853   4.411
84240W        W57308  12.836   7.580  10.733
84241W        W57309  28.358  17.218  12.583
84242W        W57310   1.651  19.622   4.495
84243W        W57311  19.558  12.280   3.384
84244W        W57312  27.020  32.390  10.755
84245W        W57313  39.488  31.137   2.301
84246W        W57314  42.832  42.000  12.310
84247W        W57315  33.914  38.804   0.509
84248W        W57316  21.179  11.089  12.179
84249W        W57317  14.472  10.669  14.796
84250W        W57318   1.084  31.833  13.895
84251W        W57319  17.062  42.203  11.727
84252W        W57320  17.582  17.050  11.103
84253W        W57321   1.429  40.501  13.268
84254W        W57322  41.979  36.080  12.395
84255W        W57323  13.062  20.237  12.970
84256W        W57324  32.188  28.929   2.718
84257W        W57325  10.917   6.820  10.540
84258W        W57326  40.500  40.146   5.112
84259W        W57327  41.935  20.440  12.523
84260W        W57328  10.301  36.966  11.883
84261W        W57329  39.971  31.471   4.200
84262W        W57330  16.648  22.963  14.636
84263W        W57331  13.080  40.306  11.102
84264W        W57332  39.906  38.811  11.545
84265W        W57333   9.833   1.202  14.736
84266W        W57334  35.613  42.030  11.110
84267W        W57335  32.504  42.631   1.478
84268W        W57336   5.147   7.756   2.350
84269W        W57337  36.058  19.297   0.249
84270W        W57338  22.548   6.312   2.190
84271W        W57339  43.451   8.584   0.044
84272W        W57340  32.952  25.947   3.579
84273W        W57341  18.022  42.241   3.682
84274W        W57342  25.063  36.165   3.230
84275W        W57343  21.226  36.453   0.832
84276W        W57344  40.112  34.553  13.333
84277W        W57345  17.270  19.619  12.843
84278W        W57346  21.100  30.155   2.191
84279W        W57347   7.797   8.965   2.887
84280W        W57348  23.084  12.869  13.983
84281W        W57349  24.305  42.617  11.927
84282W        W57350  23.437  25.180   4.691
84283W        W57351  32.424  39.482  10.891
84284W        W57352  33.554  10.849  10.757
84285W        W57353  30.120  40.298  10.689
84286W        W57354  17.498  20.566  11.979
84287W        W57355  28.581  34.958  11.189
84288W        W57356   3.778  14.772   0.477
84289W        W57357  15.753  37.881   2.301
84290W        W57358  25.442  10.375   3.384
84291W        W57359  27.205  33.617   3.474
84292W        W57360  20.357   0.534   0.896
84293W        W57361  43.066  30.617  14.861
84294W        W57362  43.570  44.968  12.017
84295W        W57363  18.045  37.943  14.898
84296W        W57364  14.259  43.319   1.425
84297W        W57365  39.982  24.938  14.619
84298W        W57366  14.135   9.790   2.205
84299W        W57367   1.953  30.198   3.082
84300W        W57368  14.229  19.618   1.393
84301W        W57369  44.759   0.812  12.175
84302W        W57370  24.580  26.963   3.182
84303W        W57371  11.065   9.408  12.053
84304W        W57372  25.519  10.403  10.507
84305W        W57373  14.679  29.445   2.099
84306W        W57374  35.649   4.842  10.068
84307W        W57375  33.911  13.367  10.704
84308W        W57376  11.191  35.251   4.055
84309W        W57377  24.558  43.931   4.157
84310W        W57378  34.850   4.770   3.751
84311W        W57379  15.325  35.607  14.061
84312W        W57380  11.273  43.913  10.889
84313W        W57381   5.662  16.145   4.619
84314W        W57382  30.013  22.911   0.773
84315W        W57383  38.289  20.012   2.248
84316W        W57384  13.262  41.893   2.929
84317W        W57385  24.252  42.971  10.377
84318W        W57386  38.002  13.691   0.784
84319W        W57387  32.167  18.116  10.723
84320W        W57388  40.863  28.472   1.374
84321W        W57389  35.938  38.750  12.982
84322W        W57390  34.492  25.771  11.165
84323W        W57391  41.064  26.529  14.797
84324W        W57392   3.857  19.702  13.997
84325W        W57393  42.995  37.991  13.632
84326W        W57394   2.860  27.144  13.424
84327W        W57395   8.192  30.096  10.515
84328W        W57396   1.916  20.183  14.989
84329W        W57397  43.630  29.052   1.417
84330W        W57398  20.229  21.751   2.793
84331W        W57399  41.451  39.961  12.627
84332W        W57400  32.636  15.849  14.212
84333W        W57401  30.901  18.214   0.445
84334W        W57402  38.779  13.614  12.426
84335W        W57403  23.538  40.460  12.813
84336W        W57404  40.367   4.906  13.339
84337W        W57405  18.934  12.919   5.081
84338W        W57406  22.742  44.792  13.561
84339W        W57407   0.649   4.706  11.101
84340W        W57408   6.182  23.908   1.383
84341W        W57409  29.688   3.332   4.664
84342W        W57410  15.755  17.561  14.278
84343W        W57411  14.638  13.142   4.150
84344W        W57412  17.651   1.263   4.101
84345W        W57413  11.601   9.679   1.954
84346W        W57414  13.053   6.176  13.476
84347W        W57415   5.881  37.914  10.886
84348W        W57416   2.435   9.034  13.507
84349W        W57417  31.622  34.915   0.314
84350W        W57418  37.552  18.552   2.292
84351W        W57419  30.444   9.320   1.905
84352W        W57420  44.290   7.168   4.777
84353W        W57421  30.403  29.561  12.559
84354W        W57422  42.031  29.598  13.537
84355W        W57423  20.633  39.452   1.759
84356W        W57424  23.169  41.525   0.685
84357W        W57425  36.856   7.342   1.875
84358W        W57426   9.610  30.472  14.504
84359W        W57427  42.857  18.830   0.752
84360W        W57428   1.784  24.123  12.144
84361W        W57429  10.455  11.615   4.127
84362W        W57430  29.838  15.238  11.169
84363W        W57431  15.376  13.907   2.813
84364W        W57432  20.732  21.182  10.646
84365W        W57433   0.003  12.587  11.127
84366W        W57434  19.138  26.139   0.749
84367W        W57435  36.454  23.133   4.418
84368W        W57436  32.018   4.456  12.457
84369W        W57437  14.759  27.752   3.938
84370W        W57438  13.131  18.786  10.641
84371W        W57439  29.035  27.572  13.453
84372W        W57440  41.975  40.587  12.416
84373W        W57441  41.770  19.324  10.741
84374W        W57442   7.406  19.246  14.007
84375W        W57443  41.987   5.190  11.185
84376W        W57444  31.166  42.083   1.394
84377W        W57445  35.350  24.150  10.990
84378W        W57446  41.285  44.760  11.031
84379W        W57447   3.211  19.348  12.467
84380W        W57448  16.376  22.733   0.310
84381W        W57449  16.318  44.281  12.397
84382W        W57450   5.673  37.467   4.683
84383W        W57451   3.772  13.676   1.461
84384W        W57452  26.075   5.724   1.902
84385W        W57453  28.617  35.482   0.452
84386W        W57454  20.539  23.881   0.922
84387W        W57455   4.365  27.463  11.946
84388W        W57456   9.904  37.119   2.437
84389W        W57457  17.717  21.489   4.602
84390W        W57458   6.040  42.861   0.049
84391W        W57459  28.033  36.338   1.434
84392W        W57460  11.787  34.025  12.946
84393W        W57461  21.180  29.021  10.295
84394W        W57462  30.582  14.191  13.957
84395W        W57463  43.297  12.775   2.836
84396W        W57464  15.582  41.717  11.604
84397W        W57465  28.300  24.372   4.021
84398W        W57466  28.917   4.790   0.495
84399W        W57467  35.839  38.974  14.104
84400W        W57468  11.783  15.592   1.307
84401W        W57469  28.650   0.544   4.270
84402W        W57470  36.625  13.292   3.284
84403W        W57471   0.464   3.462   1.212
84404W        W57472  30.983  19.696   3.433
84405W        W57473  23.998   5.920   4.381
84406W        W57474  40.868   0.968   3.781
84407W        W57475  27.472   0.285   2.588
84408W        W57476  15.223  28.496   4.377
84409W        W57477  19.041  18.476   1.552
84410W        W57478  12.701   7.400   4.795
84411W        W57479  20.693  11.676   0.740
84412W        W57480  16.887  23.770   4.577
84413W        W57481   4.057  32.433   1.393
84414W        W57482  31.955  28.886   1.418
84415W        W57483  21.184  20.080  12.471
84416W        W57484  40.073  12.039  13.919
84417W        W57485  36.082   9.622  12.447
84418W        W57486  16.503   7.687   1.475
84419W        W57487  30.635  17.234  12.065
84420W        W57488  34.368  21.666   1.319
84421W        W57489  21.542  19.002   4.646
84422W        W57490  21.823  39.090  10.831
84423W        W57491   3.602  44.559   1.578
84424W        W57492  12.143   6.918  13.822
84425W        W57493  22.692  18.628  11.502
84426W        W57494  28.543  11.471  14.105
84427W        W57495   8.246  31.011   2.647
84428W        W57496   1.753   4.241  14.111
84429W        W57497  33.012  16.531  12.749
84430W        W57498  10.882  25.537   3.760
84431W        W57499  37.041  14.224  11.201
84432W        W57500   5.456   6.398  13.711
84433W        W57501   0.215  27.198  14.392
84434W        W57502  27.496  21.227  13.066
84435W        W57503  10.741  23.417  11.080
84436W        W57504  23.651  38.335   1.822
84437W        W57505   2.393  36.809  12.443
84438W        W57506   1.319  30.829  14.397
84439W        W57507  38.013   9.049   3.165
84440W        W57508   4.385  41.464  11.177
84441W        W57509  43.949  18.826   3.108
84442W        W57510  12.291  42.030  13.504
84443W        W57511  20.215   1.786   0.376
84444W        W57512  37.308   0.513   4.408
84445W        W57513  13.678   9.714   1.949
84446W        W57514  29.586  10.159   1.498
84447W        W57515  31.426  22.498  10.444
84448W        W57516   6.891  17.599   1.677
84449W        W57517   2.779  20.527  12.106
84450W        W57518  27.624  39.310  11.179
84451W        W57519  22.927  17.103  11.993
84452W        W57520  15.395  32.949  11.754
84453W        W57521  31.915  26.454   0.255
84454W        W57522  37.018  10.998   1.052
84455W        W57523  42.024  28.094   2.096
84456W        W57524  18.970  10.872   1.474
84457W        W57525   4.792  22.343   0.884
84458W        W57526  22.724  24.202   1.870
84459W        W57527   1.477  27.165  14.426
84460W        W57528  38.098  44.981   3.358
84461W        W57529  30.707   5.363  12.322
84462W        W57530  32.971  23.453   0.013
84463W        W57531  38.926  19.204   3.817
84464W        W57532  28.574   1.680   3.728
84465W        W57533  43.041   1.969  12.435
84466W        W57534  14.762  40.918  13.889
84467W        W57535  36.500  34.853  12.918
84468W        W57536   9.890  22.606  11.837
84469W        W57537  17.754   4.265   3.818
84470W        W57538  32.390  31.525   1.630
84471W        W57539   6.457  38.517  11.921
84472W        W57540  15.677  27.810   3.688
84473W        W57541   4.783  14.158  13.495
84474W        W57542  11.882  24.971   4.737
84475W        W57543  30.557  27.759   1.274
84476W        W57544  34.634  13.875  13.846
84477W        W57545  28.374   0.079  14.922
84478W        W57546  40.394  30.131   2.279
84479W        W57547  41.549  28.409   0.746
84480W        W57548  20.250   6.379  11.880
84481W        W57549   3.661  25.096  14.298
84482W        W57550  42.514  15.987   2.803
84483W        W57551  30.500  27.410   0.716
84484W        W57552  41.658   4.724   3.112
84485W        W57553   6.147   0.812  10.723
84486W        W57554  23.111   3.396   2.713
84487W        W57555  17.182  12.693   4.104
84488W        W57556  24.020  38.034  12.896
84489W        W57557   3.780  35.107  14.019
84490W        W57558  16.746  25.496   2.873
84491W        W57559   4.715  42.236  11.052
84492W        W57560   6.196  17.272  11.436
84493W        W57561   9.717  40.932   3.108
84494W        W57562  31.007  31.395  13.976
84495W        W57563  30.621  19.878  13.697
84496W        W57564   5.988  21.336  11.061
84497W        W57565   8.034   5.312  12.136
84498W        W57566  18.604  24.685  13.209
84499W        W57567   8.022  32.864   0.748
84500W        W57568  13.777  38.212   0.726
84501W        W57569  16.645  17.622  11.496
84502W        W57570  21.450  39.072   4.316
84503W        W57571  31.594   3.929  13.062
84504W        W57572  15.113  10.406   4.104
84505W        W57573   0.527  39.019  10.558
84506W        W57574  41.141  18.761   4.267
84507W        W57575  25.059  23.287  14.662
84508W        W57576  43.546  27.017   4.225
84509W        W57577  20.502  43.791   1.232
84510W        W57578   7.737  36.843   1.860
84511W        W57579  24.839  16.349   4.304
84512W        W57580  16.703  42.328   2.677
84513W        W57581  40.831   9.902  12.434
84514W        W57582  29.763  15.458   0.344
84515W        W57583   5.173   0.091  10.790
84516W        W57584  22.047  27.057   2.430
84517W        W57585   0.934   2.245   3.726
84518W        W57586   1.219   3.484  12.443
84519W        W57587  44.907  23.070   0.023
84520W        W57588  28.788   5.162  10.696
84521W        W57589  12.973  10.433   2.696
84522W        W57590  33.064   8.145  10.878
84523W        W57591   3.749  27.617   4.614
84524W        W57592  33.182  12.849  11.594
84525W        W57593  12.339  36.061  13.339
84526W        W57594  39.514  19.981   3.596
84527W        W57595   7.878  32.620  10.823
84528W        W57596  20.526  14.787  14.796
84529W        W57597  23.011   4.854  14.950
84530W        W57598  44.737  34.624   0.848
84531W        W57599  12.629  28.088   2.822
84532W        W57600   7.429   7.691   2.819
84533W        W57601   5.151  14.209   2.156
84534W        W57602  40.677  30.652   4.832
84535W        W57603  29.705  21.533  13.221
84536W        W57604  37.953  34.865   3.436
84537W        W57605  10.667   6.574   0.461
84538W        W57606  41.545  35.611  12.499
84539W        W57607   1.761  15.100  14.939
84540W        W57608  11.884  34.870   0.358
84541W        W57609  43.941  16.670  10.987
84542W        W57610   9.294  14.003  10.919
84543W        W57611   5.994  42.250   3.568
84544W        W57612  11.756  15.903  13.983
84545W        W57613  27.687   0.258  11.959
84546W        W57614  43.297   2.956   4.166
84547W        W57615   5.109  31.403   1.222
84548W        W57616  17.149  12.590  14.552
84549W        W57617   5.837   4.467   3.580
84550W        W57618  39.751  35.418   2.260
84551W        W57619  36.817  31.813  14.314
84552W        W57620  12.283   4.657  14.385
84553W        W57621   9.756  25.979   1.920
84554W        W57622  12.328  39.371  10.768
84555W        W57623   8.083  21.640   4.095
84556W        W57624  30.725  26.997   4.163
84557W        W57625   6.182  42.987   2.247
84558W        W57626  40.331  13.111  11.060
84559W        W57627  12.425  17.723   3.312
84560W        W57628  38.294  16.119   1.327
84561W        W57629  13.615   8.344   4.695
84562W        W57630  25.072   2.257   1.900
84563W        W57631  44.028  14.239   1.961
84564W        W57632  21.328  16.087  13.922
84565W        W57633   9.666  19.790   3.510
84566W        W57634  28.255  40.895  11.690
84567W        W57635  11.699  40.411   0.728
84568W        W57636  41.279  23.639   3.747
84569W        W57637  14.253  17.150  10.652
84570W        W57638   0.332  10.848   0.761
84571W        W57639  24.022  26.178  11.960
84572W        W57640  32.347   3.934   3.297
84573W        W57641   2.129  37.532   2.381
84574W        W57642   3.484  28.873   2.847
84575W        W57643  20.315  44.522  10.669
84576W        W57644  23.895   0.968   3.805
84577W        W57645  16.389  21.981   3.242
84578W        W57646  40.837  29.683  11.589
84579W        W57647   8.151  34.436   1.609
84580W        W57648  22.298  35.578  12.937
84581W        W57649   9.759  19.955   1.113
84582W        W57650  15.847   1.769   0.053
84583W        W57651   9.180   2.331   0.604
84584W        W57652  27.703  36.016   2.829
84585W        W57653  40.590   7.382  14.256
84586W        W57654   2.349  18.800  11.552
84587W        W57655  27.706   6.430  13.440
84588W        W57656  13.305  29.917  14.106
84589W        W57657  26.209  21.072   1.337
84590W        W57658  19.277  15.494   1.651
84591W        W57659  39.515   3.720  12.878
84592W        W57660   6.894   0.583   0.025
84593W        W57661   8.667  12.965  12.198
84594W        W57662  36.101   1.257  12.455
84595W        W57663  16.515   1.774  11.656
84596W        W57664  37.311  40.007   0.876
84597W        W57665  10.939  31.583   2.762
84598W        W57666  34.391   2.715   4.187
84599W        W57667   4.464  39.665   9.834
84600W        W57668  41.278  14.627   3.593
84601W        W57669  23.511  29.496  11.999
84602W        W57670  43.305  25.941   1.315
84603W        W57671  20.796  18.628   4.931
84604W        W57672   5.569  41.504  10.629
84605W        W57673   0.894  27.531  13.360
84606W        W57674  21.262  37.872  14.682
84607W        W57675  30.472  12.739   4.603
84608W        W57676  22.972  23.053   1.033
84609W        W57677  19.025  35.447   4.717
84610W        W57678  16.718  10.553  13.442
84611W        W57679  28.939  38.882  11.566
84612W        W57680   9.682  14.253   0.474
84613W        W57681  37.229   8.187   2.735
84614W        W57682  42.237  32.767  13.040
84615W        W57683  42.511  34.231   1.452
84616W        W57684  35.759  20.321   2.192
84617W        W57685  18.023   2.751   2.876
84618W        W57686  12.124  30.634   0.965
84619W        W57687  28.665  26.640   2.807
84620W        W57688   5.733  24.384  14.014
84621W        W57689  29.502  22.030  13.308
84622W        W57690   2.297  37.457  12.646
84623W        W57691  36.178  44.004  11.065
84624W        W57692  13.447   9.203  13.318
84625W        W57693  14.265  24.147   2.793
84626W        W57694   2.716  22.427  11.951
84627W        W57695  23.230  15.063   0.782
84628W        W57696  19.008   6.142   0.279
84629W        W57697  38.021  18.530   2.527
84630W        W57698  37.137   6.460   2.138
84631W        W57699  15.212  21.537  13.477
84632W        W57700  19.598   8.341   0.461
84633W        W57701  40.872  13.937  12.076
84634W        W57702   4.019   8.740  12.037
84635W        W57703  29.756  32.924  14.544
84636W        W57704   6.745   3.851   0.619
84637W        W57705  13.733   3.014  11.932
84638W        W57706  29.647   3.196  11.210
84639W        W57707  17.263  34.453  11.239
84640W        W57708  21.480  22.969   2.358
84641W        W57709  15.226  42.242   2.434
84642W        W57710  24.626  11.329  10.602
84643W        W57711  44.058  32.864  12.526
84644W        W57712  36.818  42.246  11.646
84645W        W57713  34.570  25.061  14.553
84646W        W57714  28.998  39.822   0.212
84647W        W57715   9.860  39.811  13.753
84648W        W57716  23.013   4.415   0.874
84649W        W57717  43.779  12.971   0.379
84650W        W57718  19.537  13.544   3.165
84651W        W57719  25.986  30.143   1.272
84652W        W57720  21.213  29.505  11.224
84653W        W57721  13.108  21.722   2.778
84654W        W57722  31.410  25.546  10.665
84655W        W57723   0.576  25.779  12.394
84656W        W57724  20.677  12.311   1.402
84657W        W57725  44.327   1.714   9.810
84658W        W57726  40.647  12.905   1.979
84659W        W57727  25.722  36.481   2.680
84660W        W57728  22.196  38.162  12.585
84661W        W57729  20.727  37.559  10.594
84662W        W57730  22.144  40.811  12.006
84663W        W57731  34.230  23.619   0.244
84664W        W57732  41.055  28.293  14.278
84665W        W57733   8.810   8.041   3.303
84666W        W57734  27.169   4.046   2.367
84667W        W57735  24.394  34.490  13.328
84668W        W57736  17.599   0.861   4.466
84669W        W57737  39.924   7.964  10.201
84670W        W57738  29.635   9.738  13.609
84671W        W57739  40.861  21.826   1.228
84672W        W57740  44.807  40.991   1.340
84673W        W57741   1.357  34.546  14.342
84674W        W57742  20.822  35.456   1.339
84675W        W57743  24.631  35.517   1.391
84676W        W57744  27.473  39.808   1.759
84677W        W57745  29.121   7.877   1.701
84678W        W57746  43.579  15.973  10.778
84679W        W57747  12.894  30.924   1.510
84680W        W57748  31.706  34.963   4.138
84681W        W57749  38.932  39.407  14.112
84682W        W57750   1.435  43.992  12.277
84683W        W57751  37.789  40.842  10.606
84684W        W57752  31.164   8.213   2.023
84685W        W57753   8.827  13.300   3.882
84686W        W57754  11.305   7.862   0.047
84687W        W57755  41.262  19.022  11.400
84688W        W57756   4.416  27.562  11.400
84689W        W57757  32.606  20.504  12.391
84690W        W57758  27.079   2.841  10.903
84691W        W57759  12.794  12.745   4.297
84692W        W57760  13.060  28.003   9.797
84693W        W57761   4.971   1.233   4.983
84694W        W57762  33.961  30.087  11.180
84695W        W57763  15.998   4.404   3.424
84696W        W57764   6.295  38.890   3.576
84697W        W57765   1.027  13.984   4.188
84698W        W57766   0.331  23.638   4.514
84699W        W57767  16.065  39.446  14.731
84700W        W57768   7.369   4.828  14.061
84701W        W57769  25.629   2.744  13.521
84702W        W57770  13.831   0.417   0.394
84703W        W57771  41.437  39.978  11.634
84704W        W57772   0.843  10.072  13.094
84705W        W57773  13.253   9.244   0.075
84706W        W57774  21.702  42.014   0.008
84707W        W57775  29.573  11.196   4.212
84708W        W57776  17.305  36.803  13.912
84709W        W57777  31.243  28.560  11.150
84710W        W57778  20.584  37.316   1.570
84711W        W57779  14.376  30.426   3.280
84712W        W57780  16.827  42.475  11.366
84713W        W57781  21.607  33.106  14.976
84714W        W57782  21.609  13.871   3.715
84715W        W57783   4.371  14.063  14.822
84716W        W57784  15.290  37.321  11.024
84717W        W57785   8.319  31.781  11.171
84718W        W57786  31.825  24.983  12.521
84719W        W57787  37.346   5.651  12.668
84720W        W57788  31.538   6.948   2.365
84721W        W57789  17.137   3.247  10.514
84722W        W57790   8.208  13.555  14.425
84723W        W57791   2.412  33.269   3.255
84724W        W57792   7.899  20.859  13.141
84725W        W57793  12.553  39.086  11.136
84726W        W57794  36.855  29.868   3.393
84727W        W57795  36.013  33.537   2.467
84728W        W57796  33.908  33.296  14.843
84729W        W57797   0.466  38.778  11.007
84730W        W57798  19.612  29.618   3.559
84731W        W57799   8.595  10.302   4.540
84732W        W57800  18.085  27.473   0.806
84733W        W57801  18.654   0.976  13.849
84734W        W57802   4.604  40.557   4.512
84735W        W57803  31.830   7.814   1.841
84736W        W57804  40.578  36.540   2.824
84737W        W57805   0.868   9.869  10.040
84738W        W57806  35.688  12.189  11.518
84739W        W57807  14.394   5.346   0.123
84740W        W57808  28.585  32.049  13.855
84741W        W57809  16.798   5.772   0.702
84742W        W57810  25.150  24.071   0.759
84743W        W57811   5.377   5.476  14.007
84744W        W57812  13.061  11.924   3.222
84745W        W57813   2.759  43.464  11.690
84746W        W57814  15.430   0.543   4.193
84747W        W57815  21.738   1.971   0.760
84748W        W57816  38.794  43.306   3.698
84749W        W57817  44.538  18.646   0.231
84750W        W57818  34.646   7.275  13.550
84751W        W57819   7.178  18.115   4.660
84752W        W57820  12.675  36.357  14.321
84753W        W57821  35.388  21.239  13.564
84754W        W57822   9.665  15.618   1.730
84755W        W57823  31.052  37.436  11.272
84756W        W57824  35.810  18.696  12.750
84757W        W57825  27.912  11.541  14.990
84758W        W57826  13.331  25.154  12.067
84759W        W57827  10.855  23.423  11.877
84760W        W57828  20.269  27.979  12.246
84761W        W57829  25.063   1.549   0.426
84762W        W57830  39.932   9.777   0.811
84763W        W57831  28.153  10.459  10.895
84764W        W57832  39.877   5.192   1.199
84765W        W57833  35.411   6.898   0.970
84766W        W57834  18.300   2.335   3.141
84767W        W57835   1.546  13.768  12.382
84768W        W57836  44.922  18.778  13.328
84769W        W57837   2.000  17.213  14.446
84770W        W57838   7.657  22.602   1.401
84771W        W57839  14.346  26.119   1.820
84772W        W57840  18.999  19.753   2.892
84773W        W57841  24.482  30.713   3.304
84774W        W57842  10.680  10.859  12.028
84775W        W57843   4.978  12.394   2.836
84776W        W57844  27.979   5.845   0.050
84777W        W57845   0.829  26.707  12.386
84778W        W57846   8.768   3.269  13.006
84779W        W57847  29.632  30.212  11.088
84780W        W57848  28.626  32.519  14.633
84781W        W57849  11.403  31.016  10.707
84782W        W57850  40.353   6.306   4.786
84783W        W57851   5.290  18.703  11.892
84784W        W57852  11.708   5.680  13.290
84785W        W57853  27.962  32.072  10.673
84786W        W57854  38.861  38.332   3.777
84787W        W57855   4.972   2.902  10.794
84788W        W57856  20.194  36.279   3.201
84789W        W57857  26.006  12.255  12.980
84790W        W57858  32.344  30.129  12.263
84791W        W57859  39.729  16.214  14.021
84792W        W57860  17.041  38.320  10.428
84793W        W57861  31.506  18.743  13.348
84794W        W57862   3.962  20.666   4.227
84795W        W57863  38.733   4.546   1.272
84796W        W57864  29.063  21.436   3.155
84797W        W57865  37.500  24.182  13.677
84798W        W57866   0.444   4.216   3.461
84799W        W57867  41.995  33.005   2.613
84800W        W57868  35.008  28.484  12.018
84801W        W57869  37.418  26.935   2.342
84802W        W57870  41.210  28.627   2.631
84803W        W57871   4.780  19.369  12.906
84804W        W57872  33.082  18.012  13.016
84805W        W57873  32.143   4.938   2.341
84806W        W57874  25.118  36.133  12.462
84807W        W57875  13.109  25.529   3.099
84808W        W57876  12.881  28.519  10.697
84809W        W57877  40.686  26.803   1.751
84810W        W57878  13.555  44.303   4.537
84811W        W57879  34.819   5.457   1.801
84812W        W57880   5.980   9.944  10.708
84813W        W57881   1.388  25.718   0.348
84814W        W57882  30.633  21.230   0.498
84815W        W57883  12.618  22.773   0.911
84816W        W57884  16.789   1.013   2.248
84817W        W57885  39.764  30.563   1.701
84818W        W57886  20.397  43.886   0.316
84819W        W57887  10.886  44.279   1.416
84820W        W57888   4.465  12.398  11.642
84821W        W57889   4.251  40.335  13.830
84822W        W57890  17.186  10.464  13.226
84823W        W57891  38.454  11.137   3.845
84824W        W57892  19.955  30.656  10.969
84825W        W57893   3.291  32.589  13.832
84826W        W57894  29.795  26.998   2.163
84827W        W57895  23.114   4.842   4.701
84828W        W57896   9.669  39.760  13.267
84829W        W57897  18.303  21.152  12.871
84830W        W57898  11.858   1.197   1.308
84831W        W57899   0.267   4.753   3.593
84832W        W57900  22.649   1.071   2.654
84833W        W57901   9.500  37.801  11.519
84834W        W57902  17.913  37.312   1.261
84835W        W57903  31.696   1.390  14.479
84836W        W57904  20.510  30.073  12.454
84837W        W57905  21.948  10.671  13.444
84838W        W57906  24.932  21.726  10.744
84839W        W57907   7.772   1.691  10.239
84840W        W57908   5.303  17.217  10.390
84841W        W57909   3.209  28.941  14.861
84842W        W57910  41.933  20.306   0.275
84843W        W57911   1.426  10.784  11.174
84844W        W57912  35.366  27.096  13.045
84845W        W57913  11.893  26.192  13.921
84846W        W57914  38.486  42.034  12.879
84847W        W57915  22.488   3.750   1.362
84848W        W57916  19.068  10.891  12.297
84849W        W57917   3.974  26.692   4.977
84850W        W57918  11.684  11.320   3.696
84851W        W57919  25.172   2.975  12.395
84852W        W57920  22.742  17.704  13.831
84853W        W57921   6.743  41.453  13.736
84854W        W57922  13.349  19.312   3.818
84855W        W57923  18.623  30.001   4.770
84856W        W57924  12.866   3.918   0.410
84857W        W57925  39.882   4.036   4.852
84858W        W57926   8.324   0.501   1.780
84859W        W57927  16.277   7.965  11.625
84860W        W57928  22.909  20.138  14.760
84861W        W57929  10.456  13.845   4.652
84862W        W57930  41.016  10.686  11.520
84863W        W57931  41.099   8.186   3.149
84864W        W57932  37.965   2.674  14.676
84865W        W57933  36.910  19.838  10.747
84866W        W57934  38.788  10.007   4.976
84867W        W57935  12.124  37.290   0.791
84868W        W57936  41.057  21.685   1.683
84869W        W57937   6.225   0.510  13.947
84870W        W57938  18.347  18.970  11.096
84871W        W57939  31.380  13.684   3.259
84872W        W57940  14.778  33.388  13.475
84873W        W57941  31.933  17.128  10.663
84874W        W57942   2.874  37.927  11.529
84875W        W57943   1.633  32.589   4.110
84876W        W57944   7.170  29.621  13.959
84877W        W57945  16.229  32.180   3.555
84878W        W57946  16.819  21.090  11.515
84879W        W57947  13.681  35.055   4.176
84880W        W57948   8.869  43.890  13.943
84881W        W57949  11.121  10.301  10.547
84882W        W57950  17.074  10.774  11.508
84883W        W57951   5.335  40.016  14.764
84884W        W57952  43.799  36.886  14.097
84885W        W57953  24.604   8.889   2.176
84886W        W57954   3.404  41.514  10.614
84887W        W57955  20.964   7.450   3.994
84888W        W57956  33.398  31.418   0.284
84889W        W57957  30.249  32.934   2.743
84890W        W57958  19.647  33.909  14.766
84891W        W57959  22.999  20.576   1.929
84892W        W57960  32.538   7.103  12.911
84893W        W57961  22.030  21.420  14.729
84894W        W57962   9.431  39.295  14.582
84895W        W57963  32.764  44.196  10.945
84896W        W57964  11.667  37.261   2.809
84897W        W57965  22.137  31.009   0.799
84898W        W57966  21.773   5.824   3.721
84899W        W57967  13.859   6.263   0.218
84900W        W57968  12.237  26.510   3.205
84901W        W57969  41.957  35.764   2.682
84902W        W57970  13.353  34.596  13.630
84903W        W57971  17.190  35.777   1.849
84904W        W57972   0.326  19.956   0.930
84905W        W57973  27.067  27.655  10.670
84906W        W57974  31.590  35.543  10.287
84907W        W57975  39.575  16.511  14.430
84908W        W57976  40.007  21.557   3.142
84909W        W57977   3.353   9.413  11.565
84910W        W57978  24.858  30.125  11.992
84911W        W57979  28.205  14.653   0.450
84912W        W57980  38.794   6.851   1.347
84913W        W57981  36.054   1.039   3.156
84914W        W57982  15.952   3.939   3.660
84915W        W57983   8.568  44.598  14.900
84916W        W57984  26.051  39.392   2.663
84917W        W57985  16.010  42.034  11.540
84918W        W57986   7.734  13.648   1.692
84919W        W57987   4.767  34.766   4.194
84920W        W57988  20.197   9.277   4.537
84921W        W57989  11.726  25.713   4.293
84922W        W57990  19.095  32.005   1.717
84923W        W57991   8.136  21.506  12.385
84924W        W57992  32.617   2.480   4.159
84925W        W57993  33.945   3.702   1.816
84926W        W57994  39.805  20.984  11.623
84927W        W57995  24.066  39.553   2.727
84928W        W57996  20.033   1.042  12.547
84929W        W57997  38.254   3.664   2.293
84930W        W57998  37.386   8.271   1.057
84931W        W57999  22.096  14.352   4.048
84932W        W58000  38.812   5.901  13.554
84933W        W58001  12.339  39.875   3.662
84934W        W58002  31.049  44.696  13.858
84935W        W58003  43.958   9.821   0.241
84936W        W58004  32.858  22.946  14.930
84937W        W58005   6.407  23.522   2.005
84938W        W58006  44.950  15.180   4.426
84939W        W58007  28.926  31.499  12.137
84940W        W58008  37.097   0.658   0.471
84941W        W58009  33.117  20.595   2.964
84942W        W58010  41.522  27.483  13.561
84943W        W58011  19.160  34.745  11.010
84944W        W58012  20.555  43.887   2.576
84945W        W58013  24.207   3.504   3.387
84946W        W58014  27.712  26.454   1.854
84947W        W58015  25.907  31.536   0.954
84948W        W58016  39.876  15.853   4.483
84949W        W58017  27.147  23.286  14.283
84950W        W58018  21.593  27.660   3.374
84951W        W58019  12.078  32.340   4.508
84952W        W58020  14.100  11.684  13.545
84953W        W58021  21.414  31.820   3.666
84954W        W58022  44.956  25.597  14.704
84955W        W58023  26.714  30.382   3.777
84956W        W58024  44.926  25.995   3.127
84957W        W58025   5.296   0.693   4.161
84958W        W58026  38.093  12.292   2.777
84959W        W58027  23.279   7.359   0.881
84960W        W58028  23.640  41.446  12.862
84961W        W58029  31.821   7.922  12.658
84962W        W58030  41.001   1.792   2.392
84963W        W58031  23.116   1.244   2.834
84964W        W58032   0.794  22.843   2.339
84965W        W58033  37.902  21.773   4.659
84966W        W58034  29.411  13.680  10.633
84967W        W58035   1.504  38.762   3.325
84968W        W58036  11.995  30.726  11.277
84969W        W58037  34.097  41.980   0.721
84970W        W58038  34.402  18.616  11.410
84971W        W58039  34.525  19.086  12.530
84972W        W58040   4.767  12.559  10.753
84973W        W58041  38.017  26.648   2.395
84974W        W58042  31.197  18.324  13.300
84975W        W58043  33.440  41.337   4.243
84976W        W58044  37.105  37.766  13.562
84977W        W58045  19.686  16.020  10.762
84978W        W58046  44.325  34.753  14.243
84979W        W58047  27.706  31.886   4.794
84980W        W58048  35.516  42.716   1.766
84981W        W58049  34.052   6.999  14.610
84982W        W58050  29.900  30.972  13.390
84983W        W58051  18.267  34.653  13.443
84984W        W58052  39.730   0.958  14.358
84985W        W58053  22.725   9.313   3.403
84986W        W58054  18.274  40.402  12.119
84987W        W58055  21.276  18.812  14.109
84988W        W58056   6.757  32.688  12.039
84989W        W58057  38.508   2.382  11.458
84990W        W58058  15.355  34.515  13.436
84991W        W58059  20.772  23.780  11.042
84992W        W58060  23.072  39.429  13.409
84993W        W58061   0.463   1.865  13.057
84994W        W58062   8.329  32.666  14.420
84995W        W58063  39.778  33.655  14.926
84996W        W58064   8.116  33.153   0.288
84997W        W58065  14.146   6.335   3.754
84998W        W58066  12.376   4.357  13.343
84999W        W58067  16.929  44.444  10.779
85000W        W58068  35.844  30.107   0.791
85001W        W58069  32.521  10.994  10.077
85002W        W58070  43.854  17.761  12.493
85003W        W58071  21.412   8.733   4.337
85004W        W58072   8.226  42.368   0.468
85005W        W58073  23.199  34.884  10.581
85006W        W58074  29.492  32.504   2.550
85007W        W58075   9.390  16.093  14.301
85008W        W58076  31.749  32.893   0.445
85009W        W58077   9.780  13.829   1.723
85010W        W58078  17.051   3.201   2.291
85011W        W58079  21.468  38.829   1.928
85012W        W58080  24.595  44.857  10.410
85013W        W58081  26.971  24.577   0.901
85014W        W58082  13.385   3.137  13.841
85015W        W58083   9.219  43.001   0.712
85016W        W58084  11.837   8.624   0.248
85017W        W58085  26.921  36.962  11.142
85018W        W58086  31.909   7.084   0.777
85019W        W58087   7.650  35.041  11.669
85020W        W58088  32.002   7.112   2.229
85021W        W58089  22.188  19.147  14.399
85022W        W58090   3.656   3.845  11.121
85023W        W58091  16.377  35.025   4.170
85024W        W58092  34.355  35.832  10.772
85025W        W58093  24.194  13.140  13.425
85026W        W58094  40.952  14.212  10.430
85027W        W58095   8.285  29.577  14.303
85028W        W58096   7.868  34.120   3.817
85029W        W58097  36.980  40.445   1.949
85030W        W58098  13.349  35.073  10.964
85031W        W58099   9.928  20.398  14.292
85032W        W58100  21.133  16.545  11.771
85033W        W58101   1.210  38.403   3.563
85034W        W58102  34.929  17.333   1.301
85035W        W58103  44.542  42.761   2.466
85036W        W58104   2.000  42.637   2.749
85037W        W58105   0.809  26.658  13.955
85038W        W58106  44.443  22.473   0.764
85039W        W58107  18.813  28.987   1.330
85040W        W58108  20.221  41.482  14.481
85041W        W58109  19.461  27.166  14.491
85042W        W58110   0.996  17.780  14.302
85043W        W58111  10.188  16.090  12.579
85044W        W58112   3.329  33.712   4.759
85045W        W58113  41.075  31.445  12.016
85046W        W58114   1.746  18.176  11.539
85047W        W58115   7.255  18.764  12.080
85048W        W58116  42.637   5.246   4.227
85049W        W58117  11.195   1.468   3.225
85050W        W58118  25.586  21.584   3.581
85051W        W58119  16.782   5.486   4.760
85052W        W58120  42.001  36.269   2.637
85053W        W58121  15.696   9.658  12.438
85054W        W58122  36.678  22.493  14.912
85055W        W58123   9.685  22.487  12.294
85056W        W58124  33.993   7.769  13.831
85057W        W58125  14.327  36.872   4.281
85058W        W58126   2.989  33.128  11.620
85059W        W58127  34.496  15.542   3.859
85060W        W58128  25.519  44.792   1.227
85061W        W58129  16.536  26.972  14.394
85062W        W58130  42.273  21.349   1.136
85063W        W58131   0.882  18.603  12.051
85064W        W58132  29.030   5.837   4.110
85065W        W58133  27.061   9.840   4.539
85066W        W58134  21.690  21.810   4.268
85067W        W58135  19.617  37.998   2.805
85068W        W58136  14.891   3.652  11.505
85069W        W58137  11.465   4.949  12.586
85070W        W58138  10.275  15.757   4.656
85071W        W58139   4.713  11.742  12.548
85072W        W58140   2.336   8.293   0.386
85073W        W58141  29.375  21.207   0.285
85074W        W58142  17.085  23.221  12.097
85075W        W58143  27.111  34.261  11.106
85076W        W58144   9.471   7.343  14.437
85077W        W58145  27.085  37.019   4.033
85078W        W58146   7.016   3.734  10.973
85079W        W58147  12.812  20.011   4.238
85080W        W58148  33.415   8.218  11.881
85081W        W58149  41.766   5.774  14.664
85082W        W58150  10.195  33.887  13.915
85083W        W58151   3.277   2.255  13.994
85084W        W58152  33.764  20.449   3.915
85085W        W58153  10.596   5.924   2.226
85086W        W58154  32.078  11.161   3.557
85087W        W58155  18.559  10.191   9.963
85088W        W58156   8.723  31.524   3.134
85089W        W58157   5.280  44.102  10.610
85090W        W58158   3.947  12.410  13.487
85091W        W58159  22.425  30.460   2.305
85092W        W58160  11.211   8.629   4.071
85093W        W58161  39.000   8.574  12.489
85094W        W58162  21.049  28.996  14.093
85095W        W58163  40.866   7.359   5.225
85096W        W58164  40.585  39.786  14.417
85097W        W58165  11.383  35.039  13.509
85098W        W58166  16.268  25.142  14.895
85099W        W58167  11.212  21.143   2.174
85100W        W58168  17.817  15.812  14.318
85101W        W58169  30.440  38.006   4.616
85102W        W58170  14.851  26.336   1.183
85103W        W58171   3.033  25.763   1.573
85104W        W58172  20.624  27.086   4.743
85105W        W58173   1.049  17.957   0.806
85106W        W58174  26.406  29.681   1.851
85107W        W58175  14.324  13.114   3.220
85108W        W58176  42.526  18.522  13.378
85109W        W58177  22.037   5.246  14.259
85110W        W58178   0.648  36.916  11.326
85111W        W58179  41.552  26.252  13.562
85112W        W58180   2.738   8.354   4.210
85113W        W58181  41.503  42.312  13.037
85114W        W58182  13.383  29.194   3.743
85115W        W58183   7.690   0.012   0.277
85116W        W58184  22.771  27.259   0.030
85117W        W58185  44.311  41.302   2.904
85118W        W58186  41.047  20.325  13.250
85119W        W58187  33.154  11.381   2.230
85120W        W58188  24.598  36.375  10.673
85121W        W58189   2.240   7.832  13.989
85122W        W58190   3.215  36.559   0.201
85123W        W58191  18.181  42.353  14.552
85124W        W58192   9.862  26.252  10.291
85125W        W58193  20.272  23.743   3.765
85126W        W58194  22.056  20.656   1.927
85127W        W58195  27.146  22.031   4.610
85128W        W58196  41.940  14.788  14.992
85129W        W58197  40.361  35.167   2.704
85130W        W58198  35.138  32.497  13.528
85131W        W58199  11.349  26.199  13.955
85132W        W58200  24.045  33.075  13.011
85133W        W58201  24.175  11.033   4.571
85134W        W58202  35.646  29.487  10.921
85135W        W58203   8.943  41.041   4.245
85136W        W58204   2.378  19.040   0.309
85137W        W58205   5.064  40.250  11.133
85138W        W58206  23.460  39.468  10.676
85139W        W58207  31.709  34.164  12.891
85140W        W58208  28.641   4.490  11.240
85141W        W58209  25.332  39.234   1.102
85142W        W58210  18.642  41.236   5.006
85143W        W58211  18.513  37.577   2.238
85144W        W58212  19.889   6.504   1.694
85145W        W58213   0.252   1.933  14.081
85146W        W58214   5.448  10.868  13.415
85147W        W58215  30.078  41.315  14.594
85148W        W58216   6.917  19.995   1.257
85149W        W58217  15.984   2.047  13.346
85150W        W58218  14.105   8.520  10.290
85151W        W58219  28.532  23.344  10.626
85152W        W58220  20.719  16.837  14.318
85153W        W58221  37.599  34.835   0.737
85154W        W58222  11.539  42.905  11.153
85155W        W58223   3.653  16.114   1.425
85156W        W58224  17.060  29.462   3.665
85157W        W58225  13.425   1.263  12.031
85158W        W58226  12.449  29.200   2.401
85159W        W58227  35.758  38.352  14.816
85160W        W58228  12.902  27.477  13.938
85161W        W58229  23.070  35.159  14.577
85162W        W58230  27.694   8.688   4.380
85163W        W58231   4.006   6.091   0.411
85164W        W58232  30.449  26.566   4.111
85165W        W58233  29.021  35.991   0.545
85166W        W58234  21.005  35.900  14.013
85167W        W58235  33.491  23.083  11.111
85168W        W58236  15.495  24.469  13.875
85169W        W58237   2.760   8.771  11.402
85170W        W58238  38.909  27.580  11.655
85171W        W58239  14.008  10.716  12.525
85172W        W58240  32.898  22.726  12.589
85173W        W58241  17.430   0.446   1.270
85174W        W58242   0.330  40.597  12.574
85175W        W58243  36.388  30.194   3.637
85176W        W58244  22.654  14.831  11.545
85177W        W58245  22.877  37.467  12.335
85178W        W58246  39.370   8.096   0.347
85179W        W58247  11.859   1.762   4.524
85180W        W58248   8.875  19.653  13.574
85181W        W58249  33.513  27.223   1.512
85182W        W58250  24.999  39.896   4.091
85183W        W58251  15.861  41.332   0.604
85184W        W58252  15.659   0.250   4.635
85185W        W58253  37.969  33.631   4.520
85186W        W58254   3.895  36.433   3.293
85187W        W58255  28.008  33.406  11.584
85188W        W58256  34.991  42.324   1.731
85189W        W58257  21.556  22.484   2.178
85190W        W58258  23.990  33.588   4.181
85191W        W58259  13.682  30.020  13.279
85192W        W58260  11.603  17.076  11.101
85193W        W58261  14.753  23.203  10.431
85194W        W58262  26.068  10.206   4.160
85195W        W58263  10.538  31.456   0.877
85196W        W58264  36.859   8.387  13.244
85197W        W58265  32.535  15.841   2.884
85198W        W58266  34.877   0.942   0.945
85199W        W58267  26.938  34.458  12.679
85200W        W58268  22.091  27.387  12.589
85201W        W58269  17.153  32.911  12.408
85202W        W58270  15.836  29.894   2.219
85203W        W58271  24.122  43.105   4.633
85204W        W58272  27.528  14.091  12.529
85205W        W58273  32.390   6.674   3.324
85206W        W58274  21.717  34.668  12.793
85207W        W58275   4.260  41.606   3.852
85208W        W58276  31.861   0.233  11.506
85209W        W58277   6.017   4.684  11.150
85210W        W58278  24.692  14.055  11.537
85211W        W58279  25.088  29.440  12.450
85212W        W58280  12.928   7.133  10.145
85213W        W58281  27.572  10.183  13.308
85214W        W58282  14.015   3.428  12.078
85215W        W58283   7.262  10.197   3.138
85216W        W58284  41.961   3.969  14.369
85217W        W58285  41.483  11.653  13.945
85218W        W58286  36.528   9.698   0.488
85219W        W58287  20.586   0.920   9.941
85220W        W58288  30.594  34.935   1.345
85221W        W58289  29.992  31.827   3.317
85222W        W58290  32.727  44.888  13.438
85223W        W58291  18.938  24.484   1.469
85224W        W58292  15.194  16.230  13.926
85225W        W58293  18.160  18.747  13.330
85226W        W58294  25.177  41.043   3.729
85227W        W58295   1.495  14.183   2.106
85228W        W58296  16.412  26.298  11.623
85229W        W58297  15.410  33.567   2.361
85230W        W58298  19.175  30.134   3.233
85231W        W58299  32.963  39.595  12.122
85232W        W58300  35.062   9.323   1.219
85233W        W58301   4.929  35.302   4.139
85234W        W58302  22.687  40.317   1.299
85235W        W58303   4.096  30.099   1.355
85236W        W58304  15.253  27.390   2.803
85237W        W58305  17.947  33.944  13.030
85238W        W58306  37.977   2.169  14.811
85239W        W58307  24.701  39.905   0.882
85240W        W58308  40.253  17.147   0.742
85241W        W58309  27.781   5.214  10.638
85242W        W58310  40.883  28.740  14.999
85243W        W58311  11.081  31.929  11.161
85244W        W58312   0.913  38.144  13.929
85245W        W58313  24.529  40.958   2.513
85246W        W58314  34.085   4.868   3.236
85247W        W58315   8.750  14.658  13.538
85248W        W58316   7.661  27.184   3.153
85249W        W58317  44.900  23.523   3.644
85250W        W58318   2.741   5.364  13.000
85251W        W58319   0.676  31.996   1.308
85252W        W58320   3.390   3.632  10.719
85253W        W58321  17.202  33.129  12.880
85254W        W58322  41.722  28.156  12.104
85255W        W58323  36.371  13.350   0.297
85256W        W58324   6.666   2.767   3.675
85257W        W58325  29.382  44.756  14.870
85258W        W58326  31.666  30.971   3.771
85259W        W58327  42.236  43.607   2.771
85260W        W58328   9.894  39.499   4.086
85261W        W58329  31.003  28.629  13.483
85262W        W58330  24.412  40.634   3.224
85263W        W58331  29.643  35.388   0.299
85264W        W58332  35.416  12.653   1.162
85265W        W58333  24.660  21.197  13.100
85266W        W58334  27.033  19.575   0.429
85267W        W58335  33.912  34.485   2.599
85268W        W58336   2.056  21.580   3.677
85269W        W58337   1.838  31.385   4.663
85270W        W58338  23.507   5.678  13.707
85271W        W58339  37.595  42.824   3.147
85272W        W58340  27.201  11.278   4.619
85273W        W58341  42.562  17.102  14.266
85274W        W58342  37.779  16.297  12.368
85275W        W58343  40.591  17.276   1.100
85276W        W58344   0.978  37.439   3.647
85277W        W58345  32.812  39.019   4.192
85278W        W58346  42.406  40.931   3.816
85279W        W58347   0.019  10.746   1.920
85280W        W58348  42.008   0.197   1.933
85281W        W58349  18.182  42.248  13.398
85282W        W58350  22.727  23.562   3.191
85283W        W58351  37.452   2.824  12.358
85284W        W58352  30.493  28.692  12.108
85285W        W58353  13.709  24.930   0.938
85286W        W58354  29.046   9.193   3.646
85287W        W58355  36.990   6.904  14.831
85288W        W58356  12.112  41.925  11.534
85289W        W58357   2.224  26.610   4.074
85290W        W58358   9.465   7.886   0.453
85291W        W58359  24.764  37.438   5.099
85292W        W58360  22.266  35.865   0.317
85293W        W58361  29.672   0.307  12.492
85294W        W58362  41.338  32.660  12.587
85295W        W58363  15.559  32.810   2.661
85296W        W58364  34.254  19.406  12.225
85297W        W58365  40.568  19.355   0.794
85298W        W58366   1.870  35.296   0.514
85299W        W58367  17.184  22.296   1.695
85300W        W58368  39.814  38.845   2.735
85301W        W58369   7.362   8.895   4.575
85302W        W58370  23.725  43.949   4.600
85303W        W58371  13.062   2.878  14.727
85304W        W58372  26.511   2.244  11.221
85305W        W58373  31.613   1.213   4.312
85306W        W58374   2.954   2.908   2.900
85307W        W58375  42.337  24.108  13.437
85308W        W58376   0.835  40.086  13.812
85309W        W58377  35.963  19.844   0.271
85310W        W58378   3.687   4.357  11.169
85311W        W58379  37.563  18.745  13.373
85312W        W58380  32.824  17.586   4.182
85313W        W58381  14.878   7.282  14.571
85314W        W58382   7.461  42.612   0.836
85315W        W58383  10.185  36.887   0.815
85316W        W58384  29.606  15.662  13.533
85317W        W58385   3.047   1.271   3.175
85318W        W58386  41.537  27.022  10.642
85319W        W58387  15.102  32.893  14.613
85320W        W58388  32.176  37.834  10.458
85321W        W58389  16.564  25.583  10.775
85322W        W58390  21.292  35.072   4.077
85323W        W58391  21.250  13.829  14.062
85324W        W58392  35.887   6.957   1.959
85325W        W58393  27.174   0.051  14.063
85326W        W58394  14.399   0.899   3.362
85327W        W58395  23.774   2.980   0.330
85328W        W58396  29.085  20.592  11.536
85329W        W58397  10.186  24.979   2.726
85330W        W58398  30.029  31.379   1.154
85331W        W58399  36.271  29.050   3.275
85332W        W58400  43.424  32.028   0.112
85333W        W58401   1.424  25.927   0.844
85334W        W58402  31.440  16.276   2.661
85335W        W58403   3.305  38.005  13.146
85336W        W58404  24.127  34.168   1.241
85337W        W58405  21.937  27.691  14.894
85338W        W58406  35.569   2.164   1.908
85339W        W58407  21.751  43.944  12.521
85340W        W58408  19.976  11.343  10.576
85341W        W58409  12.589  34.173   2.235
85342W        W58410  33.165  37.392   0.513
85343W        W58411   2.704  19.552   4.594
85344W        W58412   2.518  26.521  10.191
85345W        W58413   9.408   6.337  14.409
85346W        W58414  10.614  35.849   1.773
85347W        W58415  13.515  44.048   0.394
85348W        W58416  25.154  38.048   5.492
85349W        W58417  36.904  10.709  14.620
85350W        W58418  12.171  24.072  13.059
85351W        W58419  19.108   2.477   3.183
85352W        W58420  20.114   9.883  14.474
85353W        W58421  16.607   4.165  14.446
85354W        W58422  22.686  10.920   0.435
85355W        W58423  24.823   9.044   3.275
85356W        W58424  11.926  36.045   0.336
85357W        W58425  43.499  22.545   1.033
85358W        W58426  38.782  36.911  13.275
85359W        W58427  19.769   8.359   4.287
85360W        W58428  40.295  21.648   2.711
85361W        W58429  27.657  36.313  14.361
85362W        W58430  30.813  21.670  12.992
85363W        W58431  13.490  38.718   4.028
85364W        W58432   5.749  39.286  12.985
85365W        W58433  36.929   7.249   1.175
85366W        W58434   3.977  13.145   1.395
85367W        W58435  43.453  23.390  10.286
85368W        W58436  23.411   8.859   1.779
85369W        W58437  39.994  14.600   2.845
85370W        W58438  44.170  31.866  13.325
85371W        W58439  40.990   1.193  11.987
85372W        W58440   0.888   7.380  13.000
85373W        W58441   2.707  38.998   9.974
85374W        W58442   0.437  36.056   1.783
85375W        W58443  17.095  19.015  12.569
85376W        W58444  10.692  44.430   3.751
85377W        W58445  42.006   6.605  14.641
85378W        W58446   4.809  41.308   1.666
85379W        W58447  36.792   0.203  11.039
85380W        W58448  20.575  11.597   2.128
85381W        W58449  11.645  19.999  10.592
85382W        W58450  28.215  15.776   3.255
85383W        W58451  28.985  44.449  12.435
85384W        W58452  20.293  43.828   4.295
85385W        W58453  24.254  31.543   2.441
85386W        W58454  34.607   3.457  11.475
85387W        W58455   8.978  23.097   1.296
85388W        W58456  27.771   1.247  14.807
85389W        W58457  26.245  26.475   2.556
85390W        W58458  14.838  25.631  12.058
85391W        W58459  11.664   3.763  13.468
85392W        W58460  33.193  25.545  14.888
85393W        W58461  39.822  23.194   4.723
85394W        W58462  44.082  21.237   2.853
85395W        W58463  30.998  43.810  12.887
85396W        W58464  25.354  20.601  14.732
85397W        W58465   7.708   7.488   0.308
85398W        W58466   3.192  41.983   2.831
85399W        W58467  37.470  42.992   2.580
85400W        W58468  14.644   9.218  10.649
85401W        W58469  39.996  18.495  14.948
85402W        W58470  20.233  14.258  12.171
85403W        W58471  32.181  39.832  13.525
85404W        W58472  20.740  33.560  12.054
85405W        W58473  21.051  10.597   4.638
85406W        W58474   3.352  10.769  12.940
85407W        W58475   8.722  19.289  11.569
85408W        W58476  42.260  29.491  11.435
85409W        W58477   5.802  29.222   2.403
85410W        W58478  15.903  12.168   2.576
85411W        W58479  36.792   2.143  12.864
85412W        W58480  33.012  26.128  14.323
85413W        W58481   6.930   4.032  14.593
85414W        W58482  20.154  27.601  12.909
85415W        W58483   5.085   5.183  11.188
85416W        W58484  38.415   3.875   3.732
85417W        W58485  22.544  18.651  11.982
85418W        W58486  42.235  33.927  13.918
85419W        W58487  30.525   5.612   1.653
85420W        W58488  30.517  43.894  14.498
85421W        W58489  37.806  22.962  12.632
85422W        W58490  35.976  29.708  12.880
85423W        W58491  35.598  30.950   0.873
85424W        W58492  37.879   1.058  12.818
85425W        W58493  13.045  29.969  12.626
85426W        W58494  24.313   2.266  13.099
85427W        W58495  18.916  41.622  14.422
85428W        W58496  35.833   5.833   0.304
85429W        W58497  15.825  23.275   4.665
85430W        W58498  17.294  37.404  10.570
85431W        W58499   2.910   2.228   4.707
85432W        W58500  17.503  31.223  14.589
85433W        W58501  39.400  29.397  10.594
85434W        W58502   2.887  38.055   3.721
85435W        W58503  13.123  24.185  11.716
85436W        W58504   4.668  39.349  12.531
85437W        W58505  29.188  12.304   0.461
85438W        W58506  36.683  36.055   3.606
85439W        W58507  22.597   2.697   2.155
85440W        W58508  25.169  34.316  13.445
85441W        W58509   6.916  22.091   1.415
85442W        W58510  37.627  13.811  14.004
85443W        W58511  15.197  10.813   0.974
85444W        W58512  12.358  42.769   0.834
85445W        W58513  36.671  36.514  12.671
85446W        W58514  30.074  31.506   4.129
85447W        W58515  12.824  40.055  14.805
85448W        W58516   7.093   4.875   3.299
85449W        W58517  36.200  15.564  14.095
85450W        W58518  39.983  25.258   4.586
85451W        W58519   1.898   9.452  11.883
85452W        W58520  41.484   0.412  11.160
85453W        W58521  14.500  44.568   3.229
85454W        W58522  14.191  33.111   3.729
85455W        W58523  19.252  14.043   0.313
85456W        W58524  32.237  11.223   2.213
85457W        W58525  29.527   6.345  13.037
85458W        W58526   6.661   0.891  12.443
85459W        W58527  27.634  26.406  11.093
85460W        W58528   9.282  42.899  11.077
85461W        W58529   7.743   7.930  12.941
85462W        W58530   4.170  24.486   3.723
85463W        W58531  28.994   8.348  14.364
85464W        W58532  27.389   4.410   0.031
85465W        W58533  32.538  31.429  13.276
85466W        W58534   0.522  17.204  13.511
85467W        W58535  21.081  21.176  11.021
85468W        W58536  21.136   2.571   3.934
85469W        W58537  20.271  23.698  13.930
85470W        W58538   2.407   6.936  11.504
85471W        W58539   5.220  23.646  14.984
85472W        W58540  15.015   9.826  14.069
85473W        W58541  37.484  20.572   1.823
85474W        W58542   0.096   4.245  13.162
85475W        W58543  44.286  16.482   1.205
85476W        W58544  22.980  28.423   2.351
85477W        W58545  40.501  40.260   2.264
85478W        W58546  29.078  37.011   1.422
85479W        W58547  34.924   7.688  14.158
85480W        W58548  33.184  28.566   1.771
85481W        W58549  10.720  32.033   3.652
85482W        W58550   3.279  22.088  14.273
85483W        W58551  34.985  40.533  13.627
85484W        W58552   2.444   3.202   2.223
85485W        W58553  12.429  24.953  14.514
85486W        W58554  22.032   1.955   2.285
85487W        W58555  26.363  43.098   1.700
85488W        W58556  17.521  33.393   2.848
85489W        W58557  18.076  38.885   1.726
85490W        W58558  16.783  33.468  14.909
85491W        W58559  18.093   9.078  14.945
85492W        W58560  11.638  25.417   1.936
85493W        W58561  17.625  33.973   0.052
85494W        W58562   4.908  16.802   3.322
85495W        W58563  30.675  15.710   4.784
85496W        W58564  44.870  42.059   4.251
85497W        W58565  39.439  34.111   0.225
85498W        W58566  18.683  41.234  11.608
85499W        W58567  12.305  35.922  14.785
85500W        W58568  40.722  14.677  13.409
85501W        W58569  19.789  24.752   4.118
85502W        W58570  33.163  42.790  12.028
85503W        W58571  40.385  24.549  11.122
85504W        W58572  19.576  18.496   0.799
85505W        W58573  35.889  26.138   3.163
85506W        W58574  13.595   7.790   0.853
85507W        W58575  37.342   1.145  12.124
85508W        W58576  18.520  16.490  10.197
85509W        W58577   9.667  41.476  13.954
85510W        W58578  29.402   3.895  13.838
85511W        W58579   7.171  37.533   4.163
85512W        W58580  36.995  10.688   3.794
85513W        W58581  38.333  42.829  13.417
85514W        W58582  31.625  16.794  13.080
85515W        W58583  36.725  27.562   4.434
85516W        W58584  29.423  31.889  13.399
85517W        W58585  42.892  42.643  14.757
85518W        W58586  20.484  14.259  13.395
85519W        W58587  18.783  37.189   1.378
85520W        W58588  43.833   7.713  12.068
85521W        W58589  38.312  29.873  14.468
85522W        W58590  25.184   6.211  11.433
85523W        W58591   6.036  38.440   3.079
85524W        W58592   5.875  32.169   2.390
85525W        W58593  13.562  36.339  14.843
85526W        W58594   3.932  40.455  14.508
85527W        W58595  11.691  10.055   4.133
85528W        W58596  10.397  33.563   0.775
85529W        W58597  24.037  44.284  10.666
85530W        W58598  11.624  25.784   0.476
85531W        W58599   8.292   1.780  13.578
85532W        W58600  26.718  13.313  14.235
85533W        W58601  22.709  35.020  10.723
85534W        W58602  10.285  22.665   0.829
85535W        W58603   6.219  30.520   1.508
85536W        W58604  15.114   5.144  13.323
85537W        W58605  30.200  24.119  12.817
85538W        W58606  15.564  16.768  13.014
85539W        W58607  38.539  28.421  10.737
85540W        W58608  24.616  19.847  13.054
85541W        W58609  30.084  25.632  11.602
85542W        W58610  20.767  24.725   0.796
85543W        W58611  19.514   0.923  12.470
85544W        W58612  36.410  14.391   4.162
85545W        W58613  12.046  25.671  13.797
85546W        W58614  38.467  34.301   2.650
85547W        W58615  27.712  32.521  10.630
85548W        W58616  18.695  41.743   2.130
85549W        W58617  36.803   5.297   4.424
85550W        W58618  32.988  29.694   0.274
85551W        W58619  37.894  25.487   0.991
85552W        W58620   7.210  15.132  10.423
85553W        W58621   2.894  33.862  10.535
85554W        W58622  43.870   4.184  13.956
85555W        W58623  43.952  41.024   0.815
85556W        W58624  12.311   8.428   4.204
85557W        W58625  12.636  44.467   3.777
85558W        W58626   6.957   1.357   1.788
85559W        W58627  25.566  20.727   2.691
85560W        W58628  17.343   4.010  11.651
85561W        W58629  22.076  11.325   0.489
85562W        W58630   6.641  33.430   1.887
85563W        W58631  30.984  29.926   2.913
85564W        W58632  23.252  13.643  14.895
85565W        W58633  36.907  25.467  12.601
85566W        W58634  25.153  17.559  12.099
85567W        W58635  10.927  29.686   4.544
85568W        W58636  23.446  21.967  10.820
85569W        W58637   6.916  24.506  14.557
85570W        W58638  26.376   1.666   3.578
85571W        W58639  36.811  22.327  12.024
85572W        W58640  13.986  38.435   3.271
85573W        W58641  35.035  42.755  10.992
85574W        W58642   0.617  11.903   0.407
85575W        W58643   4.430  39.040   3.657
85576W        W58644  17.488   7.695   3.219
85577W        W58645  43.311  43.656   0.669
85578W        W58646  35.447  31.268  11.359
85579W        W58647  20.249   4.776  13.990
85580W        W58648  12.706  14.485  14.876
85581W        W58649   6.889  41.888   3.320
85582W        W58650  10.776  37.538   2.250
85583W        W58651   7.396  22.293  11.945
85584W        W58652  32.133  17.007  12.997
85585W        W58653  44.389  11.361   0.818
85586W        W58654  17.951  37.583  13.534
85587W        W58655  36.874   6.828   1.906
85588W        W58656  19.591   2.213  10.875
85589W        W58657  36.331   1.762   1.610
85590W        W58658  29.487  15.266  14.497
85591W        W58659  29.555   5.680   1.925
85592W        W58660  18.017  24.035  13.030
85593W        W58661   5.754  23.209   3.310
85594W        W58662  37.569  42.713   1.222
85595W        W58663  13.821  32.672   1.202
85596W        W58664  20.672   0.939   4.618
85597W        W58665  17.585  34.859  11.138
85598W        W58666  17.911  24.250   4.034
85599W        W58667  32.007  17.703   2.653
85600W        W58668   6.134  25.468   3.741
85601W        W58669  22.720  30.092   1.139
85602W        W58670  42.233  18.899   3.394
85603W        W58671  31.168  21.662   1.391
85604W        W58672  44.296  36.134  10.800
85605W        W58673  42.947  42.598   2.491
85606W        W58674  24.495  16.050   3.127
85607W        W58675  23.743   1.739  13.355
85608W        W58676   5.738  19.574  13.033
85609W        W58677   2.510  27.734  11.940
85610W        W58678   6.711  34.606   2.165
85611W        W58679  23.581   2.193  11.053
85612W        W58680   1.555  20.504   0.535
85613W        W58681   3.843  14.794  10.753
85614W        W58682   4.820  21.117  12.462
85615W        W58683   7.791  40.534   5.057
85616W        W58684  24.684  21.190   4.515
85617W        W58685  25.087  38.482  14.636
85618W        W58686   0.469  16.847  14.987
85619W        W58687   2.274  41.645  14.814
85620W        W58688  42.804  21.036  12.550
85621W        W58689   2.310  44.473  10.680
85622W        W58690  12.972  19.557  10.405
85623W        W58691  35.344  13.566  13.427
85624W        W58692  12.889   4.758  11.086
85625W        W58693  41.979   3.344  10.674
85626W        W58694  37.647  42.929  11.113
85627W        W58695  40.294   9.919   1.179
85628W        W58696  36.299   6.208  12.786
85629W        W58697  13.688  18.255   1.843
85630W        W58698  11.586  43.929   1.070
85631W        W58699  20.858  16.285  13.900
85632W        W58700  25.063  36.646  12.568
85633W        W58701  28.316  42.397   3.762
85634W        W58702  33.634  14.203   3.654
85635W        W58703  38.070  38.966   4.137
85636W        W58704  33.021   4.671   4.153
85637W        W58705  26.794  20.792  10.675
85638W        W58706   9.601  35.298  14.380
85639W        W58707   8.688   7.944  13.013
85640W        W58708  30.746   2.897   0.514
85641W        W58709  24.266  15.641   1.734
85642W        W58710  22.465  16.573  11.538
85643W        W58711   6.275  12.809   1.412
85644W        W58712   9.419  20.499  14.437
85645W        W58713   5.977  17.695  13.954
85646W        W58714   7.037  20.609  13.839
85647W        W58715  20.277   6.619   0.446
85648W        W58716   2.531  11.108   3.364
85649W        W58717  24.655  33.681   1.786
85650W        W58718   5.059   6.502   2.192
85651W        W58719  41.782  14.312   3.205
85652W        W58720   0.999  13.660  11.046
85653W        W58721   0.888  31.378  12.740
85654W        W58722  32.186  23.663   3.136
85655W        W58723  32.134  28.604   3.810
85656W        W58724  14.007  40.758  11.425
85657W        W58725  25.231  17.588  13.000
85658W        W58726  18.688  31.664  12.065
85659W        W58727  10.658  34.905   4.167
85660W        W58728  30.606  32.162  13.812
85661W        W58729  32.998  10.774  11.469
85662W        W58730  11.294  11.923   4.282
85663W        W58731   5.027  13.445   1.691
85664W        W58732  43.425  12.630   0.544
85665W        W58733  33.506  32.360   0.209
85666W        W58734  13.507  10.615  12.505
85667W        W58735  26.641   9.939  14.076
85668W        W58736  31.041  21.471   1.853
85669W        W58737  44.332  29.380  13.037
85670W        W58738   0.775   8.616  10.637
85671W        W58739  26.195  12.599  13.353
85672W        W58740  24.960  17.323   3.176
85673W        W58741  38.950  37.409  13.602
85674W        W58742  30.870  44.691   1.289
85675W        W58743  25.255  12.062  11.468
85676W        W58744   1.064  20.244  11.630
85677W        W58745   9.913  17.779   2.722
85678W        W58746   3.767  15.291   0.403
85679W        W58747  32.633   4.167   2.205
85680W        W58748  38.795  15.533  11.628
85681W        W58749  24.165  35.864  10.119
85682W        W58750   0.808  29.666   0.009
85683W        W58751  13.823  21.679  13.222
85684W        W58752  24.542  18.243  13.822
85685W        W58753  29.272   7.685  13.819
85686W        W58754  11.175   6.456   1.688
85687W        W58755   4.169  27.997   1.315
85688W        W58756  15.220   4.313  10.772
85689W        W58757  33.144  28.961  11.457
85690W        W58758  39.231  17.701   1.957
85691W        W58759  37.584  31.682   5.023
85692W        W58760  24.109  22.568   3.033
85693W        W58761  32.040  24.168  11.607
85694W        W58762  17.566  38.123   0.028
85695W        W58763  37.857  36.157   2.833
85696W        W58764  44.244  19.899  13.382
85697W        W58765  28.495  15.228   5.020
85698W        W58766   3.939   1.365  10.412
85699W        W58767  30.694  28.670   3.772
85700W        W58768  17.878  30.009  13.908
85701W        W58769  28.958  19.470  14.468
85702W        W58770  18.268  23.969  12.560
85703W        W58771  33.306  17.742   3.151
85704W        W58772  27.410  26.210   1.345
85705W        W58773  35.359   6.097  11.578
85706W        W58774  38.586  27.670   2.212
85707W        W58775  42.515  10.761  10.646
85708W        W58776  15.830  38.454  14.435
85709W        W58777  27.858   5.421   0.314
85710W        W58778  14.282   5.257  13.671
85711W        W58779  28.430  17.630   3.740
85712W        W58780  42.382  11.883   1.857
85713W        W58781  39.757   2.896  14.393
85714W        W58782  28.855  39.040  14.726
85715W        W58783  43.099   8.412   4.627
85716W        W58784  33.963  25.058  12.548
85717W        W58785   6.923   7.165   3.262
85718W        W58786   8.093   1.435   2.329
85719W        W58787  32.049  33.429   2.408
85720W        W58788  38.346  10.673  10.785
85721W        W58789  28.186  44.901   2.292
85722W        W58790  42.808  27.113  13.512
85723W        W58791  18.779  27.669   4.124
85724W        W58792  22.208   2.463   3.724
85725W        W58793  21.659  22.468  12.641
85726W        W58794  36.011  26.583  13.478
85727W        W58795  14.063  44.166   4.493
85728W        W58796  12.695  39.981  12.092
85729W        W58797  37.366  44.621  12.606
85730W        W58798  18.232   3.939   1.645
85731W        W58799   7.709  25.862   4.104
85732W        W58800  14.489  23.539  14.876
85733W        W58801  11.160  31.098   2.106
85734W        W58802  10.086  30.430   2.604
85735W        W58803  23.506  10.905  13.463
85736W        W58804  38.804   7.763  14.467
85737W        W58805   5.659  29.398  12.900
85738W        W58806  35.594  20.055   1.786
85739W        W58807  41.461   7.219   1.321
85740W        W58808   0.887  34.693  14.460
85741W        W58809  44.966  33.635  10.742
85742W        W58810  33.336  36.725   2.304
85743W        W58811  41.001  11.251  11.224
85744W        W58812  12.377  39.467  14.383
85745W        W58813  42.487  19.680  14.454
85746W        W58814  39.503  20.217   1.381
85747W        W58815   5.319   5.414   0.826
85748W        W58816  36.999  19.863  11.543
85749W        W58817  44.366  40.438  13.117
85750W        W58818  13.124   9.745  11.180
85751W        W58819  23.818   8.342  13.371
85752W        W58820  40.047  21.665  13.336
85753W        W58821  26.173  24.183  14.717
85754W        W58822   3.097  17.667   1.879
85755W        W58823  18.858  37.351   1.897
85756W        W58824  22.746  26.945   0.934
85757W        W58825  23.118   4.491   3.825
85758W        W58826   8.717   2.593  14.090
85759W        W58827  39.604   7.167   3.294
85760W        W58828  17.435   1.007   0.788
85761W        W58829  14.286  27.197  11.799
85762W        W58830  37.408  20.611  12.053
85763W        W58831   7.831  41.320  11.333
85764W        W58832  17.269   9.536   3.682
85765W        W58833  42.841   7.405   0.994
85766W        W58834  31.431  38.702  13.585
85767W        W58835  33.444  24.013   0.302
85768W        W58836  35.149  39.603  12.530
85769W        W58837  18.725   6.075   0.952
85770W        W58838  14.051  10.822  13.884
85771W        W58839  32.924  30.333   4.930
85772W        W58840   8.363  12.735  11.287
85773W        W58841  36.853  18.720  10.681
85774W        W58842  39.021   8.026   3.313
85775W        W58843  39.434  40.774   1.891
85776W        W58844  38.478  17.632   4.764
85777W        W58845  25.961  27.991   3.839
85778W        W58846  15.256  19.716  12.662
85779W        W58847  33.423  12.123  11.649
85780W        W58848  38.047  36.006   3.281
85781W        W58849  21.267  37.109  13.310
85782W        W58850   3.365  16.621   0.668
85783W        W58851  20.048  35.930   2.802
85784W        W58852  30.944  26.023   4.664
85785W        W58853   5.875  28.604  11.618
85786W        W58854   4.550  28.644  14.865
85787W        W58855  13.902  18.596   4.051
85788W        W58856  26.079  34.083   1.853
85789W        W58857  33.493  27.006   4.411
85790W        W58858  24.550  26.410   3.203
85791W        W58859  41.260  17.276  13.910
85792W        W58860  42.663  43.889  10.542
85793W        W58861  31.921   6.778   2.650
85794W        W58862   8.399  30.550   2.333
85795W        W58863  44.888  11.910  11.627
85796W        W58864   1.479  41.989  13.373
85797W        W58865   9.929  27.078   1.961
85798W        W58866  11.880   0.717  11.062
85799W        W58867  42.959  15.365  14.107
85800W        W58868   6.754  35.970   1.290
85801W        W58869  30.415   4.113  13.742
85802W        W58870  27.080  32.291  14.378
85803W        W58871  43.480  17.198   0.446
85804W        W58872  17.636  24.080   2.300
85805W        W58873  15.345  10.376   2.888
85806W        W58874  38.612  32.419  14.837
85807W        W58875  42.137   4.506   1.636
85808W        W58876  43.254  23.240  11.143
85809W        W58877   3.342   0.092  11.582
85810W        W58878  29.365  36.916   4.179
85811W        W58879  18.198  25.165   1.256
85812W        W58880  39.180   7.511   0.784
85813W        W58881  11.777  19.956   4.075
85814W        W58882  43.014  29.935   1.421
85815W        W58883   0.803   1.861  11.911
85816W        W58884  11.599  21.831   3.804
85817W        W58885  41.746  33.033   3.614
85818W        W58886  20.946  15.144   0.523
85819W        W58887  44.907  32.531  12.778
85820W        W58888   0.827   7.799  13.810
85821W        W58889   1.837  33.348  12.613
85822W        W58890   8.848  19.523   0.855
85823W        W58891   8.561   3.160   1.732
85824W        W58892  31.125  30.523  13.422
85825W        W58893  33.371  22.284   3.253
85826W        W58894  44.046   0.024  14.938
85827W        W58895   3.919  38.605   0.735
85828W        W58896  25.129  17.378  13.950
85829W        W58897  36.051  17.056   2.419
85830W        W58898  31.460   5.463   4.170
85831W        W58899  19.164  41.350   3.247
85832W        W58900  25.989  10.918   2.221
85833W        W58901  20.203  35.480   2.237
85834W        W58902  32.536   3.238  13.020
85835W        W58903  35.105  35.141   3.247
85836W        W58904   9.363  14.387  13.794
85837W        W58905   6.467  28.219   0.729
85838W        W58906  40.604  38.078  14.955
85839W        W58907  31.998   4.586   2.726
85840W        W58908   7.492  29.917   2.733
85841W        W58909   8.996  38.415   0.309
85842W        W58910   8.864  44.356   1.283
85843W        W58911   1.102  30.964   3.852
85844W        W58912  15.686  22.327   0.761
85845W        W58913  35.430  15.068   1.876
85846W        W58914  38.336  10.139   4.084
85847W        W58915  35.002   2.991   2.181
85848W        W58916   4.820   3.339   2.845
85849W        W58917  34.727  33.979  11.089
85850W        W58918   0.667  32.395  13.968
85851W        W58919  43.407   8.665   3.846
85852W        W58920  34.374  26.201   0.816
85853W        W58921  34.069  35.102   2.948
85854W        W58922   3.143   2.701  13.143
85855W        W58923  32.508   3.682   2.279
85856W        W58924  31.991  22.539   1.873
85857W        W58925  30.568   5.760  12.616
85858W        W58926   2.873  41.238  13.434
85859W        W58927  44.195  27.037   3.367
85860W        W58928  27.709  20.724   4.401
85861W        W58929  42.839  32.923  13.421
85862W        W58930  36.149  18.866  11.257
85863W        W58931  38.916   9.502   5.032
85864W        W58932   5.486  16.814   1.876
85865W        W58933  15.338   8.501  13.559
85866W        W58934  25.281  28.527   0.431
85867W        W58935  34.596  22.225  14.560
85868W        W58936  13.673  38.602  12.090
85869W        W58937  20.559  34.496  13.880
85870W        W58938  33.575   6.991   4.233
85871W        W58939   5.694  23.041   4.525
85872W        W58940  27.166  34.270   1.265
85873W        W58941  19.110  31.945   2.751
85874W        W58942   8.409  17.034   2.384
85875W        W58943   9.270  11.098  13.949
85876W        W58944   7.136  34.811  14.511
85877W        W58945   8.118   9.574   2.671
85878W        W58946  24.131   6.678  12.843
85879W        W58947   5.801  38.421  11.061
85880W        W58948  19.833  11.817  14.799
85881W        W58949   6.639  31.674   2.713
85882W        W58950  24.938   9.588  14.439
85883W        W58951  26.664  26.626  13.112
85884W        W58952  31.522  36.193   1.754
85885W        W58953   7.620  42.834  11.532
85886W        W58954  30.277  39.364   2.411
85887W        W58955  13.467   7.019   4.334
85888W        W58956  15.509  44.286  13.995
85889W        W58957  32.017   0.181  13.974
85890W        W58958  32.952  19.087   3.661
85891W        W58959  44.434  25.222   0.453
85892W        W58960  15.945   9.424   2.318
85893W        W58961  20.158  41.665  11.774
85894W        W58962  27.996  27.224  14.825
85895W        W58963  26.010  40.568  11.373
85896W        W58964   2.809  36.667   0.956
85897W        W58965   0.748  34.569  12.989
85898W        W58966  27.726  43.263  14.002
85899W        W58967  34.945   5.252  11.883
85900W        W58968   0.455  23.537   1.892
85901W        W58969  30.337  27.938  11.669
85902W        W58970   8.621  29.733   2.451
85903W        W58971   4.436  30.775  14.114
85904W        W58972  31.856  38.297   2.763
85905W        W58973  22.325  42.398   1.768
85906W        W58974  13.596   8.448  10.413
85907W        W58975  42.537  18.035  11.015
85908W        W58976  34.491   7.121   0.102
85909W        W58977  16.457  28.385   3.145
85910W        W58978  20.682  29.065  10.428
85911W        W58979  17.716   1.053   4.936
85912W        W58980  36.318   0.819  11.697
85913W        W58981   9.531  24.352  13.822
85914W        W58982   4.046  19.807  13.451
85915W        W58983   9.241  33.930   2.421
85916W        W58984  17.841   7.024  12.039
85917W        W58985  16.329   0.044  11.989
85918W        W58986  27.151  20.263  12.877
85919W        W58987  37.455  43.692  11.537
85920W        W58988  38.448  38.015  10.803
85921W        W58989  32.832   1.023  13.867
85922W        W58990  40.587   2.360   0.267
85923W        W58991  11.202   2.902   4.337
85924W        W58992  13.357  24.918  13.464
85925W        W58993  44.249   5.838  11.222
85926W        W58994  42.357   6.461   3.627
85927W        W58995  31.850   9.926   1.384
85928W        W58996  34.382  41.722   1.399
85929W        W58997  32.705  24.580   3.283
85930W        W58998  36.045  12.113  13.907
85931W        W58999  35.993  33.373  12.078
85932W        W59000  27.927  43.893   1.626
85933W        W59001  27.702  24.417   3.732
85934W        W59002  34.881  21.590  11.966
85935W        W59003  25.284  30.904   0.258
85936W        W59004  27.555   2.422  12.811
85937W        W59005  15.727  28.675  10.629
85938W        W59006  26.015  18.353   1.397
85939W        W59007  17.836  31.960   2.324
85940W        W59008   0.827   9.170   0.494
85941W        W59009  14.748   5.840  11.123
85942W        W59010  27.525  25.544  14.502
85943W        W59011  33.321  30.414   3.590
85944W        W59012  23.178   2.002   3.642
85945W        W59013  25.964   5.025   1.201
85946W        W59014  13.465  34.958   2.834
85947W        W59015  43.528  23.178   1.792
85948W        W59016  33.064  20.688   1.338
85949W        W59017  41.182  21.743   0.274
85950W        W59018   3.473  10.975  11.450
85951W        W59019  26.057  26.058   0.444
85952W        W59020   7.392  11.664   1.279
85953W        W59021  14.273  11.823   1.027
85954W        W59022  22.256  37.477  13.223
85955W        W59023  14.171  17.870   0.836
85956W        W59024  34.628  29.232  14.721
85957W        W59025   9.791  42.253   4.715
85958W        W59026   3.728  34.893  13.119
85959W        W59027  12.281  20.710  10.731
85960W        W59028  14.290  17.357   4.854
85961W        W59029  29.137  35.564   0.278
85962W        W59030   1.631  28.088  13.523
85963W        W59031  37.539  44.096   4.679
85964W        W59032  21.585  44.076  13.968
85965W        W59033  21.252  36.074   4.835
85966W        W59034  40.948  16.222   1.783
85967W        W59035  14.754  27.676  11.170
85968W        W59036  39.439  36.157   0.754
85969W        W59037   1.169  30.135  12.473
85970W        W59038  33.524  15.832   1.885
85971W        W59039  28.428  20.542  12.338
85972W        W59040  11.750  10.751  13.867
85973W        W59041  18.523  17.102   0.869
85974W        W59042  41.594  17.659  11.117
85975W        W59043  20.210  25.511  10.783
85976W        W59044   1.962   3.829  11.624
85977W        W59045  43.466  20.206   3.293
85978W        W59046   2.193  27.695   2.788
85979W        W59047  32.903   6.643  12.430
85980W        W59048  29.966  25.546   3.228
85981W        W59049  22.044  42.058  13.395
85982W        W59050  42.392  12.747  11.372
85983W        W59051  37.130  25.488  13.893
85984W        W59052   8.280  35.301  10.651
85985W        W59053  14.789  17.217   4.127
85986W        W59054  28.956  43.002  11.723
85987W        W59055  24.660  30.405  14.739
85988W        W59056  38.500  43.812   2.619
85989W        W59057  11.277   2.882   0.431
85990W        W59058  20.518  16.350  12.524
85991W        W59059  25.806  31.662  10.066
85992W        W59060  11.423  23.987   2.176
85993W        W59061  20.941  13.304  13.443
85994W        W59062  11.378  23.260  14.850
85995W        W59063   8.047  40.997   0.795
85996W        W59064  13.413   4.340  13.415
85997W        W59065  27.052  15.519  13.826
85998W        W59066  32.528  40.583   2.023
85999W        W59067  33.620  15.857   3.642
86000W        W59068  12.788  23.582   3.653
86001W        W59069  43.391  38.822   1.901
86002W        W59070  32.542  34.377  11.965
86003W        W59071  41.046   3.761  11.924
86004W        W59072  20.801  23.975  12.603
86005W        W59073  24.552  25.115  14.076
86006W        W59074  11.290  17.804   2.654
86007W        W59075  44.549   8.462   1.397
86008W        W59076  10.935   0.949  13.898
86009W        W59077  20.981  31.421  13.010
86010W        W59078  26.653  42.977  12.164
86011W        W59079  12.799   3.754  12.940
86012W        W59080  10.587  35.032  10.395
86013W        W59081  30.042  22.179  13.813
86014W        W59082  37.431  23.509   0.678
86015W        W59083  31.236  43.424   3.680
86016W        W59084   2.355  29.556   2.772
86017W        W59085  30.242  32.820   0.406
86018W        W59086  43.986  19.701  13.807
86019W        W59087  42.835  44.865   3.726
86020W        W59088  44.759  33.514  14.346
86021W        W59089  30.520   5.273  12.792
86022W        W59090  38.424   8.737  14.817
86023W        W59091  12.797   1.278   0.353
86024W        W59092   8.729   6.488  10.705
86025W        W59093  33.867  15.806   3.148
86026W        W59094  37.060  21.993   1.144
86027W        W59095  31.557  23.298   0.912
86028W        W59096  30.807  28.610   1.405
86029W        W59097  43.177   0.972  14.948
86030W        W59098  29.727  32.888  11.699
86031W        W59099  43.787  42.855  14.961
86032W        W59100  42.296   5.228   2.140
86033W        W59101  21.063  36.256   2.220
86034W        W59102  22.221  43.252  10.576
86035W        W59103  22.133  32.412   3.699
86036W        W59104   9.284  26.514  13.619
86037W        W59105   9.896  43.384  13.518
86038W        W59106   8.862  44.732  13.355
86039W        W59107  12.179  32.972   3.208
86040W        W59108  24.960  17.613  14.371
86041W        W59109   1.889  22.555   1.471
86042W        W59110  43.392  37.890  12.263
86043W        W59111  22.642  34.036  10.664
86044W        W59112  19.356  13.327   3.881
86045W        W59113  28.421   6.376  13.010
86046W        W59114  44.739  44.459   1.290
86047W        W59115  15.118  16.773  13.561
86048W        W59116   0.869   2.248  13.717
86049W        W59117  43.843  15.622   1.416
86050W        W59118  21.356   7.142  11.201
86051W        W59119  28.985  12.368   1.741
86052W        W59120  32.266  22.653   2.327
86053W        W59121  37.115  10.689   1.961
86054W        W59122  43.501  44.292  12.958
86055W        W59123  24.714  35.680  11.953
86056W        W59124  43.296   3.271   0.902
86057W        W59125  19.226  18.191   2.577
86058W        W59126  29.985  25.624   4.487
86059W        W59127  42.899   3.344   4.607
86060W        W59128  41.220  19.716   3.931
86061W        W59129  42.319  32.188   2.142
86062W        W59130  17.977  11.771   1.419
86063W        W59131  44.819  37.611  14.913
86064W        W59132  20.585   1.981  10.693
86065W        W59133  15.149  19.242  10.993
86066W        W59134   7.360  41.839   3.110
86067W        W59135  27.651  17.042  11.030
86068W        W59136  26.480  27.004   0.888
86069W        W59137  11.707  34.194   2.196
86070W        W59138  38.484  29.494  13.044
86071W        W59139  27.974  30.501  14.498
86072W        W59140  11.673  33.064   4.610
86073W        W59141  13.751   6.764   0.922
86074W        W59142  26.159  37.381   4.929
86075W        W59143  29.852   9.620  12.694
86076W        W59144  11.713   6.931  14.843
86077W        W59145  30.645  35.443  14.128
86078W        W59146  37.487  30.739  12.467
86079W        W59147   6.767  36.558  13.465
86080W        W59148  16.025  29.028   1.996
86081W        W59149  30.211   3.801   3.623
86082W        W59150  29.722  36.437   2.395
86083W        W59151  22.133  22.666   4.269
86084W        W59152  14.175   0.697   1.365
86085W        W59153   4.880   1.413  10.697
86086W        W59154  38.724  36.680   0.920
86087W        W59155   2.703   2.215  14.548
86088W        W59156  24.779   5.981   1.622
86089W        W59157   8.274   0.493  10.457
86090W        W59158  36.613  12.837  13.970
86091W        W59159   5.193  40.832   1.184
86092W        W59160  33.802  39.994   4.044
86093W        W59161   9.219  43.961   4.422
86094W        W59162  43.012  35.409  14.996
86095W        W59163  40.064  12.549  13.910
86096W        W59164  42.415  17.980   3.255
86097W        W59165  11.776  40.795   3.280
86098W        W59166  29.161   3.939   2.718
86099W        W59167  16.135   8.469   2.723
86100W        W59168  30.619  32.527   2.397
86101W        W59169   6.651  42.433   1.713
86102W        W59170  10.237  13.548   4.198
86103W        W59171  24.104  23.332  11.683
86104W        W59172  13.829  29.822   0.802
86105W        W59173   4.656  11.719   3.190
86106W        W59174  33.054  37.209   1.391
86107W        W59175  31.327  12.772  11.150
86108W        W59176  11.502   0.678   3.732
86109W        W59177  10.428  30.112  14.187
86110W        W59178  33.661  18.767   1.744
86111W        W59179  32.660  35.344   4.620
86112W        W59180   8.392  12.292   3.711
86113W        W59181  11.215  23.589   3.145
86114W        W59182  37.896  30.872  11.990
86115W        W59183   8.260  41.544  12.074
86116W        W59184  10.419   3.836   3.660
86117W        W59185   2.209  23.719   0.678
86118W        W59186  23.803  12.856   2.288
86119W        W59187  13.095  43.276  12.086
86120W        W59188  26.652  19.989  12.555
86121W        W59189  15.030  12.595  11.067
86122W        W59190  33.376  30.021   0.916
86123W        W59191  13.663  27.649   2.205
86124W        W59192  19.579   1.981   2.130
86125W        W59193  26.159  44.824  12.483
86126W        W59194  11.614  23.776  14.819
86127W        W59195  27.872  11.846   2.205
86128W        W59196  30.964   2.147   1.793
86129W        W59197  26.119  44.422  13.267
86130W        W59198  33.850  24.616   2.494
86131W        W59199   0.583  31.841   3.734
86132W        W59200  38.074  41.362   0.308
86133W        W59201   0.546  37.457   1.808
86134W        W59202  39.958  33.633   1.717
86135W        W59203  15.279  36.782   2.881
86136W        W59204  30.974  16.366   0.852
86137W        W59205   3.411  15.740   3.188
86138W        W59206  31.859  42.366   0.832
86139W        W59207  31.681  29.082  13.881
86140W        W59208  11.689   6.163  11.917
86141W        W59209  22.552   2.757  12.573
86142W        W59210  37.049  16.231  11.981
86143W        W59211   4.123  23.280   2.705
86144W        W59212  42.470  36.805   3.250
86145W        W59213  21.122  39.358  13.363
86146W        W59214  27.950  32.471   3.729
86147W        W59215  38.421  37.582  12.841
86148W        W59216   4.774  19.259   1.848
86149W        W59217  42.287  39.251   1.422
86150W        W59218  10.779  14.730  12.103
86151W        W59219   9.293  21.212  12.086
86152W        W59220  36.651  13.139   4.549
86153W        W59221  30.621  41.553   0.274
86154W        W59222  27.973  35.082   3.220
86155W        W59223  21.807  18.364  12.390
86156W        W59224   9.551   9.388  11.802
86157W        W59225  41.747  14.222  13.905
86158W        W59226  25.593   0.669  14.329
86159W        W59227  25.539  11.420  12.982
86160W        W59228  40.488   6.075   4.297
86161W        W59229   0.302  16.093   4.090
86162W        W59230  30.408  19.757  12.533
86163W        W59231  38.520  11.301   1.951
86164W        W59232   0.740  25.334   2.778
86165W        W59233  40.489  35.935  11.118
86166W        W59234  18.221  27.972   0.758
86167W        W59235  37.064  21.836  13.869
86168W        W59236   4.160  38.787  10.712
86169W        W59237  28.967  40.873  10.472
86170W        W59238  27.800  28.342  13.934
86171W        W59239  30.274  43.860  11.029
86172W        W59240   9.430   5.091   4.275
86173W        W59241  28.262   5.718  11.997
86174W        W59242  28.440  22.555  13.913
86175W        W59243  39.069  30.428  14.689
86176W        W59244  39.316  10.732   1.309
86177W        W59245  33.556  17.819   4.577
86178W        W59246   4.752  41.254   4.953
86179W        W59247  34.392  19.136  11.783
86180W        W59248  22.656  43.769  11.440
86181W        W59249  44.988  41.588   5.012
86182W        W59250  33.918  21.244  11.242
86183W        W59251   8.256  38.105  10.803
86184W        W59252  40.279   1.037  13.868
86185W        W59253  14.160  19.820   0.362
86186W        W59254   8.276  15.828   0.403
86187W        W59255  17.769  26.597  11.247
86188W        W59256  38.047  43.760   0.900
86189W        W59257  31.004  40.514  11.108
86190W        W59258   7.324   3.780   2.415
86191W        W59259  23.412  43.175   2.217
86192W        W59260   7.294   9.315   3.238
86193W        W59261  25.712   2.262   0.306
86194W        W59262   5.636   9.384   4.313
86195W        W59263  37.878  12.393  12.582
86196W        W59264   6.133  34.459  12.076
86197W        W59265  19.561   7.819   5.002
86198W        W59266  39.036  27.167  13.013
86199W        W59267  24.467   4.478   1.803
86200W        W59268  29.303  32.846   2.129
86201W        W59269  38.994   1.900  13.978
86202W        W59270  36.595  18.211   0.783
86203W        W59271  24.510   0.305  13.505
86204W        W59272   3.259  36.436  11.333
86205W        W59273   0.331   8.689  10.205
86206W        W59274  36.506  25.135   3.496
86207W        W59275  21.581  26.450   3.103
86208W        W59276  30.421   9.199   3.371
86209W        W59277  28.290  36.615   3.257
86210W        W59278  26.209  36.468   0.308
86211W        W59279  43.971  10.103   2.207
86212W        W59280  37.948  20.731   2.718
86213W        W59281  22.766  35.860   0.191
86214W        W59282  21.295  21.171  13.938
86215W        W59283  18.001  20.633   0.538
86216W        W59284  42.845  17.507   4.545
86217W        W59285   8.748  40.814   3.614
86218W        W59286  19.133  16.073  11.216
86219W        W59287  31.064   0.470   1.641
86220W        W59288  24.959   1.058  11.124
86221W        W59289  15.189  41.341  10.740
86222W        W59290   2.391   8.944   1.869
86223W        W59291   6.352  22.026   2.245
86224W        W59292  36.323  36.882   1.469
86225W        W59293  44.147  39.729   2.575
86226W        W59294  35.556  41.287   4.040
86227W        W59295  43.417  31.367  10.553
86228W        W59296  10.292  12.644   0.939
86229W        W59297  34.808  33.832   4.132
86230W        W59298  33.690  12.873  11.259
86231W        W59299  35.262   7.623   2.168
86232W        W59300  32.010  27.881   0.384
86233W        W59301  38.164  26.147  12.092
86234W        W59302  17.651  43.024  13.454
86235W        W59303  41.597  31.572   1.448
86236W        W59304   6.123   4.652   1.422
86237W        W59305   2.999  31.152   3.972
86238W        W59306  34.557  32.192  11.586
86239W        W59307  40.716   7.453   2.252
86240W        W59308   6.750   7.209  13.475
86241W        W59309  25.206  36.157   1.945
86242W        W59310  22.233  34.869  10.620
86243W        W59311  38.616   6.800  14.891
86244W        W59312  16.127  10.369   1.808
86245W        W59313   1.771   5.702  12.998
86246W        W59314  38.627  26.224   0.654
86247W        W59315  31.614  37.060   4.360
86248W        W59316   3.684  41.555  11.051
86249W        W59317   6.947   5.768   2.224
86250W        W59318  19.216  40.583  13.669
86251W        W59319  19.624  28.112   0.914
86252W        W59320  26.439  12.919   5.053
86253W        W59321   7.942  21.672   1.369
86254W        W59322  29.132  43.410   1.130
86255W        W59323  39.035  25.797  12.005
86256W        W59324   5.735  15.816  14.105
86257W        W59325  17.761   2.612   4.186
86258W        W59326   8.660  15.100   0.845
86259W        W59327   9.386  24.110  10.757
86260W        W59328   0.759  12.741   1.957
86261W        W59329  16.150  22.006   2.323
86262W        W59330  22.273  14.686  13.524
86263W        W59331   0.962   0.774  12.838
86264W        W59332  11.620  42.301   3.311
86265W        W59333  27.189  14.852   1.476
86266W        W59334  31.992  14.956  12.952
86267W        W59335  13.625  10.352   5.083
86268W        W59336  22.502  21.966   2.313
86269W        W59337  23.305  24.725  10.829
86270W        W59338  11.636  42.025  13.005
86271W        W59339  24.044   5.292   1.457
86272W        W59340  22.556  14.078  11.309
86273W        W59341  43.716  16.242  12.851
86274W        W59342  43.024  10.596   4.148
86275W        W59343  22.184  10.588  12.037
86276W        W59344   0.492  41.303   3.298
86277W        W59345  26.384  24.616  12.095
86278W        W59346   6.831  13.286   3.930
86279W        W59347  26.285   3.243   1.872
86280W        W59348   5.419  41.026  14.011
86281W        W59349  26.614  36.914  13.410
86282W        W59350   3.259  16.334   4.665
86283W        W59351   3.769  33.293  12.534
86284W        W59352  12.064   3.428  12.873
86285W        W59353  10.743   7.451   0.874
86286W        W59354  43.431  33.860  14.417
86287W        W59355  16.705  26.248  13.401
86288W        W59356  10.322   8.165  12.521
86289W        W59357  12.147   6.205  12.129
86290W        W59358  11.865  34.594  12.824
86291W        W59359  11.735   4.353   3.392
86292W        W59360  23.576   5.812  11.393
86293W        W59361  32.357  17.285  12.572
86294W        W59362   4.387  12.869  11.459
86295W        W59363  25.244  19.728   3.705
86296W        W59364  19.431  22.356  11.514
86297W        W59365   3.844  36.154  13.839
86298W        W59366  34.078  25.679  13.921
86299W        W59367  16.610   7.088   0.699
86300W        W59368  21.046   1.938   3.175
86301W        W59369  37.457  16.146  14.620
86302W        W59370  13.097  34.873   2.461
86303W        W59371  38.485  31.822   4.610
86304W        W59372  25.084   1.498  14.565
86305W        W59373  22.532   5.741   1.339
86306W        W59374  32.839  38.280   2.937
86307W        W59375   6.383  19.813  13.914
86308W        W59376  43.275  22.121  12.508
86309W        W59377  44.909   4.627  12.483
86310W        W59378  30.423  13.702  11.580
86311W        W59379  37.955  42.785   2.755
86312W        W59380  11.589  18.512   2.271
86313W        W59381  10.594  20.244   1.050
86314W        W59382  21.618  16.771   1.263
86315W        W59383  19.758  42.469  11.613
86316W        W59384   0.827  34.059  12.846
86317W        W59385  15.154   8.082   1.319
86318W        W59386  23.955  18.222   2.790
86319W        W59387  24.483   8.294   0.942
86320W        W59388  14.705   5.195   2.306
86321W        W59389  31.379  16.237  11.487
86322W        W59390  20.356  23.541  12.760
86323W        W59391   1.917  10.593  13.063
86324W        W59392  11.490  17.744  11.535
86325W        W59393  30.845  32.162   2.757
86326W        W59394  13.696   6.826  13.528
86327W        W59395  25.580  15.382  11.169
86328W        W59396  24.780  26.206  11.083
86329W        W59397  10.739  39.540  13.343
86330W        W59398  38.718  19.674   0.841
86331W        W59399  25.769   9.641   4.947
86332W        W59400  33.141   4.623   1.420
86333W        W59401  26.938  10.392  12.279
86334W        W59402  42.499  39.535  12.076
86335W        W59403  39.460   8.777   3.226
86336W        W59404  34.479  12.876   3.268
86337W        W59405   6.166  23.019  13.551
86338W        W59406  21.517  35.841  13.604
86339W        W59407  11.126  14.481  14.356
86340W        W59408  42.041  17.103   5.005
86341W        W59409   5.633   6.204   0.569
86342W        W59410   9.071   9.095  14.953
86343W        W59411  34.953  37.632  10.589
86344W        W59412  39.338  36.640  13.276
86345W        W59413   0.540  30.926  12.343
86346W        W59414  15.345  38.530   2.198
86347W        W59415   0.834  11.647   2.640
86348W        W59416   8.670  19.659   2.205
86349W        W59417  26.683  24.553  14.340
86350W        W59418  44.235  26.949  13.375
86351W        W59419  40.049   7.538   4.251
86352W        W59420  29.979  22.984  14.731
86353W        W59421  20.130  16.281   1.343
86354W        W59422  44.822  12.504  14.353
86355W        W59423  28.018  26.921  13.387
86356W        W59424  43.412   3.259   1.898
86357W        W59425   2.621  23.328   4.172
86358W        W59426  27.549  37.118   4.219
86359W        W59427  21.967  16.654  11.508
86360W        W59428  13.910  28.445   0.817
86361W        W59429  12.317  39.918  14.758
86362W        W59430  17.053   3.385  13.129
86363W        W59431   6.964  33.361  12.467
86364W        W59432  14.584  33.462   4.018
86365W        W59433  32.783  12.041   3.289
86366W        W59434  42.456  29.615   3.205
86367W        W59435  35.570  10.230  12.355
86368W        W59436  42.885   8.209   1.774
86369W        W59437   8.380  17.837  14.450
86370W        W59438  36.017  23.899   4.783
86371W        W59439  39.043  20.158   4.847
86372W        W59440  10.431  42.852  12.835
86373W        W59441  35.845  17.916   2.635
86374W        W59442  37.344  36.525  14.831
86375W        W59443  39.155   1.590  12.377
86376W        W59444  24.999  16.202   3.124
86377W        W59445  22.292  33.455  12.070
86378W        W59446  42.049  10.288   4.605
86379W        W59447  26.281  43.434   0.305
86380W        W59448   4.313   3.092  13.308
86381W        W59449  33.836  11.179  13.394
86382W        W59450  29.561  36.754  10.845
86383W        W59451  10.310  21.483  14.454
86384W        W59452  39.563   7.605   0.401
86385W        W59453  44.207  12.653  12.095
86386W        W59454  43.931  22.589   0.766
86387W        W59455   9.339  36.440   4.724
86388W        W59456  12.609  37.807  12.959
86389W        W59457  34.619  18.161   3.370
86390W        W59458  18.640  37.963   2.592
86391W        W59459  40.656  10.485  13.994
86392W        W59460  22.966  39.402  14.740
86393W        W59461  30.403  37.552   1.690
86394W        W59462  40.040   8.739   2.730
86395W        W59463  13.401  35.567  11.142
86396W        W59464  27.627  35.410   2.704
86397W        W59465  20.522  23.254  14.849
86398W        W59466  22.768  11.517   1.148
86399W        W59467  39.522  34.034   3.200
86400W        W59468  29.761  42.976   4.227
86401W        W59469  14.763  14.823   1.269
86402W        W59470   3.518  43.361   0.441
86403W        W59471   4.882  10.219   1.906
86404W        W59472   5.196  37.293  14.163
86405W        W59473  25.717   5.148  11.527
86406W        W59474  35.578  20.491  12.404
86407W        W59475  12.266  44.486   0.801
86408W        W59476  38.789  22.434   0.758
86409W        W59477  29.289  37.520   4.155
86410W        W59478  16.463  43.953  14.872
86411W        W59479  31.207  20.243  12.457
86412W        W59480   2.884  31.844  14.916
86413W        W59481  10.856  27.754   3.466
86414W        W59482  26.928  21.022  12.408
86415W        W59483  13.805  42.362   3.890
86416W        W59484   0.488   4.870  14.883
86417W        W59485  16.501   0.279   3.262
86418W        W59486   7.384   2.249  14.262
86419W        W59487  11.985   8.154   1.332
86420W        W59488  40.233  27.066   3.553
86421W        W59489   4.902  24.002  13.916
86422W        W59490   2.321   6.687   4.404
86423W        W59491  30.087  18.100  13.386
86424W        W59492  19.658  12.155   2.027
86425W        W59493  32.367   7.927   4.176
86426W        W59494  33.077  27.590  12.062
86427W        W59495  10.393  44.701  10.216
86428W        W59496  39.889  27.995   2.768
86429W        W59497  35.983  16.576   3.251
86430W        W59498   4.327  38.878  12.426
86431W        W59499  16.649   9.404   1.765
86432W        W59500  44.420  42.732  14.316
86433W        W59501   6.466  30.738   3.125
86434W        W59502   6.566  11.748  12.955
86435W        W59503  20.485  25.968  10.795
86436W        W59504   4.964   7.326   5.068
86437W        W59505  17.681   2.291  10.860
86438W        W59506   5.724  43.826   4.483
86439W        W59507  29.436  35.620   4.256
86440W        W59508  22.998  21.347  12.421
86441W        W59509  12.833   0.756   3.311
86442W        W59510  29.528  12.354  13.323
86443W        W59511  16.747  30.637   2.422
86444W        W59512  37.999  18.184  14.199
86445W        W59513  32.879  16.996  13.912
86446W        W59514  27.495  16.765  11.418
86447W        W59515   1.705  29.125   0.861
86448W        W59516  35.099  32.343   0.354
86449W        W59517   2.013   3.366   3.736
86450W        W59518  36.629   9.748  10.513
86451W        W59519  16.545  41.349  10.971
86452W        W59520  26.443  21.292  13.839
86453W        W59521  35.057   9.098   0.238
86454W        W59522  11.100  35.827   1.924
86455W        W59523  38.100   6.252   2.668
86456W        W59524  12.180  13.069  11.523
86457W        W59525  13.708  15.610   0.741
86458W        W59526  43.388  34.960   4.344
86459W        W59527  19.616  13.402  11.391
86460W        W59528  14.180   5.380  14.656
86461W        W59529  31.479  29.636  13.032
86462W        W59530  35.516   1.967   4.094
86463W        W59531  39.604  30.068   4.158
86464W        W59532  40.324  32.848  14.946
86465W        W59533   9.626   8.698   3.355
86466W        W59534   6.673  37.573   2.294
86467W        W59535   2.220  19.865  14.286
86468W        W59536  38.554   4.433   4.513
86469W        W59537  41.488  19.702  12.504
86470W        W59538  42.297   6.175  14.561
86471W        W59539   5.150   8.571  12.000
86472W        W59540  38.875  16.068  14.296
86473W        W59541  25.128  17.184   4.109
86474W        W59542   8.664  15.617  13.835
86475W        W59543   5.771   2.954   0.167
86476W        W59544   3.781  21.363  11.998
86477W        W59545  21.588  25.967   3.864
86478W        W59546  36.177  44.105   1.359
86479W        W59547   1.292  40.369  11.463
86480W        W59548  38.516  23.237  14.750
86481W        W59549  44.781  26.168  11.993
86482W        W59550   3.953   7.201   2.458
86483W        W59551  24.560   8.276   4.414
86484W        W59552  26.705  26.425   2.816
86485W        W59553   7.692  26.322  11.480
86486W        W59554  34.806   8.595  11.173
86487W        W59555  40.572  34.142   1.275
86488W        W59556  42.457  14.143  13.002
86489W        W59557  25.499   5.221   1.339
86490W        W59558  40.507  43.953  13.688
86491W        W59559  41.978  42.843   0.243
86492W        W59560   3.396   4.737  13.755
86493W        W59561   8.163  38.485   3.730
86494W        W59562  12.238   0.228  14.818
86495W        W59563  43.054  24.669   1.165
86496W        W59564  21.418   4.342  11.116
86497W        W59565  28.044  24.789   3.850
86498W        W59566  30.768  16.551   1.331
86499W        W59567  37.944  18.007  14.718
86500W        W59568  16.355  27.145  14.860
86501W        W59569  20.885   0.650   3.277
86502W        W59570  33.149  37.917   3.213
86503W        W59571  21.711   3.904   4.158
86504W        W59572  17.529  25.456   0.410
86505W        W59573   6.614  39.964  14.693
86506W        W59574  23.605  32.002  14.344
86507W        W59575  20.204  21.248  11.568
86508W        W59576  14.584   1.027   1.462
86509W        W59577  30.456  32.686  10.787
86510W        W59578  33.663  39.057  14.336
86511W        W59579  42.990  33.394   3.287
86512W        W59580  38.515  19.564   2.407
86513W        W59581  26.775   0.701   4.127
86514W        W59582  14.409   4.375  11.868
86515W        W59583  27.221  38.599  14.521
86516W        W59584   0.317  11.724  13.401
86517W        W59585  43.465  13.780   1.940
86518W        W59586  33.907  44.611  14.372
86519W        W59587  10.339  39.443  14.464
86520W        W59588  23.180   6.595   0.430
86521W        W59589  27.050  19.550   5.133
86522W        W59590   3.473  22.430   3.625
86523W        W59591  28.071  13.442  11.085
86524W        W59592  30.690   5.135  10.656
86525W        W59593  10.390   9.487   3.377
86526W        W59594   9.992  15.509  13.422
86527W        W59595   0.441  40.115  12.393
86528W        W59596  30.070  25.903  14.798
86529W        W59597   8.264  14.084  14.265
86530W        W59598  31.438  21.335  11.631
86531W        W59599  27.198  21.861  12.112
86532W        W59600  13.337   1.563   2.737
86533W        W59601  26.452  12.624  14.549
86534W        W59602   1.905  37.710  11.620
86535W        W59603  33.676  11.197  11.116
86536W        W59604  16.799  11.297   2.845
86537W        W59605  31.138  27.176  11.075
86538W        W59606   5.434   9.397  11.380
86539W        W59607  20.669  26.117   4.667
86540W        W59608   6.386   1.793   3.119
86541W        W59609  36.254  32.219  12.838
86542W        W59610  28.617  24.185   4.486
86543W        W59611   3.268  30.053   2.320
86544W        W59612  11.428  42.917   0.463
86545W        W59613  43.946  35.193  11.198
86546W        W59614  31.908  18.997  13.571
86547W        W59615  26.968  17.639  11.604
86548W        W59616  10.393  36.883   2.466
86549W        W59617  22.231  11.643  14.329
86550W        W59618  13.260  17.073   1.686
86551W        W59619  36.130  18.599   0.881
86552W        W59620  20.840   9.723   4.566
86553W        W59621  31.481  22.475  12.240
86554W        W59622   1.655  17.071  12.163
86555W        W59623  31.466  20.219  11.559
86556W        W59624  35.421  38.913  12.341
86557W        W59625  30.918  12.339  14.868
86558W        W59626  30.745  23.773  13.806
86559W        W59627  29.362  12.847  12.609
86560W        W59628  41.287  33.183   3.812
86561W        W59629  11.326  44.544  14.851
86562W        W59630  41.935  28.973  10.191
86563W        W59631  25.466   4.695  11.512
86564W        W59632   3.745  16.218   1.934
86565W        W59633  25.027  41.850  10.592
86566W        W59634  11.119   4.663  14.769
86567W        W59635  17.232  44.182   2.182
86568W        W59636  18.033  16.995  11.548
86569W        W59637  20.924  40.926  11.064
86570W        W59638  28.970   5.471  12.498
86571W        W59639  27.944  33.633   2.891
86572W        W59640  26.072  13.595   1.881
86573W        W59641  10.778  39.272   2.705
86574W        W59642   4.147  10.291  12.590
86575W        W59643  37.079   4.928   4.175
86576W        W59644   7.844  44.205   4.190
86577W        W59645  27.194  21.291  14.479
86578W        W59646  25.939   2.046   2.821
86579W        W59647  21.992  32.065   1.506
86580W        W59648   9.201  38.448   3.689
86581W        W59649  21.993   0.316  13.502
86582W        W59650   5.534   4.704   4.279
86583W        W59651  21.252  40.533  14.410
86584W        W59652  33.438  10.938   1.706
86585W        W59653  34.949  39.231   0.460
86586W        W59654   6.379   6.828   1.405
86587W        W59655  43.989   8.235  11.088
86588W        W59656  26.202  17.486  10.985
86589W        W59657   4.966   1.525  12.083
86590W        W59658  13.511  42.445  11.660
86591W        W59659  29.453  34.583  13.402
86592W        W59660  21.095  26.056   3.676
86593W        W59661   3.849  23.954  13.335
86594W        W59662  39.454   1.253   3.858
86595W        W59663   5.719  26.723   1.267
86596W        W59664  30.631  37.802  11.482
86597W        W59665  32.704  36.099  13.013
86598W        W59666   3.335  43.100  14.895
86599W        W59667   0.904  28.650  12.340
86600W        W59668   0.584  34.624  12.483
86601W        W59669  16.170  32.446  10.604
86602W        W59670  19.762   7.883   4.512
86603W        W59671  15.129  29.683  10.391
86604W        W59672  32.014  29.894   3.171
86605W        W59673  21.877   7.141  11.176
86606W        W59674   0.841  24.474   2.900
86607W        W59675  40.060  33.848  10.539
86608W        W59676  43.101  14.896  11.059
86609W        W59677  31.462  28.033  12.516
86610W        W59678  29.979  36.118  10.620
86611W        W59679  18.019   4.623   3.031
86612W        W59680  32.056  31.037  14.760
86613W        W59681  37.361   6.323  12.902
86614W        W59682   0.997  20.039  14.557
86615W        W59683  20.101  29.195   0.210
86616W        W59684  40.948  23.707   0.434
86617W        W59685   0.874  40.319  14.620
86618W        W59686  21.150  27.802   5.077
86619W        W59687  38.551   0.246  13.363
86620W        W59688  23.584  41.543  11.094
86621W        W59689  41.814  35.404   1.382
86622W        W59690  22.479  32.445  11.763
86623W        W59691  40.232  22.079   1.838
86624W        W59692  21.109  13.260   3.845
86625W        W59693  33.622  28.425   4.519
86626W        W59694  19.129  13.230  11.862
86627W        W59695  36.933   9.708   4.947
86628W        W59696  20.143  12.188   0.004
86629W        W59697  43.810  25.911   2.287
86630W        W59698  34.992   9.361   4.101
86631W        W59699  27.361   3.579  13.352
86632W        W59700  44.911  30.892   0.054
86633W        W59701  34.222  20.154  11.911
86634W        W59702  42.924  27.081  12.997
86635W        W59703  43.949  27.694  11.206
86636W        W59704  33.926  21.489  11.709
86637W        W59705  18.540  28.710  14.008
86638W        W59706  37.294   3.938   2.596
86639W        W59707  15.920  38.973  14.501
86640W        W59708  11.875   9.950  10.502
86641W        W59709  31.976  44.674  14.056
86642W        W59710  28.476  25.070  13.555
86643W        W59711  44.742   2.860   0.527
86644W        W59712  12.726  12.178  12.981
86645W        W59713  11.731  41.237   1.353
86646W        W59714   1.754  16.650  13.667
86647W        W59715  38.023  23.574  13.489
86648W        W59716   7.905   5.165   0.051
86649W        W59717  16.124  34.571   3.542
86650W        W59718  40.454   1.349   3.780
86651W        W59719  43.266   6.082  11.135
86652W        W59720  21.290  33.055   0.816
86653W        W59721  25.515  35.558  14.540
86654W        W59722   0.728  42.675   1.374
86655W        W59723  11.251  39.431   0.274
86656W        W59724  24.025  13.338  13.932
86657W        W59725  24.704  26.860   2.282
86658W        W59726  13.289  43.929   0.898
86659W        W59727  36.159  27.581  10.747
86660W        W59728  19.053  16.887   0.719
86661W        W59729  27.758  40.318  11.622
86662W        W59730  35.052   7.889  12.356
86663W        W59731  41.794  33.930  12.045
86664W        W59732  31.658  36.612   2.644
86665W        W59733  41.390  32.560   2.479
86666W        W59734  21.274   1.704   3.826
86667W        W59735  34.850  34.088   1.991
86668W        W59736  21.293  21.635   3.952
86669W        W59737  20.520  19.164  14.320
86670W        W59738  14.053   6.865   3.775
86671W        W59739  18.217  29.457   0.232
86672W        W59740  39.110   8.728   0.370
86673W        W59741   8.316  19.554   0.745
86674W        W59742  31.117  12.766   1.755
86675W        W59743  37.855  44.246  13.923
86676W        W59744  41.531  42.052   1.375
86677W        W59745   2.927   8.735   3.871
86678W        W59746  26.086  12.824  12.116
86679W        W59747  27.561  33.946   2.684
86680W        W59748  40.843   4.972  13.528
86681W        W59749   5.320  18.871  12.387
86682W        W59750  34.970  12.180   3.747
86683W        W59751  28.064   9.329   3.822
86684W        W59752  20.299   8.656   2.685
86685W        W59753  44.328   0.474  10.138
86686W        W59754  18.733  24.724   0.744
86687W        W59755  17.255  42.770   2.396
86688W        W59756  34.077   3.929  12.435
86689W        W59757  14.274   3.823  14.314
86690W        W59758   4.886  22.776   4.182
86691W        W59759  20.055  14.081   1.399
86692W        W59760  40.885  12.871   2.440
86693W        W59761   0.292  28.533   1.929
86694W        W59762  37.631  12.089  10.981
86695W        W59763  33.836  32.247   2.139
86696W        W59764  16.659   3.639  14.488
86697W        W59765   8.288   7.869   0.964
86698W        W59766   3.806   3.739  12.039
86699W        W59767  31.013   7.555   2.902
86700W        W59768  16.175  16.823  11.615
86701W        W59769  42.831  39.266   3.820
86702W        W59770  21.211  15.611   0.641
86703W        W59771  28.240  30.488  12.000
86704W        W59772   8.917   6.714   4.590
86705W        W59773  31.669  10.278   0.830
86706W        W59774  19.116   5.786   3.730
86707W        W59775  21.009  38.549  10.713
86708W        W59776   0.963   4.312  10.949
86709W        W59777  22.757  15.540  13.223
86710W        W59778  38.911  41.829  13.108
86711W        W59779   0.733  44.049   1.821
86712W        W59780  32.791  39.989   4.094
86713W        W59781   6.707  23.623   1.138
86714W        W59782  38.388  12.768   2.284
86715W        W59783  40.474  42.783   0.700
86716W        W59784  25.032  44.084  13.559
86717W        W59785  19.120  18.955   1.374
86718W        W59786   1.701  28.074  10.667
86719W        W59787   7.586  35.877   0.183
86720W        W59788  32.742   4.980   9.787
86721W        W59789   3.246  42.502  12.177
86722W        W59790  36.624  26.897   4.048
86723W        W59791  31.987  30.863   0.259
86724W        W59792  13.356  34.690  11.318
86725W        W59793  33.516  27.061  12.561
86726W        W59794  41.786  37.252   4.187
86727W        W59795   0.826  30.951   2.827
86728W        W59796   9.230  18.807   4.240
86729W        W59797  25.737  29.759   3.160
86730W        W59798  38.866  25.730  13.459
86731W        W59799  41.889  31.362   2.305
86732W        W59800  10.445  10.687   1.407
86733W        W59801  13.708   9.989   4.059
86734W        W59802  25.819  12.339   9.675
86735W        W59803  23.745  41.844   1.863
86736W        W59804  23.816  35.041  13.766
86737W        W59805  14.276   6.899  11.279
86738W        W59806  33.468  25.209   4.391
86739W        W59807  36.383   5.274  14.089
86740W        W59808  29.880  26.622   0.237
86741W        W59809  22.234  10.120  10.735
86742W        W59810  18.137  35.405  10.399
86743W        W59811  39.467  23.290  13.936
86744W        W59812   9.265  36.518  13.271
86745W        W59813  29.306  14.154  12.855
86746W        W59814  22.571   7.731   4.526
86747W        W59815  35.461  35.025   4.686
86748W        W59816  26.649   5.902   0.153
86749W        W59817  44.270  24.483   0.796
86750W        W59818  22.917   0.182   1.999
86751W        W59819  14.941   8.366   4.823
86752W        W59820  42.022   4.272  13.686
86753W        W59821  43.335  26.126   2.367
86754W        W59822   8.260  23.554   2.072
86755W        W59823  11.520  22.201  14.458
86756W        W59824  41.038  34.072   4.175
86757W        W59825  37.500  25.997  10.795
86758W        W59826  29.156  21.947   3.309
86759W        W59827  36.673   2.360  10.748
86760W        W59828  22.365  32.474   0.291
86761W        W59829  10.495  29.461   3.696
86762W        W59830  32.990  34.611  10.681
86763W        W59831  17.764   0.255  12.177
86764W        W59832   3.244  25.016  11.101
86765W        W59833   7.659  31.475  13.808
86766W        W59834   8.188   5.060  10.700
86767W        W59835   8.026  33.085  12.774
86768W        W59836  30.073   7.337   1.116
86769W        W59837  19.192  23.273  11.198
86770W        W59838  40.438  31.563   2.789
86771W        W59839  11.468  18.115   3.085
86772W        W59840   8.103  19.524   1.606
86773W        W59841  10.664  36.940  12.299
86774W        W59842   0.027  35.451  12.466
86775W        W59843  25.912  22.495  13.344
86776W        W59844  29.368   3.984  12.917
86777W        W59845  36.953  13.381   2.316
86778W        W59846  32.569  30.913  14.863
86779W        W59847   7.365  31.166   3.149
86780W        W59848  33.115  24.494  14.961
86781W        W59849   8.576  16.756   4.679
86782W        W59850   8.382  37.226   4.081
86783W        W59851   7.616  35.408  11.093
86784W        W59852  20.501   7.256  10.704
86785W        W59853  11.194  28.746  11.042
86786W        W59854  35.495  33.168  12.027
86787W        W59855   7.730   9.752   4.789
86788W        W59856  22.409   1.839  13.577
86789W        W59857  20.693  24.608  10.493
86790W        W59858   9.013  18.769   3.681
86791W        W59859  12.782  24.698   1.270
86792W        W59860   0.833  10.112   0.922
86793W        W59861   0.197  12.798   1.965
86794W        W59862  37.941  39.236  11.557
86795W        W59863  35.150   0.055   3.811
86796W        W59864  15.642   7.697  12.675
86797W        W59865  34.433  15.484   2.310
86798W        W59866  13.323  21.591  13.331
86799W        W59867  26.985   5.644   1.810
86800W        W59868  12.275   8.270  12.006
86801W        W59869  34.932   3.819   4.625
86802W        W59870   5.366  18.046   2.559
86803W        W59871   8.235  38.054  11.313
86804W        W59872  17.127  40.352   5.112
86805W        W59873  13.670  40.809   2.456
86806W        W59874  31.468  28.011  14.546
86807W        W59875  16.189  33.368  12.992
86808W        W59876  13.644  11.739  13.246
86809W        W59877  24.256  11.385   0.632
86810W        W59878  43.697  20.678  12.465
86811W        W59879  14.337  20.506   1.715
86812W        W59880   7.803  40.065   3.272
86813W        W59881   9.772  24.567   0.855
86814W        W59882  11.000  36.278  11.039
86815W        W59883  28.043  11.893  13.023
86816W        W59884  44.561  15.394  10.770
86817W        W59885  22.424  24.493   4.154
86818W        W59886  37.478   4.200  11.319
86819W        W59887  37.619  35.173   3.153
86820W        W59888  43.285  43.397  11.023
86821W        W59889  26.283  44.926   4.937
86822W        W59890  36.625   9.008  11.958
86823W        W59891  43.271   7.830  14.180
86824W        W59892  13.133   4.274   4.573
86825W        W59893  22.953   0.481   0.539
86826W        W59894  32.535  39.955   0.175
86827W        W59895  35.296   1.720   3.154
86828W        W59896  25.208  20.665  12.010
86829W        W59897  23.011  20.212   0.763
86830W        W59898  30.943  12.727  12.404
86831W        W59899  23.734  32.486  12.036
86832W        W59900  43.889  25.990   4.770
86833W        W59901  28.288  39.001   2.150
86834W        W59902   9.680  14.210  10.487
86835W        W59903   0.561  14.107   2.592
86836W        W59904  39.477  23.792  11.593
86837W        W59905  20.812  39.208  14.329
86838W        W59906  11.759   8.133  12.896
86839W        W59907  18.813  10.418   1.218
86840W        W59908   3.786  43.273   1.479
86841W        W59909   8.796  31.126  10.574
86842W        W59910  24.090  29.344  11.938
86843W        W59911  27.819  32.240  10.181
86844W        W59912  24.455   8.399   4.896
86845W        W59913  22.034  44.409  13.282
86846W        W59914  16.305   0.336  10.745
86847W        W59915   4.245  34.792   0.394
86848W        W59916   5.667  39.286   3.246
86849W        W59917  23.508  19.613   1.939
86850W        W59918  38.034  28.021   2.654
86851W        W59919  39.364  31.372  12.956
86852W        W59920  38.303  41.653   0.891
86853W        W59921   1.758   1.839   4.414
86854W        W59922  44.794  21.547   0.898
86855W        W59923  43.014  14.680  12.384
86856W        W59924  33.531  13.726  11.559
86857W        W59925   0.808  42.464   0.464
86858W        W59926  15.187  39.813  14.847
86859W        W59927   8.184  36.406  14.287
86860W        W59928  21.499  13.906   1.891
86861W        W59929  21.212  20.149   2.260
86862W        W59930   1.550  29.502   2.042
86863W        W59931  43.307  21.128  10.893
86864W        W59932  13.792  36.600   4.598
86865W        W59933  40.097  27.465  10.847
86866W        W59934  28.575  22.560   3.145
86867W        W59935  25.097  36.593   1.116
86868W        W59936  44.077  44.132  11.111
86869W        W59937   3.987  24.762  12.106
86870W        W59938  36.553   0.800  13.163
86871W        W59939  36.914   7.200   0.248
86872W        W59940  20.236   2.091  13.386
86873W        W59941  33.856  22.974   2.669
86874W        W59942  14.161  28.258   1.767
86875W        W59943  43.466   6.330   0.055
86876W        W59944  25.250  15.703  14.255
86877W        W59945  38.541   2.476   0.713
86878W        W59946  44.460  30.102  11.199
86879W        W59947  25.773  19.211   0.830
86880W        W59948  12.644  33.338  13.454
86881W        W59949  17.146  37.942  12.943
86882W        W59950  42.813  41.090   3.552
86883W        W59951  26.277   6.578   0.643
86884W        W59952  35.860   8.923   4.608
86885W        W59953  36.390  27.019  13.097
86886W        W59954   8.353  41.088  10.272
86887W        W59955  36.224  27.485   4.534
86888W        W59956   4.962  29.368  12.019
86889W        W59957  11.024  28.178  11.743
86890W        W59958   0.686  14.054  11.179
86891W        W59959  17.334  37.142  11.638
86892W        W59960   8.349  32.856  12.446
86893W        W59961  42.151  25.698   4.110
86894W        W59962  16.234  14.152  10.711
86895W        W59963   7.681  38.662   1.201
86896W        W59964   0.456  20.324   4.002
86897W        W59965  21.719  12.290  14.551
86898W        W59966  14.976  17.353  12.179
86899W        W59967   8.425  19.287   3.396
86900W        W59968  30.066  27.972   1.043
86901W        W59969  20.647  22.884   3.789
86902W        W59970  30.662  31.611  11.497
86903W        W59971  44.244  14.613   2.810
86904W        W59972  29.117  15.497   2.355
86905W        W59973  15.736  12.203   1.139
86906W        W59974   4.785  28.463   3.806
86907W        W59975  19.559  19.850  12.055
86908W        W59976  42.441  39.788  11.498
86909W        W59977  25.605   8.905  10.748
86910W        W59978  28.598  27.432   0.432
86911W        W59979  24.694  24.363  12.039
86912W        W59980  21.666   2.463   0.615
86913W        W59981  18.558  44.423   2.906
86914W        W59982  37.089  18.940  13.545
86915W        W59983   3.665   7.131  10.797
86916W        W59984  27.521  43.940  12.428
86917W        W59985  31.525  41.713  12.977
86918W        W59986   2.788  34.798   0.737
86919W        W59987  42.391  24.402   2.278
86920W        W59988  13.325  28.494   2.403
86921W        W59989  13.119  23.670  11.661
86922W        W59990  30.371   4.759  10.831
86923W        W59991  18.607  38.081   4.624
86924W        W59992  11.942  39.964  13.013
86925W        W59993  40.486   2.182   0.917
86926W        W59994  13.288   2.866   1.943
86927W        W59995  25.432  29.068  12.947
86928W        W59996  38.793  32.735   0.989
86929W        W59997  11.147  31.057   4.136
86930W        W59998  35.244  15.257   4.791
86931W        W59999  26.036   8.935   2.439
86932W        W60000  22.574  17.410   0.972
86933W        W60001  24.120  24.101  10.979
86934W        W60002  44.814  14.845  14.938
86935W        W60003  16.958  14.663  14.375
86936W        W60004  42.831  19.571  14.832
86937W        W60005  30.641  12.330   0.331
86938W        W60006  35.257   7.616  11.983
86939W        W60007   8.724   0.212  13.093
86940W        W60008   6.431  33.098  12.050
86941W        W60009  18.813  21.157   5.041
86942W        W60010  39.085  42.027   2.753
86943W        W60011  14.602  29.500   1.596
86944W        W60012  39.829  23.404   2.741
86945W        W60013   8.899  44.824   3.433
86946W        W60014  35.056   1.219   1.760
86947W        W60015  10.919  33.311   1.744
86948W        W60016   9.781  34.431  14.933
86949W        W60017   3.419   5.639  10.705
86950W        W60018   4.918  32.378  14.565
86951W        W60019  40.185  30.661  11.193
86952W        W60020   9.741  19.611  14.869
86953W        W60021   3.254   3.463   3.116
86954W        W60022   6.827  30.595   2.260
86955W        W60023  27.138  16.238  14.978
86956W        W60024  16.906  27.319   4.175
86957W        W60025  14.600   0.451   3.616
86958W        W60026  34.538  13.102  13.337
86959W        W60027  19.760  38.986   1.326
86960W        W60028   1.971  10.267  11.645
86961W        W60029  27.042  28.258  14.747
86962W        W60030   5.836   5.427   3.446
86963W        W60031   6.018  14.139  13.529
86964W        W60032  14.360   0.433   3.153
86965W        W60033  44.283  21.491   0.829
86966W        W60034  17.728  22.068  11.056
86967W        W60035  28.572  18.703   0.261
86968W        W60036  34.575  27.020   0.568
86969W        W60037  19.452  26.648   3.617
86970W        W60038  30.523  29.733   2.694
86971W        W60039   5.228  19.857  10.637
86972W        W60040  16.111   8.077  13.820
86973W        W60041  15.269  44.095   1.050
86974W        W60042  18.231   6.213   0.428
86975W        W60043  44.814  30.668  10.695
86976W        W60044  22.967   8.610   1.883
86977W        W60045  14.598  44.041  10.612
86978W        W60046  26.763  40.550   0.295
86979W        W60047   7.235  33.184   0.033
86980W        W60048  22.646   2.685  10.648
86981W        W60049  36.495  30.173   2.233
86982W        W60050   2.957   4.918  12.305
86983W        W60051  36.573  44.846   2.524
86984W        W60052  38.958  41.362   0.820
86985W        W60053  43.550  18.720   0.228
86986W        W60054  32.142  40.476  10.371
86987W        W60055  44.588   3.304  12.618
86988W        W60056  30.851   7.256  14.057
86989W        W60057  32.378  37.449   0.375
86990W        W60058   1.853  44.723   3.236
86991W        W60059  13.739  30.453  12.979
86992W        W60060  41.818   4.628  12.376
86993W        W60061   4.527   3.274   3.828
86994W        W60062  10.650  24.934   1.660
86995W        W60063  35.866  27.479  12.912
86996W        W60064  21.720  14.199  13.102
86997W        W60065  10.716  20.896   3.681
86998W        W60066  43.981  43.110  11.015
86999W        W60067  40.466   2.354   1.434
87000W        W60068  12.566   2.296  12.969
87001W        W60069   0.481  43.678   0.415
87002W        W60070   1.443  23.802   0.169
87003W        W60071  35.988  23.633   1.197
87004W        W60072  14.671  43.233   3.801
87005W        W60073  31.647  12.609  12.770
87006W        W60074   4.283  25.997   3.733
87007W        W60075  27.386  24.120  11.039
87008W        W60076   9.692  35.832  11.671
87009W        W60077  33.609   5.488   3.236
87010W        W60078  20.967   6.628  13.999
87011W        W60079   4.943   5.211  14.218
87012W        W60080  43.102  27.035  13.934
87013W        W60081  18.535   1.169   1.611
87014W        W60082  38.554  31.886   1.285
87015W        W60083  44.339  40.868   4.739
87016W        W60084  27.926  13.757  12.980
87017W        W60085   8.170   8.659   5.168
87018W        W60086  41.581  31.049  11.452
87019W        W60087  23.443  39.416   1.412
87020W        W60088  39.618   0.284   3.650
87021W        W60089  14.063  12.714  13.049
87022W        W60090  12.594  29.943  12.367
87023W        W60091  42.352  33.301  12.890
87024W        W60092  29.393  34.973  10.592
87025W        W60093  29.643  11.164  12.564
87026W        W60094  44.535  30.726  12.024
87027W        W60095  39.770   4.160  12.946
87028W        W60096  15.131  12.991   3.443
87029W        W60097   7.621  13.090   4.599
87030W        W60098   2.407   3.168  10.433
87031W        W60099  30.378  20.462  12.071
87032W        W60100  38.108  10.261  14.320
87033W        W60101   2.971   7.914   2.663
87034W        W60102   4.247  11.871  14.269
87035W        W60103  20.212  16.703   4.344
87036W        W60104   3.339  15.964  14.328
87037W        W60105  37.343  33.672   0.173
87038W        W60106   7.185   5.554   2.651
87039W        W60107   1.517  42.386  14.742
87040W        W60108  29.916  13.627  12.439
87041W        W60109   7.294  40.473  13.827
87042W        W60110  25.689  15.146   1.140
87043W        W60111  42.954  21.536  14.915
87044W        W60112   2.170   2.894  12.050
87045W        W60113   7.447   5.550  12.944
87046W        W60114   3.246  41.468   4.062
87047W        W60115  10.781  10.768  10.517
87048W        W60116   0.347  42.350   4.837
87049W        W60117  33.172  14.062   2.677
87050W        W60118  18.957  25.966   1.894
87051W        W60119   7.658  31.441   2.811
87052W        W60120   0.967  44.420   4.167
87053W        W60121  19.078   8.217   4.637
87054W        W60122  26.665  16.299  10.750
87055W        W60123  41.792  34.364   3.289
87056W        W60124  12.341  32.527  11.540
87057W        W60125  12.094  18.742  12.949
87058W        W60126   1.982  16.192  13.497
87059W        W60127  17.797  44.551   2.764
87060W        W60128  34.919  44.652  11.963
87061W        W60129  28.579  42.395  11.181
87062W        W60130  15.301  22.951   1.905
87063W        W60131  40.972   0.060  12.740
87064W        W60132  30.383   2.456   0.193
87065W        W60133   6.705   2.942  10.676
87066W        W60134  35.465  21.750   4.852
87067W        W60135   9.678  33.192  11.780
87068W        W60136  24.871  24.739   3.182
87069W        W60137  39.861  34.043  14.490
87070W        W60138   1.035  43.386  13.902
87071W        W60139   3.670  19.848  11.231
87072W        W60140  32.598  40.428   3.314
87073W        W60141  34.247  34.157  11.057
87074W        W60142  16.236  35.557   1.858
87075W        W60143  21.621  23.469  13.482
87076W        W60144  33.918  32.929   4.746
87077W        W60145  29.967  44.308  13.357
87078W        W60146  20.491  20.207  14.529
87079W        W60147  42.862  26.018  13.930
87080W        W60148  39.288  11.213   3.645
87081W        W60149  26.431  23.604   2.943
87082W        W60150  41.638  39.843   4.281
87083W        W60151  15.143  36.815   1.438
87084W        W60152  32.442  19.238   4.522
87085W        W60153  38.277  38.427  14.778
87086W        W60154   4.491  41.854   4.223
87087W        W60155  32.363   6.026  12.902
87088W        W60156  37.963  21.919  14.019
87089W        W60157  27.180  14.634  11.164
87090W        W60158   8.753   8.534  11.777
87091W        W60159  13.297  11.832  14.454
87092W        W60160   8.588  35.500   4.638
87093W        W60161   8.875  34.280  14.947
87094W        W60162  28.618   3.305   0.140
87095W        W60163  44.773  20.729   2.760
87096W        W60164  44.431  22.233   3.166
87097W        W60165  13.139  32.433   3.542
87098W        W60166  11.344  43.401  13.076
87099W        W60167  13.257  43.101   0.312
87100W        W60168  41.836  18.147   4.094
87101W        W60169  30.186  13.002  10.590
87102W        W60170  12.305  31.084   2.152
87103W        W60171  28.388  16.652   3.164
87104W        W60172  23.450   3.407   0.921
87105W        W60173  17.738  19.696   3.270
87106W        W60174  13.841  16.241  14.586
87107W        W60175   7.848  25.133   5.134
87108W        W60176  31.587  31.281  14.480
87109W        W60177  44.770  21.726  13.817
87110W        W60178  31.529  43.316   0.316
87111W        W60179  40.458   3.751  11.224
87112W        W60180  27.271  24.043  14.888
87113W        W60181  33.806  44.482  10.061
87114W        W60182  25.596   4.825   3.720
87115W        W60183  25.688  32.082   3.626
87116W        W60184   4.161  14.756   3.278
87117W        W60185  12.801  23.504   2.782
87118W        W60186  16.835  26.685  10.256
87119W        W60187  22.200  17.017  12.439
87120W        W60188  38.438  28.059   2.973
87121W        W60189  35.619  13.595  14.318
87122W        W60190  11.328  19.162   9.782
87123W        W60191  38.069  41.669  13.016
87124W        W60192   2.996  35.525  14.370
87125W        W60193  24.733  38.371   3.169
87126W        W60194  39.995  32.530  14.700
87127W        W60195  43.004  10.761   2.178
87128W        W60196  41.804  41.798   1.729
87129W        W60197  23.489  16.564   1.778
87130W        W60198  29.470   8.260  13.561
87131W        W60199  22.049  21.104  11.115
87132W        W60200  33.947  40.950   4.783
87133W        W60201   7.557   2.971  14.464
87134W        W60202  11.171  12.782   0.387
87135W        W60203  25.912  43.540  11.792
87136W        W60204  41.458  30.096  10.813
87137W        W60205  34.649  11.792   1.457
87138W        W60206  21.555  30.577   4.882
87139W        W60207   7.651  19.997  13.317
87140W        W60208  31.459  24.226   2.790
87141W        W60209  11.784   9.250  13.852
87142W        W60210  38.761  35.620   4.174
87143W        W60211   6.982  12.109   0.394
87144W        W60212  36.098  10.571   3.879
87145W        W60213  33.237  25.040   2.584
87146W        W60214  34.026  35.392   1.478
87147W        W60215  10.360  43.780   0.748
87148W        W60216   1.194  24.108   3.702
87149W        W60217  23.584   6.299  12.170
87150W        W60218  39.971  14.602  11.492
87151W        W60219  40.022  13.959   5.235
87152W        W60220  32.064  12.182  11.119
87153W        W60221   5.177  13.139  13.539
87154W        W60222   8.581  31.125   0.208
87155W        W60223  13.320  33.021  12.810
87156W        W60224  28.687   0.887  10.998
87157W        W60225  15.425  40.071  10.357
87158W        W60226  19.997  10.419  12.936
87159W        W60227   6.247   9.356  10.895
87160W        W60228  40.637  17.965   3.407
87161W        W60229  15.300   6.904   4.653
87162W        W60230   9.381  10.663  12.614
87163W        W60231  20.194  44.983  10.902
87164W        W60232   7.845   9.361   0.484
87165W        W60233  43.526  25.003  14.406
87166W        W60234   1.278   3.703  12.899
87167W        W60235  11.778  15.347   3.051
87168W        W60236  16.230  16.207   4.509
87169W        W60237  35.024  43.425   1.175
87170W        W60238   0.986  37.237  11.596
87171W        W60239  15.254  36.501   3.366
87172W        W60240  17.636  27.717   1.817
87173W        W60241  21.504  44.371   3.284
87174W        W60242  42.609  31.121  12.605
87175W        W60243  13.298  20.539  12.453
87176W        W60244  30.945  21.711   4.649
87177W        W60245  29.521   5.498  11.200
87178W        W60246   5.164  17.815   1.310
87179W        W60247   5.283  34.754   2.611
87180W        W60248  23.518  18.303  11.600
87181W        W60249  16.734  33.125  12.607
87182W        W60250   4.194  11.249  12.530
87183W        W60251   4.202   8.847   3.274
87184W        W60252  35.530   7.724   1.725
87185W        W60253  40.800  22.667  11.216
87186W        W60254  35.284   6.369  14.721
87187W        W60255  44.994   1.142   2.666
87188W        W60256  33.738  28.422   3.805
87189W        W60257  26.536   2.760  12.576
87190W        W60258  22.227  15.916  13.819
87191W        W60259  23.974  12.185   3.271
87192W        W60260  43.255  30.534  11.527
87193W        W60261   4.900  18.027  12.460
87194W        W60262   1.717   8.803  13.324
87195W        W60263  42.823   9.663  10.770
87196W        W60264  16.850   0.980   3.098
87197W        W60265   0.381  32.896  14.574
87198W        W60266   1.731  37.447   2.720
87199W        W60267  16.732  28.034  12.410
87200W        W60268   7.606  10.550  12.955
87201W        W60269  29.970  27.784  10.755
87202W        W60270  17.007  27.502  12.555
87203W        W60271   4.470   7.258   2.419
87204W        W60272  32.519   5.204  13.411
87205W        W60273  40.351  15.608  13.414
87206W        W60274  25.197  36.836  14.380
87207W        W60275  43.255  15.544   0.383
87208W        W60276  34.380   0.357   0.386
87209W        W60277  23.117  42.254  10.709
87210W        W60278  38.816  41.003   3.812
87211W        W60279  20.292  29.386  14.280
87212W        W60280  42.438  21.432   0.668
87213W        W60281  36.952  35.080   4.575
87214W        W60282   7.271   0.703  11.380
87215W        W60283  32.663  42.768   2.838
87216W        W60284  14.205  40.346   3.173
87217W        W60285  34.637  31.350  13.861
87218W        W60286   2.185  38.016   0.982
87219W        W60287  43.995  35.119  13.489
87220W        W60288  41.921  36.578  13.083
87221W        W60289  35.689  29.523  13.819
87222W        W60290  41.799  37.882   1.910
87223W        W60291  32.626  17.286   4.660
87224W        W60292  42.011  23.558   3.310
87225W        W60293  33.134  21.194   4.677
87226W        W60294  10.658  24.248   3.615
87227W        W60295   2.744  34.735  11.519
87228W        W60296   7.859   7.948   2.902
87229W        W60297  35.560   7.541  13.407
87230W        W60298  24.555  44.360  10.664
87231W        W60299  34.410  35.463  11.105
87232W        W60300  23.102   7.560   3.204
87233W        W60301  19.997   4.643  12.599
87234W        W60302  36.413  29.121  11.580
87235W        W60303  21.617  17.065   0.806
87236W        W60304  30.529  19.653   3.682
87237W        W60305   0.624  25.827   2.704
87238W        W60306  43.538   9.865   1.374
87239W        W60307  38.503  18.744   1.181
87240W        W60308  22.672  16.565   4.236
87241W        W60309  42.558  10.261   3.235
87242W        W60310   0.447  40.055   0.366
87243W        W60311  38.365  25.927   1.672
87244W        W60312  36.829  20.550   4.110
87245W        W60313  41.088   3.354   3.193
87246W        W60314  22.008  21.296  12.434
87247W        W60315  32.996  37.269  12.730
87248W        W60316  15.889  17.682   1.723
87249W        W60317  36.477   9.372  11.197
87250W        W60318  17.664  13.573   3.481
87251W        W60319  35.102  10.447   0.775
87252W        W60320  19.565  41.498   2.223
87253W        W60321  11.477  40.938  10.071
87254W        W60322  15.885  17.647  14.767
87255W        W60323  15.632  27.722  13.406
87256W        W60324  23.042   2.915   1.648
87257W        W60325   0.752  29.463  11.968
87258W        W60326   0.087  34.212   3.717
87259W        W60327  19.766   6.264  12.104
87260W        W60328  30.995   4.270   4.111
87261W        W60329  20.667  22.754  13.934
87262W        W60330  20.291  23.587  10.790
87263W        W60331  43.295   9.668   2.742
87264W        W60332  35.154   5.809   0.850
87265W        W60333  14.565   3.833  11.116
87266W        W60334   0.780  43.893  13.075
87267W        W60335   6.805  26.721  10.272
87268W        W60336   0.639  11.852   3.737
87269W        W60337  22.062  12.632   0.816
87270W        W60338  13.360  30.974   3.307
87271W        W60339  12.036  29.543  12.840
87272W        W60340  33.397  13.617  14.321
87273W        W60341  16.640  19.610   3.882
87274W        W60342  24.609  23.427  11.158
87275W        W60343  24.205  25.162   4.915
87276W        W60344  43.878  29.880   3.362
87277W        W60345  27.592  26.643  13.805
87278W        W60346  30.208  26.841   0.766
87279W        W60347   7.823  33.076   2.141
87280W        W60348   7.915  39.387  13.022
87281W        W60349  26.061   9.407   0.782
87282W        W60350  14.349  31.813   0.704
87283W        W60351  20.224  17.802   2.325
87284W        W60352  30.206  17.709   1.435
87285W        W60353  21.819  25.391   0.630
87286W        W60354  22.900  32.184   0.776
87287W        W60355  18.165  38.968   0.042
87288W        W60356   7.282   0.429  13.384
87289W        W60357   0.246   6.590   0.418
87290W        W60358  36.612  18.605  14.919
87291W        W60359  39.792   1.267   4.229
87292W        W60360  42.969  19.579   0.854
87293W        W60361   4.067  24.549  14.006
87294W        W60362  31.661  38.335  12.629
87295W        W60363  40.575   6.601  12.938
87296W        W60364  42.141  16.326   1.229
87297W        W60365  18.936  27.260  11.978
87298W        W60366  24.295   9.013  10.206
87299W        W60367  32.936  41.338   4.380
87300W        W60368  31.682   7.753  13.121
87301W        W60369  43.299  20.235   2.779
87302W        W60370  40.506  22.654   9.971
87303W        W60371  42.695  12.177   2.168
87304W        W60372  14.690  11.343   3.741
87305W        W60373  12.191  42.467   1.798
87306W        W60374  32.641  36.447   2.796
87307W        W60375  31.883   8.739   4.115
87308W        W60376  16.100  39.513  13.260
87309W        W60377  19.518  21.081   1.400
87310W        W60378  11.241  35.323   2.669
87311W        W60379  24.684  13.756   1.450
87312W        W60380  22.768   2.466   4.110
87313W        W60381   1.731   9.410   2.736
87314W        W60382   9.131   4.179   4.144
87315W        W60383  13.466  34.715  10.459
87316W        W60384  27.859  11.849   3.213
87317W        W60385  38.874  14.352  11.264
87318W        W60386  40.006  43.948  13.898
87319W        W60387   9.241  12.605  11.214
87320W        W60388  11.666  19.398   0.814
87321W        W60389  16.652  17.246   1.960
87322W        W60390  44.968  28.227  11.070
87323W        W60391  39.756   2.031   0.424
87324W        W60392  16.711   1.520   2.275
87325W        W60393  30.637  11.809   0.283
87326W        W60394  25.029  27.850  11.610
87327W        W60395   0.416   0.165   4.194
87328W        W60396  17.273   1.116  14.061
87329W        W60397  29.213  28.467  12.998
87330W        W60398   8.694  42.075  14.808
87331W        W60399  24.896   1.682  11.967
87332W        W60400   6.239  28.717   0.679
87333W        W60401  42.006  18.593   0.771
87334W        W60402  17.705  34.078   0.967
87335W        W60403  32.366  30.037   1.788
87336W        W60404  36.616  35.595  14.296
87337W        W60405   3.296  22.691   4.530
87338W        W60406  13.584   9.371  11.994
87339W        W60407  25.913  40.751   0.446
87340W        W60408  25.029  42.480   0.180
87341W        W60409  23.607   6.583   2.377
87342W        W60410  22.151  23.770  11.070
87343W        W60411  41.560  21.000  12.891
87344W        W60412   8.160  11.214   2.272
87345W        W60413  36.193  21.485  11.143
87346W        W60414  22.030  44.698   1.022
87347W        W60415   1.442   0.044  13.984
87348W        W60416  21.480  18.654  14.566
87349W        W60417   7.684  18.992   2.896
87350W        W60418  25.853  15.636  10.565
87351W        W60419  12.635  34.680   2.182
87352W        W60420   3.681  31.560   0.524
87353W        W60421   8.730  37.586  14.726
87354W        W60422  27.031  44.225   4.832
87355W        W60423  22.151  22.080   3.641
87356W        W60424  36.025  24.754   0.355
87357W        W60425  29.352  37.665   2.728
87358W        W60426   0.431   1.545  12.014
87359W        W60427  26.461  33.505   1.278
87360W        W60428  14.461  39.121  14.785
87361W        W60429  31.828  17.265  13.967
87362W        W60430   4.464  38.003   2.840
87363W        W60431  16.819  11.668   0.691
87364W        W60432  26.626  33.741  11.581
87365W        W60433   2.790  43.389  10.685
87366W        W60434  23.098  24.014  12.983
87367W        W60435  33.863  41.521   0.917
87368W        W60436  33.085  13.281   0.468
87369W        W60437   0.876  21.694   0.289
87370W        W60438  37.694  30.812   4.174
87371W        W60439   9.370   8.235   3.720
87372W        W60440  18.500   8.717  14.884
87373W        W60441  44.938  27.453  10.711
87374W        W60442  37.028  30.992   2.175
87375W        W60443   7.872   5.691  14.352
87376W        W60444   7.598  11.281   3.859
87377W        W60445  11.800  40.832   1.678
87378W        W60446  35.543  35.086  13.565
87379W        W60447  27.005  41.797  11.198
87380W        W60448  41.075  11.735  11.060
87381W        W60449   0.812  11.185   2.423
87382W        W60450   8.006  36.764   0.487
87383W        W60451  16.291  36.477  10.662
87384W        W60452  37.632  18.138   4.726
87385W        W60453   0.859  23.132  14.803
87386W        W60454  36.951   6.963  13.832
87387W        W60455  42.301  43.432  10.249
87388W        W60456  31.537  40.865  10.577
87389W        W60457  29.669  25.582   2.776
87390W        W60458  33.116  11.921   0.246
87391W        W60459  13.092  22.751   2.369
87392W        W60460   5.388  25.219  12.627
87393W        W60461   6.187  15.641  11.069
87394W        W60462  40.363  30.571  10.464
87395W        W60463  38.138  24.833   4.553
87396W        W60464   9.379  30.070   3.006
87397W        W60465  21.133   9.920  13.555
87398W        W60466  44.460   2.219   4.600
87399W        W60467   9.216  32.026   0.827
87400W        W60468  19.018  40.957   4.217
87401W        W60469  27.070  42.334   4.491
87402W        W60470   3.166  12.197  13.806
87403W        W60471  44.939  42.955   2.178
87404W        W60472  24.784   7.448  10.984
87405W        W60473  12.577  31.444  11.571
87406W        W60474  10.260   0.388   0.923
87407W        W60475  24.186  10.454   0.379
87408W        W60476  17.813  28.205   3.826
87409W        W60477  33.129  32.006   3.682
87410W        W60478  19.222  40.187  12.888
87411W        W60479  21.958   9.768  14.344
87412W        W60480  14.879  25.154  13.983
87413W        W60481  11.773   0.972  11.494
87414W        W60482  10.954  33.868  11.970
87415W        W60483  14.696  25.221  11.717
87416W        W60484   0.576  27.295   1.149
87417W        W60485  40.859  41.453  14.835
87418W        W60486  37.290  14.748   2.311
87419W        W60487  37.474   3.815   4.065
87420W        W60488  35.407  10.854  10.671
87421W        W60489  22.232  38.158   2.927
87422W        W60490   6.420  17.359  10.980
87423W        W60491  43.979  31.022  10.325
87424W        W60492  40.811  12.677  11.590
87425W        W60493  13.517   3.402  14.305
87426W        W60494  15.197  24.243  13.486
87427W        W60495  29.675  10.184   5.089
87428W        W60496  24.296   6.857  11.999
87429W        W60497   3.256   0.333  12.088
87430W        W60498   5.510  42.391   3.370
87431W        W60499   6.398  28.733   1.509
87432W        W60500  31.352  40.248   3.245
87433W        W60501  16.485   3.976   2.650
87434W        W60502  43.575   5.080   4.424
87435W        W60503  32.276   0.697   3.686
87436W        W60504  22.800  15.437  11.059
87437W        W60505  40.042  10.277   2.775
87438W        W60506  25.997  19.131  12.852
87439W        W60507  25.594  31.341  13.897
87440W        W60508  17.053   9.704   3.227
87441W        W60509   1.417   2.159   1.367
87442W        W60510   6.321   3.440  14.602
87443W        W60511  14.847  42.532   4.719
87444W        W60512  39.935  26.218  14.063
87445W        W60513  20.218  27.019  13.998
87446W        W60514  12.796  33.322  14.909
87447W        W60515  19.991  32.548   3.685
87448W        W60516   3.988  32.824  11.487
87449W        W60517   4.211  31.473  11.617
87450W        W60518  24.908  18.642   2.661
87451W        W60519   7.794   5.241   0.963
87452W        W60520  20.772   1.862  13.484
87453W        W60521  13.741  30.992  13.598
87454W        W60522  14.280  34.941   3.229
87455W        W60523   0.414  34.121   2.179
87456W        W60524   8.745  32.456   3.756
87457W        W60525  28.888  15.259   3.208
87458W        W60526  37.418  22.102  10.169
87459W        W60527  41.021   7.867   0.876
87460W        W60528   9.090  44.463  14.884
87461W        W60529  28.091  10.528  14.896
87462W        W60530  30.114  21.461  13.501
87463W        W60531  25.999   5.439  14.990
87464W        W60532  43.629   5.700  12.438
87465W        W60533   0.831  33.967   4.487
87466W        W60534   5.199  36.540   4.664
87467W        W60535  24.581  23.833  12.068
87468W        W60536  21.513   8.091  14.272
87469W        W60537  28.245   6.153   1.658
87470W        W60538  44.512  36.983   3.077
87471W        W60539  34.230  19.125   3.313
87472W        W60540  19.165  42.961   3.056
87473W        W60541  43.292  17.271  11.964
87474W        W60542  21.781  38.112  13.832
87475W        W60543  15.773  42.299   0.715
87476W        W60544   7.363  42.016   4.129
87477W        W60545  29.427  40.911   4.724
87478W        W60546  21.410  11.213   0.959
87479W        W60547  34.012  15.800   2.219
87480W        W60548   1.968   8.809   4.274
87481W        W60549  14.404   8.643   2.734
87482W        W60550   4.854  33.845  11.052
87483W        W60551  24.153  35.932  10.720
87484W        W60552  28.670  38.841   1.525
87485W        W60553  41.258  10.172  12.408
87486W        W60554  18.703   8.512  10.365
87487W        W60555   7.934  43.350  12.453
87488W        W60556  13.572  32.512   2.234
87489W        W60557  16.073  28.088   2.318
87490W        W60558  35.863  23.577   4.109
87491W        W60559  31.093   1.001  11.094
87492W        W60560  26.087  23.494   2.568
87493W        W60561   8.254  15.842  13.571
87494W        W60562  32.885  26.775  13.069
87495W        W60563  41.305  14.106  14.870
87496W        W60564  36.034  20.358   0.320
87497W        W60565  38.475   8.160  13.004
87498W        W60566   2.702  42.035  13.883
87499W        W60567  17.778  16.072   4.675
87500W        W60568  17.818  20.802  11.614
87501W        W60569  26.176  42.084  13.533
87502W        W60570  37.966  36.639   4.121
87503W        W60571  43.404  35.739   0.732
87504W        W60572  28.983   9.329   0.288
87505W        W60573   7.795   8.393  12.302
87506W        W60574  11.252  26.442  12.489
87507W        W60575  44.633  27.622   2.942
87508W        W60576  11.254  18.795   4.766
87509W        W60577  32.071  20.680  14.098
87510W        W60578  14.407   6.491  14.540
87511W        W60579  36.400  36.097   3.168
87512W        W60580  13.106  21.530   3.799
87513W        W60581  33.103   0.419   4.618
87514W        W60582  20.299  30.699  14.068
87515W        W60583  10.877  17.170  13.415
87516W        W60584  23.899  44.438  12.170
87517W        W60585  14.544   1.839   0.531
87518W        W60586  29.184   5.186  12.893
87519W        W60587   0.467  20.290   2.610
87520W        W60588  22.748  30.471   2.714
87521W        W60589  11.202  16.245  11.219
87522W        W60590   1.782  40.916   4.708
87523W        W60591  19.229  11.208   4.669
87524W        W60592  33.668  24.101   1.392
87525W        W60593  10.611  16.645   1.894
87526W        W60594  38.876  28.245  14.998
87527W        W60595  18.504  15.585  13.962
87528W        W60596  37.123  32.840   3.878
87529W        W60597  30.219   4.422  14.393
87530W        W60598  28.041   6.648   3.911
87531W        W60599   2.791  23.448   1.768
87532W        W60600  40.929  33.119  11.444
87533W        W60601  30.480  30.739   2.758
87534W        W60602  41.332  14.077   4.521
87535W        W60603  11.925  11.607   1.256
87536W        W60604  38.811  44.762  12.932
87537W        W60605  37.108   5.964   2.204
87538W        W60606  17.131  44.939  10.648
87539W        W60607  33.120  16.132   4.172
87540W        W60608   3.851   8.723  10.665
87541W        W60609   5.023   9.819  13.766
87542W        W60610  32.828  40.746   1.213
87543W        W60611  13.050  29.623  14.463
87544W        W60612  42.474  26.260   0.056
87545W        W60613  16.904   4.263   1.196
87546W        W60614  12.157  18.898   4.359
87547W        W60615  34.924   1.831   0.789
87548W        W60616  37.535  21.441  10.975
87549W        W60617  11.847  39.368  13.444
87550W        W60618  28.573  20.656  10.909
87551W        W60619   7.925  11.595  12.845
87552W        W60620  30.439   3.160   4.098
87553W        W60621  30.760   4.312   2.300
87554W        W60622   4.400  32.542  11.273
87555W        W60623   4.734  21.053   9.930
87556W        W60624  43.121  22.138   3.526
87557W        W60625  33.466  16.810   2.637
87558W        W60626  41.292  28.424   1.691
87559W        W60627  17.597  16.599  13.018
87560W        W60628  38.473  27.509   4.163
87561W        W60629  21.079  39.339  11.471
87562W        W60630  41.416  39.868   1.052
87563W        W60631  43.361  41.889   4.283
87564W        W60632   3.327   0.705   3.600
87565W        W60633  25.080  26.000  11.474
87566W        W60634  27.924  43.033   3.638
87567W        W60635  30.391  36.509   1.367
87568W        W60636  40.616  21.440   2.389
87569W        W60637  41.173  43.488   1.109
87570W        W60638  27.080  15.549  11.959
87571W        W60639  22.016  41.604   4.258
87572W        W60640  32.436  28.507  13.153
87573W        W60641  44.213  23.987   0.893
87574W        W60642  31.072  31.461   1.993
87575W        W60643  41.810  27.474  14.285
87576W        W60644   9.438  32.890  14.805
87577W        W60645  30.645  33.031   2.280
87578W        W60646   9.548  15.511  12.402
87579W        W60647   6.641  26.155   2.673
87580W        W60648  40.636  41.516  11.953
87581W        W60649  16.852  24.758   3.505
87582W        W60650  37.077  26.968   1.297
87583W        W60651  21.085  26.378   4.488
87584W        W60652   3.837  36.895  12.755
87585W        W60653  22.278  14.121   5.021
87586W        W60654  30.510  34.250   4.454
87587W        W60655  32.378  32.295  13.638
87588W        W60656  22.803  42.074  12.007
87589W        W60657  18.769  37.849   3.119
87590W        W60658  10.760  33.591   4.628
87591W        W60659  14.706  21.764  10.402
87592W        W60660   7.601   8.538   3.312
87593W        W60661  38.046   6.776  14.890
87594W        W60662  35.987  44.846   3.726
87595W        W60663   0.728  21.100  10.704
87596W        W60664  36.093   6.417  14.266
87597W        W60665  10.721  12.310  14.317
87598W        W60666  19.552  15.214  14.505
87599W        W60667  35.765  37.841  11.601
87600W        W60668   1.865  27.567  12.612
87601W        W60669   2.203  10.236  11.193
87602W        W60670  34.415  39.749  13.388
87603W        W60671  10.178  21.364  11.445
87604W        W60672  12.137  20.646   4.465
87605W        W60673  22.589  42.038  14.194
87606W        W60674  11.106  23.048   1.728
87607W        W60675  33.966  24.789  13.001
87608W        W60676  28.729  39.333   3.405
87609W        W60677   6.540   9.542  10.040
87610W        W60678  36.157  29.703   0.914
87611W        W60679  26.653  39.962  12.859
87612W        W60680  27.695  33.926   3.717
87613W        W60681  41.018  26.679  10.672
87614W        W60682  15.587  36.949  11.238
87615W        W60683   2.214  25.041  13.010
87616W        W60684  17.218  32.183   3.697
87617W        W60685  44.950  42.876  12.792
87618W        W60686  26.451  32.829   0.033
87619W        W60687  33.662  21.687   0.358
87620W        W60688   1.191  23.478   4.155
87621W        W60689  42.580  29.272  14.149
87622W        W60690  21.706  18.292  11.885
87623W        W60691   1.317  33.079  10.926
87624W        W60692   6.112  28.236  11.293
87625W        W60693  41.349  33.915  11.684
87626W        W60694  36.567  37.805  12.021
87627W        W60695  37.815  33.598  12.445
87628W        W60696  37.446  29.696   4.574
87629W        W60697  29.636  19.266  12.096
87630W        W60698  30.427  26.014   1.006
87631W        W60699  40.811   8.987  14.407
87632W        W60700  20.286  15.065   2.612
87633W        W60701  18.564   1.955  13.938
87634W        W60702  35.713  10.620  11.628
87635W        W60703  10.670   4.951   0.944
87636W        W60704  22.516  16.031  13.400
87637W        W60705  23.620  31.475   4.135
87638W        W60706  28.242  34.463   2.764
87639W        W60707   7.301  27.956   3.206
87640W        W60708   1.017   3.427   0.377
87641W        W60709   4.490   2.394   3.549
87642W        W60710  22.696  19.278  11.307
87643W        W60711  41.843  26.428  12.990
87644W        W60712   1.668   1.006   0.212
87645W        W60713  26.195  34.373  14.685
87646W        W60714  42.123   4.602   2.762
87647W        W60715  17.492  35.909  14.445
87648W        W60716   9.570   1.661   4.149
87649W        W60717  26.229  31.659   2.185
87650W        W60718  35.126  39.434  11.649
87651W        W60719   8.442  42.891   3.266
87652W        W60720  42.767  12.802   2.777
87653W        W60721  32.844   0.879  11.658
87654W        W60722  44.942  25.647  13.821
87655W        W60723  30.675  17.778  12.768
87656W        W60724   9.931  22.131   4.432
87657W        W60725  18.293  36.537   0.439
87658W        W60726  10.242  44.059  13.471
87659W        W60727  17.370  19.068  13.016
87660W        W60728  21.599   7.267  10.750
87661W        W60729  33.029  34.620  13.470
87662W        W60730  24.128  26.010   4.301
87663W        W60731  11.799  11.841   3.725
87664W        W60732  37.965  21.178   3.863
87665W        W60733  12.010  32.108   4.040
87666W        W60734  25.384  38.499   3.730
87667W        W60735  21.580   0.750  11.636
87668W        W60736  19.311   5.062  11.111
87669W        W60737  22.986   3.698  14.383
87670W        W60738  20.234  38.571  12.496
87671W        W60739   3.034  20.264   2.624
87672W        W60740  42.308  15.601   4.768
87673W        W60741  20.959  26.199  13.099
87674W        W60742  20.693  17.679   1.345
87675W        W60743  33.674   3.517  10.977
87676W        W60744  44.407  44.543   5.042
87677W        W60745  32.542  29.578  12.519
87678W        W60746   5.281  20.653  11.085
87679W        W60747  22.045  44.258  11.974
87680W        W60748  43.848  20.066   4.700
87681W        W60749   6.406  17.344   2.381
87682W        W60750   2.693  44.725   4.135
87683W        W60751  29.970   0.555   2.435
87684W        W60752   2.773  41.735  12.083
87685W        W60753  11.102   0.763   2.828
87686W        W60754  32.740  25.601   4.837
87687W        W60755  43.477   1.631  10.726
87688W        W60756  27.592  12.315   4.299
87689W        W60757   9.331  11.781   0.884
87690W        W60758  11.890  41.262  13.120
87691W        W60759  13.034  44.175   2.628
87692W        W60760  36.840  17.320  12.503
87693W        W60761  21.030  20.262  11.127
87694W        W60762  28.963  37.750  14.450
87695W        W60763  20.713  18.867   0.775
87696W        W60764  16.379  23.213  11.200
87697W        W60765  20.055  27.609   0.931
87698W        W60766   7.790  28.990  10.882
87699W        W60767  32.983  16.805  12.292
87700W        W60768  12.290  15.854   4.138
87701W        W60769   6.334  24.481   4.719
87702W        W60770  27.457  31.040   4.014
87703W        W60771  40.597   0.835  12.011
87704W        W60772  28.212  14.149   4.146
87705W        W60773  37.930  11.595  11.532
87706W        W60774  13.642   0.781  12.075
87707W        W60775  21.480  33.865   0.336
87708W        W60776  20.925  25.868   2.730
87709W        W60777  13.958   8.746  11.471
87710W        W60778  32.627  39.441  12.832
87711W        W60779  31.921  40.259   0.906
87712W        W60780  32.918  22.504   1.670
87713W        W60781  24.734  21.432  11.126
87714W        W60782   7.184  34.080   3.350
87715W        W60783  40.752   9.388  10.736
87716W        W60784  10.893  15.814  11.956
87717W        W60785  34.113  26.896  14.442
87718W        W60786  15.873   2.401  12.311
87719W        W60787  30.918  15.986  13.402
87720W        W60788  32.842  28.511   3.293
87721W        W60789  19.956  40.993  11.228
87722W        W60790  43.927  25.387   3.743
87723W        W60791   4.324  27.186  13.984
87724W        W60792  23.736  11.827   4.141
87725W        W60793  30.630  34.687   1.967
87726W        W60794   7.315  39.862  10.695
87727W        W60795  42.516  23.452   3.405
87728W        W60796  24.503  40.901  11.993
87729W        W60797  44.301  44.403  14.420
87730W        W60798  43.822  21.610   3.115
87731W        W60799   9.860  44.559  12.386
87732W        W60800  27.600  18.648   2.631
87733W        W60801  43.393  17.801  10.467
87734W        W60802  26.228   0.169  11.897
87735W        W60803  29.389  42.337   4.063
87736W        W60804  17.207   4.885   2.356
87737W        W60805  12.579  16.316   1.867
87738W        W60806  29.758  41.994  11.803
87739W        W60807   2.219  18.759   4.186
87740W        W60808  38.516  34.788   2.803
87741W        W60809   7.809   2.480  14.018
87742W        W60810  20.529  10.085   3.545
87743W        W60811  33.506   2.703   0.889
87744W        W60812  12.308   6.844  11.587
87745W        W60813  23.470   1.684   1.216
87746W        W60814  36.986  14.252  14.775
87747W        W60815  25.472  42.307  12.649
87748W        W60816  30.416  15.289   3.182
87749W        W60817  10.137  31.991  13.946
87750W        W60818  22.857  11.135   2.209
87751W        W60819  44.990   4.465  14.417
87752W        W60820  11.359  17.624   1.214
87753W        W60821  13.032   1.232  14.070
87754W        W60822  37.551  31.702  12.859
87755W        W60823  39.922  40.025   0.835
87756W        W60824   5.695  10.457  12.466
87757W        W60825  22.968  43.445   2.095
87758W        W60826  15.109  26.106  10.972
87759W        W60827  38.363  31.263  10.963
87760W        W60828  26.446  29.792  14.776
87761W        W60829  20.972  26.090  10.691
87762W        W60830  12.784   8.288  12.020
87763W        W60831  34.501  12.490  10.894
87764W        W60832  27.685   9.438  11.535
87765W        W60833   0.819  35.355   3.438
87766W        W60834  41.295  36.019  14.871
87767W        W60835   6.643  31.133  13.892
87768W        W60836  35.857  34.963   1.877
87769W        W60837  44.439  22.164  13.600
87770W        W60838  18.968  33.357  13.315
87771W        W60839  13.162   7.682   3.138
87772W        W60840  12.153  38.302   2.323
87773W        W60841   2.639  20.740  13.081
87774W        W60842  14.660   2.493   2.302
87775W        W60843  44.980   3.235  12.958
87776W        W60844  17.567  24.625  11.469
87777W        W60845   2.988  12.518   0.439
87778W        W60846  11.705  30.735   3.248
87779W        W60847  36.726   2.311   3.336
87780W        W60848  17.244   5.996  14.060
87781W        W60849  35.528  36.415   1.496
87782W        W60850   5.784  18.616   0.062
87783W        W60851  35.619  15.592  14.009
87784W        W60852   3.868  29.124   3.753
87785W        W60853   2.685   5.797   3.163
87786W        W60854  41.826  15.930  14.698
87787W        W60855  29.621  42.095  14.519
87788W        W60856  42.923  34.705   2.741
87789W        W60857  19.848  14.219   2.759
87790W        W60858  33.445   7.555   2.200
87791W        W60859  42.009   7.000  11.989
87792W        W60860   2.704  19.448  10.064
87793W        W60861  31.605   5.749  12.594
87794W        W60862   0.095  27.546  13.979
87795W        W60863   6.798  31.342   3.656
87796W        W60864   0.746  29.516   3.662
87797W        W60865  11.316  39.824   2.252
87798W        W60866   3.246  31.276  13.162
87799W        W60867  27.235  21.522   2.749
87800W        W60868  36.868  39.994  14.014
87801W        W60869  29.472  27.062  14.480
87802W        W60870  10.944  33.898   1.472
87803W        W60871  27.441  29.190  11.557
87804W        W60872  42.050  25.987   0.790
87805W        W60873  37.243  15.718   2.409
87806W        W60874  15.052   8.454  14.463
87807W        W60875  14.064  37.169  11.903
87808W        W60876  42.425   4.678   5.244
87809W        W60877  44.312  35.977   3.425
87810W        W60878  31.570  38.852   4.480
87811W        W60879  30.846  18.505  14.551
87812W        W60880   1.270  21.775  11.038
87813W        W60881  36.103  38.813  12.042
87814W        W60882  32.445  21.087  13.322
87815W        W60883   3.904  10.105  12.160
87816W        W60884  17.573  28.056  10.597
87817W        W60885  37.979  33.360  11.133
87818W        W60886  16.175  41.263   4.059
87819W        W60887  10.916  15.280  11.218
87820W        W60888  33.057   2.481  12.606
87821W        W60889  16.113   2.004  11.402
87822W        W60890   3.138  44.955  14.733
87823W        W60891  16.337  44.910  11.061
87824W        W60892   0.504  40.015  14.382
87825W        W60893  16.159  16.042  10.647
87826W        W60894   7.000  25.562  13.449
87827W        W60895   0.721  26.923  11.122
87828W        W60896  13.723  26.565  12.894
87829W        W60897   5.646  40.822   2.101
87830W        W60898  43.044   4.318   4.212
87831W        W60899  38.830  37.993   0.377
87832W        W60900  30.978  28.104   5.052
87833W        W60901  31.023  27.177  14.009
87834W        W60902  17.020   8.361  13.976
87835W        W60903  37.233  33.006   9.856
87836W        W60904  10.101  20.784   4.916
87837W        W60905  29.587  19.809  14.402
87838W        W60906  41.233   3.202  12.148
87839W        W60907  35.563  25.521  11.069
87840W        W60908  35.520  29.559   3.039
87841W        W60909  31.097   4.965   2.212
87842W        W60910  39.978  22.661   2.291
87843W        W60911  14.454  32.470  12.179
87844W        W60912  13.037  23.663  13.043
87845W        W60913  12.394   5.906  10.563
87846W        W60914  30.441  10.800  13.539
87847W        W60915  43.908  26.912   3.813
87848W        W60916  18.817  24.058   3.621
87849W        W60917   0.559  20.636  11.772
87850W        W60918  14.757  19.224   0.403
87851W        W60919  34.089   8.551  13.227
87852W        W60920  38.568   1.503  11.522
87853W        W60921  37.609  40.632  14.725
87854W        W60922  42.361  17.032  11.299
87855W        W60923  41.656  26.765   9.890
87856W        W60924  19.570   9.995  14.367
87857W        W60925   9.321  24.664  13.416
87858W        W60926  13.780  34.864   3.262
87859W        W60927   5.250  29.613   3.754
87860W        W60928  15.123  32.384  11.080
87861W        W60929  37.965  40.872   0.430
87862W        W60930  44.972  30.066  11.323
87863W        W60931  17.151  10.793  14.224
87864W        W60932   0.758   4.324  11.402
87865W        W60933   7.125  31.372  13.957
87866W        W60934  14.938   0.245   1.337
87867W        W60935  34.509  24.042   0.452
87868W        W60936  33.541  26.096   2.774
87869W        W60937  41.773  21.115   2.881
87870W        W60938   7.646  10.714  11.486
87871W        W60939  30.284  13.747   1.226
87872W        W60940  35.727  14.806   0.194
87873W        W60941  34.446  39.972  13.870
87874W        W60942   3.000  31.551  10.879
87875W        W60943  43.221   4.828  11.097
87876W        W60944  37.108  31.755   3.243
87877W        W60945  23.855  31.324   1.045
87878W        W60946   7.767   8.685   3.808
87879W        W60947  14.789  37.615  14.255
87880W        W60948  28.709  41.143  11.543
87881W        W60949  10.571   6.153  10.077
87882W        W60950  27.464  28.057   2.858
87883W        W60951  19.710   9.846  13.885
87884W        W60952   6.731  41.839   4.764
87885W        W60953  19.656  23.155  14.866
87886W        W60954  14.699   0.931  11.224
87887W        W60955  11.739  21.071  13.534
87888W        W60956  14.885  27.160  12.996
87889W        W60957  11.754  17.201   0.638
87890W        W60958   9.874   7.593  13.656
87891W        W60959  35.514  22.262   4.543
87892W        W60960  14.358   6.833   0.864
87893W        W60961   2.757  19.085   0.682
87894W        W60962  19.677   9.674   2.810
87895W        W60963   2.811  19.763  10.478
87896W        W60964   3.262  37.874  14.951
87897W        W60965  30.349  39.196   0.671
87898W        W60966  27.048  12.864   3.869
87899W        W60967  31.440  31.113  10.803
87900W        W60968  34.830  23.143   0.933
87901W        W60969  40.078   0.019   1.940
87902W        W60970  44.778  37.609   4.320
87903W        W60971  30.385  22.659  14.937
87904W        W60972  14.353   9.314   0.041
87905W        W60973   7.712  32.914   2.629
87906W        W60974  43.889  38.604   3.401
87907W        W60975  30.088  15.841  13.799
87908W        W60976  24.037  12.428  11.207
87909W        W60977  13.077   7.921   2.239
87910W        W60978  39.571  28.623   4.174
87911W        W60979  31.496   0.173   3.854
87912W        W60980  41.482  31.582   1.973
87913W        W60981  22.317  27.718   2.829
87914W        W60982  29.146   9.414  14.409
87915W        W60983  38.439   4.934  13.350
87916W        W60984  36.530  39.234   5.234
87917W        W60985  20.534  24.445   1.186
87918W        W60986  36.938   3.825  12.238
87919W        W60987  24.845  23.914   2.852
87920W        W60988  26.242  10.894  13.173
87921W        W60989  17.151   4.269  12.585
87922W        W60990   1.169  12.187   4.351
87923W        W60991  43.004  19.027  10.739
87924W        W60992  19.227  18.250   3.140
87925W        W60993  21.778  29.657   4.217
87926W        W60994   2.611   5.515  14.558
87927W        W60995   8.753  13.835  10.710
87928W        W60996  34.279  31.090  14.698
87929W        W60997   7.381  39.453  10.983
87930W        W60998  23.262  41.860   4.882
87931W        W60999  33.859   5.245   1.860
87932W        W61000  27.591  13.192  11.154
87933W        W61001  29.131  33.478  12.675
87934W        W61002   3.746  39.044  12.556
87935W        W61003  41.546   9.638  14.340
87936W        W61004  16.576  16.527   0.403
87937W        W61005  22.873  35.593  14.770
87938W        W61006  13.935  38.963  10.960
87939W        W61007   1.011  38.811  11.644
87940W        W61008  39.691  15.435  11.678
87941W        W61009  35.307  29.716  11.757
87942W        W61010  36.060  35.898   4.799
87943W        W61011  26.515  40.474   4.924
87944W        W61012  36.049  31.415   2.170
87945W        W61013  22.058  35.858  11.469
87946W        W61014   5.050  21.000  13.853
87947W        W61015  26.131  22.044  10.951
87948W        W61016  20.047  10.745  11.510
87949W        W61017   4.585  23.977  10.464
87950W        W61018  15.781  35.846  12.446
87951W        W61019  36.131  12.640  13.936
87952W        W61020  37.564   2.895   2.611
87953W        W61021  40.311  32.339  12.940
87954W        W61022  35.609  15.548   5.143
87955W        W61023  32.468  31.982   4.933
87956W        W61024   2.133  26.560   1.358
87957W        W61025  13.704   9.660   0.962
87958W        W61026   6.413  20.231  12.077
87959W        W61027   6.872  44.449   3.626
87960W        W61028  11.795  22.052   4.219
87961W        W61029  25.614  38.599  13.424
87962W        W61030  40.751  39.434   3.589
87963W        W61031  40.518  20.483  11.952
87964W        W61032  44.252  21.660  13.672
87965W        W61033  33.015  28.619   0.255
87966W        W61034  42.491  20.627  10.709
87967W        W61035  44.477  31.715   9.926
87968W        W61036  28.430  19.198   3.894
87969W        W61037  33.092  16.723   3.670
87970W        W61038  24.198  22.205  13.827
87971W        W61039  12.836  37.582   2.177
87972W        W61040   0.607  28.022  13.430
87973W        W61041  43.317  20.248  11.866
87974W        W61042  17.742  22.204  10.554
87975W        W61043  42.506  15.678  14.077
87976W        W61044  11.314  36.556  10.732
87977W        W61045  22.943  19.218  14.916
87978W        W61046  25.999   1.657   3.945
87979W        W61047  13.929  24.699   3.723
87980W        W61048   3.706  15.160   2.089
87981W        W61049  38.527  40.612   2.707
87982W        W61050  24.252   1.767  13.321
87983W        W61051   1.561  15.764  13.316
87984W        W61052  20.611  10.037  14.363
87985W        W61053  28.269  40.618   0.443
87986W        W61054  30.886  40.500  13.923
87987W        W61055  39.376  17.329   0.360
87988W        W61056  20.516  19.589   4.675
87989W        W61057  31.745   0.291  10.610
87990W        W61058  31.037  43.262   0.048
87991W        W61059  36.594  38.730  12.202
87992W        W61060  24.088  43.842  14.318
87993W        W61061  37.391  41.583   5.044
87994W        W61062  27.098  10.370   3.671
87995W        W61063  21.992   3.964   0.003
87996W        W61064   4.941  28.160   0.865
87997W        W61065  19.489  28.593  13.979
87998W        W61066   7.237  41.083   1.986
87999W        W61067  24.665  36.998  12.526
88000W        W61068  35.846  32.904   3.270
88001W        W61069  31.856  11.297   2.584
88002W        W61070  44.747  44.472  12.421
88003W        W61071   0.471  19.473   1.783
88004W        W61072  37.806  30.537  10.685
88005W        W61073  29.063  28.892   1.919
88006W        W61074  24.758  23.163   2.713
88007W        W61075  20.613  17.093  11.217
88008W        W61076  33.336  42.002   1.361
88009W        W61077  42.281  29.177   3.422
88010W        W61078  16.584   5.803  11.367
88011W        W61079  26.640   8.149  12.047
88012W        W61080  30.110  39.890  13.582
88013W        W61081  31.406  15.599  12.996
88014W        W61082  14.188  43.513  13.147
88015W        W61083   1.380  36.821   0.436
88016W        W61084   9.640  25.259   2.423
88017W        W61085  16.810  15.260  14.919
88018W        W61086  14.635   6.778  10.939
88019W        W61087  42.610  13.138  12.529
88020W        W61088  32.816  23.730   0.436
88021W        W61089  35.022  44.069   2.987
88022W        W61090  19.153   9.101   1.651
88023W        W61091  44.737  13.780  11.568
88024W        W61092  32.138  44.007   1.297
88025W        W61093  18.226  32.839  13.193
88026W        W61094  44.272  18.119   1.450
88027W        W61095   0.698  14.404  13.859
88028W        W61096  20.828  23.554   1.197
88029W        W61097  30.597  39.834  13.913
88030W        W61098  10.328  44.836  10.718
88031W        W61099  21.626  26.952   2.744
88032W        W61100  31.924  27.651   0.844
88033W        W61101  12.922   0.198  10.358
88034W        W61102  12.367   0.855  12.490
88035W        W61103  10.828  29.117   3.445
88036W        W61104   7.931  34.992  11.200
88037W        W61105  12.263  28.972   1.233
88038W        W61106  35.863  10.049  11.040
88039W        W61107  17.333  20.832   3.691
88040W        W61108  34.782  22.750   3.559
88041W        W61109   0.006  20.734  13.935
88042W        W61110  35.892  21.248   1.870
88043W        W61111   3.734  23.612  13.970
88044W        W61112  30.467   5.109  14.887
88045W        W61113  12.379  35.443   2.304
88046W        W61114  20.421   5.656   4.588
88047W        W61115   7.652   1.802  14.723
88048W        W61116  20.144  19.515  13.130
88049W        W61117  26.286  26.046  12.465
88050W        W61118   2.535  44.410   1.308
88051W        W61119   1.463   0.589   3.657
88052W        W61120   9.255  34.956  11.549
88053W        W61121   8.323  30.171   0.331
88054W        W61122  32.016  30.228   4.856
88055W        W61123   9.152  39.542   1.291
88056W        W61124  39.718  42.901  13.537
88057W        W61125  39.297  36.298  14.324
88058W        W61126  36.616  24.134  13.459
88059W        W61127  34.662   3.809  14.756
88060W        W61128   9.733  38.641   3.294
88061W        W61129  27.566  26.059   3.366
88062W        W61130  17.224  16.337  14.975
88063W        W61131   3.570  37.375   2.087
88064W        W61132  18.321  42.477  12.939
88065W        W61133  30.026   6.663  14.762
88066W        W61134  39.427  19.018  13.218
88067W        W61135  13.004  20.486   1.686
88068W        W61136  10.308  33.012   4.863
88069W        W61137  21.698  31.557   1.927
88070W        W61138  40.380  14.471   4.083
88071W        W61139  21.785   1.103   0.755
88072W        W61140   8.164  14.832  12.885
88073W        W61141  30.296  11.752  14.251
88074W        W61142  19.833  25.640   2.271
88075W        W61143  39.996  40.101   1.345
88076W        W61144  24.441  21.668  12.403
88077W        W61145  14.794   2.837  10.701
88078W        W61146   4.298  29.538  14.720
88079W        W61147  11.814  22.620  14.397
88080W        W61148  28.067   0.408  11.523
88081W        W61149  42.083  27.649   4.690
88082W        W61150  30.827  12.249  13.857
88083W        W61151  25.284   9.673  12.530
88084W        W61152   5.045  40.808  11.821
88085W        W61153   7.766   6.459   1.266
88086W        W61154   3.910  42.902   1.114
88087W        W61155   1.246   9.240   3.931
88088W        W61156  15.409  33.868  10.416
88089W        W61157  27.915   0.363   0.315
88090W        W61158   2.256  39.064  14.658
88091W        W61159  16.197  24.602  12.585
88092W        W61160  25.509  12.903   1.776
88093W        W61161  18.669  28.970  13.570
88094W        W61162  21.235  30.398  13.848
88095W        W61163   5.721   3.158   3.913
88096W        W61164  27.942  36.600   4.180
88097W        W61165  44.543  12.575  13.920
88098W        W61166  33.045  42.692  10.625
88099W        W61167  22.528  16.004   3.333
88100W        W61168  15.344  30.996  11.563
88101W        W61169   0.357  43.823   3.706
88102W        W61170  13.265  20.109   3.969
88103W        W61171  26.789  32.453  14.776
88104W        W61172  25.449  24.662  13.944
88105W        W61173  20.753   2.982   2.728
88106W        W61174  32.103   1.268   4.134
88107W        W61175  39.045  22.503   1.215
88108W        W61176  25.258  12.566   3.869
88109W        W61177  38.290  25.453  14.651
88110W        W61178  35.209  34.369   1.218
88111W        W61179  16.777   9.809  10.337
88112W        W61180  19.750  44.325   5.390
88113W        W61181   2.324  41.019  11.905
88114W        W61182  19.043   5.624   4.726
88115W        W61183  43.744  34.504   4.668
88116W        W61184  19.179  35.982   3.275
88117W        W61185  33.932  36.549   3.126
88118W        W61186  33.014   1.753  13.781
88119W        W61187  38.842  39.605   2.682
88120W        W61188  26.396  12.386  12.088
88121W        W61189   3.328   0.962  12.548
88122W        W61190  31.474   5.287  14.496
88123W        W61191  23.975  22.450   5.122
88124W        W61192  22.708  25.394  13.297
88125W        W61193  20.724  10.628  12.028
88126W        W61194  12.358   3.243   4.332
88127W        W61195  41.445  30.077   0.038
88128W        W61196  23.468  35.570   3.767
88129W        W61197   5.907   1.522   4.160
88130W        W61198  41.515  12.411  14.281
88131W        W61199   9.738   0.068  12.377
88132W        W61200  25.833   4.633  12.378
88133W        W61201  41.565  31.586  12.985
88134W        W61202  30.226  44.340   2.935
88135W        W61203  36.774  32.183  12.937
88136W        W61204   7.767   0.911   2.929
88137W        W61205  43.278   2.855  12.421
88138W        W61206  44.395  26.046  13.024
88139W        W61207  33.071  30.078   3.961
88140W        W61208  20.618   9.378   1.846
88141W        W61209  17.590  19.637  11.515
88142W        W61210  31.030  19.097   2.913
88143W        W61211   9.874  27.764  14.336
88144W        W61212   8.140  32.790   4.109
88145W        W61213   4.904   3.713  13.940
88146W        W61214  28.221  10.199   0.582
88147W        W61215   8.346  41.853   4.592
88148W        W61216  37.924  39.960   4.033
88149W        W61217  41.602  15.228  12.527
88150W        W61218  11.928   6.902  13.320
88151W        W61219   3.888  14.770   1.032
88152W        W61220  25.776  13.698   0.838
88153W        W61221  25.160  31.440   3.270
88154W        W61222  19.519  41.227  12.064
88155W        W61223   5.806  42.157   1.755
88156W        W61224  43.491  19.594   1.741
88157W        W61225  12.566   3.022  13.427
88158W        W61226  16.443   3.674   1.721
88159W        W61227  26.206  10.286   0.890
88160W        W61228  13.560  21.171  11.133
88161W        W61229  18.662  19.270  14.943
88162W        W61230  26.150   7.832   4.973
88163W        W61231   9.723  18.854   4.077
88164W        W61232  32.508  35.368  11.926
88165W        W61233  15.536  33.647  11.884
88166W        W61234   9.475  25.103   3.294
88167W        W61235  35.444  17.623   4.218
88168W        W61236  10.060   7.970  13.313
88169W        W61237  35.552   3.392   1.348
88170W        W61238  22.630   0.443  11.214
88171W        W61239  20.307  37.818  14.987
88172W        W61240  42.366  19.649  11.490
88173W        W61241  26.610  14.655   4.654
88174W        W61242  30.961   6.455   3.196
88175W        W61243  32.370  19.968   1.652
88176W        W61244   8.482  37.008   1.368
88177W        W61245   4.416  12.326   1.386
88178W        W61246   2.461  29.022   1.632
88179W        W61247  19.253   4.807  14.754
88180W        W61248  40.758  40.415  12.577
88181W        W61249  29.868  16.077  11.623
88182W        W61250  13.295  26.020   3.145
88183W        W61251  28.446  23.635  11.977
88184W        W61252   4.394  36.473  14.690
88185W        W61253   2.331  19.759   1.650
88186W        W61254  32.702   6.755  11.958
88187W        W61255  13.925  25.004  10.711
88188W        W61256   5.368   2.864  13.880
88189W        W61257   3.398  13.775  12.429
88190W        W61258  11.471  27.534  13.125
88191W        W61259  32.854  11.782   0.862
88192W        W61260   0.083  14.222   2.782
88193W        W61261  36.400   5.976  10.463
88194W        W61262  21.274   7.385  14.913
88195W        W61263  25.611  25.478   3.500
88196W        W61264  14.420   6.684  12.102
88197W        W61265  22.171  20.539   0.399
88198W        W61266   7.760  33.435  13.526
88199W        W61267   3.156  18.276   3.305
88200W        W61268  43.400  24.211   4.132
88201W        W61269  10.884  21.117   3.228
88202W        W61270  30.420  14.637   3.518
88203W        W61271   9.886  20.792   0.736
88204W        W61272  23.828  34.605   4.087
88205W        W61273  28.776  39.799   1.443
88206W        W61274   3.813  39.385   2.087
88207W        W61275   1.320  17.131   1.759
88208W        W61276  36.409  38.663   4.365
88209W        W61277  22.032  25.106   4.108
88210W        W61278  28.162  30.392  13.757
88211W        W61279  41.622  40.372  13.769
88212W        W61280   3.316  39.781   3.518
88213W        W61281  16.753  17.036   4.662
88214W        W61282  44.170  27.711  13.627
88215W        W61283  43.392  14.116  10.194
88216W        W61284   1.443  30.579   1.895
88217W        W61285   4.000   4.657   1.888
88218W        W61286  21.941  19.027  13.903
88219W        W61287  16.979  12.295   2.884
88220W        W61288   5.920  32.475   2.818
88221W        W61289   6.478  36.983  12.049
88222W        W61290  28.367  11.123   9.713
88223W        W61291  19.236  20.351   0.469
88224W        W61292  36.798  22.508   4.314
88225W        W61293  36.560  39.999  12.979
88226W        W61294  18.524   9.525  10.731
88227W        W61295  10.679   7.703  14.702
88228W        W61296  29.592  18.614  12.366
88229W        W61297  34.628  14.177   4.604
88230W        W61298   8.331  13.798   2.985
88231W        W61299   1.326  40.304   3.519
88232W        W61300  39.438  14.270  13.967
88233W        W61301  12.342   0.889   3.320
88234W        W61302  11.719   3.918  11.441
88235W        W61303  37.880   6.382  13.667
88236W        W61304   2.719  11.976   1.059
88237W        W61305  40.995  17.625  10.384
88238W        W61306  24.005  11.918  11.155
88239W        W61307  26.271   8.826   4.582
88240W        W61308  15.229  41.547  14.458
88241W        W61309  21.212  44.083   1.541
88242W        W61310  18.562  14.075   2.553
88243W        W61311  41.780   0.986   3.163
88244W        W61312   1.977  41.234  11.585
88245W        W61313   8.451  37.838  14.374
88246W        W61314   3.564  18.742  13.119
88247W        W61315  18.743  31.671  14.279
88248W        W61316   4.877   1.444   3.826
88249W        W61317  31.454   5.817   1.937
88250W        W61318  30.826  35.651   3.291
88251W        W61319  36.871  36.807  13.357
88252W        W61320   8.172  32.711  13.950
88253W        W61321  25.567  21.959  12.951
88254W        W61322  42.566  34.291  13.032
88255W        W61323   6.227  24.554   2.189
88256W        W61324   7.603  35.098   3.894
88257W        W61325  19.503  10.571  10.805
88258W        W61326  37.155  19.174   1.266
88259W        W61327  22.941  31.038   0.161
88260W        W61328  22.397  32.099   1.828
88261W        W61329  40.735  42.467   1.535
88262W        W61330  31.634  39.375  13.924
88263W        W61331  31.399  44.172   0.883
88264W        W61332  30.328  29.591   0.476
88265W        W61333  35.351   4.124   0.877
88266W        W61334   9.082  26.447   3.130
88267W        W61335   2.005  19.523  13.332
88268W        W61336  37.513  28.048  14.489
88269W        W61337  27.589  30.905   0.162
88270W        W61338  18.234  10.064  11.364
88271W        W61339   4.648  31.947  14.783
88272W        W61340  37.946  35.425  11.178
88273W        W61341  15.596  20.105   0.222
88274W        W61342  13.697   3.520   1.270
88275W        W61343  32.068  44.380  11.517
88276W        W61344  21.039  29.316  14.821
88277W        W61345  28.427  19.689  12.280
88278W        W61346  26.089  40.827   4.709
88279W        W61347  19.209  39.383   2.725
88280W        W61348  42.165  18.192  13.529
88281W        W61349  29.123   8.818   1.203
88282W        W61350  35.557  27.075  11.187
88283W        W61351  44.919  40.209   2.799
88284W        W61352  25.203  33.395   0.112
88285W        W61353  19.083  33.395  14.303
88286W        W61354  15.705  33.673   1.408
88287W        W61355   1.028  33.631   3.328
88288W        W61356   5.116   4.683   3.170
88289W        W61357  34.699   6.080   0.900
88290W        W61358  43.424   4.726  14.464
88291W        W61359  25.494  28.570  11.677
88292W        W61360   9.857  24.057   2.080
88293W        W61361   6.528   8.761  11.014
88294W        W61362  20.245   0.402   0.379
88295W        W61363   5.338  16.996   0.952
88296W        W61364   6.143  32.818   4.796
88297W        W61365  26.261   7.492   3.747
88298W        W61366  29.408  41.331  14.743
88299W        W61367  40.033   6.228  13.336
88300W        W61368  26.614  10.294  13.083
88301W        W61369  29.984  18.198   3.358
88302W        W61370  41.792  16.543  10.705
88303W        W61371  32.890  14.645   3.304
88304W        W61372  13.251  17.709  11.175
88305W        W61373   0.204   1.639  14.501
88306W        W61374  25.973  22.028   1.234
88307W        W61375   3.002  39.926  12.975
88308W        W61376  43.933  23.071  13.581
88309W        W61377  24.905  15.218   0.290
88310W        W61378  31.839  11.458  12.787
88311W        W61379   8.259   1.930  11.489
88312W        W61380  12.319  35.229   1.770
88313W        W61381   4.216  23.406   1.391
88314W        W61382   4.360  21.705   1.716
88315W        W61383  19.138  30.281  13.490
88316W        W61384  37.073  27.370  13.605
88317W        W61385  37.739  14.237   1.653
88318W        W61386  20.256  39.398  12.086
88319W        W61387  36.294   5.409   2.978
88320W        W61388  34.642  26.895  14.469
88321W        W61389  19.239   0.198   4.645
88322W        W61390  16.824  10.286   1.501
88323W        W61391  26.340   1.354   4.528
88324W        W61392   9.288   5.839  13.557
88325W        W61393   9.125   4.731  10.385
88326W        W61394  30.084  36.929   3.975
88327W        W61395  29.491   8.680   3.289
88328W        W61396   7.240  44.074  14.762
88329W        W61397   2.395  38.917   3.270
88330W        W61398  10.381  37.797  11.576
88331W        W61399  17.371  43.000  10.872
88332W        W61400   3.603  22.519   0.422
88333W        W61401  14.654  11.250   1.203
88334W        W61402  10.831  20.506  10.647
88335W        W61403  18.581  16.550   0.429
88336W        W61404  15.361  42.492   0.957
88337W        W61405   7.989  15.902  12.610
88338W        W61406  13.078  14.915   0.933
88339W        W61407  36.856  23.160  11.397
88340W        W61408  29.863   9.714  10.567
88341W        W61409   8.592  14.304  14.809
88342W        W61410  18.846  16.665   4.534
88343W        W61411  20.457  10.091  12.904
88344W        W61412  34.351  10.742  13.426
88345W        W61413   4.980  20.728   4.182
88346W        W61414  44.453  40.297  12.634
88347W        W61415  17.887  17.721   0.678
88348W        W61416  10.667  14.709  14.417
88349W        W61417  41.477  20.112  13.441
88350W        W61418  20.188  26.298   2.176
88351W        W61419  38.553   5.405   4.371
88352W        W61420  19.821   6.201   4.365
88353W        W61421   3.927  39.125   0.710
88354W        W61422  43.282  42.578  13.357
88355W        W61423  12.513  16.032  11.517
88356W        W61424  20.468  19.000  13.852
88357W        W61425   5.219  25.980   0.515
88358W        W61426   1.351  34.595   2.978
88359W        W61427  39.596  11.365   3.224
88360W        W61428  31.241  10.139  11.790
88361W        W61429   9.842   9.334   3.361
88362W        W61430  14.093  32.637  12.525
88363W        W61431  29.725  31.334   0.040
88364W        W61432  18.101  25.954   2.758
88365W        W61433   0.026  25.429   5.109
88366W        W61434  18.749   8.625  14.414
88367W        W61435  16.673  24.233  13.256
88368W        W61436   5.963   8.244  11.505
88369W        W61437  32.860  43.540   4.636
88370W        W61438  36.494  17.102  14.811
88371W        W61439  39.263   8.832   2.312
88372W        W61440  20.901  34.568  13.509
88373W        W61441   1.457   8.951  10.985
88374W        W61442  19.636  41.777  14.001
88375W        W61443  19.223  44.811   0.406
88376W        W61444  10.942   3.830   3.469
88377W        W61445  14.894  24.075  14.318
88378W        W61446  44.002  29.069   3.784
88379W        W61447  44.975  40.751  14.284
88380W        W61448  16.687   9.719   1.346
88381W        W61449  21.069  22.621  10.672
88382W        W61450  26.714  11.317   3.740
88383W        W61451   7.608   7.387  14.789
88384W        W61452   0.215  42.765  11.415
88385W        W61453   6.880   1.553  12.919
88386W        W61454   5.081   1.329   3.344
88387W        W61455  11.431   0.355   2.966
88388W        W61456  44.128  38.877  10.717
88389W        W61457  39.439  29.691   0.230
88390W        W61458  41.305  24.760  10.682
88391W        W61459  16.843  25.645  11.987
88392W        W61460  15.824  16.675  14.355
88393W        W61461  22.000   5.744   1.382
88394W        W61462  22.529  24.697  13.784
88395W        W61463  11.247   6.258  14.385
88396W        W61464   2.468  42.900   5.032
88397W        W61465  33.411   0.493   1.360
88398W        W61466  35.428  31.809   1.380
88399W        W61467  11.264  37.938  13.535
88400W        W61468  30.131  17.336  12.151
88401W        W61469  36.219  10.127   5.153
88402W        W61470  11.168  27.117  10.705
88403W        W61471  11.820  31.260  13.250
88404W        W61472  38.990  24.662   2.626
88405W        W61473  19.254  37.688  13.118
88406W        W61474   5.863  36.449  12.706
88407W        W61475  14.731  43.054   4.623
88408W        W61476  40.289  16.349   1.284
88409W        W61477  33.546  31.900   2.751
88410W        W61478   7.672  17.986   0.354
88411W        W61479  38.613  32.158   2.843
88412W        W61480   6.275  37.828  13.386
88413W        W61481  25.450  35.971   1.499
88414W        W61482   5.377  39.467  14.723
88415W        W61483  25.226  14.767  12.357
88416W        W61484  40.590  30.026  13.811
88417W        W61485  36.189  20.688  13.005
88418W        W61486  32.394  15.691   0.040
88419W        W61487  28.369  21.717  12.856
88420W        W61488  30.896   5.322   0.785
88421W        W61489  19.668  21.467   1.056
88422W        W61490  30.151  20.627  11.382
88423W        W61491  31.940  27.233  14.059
88424W        W61492  24.145   6.819  11.483
88425W        W61493  21.623  17.178   3.585
88426W        W61494  36.358  23.495   4.081
88427W        W61495  41.421  44.321   4.121
88428W        W61496  32.894  24.465  12.004
88429W        W61497  25.898  24.399  14.010
88430W        W61498   8.772  15.587  11.419
88431W        W61499   5.849  27.963   3.277
88432W        W61500   6.755  21.614   0.710
88433W        W61501  10.479  43.942   3.813
88434W        W61502  43.098  35.250   4.904
88435W        W61503  17.318  16.699  13.438
88436W        W61504  18.911  36.424   3.367
88437W        W61505  23.980  40.516  11.526
88438W        W61506  25.431  11.310  11.002
88439W        W61507  31.535   0.460  14.614
88440W        W61508  23.757   5.243  12.514
88441W        W61509   9.927  33.032  14.852
88442W        W61510   2.467  15.976  12.834
88443W        W61511   8.573  17.317   1.143
88444W        W61512   1.368  33.269   1.371
88445W        W61513   7.208   9.663  14.314
88446W        W61514   3.362  29.510   4.571
88447W        W61515  39.390   6.821  11.794
88448W        W61516  28.570  12.743  13.616
88449W        W61517  43.367  35.028   2.805
88450W        W61518  36.344   1.832   4.606
88451W        W61519  41.445  19.620   2.454
88452W        W61520  12.435  26.945  13.293
88453W        W61521  29.074  19.370  10.454
88454W        W61522  22.315  27.182  14.227
88455W        W61523  20.022  17.492  10.736
88456W        W61524  24.162  12.113  14.368
88457W        W61525  36.433  31.695   0.190
88458W        W61526  22.142  19.604  11.519
88459W        W61527  12.374  38.930  14.369
88460W        W61528   6.653   7.413  11.532
88461W        W61529  37.869  37.128   0.272
88462W        W61530  11.349  43.937   0.552
88463W        W61531   3.673  17.766   3.143
88464W        W61532  37.884  12.137   3.268
88465W        W61533  31.370  29.403  10.721
88466W        W61534   6.671  35.027   0.378
88467W        W61535  22.686  34.442  14.734
88468W        W61536  26.407  11.725  11.442
88469W        W61537  26.181  15.105  14.874
88470W        W61538   7.438  34.044  11.907
88471W        W61539   3.234  27.589   4.637
88472W        W61540  41.723  29.400   3.517
88473W        W61541  27.632  39.775   2.767
88474W        W61542  12.250  17.387  12.546
88475W        W61543  23.215  40.302   4.511
88476W        W61544   5.903   5.896   4.229
88477W        W61545   8.297  24.654   4.420
88478W        W61546  17.772   6.013  14.060
88479W        W61547  24.989  35.131   2.021
88480W        W61548  23.468   6.122  13.141
88481W        W61549  36.607  42.490   1.148
88482W        W61550  26.635  10.395  11.869
88483W        W61551  18.955  17.071  12.915
88484W        W61552  38.357  19.610   3.399
88485W        W61553  26.121  31.462  14.344
88486W        W61554  37.020  13.105   3.657
88487W        W61555  44.961   7.686  10.534
88488W        W61556  16.892   9.316  10.231
88489W        W61557  40.878  38.605  12.014
88490W        W61558  36.535   2.504  11.947
88491W        W61559  35.818   6.368   3.216
88492W        W61560  31.579  22.061  14.820
88493W        W61561  27.242   8.751   3.549
88494W        W61562  22.753  40.584   3.746
88495W        W61563  15.788  11.515   3.282
88496W        W61564  30.257   4.309  12.482
88497W        W61565  23.196   9.260  14.004
88498W        W61566  25.112  20.248  11.205
88499W        W61567   4.846   3.618   1.879
88500W        W61568  12.177   1.322   3.099
88501W        W61569  33.996  34.986   2.457
88502W        W61570  26.784  14.554   2.400
88503W        W61571   0.868  39.629   0.265
88504W        W61572  41.372  34.798  10.915
88505W        W61573  20.175  40.141   0.756
88506W        W61574   0.822  14.974   4.260
88507W        W61575   2.461   3.720  11.708
88508W        W61576  33.234   2.860  10.625
88509W        W61577  10.247  14.133  13.282
88510W        W61578   1.641  36.264   2.493
88511W        W61579  19.256   3.982   2.307
88512W        W61580  23.743   8.624  11.178
88513W        W61581   6.664  30.629  11.182
88514W        W61582  32.797   2.439  11.100
88515W        W61583   4.930   7.392  14.735
88516W        W61584  12.109  38.946  14.809
88517W        W61585   5.594   6.449   4.963
88518W        W61586   1.421   6.891   4.089
88519W        W61587  27.618  16.286   0.823
88520W        W61588  19.030  13.816  13.560
88521W        W61589  23.492   0.951   3.170
88522W        W61590  22.768  43.305   1.578
88523W        W61591   3.698  11.339   4.164
88524W        W61592  33.466   8.084  14.827
88525W        W61593   9.156  15.212   0.187
88526W        W61594  21.743  42.759  12.351
88527W        W61595   0.863  34.548   0.461
88528W        W61596   7.419  26.200   3.257
88529W        W61597  41.275  13.356   2.167
88530W        W61598  39.441  44.480  12.136
88531W        W61599  21.008  40.788   2.732
88532W        W61600  20.636  41.067   2.994
88533W        W61601   7.972  28.006  12.005
88534W        W61602  24.627  17.983  11.190
88535W        W61603  37.378  38.336  10.965
88536W        W61604   4.814   5.664  10.513
88537W        W61605  22.722  38.702  10.285
88538W        W61606  23.470  11.738   4.576
88539W        W61607  30.436  26.490   1.217
88540W        W61608  25.372  17.777   1.093
88541W        W61609   4.749  12.830   2.663
88542W        W61610  26.987  12.183   2.766
88543W        W61611  43.723  32.794  11.681
88544W        W61612  38.780   6.754   3.168
88545W        W61613  10.092  27.245   2.927
88546W        W61614   5.824  30.872  14.306
88547W        W61615   9.207  28.273   0.270
88548W        W61616  39.366  35.416  12.049
88549W        W61617  15.716  41.937   3.166
88550W        W61618   4.295  36.303   2.941
88551W        W61619  26.546  32.898  11.109
88552W        W61620   5.200  37.444   4.385
88553W        W61621  19.136   4.267  10.877
88554W        W61622  42.852  42.066   4.660
88555W        W61623  38.460  40.774  14.742
88556W        W61624  43.522  43.018  14.478
88557W        W61625  30.472   1.464   3.453
88558W        W61626  18.121  34.548   2.285
88559W        W61627  23.516  17.164  14.899
88560W        W61628  25.671  38.110  11.530
88561W        W61629  19.552  31.121  14.454
88562W        W61630  39.555  22.437  12.966
88563W        W61631   7.352  35.386   0.267
88564W        W61632  30.667  26.913   1.027
88565W        W61633   6.156  25.464  13.226
88566W        W61634  33.678  12.719  10.384
88567W        W61635  19.306  15.136  11.835
88568W        W61636   5.941  27.587   0.976
88569W        W61637  26.909  31.486  11.293
88570W        W61638  22.847  36.659  12.899
88571W        W61639  25.010  24.940   0.776
88572W        W61640  10.667  19.718  12.870
88573W        W61641   0.507  23.980  11.568
88574W        W61642  33.889  26.893   4.113
88575W        W61643  22.129  29.732   2.735
88576W        W61644   3.807  35.687  11.867
88577W        W61645   2.862  42.757  14.369
88578W        W61646   8.230   9.074   2.649
88579W        W61647  20.053  39.052  13.430
88580W        W61648  24.916  10.684  11.602
88581W        W61649  37.638  42.901  11.936
88582W        W61650  35.516   4.459  14.992
88583W        W61651  29.629  17.909  11.643
88584W        W61652  19.053   7.264   3.578
88585W        W61653  41.696  44.506  13.317
88586W        W61654  23.550  23.409  10.831
88587W        W61655   6.402  22.507   2.028
88588W        W61656  34.669   7.794  13.289
88589W        W61657  24.368  41.416  14.062
88590W        W61658   2.973  17.240  11.141
88591W        W61659  31.944   0.951  13.047
88592W        W61660  32.004   2.533  13.708
88593W        W61661  39.047  22.750   3.688
88594W        W61662  31.704  34.154  12.143
88595W        W61663  36.692   4.351   3.504
88596W        W61664  19.597  44.332  11.111
88597W        W61665  30.660  12.103  14.432
88598W        W61666  13.067  31.637   2.427
88599W        W61667  31.453  13.927  11.304
88600W        W61668  25.286  26.240  11.040
88601W        W61669  42.125   8.527  13.441
88602W        W61670  30.480  35.473   1.397
88603W        W61671  22.817  23.104  14.390
88604W        W61672  29.385  26.365  10.784
88605W        W61673  23.110  23.000  14.816
88606W        W61674  34.069  12.517  11.169
88607W        W61675  34.011  19.091  13.844
88608W        W61676   2.629  18.961  11.945
88609W        W61677  14.517   3.887  13.806
88610W        W61678   5.970  41.482  11.974
88611W        W61679   4.690   9.609  11.880
88612W        W61680  11.903  33.806   3.706
88613W        W61681  11.636  24.326  11.566
88614W        W61682  31.969  25.495  12.936
88615W        W61683  23.091  27.050   2.215
88616W        W61684  44.468  23.225  10.395
88617W        W61685  24.650  25.655   3.871
88618W        W61686  10.088  20.073  14.888
88619W        W61687  15.049  12.180  11.387
88620W        W61688  26.881  14.176   4.568
88621W        W61689  17.097  32.938  11.876
88622W        W61690  17.601  36.305   1.217
88623W        W61691  30.130  33.074  12.972
88624W        W61692  26.287  35.025  13.894
88625W        W61693  44.835  28.355   4.568
88626W        W61694  21.986  29.045   3.232
88627W        W61695  40.830  11.396  12.886
88628W        W61696  25.586   7.917  11.134
88629W        W61697  41.800  13.674  12.538
88630W        W61698  20.050  23.985  14.868
88631W        W61699  14.464  38.106   4.600
88632W        W61700  20.570   6.197  14.214
88633W        W61701  15.236  17.665  14.394
88634W        W61702   4.139  10.201   3.318
88635W        W61703   3.317  44.344   3.647
88636W        W61704  15.088   0.651   0.382
88637W        W61705  34.528  33.380   3.348
88638W        W61706  20.930  30.086  11.720
88639W        W61707   2.312  18.023  14.474
88640W        W61708  22.533  13.797  12.304
88641W        W61709   1.993  39.377   0.001
88642W        W61710   2.402   1.246  13.740
88643W        W61711  16.885  12.859  10.672
88644W        W61712  36.346  35.395   1.272
88645W        W61713  40.726  29.151   0.473
88646W        W61714   7.746   1.288  10.593
88647W        W61715  44.818  34.435  12.990
88648W        W61716  28.212  44.427  10.331
88649W        W61717  18.725  19.112  11.452
88650W        W61718  18.752  10.982   4.707
88651W        W61719  42.904   4.435   1.533
88652W        W61720   8.243  22.966   3.610
88653W        W61721  25.259  35.695   3.221
88654W        W61722  43.799  29.631  11.644
88655W        W61723  44.503  37.545   1.683
88656W        W61724  28.903  11.175  14.951
88657W        W61725   1.503  15.613  14.202
88658W        W61726   3.648  38.382   3.592
88659W        W61727   9.420  17.657  12.984
88660W        W61728  11.099  30.441  13.395
88661W        W61729  26.576   8.116   1.056
88662W        W61730  32.545  41.709  10.170
88663W        W61731  23.584  24.782   1.020
88664W        W61732   3.856  13.276  13.874
88665W        W61733  41.630  14.620   4.275
88666W        W61734   1.296  25.937  12.472
88667W        W61735  14.841  29.933   2.211
88668W        W61736  44.315   3.757   0.473
88669W        W61737  32.571  25.827   3.116
88670W        W61738  33.369  10.546  12.299
88671W        W61739  24.540  15.579   4.828
88672W        W61740  42.267  15.518   2.728
88673W        W61741  26.238  25.971  14.756
88674W        W61742   4.497  43.729  14.938
88675W        W61743   2.212  28.584  12.370
88676W        W61744   4.848   4.545  13.430
88677W        W61745  12.778   5.440   4.543
88678W        W61746  16.853  44.321   1.274
88679W        W61747  20.744   8.252   4.181
88680W        W61748  42.524  32.597   0.456
88681W        W61749  23.823  30.508   1.886
88682W        W61750  18.789  35.657   1.041
88683W        W61751   1.003   0.350  14.041
88684W        W61752  23.437  29.955   0.889
88685W        W61753  26.019  16.997  14.935
88686W        W61754  23.967  20.027  12.977
88687W        W61755  27.054  16.336   3.809
88688W        W61756  33.578  15.574   2.385
88689W        W61757  37.341   0.402   0.856
88690W        W61758  10.320  23.735   3.285
88691W        W61759  44.966  18.716   2.033
88692W        W61760  29.643  27.684  11.151
88693W        W61761  23.933  32.155  14.993
88694W        W61762  12.609  19.783   0.424
88695W        W61763   9.716  39.006  13.972
88696W        W61764  15.674  18.013   1.395
88697W        W61765  36.482  35.543  14.790
88698W        W61766   8.599  24.477   0.419
88699W        W61767   2.352   4.403   4.566
88700W        W61768  37.609  23.503  11.880
88701W        W61769  43.475  31.060   2.788
88702W        W61770  40.505  35.037   4.151
88703W        W61771  31.269   2.623  12.089
88704W        W61772  44.275  42.299   2.503
88705W        W61773  15.038  44.326   4.441
88706W        W61774   3.319  40.280   3.617
88707W        W61775  21.214  23.479  11.199
88708W        W61776  31.216   2.792  14.610
88709W        W61777   3.820  13.321   1.856
88710W        W61778  39.616  29.644  13.444
88711W        W61779  25.303  20.786   1.094
88712W        W61780   0.276   2.146   4.238
88713W        W61781  10.704   6.823   0.023
88714W        W61782  25.134   4.245  10.488
88715W        W61783  44.253  15.436  13.351
88716W        W61784  22.910   7.690   3.687
88717W        W61785  19.460  40.860   1.421
88718W        W61786  37.595   3.365   4.312
88719W        W61787  44.429  34.202   4.072
88720W        W61788  14.211  20.087   4.431
88721W        W61789   3.257  33.017   4.170
88722W        W61790  19.749  35.140  14.487
88723W        W61791  27.082  33.463  11.615
88724W        W61792  19.180   1.174   0.614
88725W        W61793  33.909  18.185  12.752
88726W        W61794  29.926  12.134  14.913
88727W        W61795  39.479   9.108   0.372
88728W        W61796   2.418   3.006   3.643
88729W        W61797   3.890  20.671  11.466
88730W        W61798  39.698  28.412  10.669
88731W        W61799  15.691  23.721   2.177
88732W        W61800  27.220  42.329   0.010
88733W        W61801  16.618  32.113  12.475
88734W        W61802  42.826  39.408   0.215
88735W        W61803  27.197  18.219   4.935
88736W        W61804  35.965  25.641   3.222
88737W        W61805  33.663  10.231  11.760
88738W        W61806  22.160  16.442   4.116
88739W        W61807   7.246  25.705   3.216
88740W        W61808  29.152   4.124  13.401
88741W        W61809  40.978   3.388  10.693
88742W        W61810  21.758  19.572   3.776
88743W        W61811   3.011  42.731   1.837
88744W        W61812  30.138  25.429   3.720
88745W        W61813  39.890   9.588  12.915
88746W        W61814  44.698  20.526  14.797
88747W        W61815  15.845  19.494   2.327
88748W        W61816  16.134  43.539  14.021
88749W        W61817  14.756  18.953  12.591
88750W        W61818  11.611  20.658  11.188
88751W        W61819  28.795  44.393  14.222
88752W        W61820   2.927  35.044   0.316
88753W        W61821   4.822   2.640  11.250
88754W        W61822  28.674  43.331   4.466
88755W        W61823  33.829  38.272  14.167
88756W        W61824  38.323   8.270  13.487
88757W        W61825  32.138  35.494  14.637
88758W        W61826  24.475  36.184  13.065
88759W        W61827   8.186  40.032   4.590
88760W        W61828  42.249  21.229  11.488
88761W        W61829  32.130  39.541   4.379
88762W        W61830   6.778   0.734   0.517
88763W        W61831  30.206   0.722  10.954
88764W        W61832  35.978   9.914  14.361
88765W        W61833  32.307   3.810   0.446
88766W        W61834  31.485  16.856  10.686
88767W        W61835  16.073  14.226   1.677
88768W        W61836  31.183  21.750   3.753
88769W        W61837   9.108  42.959  12.107
88770W        W61838  43.466  37.901  13.778
88771W        W61839   6.498  24.180  12.053
88772W        W61840  24.564   6.241   0.722
88773W        W61841  15.536  35.887   3.462
88774W        W61842   6.973  32.073  14.758
88775W        W61843  31.171  22.649   1.389
88776W        W61844  38.832  33.578  12.459
88777W        W61845  13.029  40.499   3.698
88778W        W61846   3.223  26.645  11.468
88779W        W61847  34.824  36.880   1.696
88780W        W61848  38.764  14.485  13.480
88781W        W61849   3.870  41.261   1.363
88782W        W61850  40.708  28.517  11.516
88783W        W61851  44.948  34.652  14.904
88784W        W61852  42.785   1.884  11.956
88785W        W61853   4.754  16.903   2.265
88786W        W61854   9.878   4.160   1.136
88787W        W61855  11.233   1.288  14.316
88788W        W61856  25.127  10.859   0.114
88789W        W61857  12.758   5.093   4.130
88790W        W61858  23.744  38.218   3.864
88791W        W61859  18.798  30.126  11.999
88792W        W61860  41.419  20.072  14.516
88793W        W61861  14.703  22.433   3.108
88794W        W61862  15.947  35.931   4.422
88795W        W61863  41.520   2.705  14.966
88796W        W61864  44.786  40.987   4.472
88797W        W61865   0.992  37.540  11.168
88798W        W61866  22.260  12.994   0.456
88799W        W61867  42.477  30.113   4.389
88800W        W61868  15.839  42.931  13.060
88801W        W61869  14.861  37.416   1.233
88802W        W61870  27.710  18.876  13.821
88803W        W61871  22.827  33.079   1.850
88804W        W61872  38.406  24.286   2.823
88805W        W61873   7.311   8.843   3.034
88806W        W61874   0.465  41.333   4.269
88807W        W61875  29.083   5.866  14.341
88808W        W61876  35.117  18.648  13.842
88809W        W61877  32.362  29.449  14.823
88810W        W61878  41.299  27.919  14.876
88811W        W61879  10.626  40.559  12.032
88812W        W61880   1.930  13.303   1.794
88813W        W61881  22.062  17.336  13.364
88814W        W61882  31.056   9.063   0.812
88815W        W61883  34.801  27.991  13.768
88816W        W61884  10.428  12.909  12.974
88817W        W61885   2.852  35.129  14.052
88818W        W61886  43.330  23.569   2.897
88819W        W61887  32.581  44.433  13.202
88820W        W61888  37.569  41.416   0.403
88821W        W61889  31.374  21.520  10.766
88822W        W61890  15.875  39.142  10.843
88823W        W61891  40.466  23.206  14.894
88824W        W61892   0.158  36.298  12.954
88825W        W61893  28.008  33.953   4.841
88826W        W61894  14.705   1.738  11.649
88827W        W61895  23.722  32.547  13.970
88828W        W61896  10.912  20.645  13.532
88829W        W61897  39.271  12.115  14.422
88830W        W61898  27.027  43.572   3.825
88831W        W61899  41.587  24.234   4.453
88832W        W61900  24.643   5.144  13.316
88833W        W61901   4.883  16.633   0.541
88834W        W61902  11.725   1.539   3.620
88835W        W61903  21.258   0.221   2.890
88836W        W61904  42.503  18.771   3.819
88837W        W61905  28.544   4.715   1.278
88838W        W61906  21.697  40.496   4.521
88839W        W61907  35.476  18.189  11.123
88840W        W61908  11.683   9.655  12.974
88841W        W61909  42.362  24.903  10.780
88842W        W61910   7.401  16.754   4.197
88843W        W61911  23.502  20.613   0.031
88844W        W61912   3.031  41.455  12.985
88845W        W61913  31.162  12.239  14.401
88846W        W61914  25.790  35.816  13.166
88847W        W61915  35.651  13.611   3.133
88848W        W61916  26.587  42.355   1.912
88849W        W61917   9.585  33.496  12.948
88850W        W61918  22.468  15.324   1.192
88851W        W61919  41.822  17.397   3.701
88852W        W61920   8.384  19.062  13.820
88853W        W61921  21.601  26.791  11.797
88854W        W61922  25.238  32.161   3.843
88855W        W61923  20.783  32.135   0.617
88856W        W61924  34.310  44.290   3.190
88857W        W61925   8.175  13.311   2.759
88858W        W61926   3.354  34.254  11.172
88859W        W61927  31.338  40.377   2.341
88860W        W61928  41.582  42.473  10.655
88861W        W61929   6.690   4.034   3.610
88862W        W61930  39.615   9.975   2.745
88863W        W61931  37.599  42.400  11.182
88864W        W61932  14.688  28.655   4.373
88865W        W61933  24.019  35.700  13.015
88866W        W61934  38.766  12.708  12.485
88867W        W61935  28.514  18.803  13.297
88868W        W61936   5.995  26.539   0.298
88869W        W61937   9.698  43.005  13.791
88870W        W61938   7.133  41.320   0.445
88871W        W61939  14.559   3.754   1.454
88872W        W61940  43.390  19.128  13.621
88873W        W61941  28.658  34.288   3.252
88874W        W61942  28.554  31.349   1.659
88875W        W61943   1.069  18.092   1.774
88876W        W61944  15.194   0.021  11.662
88877W        W61945  33.002   8.662  10.981
88878W        W61946   9.811   7.283   3.063
88879W        W61947   6.644  17.212   5.092
88880W        W61948  24.863  31.620  12.241
88881W        W61949  30.472  40.768   0.716
88882W        W61950   5.865   7.646  12.912
88883W        W61951  25.881  38.364   4.939
88884W        W61952  14.897   5.236   2.783
88885W        W61953  11.335  14.283   0.040
88886W        W61954  21.824  10.884   0.749
88887W        W61955  10.608   8.366  14.288
88888W        W61956  15.520  38.527  13.904
88889W        W61957  10.869  34.099  12.407
88890W        W61958  28.196  41.046  10.263
88891W        W61959  10.061  30.470  10.739
88892W        W61960  15.304  16.824   2.690
88893W        W61961  12.112  37.792   0.908
88894W        W61962  43.247  29.843   4.148
88895W        W61963   5.222   7.855  10.594
88896W        W61964  20.025  20.370  12.868
88897W        W61965  22.556  27.007   2.286
88898W        W61966   7.493   8.930   5.158
88899W        W61967  14.186   9.101   1.401
88900W        W61968   0.887  16.368   2.485
88901W        W61969   4.449  29.442   0.297
88902W        W61970  24.284  32.944  12.545
88903W        W61971  24.264  18.687   1.284
88904W        W61972  13.392   7.490   2.148
88905W        W61973  24.586   8.628  11.495
88906W        W61974   7.040  16.092  14.881
88907W        W61975  16.753  27.643  13.377
88908W        W61976  14.170  25.959   0.266
88909W        W61977  19.485  40.419  14.964
88910W        W61978   9.761  39.473  11.430
88911W        W61979  39.496  25.957   3.789
88912W        W61980  20.239  43.233   9.921
88913W        W61981  19.517  27.165  11.969
88914W        W61982  34.425  36.864   3.827
88915W        W61983  33.794   7.196  12.058
88916W        W61984  15.131  26.167   3.782
88917W        W61985  17.041  43.219  11.740
88918W        W61986  39.367   3.950  13.591
88919W        W61987   4.332  24.601   2.368
88920W        W61988   0.802   2.922  14.302
88921W        W61989  30.295  37.815  13.208
88922W        W61990   2.143  39.847  14.153
88923W        W61991  14.162  34.423   1.065
88924W        W61992  33.156  24.148   0.975
88925W        W61993  25.439  23.021   0.616
88926W        W61994  16.533   7.560  14.455
88927W        W61995  28.051  32.483   3.214
88928W        W61996  27.418  39.097   0.851
88929W        W61997  25.548   8.177  11.987
88930W        W61998  18.750   7.933  13.824
88931W        W61999  30.350  35.553   4.371
88932W        W62000  26.496  12.077   2.450
88933W        W62001  13.788  24.711  14.240
88934W        W62002  21.183   2.584   4.431
88935W        W62003  28.384  18.646   4.800
88936W        W62004  35.169  33.111   3.725
88937W        W62005  33.553  19.238   2.783
88938W        W62006   1.270  36.483  12.677
88939W        W62007   3.965   3.776   2.881
88940W        W62008  12.045  25.441   2.285
88941W        W62009  23.871  19.047   9.744
88942W        W62010   1.964  14.729  11.150
88943W        W62011  24.124  44.793   0.938
88944W        W62012  23.648  21.991  13.827
88945W        W62013   3.012  22.534  14.293
88946W        W62014  26.816  22.067  12.427
88947W        W62015  13.164  28.048  14.261
88948W        W62016  26.161  40.033   4.213
88949W        W62017  36.402   9.916   4.161
88950W        W62018  11.466   8.324  14.857
88951W        W62019  30.242  23.713  10.591
88952W        W62020  10.430   5.350  13.477
88953W        W62021   9.255  36.609   3.304
88954W        W62022  43.338  35.049   3.834
88955W        W62023  21.832  44.435  11.519
88956W        W62024  18.427  18.350  13.075
88957W        W62025  28.403   7.343  13.882
88958W        W62026  36.669   7.399  10.820
88959W        W62027  23.103  19.237   2.706
88960W        W62028  10.997  23.531   3.618
88961W        W62029   3.287  21.671  11.922
88962W        W62030  21.156  15.171   0.992
88963W        W62031   3.830  14.235  12.599
88964W        W62032  44.062  37.749   3.737
88965W        W62033  28.585  17.492  14.393
88966W        W62034  23.202  35.534  12.364
88967W        W62035  31.948   5.203  12.917
88968W        W62036  38.785  44.355  12.553
88969W        W62037  11.674  33.320   1.937
88970W        W62038   0.504   5.889  14.565
88971W        W62039  23.383  28.750   2.253
88972W        W62040  23.008  39.756  11.943
88973W        W62041  14.760  32.555   3.837
88974W        W62042  36.185  32.023  10.748
88975W        W62043  21.562  20.269  11.145
88976W        W62044  31.021   6.182   0.255
88977W        W62045   0.058  44.046  12.494
88978W        W62046  29.862  30.012  13.205
88979W        W62047   8.051   1.376   3.277
88980W        W62048  26.909  14.700  12.895
88981W        W62049  44.817  33.552   2.881
88982W        W62050  40.482  37.120  11.425
88983W        W62051   1.131   0.849  14.150
88984W        W62052  11.353  35.340  11.037
88985W        W62053  29.537  18.144   3.604
88986W        W62054  15.055  31.236  13.869
88987W        W62055  21.423  11.766   2.087
88988W        W62056   0.069   0.351   2.149
88989W        W62057  21.062   4.264   2.808
88990W        W62058  41.338  27.861  11.855
88991W        W62059  39.678  43.743   1.635
88992W        W62060  23.510  31.072  13.405
88993W        W62061  17.969  18.742  14.769
88994W        W62062  32.606   6.277   0.039
88995W        W62063  43.452  11.199  12.920
88996W        W62064   7.749  25.127   1.344
88997W        W62065  44.839   8.857  12.303
88998W        W62066  26.973   9.428  10.263
88999W        W62067  36.153   2.721  11.118
89000W        W62068  36.924   9.519   4.093
89001W        W62069  26.668  13.669   4.742
89002W        W62070  24.376  42.597   0.435
89003W        W62071   2.388  34.970  12.815
89004W        W62072  20.282  33.128  13.474
89005W        W62073  10.749  13.212  10.459
89006W        W62074   5.326  38.511  12.980
89007W        W62075  16.280  18.335  14.782
89008W        W62076  38.290   2.843   2.411
89009W        W62077   1.650  17.853   3.975
89010W        W62078  30.007   8.223  11.426
89011W        W62079  33.386  10.447   1.790
89012W        W62080  20.043  32.052   1.490
89013W        W62081  37.995  21.828   1.909
89014W        W62082  41.598  10.291   4.888
89015W        W62083  19.948  16.527   0.937
89016W        W62084  41.694  16.027  11.536
89017W        W62085  10.025   3.843  12.951
89018W        W62086   5.276   2.312  11.633
89019W        W62087   5.499  39.577  11.546
89020W        W62088  38.990  27.683   4.217
89021W        W62089  39.803  22.897   1.868
89022W        W62090  16.212  35.144  12.764
89023W        W62091  25.653   2.445   4.510
89024W        W62092  37.880  30.889  13.385
89025W        W62093  33.974   0.245   4.147
89026W        W62094   0.587  15.354  12.366
89027W        W62095  22.616  35.951  11.201
89028W        W62096   6.940  12.444   0.813
89029W        W62097  33.101  26.704   4.531
89030W        W62098  38.954   2.181   0.929
89031W        W62099  10.027   0.852   0.966
89032W        W62100   2.257  37.373  14.036
89033W        W62101   3.516  10.353   0.815
89034W        W62102  42.573   3.176  10.957
89035W        W62103  32.561  11.159  11.869
89036W        W62104  21.456   4.176   0.078
89037W        W62105  38.469  34.903   3.306
89038W        W62106  40.039   7.703   0.991
89039W        W62107  33.091  26.276   1.255
89040W        W62108  42.759   4.603  14.201
89041W        W62109  25.480   2.644   1.850
89042W        W62110  34.192   2.264   2.971
89043W        W62111   4.973  37.859  10.215
89044W        W62112   4.388  19.125  13.962
89045W        W62113  23.987  37.268   4.804
89046W        W62114  13.178   8.182   2.792
89047W        W62115  43.916  10.928  13.776
89048W        W62116  26.211  44.958   0.434
89049W        W62117   4.859  33.067  11.909
89050W        W62118  26.561  40.288   1.676
89051W        W62119   4.519  38.417  14.422
89052W        W62120  43.035  25.620   0.378
89053W        W62121  19.689  22.052  14.341
89054W        W62122  38.596  29.277  12.563
89055W        W62123  12.139  24.712  14.878
89056W        W62124  24.414  20.858   5.077
89057W        W62125   6.892  36.029  14.734
89058W        W62126  27.914   5.935   4.844
89059W        W62127  27.499  29.657   4.605
89060W        W62128  22.949  34.593   2.213
89061W        W62129   4.173  33.390  12.094
89062W        W62130  25.504  30.316  14.726
89063W        W62131  31.164  19.806   3.917
89064W        W62132   2.487   1.893   1.898
89065W        W62133  12.325  42.298   2.272
89066W        W62134  41.370  30.303   3.695
89067W        W62135  11.397   3.338  13.605
89068W        W62136   4.984  35.501  12.090
89069W        W62137  31.857   9.893  12.386
89070W        W62138  30.047  13.284   1.217
89071W        W62139  24.596  38.379   4.539
89072W        W62140  30.572  44.880   4.665
89073W        W62141   3.442  30.628   3.231
89074W        W62142  10.605  27.324  14.743
89075W        W62143  25.585  14.397  12.358
89076W        W62144   4.849  33.443  13.178
89077W        W62145  11.630  28.559   1.295
89078W        W62146   1.059  34.981   0.267
89079W        W62147  25.570  44.934   4.158
89080W        W62148  18.679  34.691   0.312
89081W        W62149  20.577  36.999   3.300
89082W        W62150  42.887   9.814  11.752
89083W        W62151  44.382  25.804   4.846
89084W        W62152  22.108  19.818   1.677
89085W        W62153  37.809  32.503  10.288
89086W        W62154   6.069  26.965  11.489
89087W        W62155   8.354  42.245   1.446
89088W        W62156  42.998  14.879  14.303
89089W        W62157  37.084  27.402   2.181
89090W        W62158  24.233  13.632  13.549
89091W        W62159   9.867  28.232   0.908
89092W        W62160  30.132  14.131  11.566
89093W        W62161   1.441  24.639  12.061
89094W        W62162  25.185  43.595  13.679
89095W        W62163  30.947  44.502  11.382
89096W        W62164   7.329  14.577  10.697
89097W        W62165  39.593  40.613   2.616
89098W        W62166  15.648  39.628  14.997
89099W        W62167   6.001   4.183   0.087
89100W        W62168  39.924  12.198  11.368
89101W        W62169  22.043  12.087   3.741
89102W        W62170   5.164  30.918   4.324
89103W        W62171  24.238  20.042   4.595
89104W        W62172  37.265  41.473  14.604
89105W        W62173  17.655  35.967   3.671
89106W        W62174  29.377  12.540   2.222
89107W        W62175  26.243  32.529   0.926
89108W        W62176   1.382  36.917  13.977
89109W        W62177  36.545  42.563  11.988
89110W        W62178  31.450   5.349   1.668
89111W        W62179  18.007  18.614  11.442
89112W        W62180  25.160  27.652  12.134
89113W        W62181  25.789  30.410  13.961
89114W        W62182  14.301  34.421   4.124
89115W        W62183  24.663   4.026  10.546
89116W        W62184  13.878   6.223  12.524
89117W        W62185  18.343  14.557  12.597
89118W        W62186   4.664  13.286   0.874
89119W        W62187  26.197  44.400   0.521
89120W        W62188  12.856  12.902   3.783
89121W        W62189  18.428  27.352   0.453
89122W        W62190   6.708  37.565  12.099
89123W        W62191  32.172  44.316   1.712
89124W        W62192  33.013  12.509   4.417
89125W        W62193  34.558   1.755  11.117
89126W        W62194  19.541   1.759   3.172
89127W        W62195  27.978  10.366  11.832
89128W        W62196   1.551  40.438   2.147
89129W        W62197  26.669  32.231  13.913
89130W        W62198  41.317  41.956  11.079
89131W        W62199  16.747  35.448  14.410
89132W        W62200   8.694   8.128   2.598
89133W        W62201  44.575  31.889   3.618
89134W        W62202  29.988  38.854  13.444
89135W        W62203  17.456  41.277  14.745
89136W        W62204  22.830  39.081  10.612
89137W        W62205  38.699  44.042   4.263
89138W        W62206  43.899  20.231  13.572
89139W        W62207  28.639  40.939   3.263
89140W        W62208  29.411  31.999   2.670
89141W        W62209  24.914  14.902   2.668
89142W        W62210  30.751  14.885  11.982
89143W        W62211  34.380   4.394  13.430
89144W        W62212  37.374   2.312  14.149
89145W        W62213  24.741  37.455   3.342
89146W        W62214  40.063   1.629   2.612
89147W        W62215  29.989  42.365   3.161
89148W        W62216  15.845   4.390   3.936
89149W        W62217  21.137  23.994   4.943
89150W        W62218  13.202  29.982   2.925
89151W        W62219  32.173   7.787  13.005
89152W        W62220  30.276  15.684   1.243
89153W        W62221  27.670  38.350   2.825
89154W        W62222  19.676  42.034   2.340
89155W        W62223   2.671  21.551   4.174
89156W        W62224  34.017  25.456   3.829
89157W        W62225  32.425   9.371   4.498
89158W        W62226  29.725  40.923   2.305
89159W        W62227  38.561  31.501  11.617
89160W        W62228  20.231   5.911  10.600
89161W        W62229  25.934  25.629  12.463
89162W        W62230  20.703  42.959   0.155
89163W        W62231  15.144  14.049   0.272
89164W        W62232  16.180   6.001   1.855
89165W        W62233  27.571  30.057   2.779
89166W        W62234  24.704   4.900   3.892
89167W        W62235  41.048   9.766  12.886
89168W        W62236  38.324   0.727   2.834
89169W        W62237  28.485   8.011  12.008
89170W        W62238   2.952   0.971  11.213
89171W        W62239   9.265   7.808   3.205
89172W        W62240  30.226  26.748   2.817
89173W        W62241  12.884  23.126   1.185
89174W        W62242  24.828  25.216   4.108
89175W        W62243  14.884  44.740   1.336
89176W        W62244  21.776  15.911  11.901
89177W        W62245  25.738   4.506  11.101
89178W        W62246   1.901  44.591   2.734
89179W        W62247   3.936  33.771  12.423
89180W        W62248  39.810   6.279   2.871
89181W        W62249  16.743   4.708  11.402
89182W        W62250  29.992  29.002  11.469
89183W        W62251  34.103   1.253   0.285
89184W        W62252  38.782  21.715  14.433
89185W        W62253  11.537   8.330  10.771
89186W        W62254  20.392  17.746  14.454
89187W        W62255  30.265  23.872  11.072
89188W        W62256  17.467  20.040  11.784
89189W        W62257  14.711  21.104   5.003
89190W        W62258  34.835  30.994   3.853
89191W        W62259  39.867   1.448   5.090
89192W        W62260  10.596  21.127  11.266
89193W        W62261  27.509   8.803   2.257
89194W        W62262  10.269   6.483   3.501
89195W        W62263   6.786  39.888  12.578
89196W        W62264  16.658  36.331  13.373
89197W        W62265  31.126  33.219  11.555
89198W        W62266  10.137  17.567  14.317
89199W        W62267  43.428  35.613   0.226
89200W        W62268  21.609  20.323   4.210
89201W        W62269  22.803  21.495  11.154
89202W        W62270  40.846   7.348   0.259
89203W        W62271  12.251  15.397   3.253
89204W        W62272  37.824   5.864  13.577
89205W        W62273   8.641   3.312   3.919
89206W        W62274  35.574  41.875   2.877
89207W        W62275  15.128  42.390   3.841
89208W        W62276  25.539  34.935  12.608
89209W        W62277  15.251  16.154   3.339
89210W        W62278  22.401   7.451  13.493
89211W        W62279  32.913  10.759   4.727
89212W        W62280  27.026  34.892  12.377
89213W        W62281  30.221  44.293  14.380
89214W        W62282  34.544   3.917  11.700
89215W        W62283   8.479   5.245   1.373
89216W        W62284   2.379  28.095  14.487
89217W        W62285  16.250  41.275   0.260
89218W        W62286  11.103  38.777  13.791
89219W        W62287  37.061  44.346  10.894
89220W        W62288  43.650   8.202  14.585
89221W        W62289  20.981  24.768  13.055
89222W        W62290   9.857  27.258   0.557
89223W        W62291  18.847  30.557   1.494
89224W        W62292   2.279  24.222  11.943
89225W        W62293  11.083  33.094   1.261
89226W        W62294  29.444  33.146  14.891
89227W        W62295   1.740   4.667   4.411
89228W        W62296  40.534  19.584   5.070
89229W        W62297  27.360  42.342   2.280
89230W        W62298  27.559  40.922   0.273
89231W        W62299  31.058   4.191   2.715
89232W        W62300  35.610  22.130  14.390
89233W        W62301  14.381  14.681   4.323
89234W        W62302  21.222   0.590   5.251
89235W        W62303  24.729  28.704  13.318
89236W        W62304  20.013  11.236   2.787
89237W        W62305  41.595  12.756   1.361
89238W        W62306  34.317  28.124  13.993
89239W        W62307  11.561  14.563  11.145
89240W        W62308  26.189  35.128   4.782
89241W        W62309  11.433  43.022   2.850
89242W        W62310  29.224   2.760   0.390
89243W        W62311  10.666  37.924  11.978
89244W        W62312  16.327  39.007  14.022
89245W        W62313  42.440   9.122  11.968
89246W        W62314   0.232  31.080   4.141
89247W        W62315   5.183  27.183  14.431
89248W        W62316  22.559  38.060  11.492
89249W        W62317  36.671  43.088  14.838
89250W        W62318  12.417  24.802   1.728
89251W        W62319  25.123  29.083   2.721
89252W        W62320  15.232  27.345  11.856
89253W        W62321  35.590   8.481  10.531
89254W        W62322   4.025  41.565  10.685
89255W        W62323  41.447  26.589  11.386
89256W        W62324   5.147  22.732   0.078
89257W        W62325   3.805  15.366  12.143
89258W        W62326  13.973  44.331   2.368
89259W        W62327  40.412   0.741   3.062
89260W        W62328   6.181  17.150   4.784
89261W        W62329  24.027   1.010   1.423
89262W        W62330  16.512   7.663  11.282
89263W        W62331  33.749  41.041  11.953
89264W        W62332   0.722   4.339   2.699
89265W        W62333  32.026  37.848   4.619
89266W        W62334   6.143  30.679  13.204
89267W        W62335   5.307   8.589   4.092
89268W        W62336  13.837  31.947  11.096
89269W        W62337  20.069  41.318  10.824
89270W        W62338  28.951   6.420   9.776
89271W        W62339  23.013   7.503  10.473
89272W        W62340  14.783  23.689   0.282
89273W        W62341   5.288  27.405   1.675
89274W        W62342  19.687  18.574   2.372
89275W        W62343  20.021  41.943   0.216
89276W        W62344  43.500  41.976  14.472
89277W        W62345  11.206   2.859  10.436
89278W        W62346   6.379  22.844   2.844
89279W        W62347  32.019   8.612   0.870
89280W        W62348   3.689  18.146  14.323
89281W        W62349  28.529  26.530   4.300
89282W        W62350  41.850  20.573   2.647
89283W        W62351  12.013   4.460   1.269
89284W        W62352  15.487  32.063  10.552
89285W        W62353  21.072  18.517  13.188
89286W        W62354  12.058   9.420  10.604
89287W        W62355  10.818  42.836   3.092
89288W        W62356  20.831  43.371   1.225
89289W        W62357  34.782  15.741  12.992
89290W        W62358  33.155  36.859  12.434
89291W        W62359   5.254  37.494   2.802
89292W        W62360  36.000  19.764  11.678
89293W        W62361   8.258  29.704   4.325
89294W        W62362  26.524  28.756  13.594
89295W        W62363  19.862  39.392   3.679
89296W        W62364  34.223  10.247  10.453
89297W        W62365  10.680  17.574   4.076
89298W        W62366   7.624  20.840  14.884
89299W        W62367  23.161  29.664  11.150
89300W        W62368  35.626  33.911   0.374
89301W        W62369  10.278  12.112   0.873
89302W        W62370  39.747  40.373  12.513
89303W        W62371  19.560  38.379   4.875
89304W        W62372  35.542  34.749  13.965
89305W        W62373  37.546  34.027   1.925
89306W        W62374  36.482  44.466   3.392
89307W        W62375   8.728  17.383   2.186
89308W        W62376  12.390  11.840   1.359
89309W        W62377  35.493  19.187  14.559
89310W        W62378  17.225  26.727   9.894
89311W        W62379  39.972  17.768   4.079
89312W        W62380  41.418   7.866  13.578
89313W        W62381  26.002  16.082  13.271
89314W        W62382  21.238  36.275   3.627
89315W        W62383  19.457  26.017  10.719
89316W        W62384  21.926   5.774  12.473
89317W        W62385   3.418  38.216  12.705
89318W        W62386  29.498  14.259   4.560
89319W        W62387  22.525  42.076  10.600
89320W        W62388  39.890   8.231   2.166
89321W        W62389  43.735   4.325  12.853
89322W        W62390  35.971  42.444   1.733
89323W        W62391  31.777  15.641   4.068
89324W        W62392  28.845  27.541  14.893
89325W        W62393  26.141  43.517   1.477
89326W        W62394  15.205  34.285  12.465
89327W        W62395   7.653  14.549   2.763
89328W        W62396   3.683  12.074   2.994
89329W        W62397  16.263  41.237   4.582
89330W        W62398  16.728   8.841  12.416
89331W        W62399   3.448  42.403  10.659
89332W        W62400  12.364  32.382  13.468
89333W        W62401  27.969  41.857  11.353
89334W        W62402  41.100   1.472   0.886
89335W        W62403   7.645   4.674   3.558
89336W        W62404  42.051   4.305   4.388
89337W        W62405  16.629  37.771  11.762
89338W        W62406   9.843  18.823  10.633
89339W        W62407  21.505  16.461  12.601
89340W        W62408  25.776  26.479   5.215
89341W        W62409  42.422  34.839   4.685
89342W        W62410  29.586  35.577  13.301
89343W        W62411  23.083  40.083   2.683
89344W        W62412  40.629  13.312  10.675
89345W        W62413  12.606  23.069   1.750
89346W        W62414   2.004   0.825  12.115
89347W        W62415  10.083  41.394  10.372
89348W        W62416  33.542  29.153  13.242
89349W        W62417  12.342   3.954   0.420
89350W        W62418  10.914  37.412   4.648
89351W        W62419  15.471  21.755   2.296
89352W        W62420   9.913  10.292   4.396
89353W        W62421  17.131   7.129   2.665
89354W        W62422  13.827  31.618  14.229
89355W        W62423   7.337   8.863   4.060
89356W        W62424  19.588  23.230  11.564
89357W        W62425   6.996  27.751   2.753
89358W        W62426  33.610   4.229   0.985
89359W        W62427  36.621  20.019  11.170
89360W        W62428  25.639  14.361   4.280
89361W        W62429  33.388  44.829  12.170
89362W        W62430  25.557   6.505  10.528
89363W        W62431  13.135  21.662   3.308
89364W        W62432  43.205  13.759  13.580
89365W        W62433  30.712   4.395  12.758
89366W        W62434  40.803  28.160   3.252
89367W        W62435  41.533   0.823   1.255
89368W        W62436  42.218   3.430  13.105
89369W        W62437  37.531  36.124   3.264
89370W        W62438  38.519  44.449   1.899
89371W        W62439   7.648  37.735   3.781
89372W        W62440  24.494  21.548   1.842
89373W        W62441  28.335   4.757  11.592
89374W        W62442   5.009  16.550  10.961
89375W        W62443  20.065  28.988   1.631
89376W        W62444  22.351  20.238   1.943
89377W        W62445  23.011   1.753   3.210
89378W        W62446   8.225  23.738  12.108
89379W        W62447   4.168   6.849  13.532
89380W        W62448  15.714  41.319  10.715
89381W        W62449   3.558  10.259  13.902
89382W        W62450  13.752   5.678  11.553
89383W        W62451  25.803  43.579  12.818
89384W        W62452  39.452  24.052   1.097
89385W        W62453  35.030   9.315  10.676
89386W        W62454   3.767   5.016  13.974
89387W        W62455  42.079  21.031  13.821
89388W        W62456  26.211  31.893   1.583
89389W        W62457  42.678  35.865   3.372
89390W        W62458  13.323  12.630   4.537
89391W        W62459   5.258  44.453  12.046
89392W        W62460  35.655  29.052   1.347
89393W        W62461  40.626  33.652  14.031
89394W        W62462  26.940  37.079   3.543
89395W        W62463   3.353  23.217  13.836
89396W        W62464   6.919  13.902  14.623
89397W        W62465   3.152  30.084  14.023
89398W        W62466  16.658   9.727   4.483
89399W        W62467  28.803  30.897  14.445
89400W        W62468  18.538   1.737  14.785
89401W        W62469   9.179  10.141   2.224
89402W        W62470  12.090  15.883  14.537
89403W        W62471  30.328  30.163   1.103
89404W        W62472   7.072   0.737   3.989
89405W        W62473  43.471  44.314   4.709
89406W        W62474  21.252  15.709  13.573
89407W        W62475   4.529  37.355   1.293
89408W        W62476  38.002  36.894  11.571
89409W        W62477  13.694  18.733   3.124
89410W        W62478  19.598   2.166  14.879
89411W        W62479  20.690   8.858   1.872
89412W        W62480  38.328  16.561  11.992
89413W        W62481  42.011   5.682  11.480
89414W        W62482  31.242   3.030   0.523
89415W        W62483  34.970  22.902  13.376
89416W        W62484  13.069  15.725  14.289
89417W        W62485   2.995  37.098   1.778
89418W        W62486  36.047  30.607  13.678
89419W        W62487  18.624  26.538   5.266
89420W        W62488  27.200   7.584   1.797
89421W        W62489  40.044  30.901  12.383
89422W        W62490  17.235  17.211  13.528
89423W        W62491  17.485  39.502  12.335
89424W        W62492  18.073  29.101  14.800
89425W        W62493   1.396  26.924   1.060
89426W        W62494  38.422  42.274   1.692
89427W        W62495   1.456  42.940   0.831
89428W        W62496  27.390  29.581   2.752
89429W        W62497  25.135  34.385   0.314
89430W        W62498   4.993  39.653   4.863
89431W        W62499  41.287  28.936   1.662
89432W        W62500  19.685  33.297  11.163
89433W        W62501  17.552  31.377   3.648
89434W        W62502  27.277   4.724   4.558
89435W        W62503  44.010  21.265  14.532
89436W        W62504   6.746  25.017  11.540
89437W        W62505  31.358  44.429  14.998
89438W        W62506  25.504  25.929   3.770
89439W        W62507  30.553  43.447  14.236
89440W        W62508  15.049  27.459   4.258
89441W        W62509   9.639  20.351   0.621
89442W        W62510  22.206  19.870  14.326
89443W        W62511   4.894   3.370  12.114
89444W        W62512  15.596   7.711  13.174
89445W        W62513  26.158  29.401   4.128
89446W        W62514  35.080  27.816  13.358
89447W        W62515  22.137  14.389  13.954
89448W        W62516  40.281   5.237  14.290
89449W        W62517  13.308  20.651  14.945
89450W        W62518  41.975  33.930   4.059
89451W        W62519   1.340  16.598   4.843
89452W        W62520  37.778  37.719   2.304
89453W        W62521  29.095  37.474  10.788
89454W        W62522  32.798  42.968   0.450
89455W        W62523  31.943  20.139   1.346
89456W        W62524  35.987   3.235   3.750
89457W        W62525   8.970  42.536  13.814
89458W        W62526  38.387   8.176  10.220
89459W        W62527  24.984  20.859   2.044
89460W        W62528  17.743   7.699   0.899
89461W        W62529  10.468  22.222   4.427
89462W        W62530   0.824  32.361   3.272
89463W        W62531  18.565   5.172  14.856
89464W        W62532  25.479  12.558  14.379
89465W        W62533  26.700  23.132  14.070
89466W        W62534  14.026   0.307  13.929
89467W        W62535  40.460   3.924   1.925
89468W        W62536  11.344  42.367  13.288
89469W        W62537  33.507  24.604  13.855
89470W        W62538   6.104  27.215  14.535
89471W        W62539   3.630  28.835   4.122
89472W        W62540  24.731  20.080  13.575
89473W        W62541  42.378  26.302   0.577
89474W        W62542  23.014  32.323   2.737
89475W        W62543  10.917  25.001   4.343
89476W        W62544   7.129  41.511   4.181
89477W        W62545  28.757  17.768   4.680
89478W        W62546  27.076   0.968  11.604
89479W        W62547  37.859   8.526   4.593
89480W        W62548  38.404  36.508  14.303
89481W        W62549  24.180  10.379  11.320
89482W        W62550  26.118  38.345  11.675
89483W        W62551   8.382  42.479  13.437
89484W        W62552   1.724  18.555  13.490
89485W        W62553  16.766  15.806  11.982
89486W        W62554  31.487  25.743   3.735
89487W        W62555  36.361  19.433   2.340
89488W        W62556  37.995   4.169   0.274
89489W        W62557   9.571  10.370  14.296
89490W        W62558  11.294   4.250   2.641
89491W        W62559  21.730  24.589   4.863
89492W        W62560  17.183  44.315  13.949
89493W        W62561  15.083   5.242   0.716
89494W        W62562  36.244  10.876  10.933
89495W        W62563  32.662   6.809   4.781
89496W        W62564  22.242  35.326   2.291
89497W        W62565  35.454   7.361  11.516
89498W        W62566  38.446  41.383   2.221
89499W        W62567  20.663  20.641  12.768
89500W        W62568   7.444  21.747  10.682
89501W        W62569  43.555  19.059  11.576
89502W        W62570   8.598  41.129  13.320
89503W        W62571  38.826  35.626   2.694
89504W        W62572   0.409  36.469  11.215
89505W        W62573  41.548  24.914  14.002
89506W        W62574   3.679  25.746  12.356
89507W        W62575   8.805  21.044  12.161
89508W        W62576  21.964  22.975  13.369
89509W        W62577  12.274   5.290  10.633
89510W        W62578  19.719  11.315  13.538
89511W        W62579  33.678  27.949  13.074
89512W        W62580   1.926  19.166   4.358
89513W        W62581  40.340   8.037   2.298
89514W        W62582  12.780   0.517   4.599
89515W        W62583   9.682  27.646   2.657
89516W        W62584  32.807  42.533   0.725
89517W        W62585  44.858  38.605  13.066
89518W        W62586  15.781  37.859  12.224
89519W        W62587  34.398   1.365   1.278
89520W        W62588  37.321  35.066  12.479
89521W        W62589   7.207  44.779  11.545
89522W        W62590  12.782  36.358   4.527
89523W        W62591  19.619  10.821   2.433
89524W        W62592  42.510  30.745  11.144
89525W        W62593  27.459  40.878   2.774
89526W        W62594  31.929  31.347   2.349
89527W        W62595  32.145  12.646  14.477
89528W        W62596  13.883  41.534  14.007
89529W        W62597   8.302   2.485   3.733
89530W        W62598  40.094  42.567  13.676
89531W        W62599  21.734  32.240  12.484
89532W        W62600  29.975   5.466   0.923
89533W        W62601  21.742  20.922  10.421
89534W        W62602   0.450   7.807  10.654
89535W        W62603   3.654  29.090   3.289
89536W        W62604  42.067   0.334  10.100
89537W        W62605   6.369  37.455   0.792
89538W        W62606  33.850  32.678  12.518
89539W        W62607  11.301  27.078   3.669
89540W        W62608  14.478  10.519  13.903
89541W        W62609  17.108  34.900  12.645
89542W        W62610   8.284  24.535   3.914
89543W        W62611  32.672  11.062  13.859
89544W        W62612  14.886  30.734   4.154
89545W        W62613   4.787  16.864   9.761
89546W        W62614  19.621  33.927   0.844
89547W        W62615  28.600  27.254  13.491
89548W        W62616   8.717   7.882   1.949
89549W        W62617  15.836  44.385  10.595
89550W        W62618   3.510   9.576   0.313
89551W        W62619  27.433  24.579   4.195
89552W        W62620  28.962   1.466   3.394
89553W        W62621  29.105  35.199  12.789
89554W        W62622  14.043  18.254  12.736
89555W        W62623  23.694  41.815  11.509
89556W        W62624  24.380  38.857  13.037
89557W        W62625  28.179  34.148  14.666
89558W        W62626  44.299  41.798  11.324
89559W        W62627  20.228  20.213   2.619
89560W        W62628  12.790  21.080  10.736
89561W        W62629  40.993   1.227  10.258
89562W        W62630  11.154  15.344   0.325
89563W        W62631  41.897  36.636   1.431
89564W        W62632  18.347  19.029  12.362
89565W        W62633  24.639  44.430  13.435
89566W        W62634  26.681   9.908   1.323
89567W        W62635  25.188  43.445  14.192
89568W        W62636   5.389   6.881   4.397
89569W        W62637  22.937   0.104  13.917
89570W        W62638  12.229  26.693   1.827
89571W        W62639   0.304   0.669  14.140
89572W        W62640  28.759  17.747   0.825
89573W        W62641  25.664   5.637   2.705
89574W        W62642  33.134  23.623  10.563
89575W        W62643  39.417  25.955   4.317
89576W        W62644   0.880  24.593   1.685
89577W        W62645  27.172  38.805   4.611
89578W        W62646  30.626  29.035  14.749
89579W        W62647  35.439  29.092   0.893
89580W        W62648  31.887  19.042   4.686
89581W        W62649   8.830  40.330   1.513
89582W        W62650  43.454  21.791   2.226
89583W        W62651  28.985  30.877  11.599
89584W        W62652  11.794  30.964   2.197
89585W        W62653  13.041   3.401   3.736
89586W        W62654  27.504  23.123   3.421
89587W        W62655  33.201  31.231  11.036
89588W        W62656  34.507  30.204   3.667
89589W        W62657  19.384   8.321  13.695
89590W        W62658  43.908  29.197  14.767
89591W        W62659  32.155  21.338   3.625
89592W        W62660  25.256  35.133   4.826
89593W        W62661  43.427  42.456  11.344
89594W        W62662  36.250   1.363  11.092
89595W        W62663  15.045  18.455  13.774
89596W        W62664  20.988   9.479   0.071
89597W        W62665  35.678  30.520   3.243
89598W        W62666  32.611  18.695   0.035
89599W        W62667  14.265  39.554   3.836
89600W        W62668   4.668  44.805  11.615
89601W        W62669  27.055  39.937  10.828
89602W        W62670  29.833  38.074   1.524
89603W        W62671  35.603   2.811  14.927
89604W        W62672  22.880  39.420  13.914
89605W        W62673  24.244   5.408  11.597
89606W        W62674   5.023  12.384   1.833
89607W        W62675  34.458  36.635   3.372
89608W        W62676   1.896  27.387  14.249
89609W        W62677   2.447  19.151   4.431
89610W        W62678  42.491  31.740   4.010
89611W        W62679  26.293   4.246  11.510
89612W        W62680   3.155  40.916   4.868
89613W        W62681  17.943  18.029  13.065
89614W        W62682  12.208   5.426  13.966
89615W        W62683  38.846  36.307  14.043
89616W        W62684  41.077   0.427  14.467
89617W        W62685   7.425  22.494   1.858
89618W        W62686  25.704  37.386   3.057
89619W        W62687  24.080  15.703   4.499
89620W        W62688   9.302  30.669  13.548
89621W        W62689  29.441  19.608   0.311
89622W        W62690  41.575  29.881  13.649
89623W        W62691  10.083  36.650  14.444
89624W        W62692  12.734   6.311   0.821
89625W        W62693  43.870  36.998   1.427
89626W        W62694   9.768  19.014  12.483
89627W        W62695   6.374  30.656  10.747
89628W        W62696  39.537  18.244  14.935
89629W        W62697   2.524  17.806  11.740
89630W        W62698  31.519  24.082  12.296
89631W        W62699  17.105  21.787   1.682
89632W        W62700  19.123  11.707   4.546
89633W        W62701  21.053  44.435  11.974
89634W        W62702  30.179  11.245   2.461
89635W        W62703  28.913  31.889  13.330
89636W        W62704   1.260  13.601   1.520
89637W        W62705   2.269  21.107  12.967
89638W        W62706   3.947  36.553   2.637
89639W        W62707   3.828  33.399   0.530
89640W        W62708   0.348   3.193   4.609
89641W        W62709  20.815  21.701  11.108
89642W        W62710  27.839   3.353   4.117
89643W        W62711  26.142  38.105  14.553
89644W        W62712  37.607  10.724  12.886
89645W        W62713  39.455   5.368   3.308
89646W        W62714  23.076   7.633   0.487
89647W        W62715   7.155  26.432   2.227
89648W        W62716   3.806  39.881   3.683
89649W        W62717  11.903  17.867   3.385
89650W        W62718  29.543  23.978   4.088
89651W        W62719  34.255  41.015  12.083
89652W        W62720   9.681   8.088  13.643
89653W        W62721  24.664   3.104  12.967
89654W        W62722   7.202  14.795  12.197
89655W        W62723  40.728  15.363   2.161
89656W        W62724  16.226   8.701   0.694
89657W        W62725  17.796  28.345   4.606
89658W        W62726  32.285  12.203   3.247
89659W        W62727  20.378  18.128  12.864
89660W        W62728  20.546   8.742   0.795
89661W        W62729  38.139   7.389   0.365
89662W        W62730   9.687  36.336  10.956
89663W        W62731   6.907   1.153  10.518
89664W        W62732  12.128  30.372   3.635
89665W        W62733  34.193  23.062  13.845
89666W        W62734   5.126  24.624   2.992
89667W        W62735  43.526   6.199   1.410
89668W        W62736   3.526  12.370  12.383
89669W        W62737  23.959  39.535   1.406
89670W        W62738  12.550  14.380   3.471
89671W        W62739   9.332  35.565  10.516
89672W        W62740  16.698   4.966   4.717
89673W        W62741  38.257  19.676  12.676
89674W        W62742  39.618  26.610  13.897
89675W        W62743   9.904  17.044  11.091
89676W        W62744  37.866  44.061  13.430
89677W        W62745  35.817  37.396   3.657
89678W        W62746  16.633  11.943  14.739
89679W        W62747   2.253  30.592   0.911
89680W        W62748   1.630  16.508   2.903
89681W        W62749  10.432  32.980   0.467
89682W        W62750  44.554  18.964   5.000
89683W        W62751  41.605  18.309  10.670
89684W        W62752   5.263  23.158  14.822
89685W        W62753  23.400  24.004  11.681
89686W        W62754  42.775  42.778  11.453
89687W        W62755   7.377  23.010   3.339
89688W        W62756   1.195   6.593   3.146
89689W        W62757  36.845  31.441  13.388
89690W        W62758  30.626  41.313  12.621
89691W        W62759   4.228  25.613   0.880
89692W        W62760  16.128  28.604   2.309
89693W        W62761  43.746   0.399  13.389
89694W        W62762  21.697   3.879  13.030
89695W        W62763  30.049   5.742   1.812
89696W        W62764  22.687   4.095  14.533
89697W        W62765  23.146  23.252   2.526
89698W        W62766  39.404  39.855  14.934
89699W        W62767  36.462   5.262  11.577
89700W        W62768  20.745  43.099  12.981
89701W        W62769  29.108  41.219   3.208
89702W        W62770  11.876  34.892  13.405
89703W        W62771  32.530  28.592  11.375
89704W        W62772  20.692  28.495  12.583
89705W        W62773  30.215  44.450   4.340
89706W        W62774  28.478  25.227   0.409
89707W        W62775  32.110  10.335   1.181
89708W        W62776   0.500  13.128   3.567
89709W        W62777   1.996   0.316  14.966
89710W        W62778  33.514  33.635  11.492
89711W        W62779   7.732  21.748  14.787
89712W        W62780  11.923   8.664   1.141
89713W        W62781  42.959  28.676   3.594
89714W        W62782  27.545  12.776   4.057
89715W        W62783  34.916  29.016  14.355
89716W        W62784  44.890  10.122   0.521
89717W        W62785   3.317  18.775   2.333
89718W        W62786   5.264  20.763   2.608
89719W        W62787  39.056  24.367  14.771
89720W        W62788  42.940  33.973   1.257
89721W        W62789  21.188  34.124  13.617
89722W        W62790  36.956  11.193  12.409
89723W        W62791  10.376  39.859  13.848
89724W        W62792  25.164  34.100   1.930
89725W        W62793  35.651  34.289  13.781
89726W        W62794  27.731  40.920  12.510
89727W        W62795  26.919  36.538   4.207
89728W        W62796  44.784  40.747  11.521
89729W        W62797  24.721  33.872  12.448
89730W        W62798  27.587  44.492  11.571
89731W        W62799  22.261  38.864  11.078
89732W        W62800  36.868   4.446   1.133
89733W        W62801   4.484  12.227  12.564
89734W        W62802  26.909  26.463   0.306
89735W        W62803   0.004  44.371   4.083
89736W        W62804   8.666  41.071   3.158
89737W        W62805  43.179  15.076   0.590
89738W        W62806   0.388   9.003  12.940
89739W        W62807  23.292  43.356   1.729
89740W        W62808  41.042   8.734   1.962
89741W        W62809  17.306  42.451   3.334
89742W        W62810  19.977   3.345  13.826
89743W        W62811  15.283  24.032  11.215
89744W        W62812   1.957   7.762  11.611
89745W        W62813  38.843  15.364   3.680
89746W        W62814  17.035  13.770  14.946
89747W        W62815  16.455   2.164  11.050
89748W        W62816   3.259  21.180  14.464
89749W        W62817   6.488  32.346   1.632
89750W        W62818  14.688   9.369  11.130
89751W        W62819   6.612  31.126  12.566
89752W        W62820   6.200  11.273   2.302
89753W        W62821  22.445  21.152  14.529
89754W        W62822   9.255  41.503   0.266
89755W        W62823  44.831  20.076   0.794
89756W        W62824  43.411   6.399   4.293
89757W        W62825  41.093  44.736   1.844
89758W        W62826  10.893  36.388  14.738
89759W        W62827  11.113   8.324   4.476
89760W        W62828   6.244  19.251  13.682
89761W        W62829  22.499  14.126  13.584
89762W        W62830  10.217   3.650  13.371
89763W        W62831  30.148  17.386   3.848
89764W        W62832  29.313  44.269  14.900
89765W        W62833  39.389  19.261  10.689
89766W        W62834  43.862   9.934  12.175
89767W        W62835  40.875   1.478  14.847
89768W        W62836  14.465  23.178  13.386
89769W        W62837  17.236  42.399  13.241
89770W        W62838  14.062  31.217   2.701
89771W        W62839   0.814   5.699   4.454
89772W        W62840   1.010  15.088  12.093
89773W        W62841  14.176  19.593  12.835
89774W        W62842  27.598   1.812   1.396
89775W        W62843  37.450  36.440  11.425
89776W        W62844   9.658  30.048  14.816
89777W        W62845  28.903   6.267   4.672
89778W        W62846   6.729  11.387  14.302
89779W        W62847  13.714  32.067  14.441
89780W        W62848  17.695   1.392  12.496
89781W        W62849  20.741  18.062   1.709
89782W        W62850   5.110  35.085   3.353
89783W        W62851  35.158  20.158  14.953
89784W        W62852  18.201  25.966   4.514
89785W        W62853   8.801  29.064   2.847
89786W        W62854  21.333  33.204   4.513
89787W        W62855  27.904  19.992  11.210
89788W        W62856  33.644   4.272   4.719
89789W        W62857  40.387   8.837   3.715
89790W        W62858  33.957  22.115  13.724
89791W        W62859  44.911  16.865  12.427
89792W        W62860   4.686  17.597   0.966
89793W        W62861  35.093  16.710   3.967
89794W        W62862  29.551  11.392   3.173
89795W        W62863  30.484  30.688   1.822
89796W        W62864  12.836   7.154   3.313
89797W        W62865   1.922  16.735  13.034
89798W        W62866  26.107  33.401  14.088
89799W        W62867  23.637   0.505   3.374
89800W        W62868  39.038  19.181   4.322
89801W        W62869  35.155  18.583  11.122
89802W        W62870   9.166  16.066  10.471
89803W        W62871   4.992   7.180   3.630
89804W        W62872  40.490  41.865   4.007
89805W        W62873   4.336  12.104  12.063
89806W        W62874  13.884  21.991   3.091
89807W        W62875   4.740  11.179  11.856
89808W        W62876  36.942  29.605  10.493
89809W        W62877   3.302  33.067  12.584
89810W        W62878  41.422  22.999  11.912
89811W        W62879  17.343  12.947  12.499
89812W        W62880  26.138  22.517  10.692
89813W        W62881  19.072   4.399   0.845
89814W        W62882  33.655  13.096  14.313
89815W        W62883  11.688  24.544   3.431
89816W        W62884  34.187  27.924  14.452
89817W        W62885   5.701  17.521   0.766
89818W        W62886  41.924  27.154  12.437
89819W        W62887   6.037   7.198   3.606
89820W        W62888  30.734  14.891   3.213
89821W        W62889   2.290  26.544   2.697
89822W        W62890  43.640  39.340  14.924
89823W        W62891  17.008  27.198   0.259
89824W        W62892  34.892  12.888  14.528
89825W        W62893  10.255   9.670   2.445
89826W        W62894  27.789  40.589  12.932
89827W        W62895  22.368  39.124   4.334
89828W        W62896  26.876  24.246  13.962
89829W        W62897   8.707  17.779  12.452
89830W        W62898  38.565  19.076  11.027
89831W        W62899  29.059  38.605   1.754
89832W        W62900  32.139  14.918   2.212
89833W        W62901  19.178  13.651  11.505
89834W        W62902   8.239   4.752   4.813
89835W        W62903  44.713  22.466   4.232
89836W        W62904   9.258  33.429  12.085
89837W        W62905  23.415  24.454  14.008
89838W        W62906  35.869  20.817   2.167
89839W        W62907  23.390   8.695  12.027
89840W        W62908  17.333  33.758   4.552
89841W        W62909   5.352  37.880   4.622
89842W        W62910  42.926  43.111  13.834
89843W        W62911  41.361  27.717  13.118
89844W        W62912  13.249  11.599   1.307
89845W        W62913  30.697  36.517  13.643
89846W        W62914  44.133  29.603  12.587
89847W        W62915  13.573  13.168   2.818
89848W        W62916  31.485  26.069   4.715
89849W        W62917  12.687   2.432   4.662
89850W        W62918  41.021  16.244   2.759
89851W        W62919  36.314  25.628   2.328
89852W        W62920  17.994   3.301   2.206
89853W        W62921   0.111  28.406   4.110
89854W        W62922  39.288  40.348  12.814
89855W        W62923  30.573  21.279  13.272
89856W        W62924  37.894   6.776  10.817
89857W        W62925  30.903  16.266   3.448
89858W        W62926  36.106  22.285  14.350
89859W        W62927  14.028   9.815  14.196
89860W        W62928  31.197  17.310   4.725
89861W        W62929  20.656  30.097   4.612
89862W        W62930  35.546  15.791   4.189
89863W        W62931   9.518  36.330  11.855
89864W        W62932  10.177  13.339   3.698
89865W        W62933  27.186  24.106   3.392
89866W        W62934   5.736  16.691  13.884
89867W        W62935  21.626  38.104   0.445
89868W        W62936  20.787  32.842   1.699
89869W        W62937  44.257  13.783   0.338
89870W        W62938  25.118  25.198   3.167
89871W        W62939  17.185  41.471   3.993
89872W        W62940  26.536  10.239   1.711
89873W        W62941  36.954  23.213  10.867
89874W        W62942  17.734   7.634   2.022
89875W        W62943  37.021  31.545  10.607
89876W        W62944  40.230  18.271  11.137
89877W        W62945  14.701  44.239  11.366
89878W        W62946  13.018   7.843  12.164
89879W        W62947  14.723  13.358   0.224
89880W        W62948  12.171  31.169  11.079
89881W        W62949   2.966  40.473  12.972
89882W        W62950  20.628  34.208   0.705
89883W        W62951  33.638  12.565  13.482
89884W        W62952   0.964  34.407  14.000
89885W        W62953  10.716  35.211  12.566
89886W        W62954  26.900  29.557   4.916
89887W        W62955  17.515  15.801  12.543
89888W        W62956  21.674  41.634  11.586
89889W        W62957  12.888  23.492   1.885
89890W        W62958   1.699  38.914   1.646
89891W        W62959  19.893  21.703  14.663
89892W        W62960  32.901   5.324  14.670
89893W        W62961   7.252  16.836  11.406
89894W        W62962  40.516  31.651  13.985
89895W        W62963  39.864  21.502  13.795
89896W        W62964  19.374  18.869  13.157
89897W        W62965  24.740  39.016   1.359
89898W        W62966  17.337  26.988   4.053
89899W        W62967   4.253   2.010   0.280
89900W        W62968   1.167   6.003  14.864
89901W        W62969  42.905  35.990   1.599
89902W        W62970   1.887  18.123   2.662
89903W        W62971  31.471  34.405  13.440
89904W        W62972   4.709  40.989   0.283
89905W        W62973  26.021  24.484   1.631
89906W        W62974  16.431   6.826  10.544
89907W        W62975  31.583  16.334   4.160
89908W        W62976  22.992  18.819   4.212
89909W        W62977  21.802  27.533  13.491
89910W        W62978  19.830  35.395  11.556
89911W        W62979  36.417  22.047  14.913
89912W        W62980  27.030  20.543   4.946
89913W        W62981  19.003  19.074  13.468
89914W        W62982  37.524  20.813   3.842
89915W        W62983  12.632  40.003   0.979
89916W        W62984  39.289  44.227   3.282
89917W        W62985  14.364  38.099   3.380
89918W        W62986   2.359  12.707  13.634
89919W        W62987  13.139  28.122   2.701
89920W        W62988  27.992  11.034  14.946
89921W        W62989   0.712  28.031   3.323
89922W        W62990   8.211  22.979  14.454
89923W        W62991  12.644   3.925  13.384
89924W        W62992  24.155  25.222  11.121
89925W        W62993   0.101  41.542   2.075
89926W        W62994  15.172   9.674   4.585
89927W        W62995   1.411  14.758   0.055
89928W        W62996  19.676  34.910  13.037
89929W        W62997   8.631  14.557   3.574
89930W        W62998  34.936  11.216  11.970
89931W        W62999  40.826  15.749   4.511
89932W        W63000   0.773  44.546  10.576
89933W        W63001  12.767  10.908   2.745
89934W        W63002  21.685  38.309  13.313
89935W        W63003  25.660  42.726  11.974
89936W        W63004  38.173  37.127  12.981
89937W        W63005  21.486  21.061   2.940
89938W        W63006  26.163  40.445  10.051
89939W        W63007  22.746  30.932   2.895
89940W        W63008  42.921  22.573  11.655
89941W        W63009   3.064  31.117  11.170
89942W        W63010   7.943  30.522  11.488
89943W        W63011  14.253  33.132  10.699
89944W        W63012  17.308  16.838   4.632
89945W        W63013  39.751  10.537  14.792
89946W        W63014  33.453  17.816   2.659
89947W        W63015  25.854  22.177  10.122
89948W        W63016  12.336  18.072   4.617
89949W        W63017  43.998   2.052   1.703
89950W        W63018   0.795  13.810   1.401
89951W        W63019  17.055   0.233  13.955
89952W        W63020  28.928  38.002   1.325
89953W        W63021  35.891  40.309  11.188
89954W        W63022  43.649  23.328  11.506
89955W        W63023   9.584   1.452  11.358
89956W        W63024  27.658  40.429   4.066
89957W        W63025   7.446  17.617  11.721
89958W        W63026   0.351  20.392  12.638
89959W        W63027   1.481  14.089   0.704
89960W        W63028   2.011   8.838   0.968
89961W        W63029  40.034  34.037  11.445
89962W        W63030  13.839  27.084  13.771
89963W        W63031  23.144  31.114  11.946
89964W        W63032  25.913   8.309   2.872
89965W        W63033  25.748   4.213  11.525
89966W        W63034  17.637   0.985   0.264
89967W        W63035  28.231  17.409  13.487
89968W        W63036  10.865  43.070  13.821
89969W        W63037   3.756  16.034  13.476
89970W        W63038  14.188  30.644  12.439
89971W        W63039  13.016  32.895   3.737
89972W        W63040  14.786   2.870  13.974
89973W        W63041   3.709  42.490   3.334
89974W        W63042  17.587  11.253   2.473
89975W        W63043  22.029  41.895  10.499
89976W        W63044  30.978   8.544   0.807
89977W        W63045   2.929  26.375  13.095
89978W        W63046   0.940  11.411  13.685
89979W        W63047  22.199  19.268  11.124
89980W        W63048  12.660  12.602  12.135
89981W        W63049   0.197  26.581   4.154
89982W        W63050  38.107  13.615   4.716
89983W        W63051  11.599  35.613  14.351
89984W        W63052  25.835  10.980   3.717
89985W        W63053   5.910  13.255   3.887
89986W        W63054  39.087  27.405   4.649
89987W        W63055  17.231  32.018  13.658
89988W        W63056  23.640  17.214  12.225
89989W        W63057  23.986  26.124   0.822
89990W        W63058   0.068  30.142  13.997
89991W        W63059  12.828  36.184  13.410
89992W        W63060  43.775  29.119   2.414
89993W        W63061  17.558  40.829   2.484
89994W        W63062  23.454  38.659  10.280
89995W        W63063  42.190  44.191   1.712
89996W        W63064  13.108   3.848   4.290
89997W        W63065   2.333  16.221  14.769
89998W        W63066  10.237  13.371  13.938
89999W        W63067   0.187  30.606  13.799
90000W        W63068  44.995  10.015  10.706
90001W        W63069  11.165   2.926  11.440
90002W        W63070  14.517  13.652  13.026
90003W        W63071  16.928  41.482   2.355
90004W        W63072  33.055  30.898   3.472
90005W        W63073  26.779  33.658   3.178
90006W        W63074  13.622  19.298  11.872
90007W        W63075  33.904  13.605  14.479
90008W        W63076   9.176  26.542  12.518
90009W        W63077  34.415   6.271  10.676
90010W        W63078  29.543  36.378   1.873
90011W        W63079  25.456  22.248   3.807
90012W        W63080  41.602  12.491  12.975
90013W        W63081   6.967  40.341  11.874
90014W        W63082  43.740  17.320   1.866
90015W        W63083  37.393  15.641  13.890
90016W        W63084  24.252   9.809  12.480
90017W        W63085  13.079  12.843   3.315
90018W        W63086  17.439   1.439  13.542
90019W        W63087   5.376  19.314   4.031
90020W        W63088  13.187   4.220  11.304
90021W        W63089  42.374   1.920   4.184
90022W        W63090   9.114  18.905   0.428
90023W        W63091  23.569  28.409   4.111
90024W        W63092  44.052  36.521  10.553
90025W        W63093  17.676  16.288  13.829
90026W        W63094  40.355   2.838  12.547
90027W        W63095  10.013  14.197  12.154
90028W        W63096  10.101  30.361   1.708
90029W        W63097   9.948  17.320  10.664
90030W        W63098  26.716  43.563  13.957
90031W        W63099   2.347  22.225   1.679
90032W        W63100  18.734   9.631   3.749
90033W        W63101  33.195  37.805   0.215
90034W        W63102  42.295  25.847   1.364
90035W        W63103  41.864   6.645   3.557
90036W        W63104  18.707  16.300  11.411
90037W        W63105  15.778   8.680  14.366
90038W        W63106  14.021   3.326  14.097
90039W        W63107   0.817   1.728   3.183
90040W        W63108  20.008  14.341  14.088
90041W        W63109   2.867  23.710  13.034
90042W        W63110   5.423  28.559  12.446
90043W        W63111  28.050  38.551   2.270
90044W        W63112   6.685  17.087  11.561
90045W        W63113  37.932  26.134   5.042
90046W        W63114  24.694  43.341  12.053
90047W        W63115   3.858  23.537  10.706
90048W        W63116  32.956  27.239   3.185
90049W        W63117  43.273  41.242   3.730
90050W        W63118  31.238  15.112   0.568
90051W        W63119  42.345  26.453  12.488
90052W        W63120  11.363   7.148  14.488
90053W        W63121  17.523   9.077   3.647
90054W        W63122  30.632  36.422  14.151
90055W        W63123  15.188  28.062   3.658
90056W        W63124   4.720  43.548   4.893
90057W        W63125  22.198  17.281  12.860
90058W        W63126  16.779  19.271   1.918
90059W        W63127  30.558  25.642   1.458
90060W        W63128  21.003  40.866  13.415
90061W        W63129  43.469   9.880   2.213
90062W        W63130   0.957  40.090   0.501
90063W        W63131   5.884  41.801  14.281
90064W        W63132  42.105  14.707  12.188
90065W        W63133   0.318  26.516   1.605
90066W        W63134  31.050   4.627  11.966
90067W        W63135  40.015  10.748  13.456
90068W        W63136   7.895  19.202   2.238
90069W        W63137  23.046   6.816   4.802
90070W        W63138  32.569   2.267   0.014
90071W        W63139  15.008  39.392  12.366
90072W        W63140  38.050  34.875   3.928
90073W        W63141   2.316   8.431   1.847
90074W        W63142   9.351  13.820   3.170
90075W        W63143  20.911   9.349  12.381
90076W        W63144  35.941  17.734   3.188
90077W        W63145  24.160  23.662   0.246
90078W        W63146   3.228  42.402  11.139
90079W        W63147  43.902  11.371   2.757
90080W        W63148  44.716  18.036  11.659
90081W        W63149  18.577  20.788  10.990
90082W        W63150   6.634  29.081   0.683
90083W        W63151  33.426  18.312   2.615
90084W        W63152  10.811   2.890   3.700
90085W        W63153   9.014  43.486  13.591
90086W        W63154  25.287  24.167   3.721
90087W        W63155  35.875   6.147  11.636
90088W        W63156  38.581   0.199  14.972
90089W        W63157  36.603  23.721  13.763
90090W        W63158   3.241  15.997  10.527
90091W        W63159  24.708  22.275   0.959
90092W        W63160  41.742  11.845  10.449
90093W        W63161   9.374  36.466  13.809
90094W        W63162  25.465   6.366  11.008
90095W        W63163  34.122  38.806   4.610
90096W        W63164  11.671  17.976  13.023
90097W        W63165  17.164  25.247   2.175
90098W        W63166  16.162   1.570   1.724
90099W        W63167  41.448   5.695  12.869
90100W        W63168  14.635  16.800   3.200
90101W        W63169   6.642  28.506   4.118
90102W        W63170  11.664  37.925   1.130
90103W        W63171  34.064  44.808   1.405
90104W        W63172  28.070  31.532   0.002
90105W        W63173  23.431  14.420   4.177
90106W        W63174  41.218  23.197   3.059
90107W        W63175   8.810  43.819  13.285
90108W        W63176  22.500  44.789   1.325
90109W        W63177  13.658  11.258   1.346
90110W        W63178  23.233  18.722   4.958
90111W        W63179  21.102   5.597  13.866
90112W        W63180  26.437  13.315   3.722
90113W        W63181  14.528  15.342  12.520
90114W        W63182  35.404   4.269  11.670
90115W        W63183  31.117  43.410   0.624
90116W        W63184  21.312   6.910   1.432
90117W        W63185   4.771  10.855   4.552
90118W        W63186   4.972  27.092   4.342
90119W        W63187   7.728  26.891  12.210
90120W        W63188  15.304  21.957  11.055
90121W        W63189  22.214  43.750  10.705
90122W        W63190  18.583  43.529  13.423
90123W        W63191  32.769  25.992  13.871
90124W        W63192  32.801   9.608   1.390
90125W        W63193  24.238  36.849   4.699
90126W        W63194   0.581  30.728   0.702
90127W        W63195  32.463  31.416   4.238
90128W        W63196  16.694  15.792   2.085
90129W        W63197  24.528   7.817   1.302
90130W        W63198   4.523   3.285   2.408
90131W        W63199  26.960  14.607   3.294
90132W        W63200   2.371  19.371  12.573
90133W        W63201  16.973  37.816  10.628
90134W        W63202  12.844  20.271   0.487
90135W        W63203   4.703  43.979  13.549
90136W        W63204  23.250   5.420  11.501
90137W        W63205  20.532  29.745  13.301
90138W        W63206  30.119   5.870  12.863
90139W        W63207   3.210  12.938   2.363
90140W        W63208   3.486  38.974  13.906
90141W        W63209  12.393  12.268  13.367
90142W        W63210  22.505  17.321   4.579
90143W        W63211  41.911  28.398   0.343
90144W        W63212  30.987  12.708   4.521
90145W        W63213  32.949  27.231   2.244
90146W        W63214  42.908  24.708   3.652
90147W        W63215  32.582  20.788   0.394
90148W        W63216   5.788  37.528  11.211
90149W        W63217  43.007   8.323  13.381
90150W        W63218  33.957  40.001  13.472
90151W        W63219  35.713  35.429  11.129
90152W        W63220  41.079  39.471   4.532
90153W        W63221   0.451   7.945  11.506
90154W        W63222  43.923   5.336  12.650
90155W        W63223   0.426  25.474   3.594
90156W        W63224  31.211  18.227   4.494
90157W        W63225  33.339  44.467   3.970
90158W        W63226  12.939  18.694  10.149
90159W        W63227  26.149  42.282   4.621
90160W        W63228  14.165   4.906   1.023
90161W        W63229   1.721  41.812   2.306
90162W        W63230  15.636   6.390   1.299
90163W        W63231  15.239   0.971   0.767
90164W        W63232   0.478  19.099   0.333
90165W        W63233   1.648  12.418  13.393
90166W        W63234   4.286  24.707   3.263
90167W        W63235  23.926   2.994   2.794
90168W        W63236  16.095  26.208  10.721
90169W        W63237  10.102   0.080   1.886
90170W        W63238  30.648  19.939  14.788
90171W        W63239   9.715  40.668  13.783
90172W        W63240  34.809  38.966  11.501
90173W        W63241  11.877  12.195  13.380
90174W        W63242  18.206   8.722   0.338
90175W        W63243  42.424  21.556   3.302
90176W        W63244  44.020  18.782  10.270
90177W        W63245  34.564   5.281   0.411
90178W        W63246  18.075  31.054   4.030
90179W        W63247  29.838  18.399   2.257
90180W        W63248  14.323  41.280   0.419
90181W        W63249  18.197  38.316  11.687
90182W        W63250  34.984  11.794   0.545
90183W        W63251  30.019  27.755   1.933
90184W        W63252  21.240  35.290  12.204
90185W        W63253  12.263  22.576  14.118
90186W        W63254  28.405  37.620   3.845
90187W        W63255  41.938  11.614   1.781
90188W        W63256   8.359  42.301  14.448
90189W        W63257   6.694  25.655   1.768
90190W        W63258   3.177  41.556   3.124
90191W        W63259   9.335   7.630   3.674
90192W        W63260  14.799  24.556  13.464
90193W        W63261  22.171  25.314  13.337
90194W        W63262  12.360  10.285   0.227
90195W        W63263  17.179  31.163  11.155
90196W        W63264  12.476  18.644  13.903
90197W        W63265  16.801  42.792   4.181
90198W        W63266   4.551  19.894  13.417
90199W        W63267  12.277  14.177  10.718
90200W        W63268  30.476  42.272  13.827
90201W        W63269  13.290   7.838  10.769
90202W        W63270   2.521   5.146  14.908
90203W        W63271  14.045   3.847  11.200
90204W        W63272  38.912  21.154  12.902
90205W        W63273  42.059  21.551   2.929
90206W        W63274  12.284  16.350   1.421
90207W        W63275  31.588  14.618  14.228
90208W        W63276  11.277  19.217  14.852
90209W        W63277   9.488  42.923   4.167
90210W        W63278  19.596   7.217  11.123
90211W        W63279  19.618  38.263   1.066
90212W        W63280  36.966  28.174   1.829
90213W        W63281  18.308   6.932  10.975
90214W        W63282  39.761   2.737   4.182
90215W        W63283  26.999  38.565  12.939
90216W        W63284   7.646  26.861   4.087
90217W        W63285  14.783  28.629   0.484
90218W        W63286   3.195  43.222  11.592
90219W        W63287   6.395  33.898   1.776
90220W        W63288  26.695   0.029  13.404
90221W        W63289  28.445  25.041   1.810
90222W        W63290   1.885  16.871   4.910
90223W        W63291  30.039  42.549   4.788
90224W        W63292  21.061  35.871   3.379
90225W        W63293   2.707   4.281  14.937
90226W        W63294  43.404  17.540   2.376
90227W        W63295  31.878  37.949  10.857
90228W        W63296  29.648  14.404   1.190
90229W        W63297  43.419  27.938  10.591
90230W        W63298  27.165  39.810  14.985
90231W        W63299  11.306  43.668  11.347
90232W        W63300  34.170  20.925   3.105
90233W        W63301   7.105  21.691   1.097
90234W        W63302  18.627  43.256   1.160
90235W        W63303   1.161  32.339  14.639
90236W        W63304  22.602  36.300  14.369
90237W        W63305  11.069   3.454  11.044
90238W        W63306  44.827  15.765  10.485
90239W        W63307  19.201   1.283  13.747
90240W        W63308   8.795  26.957   0.377
90241W        W63309  21.983   9.486   0.886
90242W        W63310   6.414  20.770  11.192
90243W        W63311  36.443   6.250  13.288
90244W        W63312   3.758  35.079  14.537
90245W        W63313  21.730   6.825  10.427
90246W        W63314   7.332  22.034  12.917
90247W        W63315  17.880  20.666   4.899
90248W        W63316  28.001  36.058   0.460
90249W        W63317  32.951   9.907  11.591
90250W        W63318  17.704   9.839  10.557
90251W        W63319   0.899   3.928  13.177
90252W        W63320  13.857   9.713  12.857
90253W        W63321  10.578  28.595  13.410
90254W        W63322  23.249  29.225   3.609
90255W        W63323  25.271  40.357  14.319
90256W        W63324  16.381  36.982  10.684
90257W        W63325  32.159   1.446  13.044
90258W        W63326  29.414  36.470   1.378
90259W        W63327   3.713  17.141  12.523
90260W        W63328  13.916  36.339   2.834
90261W        W63329  42.732  31.786  13.376
90262W        W63330  10.143  42.277   1.768
90263W        W63331  38.536  28.892  11.535
90264W        W63332  35.412  29.140  11.717
90265W        W63333  42.020  10.899  12.140
90266W        W63334   0.536  14.360   5.203
90267W        W63335  40.386  44.423   1.761
90268W        W63336  33.188  38.220  12.445
90269W        W63337  26.461  33.836   2.491
90270W        W63338  41.265  30.890  14.588
90271W        W63339   0.413  21.439   3.227
90272W        W63340  19.883   1.677  13.153
90273W        W63341  11.149  13.593  13.904
90274W        W63342   1.659  43.070   0.365
90275W        W63343  26.505  39.807   3.849
90276W        W63344  44.547   0.906   2.898
90277W        W63345  25.871  32.549   3.803
90278W        W63346  32.116  31.640   2.812
90279W        W63347  40.204   6.971  13.080
90280W        W63348  21.758  24.894   0.466
90281W        W63349  25.884   3.074   2.720
90282W        W63350   7.123  22.094   2.838
90283W        W63351  25.134  29.388  11.512
90284W        W63352  15.649  44.458   0.946
90285W        W63353  25.156  22.482  12.953
90286W        W63354  24.559  41.784   4.871
90287W        W63355  38.974  24.266   1.301
90288W        W63356  22.960  18.679  10.161
90289W        W63357  20.834   9.195  11.119
90290W        W63358  10.998  35.087  12.057
90291W        W63359  11.703   0.028  14.902
90292W        W63360  13.563   3.075   2.711
90293W        W63361   4.772  40.533   5.008
90294W        W63362  16.125  38.890   1.885
90295W        W63363  33.494   8.731   4.929
90296W        W63364   2.878  24.150   2.922
90297W        W63365  38.562   5.768   0.923
90298W        W63366  11.152  41.837  13.956
90299W        W63367  30.033  20.188   0.988
90300W        W63368  22.507   0.022  10.942
90301W        W63369  34.948   0.262   2.133
90302W        W63370  12.884  13.817   2.713
90303W        W63371  29.193  26.660   2.838
90304W        W63372  33.622  15.067   3.297
90305W        W63373  27.199  22.805  11.119
90306W        W63374  33.464   9.651   0.191
90307W        W63375  24.242  23.760   1.504
90308W        W63376  39.750  13.117   0.265
90309W        W63377  29.712  15.185   0.819
90310W        W63378  28.794  14.953   0.592
90311W        W63379  29.454  12.802   0.374
90312W        W63380  22.400  38.922  13.173
90313W        W63381  36.931  24.939  12.626
90314W        W63382  36.576  11.752   2.637
90315W        W63383  20.071  44.545  14.702
90316W        W63384  26.126  21.604  13.572
90317W        W63385  42.279  11.014   3.639
90318W        W63386   9.025   8.559  14.925
90319W        W63387  33.392  41.531   1.156
90320W        W63388   1.863  27.188   3.622
90321W        W63389  33.551  30.570  14.349
90322W        W63390   5.946  21.578  12.123
90323W        W63391  42.761  20.154  14.436
90324W        W63392   4.785   6.845   2.460
90325W        W63393  20.506  10.794  13.350
90326W        W63394   5.458   8.369   3.517
90327W        W63395   5.695  41.794  14.765
90328W        W63396  19.316  20.566   3.263
90329W        W63397  10.822   1.622  12.908
90330W        W63398   4.913  11.862   0.969
90331W        W63399  29.169  36.494   3.197
90332W        W63400  14.518  23.911   4.668
90333W        W63401   8.442  35.154  11.113
90334W        W63402  21.179   8.432  11.766
90335W        W63403  10.068  40.994  11.121
90336W        W63404   4.894  31.782  10.970
90337W        W63405  19.961  32.177  12.040
90338W        W63406  20.650  18.296  12.446
90339W        W63407  33.845  19.266   0.887
90340W        W63408  29.415   5.866   2.920
90341W        W63409  36.508  10.834   3.642
90342W        W63410  30.092  15.107  11.619
90343W        W63411  37.029   5.469   0.737
90344W        W63412  13.574  41.834   2.068
90345W        W63413   3.340  11.723   0.484
90346W        W63414  12.480  15.258  12.746
90347W        W63415  24.709  12.346  14.909
90348W        W63416  39.479  18.393  13.918
90349W        W63417   5.867  28.116  14.017
90350W        W63418  28.040  30.234   4.788
90351W        W63419  41.240   6.702   2.228
90352W        W63420  35.748  21.230  11.845
90353W        W63421  25.241  16.881  13.986
90354W        W63422  11.436  16.727   1.407
90355W        W63423  25.161  19.783  10.941
90356W        W63424  20.698   6.823  14.443
90357W        W63425  42.170   6.799  13.940
90358W        W63426  32.142   0.879  13.527
90359W        W63427  13.396  44.579  10.446
90360W        W63428  27.491  40.032   3.184
90361W        W63429  20.807   8.625   2.352
90362W        W63430  26.200  31.394   3.343
90363W        W63431   3.685  15.592  14.445
90364W        W63432  38.522   3.711  12.504
90365W        W63433  39.188  15.760   3.746
90366W        W63434  25.683  16.557  13.977
90367W        W63435  39.336  10.183  14.901
90368W        W63436   5.512  44.641   1.887
90369W        W63437  28.921  37.323   0.397
90370W        W63438   2.862  33.233  12.293
90371W        W63439  39.075  19.295   0.693
90372W        W63440   2.315   4.249   2.712
90373W        W63441  34.387   9.375  11.047
90374W        W63442  22.121  17.240  14.901
90375W        W63443   6.454  29.227   4.180
90376W        W63444  14.538  33.000   0.249
90377W        W63445  11.730  33.918   3.201
90378W        W63446   3.985  25.634   1.332
90379W        W63447  25.104  30.172   3.769
90380W        W63448  44.400   7.706   4.704
90381W        W63449   8.872  14.342  10.731
90382W        W63450  36.776  16.669  12.040
90383W        W63451  34.416  22.746  14.256
90384W        W63452  33.467  40.856  10.509
90385W        W63453  28.991  38.370   4.268
90386W        W63454  10.117   4.773  10.577
90387W        W63455  26.718  21.428  14.270
90388W        W63456  31.146   4.485   5.060
90389W        W63457  37.557  37.247   0.674
90390W        W63458  22.170  16.533   9.798
90391W        W63459  39.208   3.374  14.312
90392W        W63460  28.611  43.265   0.985
90393W        W63461  22.967  44.831  12.115
90394W        W63462   9.407  20.611   5.035
90395W        W63463  10.784  39.860  14.748
90396W        W63464  26.278  32.398  14.786
90397W        W63465  20.273  10.380  12.066
90398W        W63466  29.445   6.746   2.607
90399W        W63467  23.122  22.842   4.762
90400W        W63468  41.426  21.644   4.093
90401W        W63469  20.198  27.463   0.438
90402W        W63470  15.160  43.810   4.432
90403W        W63471  38.702  37.035   1.882
90404W        W63472  18.417  32.312  14.818
90405W        W63473   9.955  17.616   4.647
90406W        W63474  20.550  33.188   4.951
90407W        W63475  13.122   8.821  13.599
90408W        W63476  27.431  25.699   0.447
90409W        W63477  12.246  17.664   3.785
90410W        W63478   6.620  22.043  14.561
90411W        W63479  34.567  18.643   0.676
90412W        W63480   5.864   9.476  10.560
90413W        W63481  31.184  11.217   0.995
90414W        W63482  37.073  36.506   2.327
90415W        W63483  13.112  15.527  12.022
90416W        W63484   6.258  19.962  14.953
90417W        W63485  35.958  33.216   2.871
90418W        W63486  24.443  38.373  12.866
90419W        W63487  21.293   5.005   2.334
90420W        W63488  29.210  17.710   1.625
90421W        W63489  30.936   2.175   5.089
90422W        W63490   6.870  26.556  11.672
90423W        W63491  29.012  40.331  11.208
90424W        W63492   8.922  25.547  12.508
90425W        W63493  39.406   5.745  12.846
90426W        W63494  39.628  11.885   1.794
90427W        W63495  29.419  39.912  14.813
90428W        W63496  11.862  17.146   2.866
90429W        W63497  31.257  29.488   1.422
90430W        W63498  24.470  44.213  14.310
90431W        W63499  13.449  35.795  12.881
90432W        W63500   5.460   7.731  11.031
90433W        W63501  18.851   9.482   1.389
90434W        W63502  10.764   7.400  11.350
90435W        W63503  30.948   8.394  11.995
90436W        W63504   9.406  28.972  14.072
90437W        W63505  39.375  26.774  12.943
90438W        W63506  31.207  22.760  10.846
90439W        W63507  43.236  13.805   0.335
90440W        W63508  44.922  38.614  11.706
90441W        W63509  34.839  25.302  12.112
90442W        W63510  42.983  30.004   3.728
90443W        W63511   1.866  30.653  10.776
90444W        W63512   6.662  11.297   3.214
90445W        W63513  34.530  13.672   2.151
90446W        W63514  27.576   6.371  12.546
90447W        W63515  38.567   6.185  10.964
90448W        W63516  44.518  10.626  12.853
90449W        W63517  30.915   5.759   0.534
90450W        W63518  43.287  23.916  12.392
90451W        W63519   0.737  29.175  14.864
90452W        W63520  14.343  43.235  11.005
90453W        W63521  41.267  28.244   2.964
90454W        W63522  11.979   8.276   3.642
90455W        W63523  28.117   9.579   2.609
90456W        W63524  41.028  42.525  11.175
90457W        W63525  16.943  17.557   0.739
90458W        W63526  38.250  11.784  11.915
90459W        W63527   3.675   9.714  11.870
90460W        W63528  10.586  39.402   2.217
90461W        W63529  16.370  20.995  14.907
90462W        W63530   6.304  14.240  12.149
90463W        W63531  27.111  11.870  12.043
90464W        W63532   5.172  16.810   1.449
90465W        W63533  20.979  32.551   2.888
90466W        W63534  25.104  18.249  11.447
90467W        W63535  27.832   4.370   1.738
90468W        W63536  26.781  27.935   0.428
90469W        W63537  22.773  29.981  10.687
90470W        W63538  32.601   9.678   2.294
90471W        W63539  33.145   6.070   4.694
90472W        W63540  36.479  28.398   4.115
90473W        W63541  39.287  22.621   0.753
90474W        W63542   1.965  15.838  10.681
90475W        W63543  24.576   7.778  11.925
90476W        W63544   5.360   3.707  13.536
90477W        W63545  34.746  30.424  11.068
90478W        W63546  10.154   6.704  12.366
90479W        W63547  38.294  36.850  11.135
90480W        W63548  44.514  44.008  12.424
90481W        W63549   5.407  28.656  10.723
90482W        W63550  19.716   1.824   4.602
90483W        W63551  25.118  37.882  11.898
90484W        W63552   5.741  16.112  13.275
90485W        W63553  38.514  18.679  13.667
90486W        W63554  43.322  22.157   0.176
90487W        W63555  22.186  19.379   0.791
90488W        W63556  11.861  21.749  13.715
90489W        W63557  16.281  38.425  13.476
90490W        W63558  44.689  15.120   1.943
90491W        W63559  14.868  43.890  13.787
90492W        W63560  42.871  36.862   0.299
90493W        W63561  29.892  35.104  10.736
90494W        W63562  30.307  16.620  13.673
90495W        W63563  44.825  15.471   2.786
90496W        W63564   4.485  39.118  10.947
90497W        W63565  42.916  13.895  13.046
90498W        W63566  14.824  22.111  13.916
90499W        W63567  42.563  35.059  13.335
90500W        W63568  27.189   6.522  13.444
90501W        W63569  10.875  22.904  11.169
90502W        W63570  27.744  21.393   2.841
90503W        W63571  25.455   6.097  12.803
90504W        W63572  22.497   0.232  13.647
90505W        W63573  11.722  25.999   4.732
90506W        W63574   0.678   7.075   1.190
90507W        W63575  40.520  25.572   2.404
90508W        W63576  32.092  10.813   1.392
90509W        W63577  29.002  24.672  12.438
90510W        W63578  30.081  21.686  13.961
90511W        W63579  35.852  40.882  12.528
90512W        W63580  27.694  11.180   0.363
90513W        W63581  31.018  23.303   4.683
90514W        W63582  17.087  32.515   3.212
90515W        W63583   0.001  42.827  10.577
90516W        W63584   1.788   7.946  13.766
90517W        W63585  11.559  37.881  13.061
90518W        W63586   4.845  25.518   1.677
90519W        W63587  35.465  17.316   4.643
90520W        W63588   9.203  25.034   2.209
90521W        W63589  33.393  42.814  13.399
90522W        W63590   8.739  14.291  14.306
90523W        W63591  40.096  11.079   1.839
90524W        W63592  13.692  15.620   3.095
90525W        W63593  21.275  36.869  11.188
90526W        W63594  31.605  36.880  11.593
90527W        W63595  19.695   9.304   4.307
90528W        W63596   4.281  33.435   1.275
90529W        W63597  12.159  39.895   0.741
90530W        W63598  23.616  19.715  14.511
90531W        W63599  37.813  25.957   1.720
90532W        W63600   6.533   8.829   0.428
90533W        W63601  10.243  26.593   1.575
90534W        W63602  32.954   1.017   0.405
90535W        W63603  19.858  40.296   2.184
90536W        W63604  24.543   0.774   1.341
90537W        W63605   6.753   8.901  14.913
90538W        W63606  43.543  30.069  11.597
90539W        W63607  16.369  22.434  13.435
90540W        W63608  44.094  36.901  13.651
90541W        W63609  29.169  25.680   0.495
90542W        W63610  17.108  10.286  10.288
90543W        W63611  17.644  21.799  12.862
90544W        W63612  25.208  43.841  14.533
90545W        W63613  32.702   5.461   0.298
90546W        W63614   2.473   0.986  11.979
90547W        W63615  28.637  14.706   4.859
90548W        W63616   1.543  29.121   3.661
90549W        W63617  31.118  41.918  11.724
90550W        W63618  43.261  44.905  13.967
90551W        W63619   6.455  19.326   1.001
90552W        W63620  39.082   9.258   2.083
90553W        W63621  42.327  10.630   1.304
90554W        W63622   4.947  38.234  14.710
90555W        W63623  10.198  26.264   1.953
90556W        W63624  25.505  38.331   4.589
90557W        W63625  43.995  31.864  12.820
90558W        W63626   4.438  13.255  14.562
90559W        W63627  21.568  36.816  13.631
90560W        W63628  44.282  18.040   3.644
90561W        W63629  25.794  10.145   2.432
90562W        W63630  41.478   2.691   4.328
90563W        W63631  41.650  20.637   1.332
90564W        W63632  15.983   9.596  10.649
90565W        W63633  32.494  13.690   1.990
90566W        W63634  42.285  30.357  11.652
90567W        W63635  10.236  31.620   0.042
90568W        W63636  26.380  25.130  14.587
90569W        W63637  25.712  39.796  13.360
90570W        W63638  23.498  22.470  11.618
90571W        W63639  35.195  14.733  13.788
90572W        W63640   4.868  32.686   3.674
90573W        W63641  37.543  30.402  12.862
90574W        W63642  18.615  10.665   2.289
90575W        W63643   0.996   6.484  12.001
90576W        W63644  13.622  11.101  14.937
90577W        W63645  20.763  41.546   0.753
90578W        W63646  21.768   1.341  14.908
90579W        W63647   3.812  44.433  14.119
90580W        W63648  31.553  15.851  10.544
90581W        W63649  14.123  18.888   0.891
90582W        W63650   4.267  34.510  10.807
90583W        W63651  12.698  34.798  12.501
90584W        W63652  28.516  16.724  12.472
90585W        W63653  35.473  32.978  14.563
90586W        W63654   0.359  21.085  14.311
90587W        W63655   0.880  25.140   3.633
90588W        W63656   2.914  41.575   0.268
90589W        W63657   7.868  38.387   0.817
90590W        W63658  26.176  17.405  13.944
90591W        W63659  17.057  26.513   2.348
90592W        W63660   1.955  16.785  11.820
90593W        W63661  21.161  28.280   4.667
90594W        W63662  35.394  14.222  13.953
90595W        W63663  10.895  33.878  12.863
90596W        W63664  40.537   3.259   0.358
90597W        W63665  27.689  40.065   2.307
90598W        W63666  41.138  12.645   5.241
90599W        W63667  43.842   1.953  13.089
90600W        W63668  34.619  40.397   1.349
90601W        W63669   9.158   1.737  13.047
90602W        W63670  37.942  39.745  11.564
90603W        W63671  44.389  18.663  14.702
90604W        W63672   0.572  43.226   2.838
90605W        W63673  31.998  15.137   2.654
90606W        W63674  21.662  22.561  12.113
90607W        W63675  22.210  31.461   3.843
90608W        W63676  25.337  36.908   4.550
90609W        W63677  19.999  40.321   0.107
90610W        W63678  35.550   6.672   4.242
90611W        W63679  44.531  32.638   4.193
90612W        W63680  14.347  41.904  10.481
90613W        W63681  37.537  21.119   2.498
90614W        W63682  43.854  14.675  14.893
90615W        W63683  33.392  39.281  11.953
90616W        W63684  32.351  44.581   4.240
90617W        W63685  28.952  26.396  11.062
90618W        W63686  42.492   4.773  12.863
90619W        W63687  15.761   0.399  14.326
90620W        W63688  27.483  30.627  11.558
90621W        W63689  11.855  23.625  10.714
90622W        W63690  33.905  10.156   2.809
90623W        W63691  21.593  34.174   2.145
90624W        W63692   9.670  37.936   1.185
90625W        W63693   5.260   3.875   1.666
90626W        W63694  39.928  42.282  14.631
90627W        W63695  28.509   0.467  10.689
90628W        W63696  32.614   1.737   0.097
90629W        W63697  44.255  24.120   1.984
90630W        W63698  26.006   1.117  12.860
90631W        W63699  14.043  26.106   2.279
90632W        W63700   1.747   3.281   3.288
90633W        W63701  35.918   9.168   4.147
90634W        W63702  43.193  10.676  11.141
90635W        W63703   9.900  26.479   4.181
90636W        W63704  43.353  42.589  11.840
90637W        W63705  13.600  42.668  14.984
90638W        W63706  20.164  22.162   4.417
90639W        W63707  28.546   6.815   2.726
90640W        W63708  30.624   8.025   4.635
90641W        W63709  32.993  28.649  10.622
90642W        W63710  38.394  33.947  12.894
90643W        W63711  23.825  23.591  12.515
90644W        W63712  34.382  25.906  11.652
90645W        W63713  10.369  11.534  12.817
90646W        W63714  43.459  31.677   1.465
90647W        W63715  15.774  25.109   0.466
90648W        W63716  39.410  25.729  10.568
90649W        W63717   2.480   3.428   1.309
90650W        W63718  37.160  43.318  14.422
90651W        W63719  44.960   7.410   2.376
90652W        W63720   8.830  23.601   0.516
90653W        W63721  28.396  12.312  13.883
90654W        W63722  21.540  34.150  14.912
90655W        W63723  14.022   1.229   2.297
90656W        W63724   0.959  14.134  14.810
90657W        W63725  42.319  25.260  14.907
90658W        W63726   2.554   3.481   3.758
90659W        W63727  42.216   2.445  13.784
90660W        W63728  31.328   3.127  10.983
90661W        W63729  12.658  21.701   3.582
90662W        W63730  23.040  18.713   3.702
90663W        W63731  35.733   8.644   2.383
90664W        W63732  25.046  44.910  10.666
90665W        W63733  29.213   4.361   4.691
90666W        W63734  34.573  25.732   2.686
90667W        W63735  15.588  39.405   4.150
90668W        W63736   0.733  26.220   1.346
90669W        W63737  17.262   2.748  12.148
90670W        W63738   0.434  17.246  11.185
90671W        W63739  19.388  31.389  14.920
90672W        W63740  34.560  36.519   0.427
90673W        W63741  38.905  36.808  14.118
90674W        W63742   2.425  31.225  14.462
90675W        W63743   7.168  17.171  11.801
90676W        W63744  31.112  37.161  14.387
90677W        W63745   1.710  10.112  13.087
90678W        W63746  17.040  44.070   0.773
90679W        W63747   2.775  15.600  12.518
90680W        W63748   5.480  38.001   0.871
90681W        W63749  12.806  13.652  12.334
90682W        W63750  35.944   9.334   0.502
90683W        W63751  11.194  33.430   0.281
90684W        W63752  10.070   9.127  11.204
90685W        W63753  13.815  22.731   3.695
90686W        W63754  20.133  19.641   5.070
90687W        W63755  33.117  28.144  10.869
90688W        W63756  31.651  32.309   4.315
90689W        W63757  23.308  30.090   2.255
90690W        W63758  32.218  27.486   1.250
90691W        W63759  34.440  11.834   2.377
90692W        W63760  22.727   8.388  13.271
90693W        W63761  43.804  32.587   2.791
90694W        W63762  14.210  34.531  12.920
90695W        W63763  26.733  27.490   3.132
90696W        W63764   1.967  18.427   0.814
90697W        W63765  33.021  41.219   1.337
90698W        W63766   7.494   8.396  14.110
90699W        W63767  29.164   6.211  14.926
90700W        W63768  31.492  42.761  12.653
90701W        W63769  42.206  19.657  14.021
90702W        W63770  12.927  36.049   1.907
90703W        W63771   6.852  35.741   1.946
90704W        W63772  39.048   8.839   2.834
90705W        W63773  22.711  30.015   4.535
90706W        W63774  43.296  42.269   1.462
90707W        W63775   4.952  29.410   0.415
90708W        W63776  28.864  12.704  14.538
90709W        W63777   0.292  37.503  12.808
90710W        W63778  32.201  39.088  12.782
90711W        W63779  30.335  20.629   0.994
90712W        W63780  35.400  25.201   0.823
90713W        W63781  30.828   1.775   4.731
90714W        W63782   6.775   6.307   2.238
90715W        W63783  24.114  23.656  10.708
90716W        W63784   4.600   1.371  11.715
90717W        W63785  28.405   5.304  13.372
90718W        W63786   2.362  34.386   0.596
90719W        W63787  10.865  33.631  13.320
90720W        W63788  10.650  33.874   3.314
90721W        W63789   1.373   3.184  14.895
90722W        W63790  38.981  22.069  11.532
90723W        W63791   2.287  34.806  11.841
90724W        W63792  39.214  34.384  13.209
90725W        W63793  40.407  11.587   2.856
90726W        W63794  32.078  12.168   0.747
90727W        W63795  13.609  10.584  14.043
90728W        W63796  35.717  26.460  12.903
90729W        W63797   7.725  44.753  11.637
90730W        W63798  42.700  40.512   3.885
90731W        W63799   5.907   4.902  10.655
90732W        W63800  34.448   3.898  10.749
90733W        W63801   3.867  28.813   0.330
90734W        W63802   2.910   2.908   3.428
90735W        W63803   6.494   6.663  11.821
90736W        W63804  35.439   0.264  12.341
90737W        W63805  25.006  44.282   0.812
90738W        W63806  31.935   5.168   1.766
90739W        W63807  31.840  34.966  11.850
90740W        W63808   5.776  28.579   0.905
90741W        W63809  32.959  38.532   4.385
90742W        W63810  40.259  39.667   3.638
90743W        W63811  25.238  37.209   4.964
90744W        W63812   9.151  28.626  13.402
90745W        W63813   1.806  25.860  14.522
90746W        W63814  38.289   2.470   3.261
90747W        W63815   8.866  42.837   0.395
90748W        W63816  14.786  17.866   1.300
90749W        W63817   2.703  26.147  12.291
90750W        W63818   7.862  11.894   4.090
90751W        W63819  33.587  30.113  14.767
90752W        W63820  11.730  31.844   2.285
90753W        W63821  13.119  12.465  11.845
90754W        W63822  15.323  28.087   4.744
90755W        W63823  24.983  38.089   3.740
90756W        W63824  25.972  18.662   3.165
90757W        W63825  10.278  28.229  12.867
90758W        W63826   9.451  10.598   2.312
90759W        W63827   4.047  29.641   4.462
90760W        W63828  41.901  32.561   1.198
90761W        W63829  29.421  14.891  13.170
90762W        W63830  12.175  27.649   4.292
90763W        W63831   8.274  15.772   1.020
90764W        W63832  18.140  15.279  12.320
90765W        W63833   6.994  20.519   2.839
90766W        W63834  22.298  14.863   1.362
90767W        W63835  38.510  40.448   4.496
90768W        W63836  11.160  17.872   0.383
90769W        W63837  14.641  21.132  14.391
90770W        W63838  36.104  19.512  14.410
90771W        W63839  35.051  40.586  11.417
90772W        W63840   6.310  29.471   2.743
90773W        W63841  20.514  32.673   3.783
90774W        W63842  42.575  13.625   2.421
90775W        W63843  14.265  11.582   2.479
90776W        W63844  14.699   2.241  10.723
90777W        W63845  26.705  35.395   3.635
90778W        W63846  33.402  13.639   1.052
90779W        W63847  36.396  28.848  11.141
90780W        W63848   7.154  12.880   3.877
90781W        W63849  43.901  30.708   0.100
90782W        W63850  22.026  33.247  12.906
90783W        W63851   7.676  39.626  12.070
90784W        W63852  32.978  12.787   2.952
90785W        W63853   4.013  15.130   2.906
90786W        W63854  43.856  28.162   0.035
90787W        W63855  20.986   7.002   4.515
90788W        W63856  40.059   6.612   5.093
90789W        W63857   2.412  29.874   4.185
90790W        W63858  36.567  35.785   5.137
90791W        W63859  14.156  26.718   1.003
90792W        W63860  15.211  11.039   0.494
90793W        W63861  25.331  13.442  12.435
90794W        W63862  27.515  22.077  14.530
90795W        W63863  32.112   7.982   3.651
90796W        W63864  29.070   5.268   0.670
90797W        W63865  23.302  13.127  10.580
90798W        W63866   2.137  15.097  12.838
90799W        W63867  12.591  14.769  12.028
90800W        W63868  32.149  18.631  11.945
90801W        W63869  29.948  17.683   0.033
90802W        W63870  26.138   8.491   0.981
90803W        W63871  19.218   7.692  13.909
90804W        W63872  11.885  30.537   0.488
90805W        W63873  28.973   0.176  11.362
90806W        W63874  36.447  22.616  11.720
90807W        W63875  15.467  40.513   3.683
90808W        W63876  17.234  35.613  11.795
90809W        W63877  27.969  43.310   3.174
90810W        W63878  29.591  37.295   4.555
90811W        W63879   2.646  30.917   4.304
90812W        W63880   8.407   6.722   2.244
90813W        W63881   4.428   8.173  13.733
90814W        W63882  27.005  44.499  13.928
90815W        W63883  12.575  15.411  10.713
90816W        W63884  13.318  18.165   4.988
90817W        W63885  10.672  33.960   2.457
90818W        W63886   2.314  10.636   4.796
90819W        W63887   5.362  32.310   0.351
90820W        W63888  40.554   2.189  14.381
90821W        W63889  21.615  32.856   2.701
90822W        W63890  13.896  32.362   4.807
90823W        W63891   5.657  43.871   2.262
90824W        W63892  26.923  17.452  12.509
90825W        W63893  13.705   9.535   0.058
90826W        W63894  43.862  12.366   1.447
90827W        W63895   0.467  26.283  12.334
90828W        W63896   6.672  19.741   3.239
90829W        W63897  24.429  18.359  12.981
90830W        W63898  28.622  41.787  13.499
90831W        W63899  13.569  41.452   0.824
90832W        W63900  21.916  30.123  14.762
90833W        W63901   6.700  42.385   2.760
90834W        W63902  10.171  11.219  10.730
90835W        W63903  44.941  33.166  13.980
90836W        W63904  43.270   7.134  13.509
90837W        W63905  31.187  30.482   4.231
90838W        W63906  28.027  17.629  13.927
90839W        W63907   8.707  29.558  13.544
90840W        W63908  16.448  39.463  12.069
90841W        W63909   0.212  36.487   4.142
90842W        W63910   9.301   8.813  14.569
90843W        W63911   1.859  24.181   1.905
90844W        W63912  19.509  10.889   1.385
90845W        W63913   6.296   6.594  14.664
90846W        W63914  10.179   6.099  12.189
90847W        W63915  29.529  15.107  12.426
90848W        W63916  20.020  37.932  11.526
90849W        W63917  20.033   4.334  13.542
90850W        W63918   4.979   9.423  13.416
90851W        W63919  21.072  32.047   1.435
90852W        W63920  37.145  25.136  13.495
90853W        W63921  29.956  30.594   4.615
90854W        W63922  35.267  20.642  12.844
90855W        W63923   3.151  17.748   3.288
90856W        W63924   8.792  38.591   2.793
90857W        W63925   1.927  34.304   1.402
90858W        W63926  24.414  12.104  13.909
90859W        W63927  19.171   7.455  13.309
90860W        W63928  11.904  31.181   3.055
90861W        W63929  16.684   3.516   3.222
90862W        W63930  30.419  18.070   3.662
90863W        W63931  34.002  26.163  10.784
90864W        W63932  20.270  20.444   3.208
90865W        W63933  33.416  37.970   2.257
90866W        W63934  33.224  36.448   4.994
90867W        W63935  26.933  36.059  14.838
90868W        W63936  12.518  32.197   4.108
90869W        W63937  33.359  29.643  14.896
90870W        W63938  44.969  44.319  12.011
90871W        W63939  32.129   9.925   1.816
90872W        W63940  40.773  23.127   3.301
90873W        W63941  29.019   0.037   0.452
90874W        W63942  11.981  28.511   2.890
90875W        W63943  23.463   2.245  10.552
90876W        W63944   7.925  36.159  14.813
90877W        W63945  27.071  37.580   1.352
90878W        W63946  13.825  41.897   4.166
90879W        W63947  35.837   5.948  14.394
90880W        W63948  21.667   0.721  13.583
90881W        W63949   4.217  19.126  11.507
90882W        W63950  12.792  10.233  12.792
90883W        W63951  44.352   6.354  11.500
90884W        W63952  19.394   9.616  11.038
90885W        W63953  12.778  37.601   5.237
90886W        W63954  37.710   5.729   4.618
90887W        W63955  20.533  18.523  11.088
90888W        W63956   4.185  44.025  13.510
90889W        W63957  43.420  40.331   1.364
90890W        W63958  20.995  44.471   3.268
90891W        W63959   7.872  31.382  12.657
90892W        W63960   8.047  31.797   2.836
90893W        W63961  26.896  41.512  13.960
90894W        W63962  39.072  14.050  10.421
90895W        W63963  35.652  30.418  13.962
90896W        W63964  20.182  12.650  10.544
90897W        W63965  20.619  18.342   0.742
90898W        W63966  29.533  26.417  12.773
90899W        W63967  20.260  39.061  10.305
90900W        W63968   0.063  21.259   2.565
90901W        W63969   9.426   9.824  14.453
90902W        W63970   6.978  29.214   1.842
90903W        W63971  30.698  20.061  12.036
90904W        W63972  15.278  29.514  11.439
90905W        W63973  39.245   6.279  12.611
90906W        W63974  26.801  25.577  10.691
90907W        W63975  24.265  40.383  14.343
90908W        W63976  16.525  14.348   2.451
90909W        W63977  25.671  34.666  14.750
90910W        W63978  39.082  26.397   0.866
90911W        W63979  39.841   5.862  10.668
90912W        W63980  31.637  15.040  10.873
90913W        W63981  12.254  28.555   4.023
90914W        W63982  38.433  21.324  11.708
90915W        W63983   1.206  34.034  11.041
90916W        W63984  40.009  33.582   2.225
90917W        W63985  15.373  20.835   2.160
90918W        W63986  36.533  37.440   3.296
90919W        W63987  44.685   2.231  12.442
90920W        W63988   8.350  43.233   4.898
90921W        W63989   9.571   7.657  12.702
90922W        W63990   5.574  11.581  13.843
90923W        W63991  41.389  15.154  13.968
90924W        W63992  12.828  42.826   1.015
90925W        W63993   3.954   0.972   1.388
90926W        W63994  40.108  17.263   1.729
90927W        W63995  37.450  41.465  14.108
90928W        W63996   9.778  44.793   1.093
90929W        W63997  30.304  20.659  10.856
90930W        W63998   9.995   3.684   2.853
90931W        W63999  22.112  40.106  11.343
90932W        W64000  26.695  32.512   1.717
90933W        W64001  28.610  21.077   1.143
90934W        W64002  42.271  36.122  10.268
90935W        W64003  27.143  33.127   3.655
90936W        W64004  35.231  40.631   0.011
90937W        W64005  36.928  23.467   1.085
90938W        W64006  26.162  39.036  12.970
90939W        W64007   1.844  20.832  13.748
90940W        W64008  26.613  24.741  12.550
90941W        W64009  42.998  32.080  12.522
90942W        W64010  44.755  31.508   2.271
90943W        W64011   5.335  28.146  10.725
90944W        W64012  23.730  19.677  12.055
90945W        W64013  20.484  33.716  14.440
90946W        W64014  11.469  15.632  12.598
90947W        W64015   9.788  23.210   0.995
90948W        W64016   2.497  11.186  11.498
90949W        W64017  24.612  18.661   1.706
90950W        W64018  19.165  20.171  12.063
90951W        W64019  43.320  24.711  11.128
90952W        W64020  37.467   2.921  10.910
90953W        W64021   4.486  27.687  10.910
90954W        W64022   6.805  12.216  11.099
90955W        W64023  22.485  44.514   3.246
90956W        W64024  22.255  12.259   1.345
90957W        W64025  34.121  40.057  12.056
90958W        W64026  10.332   1.488  13.024
90959W        W64027  35.548  24.222   4.560
90960W        W64028  12.219  42.545   1.288
90961W        W64029  10.156  40.752  11.944
90962W        W64030  31.713  26.315  10.839
90963W        W64031  34.772  35.560   4.909
90964W        W64032   0.609  39.015   1.018
90965W        W64033  10.685  25.540   1.899
90966W        W64034  17.139  35.457   4.058
90967W        W64035  21.520  31.502  13.830
90968W        W64036  14.250   7.136   3.259
90969W        W64037   0.180  17.244  10.509
90970W        W64038  30.460  12.267  10.358
90971W        W64039   7.453  40.965  11.261
90972W        W64040  20.118  43.746   2.336
90973W        W64041  44.901  40.125   2.296
90974W        W64042  37.347  36.009   2.774
90975W        W64043  37.349  33.029   4.497
90976W        W64044  24.806   8.692   0.716
90977W        W64045  12.157  35.895  11.664
90978W        W64046  31.470   2.358  10.441
90979W        W64047   2.812  31.131  10.656
90980W        W64048   9.735  23.140  14.585
90981W        W64049  34.428  32.313  13.984
90982W        W64050  32.637  10.265  12.469
90983W        W64051  27.763  20.278   3.871
90984W        W64052   1.880  14.782   4.773
90985W        W64053  10.326   7.613  12.487
90986W        W64054  20.044  23.033   3.274
90987W        W64055   6.775   4.506  14.711
90988W        W64056   9.578  40.285  11.033
90989W        W64057  18.117  28.105   3.374
90990W        W64058   2.074  38.054  14.509
90991W        W64059  14.194  14.330  13.284
90992W        W64060  21.995  11.087  12.030
90993W        W64061   2.520   4.719  10.827
90994W        W64062  37.091   0.962   2.271
90995W        W64063  22.250  12.552  11.096
90996W        W64064  28.165  33.728  13.883
90997W        W64065   7.150  14.672   2.882
90998W        W64066  21.326  16.284   2.823
90999W        W64067  33.095   5.575   2.219
91000W        W64068  19.262  32.061  12.608
91001W        W64069  41.980   2.305  12.772
91002W        W64070  40.852  15.731  13.540
91003W        W64071  13.753  29.102   4.116
91004W        W64072  28.654  21.087   1.651
91005W        W64073  39.056  41.451   2.237
91006W        W64074  10.298   8.673   2.355
91007W        W64075  30.650  20.943   2.367
91008W        W64076  36.099  18.669  14.962
91009W        W64077   0.321  36.105   2.311
91010W        W64078  14.677  10.835   4.015
91011W        W64079   8.728  20.934   4.539
91012W        W64080  38.114   1.695  12.105
91013W        W64081   8.458   9.396   1.372
91014W        W64082  32.450  40.939   2.748
91015W        W64083  38.457   7.887   4.514
91016W        W64084  29.433   9.772  14.620
91017W        W64085   3.708  38.345   4.540
91018W        W64086  32.938   4.266  10.684
91019W        W64087  34.589  32.986  12.818
91020W        W64088  30.135  17.986   2.371
91021W        W64089  30.171  19.982  12.144
91022W        W64090  38.376  28.164  14.853
91023W        W64091   1.935  44.303  14.763
91024W        W64092  39.050   9.741   0.024
91025W        W64093  10.287  18.974   1.358
91026W        W64094   3.290  10.293  12.036
91027W        W64095   4.956  40.767  11.109
91028W        W64096  17.077  24.486  11.524
91029W        W64097   8.796  32.864  11.549
91030W        W64098  41.388  16.429  13.470
91031W        W64099  13.332  44.654   2.690
91032W        W64100  27.489  29.706  11.587
91033W        W64101  32.926   5.329   2.659
91034W        W64102  44.295  42.956   1.481
91035W        W64103  36.993  36.117   1.977
91036W        W64104  29.181  23.302  12.567
91037W        W64105  10.827  40.059  12.952
91038W        W64106   7.486  35.340   0.899
91039W        W64107   4.207  19.926  12.474
91040W        W64108  42.868   1.869   4.378
91041W        W64109  16.317  10.862  13.515
91042W        W64110  44.323   1.751  13.776
91043W        W64111  13.258  17.952   0.645
91044W        W64112  44.779  22.730   1.987
91045W        W64113  13.374  21.550   4.240
91046W        W64114  40.529   8.880  13.003
91047W        W64115  44.429  32.286   0.729
91048W        W64116  22.125  41.900  14.423
91049W        W64117   0.004   6.333  12.123
91050W        W64118   6.900   4.249   2.588
91051W        W64119  25.389  19.738   0.815
91052W        W64120  14.655   4.153  14.532
91053W        W64121   0.419  39.686  13.341
91054W        W64122  27.712  43.517  14.947
91055W        W64123   6.979  30.038   1.709
91056W        W64124  43.567  15.653   4.081
91057W        W64125  10.473  10.230   0.170
91058W        W64126  38.171  22.536  12.619
91059W        W64127  27.235  15.498   4.058
91060W        W64128  36.637  28.430  11.414
91061W        W64129  40.604   7.223   0.721
91062W        W64130   7.325   2.653  11.542
91063W        W64131   3.483  29.599   3.241
91064W        W64132  36.174  17.134  13.446
91065W        W64133   6.898  40.374   2.345
91066W        W64134  11.382  11.806  11.977
91067W        W64135  25.203  31.069  14.427
91068W        W64136  35.478  29.792   4.488
91069W        W64137  17.793  26.112  14.504
91070W        W64138  35.624  16.782  13.900
91071W        W64139  27.094  28.448  13.811
91072W        W64140  36.812  18.611  12.937
91073W        W64141  23.307  32.559  13.038
91074W        W64142   4.191  34.269   0.414
91075W        W64143  21.845  24.560  11.411
91076W        W64144  11.336  21.258  10.789
91077W        W64145   3.631  22.147   1.794
91078W        W64146  40.348  37.774   3.185
91079W        W64147  39.269  40.148  14.501
91080W        W64148  35.533   4.824  10.624
91081W        W64149  42.506  24.371   0.038
91082W        W64150   1.507  11.385  12.021
91083W        W64151  33.100  31.513   0.936
91084W        W64152  14.670  15.487   4.465
91085W        W64153  30.551  18.743  12.340
91086W        W64154  26.473  16.541  14.401
91087W        W64155  13.080   2.365  12.989
91088W        W64156  10.623  19.939  14.761
91089W        W64157  15.677   2.977   0.910
91090W        W64158  22.341  36.610  12.960
91091W        W64159  36.940   7.218   2.783
91092W        W64160  26.225  43.289  12.792
91093W        W64161   7.380   0.454   1.828
91094W        W64162  36.864  22.011  12.576
91095W        W64163   4.402  13.418   1.302
91096W        W64164  29.860  20.792  13.703
91097W        W64165  32.233  40.804   3.198
91098W        W64166  43.293  17.066  11.508
91099W        W64167  18.261   1.936  14.388
91100W        W64168  30.365  21.088  11.307
91101W        W64169  35.146   9.709  13.780
91102W        W64170  37.645   6.458  14.447
91103W        W64171  23.574  26.440   1.724
91104W        W64172  41.014  25.069   3.674
91105W        W64173  18.626  41.977   0.816
91106W        W64174   3.774   2.163   3.220
91107W        W64175  24.485  40.049   0.391
91108W        W64176  31.351  13.582  13.077
91109W        W64177  17.605  42.698  13.954
91110W        W64178  12.376  23.080  14.857
91111W        W64179  12.145  37.853   3.768
91112W        W64180  23.423  18.047  10.187
91113W        W64181  17.257  32.130  12.007
91114W        W64182  11.087  18.173  10.689
91115W        W64183  40.213  42.139  13.411
91116W        W64184  15.047  39.545  10.946
91117W        W64185   4.299  24.120   2.182
91118W        W64186   5.704  40.857  14.421
91119W        W64187   3.457  33.467  13.743
91120W        W64188   7.648   6.393  11.011
91121W        W64189  19.699  12.267  14.588
91122W        W64190  43.826  25.090   3.330
91123W        W64191  11.442  11.647  13.826
91124W        W64192   7.661   3.630   0.667
91125W        W64193  38.119  37.012  13.843
91126W        W64194   5.358  27.507   3.549
91127W        W64195  18.928  40.824  11.057
91128W        W64196  36.908  26.113  11.924
91129W        W64197  42.782  22.570  13.845
91130W        W64198   4.637  23.210  13.823
91131W        W64199  26.312  19.317  13.190
91132W        W64200  10.658  10.188  14.314
91133W        W64201   4.731  18.278  11.245
91134W        W64202   9.666  17.551  14.038
91135W        W64203   1.315  26.272  10.662
91136W        W64204   8.797   1.228   3.679
91137W        W64205  16.773  40.417   2.852
91138W        W64206  27.556  19.041  10.876
91139W        W64207  43.442  33.582   0.025
91140W        W64208  20.709  44.938   1.180
91141W        W64209  42.004  40.401  14.963
91142W        W64210   9.580  36.059   3.808
91143W        W64211  19.079  24.720   4.560
91144W        W64212  25.685  12.199  12.566
91145W        W64213  31.450  37.321   3.570
91146W        W64214   7.304   6.913   0.513
91147W        W64215   2.116  37.834  13.523
91148W        W64216  30.880  26.404  14.386
91149W        W64217  29.921  40.033  11.193
91150W        W64218  25.234  17.720   2.376
91151W        W64219   4.362  32.642   3.772
91152W        W64220  24.167  30.997  11.660
91153W        W64221  10.107  41.435  11.388
91154W        W64222   7.158   6.001  13.630
91155W        W64223  32.315  10.234  11.581
91156W        W64224  44.412  23.627   3.790
91157W        W64225  18.788  36.620   1.939
91158W        W64226  25.458  31.408  13.411
91159W        W64227  12.763  13.844   1.794
91160W        W64228   3.458  15.266   0.835
91161W        W64229  33.979  36.426   0.823
91162W        W64230  40.779  43.196  13.842
91163W        W64231  15.654  28.372   2.456
91164W        W64232  32.041  23.612   0.007
91165W        W64233  27.775  40.576   4.550
91166W        W64234  24.757  43.092  14.290
91167W        W64235  12.748  39.327   4.103
91168W        W64236   5.783  42.090   0.322
91169W        W64237  11.959  41.034   2.739
91170W        W64238  28.523  32.529   0.138
91171W        W64239  25.036  21.839   4.703
91172W        W64240  22.783   5.927   3.658
91173W        W64241   4.939  34.137   1.249
91174W        W64242   1.377  38.763  12.085
91175W        W64243  39.001  14.825   4.737
91176W        W64244  32.476   8.432  11.622
91177W        W64245  34.290  42.094  14.804
91178W        W64246  40.439  14.141  13.550
91179W        W64247   2.770  34.418  14.768
91180W        W64248   3.719  21.267  13.871
91181W        W64249  37.818  36.187   4.981
91182W        W64250  40.912  15.395  10.972
91183W        W64251  25.740   5.125  13.299
91184W        W64252   9.678  36.832  11.043
91185W        W64253  22.210  11.947   3.005
91186W        W64254  13.782  23.020  12.920
91187W        W64255  35.967  16.002  10.507
91188W        W64256  18.218  19.434   1.821
91189W        W64257   1.205  27.473  11.114
91190W        W64258  25.525  11.689  14.826
91191W        W64259  17.861  20.173   4.132
91192W        W64260  21.687  43.894   3.144
91193W        W64261   3.925  24.501  11.578
91194W        W64262  18.234  25.184  12.576
91195W        W64263  27.019   9.458  13.932
91196W        W64264  22.899   8.797  11.968
91197W        W64265  13.480  16.475  10.630
91198W        W64266   3.355  26.603  12.875
91199W        W64267  25.543  26.216   1.282
91200W        W64268   1.709   0.305   1.307
91201W        W64269  12.825  11.649  11.827
91202W        W64270  33.266  31.068   2.238
91203W        W64271  26.420  39.111  14.781
91204W        W64272   9.490  33.661   2.795
91205W        W64273   1.246  37.775  12.006
91206W        W64274  44.993  33.401   2.399
91207W        W64275  16.781  40.880   1.695
91208W        W64276   1.940   9.610  14.349
91209W        W64277   3.747  15.629  13.136
91210W        W64278  29.175   1.949   4.556
91211W        W64279  34.961  37.894  13.414
91212W        W64280   2.399  39.641  12.366
91213W        W64281  33.379  32.095   3.218
91214W        W64282  15.280  15.268   0.321
91215W        W64283  16.633  36.960  14.427
91216W        W64284   3.034  16.749   1.775
91217W        W64285  21.435  26.473   4.065
91218W        W64286   5.924  25.727  14.313
91219W        W64287   8.187  11.228   4.626
91220W        W64288   9.242  40.548  13.933
91221W        W64289   9.392   1.809  12.134
91222W        W64290   2.684  12.300   0.060
91223W        W64291   5.303  43.291   3.134
91224W        W64292  28.199  18.325   4.179
91225W        W64293  29.935   7.810  10.604
91226W        W64294  33.941  27.280   4.436
91227W        W64295  44.059  28.477   0.763
91228W        W64296  26.177  26.421  12.977
91229W        W64297  40.858   9.681   3.389
91230W        W64298  40.041   7.748   3.778
91231W        W64299  12.565  41.823  14.094
91232W        W64300   8.384  44.338   4.204
91233W        W64301  36.104   6.812  12.461
91234W        W64302  29.384  43.067   1.431
91235W        W64303  27.266  12.189   3.619
91236W        W64304  27.456  42.078  12.923
91237W        W64305  40.745  35.993  14.775
91238W        W64306  16.332   1.433   0.284
91239W        W64307  16.174  33.149  12.224
91240W        W64308   3.352  13.905   3.225
91241W        W64309  12.960  19.610  10.917
91242W        W64310   4.537  43.168  12.067
91243W        W64311  37.393   3.172   1.251
91244W        W64312  27.968  21.528  11.535
91245W        W64313  27.664   9.142  11.953
91246W        W64314  35.510  32.434   2.995
91247W        W64315  16.673   0.119   0.679
91248W        W64316  12.883  12.117  13.481
91249W        W64317  34.683  12.729   2.325
91250W        W64318   0.536  41.300   1.950
91251W        W64319  36.591   1.394  13.293
91252W        W64320  30.159  37.831   2.418
91253W        W64321  34.568  24.088   1.007
91254W        W64322  12.223   7.422  10.432
91255W        W64323   1.476   9.711  12.458
91256W        W64324  36.785   1.791  14.620
91257W        W64325   1.342  34.290  14.830
91258W        W64326  21.217  39.881  13.426
91259W        W64327  28.437  36.879  14.606
91260W        W64328   3.353  12.892   3.338
91261W        W64329   6.176   5.460   1.630
91262W        W64330  39.979   2.232   1.427
91263W        W64331  23.023  22.244  11.618
91264W        W64332   7.758  40.118   0.796
91265W        W64333   5.674  44.284   0.264
91266W        W64334   2.836  35.589   3.803
91267W        W64335  21.787  14.770   1.263
91268W        W64336  18.316  29.563  14.348
91269W        W64337  21.815  29.460  14.014
91270W        W64338  25.625  13.082   3.208
91271W        W64339  22.532  37.372   1.705
91272W        W64340  39.873   2.997   2.732
91273W        W64341  13.420  14.631   1.201
91274W        W64342  36.004   9.403   2.248
91275W        W64343  35.281  25.809   1.027
91276W        W64344   7.900  31.438   3.677
91277W        W64345   6.323  21.043   3.172
91278W        W64346  23.729  19.283   3.264
91279W        W64347   9.853   2.760   2.209
91280W        W64348  23.633  30.420   4.590
91281W        W64349   7.309  25.113   0.392
91282W        W64350   2.412  29.530  14.798
91283W        W64351  10.639  19.641   4.859
91284W        W64352  26.950  30.317   4.254
91285W        W64353  14.197  44.251  12.605
91286W        W64354  29.098   3.960  12.472
91287W        W64355  24.457  19.288  13.931
91288W        W64356  28.942  35.449   3.166
91289W        W64357   5.040  24.539   4.577
91290W        W64358   0.956  37.375  14.439
91291W        W64359  15.577   5.649  10.404
91292W        W64360  33.768  20.658  13.026
91293W        W64361  13.945  27.053   1.374
91294W        W64362  14.316  39.042  13.909
91295W        W64363  42.974  13.597  14.921
91296W        W64364  33.718   6.698   2.178
91297W        W64365  25.982   7.413   4.196
91298W        W64366  10.528  21.076   5.025
91299W        W64367  34.873  23.499  12.434
91300W        W64368  32.670   8.409  12.496
91301W        W64369  20.448  35.379  12.236
91302W        W64370   0.873  32.059  14.329
91303W        W64371  39.435   3.891   4.594
91304W        W64372   9.210  29.392   4.158
91305W        W64373  29.857   2.734  13.287
91306W        W64374  16.248  44.921   1.334
91307W        W64375  28.437  18.824   4.304
91308W        W64376  44.920   2.799   1.016
91309W        W64377  13.338  20.944   1.795
91310W        W64378  38.370  43.181  12.230
91311W        W64379  15.093  41.742   0.312
91312W        W64380  41.249  13.764  13.472
91313W        W64381   2.442  32.332   1.347
91314W        W64382   6.714  27.349  14.911
91315W        W64383  20.604   4.347   4.534
91316W        W64384  31.042  23.126   3.136
91317W        W64385  42.467   9.206  13.065
91318W        W64386   8.809  30.096  14.242
91319W        W64387  10.238  32.053   4.604
91320W        W64388  24.679   9.115   0.410
91321W        W64389  33.848  39.567  12.114
91322W        W64390  40.293   5.651  11.559
91323W        W64391  27.188  22.562   2.131
91324W        W64392  27.537  42.594   4.479
91325W        W64393  36.471   1.200   2.292
91326W        W64394   1.759   3.409   1.898
91327W        W64395   7.383  36.735   4.690
91328W        W64396  40.135  24.954  10.732
91329W        W64397  44.338   6.926  10.678
91330W        W64398  26.497  14.966  10.681
91331W        W64399  10.316  26.982   0.443
91332W        W64400  29.552  17.830  13.362
91333W        W64401  39.572  35.069  11.245
91334W        W64402  14.462   2.469  12.073
91335W        W64403   5.899   6.353   3.438
91336W        W64404   5.535  23.765   2.643
91337W        W64405  23.149  28.145   0.071
91338W        W64406  30.154  15.116   1.796
91339W        W64407  44.339  30.893  13.864
91340W        W64408   7.750  10.850   3.618
91341W        W64409  12.503   1.023  14.999
91342W        W64410   7.915  14.837   4.080
91343W        W64411  44.148  42.693  13.883
91344W        W64412  23.610  13.776  10.716
91345W        W64413  39.841  10.708   3.674
91346W        W64414  13.299  38.875  12.339
91347W        W64415  30.756  10.382   4.173
91348W        W64416  42.759   1.962  10.653
91349W        W64417   1.435  13.207  12.239
91350W        W64418  44.670  10.569   5.055
91351W        W64419  31.213  19.091   0.196
91352W        W64420  12.545   9.629   4.542
91353W        W64421   7.889  22.469  12.028
91354W        W64422  34.768  24.135  12.962
91355W        W64423  16.118  27.248  11.624
91356W        W64424  27.000  18.558   2.828
91357W        W64425  40.581   3.825  12.701
91358W        W64426  40.104  25.435   2.679
91359W        W64427   7.090  38.775  13.121
91360W        W64428  25.084  34.512  12.124
91361W        W64429  24.115  36.289  13.436
91362W        W64430  11.742  13.084   1.263
91363W        W64431  14.848   3.230  12.409
91364W        W64432  21.558  29.309  10.496
91365W        W64433  18.718  15.654   0.074
91366W        W64434  21.292   0.954  14.379
91367W        W64435  17.633  26.032  12.478
91368W        W64436  32.833  13.787  11.301
91369W        W64437  21.086  14.050   2.262
91370W        W64438  12.182  29.458   4.158
91371W        W64439   0.446  43.899   1.397
91372W        W64440  23.996   4.317  11.926
91373W        W64441  34.840   1.561   2.691
91374W        W64442   8.193   6.399  14.088
91375W        W64443  43.469   9.344   2.207
91376W        W64444  41.323   0.418   0.967
91377W        W64445  24.971  11.707  14.458
91378W        W64446  17.630  23.639  11.532
91379W        W64447   3.554  20.581  12.663
91380W        W64448  28.713  33.041   0.410
91381W        W64449  27.251   8.843   4.607
91382W        W64450  19.460  17.311  12.078
91383W        W64451  26.549  22.956  14.525
91384W        W64452  18.796  20.821   1.935
91385W        W64453  27.746   9.170   1.932
91386W        W64454  13.225  19.115  10.248
91387W        W64455  27.208   0.763  13.503
91388W        W64456  24.661  27.745   0.019
91389W        W64457   9.011  39.031   1.686
91390W        W64458  16.156  40.305  13.904
91391W        W64459   1.864  23.936   2.382
91392W        W64460  22.121   8.418  12.677
91393W        W64461  40.795  22.219   3.716
91394W        W64462  34.345  37.986   1.808
91395W        W64463   2.057  25.585  12.594
91396W        W64464   6.894   5.345   4.592
91397W        W64465  18.828  43.278   1.682
91398W        W64466  40.768  41.290   2.718
91399W        W64467  43.767  29.001   3.318
91400W        W64468  23.056  26.055  10.722
91401W        W64469   4.106  21.896  11.854
91402W        W64470  36.763  34.086  13.510
91403W        W64471   4.313   1.236   3.107
91404W        W64472   6.346  24.578  12.880
91405W        W64473  34.139  41.088   0.846
91406W        W64474   4.869   6.612  14.492
91407W        W64475  14.063   0.937   2.810
91408W        W64476   4.980  38.159   2.832
91409W        W64477   7.952  13.475   1.229
91410W        W64478  34.216  40.479  14.388
91411W        W64479   0.986  26.217   2.697
91412W        W64480  34.349  41.626   0.042
91413W        W64481  38.834  26.797  11.898
91414W        W64482  24.545  22.071  10.799
91415W        W64483  42.541  18.909   4.330
91416W        W64484   6.353  13.530  11.140
91417W        W64485  44.255  29.026   4.254
91418W        W64486  26.158  12.773   4.665
91419W        W64487  31.620  37.300  10.994
91420W        W64488  19.492  36.034  12.542
91421W        W64489   3.793  33.797  11.560
91422W        W64490  19.278  44.846   2.272
91423W        W64491  22.692  40.326  13.004
91424W        W64492  32.497  30.835  12.021
91425W        W64493  12.882  40.574  14.866
91426W        W64494  17.662  40.488  13.839
91427W        W64495   7.657  12.525  11.900
91428W        W64496  16.828   1.895  11.263
91429W        W64497  21.120  18.759   3.614
91430W        W64498  25.696  39.021   2.442
91431W        W64499  37.162  35.969  13.294
91432W        W64500  32.837   9.971   0.050
91433W        W64501  24.295  35.479   0.224
91434W        W64502   4.439  34.699  11.762
91435W        W64503  21.896  36.895  12.063
91436W        W64504  44.263  12.458   3.580
91437W        W64505  15.364   9.840   1.805
91438W        W64506   0.270  21.673  11.976
91439W        W64507  44.598  43.968   0.288
91440W        W64508  22.793  20.212   2.251
91441W        W64509  23.582  43.416   4.538
91442W        W64510  14.881  11.795  11.693
91443W        W64511  30.940  26.182   0.945
91444W        W64512   4.349   5.919  13.260
91445W        W64513  30.436  33.688   4.539
91446W        W64514  20.657   7.924   0.336
91447W        W64515  10.335  17.290   0.254
91448W        W64516  16.144  10.348   4.120
91449W        W64517   3.855  37.983  14.011
91450W        W64518  35.456  27.445  13.438
91451W        W64519  13.079  19.067  11.103
91452W        W64520  18.041  22.456   0.408
91453W        W64521  22.693  13.187   3.879
91454W        W64522   2.066  25.484  13.824
91455W        W64523   4.834  19.047  14.293
91456W        W64524  44.199   4.472   1.966
91457W        W64525   5.193  24.688   0.788
91458W        W64526  14.289  21.439  12.612
91459W        W64527   8.823  36.455   4.615
91460W        W64528  26.743  30.954   0.702
91461W        W64529  16.126  31.184   4.639
91462W        W64530  34.620  30.353   2.042
91463W        W64531  31.014  11.455   0.296
91464W        W64532  33.635  12.413   3.250
91465W        W64533   6.435  42.955   0.372
91466W        W64534  39.582   9.938   1.872
91467W        W64535   9.607  21.111  12.488
91468W        W64536  11.666  32.405   1.768
91469W        W64537  39.403  28.203   2.825
91470W        W64538  30.112  44.279   0.308
91471W        W64539   6.785  21.074  13.932
91472W        W64540  12.341  13.406  12.448
91473W        W64541   8.167   0.320  10.931
91474W        W64542  41.016  43.377  11.567
91475W        W64543  10.182  11.454   4.546
91476W        W64544   5.876  34.346  14.848
91477W        W64545  12.764  22.580  14.363
91478W        W64546  42.811  12.320   2.642
91479W        W64547   6.734  19.323   0.355
91480W        W64548   2.972   4.616   0.397
91481W        W64549  29.933   7.388  11.287
91482W        W64550   6.344   2.473   2.273
91483W        W64551  22.625  23.291   1.787
91484W        W64552   2.013  39.309  12.430
91485W        W64553  25.659  38.204   0.911
91486W        W64554  10.383   5.788  11.844
91487W        W64555  35.898  26.044   1.730
91488W        W64556  12.222  39.483   1.334
91489W        W64557  39.912  38.352  12.458
91490W        W64558  21.250   4.133   4.141
91491W        W64559  32.420  38.786   1.831
91492W        W64560   8.245  33.486   1.521
91493W        W64561  39.348   6.504   2.192
91494W        W64562  42.994   0.038  11.606
91495W        W64563  31.291  31.715   5.173
91496W        W64564  42.223  33.865  13.180
91497W        W64565  18.960  22.500  10.817
91498W        W64566  15.934  20.726   2.753
91499W        W64567  34.493   7.272  14.587
91500W        W64568   4.233  19.124   3.957
91501W        W64569  41.071  42.506   3.886
91502W        W64570  26.681  12.759   4.595
91503W        W64571  26.106  19.033  10.605
91504W        W64572   3.925  39.951  13.922
91505W        W64573  13.574  17.757   2.638
91506W        W64574  15.422  42.860  10.725
91507W        W64575  42.804  15.719   4.943
91508W        W64576  27.928  40.401   3.610
91509W        W64577  34.760  23.250   2.403
91510W        W64578  26.577  22.579   0.832
91511W        W64579  39.774  30.987  14.206
91512W        W64580  21.627  18.270   2.202
91513W        W64581  25.847  41.848   4.645
91514W        W64582  39.855  16.880   1.468
91515W        W64583  29.809  21.139   5.097
91516W        W64584  44.495   0.268   0.742
91517W        W64585   5.882   8.164  12.883
91518W        W64586  44.989  23.248  11.160
91519W        W64587   4.314  14.660  10.980
91520W        W64588  30.025   4.457  13.897
91521W        W64589  44.031  29.515   2.210
91522W        W64590  41.373  24.954   2.278
91523W        W64591  15.495  23.999   4.204
91524W        W64592  14.746  28.181   2.713
91525W        W64593   8.816  18.820   3.072
91526W        W64594  34.573   0.834   4.204
91527W        W64595   4.208   3.314   2.803
91528W        W64596  31.931  11.126  14.407
91529W        W64597  21.445   4.028  11.564
91530W        W64598  23.920  17.359   1.403
91531W        W64599   5.671  34.983  13.565
91532W        W64600  34.947   8.337  14.509
91533W        W64601  22.228  41.580   3.337
91534W        W64602   4.801  11.692  13.394
91535W        W64603  30.358   1.018  14.498
91536W        W64604  23.765  16.563  11.018
91537W        W64605   9.235  23.940   0.486
91538W        W64606  25.744  24.663   3.511
91539W        W64607  18.980  26.450  12.401
91540W        W64608  26.939  36.488   2.212
91541W        W64609   5.771   3.421  13.422
91542W        W64610  19.517   9.797   4.186
91543W        W64611  21.866   1.398   5.598
91544W        W64612  31.102  30.552   1.182
91545W        W64613   2.355  29.308   2.310
91546W        W64614  28.090  28.741   4.848
91547W        W64615  41.031  40.100  13.549
91548W        W64616  30.017   9.423   2.667
91549W        W64617   9.748  33.362   3.156
91550W        W64618  39.832   1.278  13.938
91551W        W64619  42.720  23.649   2.967
91552W        W64620  30.993  36.130  14.398
91553W        W64621  21.718   0.952  12.560
91554W        W64622  20.363  43.536   1.898
91555W        W64623  37.062   3.167   4.677
91556W        W64624  15.183  29.425  14.963
91557W        W64625   4.512   4.263   3.653
91558W        W64626  32.159  35.048  15.000
91559W        W64627  16.855  44.291   2.557
91560W        W64628  31.921  36.815   2.174
91561W        W64629  36.474  41.810   0.395
91562W        W64630  39.966  31.487   3.683
91563W        W64631  44.931  15.172  11.148
91564W        W64632  30.993  29.053   1.249
91565W        W64633  20.015  30.609  13.626
91566W        W64634  44.275  20.761   2.637
91567W        W64635  44.058  32.864   4.142
91568W        W64636  44.843  43.098   0.297
91569W        W64637  32.366  22.491  11.476
91570W        W64638   8.637  38.261   3.768
91571W        W64639  44.781   6.457   0.225
91572W        W64640  31.999  33.378  14.858
91573W        W64641  43.401  14.814   3.612
91574W        W64642  21.032  10.787   4.155
91575W        W64643   3.385  27.504  12.679
91576W        W64644   5.186  14.645   4.533
91577W        W64645  34.843  15.221  10.685
91578W        W64646  31.174  37.253   5.108
91579W        W64647  43.779  23.107   0.900
91580W        W64648   4.975  40.240   0.043
91581W        W64649   9.868  19.383   4.635
91582W        W64650  22.079  32.768  13.065
91583W        W64651  19.072  36.918   3.249
91584W        W64652   9.231  38.572  14.876
91585W        W64653  27.849  25.540   4.874
91586W        W64654  39.891  25.618  11.686
91587W        W64655  11.811   9.726  11.492
91588W        W64656   3.314  23.463  12.981
91589W        W64657  27.455  40.224   3.656
91590W        W64658   8.746  43.553   4.849
91591W        W64659  25.570  11.854   9.706
91592W        W64660  17.606  21.689   0.669
91593W        W64661   0.065  20.677  11.874
91594W        W64662   2.773  16.355  14.507
91595W        W64663   2.470  13.319  13.821
91596W        W64664  21.623  21.963   0.302
91597W        W64665  13.905  14.326   2.195
91598W        W64666  22.700   0.847   0.830
91599W        W64667  24.757  26.521  11.498
91600W        W64668   3.827  25.979   4.304
91601W        W64669  43.109  36.391   1.869
91602W        W64670  27.013   3.778  11.157
91603W        W64671  43.702  21.026   4.344
91604W        W64672  32.112  32.307   1.309
91605W        W64673  22.648  30.481  10.741
91606W        W64674  28.587  42.989   3.150
91607W        W64675  28.572   9.633   2.368
91608W        W64676  35.497   3.221  10.781
91609W        W64677  33.114  10.426   0.170
91610W        W64678  39.135  20.224   3.345
91611W        W64679   8.364  37.479   1.184
91612W        W64680  13.066  16.781  12.599
91613W        W64681  14.062  11.930   3.865
91614W        W64682  15.538  16.268   4.288
91615W        W64683  21.436  29.293  14.446
91616W        W64684  44.048   0.762   2.879
91617W        W64685  21.121  17.717   4.656
91618W        W64686  11.769  17.659   2.454
91619W        W64687   6.825  20.601  12.516
91620W        W64688  39.265   4.393  14.553
91621W        W64689   0.264  37.848   1.565
91622W        W64690  22.705  22.283   1.942
91623W        W64691   8.253  20.034  12.669
91624W        W64692  25.606   0.530   0.719
91625W        W64693  42.088   3.473   2.485
91626W        W64694  19.747   8.382   3.302
91627W        W64695  36.371  42.930  14.454
91628W        W64696   3.756  21.587  12.998
91629W        W64697  31.228  16.750   1.284
91630W        W64698  18.424  39.416  10.377
91631W        W64699   6.840  18.155  13.905
91632W        W64700  23.685  18.799  13.750
91633W        W64701   3.822  32.070  13.751
91634W        W64702   0.465  20.685   4.853
91635W        W64703  11.762  19.621   2.664
91636W        W64704  21.107  37.377   1.401
91637W        W64705   1.849  31.605   1.022
91638W        W64706   0.415  11.631   4.481
91639W        W64707  40.300  42.275   4.289
91640W        W64708  44.224  41.889   3.275
91641W        W64709  14.356  36.556   2.448
91642W        W64710  38.842  36.659  11.999
91643W        W64711  25.797  41.888  13.824
91644W        W64712  32.376  12.900  11.168
91645W        W64713  38.791   9.133  11.106
91646W        W64714  36.085  27.772  12.455
91647W        W64715  37.799   1.370  13.897
91648W        W64716  40.471   3.324   4.505
91649W        W64717  30.742  26.870   2.622
91650W        W64718  43.513  14.262   1.721
91651W        W64719  40.595  11.125   1.723
91652W        W64720  35.980   1.208   0.342
91653W        W64721  37.269   4.264   1.777
91654W        W64722  36.922   2.997   1.110
91655W        W64723   4.988  35.414   0.888
91656W        W64724  28.700  23.310   1.336
91657W        W64725   0.744  40.074   4.997
91658W        W64726  18.144  44.742   2.440
91659W        W64727  31.240  21.285  14.057
91660W        W64728  37.048   0.406   0.020
91661W        W64729  27.084  37.180   2.776
91662W        W64730  35.427  30.980  11.841
91663W        W64731   1.748   2.406   4.063
91664W        W64732  16.631  42.807  11.022
91665W        W64733  22.532   6.895   0.745
91666W        W64734  28.309  10.865  10.601
91667W        W64735  41.442  43.851   4.430
91668W        W64736  12.747  39.839   2.718
91669W        W64737  14.934  44.787  13.507
91670W        W64738   4.316  23.395  12.041
91671W        W64739  15.861  38.021  11.207
91672W        W64740  36.865  12.204   3.744
91673W        W64741   1.273   4.676   3.194
91674W        W64742  24.456  25.546  12.255
91675W        W64743  37.604  31.624  12.331
91676W        W64744  44.252  17.300   1.936
91677W        W64745   7.335   6.349   3.890
91678W        W64746   6.798   1.220   2.927
91679W        W64747  13.432  22.996  13.294
91680W        W64748  39.502   8.678  12.360
91681W        W64749  43.884   8.729   3.197
91682W        W64750  23.939  13.082   3.178
91683W        W64751  22.985  28.610  14.802
91684W        W64752  35.463   9.224   3.912
91685W        W64753  32.987  23.139  11.302
91686W        W64754  10.460  29.012   1.545
91687W        W64755  12.184  34.969   2.191
91688W        W64756  34.457  16.812   1.012
91689W        W64757  13.216   1.332   4.072
91690W        W64758  11.174  37.703  12.197
91691W        W64759  38.465  21.091   3.739
91692W        W64760  38.497  38.988   2.242
91693W        W64761  14.829  22.909   1.171
91694W        W64762  13.070  26.687   1.712
91695W        W64763  34.155  23.100  12.806
91696W        W64764  35.497  27.494   2.139
91697W        W64765  37.108  17.126  12.889
91698W        W64766  40.047  43.761   2.298
91699W        W64767  42.250  22.278  12.494
91700W        W64768   8.632  21.324  12.565
91701W        W64769   3.874  40.944  12.112
91702W        W64770   1.241   9.886  13.874
91703W        W64771  17.348  29.800   0.924
91704W        W64772  36.857  14.248  14.246
91705W        W64773  34.996  36.331   0.214
91706W        W64774  13.014  17.705   0.257
91707W        W64775   1.708   6.677   3.218
91708W        W64776   9.722  42.301  11.993
91709W        W64777  10.710  40.664   4.275
91710W        W64778  28.035  23.986   2.424
91711W        W64779  41.245  38.960   4.502
91712W        W64780   6.835  38.336  11.570
91713W        W64781  44.052  18.544   1.260
91714W        W64782  32.911   6.631   1.309
91715W        W64783  10.623  11.283  13.836
91716W        W64784  36.498  19.254   3.980
91717W        W64785  32.014  19.088   0.595
91718W        W64786  28.342  15.739  12.125
91719W        W64787  21.747  17.883  12.642
91720W        W64788  16.313  38.129  14.314
91721W        W64789  22.566  37.074  13.050
91722W        W64790  11.730  17.672   3.856
91723W        W64791  11.848  23.551   5.081
91724W        W64792  18.177   4.180  12.242
91725W        W64793  41.521  29.673   0.382
91726W        W64794  29.728  44.447  12.031
91727W        W64795  41.341  34.881  13.140
91728W        W64796   3.950  38.263  12.790
91729W        W64797  25.653  40.593   4.545
91730W        W64798   2.379  30.582  14.772
91731W        W64799  10.120  18.073   2.336
91732W        W64800   0.252  19.323  14.900
91733W        W64801  38.495  14.487   3.586
91734W        W64802  33.600  34.732   3.237
91735W        W64803  32.784  11.330  10.898
91736W        W64804  23.558  20.149  11.741
91737W        W64805  11.167  35.057   4.529
91738W        W64806  36.904  26.604  14.521
91739W        W64807  28.851  36.961   4.097
91740W        W64808  19.058  39.862   1.370
91741W        W64809   9.749  33.672  11.898
91742W        W64810   6.781   3.559   4.533
91743W        W64811  36.260   0.408  12.957
91744W        W64812   3.053  42.097   4.236
91745W        W64813  27.978  28.045  13.505
91746W        W64814   5.465  14.756   3.719
91747W        W64815  25.483  29.306  14.525
91748W        W64816  15.204   9.164   3.865
91749W        W64817  22.447  26.633   4.091
91750W        W64818  41.848  18.772   2.158
91751W        W64819  23.080   2.018  11.156
91752W        W64820  34.756  19.616   4.575
91753W        W64821   0.870  41.653   3.261
91754W        W64822  38.400  39.892  10.959
91755W        W64823  35.811  41.164  13.800
91756W        W64824   6.962  25.054  13.370
91757W        W64825  25.705  10.437   1.656
91758W        W64826   3.070   6.052   1.477
91759W        W64827   4.603  21.025  10.624
91760W        W64828  13.070   4.303   3.690
91761W        W64829  19.665  14.383   0.514
91762W        W64830  28.433  27.663   0.876
91763W        W64831   9.830  11.895  11.045
91764W        W64832  15.816   8.340   3.697
91765W        W64833  20.664  22.411   2.353
91766W        W64834   5.185   6.364  12.424
91767W        W64835   0.410  37.640  11.855
91768W        W64836  20.263   3.507  11.236
91769W        W64837   5.826  43.874   3.613
91770W        W64838   0.579  30.627  11.148
91771W        W64839  44.276  30.588  11.612
91772W        W64840  38.953  18.758  13.411
91773W        W64841  30.987  34.599  11.111
91774W        W64842  18.484  44.518  13.409
91775W        W64843  39.936  30.122   4.556
91776W        W64844   0.172  14.735  11.648
91777W        W64845  27.754  42.430   3.238
91778W        W64846  24.560  37.079  14.900
91779W        W64847  13.414  21.694  14.217
91780W        W64848   5.381   4.888  12.352
91781W        W64849  33.020  39.758   2.303
91782W        W64850  26.925  40.624  14.549
91783W        W64851  37.301  10.283  13.129
91784W        W64852   2.461  32.563  10.381
91785W        W64853  12.277  26.960   2.275
91786W        W64854  25.177  25.699   3.319
91787W        W64855   0.111  29.446  12.646
91788W        W64856   9.412  37.555  12.509
91789W        W64857  25.132  39.861   1.747
91790W        W64858  13.111  17.034   0.823
91791W        W64859  38.339  11.149  13.941
91792W        W64860  42.071  18.005  11.955
91793W        W64861  20.745  40.788  13.894
91794W        W64862  41.931  32.036  12.559
91795W        W64863  12.945  36.511   2.717
91796W        W64864  25.252  33.397   4.908
91797W        W64865  40.332   8.647  10.663
91798W        W64866   6.772  11.682   4.119
91799W        W64867   0.976   1.102   2.600
91800W        W64868  13.456  22.684   4.240
91801W        W64869  12.120  41.277  13.580
91802W        W64870  16.081  39.009   0.456
91803W        W64871  25.804  11.757  10.154
91804W        W64872  10.278  19.376   9.885
91805W        W64873  39.114  22.112   3.258
91806W        W64874  37.828   2.883   2.150
91807W        W64875  13.093  11.321   2.754
91808W        W64876  25.441  30.609  14.319
91809W        W64877  27.546  11.571  11.953
91810W        W64878  41.015  28.097  11.448
91811W        W64879  29.487  39.584   4.430
91812W        W64880  34.349  10.157  14.780
91813W        W64881  44.425  40.877   1.983
91814W        W64882  26.351   0.869  12.398
91815W        W64883  21.751  12.170   3.309
91816W        W64884  14.263  42.375   3.328
91817W        W64885  31.932  27.887   4.645
91818W        W64886  23.452  24.966  13.940
91819W        W64887   3.986   6.696  11.010
91820W        W64888  24.189  20.991  12.863
91821W        W64889  23.234  33.906   3.746
91822W        W64890  17.122  43.798   3.821
91823W        W64891  35.029  30.490  13.400
91824W        W64892  34.129  30.199  12.006
91825W        W64893  25.226  19.327   1.746
91826W        W64894  38.060  12.457  14.966
91827W        W64895  30.724  35.838   2.337
91828W        W64896  25.001  40.390   5.007
91829W        W64897  36.071  24.854   3.636
91830W        W64898  15.195  12.593   3.104
91831W        W64899  44.493  36.541  10.227
91832W        W64900   9.965  41.871  10.193
91833W        W64901  31.539  29.245  13.399
91834W        W64902   4.182   6.592  14.015
91835W        W64903   4.222   5.697   3.719
91836W        W64904  42.834  37.238   2.733
91837W        W64905  18.773  20.273   0.214
91838W        W64906  28.513  32.008  10.647
91839W        W64907  42.575   1.052  14.459
91840W        W64908  40.987   8.605  12.930
91841W        W64909  28.834  40.930  12.019
91842W        W64910  25.137  22.092  13.279
91843W        W64911  19.797  12.871   0.244
91844W        W64912  20.958  26.216  14.455
91845W        W64913  19.956  33.855   1.810
91846W        W64914  35.492  12.589   4.578
91847W        W64915  42.576  34.566   3.743
91848W        W64916   6.019   8.620  11.142
91849W        W64917  27.425  27.765   3.681
91850W        W64918  22.922   5.950   2.295
91851W        W64919  27.425  41.834   2.780
91852W        W64920  36.517  30.884   3.142
91853W        W64921  24.905   5.494  10.970
91854W        W64922  24.987  16.691   3.359
91855W        W64923  18.588  18.213   1.493
91856W        W64924  22.072  14.320   2.591
91857W        W64925  37.237  33.622  10.702
91858W        W64926   6.733   3.273  12.075
91859W        W64927  34.147   7.061   2.670
91860W        W64928  19.062  28.479  11.969
91861W        W64929  31.601   0.389   1.737
91862W        W64930  40.141  20.125   2.153
91863W        W64931  23.536   1.207  13.373
91864W        W64932  26.821  16.095   2.931
91865W        W64933  23.933  37.876  10.720
91866W        W64934  35.073  12.153  13.935
91867W        W64935  31.944   4.674   1.899
91868W        W64936  40.047  22.089   3.238
91869W        W64937  40.460   7.786   9.515
91870W        W64938  15.228  15.451  11.337
91871W        W64939  18.888   0.903   3.035
91872W        W64940  44.566  21.223   2.688
91873W        W64941  44.284  15.852   3.378
91874W        W64942   5.561  41.760   1.520
91875W        W64943  25.917  32.641  12.244
91876W        W64944  10.753  18.008   1.714
91877W        W64945  38.965  19.615  11.197
91878W        W64946  43.563  27.244  13.997
91879W        W64947  28.015  30.464   1.699
91880W        W64948  28.939  42.996   0.191
91881W        W64949  20.559  28.399   1.176
91882W        W64950  26.054  12.463  10.291
91883W        W64951  31.429   4.204  13.467
91884W        W64952   6.654  28.697  13.670
91885W        W64953  23.510  29.122   4.087
91886W        W64954  22.850  13.318  10.800
91887W        W64955   3.318  24.428   1.313
91888W        W64956  16.881   2.857  14.993
91889W        W64957  39.728  13.239   2.147
91890W        W64958  12.774  38.973   0.729
91891W        W64959  44.519  35.567  12.431
91892W        W64960  29.281   3.461   3.824
91893W        W64961  27.485   9.837  10.732
91894W        W64962  26.363  39.544   4.255
91895W        W64963  30.120  29.412   2.816
91896W        W64964  42.246  11.659   4.015
91897W        W64965   4.963  10.540   4.905
91898W        W64966  44.919  38.785  11.209
91899W        W64967  11.317  15.317  12.203
91900W        W64968  32.174  18.152  11.614
91901W        W64969  21.298  32.162  10.772
91902W        W64970   7.949  34.098  11.917
91903W        W64971  11.980   3.368  14.293
91904W        W64972   4.417   3.915   1.903
91905W        W64973  21.239   2.241  14.816
91906W        W64974  20.560  25.769  12.089
91907W        W64975   4.252  27.442  12.472
91908W        W64976  31.407  18.355   0.413
91909W        W64977  43.377  34.196  10.314
91910W        W64978   7.400  15.006   2.110
91911W        W64979  30.161   4.036   3.159
91912W        W64980   7.872   9.960  13.967
91913W        W64981  26.991  19.800  11.994
91914W        W64982  34.424  31.127  13.452
91915W        W64983  32.031  28.836  12.046
91916W        W64984  36.527  21.119  14.524
91917W        W64985   3.788  23.451  11.624
91918W        W64986  37.880  25.023  13.799
91919W        W64987   0.316  10.357   0.284
91920W        W64988   0.003  39.621  12.955
91921W        W64989  22.454  12.975   0.950
91922W        W64990  17.257  41.207   0.260
91923W        W64991  31.928  22.237  11.392
91924W        W64992  21.162  42.991   1.385
91925W        W64993  37.396  44.765   3.155
91926W        W64994   8.421  14.488   1.310
91927W        W64995  12.338  30.173   0.936
91928W        W64996  43.852  16.912   0.894
91929W        W64997   4.809  27.583   3.860
91930W        W64998  34.401  27.058  14.017
91931W        W64999  41.275  21.494   1.244
91932W        W65000  21.519  28.963   4.206
91933W        W65001  10.143  31.499  14.089
91934W        W65002  32.100  39.601   3.356
91935W        W65003   6.371   8.347  12.928
91936W        W65004  38.432  14.618   2.322
91937W        W65005  36.475   3.581  11.036
91938W        W65006  17.143  17.172  13.032
91939W        W65007   8.493   8.009   1.421
91940W        W65008  27.124  43.059   3.778
91941W        W65009  24.590  31.453   1.267
91942W        W65010  36.395  21.817  12.377
91943W        W65011  44.898  21.053  14.572
91944W        W65012  34.530  31.330   1.055
91945W        W65013  27.973  27.895  14.461
91946W        W65014  12.179  18.560  11.203
91947W        W65015   1.796   5.217  11.281
91948W        W65016   4.320  23.518  10.465
91949W        W65017  26.534  20.122   4.678
91950W        W65018  10.321   6.659  14.291
91951W        W65019  11.582  13.688  14.830
91952W        W65020  25.531  11.398   3.509
91953W        W65021  18.473  38.973   1.395
91954W        W65022  32.955  31.108  14.560
91955W        W65023  17.101   8.240  10.964
91956W        W65024   7.667  39.264   3.693
91957W        W65025  44.981  26.761  11.446
91958W        W65026  37.284  26.951  10.423
91959W        W65027   2.108   1.085   3.004
91960W        W65028  31.928  31.606  13.085
91961W        W65029  23.463  38.974  11.642
91962W        W65030  34.912  41.539  11.315
91963W        W65031  32.264  23.011   5.037
91964W        W65032  31.955  26.080   0.936
91965W        W65033  28.165  38.279   2.755
91966W        W65034   4.687  43.918  11.717
91967W        W65035  11.254  38.918  10.358
91968W        W65036  44.263  33.539   2.840
91969W        W65037  29.421  16.724   3.210
91970W        W65038  22.581  35.060   4.602
91971W        W65039   7.442  23.230   0.945
91972W        W65040  20.240  25.192   3.535
91973W        W65041  20.129  12.699   3.688
91974W        W65042   7.645  21.642   2.294
91975W        W65043  44.930  15.067   2.451
91976W        W65044  31.131  24.662   4.396
91977W        W65045   5.100  17.454  14.994
91978W        W65046  10.374  39.068   0.863
91979W        W65047  31.266  17.314  14.922
91980W        W65048   0.656  23.965   2.815
91981W        W65049  11.691  36.847  11.537
91982W        W65050  14.443   5.752  14.281
91983W        W65051  26.001  43.779   0.041
91984W        W65052  14.639  26.056   4.446
91985W        W65053   0.877   7.992   2.112
91986W        W65054   7.162  23.677  14.748
91987W        W65055  16.206  26.589  14.041
91988W        W65056  36.629   8.813  13.027
91989W        W65057  19.775  41.497   0.297
91990W        W65058  24.615  15.217   4.437
91991W        W65059  43.927  30.489  12.098
91992W        W65060  17.847  14.683  11.459
91993W        W65061  25.110  29.515  13.879
91994W        W65062  11.255  36.579   3.557
91995W        W65063  35.203  31.273  10.904
91996W        W65064  40.514  20.652  10.481
91997W        W65065  17.894  12.531  13.519
91998W        W65066  27.892  18.017  11.160
91999W        W65067  38.179  26.081   0.415
92000W        W65068   6.239  22.341   2.684
92001W        W65069  28.884  10.268   2.832
92002W        W65070   0.431   6.309   2.354
92003W        W65071  25.537  34.241  10.764
92004W        W65072  42.830   3.405   5.112
92005W        W65073   0.250  19.492   4.149
92006W        W65074   4.192  33.517   1.781
92007W        W65075  41.049  10.847  13.999
92008W        W65076  10.614  19.532   4.338
92009W        W65077  20.955   8.708  12.690
92010W        W65078   0.834  20.309   2.247
92011W        W65079  44.851  17.806   3.213
92012W        W65080  27.365  18.515  11.934
92013W        W65081   6.785   9.738   4.640
92014W        W65082  42.052  38.058  13.665
92015W        W65083  42.364  12.653  11.865
92016W        W65084   4.804  22.103   3.622
92017W        W65085   4.439   5.678  12.795
92018W        W65086  34.405   9.337  11.943
92019W        W65087   8.280  29.122  10.654
92020W        W65088  24.389  43.019  14.669
92021W        W65089  25.204  32.636   1.720
92022W        W65090  20.930   4.039  11.499
92023W        W65091  36.327   8.232  13.992
92024W        W65092   1.988  16.266   0.940
92025W        W65093  30.684  27.198   1.459
92026W        W65094   0.867  28.262   4.659
92027W        W65095  35.293  10.354  14.903
92028W        W65096  14.622  27.147   2.152
92029W        W65097   2.653  43.792   3.883
92030W        W65098  29.341  28.035   2.827
92031W        W65099  42.142   5.552   1.094
92032W        W65100  11.794  29.876  11.090
92033W        W65101   1.180   6.967  13.307
92034W        W65102  19.091  20.315  14.449
92035W        W65103  30.002  18.827   2.028
92036W        W65104   4.431   4.502  10.756
92037W        W65105  21.035  12.734   4.647
92038W        W65106   2.482   4.737  14.102
92039W        W65107   8.310   3.399  14.265
92040W        W65108  11.204   2.389   4.467
92041W        W65109  22.188   2.048  13.984
92042W        W65110  22.033  33.157  14.274
92043W        W65111   5.257  30.700   1.853
92044W        W65112  33.305  23.384  10.131
92045W        W65113  33.972   3.458  12.026
92046W        W65114  14.694  11.387   2.711
92047W        W65115  14.621   2.743  12.470
92048W        W65116  11.090  26.482   5.044
92049W        W65117  19.505  13.071  13.291
92050W        W65118   8.669  37.408   2.291
92051W        W65119  30.083   5.292   4.070
92052W        W65120  40.888  14.934  12.034
92053W        W65121  33.180   2.810   0.128
92054W        W65122  20.328   9.796   4.571
92055W        W65123   7.672  13.734   2.203
92056W        W65124  35.871   8.285   4.148
92057W        W65125   6.610  34.399   2.600
92058W        W65126  43.857   7.238   3.059
92059W        W65127   4.822   9.113   4.594
92060W        W65128  29.668  42.788  12.595
92061W        W65129  41.713  19.545  13.900
92062W        W65130  10.156  29.437  14.400
92063W        W65131  43.771  14.758  12.859
92064W        W65132  37.827   3.412   5.136
92065W        W65133  41.400  31.310  14.314
92066W        W65134  19.309   9.270  14.358
92067W        W65135  20.163  14.209   0.461
92068W        W65136  44.869   9.893  13.963
92069W        W65137  18.495  30.147   2.678
92070W        W65138  21.528   8.778  11.510
92071W        W65139  42.710  23.086   0.809
92072W        W65140   2.792  17.571  12.363
92073W        W65141  39.719  19.472   0.037
92074W        W65142  13.636  30.197   0.252
92075W        W65143   1.329  11.610  12.472
92076W        W65144  43.056  21.534  11.588
92077W        W65145  10.172  20.458  11.546
92078W        W65146  10.369  25.777  10.997
92079W        W65147  23.055  23.742   4.313
92080W        W65148   7.387   6.182   4.937
92081W        W65149  44.981  18.401  12.036
92082W        W65150   7.959   8.369  13.870
92083W        W65151  32.494   6.768  13.782
92084W        W65152  31.115  30.412  12.549
92085W        W65153  13.967  37.951   0.312
92086W        W65154   1.312  16.138   2.148
92087W        W65155  18.228   6.896   3.213
92088W        W65156   9.639  43.496   1.891
92089W        W65157   7.942  44.280   2.380
92090W        W65158  28.116   5.257   3.698
92091W        W65159  31.353  36.170   2.704
92092W        W65160   9.390  26.360  12.064
92093W        W65161  24.903   7.372  12.551
92094W        W65162  28.979  26.397   4.557
92095W        W65163   8.371   2.900  12.321
92096W        W65164  24.871  37.915  11.024
92097W        W65165  44.299   8.347  12.412
92098W        W65166   1.082  18.549   3.613
92099W        W65167   2.495   0.373   2.366
92100W        W65168   9.378  34.170   2.875
92101W        W65169  21.763  38.914  14.509
92102W        W65170  28.680  18.065  10.741
92103W        W65171  21.638   1.527   1.691
92104W        W65172  21.639  15.377   0.917
92105W        W65173  41.876  40.913   0.952
92106W        W65174   1.766  32.419   2.811
92107W        W65175   0.251  42.367  10.714
92108W        W65176   0.243  35.095  14.841
92109W        W65177  26.397   2.227   1.837
92110W        W65178  40.425   0.894   4.591
92111W        W65179   4.290   9.585   1.898
92112W        W65180  29.811  21.917   4.711
92113W        W65181   5.219   0.703   2.569
92114W        W65182  24.730  29.700  10.767
92115W        W65183  34.426  39.017   0.527
92116W        W65184  18.624  21.033  14.231
92117W        W65185   9.354  35.675   4.098
92118W        W65186   9.970  27.007  13.407
92119W        W65187  34.691   4.282  11.010
92120W        W65188  27.179  12.250  10.321
92121W        W65189  26.548  23.025  12.694
92122W        W65190  43.778  22.426   0.249
92123W        W65191  31.802  34.113  11.316
92124W        W65192  24.372  33.016   1.908
92125W        W65193  24.122   2.202   0.529
92126W        W65194  27.968  19.741  12.018
92127W        W65195  22.729  18.237  13.459
92128W        W65196  31.441  43.789   0.558
92129W        W65197  42.429  30.674   2.466
92130W        W65198  41.462  28.505   2.197
92131W        W65199  21.318   9.205   1.332
92132W        W65200  34.060  30.857  10.575
92133W        W65201  11.845  38.859  14.351
92134W        W65202  37.647  32.599  11.663
92135W        W65203  15.221  29.714   0.902
92136W        W65204  11.144  15.372  11.721
92137W        W65205  43.247  31.838   0.935
92138W        W65206  25.022  14.736   1.882
92139W        W65207   2.877  44.834  12.924
92140W        W65208  28.500  13.158  13.315
92141W        W65209  28.132  42.202  10.979
92142W        W65210  14.079  43.465  10.631
92143W        W65211   2.312  11.272   1.992
92144W        W65212  22.260  15.565  13.432
92145W        W65213  10.378  32.089   3.255
92146W        W65214  26.539  12.194  14.841
92147W        W65215  21.574  11.295   1.942
92148W        W65216   4.985  19.783   0.998
92149W        W65217  34.623   8.215  10.846
92150W        W65218  40.089  40.449  14.801
92151W        W65219  43.000   7.557  11.753
92152W        W65220   1.449  36.980   0.930
92153W        W65221  33.350  19.559  14.818
92154W        W65222   8.075  30.221   0.804
92155W        W65223  14.788  44.042   2.291
92156W        W65224  29.122  36.002  10.489
92157W        W65225   0.278   0.781  12.267
92158W        W65226  18.690  31.163  11.025
92159W        W65227  22.638   6.242   1.221
92160W        W65228   8.410  33.248   0.719
92161W        W65229  34.029   8.817   0.264
92162W        W65230  12.649  15.292  12.005
92163W        W65231  28.832  24.962  11.115
92164W        W65232  30.047  22.285  10.714
92165W        W65233  18.020  21.060   3.199
92166W        W65234  18.775  21.042   2.742
92167W        W65235  33.954   3.946  10.961
92168W        W65236  40.887  17.637   4.756
92169W        W65237  27.228   5.872  11.913
92170W        W65238  40.087  10.931  12.229
92171W        W65239  44.988  25.888   1.760
92172W        W65240  19.116   3.051  14.349
92173W        W65241   3.747  19.113  14.626
92174W        W65242  41.007  14.603  14.315
92175W        W65243  26.715  35.526  13.305
92176W        W65244  31.306  41.902  10.729
92177W        W65245   0.310  27.700  13.146
92178W        W65246  22.611  38.580  11.319
92179W        W65247  42.913  33.700   1.708
92180W        W65248  27.196   4.739   3.689
92181W        W65249  34.183  33.153   0.739
92182W        W65250  27.657  33.548  12.536
92183W        W65251  28.081  25.753   0.727
92184W        W65252  28.128  29.255   4.043
92185W        W65253  18.145   7.856  12.972
92186W        W65254  13.186  35.974  14.624
92187W        W65255   2.980  20.597  12.657
92188W        W65256  39.399  37.902  11.911
92189W        W65257  15.221  38.856  13.629
92190W        W65258  41.508   5.859  11.498
92191W        W65259  25.278   0.828   2.818
92192W        W65260  40.563  12.714   4.067
92193W        W65261  15.671   3.912   2.239
92194W        W65262  28.687   7.419  14.422
92195W        W65263  14.294   2.535   1.485
92196W        W65264  44.911  23.177  10.650
92197W        W65265   7.383  19.259   2.529
92198W        W65266  29.391  23.136  14.736
92199W        W65267  25.590  34.024   3.737
92200W        W65268  24.121   3.882   2.196
92201W        W65269  43.886   5.221   3.079
92202W        W65270  23.677   1.664  12.540
92203W        W65271  39.249  19.519   3.540
92204W        W65272   6.928   8.761  11.342
92205W        W65273  41.032  38.978  14.402
92206W        W65274  18.089  26.031  12.804
92207W        W65275   4.243  10.672   2.688
92208W        W65276  32.565  40.517  11.650
92209W        W65277  44.226  13.812  14.416
92210W        W65278  30.172  43.332  11.622
92211W        W65279  37.709  27.931   5.106
92212W        W65280  36.188   0.090  10.292
92213W        W65281  19.736  20.588  12.514
92214W        W65282  26.175  33.338  12.573
92215W        W65283  34.043  43.460   4.187
92216W        W65284  42.867  25.152   1.173
92217W        W65285  37.918  43.877  12.546
92218W        W65286  19.772  44.803   5.038
92219W        W65287  15.303  30.461   4.109
92220W        W65288   6.905  20.024  11.876
92221W        W65289  36.354   4.368   0.943
92222W        W65290  37.598  27.407   5.121
92223W        W65291  11.996  38.360  12.570
92224W        W65292   4.917  23.975   1.914
92225W        W65293  38.569  31.125   3.149
92226W        W65294  13.056  39.801  11.164
92227W        W65295  15.714   9.640  11.589
92228W        W65296  20.670  29.046   4.885
92229W        W65297  23.279  19.053  13.594
92230W        W65298   9.366  14.130   1.774
92231W        W65299  34.107  31.885   1.856
92232W        W65300  18.695  17.754  13.324
92233W        W65301  10.271  44.041   1.915
92234W        W65302  10.263   3.939  14.303
92235W        W65303  18.173  20.624   2.439
92236W        W65304   9.372  18.829   3.294
92237W        W65305  40.412  15.930   4.205
92238W        W65306  37.353  35.812  13.788
92239W        W65307   1.364  31.153  12.891
92240W        W65308  39.534  24.615   0.361
92241W        W65309  31.171   5.247  11.479
92242W        W65310  17.757  32.269  11.984
92243W        W65311  40.064  17.273   4.011
92244W        W65312  27.521  31.853  10.983
92245W        W65313  26.827   8.779  14.850
92246W        W65314   8.859   5.368  13.523
92247W        W65315   2.398  21.457  14.968
92248W        W65316  34.386  40.501  12.047
92249W        W65317  22.254  41.096  13.912
92250W        W65318   6.062  35.877   0.501
92251W        W65319  34.501  27.719  14.825
92252W        W65320  17.112  16.257  10.087
92253W        W65321  26.428  44.797  12.968
92254W        W65322   0.126   7.675  13.590
92255W        W65323   9.218  25.713   0.847
92256W        W65324   0.027  27.023  12.002
92257W        W65325  21.738   0.214   3.061
92258W        W65326  27.485  37.517  10.722
92259W        W65327  36.096  40.473   0.438
92260W        W65328  26.060   3.378  14.666
92261W        W65329  39.380  35.932   1.677
92262W        W65330  39.938   5.509   9.924
92263W        W65331  26.950  31.010   2.288
92264W        W65332  33.823  26.345   3.663
92265W        W65333  39.814  44.455  14.963
92266W        W65334  12.311  32.853  12.609
92267W        W65335  40.832  12.564   2.845
92268W        W65336  30.116  22.770   2.618
92269W        W65337   9.533  19.305   4.237
92270W        W65338  20.153  37.547   0.847
92271W        W65339  31.415  44.709   4.159
92272W        W65340  12.200  31.870  14.821
92273W        W65341  43.331  19.028   2.465
92274W        W65342  43.571  28.173  14.587
92275W        W65343   5.629  26.973  14.553
92276W        W65344  15.138  43.971  12.210
92277W        W65345  27.646  36.530   2.764
92278W        W65346  40.435   9.339   1.808
92279W        W65347  17.664  38.395  14.581
92280W        W65348  13.850  20.033  12.848
92281W        W65349  24.647   2.262   4.598
92282W        W65350  26.309  32.963  13.510
92283W        W65351  42.150  14.901   0.463
92284W        W65352  23.033  34.153  14.285
92285W        W65353   5.810   9.825  14.874
92286W        W65354   1.412  39.793   3.327
92287W        W65355   3.419  27.477   3.530
92288W        W65356  11.508   1.920   0.861
92289W        W65357   8.130  28.644  10.538
92290W        W65358  38.908  39.647   4.076
92291W        W65359   1.286   8.364   4.547
92292W        W65360   5.179  19.774   4.762
92293W        W65361  44.005  35.357   4.942
92294W        W65362  42.082  36.992   2.274
92295W        W65363  24.008   4.054   4.567
92296W        W65364  39.800  30.474   0.791
92297W        W65365  44.564  28.683   0.712
92298W        W65366  34.660  23.763   1.632
92299W        W65367  16.848  10.077  13.605
92300W        W65368  22.306  39.936   1.317
92301W        W65369  44.369   4.936   4.177
92302W        W65370  20.667  30.935   3.252
92303W        W65371   4.282  20.753  10.892
92304W        W65372  41.360  35.324  12.894
92305W        W65373  29.992  17.616  13.485
92306W        W65374  16.235  23.235   0.354
92307W        W65375  37.871   1.947  11.416
92308W        W65376   3.822  18.143  14.928
92309W        W65377   4.242   2.292  11.619
92310W        W65378  11.193   5.751   2.349
92311W        W65379   7.688  10.237  11.235
92312W        W65380  24.687  17.185   1.246
92313W        W65381   6.963  23.747   2.848
92314W        W65382  30.584  25.941  11.607
92315W        W65383  13.874  31.119  14.074
92316W        W65384  27.460  10.688  13.378
92317W        W65385  32.585  22.305  11.895
92318W        W65386  15.159  35.947  10.850
92319W        W65387  37.469  19.241  14.882
92320W        W65388  14.910  41.842  14.025
92321W        W65389  15.577  30.601  10.624
92322W        W65390  30.778  44.658  12.910
92323W        W65391   4.429   9.102   3.663
92324W        W65392  33.777   5.747  12.011
92325W        W65393  20.494  27.187   3.259
92326W        W65394  43.869  32.002  14.357
92327W        W65395   4.756  41.554   1.203
92328W        W65396   5.414  31.203  14.386
92329W        W65397  32.381  29.390   2.411
92330W        W65398  10.758  27.241   2.277
92331W        W65399   8.287  38.542  12.581
92332W        W65400  23.541  41.340   3.143
92333W        W65401  40.971   0.729   1.247
92334W        W65402  10.208  19.262   0.928
92335W        W65403  39.358  29.425   0.733
92336W        W65404  40.782  41.040  12.059
92337W        W65405  40.745   7.377  11.490
92338W        W65406  34.733   4.661   2.855
92339W        W65407  17.125  14.623   4.172
92340W        W65408  12.741  10.678  13.023
92341W        W65409  25.042  42.964  12.897
92342W        W65410  43.738  15.560  11.036
92343W        W65411   0.292   2.929   2.853
92344W        W65412   2.858  26.137  13.631
92345W        W65413   1.564  33.416  13.035
92346W        W65414  28.097  29.299  13.021
92347W        W65415  36.799  21.052  14.953
92348W        W65416  13.755  10.821   1.781
92349W        W65417  17.710   8.551  12.301
92350W        W65418  28.563  12.089   1.617
92351W        W65419  16.742  27.593  12.119
92352W        W65420  32.628   9.191  10.720
92353W        W65421  10.124  39.615  11.080
92354W        W65422  13.037  14.009   0.884
92355W        W65423  31.220  41.005  11.898
92356W        W65424  11.779  30.443   2.223
92357W        W65425  27.662   8.107   1.385
92358W        W65426  31.516  33.911  11.697
92359W        W65427  30.292   4.829   4.544
92360W        W65428  23.206  43.647   0.205
92361W        W65429   0.953  10.527   3.934
92362W        W65430   8.616   2.784   1.193
92363W        W65431   0.906  23.902   0.377
92364W        W65432   8.389  43.348   2.340
92365W        W65433   5.410  36.126   2.469
92366W        W65434  42.887   3.701   3.960
92367W        W65435  13.943  10.195  13.239
92368W        W65436  21.551  19.264  11.896
92369W        W65437  31.620  21.956   2.697
92370W        W65438  28.669  25.742  10.788
92371W        W65439  23.105  35.168   4.620
92372W        W65440   1.313  28.203  13.115
92373W        W65441  11.365  19.549  13.104
92374W        W65442  27.630   0.540  10.737
92375W        W65443   3.706  31.444   2.699
92376W        W65444   2.798  29.324  12.969
92377W        W65445  34.004  16.977  12.081
92378W        W65446   1.785   3.205   4.692
92379W        W65447   6.512  33.205  10.797
92380W        W65448  40.011  12.058   2.787
92381W        W65449  11.387  22.370   0.016
92382W        W65450  14.418   7.682  10.630
92383W        W65451  32.216  10.314   4.045
92384W        W65452  27.745  30.143  10.722
92385W        W65453  39.869   6.756   2.183
92386W        W65454   9.834  26.128   4.559
92387W        W65455   0.871  31.811  13.410
92388W        W65456  14.862  28.119   5.072
92389W        W65457  41.045  28.587  10.591
92390W        W65458   0.834  31.203   1.978
92391W        W65459  29.531  31.589  10.722
92392W        W65460  35.406   0.857  12.061
92393W        W65461  34.893  10.210   1.227
92394W        W65462  13.091  35.260  11.879
92395W        W65463   4.724  23.744  11.254
92396W        W65464   1.267   4.657   4.052
92397W        W65465  34.104  44.425  14.851
92398W        W65466  10.060  12.925  10.955
92399W        W65467   0.672  34.421  10.701
92400W        W65468  33.408  24.823   0.298
92401W        W65469  37.557  35.497  11.617
92402W        W65470  44.749  22.633  10.502
92403W        W65471  31.478  28.077   4.833
92404W        W65472  20.652  22.490  13.490
92405W        W65473   6.273   8.877  13.843
92406W        W65474  31.209   4.925   0.875
92407W        W65475  22.569  24.620  11.982
92408W        W65476   4.394  14.559   0.523
92409W        W65477   8.221  12.270  11.080
92410W        W65478  12.327   4.863   0.356
92411W        W65479  35.493  41.842  10.631
92412W        W65480  10.717  23.541   2.929
92413W        W65481   5.935  41.009  13.978
92414W        W65482   5.924  32.043   3.100
92415W        W65483   7.452  38.729  13.521
92416W        W65484  11.890   4.463  10.999
92417W        W65485  32.997  41.904   4.574
92418W        W65486  12.327  12.933  12.817
92419W        W65487   6.723  29.505   2.414
92420W        W65488  27.549  36.304   3.703
92421W        W65489  25.719  22.326  14.538
92422W        W65490  30.398   3.907   0.535
92423W        W65491  12.447  28.586   3.086
92424W        W65492  21.032  19.704  10.706
92425W        W65493  44.928   1.387   2.222
92426W        W65494  35.175  16.170   4.089
92427W        W65495   1.425   2.998   1.818
92428W        W65496  16.760  21.128  10.486
92429W        W65497  22.351  22.207   4.092
92430W        W65498  39.410  35.096  13.187
92431W        W65499   5.184  32.373  11.660
92432W        W65500   5.400  11.896  14.296
92433W        W65501  24.225  28.965   4.650
92434W        W65502   0.241   5.275   1.670
92435W        W65503   4.630  23.090  12.910
92436W        W65504  32.371  40.440   2.840
92437W        W65505  11.109  27.162  13.018
92438W        W65506  11.654  20.915   2.356
92439W        W65507  30.075  21.224   1.824
92440W        W65508   5.174  35.150   0.312
92441W        W65509  36.809  20.263   3.257
92442W        W65510  41.765   0.110   9.751
92443W        W65511  18.497  30.106   0.290
92444W        W65512   8.285  33.202   3.765
92445W        W65513  19.305   7.744   2.790
92446W        W65514   0.366   7.334  14.372
92447W        W65515  26.819  22.599   3.805
92448W        W65516  28.048  17.269   4.387
92449W        W65517   2.545  42.032   1.178
92450W        W65518  22.688  39.129  14.386
92451W        W65519  14.180  42.981  11.919
92452W        W65520  14.506  18.141  12.358
92453W        W65521  26.155  13.682   4.601
92454W        W65522  35.979  14.352  14.335
92455W        W65523   4.203   3.509   4.175
92456W        W65524  30.192  38.516  12.849
92457W        W65525   2.923  38.374  12.765
92458W        W65526  28.071  23.293  11.974
92459W        W65527  41.818  18.259  12.473
92460W        W65528  13.763  24.577  10.476
92461W        W65529  23.290   3.739  12.980
92462W        W65530  42.485  36.574  14.793
92463W        W65531  13.566  16.494   4.018
92464W        W65532  31.682  41.880   4.148
92465W        W65533  41.987  18.816   1.232
92466W        W65534  39.998   3.376  13.876
92467W        W65535  13.149  34.339  11.634
92468W        W65536  43.934  35.877   1.716
92469W        W65537  15.082  39.965  11.818
92470W        W65538  35.358  14.831   1.434
92471W        W65539  24.465  17.931   3.635
92472W        W65540  42.371  36.950  12.478
92473W        W65541  16.676  20.114  12.993
92474W        W65542  22.493  26.743  11.527
92475W        W65543  36.815  26.188  11.424
92476W        W65544   1.451  39.906   0.396
92477W        W65545  12.330  34.574   0.393
92478W        W65546  10.882  12.178   2.396
92479W        W65547  32.107  33.451  11.811
92480W        W65548  29.059  44.023   3.806
92481W        W65549   3.384  21.967   2.821
92482W        W65550  24.954  28.642  12.046
92483W        W65551  33.538   6.194  12.016
92484W        W65552   3.297  39.881  12.509
92485W        W65553   6.769   9.314   5.011
92486W        W65554   3.465  16.635   3.768
92487W        W65555  21.494  18.756  12.511
92488W        W65556   6.567  40.356  10.202
92489W        W65557   7.847  32.915  14.338
92490W        W65558  16.672   4.783  11.922
92491W        W65559  12.049   8.971  12.315
92492W        W65560  17.544  15.716   1.420
92493W        W65561  28.036  32.358  14.299
92494W        W65562   2.748   6.974   4.546
92495W        W65563  28.581   8.889   4.297
92496W        W65564  36.321  14.572   1.191
92497W        W65565  44.445  11.159   1.829
92498W        W65566   6.233  19.791  10.998
92499W        W65567  16.628  18.532  13.858
92500W        W65568  26.999  24.974   3.692
92501W        W65569  37.889  17.720  12.611
92502W        W65570  42.238  38.257   3.135
92503W        W65571   8.768  41.410   5.202
92504W        W65572  17.544  29.460  13.111
92505W        W65573   6.333  44.891  14.240
92506W        W65574  42.731   3.656  11.605
92507W        W65575   5.871   4.689  12.442
92508W        W65576  22.702  32.020   4.343
92509W        W65577  28.155  25.211   5.102
92510W        W65578  20.946   8.021  13.976
92511W        W65579  29.569  30.477   0.292
92512W        W65580  29.893  36.004  13.963
92513W        W65581  10.668  11.245   3.812
92514W        W65582  39.105  38.388  10.608
92515W        W65583   0.552  33.410   4.456
92516W        W65584  17.241   0.856   5.035
92517W        W65585  27.734  11.228  11.619
92518W        W65586  38.638  32.165  11.156
92519W        W65587  18.567   5.379   3.158
92520W        W65588  13.236  37.152   0.242
92521W        W65589   4.044  10.758   1.426
92522W        W65590   1.755   4.412  12.369
92523W        W65591  22.229   2.098  11.032
92524W        W65592  11.802   6.359   4.569
92525W        W65593  23.040  11.844   2.665
92526W        W65594  31.125  44.194   0.422
92527W        W65595  14.121  30.510   4.193
92528W        W65596   3.621  31.449  11.563
92529W        W65597  15.630  29.391  11.090
92530W        W65598  32.735   1.832   5.082
92531W        W65599   1.819  34.989  12.056
92532W        W65600   7.406   3.409  12.807
92533W        W65601  35.780  28.194  12.414
92534W        W65602  33.380   7.378   5.116
92535W        W65603  10.864  18.379   1.030
92536W        W65604  21.980   3.380   2.080
92537W        W65605   1.306   8.743  13.904
92538W        W65606  10.078  26.272   3.738
92539W        W65607  17.328  31.853   4.083
92540W        W65608  15.661  30.900   1.797
92541W        W65609  37.390  24.063  10.701
92542W        W65610   0.858  19.700  10.675
92543W        W65611  10.607  25.071  12.449
92544W        W65612  18.599  44.032  13.510
92545W        W65613  34.868  36.398  14.726
92546W        W65614  13.071   7.902  13.832
92547W        W65615  27.476  31.697  12.520
92548W        W65616   3.305   6.761   4.908
92549W        W65617  41.809  36.416   4.715
92550W        W65618  21.805  28.190  12.406
92551W        W65619  25.057  34.192   1.230
92552W        W65620   9.253   5.171  12.955
92553W        W65621  27.980  21.128   4.187
92554W        W65622  25.288  36.891  11.678
92555W        W65623   0.311   8.544  13.654
92556W        W65624  15.219  24.085   2.848
92557W        W65625   1.217  38.844   1.829
92558W        W65626  22.156  30.899  12.392
92559W        W65627  18.083  31.444   4.370
92560W        W65628  26.172  32.434   4.217
92561W        W65629  12.119  10.250  12.035
92562W        W65630  36.895  36.957  11.929
92563W        W65631   7.267  23.179  10.741
92564W        W65632  31.997  28.494  14.992
92565W        W65633   1.267  17.408  14.089
92566W        W65634  37.000  32.172   1.993
92567W        W65635   2.156  35.974  11.925
92568W        W65636   9.368  18.971  13.052
92569W        W65637  44.413  12.197  12.825
92570W        W65638  38.085  16.354   0.476
92571W        W65639  39.097   9.526  12.300
92572W        W65640  42.836  26.921  11.930
92573W        W65641  31.451  36.133  13.073
92574W        W65642  43.016  12.080  13.895
92575W        W65643  27.411  23.199   0.559
92576W        W65644  22.056  22.194  11.986
92577W        W65645   6.354   5.263  10.159
92578W        W65646  11.241  25.948  10.623
92579W        W65647   8.424  41.935   0.289
92580W        W65648  20.247  43.539  14.001
92581W        W65649  33.794  25.555  12.533
92582W        W65650  10.932  33.577  11.480
92583W        W65651  13.776  27.011   3.362
92584W        W65652   0.864   4.343   0.392
92585W        W65653  41.967   4.963   1.796
92586W        W65654  31.338  12.140  11.552
92587W        W65655  35.711  13.402   0.988
92588W        W65656   7.352  14.553   1.807
92589W        W65657  34.456   0.581  12.096
92590W        W65658  26.261  36.940   4.655
92591W        W65659   8.900  17.699   1.292
92592W        W65660  16.035   7.492   2.779
92593W        W65661  39.923  26.175  11.743
92594W        W65662  40.306  29.542  13.921
92595W        W65663  21.133  14.034   4.475
92596W        W65664   5.951  37.938   2.900
92597W        W65665   8.746  18.792  12.577
92598W        W65666  21.736  35.872   0.386
92599W        W65667   9.292  28.249   1.676
92600W        W65668  44.208  12.199   3.108
92601W        W65669  26.112  40.480  14.460
92602W        W65670  44.789  13.835   5.009
92603W        W65671  25.308   3.125   1.979
92604W        W65672  31.356  20.203   1.763
92605W        W65673   7.153   9.346   4.658
92606W        W65674  18.482  29.588  10.723
92607W        W65675  36.122   0.365   0.131
92608W        W65676  18.363  16.619  10.674
92609W        W65677   0.350  29.374  13.943
92610W        W65678   0.295  42.331  11.659
92611W        W65679  43.079  25.038   4.098
92612W        W65680  33.743  43.293   0.678
92613W        W65681   7.285  15.661   1.352
92614W        W65682  13.649  20.041   0.677
92615W        W65683  39.290  19.173   1.520
92616W        W65684  43.815  29.613   1.767
92617W        W65685  31.996  13.047   3.174
92618W        W65686  10.940  21.680  10.955
92619W        W65687  30.132  25.796   2.771
92620W        W65688  32.068  12.637   4.672
92621W        W65689  33.152  10.902  13.895
92622W        W65690  20.665   8.014   4.627
92623W        W65691  38.378  13.382   0.669
92624W        W65692  32.418  39.112  12.275
92625W        W65693  43.232  17.533  13.335
92626W        W65694  11.268   9.805   0.293
92627W        W65695  12.146   8.820   1.936
92628W        W65696  17.821  26.363   2.608
92629W        W65697  22.543  33.844   0.543
92630W        W65698  38.420  41.471  14.070
92631W        W65699  21.182  13.763   4.011
92632W        W65700  42.858  41.965  12.816
92633W        W65701   8.868  41.536   1.619
92634W        W65702  15.230  28.281   1.796
92635W        W65703  18.849   9.279  13.494
92636W        W65704  38.603  31.430  12.569
92637W        W65705  28.705  14.177  14.169
92638W        W65706  28.770  42.255  14.810
92639W        W65707  13.599  31.430   4.145
92640W        W65708  29.023  29.207   2.350
92641W        W65709  32.087  30.719   2.278
92642W        W65710  28.576  41.387   2.945
92643W        W65711  38.876  10.136  14.666
92644W        W65712  16.765  34.420  11.525
92645W        W65713  19.595  31.534   0.380
92646W        W65714  31.664  22.361   1.081
92647W        W65715  29.194  11.264  14.502
92648W        W65716  30.638  31.343  12.209
92649W        W65717  41.024  39.805   2.322
92650W        W65718   5.700  31.005  12.870
92651W        W65719  36.899   8.861   4.715
92652W        W65720  20.757  44.041   4.180
92653W        W65721  33.068  19.546  11.601
92654W        W65722  42.494  32.015  12.403
92655W        W65723  14.347   8.196   4.100
92656W        W65724  11.468  24.941  10.670
92657W        W65725  31.047  18.072   2.715
92658W        W65726  14.631   8.604  14.187
92659W        W65727  16.804  26.059   2.242
92660W        W65728  36.549  10.945  11.721
92661W        W65729  37.250  39.983   4.588
92662W        W65730  23.475   4.300  10.992
92663W        W65731   9.657  23.191   1.957
92664W        W65732  20.123   5.177   3.579
92665W        W65733  28.068  35.619  11.578
92666W        W65734   7.707   1.231  13.439
92667W        W65735  12.089  39.920  14.308
92668W        W65736   8.314  39.410  12.555
92669W        W65737   3.848  10.733   2.265
92670W        W65738  12.137  16.989   4.950
92671W        W65739  28.628   3.289  13.093
92672W        W65740  19.099  12.293  11.984
92673W        W65741   6.783  31.514   3.181
92674W        W65742  44.895  14.674   1.645
92675W        W65743  10.844  22.984  13.823
92676W        W65744  22.074  21.672  12.829
92677W        W65745   6.595  42.057  11.662
92678W        W65746  24.759   7.132  12.983
92679W        W65747   8.179  43.098  12.035
92680W        W65748   7.052  29.030   2.723
92681W        W65749   3.277   5.916   0.536
92682W        W65750  32.594  24.121   2.246
92683W        W65751   6.640  32.514   4.130
92684W        W65752  33.482  17.322   2.607
92685W        W65753  21.199  10.543   1.494
92686W        W65754  27.143  23.115   1.149
92687W        W65755  21.759  42.902  11.855
92688W        W65756   4.708  26.473  10.565
92689W        W65757  16.050   4.830   4.061
92690W        W65758  12.568   6.948   2.856
92691W        W65759  25.950   8.584   4.267
92692W        W65760  26.620  38.976  11.212
92693W        W65761  15.335  39.580   0.846
92694W        W65762  32.184  34.778  10.654
92695W        W65763  20.805  30.727   1.403
92696W        W65764  37.009  34.524   1.857
92697W        W65765  25.114  42.510   0.704
92698W        W65766   7.177  14.907   3.802
92699W        W65767  19.972  36.269  11.628
92700W        W65768  38.797  22.319  11.057
92701W        W65769  23.485   7.760  10.486
92702W        W65770   9.745  16.773  14.351
92703W        W65771  12.074   0.582   0.643
92704W        W65772  35.940  27.754   0.710
92705W        W65773  25.920  25.245   1.944
92706W        W65774  34.406  19.518   1.499
92707W        W65775  43.502   0.903   1.461
92708W        W65776  34.084  37.013   4.183
92709W        W65777  28.651  16.577   3.666
92710W        W65778   4.319  36.177   4.707
92711W        W65779  15.644   9.188  12.835
92712W        W65780  12.805  28.513   4.102
92713W        W65781  24.822   3.798   2.848
92714W        W65782  32.525  34.335   3.731
92715W        W65783   7.575   8.217   3.741
92716W        W65784   1.362  20.999   0.527
92717W        W65785  21.353  26.985  11.355
92718W        W65786  41.389  27.197  13.131
92719W        W65787  31.597  21.005  13.373
92720W        W65788  33.886  11.951   4.110
92721W        W65789  43.622  14.160  11.240
92722W        W65790  32.410  30.418   4.013
92723W        W65791  43.436  40.373   4.591
92724W        W65792   5.225   3.620   1.237
92725W        W65793  13.241  37.941  13.397
92726W        W65794   5.730  25.682   1.169
92727W        W65795  20.918  40.009   4.182
92728W        W65796   8.325   8.097  11.195
92729W        W65797  43.236  29.389  14.830
92730W        W65798  15.703   3.021   3.358
92731W        W65799  32.014   8.629   4.619
92732W        W65800   2.879   6.856   2.576
92733W        W65801  14.240   3.720   3.759
92734W        W65802  43.850  38.822   1.601
92735W        W65803  42.954  16.818   1.414
92736W        W65804  26.078  39.501   5.079
92737W        W65805  44.480  29.551   3.119
92738W        W65806  14.704  31.343   2.387
92739W        W65807  14.830  22.024   0.684
92740W        W65808   8.576  13.188   4.838
92741W        W65809   9.302   6.534  11.990
92742W        W65810  25.341   8.158  13.419
92743W        W65811   0.843  17.165   3.727
92744W        W65812  21.618  37.826   0.887
92745W        W65813  43.478  42.513  14.706
92746W        W65814   4.102   3.766   0.972
92747W        W65815  41.005   4.713  13.940
92748W        W65816  44.877  38.101   2.384
92749W        W65817  11.384   7.628   4.277
92750W        W65818  28.630  31.505   2.139
92751W        W65819  45.000  19.304   0.362
92752W        W65820  14.926  17.600  13.954
92753W        W65821  32.901  23.173  13.907
92754W        W65822  39.829  21.301  13.020
92755W        W65823  28.268   3.837   1.152
92756W        W65824  25.016   4.842   3.036
92757W        W65825   9.187  43.965  12.056
92758W        W65826  27.145   8.005  12.012
92759W        W65827  24.675  28.498  14.329
92760W        W65828  34.166  18.242  10.914
92761W        W65829  32.439   9.810  14.290
92762W        W65830  38.613  21.996   3.188
92763W        W65831  31.226  37.881   3.226
92764W        W65832  35.954  15.763   3.905
92765W        W65833  29.895  39.300   0.380
92766W        W65834  35.902  42.011   4.232
92767W        W65835   3.168  13.297  12.954
92768W        W65836   6.801  14.899  11.425
92769W        W65837  37.430   0.810   3.240
92770W        W65838  43.447  34.667   0.512
92771W        W65839  12.617  17.518  14.924
92772W        W65840  14.454   7.410   2.390
92773W        W65841  23.084  16.762   1.520
92774W        W65842  17.384  29.010  13.386
92775W        W65843   7.725  12.450  13.969
92776W        W65844  35.377  35.238  14.019
92777W        W65845  26.051  14.199  12.531
92778W        W65846  43.923  41.510   1.006
92779W        W65847   2.650   7.851   0.465
92780W        W65848  38.070  26.661   5.063
92781W        W65849   0.733   8.334  10.209
92782W        W65850  40.035  33.049  12.442
92783W        W65851  42.334   0.417  10.912
92784W        W65852   5.964   6.398   5.334
92785W        W65853  13.202  27.860  13.773
92786W        W65854  28.287  13.171   4.147
92787W        W65855  26.774  11.171  10.680
92788W        W65856  43.537  24.712   0.239
92789W        W65857   3.788   3.755   1.423
92790W        W65858   9.566   4.851  14.515
92791W        W65859  22.785  44.243   3.595
92792W        W65860  27.501  30.018   0.815
92793W        W65861  15.013   2.456  13.321
92794W        W65862  27.127  34.919  13.866
92795W        W65863  20.483   7.278   1.314
92796W        W65864  15.562  29.904   1.765
92797W        W65865  39.394  31.604   1.395
92798W        W65866  44.398   7.119  12.088
92799W        W65867  31.466   7.218  12.133
92800W        W65868  20.544  33.337   2.674
92801W        W65869  12.541   3.177   3.435
92802W        W65870   3.428  12.555  13.526
92803W        W65871  27.660  26.465  14.937
92804W        W65872  34.982  19.760   4.083
92805W        W65873  28.258  30.396   0.042
92806W        W65874  37.914  15.200   1.171
92807W        W65875   0.011  38.486  12.201
92808W        W65876  33.031  35.284   2.571
92809W        W65877  20.687   7.309   3.113
92810W        W65878   9.750  41.005  12.852
92811W        W65879  25.599  24.075   3.299
92812W        W65880  22.313  33.807  11.611
92813W        W65881   4.170  33.976  13.469
92814W        W65882  40.547  37.529  12.055
92815W        W65883  37.776   0.795   2.848
92816W        W65884   4.626  40.250   2.821
92817W        W65885  18.682  37.092   2.329
92818W        W65886  28.269  16.189   2.894
92819W        W65887  41.702  20.762   0.490
92820W        W65888  37.886  10.899  10.690
92821W        W65889   1.823  27.760  13.898
92822W        W65890  39.959  25.112   1.733
92823W        W65891  39.543  13.320  14.812
92824W        W65892  27.720  36.995  11.614
92825W        W65893  22.076   1.019   3.345
92826W        W65894   1.407  11.308   1.819
92827W        W65895  12.765  24.023   2.682
92828W        W65896  44.730  26.763  10.261
92829W        W65897   4.498  21.200  11.121
92830W        W65898  12.669  12.358   1.754
92831W        W65899   6.255  42.264  13.827
92832W        W65900  31.057   0.432  14.402
92833W        W65901  36.636  29.924  13.041
92834W        W65902  20.485  35.797  11.040
92835W        W65903  36.552   6.289   0.711
92836W        W65904  43.965  19.217  14.427
92837W        W65905  24.865   1.515   4.809
92838W        W65906  29.230  37.977  12.034
92839W        W65907   3.500  19.088   4.560
92840W        W65908  40.805  25.443  11.200
92841W        W65909   9.816  35.437   4.193
92842W        W65910   9.988  31.802   3.117
92843W        W65911   0.615   0.684   4.240
92844W        W65912  38.620  42.433  13.896
92845W        W65913  27.452  39.018  12.450
92846W        W65914  34.918  13.753   1.831
92847W        W65915  10.713   2.238  13.537
92848W        W65916   8.274  24.713  13.362
92849W        W65917  40.938  12.395  12.039
92850W        W65918  12.606  13.100   4.633
92851W        W65919  17.804  11.379   1.154
92852W        W65920  27.634   8.627   1.355
92853W        W65921  41.816  37.029   1.819
92854W        W65922  13.426  18.029  14.300
92855W        W65923  12.549  16.634   2.272
92856W        W65924  32.036  34.538   3.613
92857W        W65925  18.609  23.809  10.014
92858W        W65926  39.520  28.197   0.191
92859W        W65927  44.263  38.567   3.788
92860W        W65928   2.406  21.503  11.170
92861W        W65929   3.235  37.314  12.688
92862W        W65930  10.422  24.708  11.999
92863W        W65931  29.218  19.938   0.658
92864W        W65932  22.195  13.340  10.723
92865W        W65933  17.544  29.488  13.838
92866W        W65934  12.619  25.520   2.261
92867W        W65935  40.420  26.109   2.588
92868W        W65936  33.684  38.012   0.201
92869W        W65937   3.456  30.501   0.237
92870W        W65938   6.850   9.161   1.358
92871W        W65939  28.583  24.288  14.935
92872W        W65940  30.535  42.439   0.601
92873W        W65941  42.345  27.703  12.042
92874W        W65942  27.983  11.689  10.674
92875W        W65943   6.995   4.127  13.678
92876W        W65944  14.246  29.905  14.014
92877W        W65945  30.158  33.338   0.411
92878W        W65946  22.590   6.177  14.734
92879W        W65947   4.785  18.173   0.824
92880W        W65948   7.000  39.358  11.334
92881W        W65949  12.046  43.777   0.064
92882W        W65950  11.944   6.355   1.624
92883W        W65951  14.109  15.161   1.231
92884W        W65952  10.559   6.781   3.184
92885W        W65953   6.467   5.056   2.817
92886W        W65954  15.032   0.316  11.232
92887W        W65955  31.448   3.978  11.270
92888W        W65956  20.358  23.040   4.194
92889W        W65957  13.661   4.813  14.804
92890W        W65958  29.963  23.119   3.920
92891W        W65959  11.828   6.144   0.183
92892W        W65960  14.271  42.027   2.828
92893W        W65961  28.035  38.326  14.768
92894W        W65962  27.237  15.930   2.293
92895W        W65963  25.796  10.236   0.592
92896W        W65964  35.970  20.759  10.483
92897W        W65965  29.162  14.679   4.803
92898W        W65966   4.821  26.970   1.273
92899W        W65967  30.722  37.798  13.826
92900W        W65968   4.425  29.023  13.493
92901W        W65969  10.645   4.685   9.902
92902W        W65970  11.399  39.355  10.649
92903W        W65971  31.121  35.587  12.239
92904W        W65972  10.305  36.045   4.680
92905W        W65973  44.997   1.042   3.707
92906W        W65974  44.306   0.892   4.736
92907W        W65975  42.550  14.481   5.277
92908W        W65976  43.371  12.447   1.620
92909W        W65977  32.355   6.386   3.765
92910W        W65978  19.633   4.488   3.684
92911W        W65979  32.824   7.602  14.802
92912W        W65980  10.745  15.752  14.514
92913W        W65981  24.990  43.312  11.602
92914W        W65982  14.227   0.057   3.570
92915W        W65983  36.873   0.207   2.757
92916W        W65984  34.573  43.929  10.753
92917W        W65985  29.153  36.666   0.653
92918W        W65986  23.233  29.580   1.232
92919W        W65987  14.538  23.552  13.039
92920W        W65988   9.551  33.072  10.767
92921W        W65989  14.623  13.692   4.241
92922W        W65990  10.068  16.551   2.803
92923W        W65991  18.590  12.770  13.070
92924W        W65992  22.171  37.064  10.718
92925W        W65993  28.444  18.116   1.029
92926W        W65994   5.285  41.979  11.098
92927W        W65995  36.590  32.415  11.980
92928W        W65996  31.098  44.188  13.834
92929W        W65997  19.157   9.670   2.782
92930W        W65998  42.936  28.142  13.357
92931W        W65999   5.215  15.485  11.014
92932W        W66000   7.782  19.634  14.204
92933W        W66001   6.868  17.711   3.613
92934W        W66002  16.738  33.764   0.360
92935W        W66003  24.957  24.659  11.093
92936W        W66004  35.309  18.797  12.872
92937W        W66005  41.251  31.623   2.924
92938W        W66006  44.004  10.753  12.871
92939W        W66007  12.632   9.127   4.606
92940W        W66008  11.771   0.696   1.246
92941W        W66009  29.537  23.560  12.228
92942W        W66010   9.864  31.077   2.728
92943W        W66011  36.015  40.348  13.523
92944W        W66012   8.768  29.580  14.562
92945W        W66013  12.915  11.034   1.843
92946W        W66014  37.568   4.249   3.678
92947W        W66015  42.818  35.350   0.937
92948W        W66016   1.281  29.254   1.208
92949W        W66017  32.332  15.666   4.169
92950W        W66018  10.685  35.417   4.196
92951W        W66019  37.617   4.306   2.747
92952W        W66020  32.725  36.277  13.498
92953W        W66021   1.974  42.047   0.456
92954W        W66022  38.043  21.959  12.071
92955W        W66023  33.607  36.088  11.995
92956W        W66024  33.027  18.041  14.952
92957W        W66025  42.556   2.671  14.795
92958W        W66026  34.421  40.220  12.486
92959W        W66027  29.415  26.110  13.505
92960W        W66028  11.410  44.385   1.277
92961W        W66029  29.070  27.432   1.987
92962W        W66030  33.509  19.462   3.702
92963W        W66031  38.564  16.935  12.220
92964W        W66032  30.319  12.931   0.931
92965W        W66033  28.153  15.396  12.492
92966W        W66034  40.858  24.748  10.391
92967W        W66035  27.456   2.017   4.262
92968W        W66036   3.816  32.203  10.118
92969W        W66037  35.190   8.095   2.884
92970W        W66038  32.367   6.448   2.839
92971W        W66039  26.146  24.145   0.782
92972W        W66040  30.130  27.056   3.209
92973W        W66041  30.675   4.523   2.757
92974W        W66042  39.790  35.654  11.183
92975W        W66043   6.406   4.703   0.529
92976W        W66044   2.135   5.476  14.762
92977W        W66045  26.722  12.181   1.398
92978W        W66046  14.764   4.886   4.294
92979W        W66047  21.325  33.374   0.324
92980W        W66048  43.012  39.878   4.483
92981W        W66049  16.994  32.884  11.348
92982W        W66050  36.342  27.198   1.754
92983W        W66051   7.479  18.225  13.913
92984W        W66052  14.180  43.449  11.435
92985W        W66053  39.839  40.569  13.011
92986W        W66054  23.903   4.510   4.811
92987W        W66055  12.368  18.933  12.502
92988W        W66056  33.748  28.917   1.756
92989W        W66057  24.694  37.359   0.873
92990W        W66058   7.363   2.145  11.630
92991W        W66059  39.959   7.380   2.883
92992W        W66060   2.000  23.542   3.693
92993W        W66061  31.970  30.564  10.929
92994W        W66062  30.724  40.821  14.859
92995W        W66063  19.109   0.016   3.371
92996W        W66064   6.213  10.750  12.926
92997W        W66065  15.186   4.404   2.758
92998W        W66066   0.355  27.693   0.289
92999W        W66067  16.448  12.776   4.665
93000W        W66068  29.631  11.419  10.778
93001W        W66069   6.855   8.688  14.447
93002W        W66070  31.002  15.070   1.423
93003W        W66071   6.914   2.166   0.570
93004W        W66072  19.757  21.719  11.670
93005W        W66073  25.726  26.724  12.872
93006W        W66074  43.366  25.747  13.748
93007W        W66075  17.789  23.709  14.891
93008W        W66076  22.046   0.523  10.154
93009W        W66077  23.087  41.391  10.416
93010W        W66078  43.293  37.795  10.489
93011W        W66079  20.507  39.007  11.832
93012W        W66080  11.175  14.692  10.568
93013W        W66081   4.489   1.858  11.610
93014W        W66082  30.548  19.871  12.999
93015W        W66083  40.052  41.570  13.078
93016W        W66084   0.279  35.581   4.575
93017W        W66085  29.503  17.011  12.891
93018W        W66086  28.631  23.777   2.359
93019W        W66087  37.919  22.052  13.509
93020W        W66088  42.901  24.823   4.540
93021W        W66089   9.741  43.402  12.977
93022W        W66090  10.558  16.570  12.847
93023W        W66091  32.096  10.217  12.701
93024W        W66092   0.466  41.688   2.921
93025W        W66093  28.943  36.877  14.335
93026W        W66094  44.001  37.133  12.330
93027W        W66095   8.427  40.700  11.567
93028W        W66096  43.844  15.510  11.542
93029W        W66097  19.646  30.542   4.766
93030W        W66098  22.833  15.687  11.875
93031W        W66099   8.307  35.462  12.387
93032W        W66100  19.539   9.173  12.079
93033W        W66101  41.387   6.877  11.293
93034W        W66102  16.862  28.960   3.749
93035W        W66103  23.450  15.863  10.468
93036W        W66104  31.538  24.045   4.657
93037W        W66105  43.439  18.147   3.401
93038W        W66106  34.835   2.279  12.878
93039W        W66107  33.600  25.645   4.702
93040W        W66108  17.765  32.418  12.909
93041W        W66109   4.714  26.154  11.478
93042W        W66110  38.542  32.462   0.375
93043W        W66111   4.944  31.908   2.450
93044W        W66112   4.857  12.902   9.970
93045W        W66113   3.004  33.125  14.490
93046W        W66114  19.028  21.154   2.277
93047W        W66115  16.112  12.171   3.042
93048W        W66116  10.440  35.293  13.906
93049W        W66117  29.227   0.224  14.971
93050W        W66118  21.926  18.694  14.308
93051W        W66119   3.441  30.960   3.754
93052W        W66120   6.746  18.350  14.448
93053W        W66121  14.129  13.717  14.205
93054W        W66122  12.825  20.168  14.185
93055W        W66123  14.194  22.682   0.969
93056W        W66124   5.852  21.753  10.721
93057W        W66125  35.438  30.632   3.701
93058W        W66126  28.292  21.940  11.683
93059W        W66127   1.330  29.041  13.522
93060W        W66128   5.141  22.318   4.538
93061W        W66129  38.304  43.339   2.697
93062W        W66130  26.101  17.213   4.306
93063W        W66131  11.557  24.874  13.504
93064W        W66132  27.469   7.723  13.763
93065W        W66133  26.656  40.767   4.052
93066W        W66134   6.289   7.899   0.420
93067W        W66135  31.047  27.239   0.876
93068W        W66136  37.420  19.245   1.747
93069W        W66137  10.621  41.980   2.902
93070W        W66138  41.752  20.050   0.710
93071W        W66139   3.716  16.579   4.605
93072W        W66140   7.226  22.279   0.331
93073W        W66141  17.617  30.051   1.381
93074W        W66142  17.527  19.469   2.815
93075W        W66143  12.548   3.731  10.964
93076W        W66144   8.470   6.272   2.856
93077W        W66145  30.095  34.676   4.872
93078W        W66146  11.710  16.768  13.814
93079W        W66147  37.917  42.970   0.270
93080W        W66148  13.052   0.710   2.839
93081W        W66149   5.386  16.774  10.679
93082W        W66150  26.389  35.350  14.492
93083W        W66151   2.757   3.379   3.197
93084W        W66152  44.892  13.038   3.143
93085W        W66153  10.217  28.025   4.721
93086W        W66154   5.749  32.607   3.746
93087W        W66155  38.067   5.671  14.560
93088W        W66156  40.449  32.869   3.337
93089W        W66157  35.856  21.593  11.516
93090W        W66158  22.017  31.477  14.998
93091W        W66159  43.992  21.144   3.871
93092W        W66160  41.016  17.046   0.255
93093W        W66161   3.942  17.737  11.833
93094W        W66162  43.493  15.870  13.913
93095W        W66163  41.345   2.945   1.921
93096W        W66164  11.615  18.505  12.990
93097W        W66165  19.675  26.952  14.903
93098W        W66166  41.636  37.683   0.271
93099W        W66167   0.074  37.791  14.490
93100W        W66168   1.857  24.204  12.644
93101W        W66169  22.518  26.518  12.083
93102W        W66170  14.418  35.857   0.318
93103W        W66171  12.304  42.792  11.354
93104W        W66172  29.272  36.543  12.362
93105W        W66173  10.659  27.083   0.826
93106W        W66174   8.776  35.830  13.916
93107W        W66175   8.185  21.279  10.716
93108W        W66176  11.559  19.584   1.320
93109W        W66177  23.149   5.946   4.043
93110W        W66178  16.022  10.679   3.535
93111W        W66179   3.744  33.792   2.386
93112W        W66180  18.872  21.764  14.358
93113W        W66181  16.465  15.953  10.219
93114W        W66182  41.989  27.113   4.195
93115W        W66183  27.974  27.206   4.033
93116W        W66184  25.123  12.388   0.271
93117W        W66185  33.846  17.557   4.174
93118W        W66186   7.430  24.185  12.216
93119W        W66187   9.953  23.971   2.928
93120W        W66188   3.848  27.952  13.046
93121W        W66189  30.108  12.847   2.623
93122W        W66190  32.435  21.629   2.377
93123W        W66191   1.790   9.151   3.213
93124W        W66192  23.734  17.726   4.557
93125W        W66193  20.836  27.573  13.443
93126W        W66194  39.100  30.065  14.031
93127W        W66195  24.207  26.546  10.646
93128W        W66196  34.593  21.351   2.260
93129W        W66197  33.460  37.509   2.668
93130W        W66198  16.051   7.735  13.417
93131W        W66199  28.946   8.755  13.068
93132W        W66200  10.618  38.470   1.325
93133W        W66201  16.403  10.350   3.673
93134W        W66202   0.237  24.029  12.998
93135W        W66203   4.017   4.777   4.401
93136W        W66204   9.857   1.505  10.390
93137W        W66205  32.750  29.001  12.436
93138W        W66206  10.702  40.915   3.167
93139W        W66207  43.133   8.204   1.314
93140W        W66208  11.214  10.589  10.961
93141W        W66209  32.517  37.793   4.858
93142W        W66210  39.272  10.569   4.243
93143W        W66211  21.260  33.161  10.040
93144W        W66212  21.496  25.477  12.513
93145W        W66213   4.658  25.872  12.433
93146W        W66214  22.589  16.276   0.181
93147W        W66215  10.287  27.024  10.573
93148W        W66216  40.550  23.656   2.382
93149W        W66217   8.406  39.483  13.893
93150W        W66218   6.463  19.349  14.131
93151W        W66219  44.345  41.948  13.401
93152W        W66220   1.350  22.248   3.614
93153W        W66221  38.907   5.954   3.760
93154W        W66222  28.593  17.003  13.892
93155W        W66223  22.100  15.398   4.017
93156W        W66224   5.190  37.845   0.441
93157W        W66225  42.423  37.811  14.562
93158W        W66226  17.140  11.741  12.949
93159W        W66227  21.378  42.411  13.989
93160W        W66228   0.899  31.441  11.627
93161W        W66229   9.603  17.032  13.895
93162W        W66230   8.780   6.642  14.570
93163W        W66231  34.058  16.611  10.851
93164W        W66232  28.722  19.541   2.145
93165W        W66233   8.567   4.820   3.243
93166W        W66234   1.682  41.947  12.006
93167W        W66235   2.078  12.569   2.363
93168W        W66236  16.360  40.527   0.769
93169W        W66237   1.000  11.149  12.310
93170W        W66238   0.374  36.443  13.748
93171W        W66239  35.933   2.944  10.710
93172W        W66240  38.836   2.875  14.073
93173W        W66241  38.046   0.983   2.461
93174W        W66242   4.132  29.862  13.864
93175W        W66243  43.342   6.639  13.322
93176W        W66244  15.059   1.943   0.432
93177W        W66245   6.312  17.260   3.202
93178W        W66246   6.284   0.497  11.843
93179W        W66247   2.205  17.252   4.609
93180W        W66248   4.691   8.705  13.892
93181W        W66249   0.289  18.229  13.037
93182W        W66250   5.808   3.497   1.941
93183W        W66251  35.047  16.805   2.235
93184W        W66252  41.513   7.691  12.057
93185W        W66253  18.452  18.655  10.696
93186W        W66254  26.318  24.624   1.223
93187W        W66255  35.455  24.749  12.063
93188W        W66256  13.266  31.714  13.425
93189W        W66257  38.997  34.416  12.738
93190W        W66258   6.918  24.351   3.967
93191W        W66259   2.283  15.054   3.742
93192W        W66260  37.939  16.028  12.771
93193W        W66261  17.166  18.319  11.479
93194W        W66262  26.780   7.132  11.191
93195W        W66263   0.209  21.097  10.705
93196W        W66264   1.932   4.759  12.027
93197W        W66265  34.639  20.039  10.987
93198W        W66266   2.495  31.461   3.880
93199W        W66267  16.208  27.661  10.447
93200W        W66268  17.255  21.303  13.821
93201W        W66269  31.433   6.785   2.850
93202W        W66270  35.088  19.558   0.682
93203W        W66271  23.221   8.242   4.917
93204W        W66272   3.461  28.322   2.936
93205W        W66273  37.411  30.104  13.516
93206W        W66274  40.363   2.791  14.291
93207W        W66275  15.763  44.357  11.552
93208W        W66276  22.748  33.215  13.389
93209W        W66277  42.042  34.367   3.749
93210W        W66278  32.105  29.023  10.735
93211W        W66279  17.835   1.828   3.937
93212W        W66280   9.879   8.909   2.950
93213W        W66281  43.586  12.778  14.012
93214W        W66282  31.462  34.189   4.536
93215W        W66283  12.795  17.360   1.821
93216W        W66284   8.717  25.207   2.329
93217W        W66285   2.109  40.930  14.288
93218W        W66286  19.275   6.855   4.142
93219W        W66287  33.580  18.134  14.572
93220W        W66288  16.823  26.550   2.823
93221W        W66289  42.323  44.183  14.390
93222W        W66290   1.201   1.433  10.807
93223W        W66291  16.292  13.428   3.697
93224W        W66292  29.160  19.255  12.329
93225W        W66293  23.569  34.353   1.353
93226W        W66294  26.605  11.860   4.583
93227W        W66295  25.089  42.701   1.788
93228W        W66296  31.979  32.049  11.561
93229W        W66297   1.210  33.163   4.595
93230W        W66298  14.561  27.380   4.360
93231W        W66299  37.668  24.588  14.042
93232W        W66300  44.057   9.657  11.175
93233W        W66301  12.804   7.902  14.286
93234W        W66302  34.979  30.195   4.225
93235W        W66303   5.784  33.445  14.367
93236W        W66304  23.859  10.650  12.066
93237W        W66305  42.940  23.784  11.047
93238W        W66306  41.882  20.706  12.074
93239W        W66307   6.693   9.896  13.322
93240W        W66308   3.686  33.556  12.008
93241W        W66309   6.779  20.373  13.346
93242W        W66310  18.101  20.957   0.960
93243W        W66311  22.754   1.679   3.684
93244W        W66312  33.774  33.131   2.138
93245W        W66313   6.311  25.427  12.748
93246W        W66314   0.763  38.167   0.724
93247W        W66315  30.922  25.164  13.885
93248W        W66316  37.458  44.241   3.131
93249W        W66317  24.256   6.407  11.143
93250W        W66318  25.978  28.263   0.848
93251W        W66319   2.466   9.746   3.392
93252W        W66320  20.043  19.158  11.915
93253W        W66321  36.970   5.721   3.299
93254W        W66322  18.385  35.879   1.397
93255W        W66323  11.741  31.985   1.228
93256W        W66324  26.065  34.999  12.878
93257W        W66325   6.632  39.580   3.540
93258W        W66326  13.953  29.937   2.416
93259W        W66327  32.957  29.763  13.356
93260W        W66328   4.101   8.830  10.216
93261W        W66329  39.972  15.364  12.106
93262W        W66330  13.034  12.232   4.621
93263W        W66331  44.774  10.602  14.574
93264W        W66332  16.316   2.048   1.672
93265W        W66333  43.963   0.432  11.918
93266W        W66334  39.399  34.242  14.274
93267W        W66335  32.649  39.078   0.429
93268W        W66336  23.092  13.338  12.789
93269W        W66337  21.595   2.655   4.730
93270W        W66338  25.322   2.983  11.039
93271W        W66339  16.832  38.327   1.481
93272W        W66340  39.617   6.212  12.957
93273W        W66341   7.570  17.641  12.437
93274W        W66342  31.891  16.307   2.413
93275W        W66343  35.410  28.609   0.670
93276W        W66344  26.447   1.032  10.750
93277W        W66345  40.245  19.848  13.878
93278W        W66346   3.020  12.436  12.408
93279W        W66347  11.732  19.520  14.979
93280W        W66348  21.800  18.601   2.713
93281W        W66349  11.753  22.153  10.622
93282W        W66350   9.790  30.001   1.911
93283W        W66351  24.062   1.623   2.679
93284W        W66352  41.693  15.607  11.828
93285W        W66353  28.654   8.830   2.840
93286W        W66354  19.019  15.111   3.789
93287W        W66355   8.104   7.492  12.451
93288W        W66356  34.349  15.774   0.957
93289W        W66357  18.874  16.593  10.592
93290W        W66358  25.157  11.849   0.335
93291W        W66359   2.724  25.170  10.815
93292W        W66360  22.922  13.855   4.459
93293W        W66361  11.780  10.826   0.876
93294W        W66362  42.246  23.600   2.597
93295W        W66363  27.011  11.323   0.225
93296W        W66364  15.279  42.034   0.708
93297W        W66365  34.550  42.976   2.738
93298W        W66366  26.680  22.261   2.884
93299W        W66367  42.568  19.617  10.857
93300W        W66368  30.020  40.471  14.052
93301W        W66369   1.175  19.010  13.922
93302W        W66370  23.094  42.322   2.380
93303W        W66371   4.705  26.149  10.972
93304W        W66372  13.645  34.349   0.390
93305W        W66373  14.386  29.026   3.094
93306W        W66374  15.635  26.341  13.965
93307W        W66375  42.003  28.274  11.635
93308W        W66376  22.630   8.115   1.335
93309W        W66377   2.037  31.459  14.012
93310W        W66378   2.172  41.952  10.707
93311W        W66379  40.338  10.980   2.284
93312W        W66380  21.038  26.761   1.255
93313W        W66381   7.794  17.670   2.200
93314W        W66382   0.907  37.182   2.402
93315W        W66383  14.105   0.891  12.290
93316W        W66384  10.413  43.337  14.426
93317W        W66385  29.853   4.603   4.417
93318W        W66386  39.593  24.181  13.891
93319W        W66387  20.851   3.371  14.982
93320W        W66388  14.739  18.835   2.280
93321W        W66389  40.730  11.704  12.445
93322W        W66390  19.252  28.085  12.241
93323W        W66391  36.821  42.779   0.214
93324W        W66392  11.610  14.276   0.855
93325W        W66393  31.379  38.391   4.702
93326W        W66394  40.838  19.164  14.745
93327W        W66395  43.396  37.057   0.172
93328W        W66396  11.482  33.182  12.372
93329W        W66397  22.674   0.861   4.400
93330W        W66398  12.644   1.366   3.323
93331W        W66399  11.381  19.997  12.655
93332W        W66400  43.439  27.131   2.552
93333W        W66401  23.958  34.568  13.576
93334W        W66402  20.293  31.664   1.217
93335W        W66403  22.580   6.865   4.394
93336W        W66404   0.872  23.383  11.143
93337W        W66405  24.936  26.417   2.369
93338W        W66406  36.427  41.489  14.961
93339W        W66407   3.744  21.011   4.591
93340W        W66408  26.442  24.422  12.944
93341W        W66409  28.254   0.480   3.802
93342W        W66410  15.562  23.648  12.938
93343W        W66411  40.389  28.392  11.912
93344W        W66412  14.307  26.921   0.503
93345W        W66413   6.637  38.967  13.324
93346W        W66414   5.952  44.917   1.843
93347W        W66415  10.228  27.303  11.030
93348W        W66416  31.965   9.411  13.860
93349W        W66417  34.480  22.664   0.255
93350W        W66418  16.626  18.581   1.332
93351W        W66419   4.122  41.454  13.873
93352W        W66420  20.126  38.061   1.009
93353W        W66421   1.719   3.941  12.944
93354W        W66422  15.179   1.650   2.462
93355W        W66423  22.054  34.523   3.934
93356W        W66424  23.721  37.138   0.506
93357W        W66425  23.975  28.080   0.439
93358W        W66426  17.949   4.330   2.459
93359W        W66427  22.087  16.804  13.006
93360W        W66428  28.596   6.294  13.899
93361W        W66429  30.858  35.104  13.756
93362W        W66430   5.656  41.325   0.738
93363W        W66431  38.601   8.599   0.345
93364W        W66432  27.569  17.173  12.128
93365W        W66433  34.923  42.744  13.986
93366W        W66434  33.608  38.863   4.543
93367W        W66435  23.401  17.495   1.244
93368W        W66436   2.413  33.427   4.520
93369W        W66437   6.702  34.887   0.903
93370W        W66438  37.059   0.659  12.821
93371W        W66439  21.169   0.990   4.939
93372W        W66440  30.230   7.302   0.378
93373W        W66441  34.384  30.675   4.575
93374W        W66442  31.992   4.468  10.702
93375W        W66443  24.156  17.723   4.853
93376W        W66444  36.923  35.979   2.465
93377W        W66445  26.484  22.510  12.555
93378W        W66446  39.782  41.211  11.902
93379W        W66447   7.366  17.803   3.337
93380W        W66448  35.346  43.309  14.773
93381W        W66449  26.245  37.137   1.199
93382W        W66450  23.950  20.360   5.528
93383W        W66451   2.773   2.946  10.693
93384W        W66452  43.995  32.479  14.480
93385W        W66453  28.013  10.910   4.581
93386W        W66454  31.434  28.765  13.216
93387W        W66455  15.351  42.790  11.620
93388W        W66456   7.294  16.833   2.251
93389W        W66457  41.861   2.334   3.611
93390W        W66458  43.532  16.219  14.311
93391W        W66459  21.228  21.534   2.193
93392W        W66460  15.084  40.042  11.304
93393W        W66461  12.726  20.773   1.333
93394W        W66462  21.106  30.020  12.201
93395W        W66463  14.837   8.873  11.016
93396W        W66464  32.926  29.360  14.289
93397W        W66465  28.571  28.325   4.733
93398W        W66466  43.513  39.397   2.263
93399W        W66467  42.965  43.331   0.462
93400W        W66468  43.754  18.752  11.167
93401W        W66469   4.601  21.988   3.158
93402W        W66470  19.743  15.360   1.462
93403W        W66471  14.723  31.171  12.628
93404W        W66472  38.311  11.365   0.689
93405W        W66473  25.486  41.069   1.424
93406W        W66474  31.366  19.147  12.654
93407W        W66475  24.030   0.858   3.330
93408W        W66476  24.535  40.513  13.874
93409W        W66477  44.832  40.351   0.980
93410W        W66478   6.661  26.938   3.561
93411W        W66479  12.743  28.980   0.528
93412W        W66480   5.939  10.601   3.184
93413W        W66481  17.952  44.034   0.854
93414W        W66482  14.116  42.754  11.048
93415W        W66483   3.964  19.663   4.083
93416W        W66484  12.451   7.884  12.995
93417W        W66485   2.376  38.141  14.943
93418W        W66486  34.065  19.605  14.099
93419W        W66487  37.806  39.932  10.227
93420W        W66488  22.222  34.743  12.867
93421W        W66489  34.854  19.329  13.400
93422W        W66490  35.626  31.826   0.470
93423W        W66491  32.050  34.083   3.869
93424W        W66492  34.462   7.620   4.301
93425W        W66493   1.513  27.991   1.667
93426W        W66494  42.000  22.632   1.314
93427W        W66495  34.109  35.048  10.600
93428W        W66496  44.471  41.306   3.896
93429W        W66497  37.494   5.186   0.663
93430W        W66498  36.516   6.374   2.714
93431W        W66499  22.577  30.968   0.527
93432W        W66500  44.825  15.977   2.654
93433W        W66501  31.997  19.643   1.480
93434W        W66502  42.781  36.653  13.443
93435W        W66503  17.681  40.318  14.444
93436W        W66504  10.128  28.078   3.831
93437W        W66505  31.374   8.720   1.903
93438W        W66506  36.471   4.519  13.381
93439W        W66507   9.813  23.002  11.160
93440W        W66508  35.402  36.407  13.083
93441W        W66509  35.905  34.546   4.362
93442W        W66510  26.070   7.195   0.383
93443W        W66511  20.893  43.575  12.868
93444W        W66512  33.047  35.629   4.871
93445W        W66513  18.253   8.799   2.178
93446W        W66514  15.401  11.342   2.960
93447W        W66515  25.065   0.954  10.636
93448W        W66516   3.233   3.154  10.593
93449W        W66517  12.686  20.157  11.783
93450W        W66518   2.475  36.862   4.225
93451W        W66519  13.525   7.402   5.051
93452W        W66520  25.105  33.584  11.791
93453W        W66521  36.594  20.584   4.578
93454W        W66522   3.232  18.776   4.172
93455W        W66523  31.964  38.099  13.921
93456W        W66524  34.530   9.632   3.245
93457W        W66525   7.721  26.011   0.181
93458W        W66526  11.617  18.754  10.438
93459W        W66527  42.521  40.264  12.594
93460W        W66528  15.166  12.322   0.768
93461W        W66529  18.720  12.022   2.202
93462W        W66530  16.332  37.626   3.143
93463W        W66531   8.618  40.434   1.055
93464W        W66532  11.977   7.017  11.180
93465W        W66533  16.062  10.060   0.291
93466W        W66534  13.652  15.291  14.753
93467W        W66535  36.931  36.470   4.090
93468W        W66536  13.146  16.089   4.539
93469W        W66537  12.396   5.873   3.730
93470W        W66538  42.258  33.951   0.426
93471W        W66539  19.865  32.328   5.140
93472W        W66540  22.161  26.539   3.546
93473W        W66541  27.981  11.943  10.227
93474W        W66542   6.986  40.991  13.885
93475W        W66543  25.229   1.977  13.323
93476W        W66544  40.517  33.491  13.539
93477W        W66545  15.825   5.376  14.010
93478W        W66546   5.205  38.823   0.385
93479W        W66547  42.090  40.573   2.839
93480W        W66548  24.530  20.958   1.218
93481W        W66549  36.853  17.842  12.584
93482W        W66550  13.855  20.874   3.680
93483W        W66551  17.991  19.573   3.799
93484W        W66552  21.850  27.969   3.067
93485W        W66553  24.197   3.914   3.088
93486W        W66554  11.605  15.360   1.739
93487W        W66555  20.557  12.700  12.704
93488W        W66556   8.789  39.932   1.181
93489W        W66557  17.617  34.561  13.732
93490W        W66558   4.905  40.969  12.284
93491W        W66559  27.933  41.935   2.742
93492W        W66560   8.643  31.204   2.358
93493W        W66561  23.661  17.810   5.072
93494W        W66562  14.638   7.711   0.662
93495W        W66563  36.782  30.588   2.370
93496W        W66564   2.760  32.220  11.249
93497W        W66565  41.390  29.425  12.783
93498W        W66566   3.150  29.182   3.210
93499W        W66567  27.242  18.777  11.197
93500W        W66568  19.671   3.944   1.201
93501W        W66569  22.380   0.591   9.749
93502W        W66570   7.259  18.815   4.131
93503W        W66571  43.033   2.404  10.760
93504W        W66572  21.009   1.039   5.428
93505W        W66573  31.596  37.620  13.504
93506W        W66574  39.877  35.279  12.966
93507W        W66575  17.623  22.044   2.361
93508W        W66576  38.911  37.313   2.783
93509W        W66577  26.025  11.502  14.792
93510W        W66578   2.051  39.804   2.102
93511W        W66579  30.622   4.821  13.052
93512W        W66580  19.439  32.116  11.691
93513W        W66581  22.743   2.064   1.851
93514W        W66582  18.740   9.639  14.457
93515W        W66583  17.377  26.600  10.934
93516W        W66584  41.568   6.257   3.324
93517W        W66585  28.242  25.484  13.788
93518W        W66586  39.991  13.642   4.248
93519W        W66587   1.096  26.388   2.209
93520W        W66588  42.247  20.711   3.658
93521W        W66589  27.199  44.480  12.020
93522W        W66590  39.072  26.190   1.352
93523W        W66591  40.495  13.451   1.668
93524W        W66592  26.648   2.423  13.879
93525W        W66593  34.027   3.886   1.013
93526W        W66594  24.734  12.169  10.712
93527W        W66595  44.585   5.686   0.753
93528W        W66596  37.305  39.460   4.668
93529W        W66597  13.755   5.868   4.606
93530W        W66598  10.635  41.072  11.955
93531W        W66599  42.001  19.736  14.748
93532W        W66600  10.759  39.565  12.817
93533W        W66601  11.705   1.701   1.327
93534W        W66602   7.166  22.173  12.434
93535W        W66603  36.281  44.346   1.813
93536W        W66604  39.200  10.917  10.659
93537W        W66605   3.790   2.666  12.416
93538W        W66606  29.115  24.639   1.577
93539W        W66607  23.619  20.026   3.794
93540W        W66608  10.383  44.765   0.459
93541W        W66609  32.479  13.125   1.139
93542W        W66610   6.804  39.199  11.798
93543W        W66611  21.101   6.948  13.590
93544W        W66612  32.588  15.062   3.257
93545W        W66613  43.292  24.640  12.947
93546W        W66614  28.468  41.848  11.169
93547W        W66615  14.771  35.646   4.173
93548W        W66616  43.826  19.264  11.170
93549W        W66617  13.404  27.019  11.998
93550W        W66618  37.019  42.328  12.857
93551W        W66619  10.751  42.349  12.157
93552W        W66620   9.900  36.902  12.832
93553W        W66621  43.719  44.924   2.326
93554W        W66622  37.317  34.152  11.884
93555W        W66623   1.886  19.190   3.746
93556W        W66624  17.082  36.554  10.302
93557W        W66625  22.679   0.377   3.169
93558W        W66626  27.219  14.700  14.427
93559W        W66627  37.306  27.608  10.006
93560W        W66628  32.599  21.389  13.747
93561W        W66629  41.263  21.672   2.627
93562W        W66630  15.681   7.251   4.762
93563W        W66631  14.856  13.594   1.873
93564W        W66632   4.838   4.147  12.525
93565W        W66633  35.859  19.051  14.238
93566W        W66634  25.598  22.032  13.518
93567W        W66635  28.615  20.189   4.780
93568W        W66636  18.711  27.678  14.813
93569W        W66637  40.240   6.727   3.866
93570W        W66638  26.904   6.190  14.418
93571W        W66639  17.729  28.084   0.047
93572W        W66640  36.228  17.962   0.258
93573W        W66641  43.559  32.841  13.743
93574W        W66642   8.621  32.752  12.029
93575W        W66643   0.731  36.281   2.936
93576W        W66644   7.381  15.129   4.604
93577W        W66645  19.662  31.499   0.906
93578W        W66646  16.269  36.052   1.934
93579W        W66647   8.758  33.174   2.179
93580W        W66648  42.796   7.683  13.995
93581W        W66649  42.536  35.400   0.224
93582W        W66650  38.891  39.896   0.841
93583W        W66651  41.313  27.346  14.027
93584W        W66652   8.643  43.757  11.208
93585W        W66653  27.233  22.333   1.676
93586W        W66654  14.239  33.644   1.768
93587W        W66655  23.971  34.728  14.415
93588W        W66656  33.179   7.549  14.053
93589W        W66657  43.736  17.264   3.669
93590W        W66658  15.719  13.431  13.411
93591W        W66659  42.320   8.493  14.264
93592W        W66660  10.318  25.075  13.824
93593W        W66661  17.393   6.838  10.913
93594W        W66662  44.272  26.137   3.293
93595W        W66663  11.264   9.376   3.349
93596W        W66664   8.296  41.359  10.705
93597W        W66665  19.864  42.812   5.249
93598W        W66666  18.653   4.687   3.760
93599W        W66667  37.997  28.593   0.483
93600W        W66668  38.738  12.428  13.576
93601W        W66669  12.292  42.093   2.765
93602W        W66670  22.818   4.242   1.340
93603W        W66671  35.143  34.548   3.705
93604W        W66672   7.185  12.613   3.401
93605W        W66673  13.095   2.677  13.868
93606W        W66674  36.659  37.871  14.388
93607W        W66675  15.816  38.621   3.684
93608W        W66676  10.652  30.359  13.709
93609W        W66677  41.240  11.057  12.889
93610W        W66678  16.551  30.472   4.375
93611W        W66679  10.875  23.113   2.659
93612W        W66680  38.784  31.114   0.837
93613W        W66681  41.435  38.006  11.579
93614W        W66682  41.380   5.595  14.962
93615W        W66683  27.066  21.791  14.476
93616W        W66684  29.637  15.269   3.631
93617W        W66685   9.111  44.759   3.906
93618W        W66686  20.795  13.488  12.346
93619W        W66687  32.087  41.797   2.488
93620W        W66688  16.840   2.022   2.344
93621W        W66689  21.138  38.370   0.444
93622W        W66690  17.521  13.346   4.252
93623W        W66691  27.932  29.231   1.398
93624W        W66692  27.698  40.843  13.370
93625W        W66693  11.268  39.855  14.946
93626W        W66694  41.907  26.067   4.857
93627W        W66695  32.011   0.441  14.413
93628W        W66696   8.634  25.478   3.261
93629W        W66697  27.769  13.215   4.219
93630W        W66698  42.342   2.328   3.855
93631W        W66699   7.243  32.580  13.100
93632W        W66700  29.483  11.932  13.041
93633W        W66701  36.402  14.900   0.767
93634W        W66702  10.215  44.118   5.124
93635W        W66703  16.372   8.200   1.378
93636W        W66704  42.441  38.338   4.540
93637W        W66705  34.664  13.031  12.849
93638W        W66706  36.792  18.802   4.208
93639W        W66707  39.761  27.906  10.826
93640W        W66708   1.143  22.047  12.584
93641W        W66709  35.649  33.956   2.168
93642W        W66710  28.193  27.084  13.856
93643W        W66711  11.757   4.193   2.880
93644W        W66712   9.150   1.056   3.004
93645W        W66713  17.727  34.577   1.903
93646W        W66714  27.943  41.435   4.538
93647W        W66715  43.718  14.159  14.851
93648W        W66716  17.213  21.713   2.856
93649W        W66717  37.636   1.407  12.457
93650W        W66718  22.119  42.407   0.183
93651W        W66719  29.910  40.304   4.135
93652W        W66720  25.042   8.393   2.738
93653W        W66721  29.209  22.741  10.631
93654W        W66722  15.188  42.245  13.027
93655W        W66723  28.461  19.727   2.585
93656W        W66724  25.980  34.301   1.347
93657W        W66725  22.753   2.029   2.798
93658W        W66726  23.676  11.283   3.734
93659W        W66727   2.940  13.120   1.389
93660W        W66728  12.139  38.041   1.367
93661W        W66729  40.377  30.039  13.324
93662W        W66730  11.988   6.386   2.220
93663W        W66731  14.945  12.582  10.137
93664W        W66732  10.138   5.782   3.136
93665W        W66733   4.501  18.676   0.914
93666W        W66734  34.880   9.317  14.292
93667W        W66735  17.018  26.673   0.299
93668W        W66736  29.513   2.968  14.975
93669W        W66737   7.787   0.403   3.039
93670W        W66738  12.881  17.692  13.918
93671W        W66739   0.568  13.872  14.417
93672W        W66740  44.476  43.935   1.186
93673W        W66741  41.085  29.644   1.260
93674W        W66742  17.327  40.877  12.829
93675W        W66743  40.101  28.635  14.373
93676W        W66744  38.378  23.653   0.282
93677W        W66745  25.444  16.380  12.031
93678W        W66746  30.665  12.244   4.624
93679W        W66747  22.495  37.397   1.181
93680W        W66748   3.176  19.591   3.714
93681W        W66749  32.531   0.249  14.722
93682W        W66750  17.790  25.731   1.758
93683W        W66751  19.282  40.764  10.679
93684W        W66752  25.533  33.181   4.099
93685W        W66753  38.309  29.241  11.135
93686W        W66754   7.104  25.683   4.112
93687W        W66755  15.068  43.308  14.825
93688W        W66756  36.423   1.209  12.850
93689W        W66757  39.293  14.196   3.320
93690W        W66758   3.451  21.601  13.529
93691W        W66759  20.543  10.386  13.957
93692W        W66760  43.330   8.468   1.748
93693W        W66761  33.434  25.735   2.384
93694W        W66762   8.663   0.851  12.834
93695W        W66763   6.767  12.845   1.125
93696W        W66764  19.235  41.967   3.326
93697W        W66765  44.762  42.002  13.723
93698W        W66766   9.736   6.327   4.612
93699W        W66767   8.934  27.640   4.612
93700W        W66768  21.133  25.928   2.240
93701W        W66769  39.355  27.751  11.423
93702W        W66770   0.968  33.331  12.524
93703W        W66771  39.475  14.584  11.717
93704W        W66772   3.693  35.463  13.067
93705W        W66773  39.069  30.985  14.783
93706W        W66774  31.419   3.767   0.861
93707W        W66775  12.484  29.503   2.818
93708W        W66776  32.021  39.739   0.949
93709W        W66777  30.572  28.917  13.343
93710W        W66778  15.748  32.378  11.727
93711W        W66779  24.326  28.596  13.609
93712W        W66780  26.382   9.337  10.760
93713W        W66781  26.877   1.925  10.827
93714W        W66782  26.700  38.418  10.631
93715W        W66783  31.558  16.853  14.113
93716W        W66784  33.616  38.954   1.506
93717W        W66785  41.454  39.188   1.146
93718W        W66786  16.486  31.747   2.528
93719W        W66787  43.894  20.037  10.766
93720W        W66788  10.305   5.291   2.441
93721W        W66789   9.617  28.112   3.911
93722W        W66790   4.131   3.552  14.054
93723W        W66791  18.565  27.863   1.669
93724W        W66792  12.466   3.402  10.548
93725W        W66793  13.488  27.418   1.341
93726W        W66794  31.090  29.867  10.715
93727W        W66795   2.161  39.390  13.009
93728W        W66796  44.881  37.302   4.756
93729W        W66797  42.061   6.312   3.219
93730W        W66798  14.394  30.540  11.960
93731W        W66799  28.455   6.360   1.191
93732W        W66800  40.877  34.668   2.042
93733W        W66801  21.277  20.205   3.324
93734W        W66802  35.977  44.887  11.214
93735W        W66803  13.663  36.902  12.580
93736W        W66804  11.627  28.103   2.680
93737W        W66805  42.309  18.493  12.888
93738W        W66806  37.882  19.139   0.743
93739W        W66807  27.557  35.959   3.316
93740W        W66808  10.325  14.618   1.986
93741W        W66809   4.940   8.288  14.975
93742W        W66810   8.831   4.263  12.572
93743W        W66811  21.584  10.420   4.501
93744W        W66812  36.313   6.317   3.175
93745W        W66813  20.759   9.412  13.789
93746W        W66814  44.994  17.532   4.838
93747W        W66815   9.307   1.293  12.142
93748W        W66816  33.109  17.048   4.453
93749W        W66817   8.195   9.265   0.918
93750W        W66818  23.048   5.662   1.491
93751W        W66819  20.667  41.467   2.636
93752W        W66820  37.187   7.976   3.245
93753W        W66821  16.593  13.823  13.904
93754W        W66822  25.187  16.245   4.663
93755W        W66823   7.669  36.972   0.926
93756W        W66824   0.368  32.056  12.670
93757W        W66825  20.402  11.210   2.418
93758W        W66826  30.567  21.651   4.280
93759W        W66827   3.638   7.256   4.535
93760W        W66828   1.004  18.799  11.595
93761W        W66829  41.305  17.327   3.753
93762W        W66830  34.125  29.203   4.347
93763W        W66831  32.075  25.123   3.798
93764W        W66832  25.502  41.860  10.349
93765W        W66833   2.358  43.774  11.740
93766W        W66834   9.745  38.333  13.384
93767W        W66835  23.709  41.809   3.816
93768W        W66836  19.840  23.031   4.172
93769W        W66837  20.551   8.084  14.409
93770W        W66838  19.880   0.457   3.972
93771W        W66839  32.152  42.301   1.752
93772W        W66840  30.764   2.757   4.150
93773W        W66841  14.249  23.918  10.377
93774W        W66842  18.218   7.509   1.353
93775W        W66843   7.226  31.043   0.633
93776W        W66844  36.911  14.896   1.428
93777W        W66845  16.053  13.164  10.624
93778W        W66846  35.978   6.191  10.711
93779W        W66847  23.252   3.004   3.641
93780W        W66848  22.236   0.825   1.484
93781W        W66849   3.521   4.121   3.782
93782W        W66850   4.880   9.292  14.769
93783W        W66851  25.030  30.092   2.816
93784W        W66852   1.420  24.838  13.047
93785W        W66853   1.521  39.376  14.761
93786W        W66854  35.745   1.411  11.141
93787W        W66855  18.609  39.116   4.179
93788W        W66856  16.276  31.912  10.632
93789W        W66857   1.212  24.469  11.628
93790W        W66858  11.545  31.374   2.439
93791W        W66859   0.085  40.003  10.736
93792W        W66860  15.660  38.949   2.386
93793W        W66861  30.311  10.415  12.138
93794W        W66862   8.996  42.027   9.732
93795W        W66863  27.489  18.063   0.346
93796W        W66864   7.440  34.038   1.146
93797W        W66865  19.989  21.512   0.201
93798W        W66866  22.076  10.784   4.120
93799W        W66867  11.391   9.841   1.186
93800W        W66868   4.191  25.971  11.117
93801W        W66869  24.740   2.340  14.007
93802W        W66870  10.644  26.933  13.903
93803W        W66871  22.048   2.696  14.786
93804W        W66872   6.643  17.843  12.900
93805W        W66873  33.369  13.604   2.809
93806W        W66874  26.006  19.583  14.469
93807W        W66875  42.276  24.753  12.916
93808W        W66876  18.825  20.272   1.267
93809W        W66877  39.911  26.684   3.694
93810W        W66878  23.258  10.393  14.276
93811W        W66879  42.259  39.462   0.898
93812W        W66880  35.208  29.105   1.584
93813W        W66881  31.943  23.320  11.903
93814W        W66882  31.173  17.853   2.222
93815W        W66883  29.537  33.104  10.826
93816W        W66884  38.307   1.770  12.595
93817W        W66885  39.350  14.143  11.218
93818W        W66886  32.373  19.844  12.022
93819W        W66887  34.538   2.467  14.716
93820W        W66888  27.533  23.674   4.209
93821W        W66889  39.434   7.162  10.216
93822W        W66890  43.774  30.397   0.487
93823W        W66891   1.951  17.711   4.813
93824W        W66892  18.749  34.058   3.856
93825W        W66893  34.979   8.821  14.328
93826W        W66894   0.498  38.466   2.881
93827W        W66895  32.908  36.536   3.242
93828W        W66896  31.859  21.471   3.183
93829W        W66897   4.911  36.027  13.467
93830W        W66898  27.159  15.790   0.415
93831W        W66899  25.116   4.008   4.477
93832W        W66900  15.054  31.110  10.773
93833W        W66901  10.634  12.703   0.137
93834W        W66902  40.786  11.613  11.518
93835W        W66903  35.922  33.944  11.718
93836W        W66904  10.642  13.620  11.100
93837W        W66905  23.180   9.895   1.409
93838W        W66906  18.565  37.416  10.060
93839W        W66907   9.400   1.638   1.081
93840W        W66908  33.365  22.713   4.171
93841W        W66909  22.083  12.213   4.552
93842W        W66910   9.073  16.561   2.907
93843W        W66911  36.056  25.704   0.360
93844W        W66912   1.770  23.699   4.132
93845W        W66913   7.635  14.614   0.013
93846W        W66914  24.148  36.926   0.818
93847W        W66915   1.516  25.965  11.446
93848W        W66916  40.930   5.575  12.775
93849W        W66917   7.413  33.459   0.963
93850W        W66918  32.874   2.775   1.690
93851W        W66919  33.905  25.671  10.870
93852W        W66920  14.248  34.967   0.314
93853W        W66921  25.825   8.085  11.556
93854W        W66922  30.485  17.248  10.653
93855W        W66923  25.641  12.759   4.620
93856W        W66924  24.288  40.765  10.662
93857W        W66925  16.271  16.220   1.258
93858W        W66926   4.945  28.930  10.929
93859W        W66927   0.484  32.807   2.828
93860W        W66928  31.754  31.321  11.655
93861W        W66929  16.000  22.175   4.315
93862W        W66930   5.209   7.719   4.264
93863W        W66931  31.557  44.781  10.609
93864W        W66932  34.359   3.368  14.807
93865W        W66933   8.243  20.240   0.019
93866W        W66934  12.598  25.879   1.891
93867W        W66935  40.441  32.517  10.989
93868W        W66936  23.568  32.107  13.437
93869W        W66937  25.176   2.487  11.054
93870W        W66938  18.898  40.781   3.737
93871W        W66939   0.878  28.181   3.790
93872W        W66940  23.641  22.748   3.237
93873W        W66941   9.391  37.091   3.212
93874W        W66942  39.449  41.291   1.924
93875W        W66943   9.959   4.970  12.379
93876W        W66944   3.856  39.871   4.757
93877W        W66945  25.935   9.950   9.705
93878W        W66946  10.424  31.451   4.096
93879W        W66947  43.426  29.164  14.053
93880W        W66948  42.582  31.715  10.089
93881W        W66949  44.717  35.578   3.247
93882W        W66950  12.569   1.490   3.948
93883W        W66951  21.642  37.116   2.255
93884W        W66952  24.987  25.447  14.553
93885W        W66953   6.753  37.679   1.038
93886W        W66954  32.317  26.106   2.302
93887W        W66955  21.180   6.298   3.239
93888W        W66956  13.261   7.375  13.864
93889W        W66957  32.932  41.456  10.397
93890W        W66958   4.673  18.110   3.179
93891W        W66959  22.756  21.137   1.956
93892W        W66960  31.515  30.810  12.627
93893W        W66961   1.376  33.653   1.033
93894W        W66962  31.873  17.216   0.900
93895W        W66963  20.075  21.131   1.422
93896W        W66964   0.989  39.193  13.879
93897W        W66965  24.625  11.107   1.418
93898W        W66966   6.558  35.069   1.410
93899W        W66967  19.302   1.157  12.076
93900W        W66968  25.451   0.625  12.452
93901W        W66969   0.860  24.395  10.872
93902W        W66970  21.710  37.880  10.774
93903W        W66971   7.788  29.188   2.231
93904W        W66972   3.920  18.657  14.830
93905W        W66973   4.649  15.303   3.765
93906W        W66974  11.380  22.556  13.622
93907W        W66975  44.007   0.283   2.093
93908W        W66976  18.653  14.241   4.182
93909W        W66977  16.220  31.182  13.698
93910W        W66978  30.201  37.975  13.725
93911W        W66979  31.532  10.743   3.186
93912W        W66980  38.589   4.354   3.725
93913W        W66981  31.831  40.490   3.209
93914W        W66982  24.250  22.225  14.330
93915W        W66983  35.445  43.538   3.728
93916W        W66984  17.076  20.180   2.382
93917W        W66985  39.407   1.657  10.644
93918W        W66986  34.324  23.644  11.706
93919W        W66987  44.624   8.468   3.406
93920W        W66988  21.861   6.831   1.416
93921W        W66989   5.435  21.668  12.968
93922W        W66990  13.202  35.675  11.597
93923W        W66991   4.741  23.094   1.918
93924W        W66992  31.191   7.285   4.625
93925W        W66993  41.745  11.594   0.437
93926W        W66994  16.091  42.118   1.756
93927W        W66995   0.250   0.716   2.454
93928W        W66996   6.273  38.208  11.032
93929W        W66997  29.615   9.825   3.780
93930W        W66998  34.533  22.709  14.756
93931W        W66999   9.778  44.818   4.503
93932W        W67000  22.777  43.697  13.833
93933W        W67001   8.818   1.268   1.695
93934W        W67002  13.978  40.822  13.421
93935W        W67003  17.166  38.716  12.488
93936W        W67004  38.986  27.994   4.621
93937W        W67005  17.139  31.731   2.954
93938W        W67006  20.319  13.984  13.799
93939W        W67007  22.149  34.253  12.856
93940W        W67008   1.295  18.400  13.184
93941W        W67009  16.038   9.685   3.223
93942W        W67010   6.464  18.539   2.696
93943W        W67011  19.592  11.483  11.163
93944W        W67012  17.539  37.266   4.087
93945W        W67013  21.047   2.651   0.164
93946W        W67014  13.836   4.297  15.000
93947W        W67015  12.668  11.695  13.268
93948W        W67016  23.704  34.853   0.794
93949W        W67017  12.953  19.702  11.422
93950W        W67018  29.870   7.905   0.929
93951W        W67019  37.295  28.054   3.215
93952W        W67020  33.307  39.890   1.897
93953W        W67021  32.541  18.264   2.101
93954W        W67022  37.650   3.914   0.746
93955W        W67023  21.796  12.243  12.996
93956W        W67024   8.316  42.591   2.842
93957W        W67025   6.918  20.240   1.725
93958W        W67026  15.750  17.688   0.288
93959W        W67027   9.652  23.126  10.695
93960W        W67028  13.315  28.879  13.860
93961W        W67029  28.114  26.723  14.816
93962W        W67030  23.567   8.605  14.995
93963W        W67031  29.522  16.374   4.878
93964W        W67032  10.987  22.614   2.468
93965W        W67033  40.861  26.005   1.108
93966W        W67034  29.339  11.158   2.756
93967W        W67035  34.180  43.017  14.822
93968W        W67036  30.654  21.544   1.317
93969W        W67037  23.539  28.424  12.059
93970W        W67038  31.278  42.501   3.457
93971W        W67039   0.901  30.346   2.649
93972W        W67040   4.815   0.689  14.981
93973W        W67041   2.659  31.506   2.721
93974W        W67042  28.431  20.662   1.426
93975W        W67043  19.518  36.633   1.940
93976W        W67044  39.505  14.845   4.551
93977W        W67045  31.419  25.545   4.202
93978W        W67046   0.218  28.392  13.394
93979W        W67047  40.639  12.633   5.058
93980W        W67048  27.099  25.998   0.759
93981W        W67049   9.696  14.166   4.994
93982W        W67050  30.879  31.126   2.782
93983W        W67051  44.604  29.440  12.609
93984W        W67052  10.881  17.197   0.189
93985W        W67053  36.672   8.840   3.343
93986W        W67054  36.460  42.321  10.806
93987W        W67055  21.272  20.869  10.113
93988W        W67056  29.580  33.408   4.635
93989W        W67057  14.441   2.160   1.971
93990W        W67058  15.044  15.711  14.446
93991W        W67059  26.577  24.589  13.416
93992W        W67060  20.498  14.497  13.868
93993W        W67061  28.691  11.316  12.521
93994W        W67062  44.443   9.415   4.176
93995W        W67063  44.431   0.905  13.520
93996W        W67064   2.761   7.789  12.724
93997W        W67065   9.336  32.369  14.722
93998W        W67066  12.447  25.522   5.085
93999W        W67067  12.097  38.184   0.531
94000W        W67068  40.206   7.413  14.638
94001W        W67069   8.695  21.181  14.456
94002W        W67070   0.648  19.875   4.199
94003W        W67071   1.479  16.312   0.841
94004W        W67072  31.561   4.435  13.018
94005W        W67073  39.123  33.351  10.698
94006W        W67074  41.342   7.945   3.581
94007W        W67075  42.001  42.656   1.284
94008W        W67076  31.396  12.948  12.447
94009W        W67077  31.303   7.727   1.923
94010W        W67078  29.580  24.588   0.216
94011W        W67079   5.909  15.579  12.093
94012W        W67080  39.923  15.899   1.779
94013W        W67081  18.500  17.810   3.680
94014W        W67082  31.176  39.603  14.018
94015W        W67083  18.653   4.206  13.796
94016W        W67084  26.101  27.988  12.508
94017W        W67085  31.829  31.480   3.653
94018W        W67086  43.827  36.474  11.539
94019W        W67087  18.753   9.289  12.464
94020W        W67088  37.911  12.777   2.556
94021W        W67089  10.244   9.724  12.605
94022W        W67090  40.502   3.445   0.836
94023W        W67091  14.764  42.725   3.673
94024W        W67092  36.435   3.861   4.476
94025W        W67093   6.804  21.985   0.376
94026W        W67094  41.489  36.901  13.024
94027W        W67095  11.810  34.639   4.974
94028W        W67096  11.252  11.440  11.601
94029W        W67097  33.039  13.996   1.264
94030W        W67098  27.381  18.163   0.847
94031W        W67099  17.838  35.367  11.217
94032W        W67100  41.233  36.584   4.099
94033W        W67101  12.200  44.066   0.455
94034W        W67102  22.067   9.151   1.754
94035W        W67103  22.014  22.796  12.416
94036W        W67104  38.875  35.567   1.684
94037W        W67105  22.995  35.675   4.685
94038W        W67106  40.761  36.283  13.476
94039W        W67107  25.083  31.678   3.723
94040W        W67108   2.823   2.032   3.658
94041W        W67109  41.438  43.934  11.621
94042W        W67110  20.763  30.188  13.203
94043W        W67111  17.764   8.972   0.444
94044W        W67112  39.879  23.932   1.766
94045W        W67113  17.146  41.266   3.512
94046W        W67114  22.442  42.898   3.647
94047W        W67115  12.107  19.983   3.646
94048W        W67116  14.240  20.579  12.323
94049W        W67117  19.238  31.934   4.348
94050W        W67118  10.381   4.419  13.592
94051W        W67119  38.078  38.422  13.787
94052W        W67120  32.096  21.784  14.985
94053W        W67121  28.172  14.132  14.306
94054W        W67122  11.811  23.112   3.160
94055W        W67123  44.946  25.586  12.828
94056W        W67124  13.679  16.816   1.892
94057W        W67125  30.569  43.371   0.259
94058W        W67126  10.647  38.810   3.330
94059W        W67127  27.726  16.511  11.035
94060W        W67128   7.952  41.200   4.104
94061W        W67129   8.679  13.700   4.675
94062W        W67130  37.480   9.174  12.203
94063W        W67131  32.445  44.958  10.927
94064W        W67132   6.233  26.950   4.552
94065W        W67133   3.928  30.600   1.329
94066W        W67134  12.262  25.708   0.782
94067W        W67135  10.774  23.215   4.757
94068W        W67136   3.875  43.951  13.929
94069W        W67137  25.716  25.713   4.543
94070W        W67138  26.944  27.445   4.504
94071W        W67139  34.775  35.863  11.092
94072W        W67140   6.303  25.917  10.706
94073W        W67141  40.859  36.064  13.964
94074W        W67142   2.961  38.699  11.892
94075W        W67143   6.595  10.243   4.897
94076W        W67144   2.308  34.430  11.482
94077W        W67145  14.528  42.778  14.420
94078W        W67146  18.622  28.519  11.671
94079W        W67147  33.571  41.994  11.620
94080W        W67148  24.747  13.280   2.793
94081W        W67149  16.999  29.146   3.252
94082W        W67150  25.416   9.426  10.758
94083W        W67151   1.391  11.678  14.673
94084W        W67152  17.538  28.509   0.270
94085W        W67153  11.828  32.160   2.708
94086W        W67154  36.049  22.777   0.758
94087W        W67155  42.077   8.168   1.295
94088W        W67156  11.699   7.217   1.651
94089W        W67157  31.085  37.626  14.171
94090W        W67158  26.756   5.251   4.128
94091W        W67159  27.525  38.037   1.934
94092W        W67160  29.178  42.412  13.886
94093W        W67161  13.981  16.291  10.630
94094W        W67162  27.961  38.414   1.236
94095W        W67163   5.634  39.339   1.762
94096W        W67164  19.245  35.376   2.381
94097W        W67165  39.124  35.609  13.360
94098W        W67166  11.761  39.807   1.696
94099W        W67167  28.204  10.893  13.003
94100W        W67168   1.681  10.529  10.379
94101W        W67169  42.426  31.012  14.874
94102W        W67170  33.606   9.813   1.766
94103W        W67171   7.199  27.509  12.042
94104W        W67172  16.785  10.853  11.067
94105W        W67173  12.666  38.840   0.191
94106W        W67174  12.114  43.907   1.447
94107W        W67175  42.387  28.524   0.001
94108W        W67176  33.770  38.073  10.881
94109W        W67177  42.337  27.675  14.985
94110W        W67178  17.046  41.476  13.247
94111W        W67179  10.777  35.914   2.736
94112W        W67180   0.460  43.880  13.505
94113W        W67181  20.715  11.615  14.310
94114W        W67182  37.365  19.326  12.415
94115W        W67183  18.860  14.595  14.451
94116W        W67184  22.676  26.830  14.497
94117W        W67185  42.027  13.088  13.357
94118W        W67186  36.384  35.516  12.144
94119W        W67187   6.175   1.286   1.332
94120W        W67188  27.729  38.926   1.264
94121W        W67189   6.461   7.940   2.823
94122W        W67190  10.624  12.738  14.604
94123W        W67191  16.235  19.277  14.150
94124W        W67192  12.309  28.264  13.813
94125W        W67193  37.086  13.005  12.461
94126W        W67194  19.280   1.682   0.394
94127W        W67195  43.341  16.089  12.449
94128W        W67196  26.057  25.919  12.915
94129W        W67197  35.725   7.336   0.794
94130W        W67198   3.134  22.517  10.677
94131W        W67199  18.561  11.074  14.529
94132W        W67200   0.057  11.637  12.564
94133W        W67201  29.558   4.869  14.722
94134W        W67202  43.484  11.572   0.108
94135W        W67203  24.673  22.911  11.128
94136W        W67204  31.200  32.423   4.558
94137W        W67205  20.715  42.542   4.358
94138W        W67206  44.862  18.662   0.697
94139W        W67207  29.074  27.233   0.421
94140W        W67208   6.732   6.647   4.060
94141W        W67209   3.385  15.237  10.799
94142W        W67210  34.473  28.447   2.230
94143W        W67211   2.851  32.015   1.365
94144W        W67212  31.124  18.765  12.033
94145W        W67213  12.235  33.091  13.649
94146W        W67214  20.711   9.610   3.676
94147W        W67215  31.977  32.389   2.252
94148W        W67216  24.458  41.882   2.594
94149W        W67217  16.070  40.874  14.948
94150W        W67218   7.410   2.979  11.976
94151W        W67219   2.742  33.508   0.269
94152W        W67220  37.447   8.671  12.157
94153W        W67221  37.360  16.279  10.874
94154W        W67222  30.853  18.348  11.158
94155W        W67223   6.271  11.806   2.836
94156W        W67224  16.870  13.373  14.026
94157W        W67225  44.915  43.516   2.750
94158W        W67226  16.301  28.288  14.588
94159W        W67227  27.660  35.470  14.461
94160W        W67228  15.898   2.767   1.682
94161W        W67229   5.673  42.853  10.715
94162W        W67230  37.851  31.015   3.737
94163W        W67231   2.733  37.496  12.354
94164W        W67232  33.956  43.577  13.433
94165W        W67233   9.774  21.653   4.288
94166W        W67234  18.079  21.583  12.686
94167W        W67235  38.163  35.037  10.230
94168W        W67236  15.457  12.537  10.188
94169W        W67237  23.696  35.035  10.488
94170W        W67238  11.642  36.487  14.442
94171W        W67239  10.879   1.048   2.447
94172W        W67240  43.576  30.235  13.892
94173W        W67241  22.181  13.902   1.326
94174W        W67242  39.760   3.740   1.612
94175W        W67243  21.633   9.138  14.338
94176W        W67244  18.194  12.557  14.718
94177W        W67245  43.763  21.109  13.028
94178W        W67246  42.520  11.907   2.583
94179W        W67247  28.399  32.145   0.937
94180W        W67248  34.446  38.417   4.152
94181W        W67249  15.469  18.782   0.975
94182W        W67250   8.765  29.162   5.092
94183W        W67251  10.743   7.024   2.772
94184W        W67252  33.896  27.770  14.051
94185W        W67253  42.592  37.065   4.488
94186W        W67254  13.354  25.165   4.577
94187W        W67255   2.870  36.568  12.372
94188W        W67256  13.702   5.306   1.413
94189W        W67257  34.684  33.487  11.648
94190W        W67258  23.490  14.129  13.327
94191W        W67259  13.791  41.235   0.409
94192W        W67260   3.452  29.653  12.100
94193W        W67261   6.040  14.748  14.328
94194W        W67262  13.292  18.463  11.871
94195W        W67263  42.405  28.134   3.123
94196W        W67264  14.672  33.432  14.483
94197W        W67265  37.500  43.416  13.167
94198W        W67266  26.308   8.784  14.899
94199W        W67267  42.951  40.065   3.196
94200W        W67268  36.554  44.473  14.272
94201W        W67269  40.729   3.623  14.940
94202W        W67270  13.650  22.479  13.849
94203W        W67271  37.345  25.207  11.091
94204W        W67272  29.360  22.570   4.374
94205W        W67273  31.123   5.233   4.524
94206W        W67274  30.474   0.800   4.146
94207W        W67275  40.978   9.244   3.640
94208W        W67276  20.655  36.051  13.608
94209W        W67277  18.953  31.147   3.178
94210W        W67278  34.634  38.440   1.687
94211W        W67279  43.852   3.409   5.011
94212W        W67280  34.880  24.170   1.904
94213W        W67281   7.411  22.663  12.335
94214W        W67282  11.073   5.991  11.609
94215W        W67283   5.332  21.410  13.679
94216W        W67284  34.104   7.439  14.248
94217W        W67285  22.757   3.206   2.225
94218W        W67286   4.319   0.201  12.542
94219W        W67287  44.233   4.417  12.894
94220W        W67288  33.402   3.055  13.821
94221W        W67289   7.391   3.971  14.361
94222W        W67290  42.780  42.084   2.371
94223W        W67291   6.919  21.505   1.566
94224W        W67292  24.371   0.574  11.234
94225W        W67293  37.516  25.587   0.557
94226W        W67294   7.842   8.161  13.389
94227W        W67295  10.611  26.196  13.479
94228W        W67296  33.052  15.556  11.426
94229W        W67297  14.762  32.965  14.240
94230W        W67298   8.216   2.320   0.328
94231W        W67299  15.641  41.950   1.942
94232W        W67300  24.679  27.899  11.163
94233W        W67301  38.010   0.334   1.268
94234W        W67302  25.896  16.688  12.653
94235W        W67303  36.668   8.702   0.327
94236W        W67304  15.537  12.362  11.410
94237W        W67305  10.335   1.756   0.415
94238W        W67306  18.565   2.314  13.444
94239W        W67307  32.173  13.189   4.655
94240W        W67308  35.566   5.688  12.993
94241W        W67309  34.101  23.180  11.890
94242W        W67310  23.949  34.599   1.658
94243W        W67311  27.778   5.147   3.244
94244W        W67312  33.587  20.781   1.370
94245W        W67313  39.925  28.153  14.265
94246W        W67314  19.037  21.501   2.772
94247W        W67315  11.408  15.699   3.569
94248W        W67316   4.548  28.006   3.713
94249W        W67317   7.895   1.190   3.738
94250W        W67318   8.177  36.567  11.014
94251W        W67319  39.736  28.992   3.007
94252W        W67320  38.318  28.513  13.893
94253W        W67321  10.685  12.712  10.650
94254W        W67322  37.258  17.181   3.277
94255W        W67323  37.815  29.433  11.082
94256W        W67324   1.018  14.095   3.245
94257W        W67325  36.807   5.886  13.507
94258W        W67326  34.616  32.464  13.509
94259W        W67327  14.436   3.749   0.332
94260W        W67328  28.502  18.918  13.789
94261W        W67329  12.635  23.275   4.134
94262W        W67330   3.791  30.890  10.505
94263W        W67331  15.821   4.154   4.909
94264W        W67332   2.398  26.419   1.791
94265W        W67333   9.797   9.888  12.929
94266W        W67334  15.817  27.964   0.894
94267W        W67335  36.520  38.576  12.715
94268W        W67336  44.986  31.709   3.271
94269W        W67337  30.796  18.707   3.203
94270W        W67338   6.492  15.212  13.887
94271W        W67339   3.263  20.803   4.074
94272W        W67340  42.396   4.695   1.201
94273W        W67341  20.894   3.074  10.078
94274W        W67342  34.416  38.239   4.648
94275W        W67343  24.481   8.766  11.969
94276W        W67344   6.864   2.483   4.502
94277W        W67345  21.114  40.520   4.025
94278W        W67346  35.377  40.514  13.975
94279W        W67347  33.050  17.028  12.895
94280W        W67348  25.133   7.255  10.660
94281W        W67349  14.020  25.495   3.926
94282W        W67350  28.229  13.851   3.716
94283W        W67351   0.278   5.513   2.887
94284W        W67352  38.159  36.224  13.531
94285W        W67353   4.606  12.278  11.161
94286W        W67354  38.855  36.539   3.276
94287W        W67355   7.289   6.440   0.954
94288W        W67356  14.730  26.927  12.541
94289W        W67357  24.635  44.431   3.927
94290W        W67358  11.898  35.153  14.263
94291W        W67359  42.988  18.571  14.318
94292W        W67360  14.140  41.795   4.561
94293W        W67361   4.350  20.075   4.106
94294W        W67362  44.136  14.538   4.192
94295W        W67363   9.269  36.004  14.019
94296W        W67364   4.234  19.699   2.673
94297W        W67365  23.763   8.876   0.916
94298W        W67366  12.580   8.363  10.601
94299W        W67367  21.730  17.209   3.093
94300W        W67368  16.050  26.979  12.089
94301W        W67369   4.506  40.987  11.962
94302W        W67370  27.920  23.775  11.857
94303W        W67371  20.213  25.442   5.166
94304W        W67372  37.613  35.784  11.000
94305W        W67373  32.930   0.389  13.485
94306W        W67374  18.606  11.790   3.140
94307W        W67375  30.919   8.430   3.328
94308W        W67376  21.901   5.051   1.770
94309W        W67377   1.523   9.309  11.570
94310W        W67378  31.191   9.821   4.938
94311W        W67379  40.206  28.861   2.828
94312W        W67380   2.217  23.904   1.648
94313W        W67381  17.284  11.669  11.464
94314W        W67382  38.202  20.356   0.215
94315W        W67383   6.896  38.849  11.440
94316W        W67384  33.077  42.303  10.258
94317W        W67385   0.550  37.474  10.437
94318W        W67386  30.552  29.211   0.232
94319W        W67387  18.311  37.792   3.335
94320W        W67388   1.559  16.699   1.614
94321W        W67389  29.000   4.643   3.390
94322W        W67390   4.206  38.759   4.128
94323W        W67391  29.464  40.531   2.562
94324W        W67392   6.308  20.734  11.987
94325W        W67393   5.122  25.205  13.070
94326W        W67394  20.334  22.009   2.346
94327W        W67395  16.314   6.949   3.633
94328W        W67396   7.253  16.696  13.257
94329W        W67397  40.110  36.444  14.555
94330W        W67398   9.975  11.746  12.550
94331W        W67399   5.767  36.301  14.121
94332W        W67400  39.512  38.083   2.628
94333W        W67401  33.339  18.704  14.324
94334W        W67402  41.544  26.487  11.897
94335W        W67403  16.640  32.700  10.706
94336W        W67404   7.374  41.257  14.999
94337W        W67405   5.768   6.378  10.668
94338W        W67406  30.823  19.469  12.844
94339W        W67407  11.948  41.980   0.326
94340W        W67408   1.705  19.794   2.671
94341W        W67409  16.137  15.019  12.133
94342W        W67410  29.865  21.301  12.798
94343W        W67411   7.368  23.520  12.874
94344W        W67412  20.004  31.536   2.753
94345W        W67413  33.966  33.231  11.926
94346W        W67414  39.364  28.720   2.773
94347W        W67415  43.805  40.599  13.453
94348W        W67416  19.973  34.398   3.070
94349W        W67417  13.369   2.788   1.442
94350W        W67418  14.665  39.276  11.570
94351W        W67419  40.876  42.088   3.219
94352W        W67420   7.051  26.568   3.162
94353W        W67421  42.439  20.142  12.376
94354W        W67422  37.376  10.915   1.400
94355W        W67423   9.049  32.459  12.125
94356W        W67424  12.784  19.219   5.007
94357W        W67425  30.374   2.446  11.170
94358W        W67426  38.953  27.284   1.494
94359W        W67427  12.300  22.524   3.616
94360W        W67428  35.892  41.163  12.953
94361W        W67429  21.713  28.162   3.540
94362W        W67430  30.113   8.833   0.600
94363W        W67431  22.799  28.399  12.847
94364W        W67432  38.518  17.909   3.218
94365W        W67433  35.040  35.217   1.421
94366W        W67434   6.449  23.714  11.123
94367W        W67435  36.485  28.376  13.448
94368W        W67436  37.157  31.192   4.859
94369W        W67437  41.755  43.831   0.767
94370W        W67438  27.992  13.633  13.907
94371W        W67439   0.694  38.548   3.688
94372W        W67440  26.630  31.397  14.497
94373W        W67441  16.388   8.258  14.987
94374W        W67442  17.658  21.299  11.514
94375W        W67443  40.835  34.453  10.671
94376W        W67444  38.242  29.578   1.443
94377W        W67445  31.155   6.835  10.524
94378W        W67446  39.854  26.875   1.366
94379W        W67447  18.133  17.324  14.571
94380W        W67448   5.684  21.567   3.836
94381W        W67449  42.765  39.835  14.924
94382W        W67450  19.080  12.717  14.362
94383W        W67451   3.791   1.438   0.178
94384W        W67452   4.490  14.259   2.665
94385W        W67453  15.200  42.583  14.356
94386W        W67454  26.641   9.141  12.001
94387W        W67455   3.312  21.321  13.072
94388W        W67456  10.952  10.188  11.691
94389W        W67457  42.588  24.136  10.369
94390W        W67458  20.705  36.203  12.037
94391W        W67459  25.574  21.202   0.335
94392W        W67460  42.420  36.676  12.006
94393W        W67461  13.058  39.829   0.215
94394W        W67462  23.714  23.210  13.386
94395W        W67463   7.787   6.410   4.104
94396W        W67464  39.391  12.625   1.337
94397W        W67465   7.342  25.052  14.003
94398W        W67466  14.084  35.613  11.255
94399W        W67467  24.774  19.097   0.789
94400W        W67468   0.075  43.761  13.882
94401W        W67469  40.965  11.889  12.980
94402W        W67470  21.100  11.139  10.404
94403W        W67471   8.042  28.720   2.146
94404W        W67472  23.510  19.772   4.293
94405W        W67473  38.421  20.318  11.655
94406W        W67474   0.561  42.741  11.846
94407W        W67475  34.327  29.671   4.523
94408W        W67476  29.342   7.220   2.830
94409W        W67477  14.260  14.330  11.534
94410W        W67478   3.171  12.176   0.807
94411W        W67479  19.371   7.207   2.685
94412W        W67480  38.022  33.145  14.868
94413W        W67481  25.117  29.457  10.495
94414W        W67482  38.190   8.004  13.923
94415W        W67483  37.071   4.969  10.833
94416W        W67484  44.750  25.466  11.131
94417W        W67485  40.059  22.207  12.361
94418W        W67486  43.265  22.777   4.872
94419W        W67487  43.232   4.642   0.836
94420W        W67488  11.913  21.015   4.111
94421W        W67489   0.016  35.813   1.946
94422W        W67490   7.714  25.760  10.867
94423W        W67491  22.257  35.346  12.474
94424W        W67492  42.173  27.302   3.689
94425W        W67493  21.379   9.663  10.507
94426W        W67494  20.275  25.772  11.622
94427W        W67495  27.765  11.395   3.761
94428W        W67496  31.975  35.617   3.848
94429W        W67497   6.378  18.510  14.817
94430W        W67498   4.829  32.060  12.811
94431W        W67499  18.248   3.263  13.808
94432W        W67500  21.136   9.301   4.616
94433W        W67501  36.956  15.046   3.763
94434W        W67502  39.386  38.816  11.519
94435W        W67503   3.002  33.475   0.712
94436W        W67504  37.450  12.623  12.412
94437W        W67505  41.058  28.503   0.904
94438W        W67506   9.408  19.658  14.429
94439W        W67507  23.302  11.636  10.485
94440W        W67508  44.083  16.565   3.939
94441W        W67509   9.052  28.155  12.512
94442W        W67510   2.171  28.603  13.463
94443W        W67511  38.581  42.983   4.580
94444W        W67512  44.210  40.154  14.878
94445W        W67513  11.403  14.382   3.670
94446W        W67514   3.188  40.399  12.345
94447W        W67515  27.952   9.528   0.670
94448W        W67516  21.033   6.225  14.480
94449W        W67517  21.991   1.449  11.649
94450W        W67518  17.231  29.487   2.281
94451W        W67519  22.948  37.081   1.168
94452W        W67520  34.545  42.027   3.860
94453W        W67521  10.365  30.374  12.021
94454W        W67522  12.356  25.097  10.788
94455W        W67523  43.094  40.799   4.574
94456W        W67524  41.642   3.630  13.990
94457W        W67525  20.558  25.626   0.372
94458W        W67526   6.042  19.198  11.965
94459W        W67527  33.864  15.682   0.345
94460W        W67528  12.163  33.359   4.614
94461W        W67529  38.379  22.019   3.629
94462W        W67530  38.345   3.210   1.416
94463W        W67531   9.018   3.981  11.468
94464W        W67532   8.146  23.140  10.480
94465W        W67533  34.140  21.803  12.437
94466W        W67534  32.667  14.308   3.652
94467W        W67535  17.694  19.059  14.445
94468W        W67536  31.898  14.503   1.301
94469W        W67537  37.432   5.723   5.034
94470W        W67538   9.147  22.572  10.633
94471W        W67539  32.031   0.841  11.275
94472W        W67540  22.144  27.986   1.450
94473W        W67541   4.114  18.175  12.077
94474W        W67542  28.232  15.146  14.797
94475W        W67543  21.009  35.557  12.575
94476W        W67544  33.963  20.206  14.311
94477W        W67545  34.440  22.448   2.594
94478W        W67546  41.533   7.458   3.726
94479W        W67547  10.724  19.377   0.875
94480W        W67548  18.194   2.778  13.994
94481W        W67549  36.505  23.984   1.841
94482W        W67550  29.860  11.787  10.520
94483W        W67551  43.732  22.318  11.136
94484W        W67552  37.480  40.534   2.842
94485W        W67553  22.477   4.915  12.482
94486W        W67554  20.831   9.427  11.568
94487W        W67555  12.639  16.290  10.382
94488W        W67556  15.772  34.065   1.740
94489W        W67557  37.951   2.920  12.591
94490W        W67558   3.995  40.604  12.565
94491W        W67559  12.687  35.104   3.882
94492W        W67560   0.796  27.162   4.847
94493W        W67561   2.324  26.672  11.662
94494W        W67562  41.973   8.862   2.364
94495W        W67563  28.961  26.897  14.567
94496W        W67564  21.771   9.211  11.684
94497W        W67565  27.771  39.900   1.336
94498W        W67566  19.625  34.682  10.643
94499W        W67567  35.900   0.979   0.889
94500W        W67568  39.052  24.983   0.688
94501W        W67569  22.058  10.025   0.937
94502W        W67570  41.189  37.883   2.626
94503W        W67571  35.131  18.157   3.354
94504W        W67572  13.365  23.976  12.125
94505W        W67573  21.250  38.319  12.591
94506W        W67574  13.427  44.444  12.181
94507W        W67575  17.567  44.712   1.790
94508W        W67576  43.416  32.442  13.414
94509W        W67577  36.913  22.946   1.199
94510W        W67578   3.210   9.291   0.629
94511W        W67579  37.838  32.980   2.347
94512W        W67580  37.415  25.914  13.833
94513W        W67581   6.530  15.232  11.114
94514W        W67582  19.451  17.320   1.261
94515W        W67583  27.059  27.073  11.316
94516W        W67584   5.819  37.471   9.913
94517W        W67585  31.135  22.263  12.570
94518W        W67586  34.389  33.454  12.648
94519W        W67587   2.520  15.430  12.930
94520W        W67588  10.765  42.774   1.628
94521W        W67589  37.058  16.642  10.657
94522W        W67590  34.147  37.015   0.887
94523W        W67591   5.803  28.459   3.378
94524W        W67592  28.074   0.750   1.993
94525W        W67593  28.023   7.713   1.384
94526W        W67594  22.582  41.056  14.312
94527W        W67595  17.282   6.234   4.831
94528W        W67596  11.817   7.651   1.875
94529W        W67597  28.122  23.753  13.521
94530W        W67598   7.783   3.040  10.674
94531W        W67599  24.601   9.660  11.547
94532W        W67600   9.332  43.884  10.493
94533W        W67601   6.791  15.773  11.088
94534W        W67602  24.259  14.555  11.509
94535W        W67603  34.547  27.640  13.438
94536W        W67604  19.521  39.723  13.872
94537W        W67605  24.253   5.475  13.397
94538W        W67606  19.515  34.081  12.865
94539W        W67607  10.822  12.143   0.889
94540W        W67608  25.734  21.534  11.128
94541W        W67609  25.862  26.753  14.251
94542W        W67610  10.387  25.268  10.091
94543W        W67611  41.513   1.493  14.368
94544W        W67612  22.520  18.574   4.183
94545W        W67613  38.713  36.686  15.000
94546W        W67614  27.195  22.961   3.823
94547W        W67615   8.209  44.986  13.096
94548W        W67616  34.343  29.055   1.156
94549W        W67617  31.043  41.181   0.954
94550W        W67618  23.716  17.297  11.714
94551W        W67619  41.375  32.841  11.540
94552W        W67620  39.895  22.492  13.490
94553W        W67621  14.491  19.233   3.449
94554W        W67622  31.410  24.048   3.276
94555W        W67623  24.704  14.705   3.708
94556W        W67624  12.508  32.109  13.077
94557W        W67625   7.588  21.787  11.522
94558W        W67626  42.797  35.054   3.674
94559W        W67627  17.539  19.295  12.573
94560W        W67628  16.614  16.678   4.089
94561W        W67629  44.944  31.653   1.793
94562W        W67630  18.497  18.078   0.487
94563W        W67631  37.448  36.657  14.340
94564W        W67632  20.794  12.187   3.396
94565W        W67633  38.130   6.865   4.421
94566W        W67634   4.417  33.505   2.238
94567W        W67635  44.975  11.561   2.270
94568W        W67636   9.065  20.013   2.296
94569W        W67637  43.761  44.714  12.464
94570W        W67638  22.680  35.895   4.064
94571W        W67639   8.118  16.243   2.966
94572W        W67640  12.095  12.350   2.882
94573W        W67641  33.458   1.996   1.406
94574W        W67642  12.707  16.795  13.868
94575W        W67643   9.916  11.833  12.017
94576W        W67644  27.490  41.728  10.519
94577W        W67645  41.069  34.187   3.198
94578W        W67646  22.629   5.170  10.699
94579W        W67647  26.510  37.509   2.692
94580W        W67648  14.350  29.739   0.784
94581W        W67649  10.317  20.047  14.359
94582W        W67650  14.512  42.781   0.321
94583W        W67651  13.571  29.152  12.553
94584W        W67652  10.790   3.798  11.326
94585W        W67653   1.259  44.306  13.495
94586W        W67654  37.732  11.397   4.529
94587W        W67655  37.011  41.487   4.158
94588W        W67656  32.601  14.365  14.755
94589W        W67657  17.824  27.167   4.025
94590W        W67658  41.049  43.892   2.091
94591W        W67659   6.829  26.173   4.506
94592W        W67660  12.767  14.801  14.356
94593W        W67661   4.986  28.124  13.510
94594W        W67662   8.496   2.805  11.410
94595W        W67663  39.263  42.725  13.313
94596W        W67664  19.562  44.305   1.349
94597W        W67665  38.736  18.803   4.505
94598W        W67666  23.131  44.067  13.821
94599W        W67667  43.815  33.022   0.508
94600W        W67668  18.760  28.970   2.716
94601W        W67669  44.325  42.205   4.808
94602W        W67670  19.202   9.222   0.267
94603W        W67671   3.312   1.600  11.751
94604W        W67672  16.580  34.567   0.856
94605W        W67673   8.796  30.367  11.542
94606W        W67674  27.020  13.914  12.605
94607W        W67675  12.126  44.778  10.391
94608W        W67676  32.451  11.794  13.356
94609W        W67677  35.806  20.551  14.418
94610W        W67678  21.243  29.656  12.568
94611W        W67679  25.907   6.307  12.891
94612W        W67680  38.491  16.351  11.566
94613W        W67681  33.532   5.223  12.109
94614W        W67682   0.720   9.721  13.902
94615W        W67683   7.137  43.383   4.132
94616W        W67684  16.186  21.236   3.667
94617W        W67685  18.643  44.297  12.974
94618W        W67686  25.540   2.717  14.399
94619W        W67687  26.141   5.514   1.345
94620W        W67688  14.120  31.160  11.122
94621W        W67689  40.504  29.562   2.359
94622W        W67690  20.074   2.604  11.572
94623W        W67691  21.474  33.324   1.745
94624W        W67692  12.387  22.105   0.759
94625W        W67693   3.896  25.201   4.774
94626W        W67694  32.459   7.744   1.445
94627W        W67695  28.851  42.116  11.626
94628W        W67696  26.153  42.924  14.470
94629W        W67697  37.925  24.535  12.500
94630W        W67698  28.119   7.211   5.028
94631W        W67699  44.737  35.121  10.763
94632W        W67700  17.585   9.302   4.479
94633W        W67701  43.931  18.019  12.053
94634W        W67702  14.187  14.276   4.591
94635W        W67703  23.592  16.351  12.767
94636W        W67704  21.356  15.275  12.398
94637W        W67705  10.243  38.755  13.049
94638W        W67706  16.174  11.110   2.307
94639W        W67707  22.395   6.985  11.171
94640W        W67708  10.612  27.682  13.400
94641W        W67709   1.757  19.158  13.919
94642W        W67710  39.832  34.705   4.655
94643W        W67711  36.497  21.638  13.278
94644W        W67712  39.956  41.843  14.885
94645W        W67713  10.786  40.077  11.967
94646W        W67714  35.583   0.784   3.216
94647W        W67715  44.319  37.074  10.899
94648W        W67716  12.069  38.434  10.763
94649W        W67717  38.006  37.048  12.513
94650W        W67718  29.710   8.298  10.635
94651W        W67719  23.070  16.267   1.921
94652W        W67720  35.802   1.764   2.184
94653W        W67721  15.564  18.071   4.083
94654W        W67722   7.391  11.722   4.827
94655W        W67723  30.353  43.359  10.939
94656W        W67724  29.223  14.885  13.650
94657W        W67725  44.329   3.294  14.901
94658W        W67726   4.298  27.323  14.493
94659W        W67727   1.552   7.417  14.691
94660W        W67728  20.249   1.737  14.262
94661W        W67729   8.595  25.326  14.186
94662W        W67730  33.099  15.345   2.364
94663W        W67731  21.386   0.089  14.881
94664W        W67732  29.931   0.791  12.384
94665W        W67733  39.371  38.817   4.141
94666W        W67734  23.659  32.535   4.677
94667W        W67735  32.563  39.796  10.455
94668W        W67736  11.391  14.249   2.016
94669W        W67737  21.077  19.043  12.443
94670W        W67738  30.037  14.262  14.460
94671W        W67739  38.386   3.912   4.593
94672W        W67740  21.987   4.533   1.718
94673W        W67741  31.395  34.480   1.440
94674W        W67742   4.331  38.089  13.120
94675W        W67743  17.665  36.814   3.163
94676W        W67744  37.481   9.661  11.450
94677W        W67745  30.143  23.750   1.719
94678W        W67746  18.608  33.685   2.467
94679W        W67747  31.320  22.750   4.201
94680W        W67748  14.826  31.092   1.423
94681W        W67749  11.778  15.527  12.084
94682W        W67750  44.971   0.025  13.738
94683W        W67751  20.290   5.729   0.149
94684W        W67752  21.247  39.517  11.963
94685W        W67753  34.136   7.850  11.051
94686W        W67754  33.585  29.161  13.744
94687W        W67755  40.959  27.310  11.199
94688W        W67756  27.704  18.495   3.103
94689W        W67757   2.735   9.346   2.419
94690W        W67758   9.360   8.122  12.702
94691W        W67759  29.456   0.879  10.728
94692W        W67760   3.656  42.560  12.509
94693W        W67761  24.786  20.232   2.736
94694W        W67762  15.816  33.779   0.310
94695W        W67763  39.531  20.689   4.858
94696W        W67764   6.184  25.479  11.914
94697W        W67765  21.463   6.247   3.839
94698W        W67766  35.283   8.428   3.286
94699W        W67767  26.497  39.286   1.754
94700W        W67768  33.330   0.901  13.955
94701W        W67769  19.871   3.138  11.084
94702W        W67770  36.278  42.696   0.309
94703W        W67771  22.808  22.510   0.510
94704W        W67772  40.110  30.441  12.597
94705W        W67773  20.844   4.310  12.419
94706W        W67774  15.289  43.499  12.415
94707W        W67775  27.265  17.706  13.336
94708W        W67776   0.253  19.970   2.277
94709W        W67777  11.600  39.586   4.580
94710W        W67778   6.932   9.143   0.328
94711W        W67779  32.069  24.123   2.323
94712W        W67780  25.711   5.822  12.063
94713W        W67781  39.099   0.219   0.187
94714W        W67782  38.296  28.229  13.434
94715W        W67783  35.652   6.205   4.522
94716W        W67784  16.222  29.072   5.351
94717W        W67785  11.899   0.177   4.386
94718W        W67786  26.521   2.965   3.775
94719W        W67787  25.544  39.060  11.204
94720W        W67788  22.295  18.062  10.246
94721W        W67789  43.285   1.513  12.530
94722W        W67790   8.288  24.667  14.239
94723W        W67791  41.285   9.271  13.389
94724W        W67792  30.665  11.284  13.952
94725W        W67793  32.841  30.444  13.077
94726W        W67794  12.751  38.341  13.832
94727W        W67795   7.152  38.385   3.564
94728W        W67796  44.925  38.329   0.411
94729W        W67797   2.230  18.694  11.065
94730W        W67798  28.528  22.285  12.006
94731W        W67799  39.514   8.790  13.786
94732W        W67800  38.920  41.304   0.176
94733W        W67801  27.597   1.448   2.289
94734W        W67802  10.260  36.362   2.242
94735W        W67803  13.869  20.243   1.731
94736W        W67804  35.978  14.340  10.813
94737W        W67805  32.943  29.537  13.808
94738W        W67806   6.819  10.290   3.377
94739W        W67807  29.445  34.906  12.512
94740W        W67808   2.254  26.158   3.303
94741W        W67809  24.039  24.945  10.130
94742W        W67810   7.123  39.077  14.794
94743W        W67811   3.930  34.661   2.751
94744W        W67812  29.688  20.615  11.600
94745W        W67813  40.326  31.471  14.867
94746W        W67814  18.489  29.028   3.141
94747W        W67815  33.991  43.431  12.101
94748W        W67816  14.981   4.844  11.080
94749W        W67817   2.356   1.418  14.216
94750W        W67818  25.655  36.631  11.940
94751W        W67819  16.264  34.302   1.760
94752W        W67820  38.310  32.066   2.168
94753W        W67821   8.662  20.527   3.738
94754W        W67822   6.755  40.521  13.915
94755W        W67823  31.217  15.176  11.192
94756W        W67824  35.029  32.168   3.670
94757W        W67825  23.613  39.241   4.550
94758W        W67826   4.241   4.743  12.002
94759W        W67827  43.549  27.251   1.728
94760W        W67828  37.008  34.039  12.537
94761W        W67829  10.254  11.834   3.680
94762W        W67830  19.671  39.235  13.753
94763W        W67831  13.713  34.101   2.676
94764W        W67832  21.218  24.460   4.702
94765W        W67833  40.687   4.612  12.190
94766W        W67834  11.086  24.683  13.496
94767W        W67835   9.179  30.058   0.021
94768W        W67836   2.409  37.078   4.699
94769W        W67837  28.338   4.049   3.034
94770W        W67838  33.271  24.140  13.942
94771W        W67839  26.136  25.069   0.982
94772W        W67840  43.640  14.097  12.858
94773W        W67841  41.008  15.560   1.231
94774W        W67842  38.715  36.138  14.925
94775W        W67843  19.561  19.495  13.840
94776W        W67844  18.777  17.236  13.906
94777W        W67845   4.725  14.691  11.497
94778W        W67846  42.015   6.389  10.763
94779W        W67847   5.334  43.666  12.381
94780W        W67848  14.330  10.103   3.660
94781W        W67849  20.248  42.943  12.989
94782W        W67850  37.779  20.961   4.297
94783W        W67851  37.545  32.176  13.404
94784W        W67852  36.024   1.957  13.930
94785W        W67853  44.288  14.773   0.253
94786W        W67854   2.967   7.222  13.978
94787W        W67855  33.144  29.086   3.917
94788W        W67856  14.305  40.060   4.587
94789W        W67857   8.873  37.582   1.862
94790W        W67858  34.115  15.159   3.807
94791W        W67859  27.453  20.682   3.917
94792W        W67860   1.324   5.334   3.990
94793W        W67861  19.709   9.474   3.824
94794W        W67862  18.266  11.094  12.005
94795W        W67863   4.195  15.598  10.439
94796W        W67864   5.714  25.979   0.736
94797W        W67865   1.574  36.910   4.032
94798W        W67866   6.899  42.409  10.526
94799W        W67867   2.334  25.090  14.041
94800W        W67868  30.183  42.485   1.787
94801W        W67869  23.795  10.532   4.352
94802W        W67870   7.364  30.640   2.290
94803W        W67871  13.412  15.238   3.296
94804W        W67872   0.266  36.480   1.535
94805W        W67873  13.345  14.162  11.892
94806W        W67874  38.331  18.735   0.685
94807W        W67875  14.085  43.993  10.537
94808W        W67876  18.603  31.806   3.660
94809W        W67877  33.258  41.878  12.967
94810W        W67878  21.246   2.477  12.971
94811W        W67879   5.689  19.145  14.247
94812W        W67880   9.166  29.990   3.983
94813W        W67881  42.069  42.835   5.308
94814W        W67882  28.602  16.659  14.723
94815W        W67883  19.833  21.353  12.003
94816W        W67884   2.666  43.402   0.669
94817W        W67885   2.826  17.223   1.887
94818W        W67886  16.640  18.058   1.315
94819W        W67887  23.983  26.901  12.472
94820W        W67888  15.909   7.809   0.785
94821W        W67889  16.583  29.101  14.900
94822W        W67890  12.592  29.997  13.396
94823W        W67891  42.423   7.726  12.160
94824W        W67892  30.500  10.264  13.392
94825W        W67893  19.658  11.319   3.160
94826W        W67894  11.666  23.002   4.505
94827W        W67895   8.927  44.954  14.793
94828W        W67896  39.627  40.860   3.287
94829W        W67897  39.007   6.754  12.579
94830W        W67898   9.917  26.775   2.877
94831W        W67899  31.733  18.492   3.375
94832W        W67900   1.416  19.331  10.573
94833W        W67901  10.233  25.787   1.754
94834W        W67902  11.549   2.566  11.559
94835W        W67903  23.217  24.634   1.352
94836W        W67904  39.120  14.205  11.700
94837W        W67905  22.773  10.581   0.817
94838W        W67906  37.580  26.396   4.178
94839W        W67907  13.830   7.827  13.362
94840W        W67908   4.386   5.903   2.084
94841W        W67909  43.800   0.511   4.444
94842W        W67910   7.360   3.764   4.004
94843W        W67911  22.624  19.280   0.341
94844W        W67912   4.993  44.423   0.295
94845W        W67913  32.351  22.801  14.868
94846W        W67914  11.428  34.527  13.560
94847W        W67915  26.908  20.162   4.242
94848W        W67916  15.834  24.997  12.600
94849W        W67917  39.858  41.366   0.628
94850W        W67918   3.231  32.574  11.847
94851W        W67919  28.084   3.301   3.229
94852W        W67920  12.776  22.994   2.816
94853W        W67921  10.788  14.278   4.560
94854W        W67922  17.525  33.738  12.073
94855W        W67923  12.482   8.187   3.758
94856W        W67924  17.765  29.578   0.740
94857W        W67925  42.287  29.133  13.418
94858W        W67926  22.141  13.950  11.668
94859W        W67927  23.114  41.190   0.296
94860W        W67928  20.408   8.912   4.214
94861W        W67929  14.145   7.122   2.723
94862W        W67930  37.124  29.542  11.482
94863W        W67931  35.998  35.777   2.664
94864W        W67932  12.095  18.529   0.716
94865W        W67933  13.696   7.383   2.588
94866W        W67934  13.913  24.926   0.455
94867W        W67935  31.080  31.390   4.840
94868W        W67936  17.418  33.578  13.453
94869W        W67937  23.553  22.713  13.535
94870W        W67938   2.893  43.135   4.270
94871W        W67939  29.729  40.446   0.486
94872W        W67940  37.729  33.883  12.035
94873W        W67941  13.135  40.809  11.004
94874W        W67942  31.555  43.899  12.837
94875W        W67943  35.088   9.415  13.323
94876W        W67944   0.949  41.391  10.724
94877W        W67945  28.698  16.000   0.483
94878W        W67946  12.196  27.128   0.986
94879W        W67947  24.551  16.845   0.690
94880W        W67948   3.015  40.463   1.326
94881W        W67949  25.835  21.359   1.784
94882W        W67950  12.725  15.064  13.736
94883W        W67951  14.110  32.948   1.570
94884W        W67952   4.702  29.028   3.373
94885W        W67953  13.285  25.019  14.991
94886W        W67954  41.782  39.315   2.828
94887W        W67955   3.626  16.195  10.822
94888W        W67956  15.787  26.204   3.224
94889W        W67957  38.056  27.075   3.561
94890W        W67958  20.681  22.977  10.700
94891W        W67959  36.891   9.257  13.031
94892W        W67960  31.138  28.182  13.746
94893W        W67961   6.427  18.766   0.975
94894W        W67962  26.085  32.724   4.669
94895W        W67963   7.351  39.543  14.653
94896W        W67964  44.690  40.562   3.545
94897W        W67965  28.091  20.353  14.537
94898W        W67966  10.362  28.927   9.858
94899W        W67967  23.064  19.250  12.563
94900W        W67968  33.030  36.502   0.066
94901W        W67969  12.350  39.430   3.345
94902W        W67970   9.252  41.761  10.431
94903W        W67971   1.549  32.797   1.193
94904W        W67972  17.544  11.965  10.193
94905W        W67973   2.866   9.747  14.704
94906W        W67974   8.433  37.897   1.902
94907W        W67975  19.091  25.523   2.142
94908W        W67976  23.205  33.066   0.606
94909W        W67977   0.880   6.573   0.241
94910W        W67978  21.966  36.089  10.990
94911W        W67979  44.092  23.276  14.029
94912W        W67980  19.681   7.320   1.864
94913W        W67981  18.624  13.715   4.445
94914W        W67982   3.470  41.803   4.407
94915W        W67983  25.015  37.902   3.235
94916W        W67984  12.912  32.505  13.820
94917W        W67985   8.955   1.789   1.282
94918W        W67986  20.019  36.885  13.905
94919W        W67987  24.278  24.174   3.675
94920W        W67988  23.043   5.042  10.060
94921W        W67989   2.036  25.620   1.417
94922W        W67990   8.420  25.921  14.499
94923W        W67991  10.727   6.640  13.898
94924W        W67992  26.760  20.067   3.764
94925W        W67993  23.701   8.113   2.247
94926W        W67994  43.307  31.703  13.738
94927W        W67995  34.368  21.712  10.528
94928W        W67996  12.469  26.531   4.040
94929W        W67997  12.556   7.158  14.996
94930W        W67998  10.324  13.677   3.356
94931W        W67999  10.673  10.801  11.521
94932W        W68000  32.455  13.579  13.359
94933W        W68001  10.102  23.508   3.710
94934W        W68002   7.078  26.687  12.665
94935W        W68003  22.680   1.396   4.152
94936W        W68004   1.220   5.396  12.543
94937W        W68005  15.050  44.787  10.697
94938W        W68006  10.131  10.260   1.178
94939W        W68007   9.993   8.258  14.917
94940W        W68008  24.183   1.428  10.936
94941W        W68009  22.615   9.710  13.106
94942W        W68010  22.225  40.569  11.134
94943W        W68011  35.797  43.095   1.349
94944W        W68012  32.503  30.674   3.536
94945W        W68013  16.033   6.642   3.940
94946W        W68014  23.944  23.427   2.790
94947W        W68015  41.829   2.875  13.365
94948W        W68016   5.190  16.149   1.824
94949W        W68017  27.500  38.901   1.733
94950W        W68018  23.743  23.259  11.300
94951W        W68019  20.981  22.550   3.262
94952W        W68020  20.234  40.455  13.540
94953W        W68021  30.119  39.963  14.085
94954W        W68022  19.874  25.325  14.260
94955W        W68023  36.333  33.391  10.625
94956W        W68024  44.884  32.978   4.433
94957W        W68025  26.950  38.942  12.489
94958W        W68026  38.026  17.052  13.405
94959W        W68027   0.612  42.503  13.489
94960W        W68028   0.262  21.848   1.791
94961W        W68029  35.328  12.546  12.471
94962W        W68030  11.666  14.868   3.194
94963W        W68031  11.828   0.861   2.333
94964W        W68032  15.066   7.843   4.388
94965W        W68033  16.555  10.696   1.687
94966W        W68034  14.084  13.197   2.751
94967W        W68035  16.256  28.694  11.821
94968W        W68036   6.215   4.700  13.637
94969W        W68037  30.087   6.295   4.730
94970W        W68038  20.018  19.300  14.248
94971W        W68039  20.307  14.777  13.467
94972W        W68040  40.583  26.492   0.907
94973W        W68041  44.600  30.435   0.825
94974W        W68042   2.553  12.661   3.252
94975W        W68043   0.367  13.840   3.226
94976W        W68044   4.949   8.089   0.968
94977W        W68045   2.268  41.006   4.510
94978W        W68046  35.521  22.308   4.035
94979W        W68047  37.121  31.777   0.457
94980W        W68048  17.983  40.875  11.001
94981W        W68049  30.534  31.950   3.604
94982W        W68050  22.779   0.258   0.101
94983W        W68051  42.558  28.790   1.498
94984W        W68052  12.831  40.960  12.265
94985W        W68053  32.517  11.970   3.719
94986W        W68054  26.395  19.634   2.667
94987W        W68055  24.675  12.227  13.456
94988W        W68056   5.367  18.797  14.500
94989W        W68057  32.958   2.837   1.177
94990W        W68058  32.849  33.422   0.854
94991W        W68059  32.472   5.783  13.368
94992W        W68060  30.175  34.045   3.173
94993W        W68061  38.406  15.108   3.668
94994W        W68062  26.177   6.859  13.396
94995W        W68063  44.273   4.735   0.427
94996W        W68064  22.258  42.770  10.405
94997W        W68065  31.454  43.948   2.092
94998W        W68066   2.504  43.420  13.603
94999W        W68067  24.671  20.249   4.215
95000W        W68068  10.574   3.372   5.157
95001W        W68069   0.015  30.748   3.199
95002W        W68070  29.020  29.989  14.741
95003W        W68071  10.751   7.793   5.084
95004W        W68072  40.605   5.921  14.748
95005W        W68073  38.945   4.521  11.601
95006W        W68074  22.717  36.102   4.588
95007W        W68075  43.675  27.546  12.144
95008W        W68076   4.733  24.128   1.247
95009W        W68077  38.813  18.870  12.934
95010W        W68078  40.365  35.913   0.661
95011W        W68079   6.369  39.981   5.586
95012W        W68080  32.481  32.612  12.661
95013W        W68081   8.277  19.759   3.582
95014W        W68082  10.099  22.810   2.330
95015W        W68083   9.302  31.678   3.735
95016W        W68084  19.683  43.997   9.855
95017W        W68085  38.075   3.967  13.978
95018W        W68086  23.721  26.014  12.668
95019W        W68087  11.671  11.919   1.853
95020W        W68088  12.892  13.544   4.530
95021W        W68089  42.521  38.801   3.234
95022W        W68090  18.370   4.148   0.820
95023W        W68091   1.426  44.509   4.433
95024W        W68092  32.583  29.611   1.393
95025W        W68093  21.783  25.191   2.272
95026W        W68094  12.265  37.459  13.796
95027W        W68095  42.446  16.164  10.219
95028W        W68096   2.749  32.254   3.112
95029W        W68097  44.503  44.653  14.870
95030W        W68098   7.184  36.308  11.125
95031W        W68099  39.832  24.289  13.409
95032W        W68100  25.640   8.270   0.817
95033W        W68101  20.229  11.230  13.375
95034W        W68102   5.521  43.610   0.265
95035W        W68103  19.033  13.648   3.673
95036W        W68104  13.102  11.608   0.460
95037W        W68105   6.173  38.479  11.463
95038W        W68106  21.618   9.274   2.622
95039W        W68107  25.056  27.602  14.064
95040W        W68108  37.421  26.629  14.567
95041W        W68109  21.619  43.299   1.938
95042W        W68110   8.207  32.184   4.927
95043W        W68111  18.240  21.729   4.757
95044W        W68112  13.859  36.433  12.452
95045W        W68113  16.551  10.727   0.610
95046W        W68114  13.246  44.585   1.796
95047W        W68115  22.700  37.587  12.955
95048W        W68116  36.906  12.680   4.530
95049W        W68117  22.413  12.748   2.725
95050W        W68118  11.091  26.561   3.566
95051W        W68119  29.425  29.415   1.759
95052W        W68120   1.652  29.944   2.298
95053W        W68121  27.501  41.963  11.135
95054W        W68122  42.855   4.697   3.856
95055W        W68123   1.757  34.605  14.938
95056W        W68124  23.524   0.754  14.292
95057W        W68125   1.248  27.666   2.259
95058W        W68126  32.563   7.268   4.544
95059W        W68127  13.601  38.103   3.158
95060W        W68128   6.814  23.813   0.328
95061W        W68129  34.553   3.387  10.625
95062W        W68130  42.931  25.823   4.552
95063W        W68131  21.505  22.044   3.222
95064W        W68132  14.118   2.700  12.492
95065W        W68133  36.936  33.980  13.039
95066W        W68134   7.763  41.485   0.310
95067W        W68135   5.403  40.464   3.184
95068W        W68136  26.088  43.814  14.521
95069W        W68137  41.294  41.014  11.962
95070W        W68138  21.413  43.779   0.259
95071W        W68139  44.411   1.196  13.092
95072W        W68140   5.926  33.899  14.565
95073W        W68141   7.433  10.320  12.135
95074W        W68142  38.529   5.934  14.630
95075W        W68143   0.331  34.702   1.982
95076W        W68144  22.124  15.426  13.929
95077W        W68145  24.177  27.039  14.764
95078W        W68146  31.927  21.768   2.283
95079W        W68147  36.865  23.658  11.088
95080W        W68148   5.874   5.093   4.346
95081W        W68149   0.972  35.205  11.580
95082W        W68150  44.061   1.767   3.010
95083W        W68151  36.570  24.133  14.441
95084W        W68152  14.186  20.438  10.646
95085W        W68153   7.777  27.784  11.511
95086W        W68154  19.303   5.209  14.008
95087W        W68155  33.516  27.433   4.680
95088W        W68156   4.793   3.844   1.425
95089W        W68157  19.505  41.945  13.511
95090W        W68158  39.017  34.909   0.330
95091W        W68159  29.663   9.732  11.030
95092W        W68160  32.756  20.234  11.988
95093W        W68161  21.526  33.513   0.777
95094W        W68162  25.970  39.800  14.438
95095W        W68163  10.809  38.228   1.748
95096W        W68164   1.013  30.534   4.124
95097W        W68165  41.418  37.144   1.033
95098W        W68166   0.967  22.696  13.312
95099W        W68167  25.960   0.077   1.344
95100W        W68168  29.107  25.917  11.044
95101W        W68169   0.372  41.185   2.815
95102W        W68170   4.737  17.728  13.879
95103W        W68171  30.977   2.152  12.057
95104W        W68172  39.901  44.363  10.879
95105W        W68173  22.610  36.272   2.722
95106W        W68174  37.467  34.305   1.415
95107W        W68175  16.771  13.623  12.613
95108W        W68176  25.147   8.410   0.993
95109W        W68177  44.816  24.697   3.850
95110W        W68178  25.649  21.086  13.478
95111W        W68179  17.553  22.507   1.978
95112W        W68180  34.233  17.309   2.430
95113W        W68181  32.042  36.584   0.909
95114W        W68182  12.852  23.986  12.120
95115W        W68183   1.922  13.850   0.861
95116W        W68184   0.084  17.207  13.201
95117W        W68185   0.745   9.261   1.425
95118W        W68186  37.416   1.337   3.131
95119W        W68187  33.891  26.754  11.587
95120W        W68188  12.229   3.936   2.811
95121W        W68189   3.023  16.614   3.515
95122W        W68190  10.379  19.843   3.154
95123W        W68191  34.196   4.307   3.242
95124W        W68192  32.555  22.154   0.862
95125W        W68193  19.674  22.410  12.987
95126W        W68194  34.496  11.298   3.075
95127W        W68195  24.481   5.944   1.139
95128W        W68196  44.252  36.989  11.387
95129W        W68197  31.124  25.424  14.283
95130W        W68198  33.991  17.164  10.285
95131W        W68199   8.510  41.870  11.470
95132W        W68200  44.390  15.976   1.212
95133W        W68201  43.020  11.910  12.123
95134W        W68202   0.567   3.069  12.130
95135W        W68203   6.718  30.451   2.777
95136W        W68204  26.785  32.867   2.953
95137W        W68205  34.871  26.106  13.872
95138W        W68206  24.038   6.185  11.960
95139W        W68207   9.255  26.960   3.241
95140W        W68208  17.646  10.711  11.508
95141W        W68209  13.802  10.852   2.732
95142W        W68210  16.605  21.052   3.914
95143W        W68211  28.062  31.438  14.478
95144W        W68212  37.574  37.910   2.747
95145W        W68213  20.618  18.562  11.980
95146W        W68214  25.408  18.518   4.302
95147W        W68215  16.279  26.227   1.304
95148W        W68216  25.553  28.652   0.862
95149W        W68217   2.287  23.374   2.876
95150W        W68218  14.754  38.027   0.088
95151W        W68219  26.046   2.993  13.342
95152W        W68220  14.052  22.200  11.685
95153W        W68221  39.442  37.552   1.757
95154W        W68222  13.352   2.799   4.910
95155W        W68223  29.078  30.934  13.113
95156W        W68224  11.455  13.003   3.134
95157W        W68225  39.398  20.711   0.296
95158W        W68226  41.361  35.304  14.421
95159W        W68227  12.259  41.484   1.452
95160W        W68228   8.090  40.007  14.885
95161W        W68229   6.905  23.340  13.095
95162W        W68230  42.238  23.495  13.995
95163W        W68231   0.308   4.152  11.595
95164W        W68232  28.242  14.690  14.450
95165W        W68233  27.077   4.361  13.801
95166W        W68234   2.114  35.547   1.837
95167W        W68235  19.534  16.156  13.525
95168W        W68236   1.625  12.711   1.753
95169W        W68237  27.768  31.493   3.196
95170W        W68238   2.799  18.102  12.334
95171W        W68239  21.176   8.215   3.026
95172W        W68240   2.936  27.515  12.437
95173W        W68241  44.899  30.492   1.292
95174W        W68242  41.040  41.983   3.724
95175W        W68243   0.346  44.166   2.621
95176W        W68244  44.012  13.869   0.785
95177W        W68245  23.708  28.505   0.341
95178W        W68246  15.213   1.781   1.349
95179W        W68247  13.179  30.563   1.066
95180W        W68248  28.965  37.647   3.749
95181W        W68249   5.350  12.164   0.863
95182W        W68250  23.464  43.039   3.635
95183W        W68251  39.510  33.109   3.730
95184W        W68252   5.444  21.031   0.292
95185W        W68253   8.187  10.600   2.749
95186W        W68254  37.807  37.053  11.132
95187W        W68255  19.644  40.912  11.656
95188W        W68256  10.760  18.017   4.339
95189W        W68257  17.669  10.771   2.642
95190W        W68258  25.935   3.782  13.775
95191W        W68259  40.982  40.039   0.422
95192W        W68260   3.029   4.110   2.280
95193W        W68261  17.965  31.470   2.148
95194W        W68262  11.111  34.608  11.559
95195W        W68263  23.015   7.642  13.554
95196W        W68264  41.037  31.858   2.000
95197W        W68265  41.755  35.595   3.137
95198W        W68266  32.032   2.193   3.030
95199W        W68267  32.816   6.022  13.751
95200W        W68268  27.899  13.696   0.225
95201W        W68269   6.136  39.912  11.470
95202W        W68270   7.879  10.764   2.164
95203W        W68271  43.379  25.224  11.171
95204W        W68272  42.695  39.323   1.795
95205W        W68273  22.510  24.921  13.341
95206W        W68274  34.293  18.666   0.228
95207W        W68275  23.795  20.662  11.100
95208W        W68276   9.264  40.536   0.247
95209W        W68277  29.105   7.822  14.314
95210W        W68278   8.209  17.556  13.846
95211W        W68279  20.539   0.091   0.711
95212W        W68280   4.392  25.282  13.400
95213W        W68281  42.481  41.933   0.405
95214W        W68282  29.189  28.493  11.867
95215W        W68283  21.365  39.732   4.204
95216W        W68284  28.691  13.313  12.072
95217W        W68285   8.334  35.516  14.104
95218W        W68286  27.843  39.579  12.619
95219W        W68287  29.613  40.521  11.515
95220W        W68288  19.167  36.882   2.247
95221W        W68289  27.197  28.425  12.899
95222W        W68290  16.419  14.616  13.343
95223W        W68291  39.976  36.152   0.978
95224W        W68292  41.790  16.139  12.573
95225W        W68293  35.640  32.842   0.405
95226W        W68294  13.301  27.892   5.096
95227W        W68295   3.880  40.811   2.445
95228W        W68296  32.697  31.126   3.745
95229W        W68297  23.545   6.201   4.271
95230W        W68298   0.898   9.879  14.858
95231W        W68299  30.433  36.926   0.957
95232W        W68300  24.520  31.550   3.733
95233W        W68301  31.936   6.877  11.172
95234W        W68302  15.216  41.979   2.990
95235W        W68303  33.517  30.924   0.421
95236W        W68304  31.075  24.185  13.815
95237W        W68305  13.833  24.098  10.658
95238W        W68306  20.668   5.851   1.469
95239W        W68307   7.981  30.037  13.572
95240W        W68308  33.641  43.437   1.999
95241W        W68309  10.897  32.368  13.359
95242W        W68310  29.902  21.845   3.085
95243W        W68311   7.927  28.202  14.826
95244W        W68312   3.215  26.527  14.567
95245W        W68313  27.696  10.644  12.156
95246W        W68314  41.024  34.111  14.986
95247W        W68315  27.645  16.797   3.676
95248W        W68316  17.070   5.450   1.506
95249W        W68317  41.926  22.256  12.078
95250W        W68318  22.669  22.064   0.878
95251W        W68319  28.552  19.318  14.743
95252W        W68320  39.304  12.227   3.185
95253W        W68321   4.507  44.993  12.083
95254W        W68322  42.800  43.346  12.796
95255W        W68323   1.906  12.180  12.041
95256W        W68324   8.629  23.310  12.672
95257W        W68325   9.253  24.456  14.364
95258W        W68326  28.427  28.130  10.547
95259W        W68327   8.399  44.555   1.369
95260W        W68328   0.286  42.701   3.858
95261W        W68329  27.072   6.265   3.323
95262W        W68330  10.945  40.130   2.867
95263W        W68331  31.473  21.774  13.920
95264W        W68332  18.771  22.411   2.934
95265W        W68333  34.301  36.363  14.487
95266W        W68334  43.211  22.658   1.935
95267W        W68335  36.086  16.636   1.295
95268W        W68336  26.704   1.343   1.829
95269W        W68337  25.206  27.168  11.170
95270W        W68338  10.277   7.429   3.273
95271W        W68339  33.561  29.176   4.669
95272W        W68340  30.400  18.066  11.143
95273W        W68341  32.521  21.452  11.453
95274W        W68342  28.691  27.436   2.941
95275W        W68343   6.709  44.810   2.696
95276W        W68344  40.535  44.370   2.776
95277W        W68345  16.979   6.826  10.007
95278W        W68346   0.428  44.927  10.666
95279W        W68347   5.652  15.094   0.073
95280W        W68348  21.252  11.783  10.766
95281W        W68349  11.171  40.414   0.259
95282W        W68350   8.358   0.429  13.381
95283W        W68351  40.554   5.385  11.141
95284W        W68352   8.915  12.141   0.865
95285W        W68353  29.783   6.871  12.997
95286W        W68354  30.574  27.231   3.709
95287W        W68355  16.379   7.946  12.542
95288W        W68356  17.066   4.045   0.734
95289W        W68357  31.055  14.626   0.439
95290W        W68358  14.311  12.617   0.432
95291W        W68359   4.841  44.821   0.997
95292W        W68360  13.151  37.265   1.635
95293W        W68361  39.957  26.192   3.874
95294W        W68362  27.668  27.551   2.734
95295W        W68363  13.276   5.458  11.451
95296W        W68364   6.229  39.290  12.360
95297W        W68365  18.865  24.748   3.231
95298W        W68366  19.942  21.059  12.560
95299W        W68367  10.858  44.650   0.044
95300W        W68368  40.162   4.808   3.339
95301W        W68369  30.019   8.726  11.151
95302W        W68370   1.969  23.872  11.720
95303W        W68371  31.167  20.168   3.530
95304W        W68372   6.478  35.926   3.531
95305W        W68373  31.586  34.405  13.952
95306W        W68374   7.885  41.300  12.315
95307W        W68375   6.154  12.281   4.189
95308W        W68376  13.137  44.913   0.099
95309W        W68377  24.981  27.044  14.443
95310W        W68378  21.091  19.082   0.368
95311W        W68379  27.742  26.792   3.764
95312W        W68380  18.286  41.481  10.678
95313W        W68381  31.556   4.187  14.956
95314W        W68382  33.099  42.558   0.295
95315W        W68383  27.074  24.470  12.560
95316W        W68384  39.859  16.262  10.288
95317W        W68385  29.218  25.086   4.529
95318W        W68386  34.549  23.326   1.928
95319W        W68387  42.714  19.244   1.950
95320W        W68388  26.214  11.126  14.460
95321W        W68389  21.503  40.843  13.281
95322W        W68390  38.366   8.393   3.682
95323W        W68391  36.948  17.281   1.919
95324W        W68392  23.240   8.715  11.045
95325W        W68393  35.490  20.490   4.757
95326W        W68394  44.723  39.488  11.549
95327W        W68395  20.601   2.710  11.526
95328W        W68396  22.124   4.887   2.896
95329W        W68397  32.585  40.964  11.360
95330W        W68398  19.164   4.243   1.808
95331W        W68399  24.757  14.201   1.172
95332W        W68400   1.524  33.177   0.849
95333W        W68401   7.323  11.376  11.080
95334W        W68402  32.997  42.798   1.510
95335W        W68403  40.626   2.758   3.830
95336W        W68404   3.365  18.541   2.825
95337W        W68405  38.021  15.988   0.869
95338W        W68406   2.748   9.553  14.223
95339W        W68407   9.122   9.140   0.506
95340W        W68408   5.832   6.830   4.706
95341W        W68409   7.400  10.848  11.967
95342W        W68410  33.856  21.651   1.127
95343W        W68411  33.701  17.310   9.861
95344W        W68412  25.636   0.265   3.499
95345W        W68413  42.202   0.255  13.386
95346W        W68414  22.219  22.509  13.374
95347W        W68415  10.421   5.747   2.692
95348W        W68416  39.873  35.643  14.312
95349W        W68417   4.390  31.192   3.718
95350W        W68418  12.713  26.992  13.955
95351W        W68419   8.864  33.766  11.957
95352W        W68420  17.832   1.860  11.158
95353W        W68421  25.528  21.738   4.531
95354W        W68422  39.514  32.118   3.639
95355W        W68423  10.810  17.555   1.982
95356W        W68424   3.478  11.172   3.715
95357W        W68425  38.425  41.803  13.346
95358W        W68426  19.942   9.215   1.189
95359W        W68427  16.899  40.528   0.870
95360W        W68428   4.185   8.582   2.024
95361W        W68429  10.757  17.198   0.702
95362W        W68430  24.615  38.318  14.470
95363W        W68431   4.272  16.402   0.275
95364W        W68432  31.547  37.870  14.922
95365W        W68433  25.172   9.234   3.630
95366W        W68434  24.729  21.002  14.448
95367W        W68435   8.492  26.913  14.320
95368W        W68436  44.416  16.621   4.708
95369W        W68437   2.427  15.502  14.490
95370W        W68438  32.036  23.200  14.710
95371W        W68439  33.100  18.220  13.512
95372W        W68440  35.617   5.345   2.328
95373W        W68441  12.878  17.164  14.478
95374W        W68442  21.597   9.377  13.864
95375W        W68443  10.167  38.088   0.979
95376W        W68444  21.259  16.839  10.609
95377W        W68445  30.800  44.393  10.895
95378W        W68446  19.162   5.262   3.899
95379W        W68447  24.508  24.758  13.168
95380W        W68448  44.448   7.358  12.557
95381W        W68449  39.339  26.961  12.092
95382W        W68450  24.770  27.349   2.186
95383W        W68451  28.216  33.678  12.999
95384W        W68452  17.220  17.364   3.746
95385W        W68453  25.627  31.989   0.750
95386W        W68454  28.013  42.394  12.893
95387W        W68455  22.568  32.723   3.633
95388W        W68456   1.133  25.717   2.829
95389W        W68457  35.324  24.562  14.470
95390W        W68458  32.084   0.742  12.585
95391W        W68459  34.868  26.964  12.834
95392W        W68460  42.449  12.279  13.058
95393W        W68461  24.096  10.933   0.896
95394W        W68462  37.854  27.599  14.498
95395W        W68463  39.180  39.376  11.805
95396W        W68464   6.946   7.630  11.141
95397W        W68465  12.721  34.504   3.615
95398W        W68466  17.648   6.805  14.309
95399W        W68467   0.277  24.470   3.797
95400W        W68468   9.875  44.378   2.816
95401W        W68469  12.058  26.682  13.050
95402W        W68470  16.810  36.619  14.024
95403W        W68471  34.603  28.981  11.602
95404W        W68472  39.949  13.341   1.686
95405W        W68473  36.032  43.283  11.131
95406W        W68474  41.984  18.957   4.512
95407W        W68475  12.671   4.433  11.429
95408W        W68476  41.464   3.692   4.121
95409W        W68477  19.008  10.376   4.378
95410W        W68478  35.882   6.123  13.889
95411W        W68479   6.339  15.489  13.449
95412W        W68480  12.745  21.438   2.541
95413W        W68481   7.009  12.652  13.446
95414W        W68482   8.797  32.075  11.817
95415W        W68483  10.141   7.928   3.123
95416W        W68484  40.830  30.181   4.654
95417W        W68485   4.592  20.170  13.949
95418W        W68486  12.258  36.049  14.248
95419W        W68487  12.906  28.013   4.250
95420W        W68488  24.690  25.167  12.508
95421W        W68489   4.413  35.572  12.214
95422W        W68490  12.411  44.366  10.707
95423W        W68491  36.381  24.712   3.234
95424W        W68492  42.433  36.018  13.449
95425W        W68493  25.978  21.674  11.592
95426W        W68494  33.269  26.959  14.877
95427W        W68495  37.079  32.746   0.311
95428W        W68496  29.405  30.990  13.533
95429W        W68497   4.457  24.193  14.575
95430W        W68498  40.397  12.313  10.525
95431W        W68499   7.397   1.203   4.686
95432W        W68500  23.020  27.285  12.886
95433W        W68501  38.809  30.140   3.651
95434W        W68502  24.144  20.501   0.865
95435W        W68503  26.304  20.732  14.596
95436W        W68504   0.371  25.712   3.137
95437W        W68505   5.695   8.621  13.035
95438W        W68506  18.039  32.147  11.582
95439W        W68507   9.702   5.364  10.722
95440W        W68508  38.497  16.365  13.368
95441W        W68509  12.600  41.833   4.743
95442W        W68510  11.253  43.528  12.030
95443W        W68511  43.349   8.700  12.583
95444W        W68512  43.000  41.837   2.802
95445W        W68513  32.759  20.830  11.954
95446W        W68514  26.523   8.652  11.993
95447W        W68515   7.618  19.510   1.797
95448W        W68516   7.735  11.872  10.998
95449W        W68517  33.199   9.384   4.133
95450W        W68518  11.362  26.645   0.216
95451W        W68519  26.291   3.212  10.476
95452W        W68520  18.062  30.344   2.890
95453W        W68521  24.115  30.142   0.169
95454W        W68522  19.620  31.892  14.993
95455W        W68523   2.727  19.570  10.941
95456W        W68524   5.879  35.134  14.033
95457W        W68525  27.293   9.787  11.554
95458W        W68526   2.763  12.696   1.100
95459W        W68527  40.639  25.285  10.294
95460W        W68528  34.542  19.088   2.860
95461W        W68529  19.311  26.627   0.751
95462W        W68530   0.368  28.885  14.066
95463W        W68531  39.858   6.335   9.885
95464W        W68532   6.459  29.053   5.054
95465W        W68533  41.733   0.740   2.693
95466W        W68534  44.473  36.795  14.562
95467W        W68535  41.507   8.683   2.171
95468W        W68536  12.012  10.913  13.426
95469W        W68537   2.785  24.569   0.643
95470W        W68538  24.140  23.220  13.958
95471W        W68539  35.493  35.989   0.837
95472W        W68540  13.317   5.851  10.898
95473W        W68541  30.990  25.079  11.463
95474W        W68542  17.296  41.444  13.707
95475W        W68543  41.791  32.512  12.407
95476W        W68544  30.440  22.226  14.361
95477W        W68545   0.827  12.231   1.784
95478W        W68546  42.498  23.218  14.935
95479W        W68547   9.769  22.992   4.863
95480W        W68548   5.682  33.241  12.398
95481W        W68549  19.230  35.975   4.694
95482W        W68550   2.902  34.053   4.809
95483W        W68551  19.482  43.853  10.741
95484W        W68552   1.841  29.875  10.776
95485W        W68553  23.406   6.659   3.168
95486W        W68554  37.480   6.184  11.578
95487W        W68555  39.956  25.811  12.161
95488W        W68556  23.929  28.489   1.797
95489W        W68557  16.279  30.439  10.700
95490W        W68558  40.997  11.805   0.941
95491W        W68559  18.581  25.058   4.175
95492W        W68560  21.434  16.735   9.952
95493W        W68561   7.452   1.466   3.768
95494W        W68562  27.445  13.477   0.336
95495W        W68563   1.219   1.703   2.383
95496W        W68564  20.131  18.238  10.315
95497W        W68565  21.522   9.960  13.922
95498W        W68566  26.763  22.624   3.273
95499W        W68567  27.651  44.337   1.668
95500W        W68568  40.993   1.243   1.823
95501W        W68569  22.524  10.183   1.184
95502W        W68570  25.323  37.560   9.586
95503W        W68571  22.250  44.876  13.382
95504W        W68572  20.156  30.560  11.433
95505W        W68573  29.469  12.147   4.341
95506W        W68574   7.334  42.008  14.482
95507W        W68575  13.647  30.522   3.599
95508W        W68576   6.839   0.418  12.580
95509W        W68577  35.852  37.808   2.738
95510W        W68578  24.756  15.248  12.949
95511W        W68579  43.784  33.417  14.297
95512W        W68580  18.177  20.527   3.903
95513W        W68581  24.050  42.851   1.858
95514W        W68582  16.651  25.236   1.012
95515W        W68583  28.582  38.953  14.286
95516W        W68584   1.043  28.231   1.664
95517W        W68585  29.311  19.279   2.379
95518W        W68586  11.323  32.690  12.465
95519W        W68587   8.638   3.671   1.885
95520W        W68588  21.964   9.192   3.521
95521W        W68589  33.625  35.376  14.252
95522W        W68590  11.708  30.135   0.796
95523W        W68591  29.495  40.825  11.113
95524W        W68592  21.721  17.696  14.812
95525W        W68593   0.886  43.474  10.726
95526W        W68594  18.556  25.588   1.246
95527W        W68595  25.126   3.763  10.717
95528W        W68596   9.351  20.423   2.406
95529W        W68597  31.052  42.944   3.579
95530W        W68598  27.693   3.970  13.339
95531W        W68599   2.182  30.147   4.584
95532W        W68600  20.101   2.111  11.447
95533W        W68601   4.420  17.847  11.171
95534W        W68602   3.195   2.872  11.934
95535W        W68603  15.666  18.185   0.499
95536W        W68604  37.277   3.375  14.909
95537W        W68605  42.868  19.553   2.342
95538W        W68606   8.197  18.864  14.285
95539W        W68607  20.806  18.648   0.320
95540W        W68608  31.490   8.419  11.917
95541W        W68609  42.951  18.711   4.066
95542W        W68610  20.327  25.655   0.847
95543W        W68611  23.591  29.992   2.694
95544W        W68612  28.032  25.491   2.331
95545W        W68613  22.103   3.810  10.849
95546W        W68614  24.269  18.649   4.574
95547W        W68615   1.001  40.348  10.685
95548W        W68616  20.730  44.838  13.618
95549W        W68617   1.464  41.366  10.714
95550W        W68618  22.130   0.684  12.378
95551W        W68619  27.621  37.249   4.816
95552W        W68620  13.482  39.549  11.026
95553W        W68621  18.155  16.779  14.647
95554W        W68622  17.310  26.967   0.638
95555W        W68623  16.606   6.743  13.637
95556W        W68624  35.603  15.441  13.399
95557W        W68625  18.518  24.229   3.225
95558W        W68626  20.301   3.700   4.576
95559W        W68627  39.808  18.019   2.747
95560W        W68628  18.614  34.085  10.998
95561W        W68629  42.463  20.475  12.954
95562W        W68630  14.825  31.302  14.988
95563W        W68631  26.439   9.343  12.418
95564W        W68632   6.374  13.257  12.032
95565W        W68633  15.904  38.933  11.334
95566W        W68634  26.702  43.470  11.493
95567W        W68635  26.633  34.080   2.916
95568W        W68636  31.614   4.850   2.401
95569W        W68637   8.612  10.266   3.733
95570W        W68638   2.905  15.244   0.912
95571W        W68639  32.502  16.858   0.257
95572W        W68640  33.452  41.692  12.063
95573W        W68641  10.763   5.954  12.823
95574W        W68642  12.436  40.407  14.576
95575W        W68643  26.868   8.228  14.249
95576W        W68644  19.525  34.089   3.096
95577W        W68645  34.312  43.407  11.179
95578W        W68646  40.575   6.581   5.150
95579W        W68647  25.598  43.316  10.776
95580W        W68648  15.606   4.082  11.157
95581W        W68649  12.986   6.987   1.363
95582W        W68650  41.504  20.735  12.437
95583W        W68651  25.169  12.592  14.790
95584W        W68652  29.388  43.303  11.102
95585W        W68653  33.897   0.972  11.056
95586W        W68654  20.624  19.152   1.656
95587W        W68655   0.238   6.323   0.945
95588W        W68656  19.305   4.929   3.206
95589W        W68657   8.209  42.488  14.931
95590W        W68658  29.047  32.408   2.318
95591W        W68659  16.310  13.356  13.030
95592W        W68660  22.644   9.287  10.603
95593W        W68661  13.722   4.286  11.209
95594W        W68662  23.281  43.846  12.040
95595W        W68663  11.034  17.806   5.298
95596W        W68664  16.126  18.892  13.324
95597W        W68665   8.410  13.287  12.538
95598W        W68666  12.700  38.706   1.375
95599W        W68667  37.811  39.387   0.675
95600W        W68668  41.218   2.773  12.542
95601W        W68669  44.662  35.500  11.949
95602W        W68670  36.320  40.056   3.334
95603W        W68671  25.582  29.036  11.921
95604W        W68672   1.978  22.009   0.627
95605W        W68673  11.159   4.340   1.397
95606W        W68674  17.124  44.402   1.721
95607W        W68675  40.573  34.948  11.207
95608W        W68676   2.987  11.521  11.007
95609W        W68677  10.638  29.253  14.628
95610W        W68678  14.954  26.152  12.202
95611W        W68679  10.283  33.598  11.234
95612W        W68680  17.852  29.140   0.452
95613W        W68681  34.443   1.795   3.762
95614W        W68682   6.178  36.829  12.465
95615W        W68683  41.420  20.186   4.138
95616W        W68684  13.338  39.560  11.543
95617W        W68685   3.852  43.435   5.010
95618W        W68686  37.292  18.813   4.092
95619W        W68687  31.652   4.863   3.818
95620W        W68688  35.097  34.575  11.515
95621W        W68689  42.009  25.323  12.026
95622W        W68690  37.663   5.682  14.912
95623W        W68691  38.828   3.145  13.366
95624W        W68692  43.322   5.300  14.064
95625W        W68693  36.127  26.588   4.169
95626W        W68694  42.789  15.074   1.006
95627W        W68695   9.858  27.145   4.685
95628W        W68696   7.308  25.901  11.209
95629W        W68697  17.600   1.235   1.802
95630W        W68698  39.794  13.682  12.427
95631W        W68699  25.005  17.341  12.571
95632W        W68700  28.645   1.402  14.609
95633W        W68701   0.962  20.923   0.933
95634W        W68702  28.493  27.412   4.905
95635W        W68703   5.372  18.744   0.353
95636W        W68704   3.287  29.503  14.945
95637W        W68705   1.923   0.592   2.855
95638W        W68706  11.296  13.163   3.594
95639W        W68707  36.334   5.395  13.056
95640W        W68708  23.645  29.744  12.439
95641W        W68709  19.296  38.483  11.625
95642W        W68710  36.158  23.282  10.638
95643W        W68711  34.627  22.523  13.318
95644W        W68712  42.963  39.085   3.314
95645W        W68713  33.893  40.569  12.126
95646W        W68714   9.470  43.126   1.539
95647W        W68715  22.008   9.730  13.827
95648W        W68716  41.005   7.320   1.035
95649W        W68717  12.909   5.734  11.201
95650W        W68718  23.865   1.968  14.719
95651W        W68719  42.425  19.816  13.581
95652W        W68720   1.823  19.649   1.674
95653W        W68721   5.800  40.014   0.434
95654W        W68722  40.543  34.072   3.209
95655W        W68723  31.612  39.382  10.580
95656W        W68724   1.249  30.260   0.490
95657W        W68725  10.333  39.064   2.525
95658W        W68726  28.944  20.455  12.341
95659W        W68727  40.263  38.981   1.859
95660W        W68728  36.551  24.055  10.042
95661W        W68729  23.530   9.930   3.793
95662W        W68730  10.147  33.886  11.643
95663W        W68731  30.403  15.285   4.632
95664W        W68732  23.626  17.221  10.552
95665W        W68733   9.291  21.425  12.972
95666W        W68734  30.676  35.118   2.913
95667W        W68735   6.608   0.775   4.237
95668W        W68736  29.511  30.868   4.611
95669W        W68737   7.821  38.450   4.131
95670W        W68738  21.643  39.854   3.750
95671W        W68739  17.739  14.291   4.055
95672W        W68740  43.960   0.872  13.307
95673W        W68741  35.170  34.594   2.659
95674W        W68742  39.382  39.216  14.347
95675W        W68743  33.373  11.820   0.918
95676W        W68744  30.355   2.501   2.969
95677W        W68745  22.367  16.753   3.773
95678W        W68746  40.543   8.793   2.631
95679W        W68747  14.708   7.592   4.648
95680W        W68748  41.512  20.457  13.827
95681W        W68749   5.351  19.276  13.526
95682W        W68750  14.897  29.181   3.884
95683W        W68751  12.908  31.964   9.892
95684W        W68752  19.954   2.518  13.435
95685W        W68753  30.481  36.374   3.332
95686W        W68754   4.643  30.563   0.794
95687W        W68755  21.239   6.635  12.064
95688W        W68756  22.095   4.876  13.422
95689W        W68757   6.281  11.453   4.732
95690W        W68758  25.634  41.932  13.325
95691W        W68759  37.001   2.941  12.554
95692W        W68760  18.592  25.201  14.026
95693W        W68761   9.953   4.146   3.777
95694W        W68762  12.740  30.791   2.459
95695W        W68763  14.585  18.693  13.004
95696W        W68764  28.436  19.215   2.437
95697W        W68765  14.664  31.873   2.252
95698W        W68766  24.974   9.216  14.980
95699W        W68767   0.013  41.930   2.875
95700W        W68768  25.730  38.828  12.702
95701W        W68769  16.645  30.874   0.543
95702W        W68770  24.623  28.665  12.513
95703W        W68771  40.275  21.211   1.842
95704W        W68772  33.593   5.964  13.860
95705W        W68773  20.226  17.325  12.450
95706W        W68774  31.298  18.223  12.012
95707W        W68775  41.053  12.584  14.431
95708W        W68776  11.586  35.982  12.712
95709W        W68777  23.830  42.824   2.773
95710W        W68778  34.772  41.236   3.637
95711W        W68779  36.080  30.141   2.826
95712W        W68780  14.350  20.041  13.009
95713W        W68781  11.480  24.528   1.456
95714W        W68782  39.891  36.065   0.481
95715W        W68783  39.582  34.167  10.706
95716W        W68784  13.216  41.810   2.429
95717W        W68785   0.798  36.534  12.914
95718W        W68786  41.013  17.790  12.455
95719W        W68787  25.193  23.054   4.227
95720W        W68788   5.942  18.173   1.390
95721W        W68789   9.532  41.352   5.223
95722W        W68790  40.458  31.235  12.520
95723W        W68791  33.403  39.903   1.378
95724W        W68792  33.348  12.687   2.018
95725W        W68793  13.560  12.746  12.945
95726W        W68794  36.478  11.706  13.350
95727W        W68795  19.300  17.660   4.161
95728W        W68796   8.657  28.086   3.731
95729W        W68797   5.347  37.367   1.848
95730W        W68798  15.683   6.807   4.269
95731W        W68799  29.061  33.988   3.050
95732W        W68800   6.713  15.168   3.798
95733W        W68801   9.129  33.840  12.936
95734W        W68802   1.373  30.959   3.250
95735W        W68803  31.967   6.541  13.280
95736W        W68804   1.360  25.752  10.575
95737W        W68805  31.320  17.309  13.991
95738W        W68806  31.733   4.837  14.458
95739W        W68807  33.038  11.753  10.828
95740W        W68808  33.343   0.294   0.530
95741W        W68809  18.797  40.597   0.808
95742W        W68810  18.143  28.898  11.069
95743W        W68811  30.185  20.458   4.585
95744W        W68812   7.880  37.072  13.114
95745W        W68813   7.448  17.803   4.311
95746W        W68814  13.366  29.617  12.457
95747W        W68815   1.506  32.508  14.318
95748W        W68816  30.341  34.405   3.981
95749W        W68817  43.181  34.912  12.511
95750W        W68818  26.712  44.988   0.275
95751W        W68819   1.319  28.192   2.653
95752W        W68820  25.438  21.766  12.467
95753W        W68821   9.809  14.370   4.516
95754W        W68822  34.389  22.803   4.193
95755W        W68823  24.480   1.938   2.672
95756W        W68824  28.378  32.482  13.608
95757W        W68825  33.203  12.296  13.489
95758W        W68826  38.851  29.232   0.790
95759W        W68827  40.373   9.599   4.856
95760W        W68828  19.271   1.622  11.122
95761W        W68829  37.832  12.327   3.735
95762W        W68830  15.148  39.734   2.876
95763W        W68831  13.634  30.922   2.849
95764W        W68832  37.059  20.825  10.508
95765W        W68833   6.130  23.624  11.515
95766W        W68834   0.940  32.491   0.731
95767W        W68835  41.027  22.284   1.462
95768W        W68836  36.857  25.876  10.996
95769W        W68837  44.711  28.597   2.806
95770W        W68838  26.647  41.281   4.132
95771W        W68839  33.455  26.600   2.706
95772W        W68840   9.291  18.897  12.312
95773W        W68841   7.349  28.936  11.139
95774W        W68842  36.946  44.195  13.435
95775W        W68843  15.282   3.604  14.377
95776W        W68844  22.151   3.068  12.645
95777W        W68845  13.401  42.957  12.863
95778W        W68846  15.403  19.666  12.159
95779W        W68847  38.167  34.819  12.838
95780W        W68848  35.856   8.775  11.574
95781W        W68849  19.250  27.112   0.501
95782W        W68850  16.513  40.877   2.870
95783W        W68851  29.071  18.977  14.574
95784W        W68852   2.917  26.767   3.708
95785W        W68853   9.976  19.532   3.210
95786W        W68854   8.147  39.449  12.076
95787W        W68855  28.723  26.716  12.508
95788W        W68856  16.541  41.771   2.707
95789W        W68857  20.726  29.517  11.091
95790W        W68858  20.584  36.586   4.446
95791W        W68859  25.686  23.245   2.901
95792W        W68860  44.413  25.036  12.856
95793W        W68861   0.799   9.999   2.832
95794W        W68862  14.691  25.067  13.512
95795W        W68863   9.730  14.709  14.753
95796W        W68864  10.616  11.369  13.324
95797W        W68865  30.596  38.261  14.004
95798W        W68866  14.566   4.697   4.746
95799W        W68867  20.251  33.341   1.020
95800W        W68868  25.533  41.098   2.382
95801W        W68869   4.527   2.312  13.895
95802W        W68870  13.730  18.600  14.513
95803W        W68871  10.573  29.617   0.386
95804W        W68872  24.993   1.346   3.152
95805W        W68873   4.264  21.770  12.966
95806W        W68874  12.270  23.056  13.905
95807W        W68875  31.865   4.659  11.604
95808W        W68876  26.555  25.076   1.388
95809W        W68877  42.074  35.099   0.428
95810W        W68878  12.348  33.354  11.905
95811W        W68879  11.988  34.160   4.124
95812W        W68880   8.509   5.053  12.456
95813W        W68881  35.133   6.130  12.039
95814W        W68882   1.248  37.640   2.670
95815W        W68883  32.161  11.318  13.220
95816W        W68884  35.829  31.377   1.667
95817W        W68885  43.821  16.197  11.176
95818W        W68886   5.311  44.425  12.892
95819W        W68887  16.418   0.409   1.449
95820W        W68888  17.362   0.875   3.100
95821W        W68889  30.579  18.314   2.715
95822W        W68890   3.871  25.409  13.383
95823W        W68891   1.470  29.975  11.973
95824W        W68892  15.289  16.286   2.773
95825W        W68893   5.921   2.223   3.682
95826W        W68894  21.308  21.055   4.678
95827W        W68895  35.303  26.040   0.056
95828W        W68896  38.304  31.090   1.805
95829W        W68897  29.431  11.546  10.251
95830W        W68898  36.540  44.574  13.678
95831W        W68899   8.609   4.724  10.638
95832W        W68900  16.628  40.080   0.891
95833W        W68901   8.819  24.125   0.743
95834W        W68902   5.834  22.809  11.123
95835W        W68903  14.117   7.658   3.266
95836W        W68904  37.146  11.245   2.136
95837W        W68905  41.831  40.856   4.071
95838W        W68906   0.861   4.377   3.189
95839W        W68907  40.435  23.656  11.087
95840W        W68908  28.116  14.917  12.647
95841W        W68909  20.619  10.257   3.077
95842W        W68910  26.409  31.649   0.893
95843W        W68911   7.999  10.770   1.171
95844W        W68912  43.168  17.733   2.805
95845W        W68913  16.995  33.507  14.350
95846W        W68914   2.091   0.773  12.621
95847W        W68915   7.957   8.942  10.994
95848W        W68916  23.687   8.415   4.184
95849W        W68917  30.955  21.540   3.329
95850W        W68918  42.005  43.411   3.733
95851W        W68919  30.975  19.958  11.540
95852W        W68920  35.391  43.192  11.704
95853W        W68921  41.535  26.561  10.874
95854W        W68922  43.392  33.572   3.017
95855W        W68923  10.554  23.767   3.781
95856W        W68924  43.933   3.355  10.577
95857W        W68925  36.409   7.256   4.113
95858W        W68926  24.098  13.571  12.033
95859W        W68927   6.257  26.440  14.870
95860W        W68928  36.360  32.966  12.033
95861W        W68929   7.249  33.955  14.280
95862W        W68930  29.090  16.224  13.866
95863W        W68931   1.880   5.783  13.873
95864W        W68932   2.806  15.868   0.460
95865W        W68933  37.289  24.516   2.204
95866W        W68934   0.522  35.381   1.152
95867W        W68935  33.884  41.238  11.275
95868W        W68936  13.545  33.658   2.452
95869W        W68937  20.817  19.538  12.001
95870W        W68938   4.513   4.816   4.307
95871W        W68939  25.079  29.576  12.943
95872W        W68940  26.548   8.109  13.843
95873W        W68941  33.717   2.292   2.740
95874W        W68942   5.807  26.742   4.818
95875W        W68943  27.014  19.741  12.854
95876W        W68944  15.705  25.581   2.102
95877W        W68945  33.545  35.497  10.611
95878W        W68946  35.038  40.877   3.409
95879W        W68947   0.492  17.209   1.327
95880W        W68948  25.396   4.415   4.629
95881W        W68949  39.938  17.267  12.023
95882W        W68950  32.909  21.730   2.163
95883W        W68951  11.192  18.701   0.808
95884W        W68952   3.768  29.463  13.859
95885W        W68953  35.077  20.590   0.263
95886W        W68954   5.305  31.080   0.764
95887W        W68955  41.006  20.990   0.579
95888W        W68956  14.836   1.426   1.269
95889W        W68957  25.482  35.025   2.671
95890W        W68958  28.699   2.157   4.734
95891W        W68959  29.149   3.846   0.168
95892W        W68960   2.809  25.567  12.026
95893W        W68961   2.582   5.701   0.035
95894W        W68962  27.973  20.755  14.051
95895W        W68963  31.879   9.413   3.639
95896W        W68964  21.698  29.408  11.091
95897W        W68965  16.736  17.975  10.601
95898W        W68966   6.165  24.558  10.891
95899W        W68967  15.841  18.279  12.081
95900W        W68968  22.922  14.366  11.625
95901W        W68969  11.778  15.763  14.947
95902W        W68970   7.506  28.079   5.030
95903W        W68971  25.160  11.285   5.169
95904W        W68972   1.691  13.266  14.375
95905W        W68973  42.576   9.329   3.164
95906W        W68974  31.947  12.600   1.949
95907W        W68975  21.288  14.342  14.000
95908W        W68976  39.020  23.711   2.216
95909W        W68977  23.463   9.432  11.560
95910W        W68978  33.491  10.432   2.640
95911W        W68979  30.594   6.680   3.529
95912W        W68980  15.219  18.604  14.237
95913W        W68981  28.973  39.539  13.888
95914W        W68982  20.170   7.351  13.328
95915W        W68983  24.035  34.807   4.521
95916W        W68984   4.338  10.829  14.350
95917W        W68985   5.431  23.167  11.609
95918W        W68986  23.767  13.802  11.673
95919W        W68987  42.962   0.235  12.263
95920W        W68988  40.322  36.908   0.309
95921W        W68989   8.454  11.739  13.074
95922W        W68990  30.507  25.072  10.635
95923W        W68991  32.980  15.512   1.202
95924W        W68992  26.087  19.878   1.577
95925W        W68993  14.237  31.336  14.355
95926W        W68994  23.903  19.643  10.483
95927W        W68995   2.983   3.929  10.813
95928W        W68996  15.195  16.372  11.607
95929W        W68997  38.078   9.401   1.871
95930W        W68998   8.713  26.186   2.710
95931W        W68999   9.341   9.280   4.609
95932W        W69000  20.335   1.864   3.611
95933W        W69001  17.320  19.097   1.864
95934W        W69002  26.701  43.770  11.945
95935W        W69003  34.023  29.378   4.843
95936W        W69004  23.924  36.456   2.781
95937W        W69005   9.862   4.269   4.286
95938W        W69006  44.051  16.744  14.870
95939W        W69007  28.356  35.320   2.298
95940W        W69008  26.537  37.386   4.592
95941W        W69009   3.247   3.416   0.758
95942W        W69010  20.638   9.528  14.283
95943W        W69011  39.951  30.455  14.292
95944W        W69012  17.578  21.880  13.384
95945W        W69013  44.957  35.396   2.830
95946W        W69014  27.868  23.585   0.679
95947W        W69015  24.493  19.729   0.680
95948W        W69016  17.056   3.917  10.920
95949W        W69017  11.332   0.679  11.540
95950W        W69018  10.112   3.393   0.337
95951W        W69019  29.033  36.128  12.870
95952W        W69020  20.186  24.273   1.951
95953W        W69021  38.698  39.732   3.554
95954W        W69022  26.662   6.443   0.961
95955W        W69023  23.036   6.451  12.987
95956W        W69024  11.884  11.668  14.277
95957W        W69025  14.222  27.154  13.425
95958W        W69026  11.989  33.002  12.249
95959W        W69027  11.133  24.421   2.216
95960W        W69028  34.172  33.896  14.483
95961W        W69029  29.488   5.627   4.263
95962W        W69030  13.141  16.700  11.587
95963W        W69031  44.441  35.260  14.266
95964W        W69032  24.182  41.900   3.041
95965W        W69033  25.155  12.067  14.839
95966W        W69034  44.044  11.389  13.550
95967W        W69035   3.237   0.181   1.218
95968W        W69036  37.973  38.517   1.449
95969W        W69037  36.360  35.716  13.863
95970W        W69038  20.815  38.394  13.998
95971W        W69039  23.885  38.968   4.120
95972W        W69040  36.407  15.361  14.885
95973W        W69041  39.971  13.208   4.597
95974W        W69042  37.845  35.040  13.650
95975W        W69043  25.618  32.624  14.467
95976W        W69044  12.573  13.502   3.685
95977W        W69045   9.520  26.129   0.795
95978W        W69046   7.390  15.738   0.026
95979W        W69047  20.991   2.388  13.434
95980W        W69048  13.285  40.487  13.231
95981W        W69049  39.846  34.541  14.326
95982W        W69050  29.567  10.640  12.629
95983W        W69051  28.479  29.678  11.603
95984W        W69052   5.940  14.532  11.005
95985W        W69053  13.982   6.216   2.687
95986W        W69054   3.149   9.283  13.097
95987W        W69055  20.792  23.656  14.048
95988W        W69056   4.609  13.667  13.787
95989W        W69057   1.844  13.623   0.023
95990W        W69058  25.482   9.888  12.983
95991W        W69059  13.310  29.817   0.402
95992W        W69060  23.014  39.446  10.916
95993W        W69061  39.296   7.741   1.234
95994W        W69062  20.487  22.183   3.223
95995W        W69063  30.957  26.658   3.059
95996W        W69064  12.133  44.043   2.773
95997W        W69065  16.268  30.885   2.282
95998W        W69066  41.392  31.471   2.459
95999W        W69067  10.210   1.247   3.719
96000W        W69068  15.647  12.916   0.403
96001W        W69069  24.981  20.532  14.383
96002W        W69070  24.234   4.748  12.064
96003W        W69071   9.813  43.298   0.097
96004W        W69072   2.012  11.662  11.264
96005W        W69073  28.385  38.498  13.266
96006W        W69074   5.477  27.177   4.203
96007W        W69075  36.490  24.414  11.073
96008W        W69076  33.893  34.113  13.619
96009W        W69077  13.286  37.075  11.678
96010W        W69078  38.989  32.324  12.151
96011W        W69079   6.901  41.382   4.631
96012W        W69080  13.644  33.014   4.560
96013W        W69081  25.080  39.931  12.667
96014W        W69082  43.220  20.221  11.145
96015W        W69083  30.236  16.792  11.195
96016W        W69084   0.893  25.986   4.197
96017W        W69085  26.921  24.073   0.261
96018W        W69086  39.059  27.622   0.375
96019W        W69087  39.455  18.317  10.488
96020W        W69088   8.346   8.901  11.597
96021W        W69089  30.261  38.070   1.856
96022W        W69090   4.997  29.549  13.971
96023W        W69091  25.066   1.455  12.419
96024W        W69092  30.194  38.537  13.837
96025W        W69093  26.416  14.633  14.798
96026W        W69094  13.302  34.450   2.739
96027W        W69095  38.582  10.828   1.776
96028W        W69096   7.743  27.908   4.164
96029W        W69097   8.850  27.574   3.738
96030W        W69098  40.050   5.242  12.400
96031W        W69099   8.976  42.265   2.334
96032W        W69100  19.639  36.119   0.254
96033W        W69101  36.437   4.098  11.034
96034W        W69102  37.973  33.383  12.014
96035W        W69103  20.405   9.209   0.951
96036W        W69104  28.906  33.019  12.534
96037W        W69105  22.228  33.368  13.862
96038W        W69106   7.437  29.142  14.715
96039W        W69107   7.980  34.454   0.317
96040W        W69108  26.406  11.397  14.047
96041W        W69109  44.668   0.233   3.658
96042W        W69110  34.121   8.874   3.139
96043W        W69111  11.356  13.931  11.627
96044W        W69112  23.931   5.367   3.770
96045W        W69113  13.252  34.597   0.177
96046W        W69114  23.952  13.673  12.534
96047W        W69115  10.421  24.020  14.281
96048W        W69116  17.390  39.825  11.589
96049W        W69117  36.868  32.970   4.360
96050W        W69118   8.262  18.100   3.681
96051W        W69119  17.130  27.116  10.272
96052W        W69120  33.372   2.834   1.816
96053W        W69121  41.926  27.645  13.271
96054W        W69122  35.885  33.612  10.695
96055W        W69123   6.287  44.584  14.674
96056W        W69124  27.654  30.164  12.911
96057W        W69125  38.769  21.073   0.905
96058W        W69126   1.272  25.063  12.561
96059W        W69127  32.009  20.899  13.031
96060W        W69128  27.592  20.146  14.493
96061W        W69129  20.248  24.496   4.132
96062W        W69130  38.534  24.341   3.910
96063W        W69131  10.300  14.339   4.695
96064W        W69132   3.143   3.800   3.991
96065W        W69133  15.145   6.987  11.592
96066W        W69134  25.096  40.521  13.352
96067W        W69135  34.309  11.256  13.558
96068W        W69136   3.408   0.936  14.496
96069W        W69137  36.481  14.786  11.909
96070W        W69138   8.231   2.462  12.589
96071W        W69139  18.154  34.472  11.632
96072W        W69140   9.354   6.312   3.127
96073W        W69141   3.899  21.500   4.344
96074W        W69142  23.273  19.490  11.071
96075W        W69143  42.002  11.100   3.152
96076W        W69144  10.676   2.810  11.619
96077W        W69145  37.024  21.079   0.783
96078W        W69146  22.435  38.929  13.985
96079W        W69147   5.432   8.206  14.839
96080W        W69148  36.785   4.496   2.156
96081W        W69149   7.058  42.901  10.672
96082W        W69150  39.026   4.924  14.947
96083W        W69151  27.541   7.630  12.018
96084W        W69152  13.586  42.811   3.726
96085W        W69153  28.562  36.177   2.632
96086W        W69154  13.635   7.432  14.881
96087W        W69155   6.720  34.300   1.742
96088W        W69156   3.032   4.876   2.037
96089W        W69157  38.405  30.920  12.660
96090W        W69158  17.649  35.723  11.526
96091W        W69159  37.793  29.581  14.730
96092W        W69160  25.045  34.852   2.444
96093W        W69161  22.078  44.726   3.629
96094W        W69162  12.739  18.175   2.316
96095W        W69163  40.042  20.126   4.433
96096W        W69164  14.434  33.608  12.522
96097W        W69165  11.846  14.100   3.616
96098W        W69166   9.360  32.928   4.476
96099W        W69167  15.246  16.254  14.621
96100W        W69168  17.166  35.575   5.085
96101W        W69169   9.138  41.055  11.216
96102W        W69170  39.996   7.411   5.251
96103W        W69171   4.695  12.336   0.054
96104W        W69172  23.685  19.806   3.283
96105W        W69173  33.894  19.178  11.945
96106W        W69174  13.611  22.170  14.413
96107W        W69175  34.431  18.017  13.454
96108W        W69176  43.727   7.800  11.179
96109W        W69177  22.497  26.471   0.330
96110W        W69178  13.880  30.420   3.158
96111W        W69179  29.047  35.967   3.142
96112W        W69180   8.655   9.438  14.870
96113W        W69181   0.361   6.297  13.504
96114W        W69182  12.716  39.290   2.711
96115W        W69183  36.583  19.246  12.976
96116W        W69184  19.719  26.216  11.114
96117W        W69185  27.702  14.162   3.278
96118W        W69186  39.583  41.011   1.439
96119W        W69187  21.141  19.330   4.672
96120W        W69188  28.058  43.761  10.465
96121W        W69189   8.339  27.039  13.816
96122W        W69190  43.280  32.589   2.607
96123W        W69191  40.996  43.040   4.204
96124W        W69192  30.637  37.036  13.535
96125W        W69193   7.748  33.460   3.017
96126W        W69194  13.705  44.199  14.944
96127W        W69195  38.830  29.943  13.542
96128W        W69196  29.402  14.754   4.361
96129W        W69197  39.841  13.076  11.526
96130W        W69198  38.302   6.646   3.888
96131W        W69199   7.934  33.551  12.568
96132W        W69200  33.889  38.018   0.964
96133W        W69201  31.466  25.260  13.935
96134W        W69202  26.262  16.084   0.829
96135W        W69203  38.646  27.081   2.743
96136W        W69204  43.307  28.269   1.775
96137W        W69205   1.216  10.315  11.135
96138W        W69206  42.331  42.769   3.125
96139W        W69207  19.111   3.395  13.773
96140W        W69208  19.624  40.397  11.676
96141W        W69209  30.580  23.124  14.918
96142W        W69210  26.108  22.996   2.714
96143W        W69211  39.516  27.675   1.127
96144W        W69212  27.692  20.987   1.301
96145W        W69213  26.143  27.464   2.285
96146W        W69214  35.382  40.498  12.395
96147W        W69215  18.945  26.056  10.754
96148W        W69216  11.817  10.531   3.263
96149W        W69217  26.803  28.581   2.402
96150W        W69218  34.607  18.814  12.114
96151W        W69219  24.212  18.651  10.871
96152W        W69220  13.332  38.263   4.200
96153W        W69221  23.653   7.329   4.219
96154W        W69222  13.833   3.423  10.975
96155W        W69223  13.617   2.288   2.247
96156W        W69224  35.363   4.633   0.852
96157W        W69225  39.520  15.705   0.022
96158W        W69226  20.525  24.497  12.540
96159W        W69227   4.401  42.656   3.889
96160W        W69228  27.872  43.775   1.133
96161W        W69229  15.183   7.450  13.350
96162W        W69230  20.830   7.563  12.935
96163W        W69231  41.482  10.455   2.870
96164W        W69232   2.742  21.045   3.270
96165W        W69233  32.349  24.714   2.370
96166W        W69234  21.271  23.385   1.375
96167W        W69235  16.165   9.148  10.890
96168W        W69236  21.382   1.248   4.046
96169W        W69237  15.887  20.532  11.477
96170W        W69238  14.340   4.228   4.636
96171W        W69239  17.730  36.385  13.026
96172W        W69240  39.600  16.164  10.732
96173W        W69241  18.137  24.785  13.436
96174W        W69242  13.292  41.506   4.229
96175W        W69243  17.700  34.285  12.679
96176W        W69244  37.345  12.796   1.321
96177W        W69245  44.042  42.919   3.213
96178W        W69246  39.382   1.570  13.913
96179W        W69247  38.741  13.876  11.513
96180W        W69248  33.488  15.006   0.444
96181W        W69249  37.819  16.797   2.712
96182W        W69250  10.391  25.707  14.693
96183W        W69251   6.868  15.745   2.718
96184W        W69252  26.013  12.814   2.691
96185W        W69253   2.273  13.153  11.944
96186W        W69254  30.437  24.463   4.231
96187W        W69255   7.418   4.255   0.318
96188W        W69256  15.512  13.279  11.786
96189W        W69257  21.390  43.480   2.919
96190W        W69258  14.571  42.517  14.879
96191W        W69259  27.912  34.597  10.760
96192W        W69260  14.072  35.444   0.407
96193W        W69261  19.557  34.841  14.894
96194W        W69262   6.762  13.073  13.551
96195W        W69263  23.245  38.970   0.471
96196W        W69264  31.712  14.193   4.639
96197W        W69265   0.237  14.628  13.945
96198W        W69266  15.260  38.790   2.664
96199W        W69267   6.934  36.261  11.584
96200W        W69268   6.798  41.396   0.833
96201W        W69269  44.390   4.821   3.286
96202W        W69270  25.087  13.212   3.189
96203W        W69271  27.677  41.517  12.082
96204W        W69272  12.159  21.066  14.292
96205W        W69273  24.581  10.832  14.266
96206W        W69274  21.985  38.516   1.338
96207W        W69275  35.427  14.535   3.190
96208W        W69276  19.748  11.736   2.831
96209W        W69277  38.392  43.766   1.652
96210W        W69278  29.815  15.268   2.204
96211W        W69279  17.546  19.042  10.478
96212W        W69280  13.122   7.453  11.576
96213W        W69281  15.007  24.932  13.113
96214W        W69282  16.634  35.565   0.912
96215W        W69283  20.136  31.634  11.112
96216W        W69284  41.498   4.685  14.847
96217W        W69285   3.454  43.055   1.825
96218W        W69286   2.052  13.847  11.131
96219W        W69287   5.894  31.681  12.112
96220W        W69288  18.318  44.351   0.641
96221W        W69289  29.697  40.545   1.288
96222W        W69290   8.485  39.043   0.810
96223W        W69291  39.825  29.121   3.683
96224W        W69292   7.780  41.260  13.289
96225W        W69293  33.954   3.695  11.432
96226W        W69294   2.718  22.168   1.019
96227W        W69295   6.256  21.241  10.303
96228W        W69296  13.751  15.798  11.520
96229W        W69297   3.200  14.806   2.874
96230W        W69298  19.285  14.622   1.178
96231W        W69299  44.415   0.816   1.422
96232W        W69300  19.246  35.733   2.834
96233W        W69301  38.434  18.962   1.740
96234W        W69302  15.736  21.322   4.492
96235W        W69303  35.536  22.468   0.459
96236W        W69304  43.980  44.843   1.220
96237W        W69305  31.512  28.098  12.018
96238W        W69306   6.722  10.865  12.931
96239W        W69307  18.274   7.742  13.926
96240W        W69308   5.297   0.235  12.478
96241W        W69309  19.034  44.454   1.306
96242W        W69310  43.232  19.129   3.332
96243W        W69311  42.936  30.708   3.313
96244W        W69312   2.207   2.037  14.845
96245W        W69313  15.254  30.224   0.849
96246W        W69314  44.029  18.813  13.225
96247W        W69315  23.918  21.611   4.102
96248W        W69316  14.335   2.446  11.224
96249W        W69317  30.447  25.632   2.382
96250W        W69318  19.631   8.005  12.747
96251W        W69319   6.136  43.770   3.212
96252W        W69320  28.984  42.978  11.223
96253W        W69321  17.806   5.301  14.422
96254W        W69322  23.662   2.659   4.546
96255W        W69323  30.069  31.849  10.761
96256W        W69324  23.555  13.859   3.345
96257W        W69325   5.671  27.101  12.682
96258W        W69326  39.977   7.213   1.845
96259W        W69327  27.557  40.479   0.000
96260W        W69328  19.190  35.976  11.712
96261W        W69329  43.950  13.586  14.020
96262W        W69330   6.822  22.201   2.393
96263W        W69331   2.706  12.096   0.549
96264W        W69332  25.538  26.109  10.599
96265W        W69333  19.078  24.987  13.980
96266W        W69334   2.210  41.225   0.787
96267W        W69335  37.836  26.247  14.468
96268W        W69336  32.158  14.203   3.725
96269W        W69337  29.941  10.838   2.157
96270W        W69338   6.329  26.532   3.604
96271W        W69339  24.264  34.904   4.994
96272W        W69340  31.002  30.396   4.697
96273W        W69341   7.641  14.590  11.896
96274W        W69342   1.843  28.106   2.813
96275W        W69343  21.714  42.388   3.353
96276W        W69344  17.401  34.508   1.065
96277W        W69345  11.893  30.141  13.941
96278W        W69346  17.046  20.172  11.245
96279W        W69347  40.923  31.844   0.956
96280W        W69348  40.322  12.798  13.517
96281W        W69349  23.881  14.181   1.657
96282W        W69350   9.879  13.245   0.277
96283W        W69351  44.023  19.020  10.741
96284W        W69352  22.697  26.253   2.690
96285W        W69353  13.933  41.507   3.383
96286W        W69354   2.988  16.863  12.057
96287W        W69355  38.894  28.882   2.871
96288W        W69356  18.858  33.676   4.182
96289W        W69357  35.394  23.384   4.108
96290W        W69358   0.096  44.273   3.576
96291W        W69359  15.326  36.774   3.794
96292W        W69360   4.315  33.566   4.647
96293W        W69361  29.212  36.257   0.950
96294W        W69362  22.994  16.202  12.164
96295W        W69363  40.020  29.152  13.026
96296W        W69364   4.196  39.468   1.691
96297W        W69365  39.450  44.080  10.469
96298W        W69366  33.521  15.360   4.628
96299W        W69367   4.260  27.145   1.787
96300W        W69368  28.846  27.704  11.544
96301W        W69369   9.327   1.944   0.271
96302W        W69370   3.002  13.531   0.459
96303W        W69371  23.678  43.485  13.873
96304W        W69372  42.424  26.586  11.541
96305W        W69373  25.098  12.231   3.094
96306W        W69374  22.621  35.951   1.176
96307W        W69375  10.331  12.063  14.087
96308W        W69376  36.794  35.463  10.776
96309W        W69377  44.945   3.170   2.114
96310W        W69378  16.689  44.015  10.565
96311W        W69379  24.499   6.190   4.109
96312W        W69380   7.385  32.984  12.824
96313W        W69381  12.821   8.348   2.389
96314W        W69382  10.349  11.077  11.184
96315W        W69383  39.531  11.535   4.004
96316W        W69384  15.611  19.447  11.144
96317W        W69385  29.773  33.743  12.058
96318W        W69386  40.344   6.685   1.985
96319W        W69387  13.747  18.957   1.293
96320W        W69388  13.221  26.704  10.746
96321W        W69389  13.479  23.269  12.402
96322W        W69390  18.286   6.195  14.033
96323W        W69391  41.462  40.892  11.486
96324W        W69392  29.441  18.628   3.746
96325W        W69393  15.388  13.281  14.264
96326W        W69394  35.889  15.922   0.278
96327W        W69395  22.551  17.590   1.827
96328W        W69396  16.239  27.680   3.612
96329W        W69397  18.367  20.106   4.114
96330W        W69398   2.917   9.693  12.795
96331W        W69399  30.947  37.267   1.266
96332W        W69400  27.099  22.531   2.652
96333W        W69401  21.995  29.440  13.394
96334W        W69402  37.626  25.514  12.975
96335W        W69403   7.764  22.350  13.447
96336W        W69404  34.017   0.600   3.773
96337W        W69405  21.811  13.543  13.800
96338W        W69406   9.662  42.515  12.878
96339W        W69407  30.890  35.134  10.803
96340W        W69408   2.853  31.318  14.867
96341W        W69409   6.939  26.578  14.429
96342W        W69410  24.100  38.293   0.861
96343W        W69411  30.407  44.523  12.565
96344W        W69412  33.971  11.699  11.607
96345W        W69413   3.560  28.832  13.963
96346W        W69414  32.190  15.661  13.446
96347W        W69415  36.418  16.669   4.500
96348W        W69416  37.817   9.892   4.610
96349W        W69417  15.612   2.995  11.054
96350W        W69418  10.800  34.629  14.819
96351W        W69419   5.196  32.233  10.332
96352W        W69420  31.794  14.496  14.863
96353W        W69421  28.012  38.933   1.715
96354W        W69422  14.186  32.884  14.447
96355W        W69423  30.844  17.025  12.507
96356W        W69424  36.901  24.123  10.882
96357W        W69425  13.407  14.743   3.963
96358W        W69426  35.914  24.137   0.967
96359W        W69427  25.559   7.111  13.960
96360W        W69428  33.972  17.494  12.054
96361W        W69429  20.720   3.408   3.570
96362W        W69430  44.875  28.045  14.020
96363W        W69431  33.103  35.899  12.350
96364W        W69432  23.983  17.444   3.231
96365W        W69433  10.219   2.977  10.597
96366W        W69434  40.335  38.508   0.808
96367W        W69435  25.267  21.988   2.848
96368W        W69436  38.003   3.303   0.491
96369W        W69437  18.498  25.452  14.461
96370W        W69438  24.101  17.311  10.355
96371W        W69439   3.653   5.459  11.633
96372W        W69440  41.746  27.405  11.437
96373W        W69441  33.417  18.694  13.410
96374W        W69442   5.437  31.598   0.800
96375W        W69443  44.458   4.532  10.691
96376W        W69444  31.524   6.781   3.805
96377W        W69445  27.217  41.383   3.077
96378W        W69446  11.785   4.967  11.093
96379W        W69447   6.757  33.825   0.941
96380W        W69448  42.137   9.409   4.542
96381W        W69449  26.404   2.896  12.037
96382W        W69450  19.231  38.561   1.847
96383W        W69451  21.514  29.614   3.744
96384W        W69452   6.702  19.005  13.535
96385W        W69453   8.198   9.626   4.567
96386W        W69454  16.120  38.817   1.373
96387W        W69455   4.381  30.174  12.129
96388W        W69456   4.782  23.241  14.327
96389W        W69457  32.108  32.176   4.085
96390W        W69458  37.021  40.495  14.011
96391W        W69459  26.502  11.409  11.942
96392W        W69460  31.707  44.031  14.407
96393W        W69461  31.952  14.753   3.894
96394W        W69462  17.657  35.642   4.929
96395W        W69463  41.274  42.885   4.652
96396W        W69464   6.275  21.526   0.871
96397W        W69465  15.668   1.531   2.360
96398W        W69466  35.188  32.501  14.874
96399W        W69467   0.561  18.127   0.813
96400W        W69468  10.595  18.469   1.479
96401W        W69469  31.855  10.861  13.300
96402W        W69470  21.586   7.803   4.126
96403W        W69471  30.999  26.487  10.435
96404W        W69472   6.970   7.906   4.550
96405W        W69473  34.571   5.811  10.873
96406W        W69474  41.003  25.852  14.873
96407W        W69475   5.971  11.727   0.313
96408W        W69476  43.362  14.398   1.197
96409W        W69477   4.902  38.741  14.698
96410W        W69478  12.898  21.054  12.485
96411W        W69479  21.227  10.056   4.614
96412W        W69480  21.623  42.036   4.573
96413W        W69481  40.279  25.669  10.521
96414W        W69482  29.339  41.824   0.503
96415W        W69483  15.246  17.535   2.184
96416W        W69484   1.552   8.754   0.234
96417W        W69485  25.030  30.467  11.460
96418W        W69486   8.580  39.154  14.939
96419W        W69487  12.767  10.783  13.959
96420W        W69488  42.859  22.118  14.269
96421W        W69489  15.753  26.596  10.581
96422W        W69490   7.345  25.666  11.664
96423W        W69491  23.194  44.911   2.383
96424W        W69492  27.260  20.787  12.849
96425W        W69493   6.072  44.544   4.172
96426W        W69494  17.031  20.431  12.130
96427W        W69495  43.327  39.417   0.379
96428W        W69496  19.915   6.111   3.785
96429W        W69497  32.159  40.488  10.885
96430W        W69498  25.159  26.052  12.806
96431W        W69499   3.799   4.803   3.364
96432W        W69500   8.083  13.762   2.521
96433W        W69501  24.821   8.233  13.521
96434W        W69502  28.301  41.377   4.954
96435W        W69503  40.589  26.113   4.746
96436W        W69504   1.658  40.893   3.798
96437W        W69505   2.230  43.898   4.171
96438W        W69506  19.153  41.545  13.957
96439W        W69507   5.701  40.774   4.591
96440W        W69508  22.038  24.295   3.285
96441W        W69509  34.621  30.995  12.982
96442W        W69510   1.394  26.401  12.652
96443W        W69511  35.559  27.947  14.980
96444W        W69512  22.636  23.917  11.185
96445W        W69513  16.162  15.149   1.397
96446W        W69514  17.381  14.821  12.562
96447W        W69515  19.693  25.919   1.406
96448W        W69516  15.550  25.658  10.511
96449W        W69517   6.283   9.919   4.656
96450W        W69518  19.250  30.373   4.407
96451W        W69519  22.544  20.591  12.599
96452W        W69520  27.625  14.107  10.695
96453W        W69521  30.700  21.527   3.786
96454W        W69522  23.878  31.859   0.845
96455W        W69523  19.477  18.997  13.657
96456W        W69524   9.653  39.893   4.792
96457W        W69525  44.154  30.514  10.286
96458W        W69526  14.017  29.198  14.379
96459W        W69527  29.645   2.415   4.652
96460W        W69528  18.995  22.648   4.222
96461W        W69529  17.722  32.955  13.014
96462W        W69530  31.402   3.427   4.168
96463W        W69531  42.847  38.945  14.414
96464W        W69532  33.570  32.743   1.196
96465W        W69533   9.712  44.383   1.923
96466W        W69534  10.894  42.562   0.748
96467W        W69535   5.761   5.823  14.120
96468W        W69536   6.289  15.654   4.576
96469W        W69537  40.831   0.537  13.050
96470W        W69538  28.038  13.916  14.779
96471W        W69539   4.699  16.605   1.442
96472W        W69540  28.298  42.752  12.632
96473W        W69541   9.798  31.195   0.839
96474W        W69542  39.784  11.730   0.187
96475W        W69543  18.776  15.788  11.427
96476W        W69544   1.036  14.118   2.342
96477W        W69545   9.089  10.210  14.430
96478W        W69546  23.268  11.256  11.853
96479W        W69547   9.283  29.126   1.402
96480W        W69548  10.920  37.519   3.668
96481W        W69549  44.997  28.709  13.761
96482W        W69550  14.398  21.205  14.841
96483W        W69551  16.556  39.294  13.104
96484W        W69552  17.102   9.313   0.954
96485W        W69553  24.720  20.097  14.470
96486W        W69554  28.662   9.943   3.363
96487W        W69555  23.438  21.278   4.191
96488W        W69556  36.057  33.039   2.370
96489W        W69557  27.015   8.735   0.518
96490W        W69558  14.887  27.188  10.559
96491W        W69559  11.715  25.922  10.829
96492W        W69560   2.471  16.283  11.850
96493W        W69561   5.429  26.240  12.014
96494W        W69562  19.520  11.308   2.645
96495W        W69563  37.061  24.137  14.300
96496W        W69564  10.276  18.541  13.339
96497W        W69565  13.675  16.117   1.160
96498W        W69566  24.151  42.568   4.703
96499W        W69567  26.198  29.171  13.505
96500W        W69568  39.098  34.938   3.540
96501W        W69569  11.719  26.194   4.081
96502W        W69570  21.512   7.264   1.112
96503W        W69571   2.698  13.587  13.003
96504W        W69572  40.046  23.072   0.366
96505W        W69573  30.434  41.083   4.130
96506W        W69574  36.065  12.883   3.920
96507W        W69575  29.452  19.298  14.437
96508W        W69576  43.756   9.411  12.101
96509W        W69577   8.976  14.649  14.005
96510W        W69578  20.736  18.601   2.755
96511W        W69579  42.844  15.610   1.695
96512W        W69580   6.691  27.573  13.975
96513W        W69581  14.096  44.533  14.946
96514W        W69582  14.341  24.702   2.784
96515W        W69583  41.301  22.128  10.679
96516W        W69584  22.550  21.053  11.328
96517W        W69585  24.890  33.064   3.000
96518W        W69586  15.553  25.246  12.250
96519W        W69587  36.955  31.057  12.055
96520W        W69588  37.460  23.317   3.531
96521W        W69589  42.540  26.697   2.771
96522W        W69590  19.141  44.753   4.909
96523W        W69591  22.805  41.570   3.571
96524W        W69592  41.480  28.113   0.302
96525W        W69593  37.344  31.562   0.924
96526W        W69594  25.089   6.851   2.756
96527W        W69595  19.864   9.920  12.920
96528W        W69596  15.214  10.923  11.676
96529W        W69597  38.537  18.512   2.380
96530W        W69598  28.413  37.437  12.030
96531W        W69599  29.960  33.257  14.924
96532W        W69600  24.596   7.615  12.900
96533W        W69601  37.959  27.901  11.084
96534W        W69602  41.732  27.479   0.434
96535W        W69603  19.205   0.976  10.563
96536W        W69604   1.528  30.731  12.010
96537W        W69605  39.615  11.869  10.141
96538W        W69606  37.363  26.717   2.805
96539W        W69607   3.441  17.269   4.105
96540W        W69608  17.195  39.739  10.654
96541W        W69609  19.234  42.978   1.564
96542W        W69610   5.715   5.698   1.783
96543W        W69611  28.459  12.567   1.801
96544W        W69612  34.793  20.782  14.253
96545W        W69613  24.209  44.910   2.925
96546W        W69614  16.945  28.303  12.846
96547W        W69615  11.072  23.133   3.918
96548W        W69616  12.723  29.232  11.976
96549W        W69617  41.837  12.612  13.411
96550W        W69618  28.200  42.856   0.731
96551W        W69619  33.357  17.983   0.500
96552W        W69620  44.415  15.700   0.289
96553W        W69621  17.003  29.006   1.807
96554W        W69622  36.960  43.315  12.894
96555W        W69623  39.216  19.157   2.817
96556W        W69624  41.615   5.722   2.228
96557W        W69625   5.347  18.575  10.558
96558W        W69626  37.072  17.606  12.143
96559W        W69627  38.018  15.687   1.307
96560W        W69628  36.357  35.112  14.502
96561W        W69629   3.356  25.047  11.956
96562W        W69630  20.313  29.116  14.746
96563W        W69631  37.166  43.000  14.841
96564W        W69632  28.458  19.091   1.937
96565W        W69633  20.690  39.077   1.413
96566W        W69634   3.354  36.430  13.840
96567W        W69635   4.278  24.000   2.693
96568W        W69636  30.727   4.071   3.690
96569W        W69637  27.696  35.314   3.964
96570W        W69638  38.304  40.597   3.176
96571W        W69639   0.984  42.079   1.962
96572W        W69640  24.694  39.523   2.402
96573W        W69641   2.435  22.399  12.858
96574W        W69642  22.556  26.819  13.913
96575W        W69643  22.217  38.081  10.716
96576W        W69644  11.353   0.265   4.842
96577W        W69645  13.732  23.025  12.013
96578W        W69646  34.385  18.182   1.410
96579W        W69647  18.150   2.448   1.620
96580W        W69648  33.498  21.205  11.584
96581W        W69649  31.428  29.610  11.975
96582W        W69650   3.401  39.103   1.831
96583W        W69651  13.011  41.951  10.434
96584W        W69652  28.179   9.335  13.107
96585W        W69653  23.046  30.483  10.421
96586W        W69654  22.996  29.185   4.075
96587W        W69655  27.758  36.319  11.162
96588W        W69656  39.207  20.614  14.822
96589W        W69657  42.681  27.062   3.658
96590W        W69658  30.933  38.592   0.800
96591W        W69659  41.463   8.654  13.686
96592W        W69660  38.070  36.221   0.410
96593W        W69661  31.597   3.392   2.802
96594W        W69662  23.035  32.899   3.388
96595W        W69663  24.661   6.294  13.583
96596W        W69664   7.466  17.251   4.325
96597W        W69665  25.494  18.178   2.267
96598W        W69666   5.100  33.048   4.698
96599W        W69667  34.072  43.699   2.214
96600W        W69668   6.231  31.812   5.042
96601W        W69669  13.010  32.935   4.608
96602W        W69670  29.184  14.162  10.651
96603W        W69671   1.663  11.703   1.503
96604W        W69672   9.910  39.579  10.585
96605W        W69673  20.288  32.527   2.362
96606W        W69674  35.641  15.203  12.071
96607W        W69675  30.074  37.670   0.025
96608W        W69676   6.230  31.496  12.573
96609W        W69677  15.788  16.732   1.757
96610W        W69678  18.861  25.003   3.701
96611W        W69679  30.941  32.517  10.810
96612W        W69680  31.824  34.504  14.856
96613W        W69681  10.581  38.715  14.895
96614W        W69682  34.677  43.929   4.271
96615W        W69683  25.895  38.509   3.613
96616W        W69684   1.184   4.409  13.940
96617W        W69685   2.265  36.882   2.682
96618W        W69686  23.399   0.983   3.696
96619W        W69687  44.757  20.631  11.481
96620W        W69688  26.152  36.665  13.505
96621W        W69689  19.101   2.794  11.218
96622W        W69690   1.706  26.604   0.308
96623W        W69691  38.549  29.732  11.061
96624W        W69692  30.876  38.786  10.641
96625W        W69693  26.426  30.556   0.778
96626W        W69694  30.180  36.336   0.250
96627W        W69695  22.247   6.435  13.436
96628W        W69696   7.487  10.776   1.177
96629W        W69697  40.751  16.684   1.980
96630W        W69698  42.900   8.904  13.002
96631W        W69699  31.640  18.805   0.351
96632W        W69700  25.342  35.165  13.884
96633W        W69701  11.394   9.861   3.616
96634W        W69702   4.230  38.235   3.296
96635W        W69703  40.716  15.160  12.584
96636W        W69704  32.077  36.577  11.137
96637W        W69705  39.979  44.718   4.154
96638W        W69706  24.504  33.402  12.486
96639W        W69707  12.469  23.101  12.525
96640W        W69708  23.212  38.875   4.473
96641W        W69709  17.078  11.223  11.260
96642W        W69710  28.038   1.246   2.129
96643W        W69711  11.839   8.186   3.160
96644W        W69712  17.845  13.112  12.484
96645W        W69713  27.759  14.125  13.909
96646W        W69714  17.590  16.656  14.793
96647W        W69715  32.580  41.367  10.954
96648W        W69716  40.689  20.118  11.568
96649W        W69717   8.733  38.058  14.999
96650W        W69718   2.046  29.238   1.892
96651W        W69719  35.930  35.637  11.962
96652W        W69720  11.836  39.646  13.923
96653W        W69721  27.408  24.702   1.246
96654W        W69722  43.476  41.424   0.756
96655W        W69723  23.739  37.559   3.375
96656W        W69724  39.424  17.002  14.369
96657W        W69725  40.569  36.838   0.792
96658W        W69726   6.292  21.503   2.206
96659W        W69727  23.274  23.707  10.491
96660W        W69728  13.373  32.764  13.938
96661W        W69729   4.304   8.562  12.931
96662W        W69730   3.696  41.788  13.115
96663W        W69731  37.079  43.256  11.457
96664W        W69732   9.353  41.005   0.470
96665W        W69733  21.623  32.515  10.586
96666W        W69734  32.472  27.503  11.846
96667W        W69735  27.356  15.863  12.254
96668W        W69736   2.274  31.853   3.609
96669W        W69737  11.998  41.373  12.239
96670W        W69738  12.765  33.626   4.595
96671W        W69739  35.908  12.832   2.685
96672W        W69740  14.229   7.806  12.972
96673W        W69741  31.156  29.086  14.718
96674W        W69742   2.515  33.148   0.944
96675W        W69743   8.789  36.404  10.285
96676W        W69744   7.657  40.719   2.029
96677W        W69745  34.886  29.592  12.930
96678W        W69746  22.145  10.906   2.230
96679W        W69747  22.326  16.555   0.528
96680W        W69748   2.879  36.023   4.637
96681W        W69749  14.668  21.540   4.749
96682W        W69750   4.834  20.550   9.801
96683W        W69751   9.217   9.634   2.144
96684W        W69752  23.196  35.748   3.348
96685W        W69753  42.838  26.671  10.362
96686W        W69754  44.700  26.887   1.039
96687W        W69755   2.910  44.956  13.773
96688W        W69756   5.839  38.524   0.399
96689W        W69757  35.030  13.573  11.131
96690W        W69758   5.439  13.341   3.597
96691W        W69759  33.057  20.336   2.332
96692W        W69760  35.505  11.681   1.194
96693W        W69761  32.119  27.685  10.481
96694W        W69762  26.658  32.625  14.266
96695W        W69763  36.052  10.211   3.181
96696W        W69764  20.765  26.647   3.239
96697W        W69765  40.915  33.154  13.591
96698W        W69766  34.885  32.503  13.058
96699W        W69767  10.892  40.553   3.789
96700W        W69768  29.788  41.976   0.898
96701W        W69769  20.271  25.282   2.102
96702W        W69770  11.699  27.511   4.423
96703W        W69771   4.196  16.534  11.546
96704W        W69772  17.470  21.623   0.160
96705W        W69773   7.297  30.579   4.431
96706W        W69774  27.476  42.478  12.015
96707W        W69775  29.036  41.480   2.200
96708W        W69776  38.322  43.901   0.473
96709W        W69777  20.319  12.398  13.060
96710W        W69778   8.275  10.967   0.254
96711W        W69779   6.835  27.418  12.902
96712W        W69780  30.187  30.061  14.201
96713W        W69781  30.696  44.553  12.150
96714W        W69782  14.052   5.780   2.422
96715W        W69783  10.699  26.507  11.037
96716W        W69784  12.413   6.155   1.699
96717W        W69785   0.296   2.399   3.770
96718W        W69786  36.478  23.300  11.055
96719W        W69787   8.959  28.521   0.987
96720W        W69788  33.418  28.497  11.421
96721W        W69789  12.840   7.891   4.932
96722W        W69790  13.360  40.309   2.230
96723W        W69791   2.771  33.726  12.343
96724W        W69792  38.741  11.640   0.500
96725W        W69793  18.197  39.939   3.915
96726W        W69794  42.010  37.880  14.936
96727W        W69795  19.110   5.171   4.413
96728W        W69796  10.081  28.454  13.339
96729W        W69797   2.212   7.764  11.172
96730W        W69798   4.407  35.914  13.539
96731W        W69799   8.241  22.548   0.411
96732W        W69800   5.557   1.984  12.859
96733W        W69801  17.353  22.670   1.364
96734W        W69802  32.534   4.545  14.453
96735W        W69803   8.845  32.513  12.614
96736W        W69804  17.240  34.391  10.735
96737W        W69805  30.084  24.756  10.650
96738W        W69806  25.753  15.727  14.412
96739W        W69807  41.013  37.005   2.199
96740W        W69808  43.863  28.139  12.430
96741W        W69809  17.164   8.382   3.599
96742W        W69810  24.701  16.656  13.961
96743W        W69811  44.512   6.774   1.788
96744W        W69812   6.213   8.419   0.411
96745W        W69813  25.526  11.535   4.911
96746W        W69814  30.444  34.277  13.353
96747W        W69815  16.608   7.493   4.836
96748W        W69816   5.895  12.326   3.717
96749W        W69817  32.354   6.463  11.601
96750W        W69818  11.756  25.296  14.059
96751W        W69819  33.473   0.864   0.412
96752W        W69820  25.772  16.769  12.179
96753W        W69821   0.826  40.285   0.997
96754W        W69822  34.520   8.824  14.551
96755W        W69823   5.266  19.016  13.993
96756W        W69824  27.640   9.079   3.687
96757W        W69825   1.335   7.877   2.796
96758W        W69826   3.091   8.584  11.079
96759W        W69827  18.701  33.198   4.953
96760W        W69828  18.167   9.782   0.828
96761W        W69829  25.369  34.882  10.200
96762W        W69830  18.228  28.230   0.259
96763W        W69831  13.529  41.404   3.774
96764W        W69832  33.448  15.692   4.102
96765W        W69833  23.465  37.831  13.791
96766W        W69834   5.659   7.784  11.509
96767W        W69835   4.846  38.402   1.180
96768W        W69836  29.221  15.337  13.356
96769W        W69837  40.098   3.477   3.218
96770W        W69838  41.278   6.740  11.787
96771W        W69839   9.810  12.118   1.206
96772W        W69840  43.570   1.397   1.302
96773W        W69841  22.477  16.177  14.676
96774W        W69842   1.279  13.114   3.216
96775W        W69843  18.701  12.267  13.016
96776W        W69844  15.671  12.859  14.109
96777W        W69845  30.268  37.044   2.917
96778W        W69846  19.976  14.471   1.742
96779W        W69847  29.263  23.602  14.943
96780W        W69848   7.240  10.664  12.466
96781W        W69849   5.966  18.736  14.598
96782W        W69850  35.160  28.132  14.211
96783W        W69851   6.952  16.040   1.441
96784W        W69852  40.728   7.408   9.797
96785W        W69853  39.870   8.284   0.770
96786W        W69854   6.289  17.205  12.895
96787W        W69855  23.179  12.090   4.277
96788W        W69856   1.215  27.178  13.587
96789W        W69857  14.590  16.204  12.334
96790W        W69858  23.421   8.310   1.849
96791W        W69859  33.433  24.191   1.847
96792W        W69860  28.185  24.935  12.992
96793W        W69861  10.452  38.983   1.936
96794W        W69862  26.713  23.458  14.509
96795W        W69863   6.216   3.686  13.401
96796W        W69864  39.891   4.916   3.766
96797W        W69865  34.140  37.634  13.430
96798W        W69866  19.548  24.687   2.385
96799W        W69867   4.834   6.535   1.508
96800W        W69868   9.463   8.728   4.006
96801W        W69869  33.539   8.354   2.627
96802W        W69870  11.285   4.313   3.139
96803W        W69871  15.536   7.710   0.429
96804W        W69872   5.724   2.209   1.176
96805W        W69873  23.140  32.401  13.486
96806W        W69874  33.610  29.564  12.465
96807W        W69875  21.769  30.661  10.692
96808W        W69876  28.176   2.807   3.385
96809W        W69877   9.863  38.906   1.194
96810W        W69878  30.414  31.739  11.952
96811W        W69879   8.872  13.759  14.089
96812W        W69880  35.044  31.679  10.626
96813W        W69881   3.928  17.038  13.476
96814W        W69882  15.565  17.046   4.821
96815W        W69883   6.373  17.887  13.643
96816W        W69884   1.802  17.517   0.408
96817W        W69885  30.856  11.108  13.445
96818W        W69886  12.133  18.688   3.894
96819W        W69887  43.893   1.889   4.020
96820W        W69888  22.009  29.529   1.395
96821W        W69889   4.303  36.704  10.418
96822W        W69890  37.845  11.712   0.343
96823W        W69891  18.196  10.048   2.789
96824W        W69892  42.797   6.153   3.624
96825W        W69893   0.540  22.082   0.243
96826W        W69894  31.992  15.069  11.668
96827W        W69895  27.041  41.617   1.780
96828W        W69896  30.501  10.138   1.395
96829W        W69897  44.241  13.734   1.225
96830W        W69898  15.063  27.641   0.028
96831W        W69899  29.361   0.824   2.440
96832W        W69900   8.682  40.001  10.386
96833W        W69901  23.741  40.460  14.379
96834W        W69902  11.756  23.019  11.989
96835W        W69903  37.365  33.105  11.475
96836W        W69904  17.732   2.841  12.333
96837W        W69905  38.965  22.647   0.295
96838W        W69906  43.250  33.405   1.967
96839W        W69907  26.509  32.486   2.742
96840W        W69908  36.027   8.164   3.672
96841W        W69909  37.411  23.447  14.271
96842W        W69910  29.865  23.743   2.738
96843W        W69911  21.100   4.799   2.787
96844W        W69912  41.239   7.307  11.536
96845W        W69913  26.969  42.102   2.817
96846W        W69914  24.728   7.844  14.890
96847W        W69915  12.643  43.899   2.824
96848W        W69916  28.106  15.617  13.528
96849W        W69917  43.006   2.739  12.983
96850W        W69918   4.234  14.694   2.760
96851W        W69919  32.012  25.453   2.101
96852W        W69920  39.436  20.685  10.889
96853W        W69921  30.704  18.990  13.164
96854W        W69922   4.894  33.987  11.947
96855W        W69923  34.024  19.258  10.997
96856W        W69924  44.514  40.242  14.451
96857W        W69925  10.359  41.954  14.383
96858W        W69926  36.431  42.996   2.330
96859W        W69927  13.531  39.105  14.907
96860W        W69928  33.590   6.356  13.529
96861W        W69929  22.002   2.400  13.493
96862W        W69930  10.874  32.614   1.378
96863W        W69931  12.818   2.812  13.025
96864W        W69932   9.155   7.149   3.699
96865W        W69933  22.722  40.873  13.842
96866W        W69934  34.561  43.590   1.524
96867W        W69935  11.733  23.613   3.117
96868W        W69936   4.998  11.560   2.402
96869W        W69937  24.923  16.645  14.413
96870W        W69938  12.646  15.109   1.128
96871W        W69939   3.019  37.153   0.921
96872W        W69940  12.100  13.987  14.465
96873W        W69941  40.518  20.538   1.258
96874W        W69942  10.962  11.379   1.936
96875W        W69943  11.420  39.898   1.305
96876W        W69944  21.104   6.427   0.917
96877W        W69945  19.074  32.958  14.017
96878W        W69946   8.934  17.473  12.091
96879W        W69947  33.616  15.242  14.989
96880W        W69948  30.626   4.904  12.096
96881W        W69949  21.749  12.776  14.744
96882W        W69950   0.420  29.233  14.460
96883W        W69951  13.994   6.938  13.928
96884W        W69952  41.007  26.580  13.324
96885W        W69953   6.409   2.315   2.781
96886W        W69954  22.614  38.343  14.871
96887W        W69955  16.375  17.526   0.389
96888W        W69956  26.192  23.231   4.609
96889W        W69957  27.983  13.700   3.278
96890W        W69958   1.806   6.415  14.031
96891W        W69959  25.564  37.630  11.747
96892W        W69960  29.281  15.248   0.321
96893W        W69961  27.482  23.149  13.047
96894W        W69962   3.155  13.806  12.880
96895W        W69963   3.156  22.981   0.415
96896W        W69964  33.411  39.771  11.908
96897W        W69965  40.305   6.278  12.509
96898W        W69966   1.530  21.847   1.775
96899W        W69967  11.801  32.114  12.650
96900W        W69968  29.940  24.368   0.789
96901W        W69969   1.825   5.210  10.760
96902W        W69970  14.695   1.782  13.423
96903W        W69971  43.259  14.827  12.877
96904W        W69972  43.111   6.448   1.230
96905W        W69973  10.311  42.433  13.429
96906W        W69974  24.759  35.330   0.362
96907W        W69975   2.021   9.726   1.418
96908W        W69976  44.371   3.987   1.822
96909W        W69977  20.705   0.412   2.391
96910W        W69978   3.802  42.780   4.178
96911W        W69979   7.951  17.222   4.509
96912W        W69980  28.133   5.202  12.121
96913W        W69981  29.723  17.663   2.276
96914W        W69982   4.129  42.064   0.807
96915W        W69983   9.877   8.643  11.665
96916W        W69984  39.391  42.941  11.458
96917W        W69985  15.693   7.378   3.378
96918W        W69986  19.737  30.203   2.424
96919W        W69987   6.128  23.597   3.276
96920W        W69988  18.010  14.942   0.108
96921W        W69989  33.547  24.503  12.908
96922W        W69990   1.542  42.066   1.416
96923W        W69991  43.850  35.414  13.087
96924W        W69992  10.121  43.838  11.847
96925W        W69993   5.051  24.666   3.550
96926W        W69994  11.419   2.745   2.275
96927W        W69995   2.174  20.194  11.157
96928W        W69996  19.693  20.515   0.228
96929W        W69997  20.139   6.045  14.763
96930W        W69998  27.958  25.359  14.243
96931W        W69999  31.476  28.409  14.197
96932W        W70000   5.945  25.753  13.816
96933W        W70001  29.856  14.638  13.068
96934W        W70002  35.315   5.943  14.398
96935W        W70003  13.584  31.582  12.335
96936W        W70004  41.843  13.783   1.976
96937W        W70005  36.567  36.110  14.164
96938W        W70006  38.939  34.099  14.925
96939W        W70007  43.447  27.469   4.028
96940W        W70008  39.017   7.314   1.276
96941W        W70009  40.505  28.269   3.699
96942W        W70010  34.001  15.739  10.877
96943W        W70011  29.495   6.015   0.324
96944W        W70012  28.159  27.414  14.338
96945W        W70013  22.105  26.710  13.415
96946W        W70014  22.769  13.790   2.161
96947W        W70015  42.770  17.344   2.738
96948W        W70016  31.111  23.229   4.172
96949W        W70017  13.323   4.288  14.992
96950W        W70018   5.889  33.532   0.469
96951W        W70019  24.700   4.403   2.706
96952W        W70020   4.838  44.130  14.910
96953W        W70021  12.083  35.423   3.807
96954W        W70022  35.363  37.470   2.902
96955W        W70023   0.885  22.187  13.374
96956W        W70024  12.131  14.907  12.886
96957W        W70025   8.991  43.367   1.493
96958W        W70026   9.393  36.718   4.272
96959W        W70027  33.185  11.179   4.863
96960W        W70028  31.116  24.143   4.988
96961W        W70029   6.379  42.802  13.446
96962W        W70030  17.006  42.056   3.194
96963W        W70031  25.946  38.806  11.853
96964W        W70032  31.058   3.283  10.379
96965W        W70033  36.524  30.419  10.619
96966W        W70034   0.313  24.950   3.622
96967W        W70035  14.230  18.188  13.776
96968W        W70036   0.640  43.114   5.201
96969W        W70037  13.859  25.104   3.418
96970W        W70038  41.251  26.674   1.694
96971W        W70039  24.687  34.377  12.483
96972W        W70040  12.400  11.214   3.227
96973W        W70041   2.789  32.065   4.135
96974W        W70042  12.816  30.428  13.503
96975W        W70043  29.582  41.247  13.367
96976W        W70044  19.201  38.781  11.053
96977W        W70045  15.272   3.028  14.154
96978W        W70046  30.724  30.839  12.191
96979W        W70047  22.757   9.245  12.950
96980W        W70048  39.067  37.526  14.546
96981W        W70049   4.129  22.137   3.126
96982W        W70050   1.179  17.251   0.810
96983W        W70051  37.409  35.363   2.131
96984W        W70052  13.545   2.532   2.712
96985W        W70053   4.257   6.776  12.040
96986W        W70054   4.965  27.502   1.272
96987W        W70055  14.962  29.023   2.139
96988W        W70056   2.654  36.577   0.320
96989W        W70057   7.172  10.149  10.560
96990W        W70058   8.771  42.774  10.954
96991W        W70059   4.340   0.711   4.380
96992W        W70060  13.948  36.319  10.766
96993W        W70061  12.344  30.620  10.934
96994W        W70062  18.101   5.029  12.579
96995W        W70063  17.869  25.575  12.434
96996W        W70064  30.430  10.996  12.178
96997W        W70065  17.748  38.088   4.582
96998W        W70066  25.112  35.324  14.341
96999W        W70067   1.276  44.334   1.391
97000W        W70068  19.319  12.909   4.160
97001W        W70069   5.325  18.340  12.343
97002W        W70070  42.106  20.512  13.894
97003W        W70071  12.248  10.880  13.895
97004W        W70072  23.596   8.960  14.606
97005W        W70073  43.213  29.529   2.593
97006W        W70074  19.585  28.327  13.534
97007W        W70075  28.927  14.877   1.102
97008W        W70076  17.256   5.115   0.572
97009W        W70077  42.526  41.419   0.475
97010W        W70078  37.888  26.888  11.070
97011W        W70079  32.006  22.954  10.951
97012W        W70080  43.538   9.259  14.317
97013W        W70081  33.573  38.296  12.907
97014W        W70082  22.261  36.227   4.109
97015W        W70083  23.567  25.150  13.466
97016W        W70084  41.973  41.874   2.767
97017W        W70085  25.707   4.221   1.537
97018W        W70086  21.293  25.163  12.883
97019W        W70087  23.543  31.999  11.203
97020W        W70088   6.883  22.806   3.252
97021W        W70089  24.898   7.790   3.601
97022W        W70090  32.098  33.442  13.873
97023W        W70091  39.240  28.070   0.937
97024W        W70092  33.538  39.840  14.735
97025W        W70093   5.833  17.102  11.107
97026W        W70094   3.256   6.893   3.888
97027W        W70095  32.064   8.137   2.187
97028W        W70096  43.811   8.115  12.389
97029W        W70097  11.915  24.200   4.306
97030W        W70098   3.394  12.257  11.889
97031W        W70099  33.107  44.215  14.879
97032W        W70100  31.863  33.020   1.496
97033W        W70101  38.318  23.031   4.420
97034W        W70102  29.742   2.686   0.359
97035W        W70103   8.699  24.454   1.808
97036W        W70104  43.960   6.858   3.747
97037W        W70105   4.280   0.037   0.372
97038W        W70106  20.358  42.476   2.644
97039W        W70107  23.141  28.885  13.491
97040W        W70108   2.670  21.937   3.352
97041W        W70109  44.327   5.395   3.277
97042W        W70110  15.902  31.919  10.262
97043W        W70111   1.197  41.215  11.123
97044W        W70112  26.690   7.427  10.783
97045W        W70113  41.571  44.380   5.113
97046W        W70114  15.109   8.616   0.454
97047W        W70115   5.782  29.729   3.644
97048W        W70116  21.157   7.102  12.251
97049W        W70117  35.891  10.366  13.440
97050W        W70118  35.367  13.278   3.409
97051W        W70119  12.852   1.895  13.089
97052W        W70120  25.005  30.450   0.378
97053W        W70121  30.656  28.806  10.246
97054W        W70122  27.176  10.844   2.113
97055W        W70123  30.959  25.688   2.441
97056W        W70124  30.492  26.296   4.748
97057W        W70125  39.941  23.685  12.766
97058W        W70126   8.372  31.105  14.340
97059W        W70127   4.321  14.367  12.821
97060W        W70128  26.780  25.718  13.485
97061W        W70129  42.075  11.394  11.996
97062W        W70130  33.401  22.245  14.453
97063W        W70131  15.982   9.328   5.004
97064W        W70132  28.208  43.750  14.747
97065W        W70133  16.523  23.910  14.973
97066W        W70134   6.800  12.061  13.997
97067W        W70135  21.100  14.669   0.673
97068W        W70136  34.523  38.328   2.199
97069W        W70137  11.241   8.708   0.778
97070W        W70138  16.836  36.534  12.189
97071W        W70139  19.337  43.955  10.258
97072W        W70140  25.302  18.635   4.786
97073W        W70141  18.647  35.172   1.212
97074W        W70142   8.914  16.291  14.492
97075W        W70143  11.793  11.373  11.577
97076W        W70144  19.138  24.487  13.853
97077W        W70145  22.143  32.453  14.813
97078W        W70146  33.011   4.378  14.498
97079W        W70147   4.384  12.831  14.240
97080W        W70148  38.917  12.202  12.554
97081W        W70149  17.833  36.822   2.678
97082W        W70150   5.913  19.688  12.547
97083W        W70151  26.018  26.962  12.469
97084W        W70152   4.262  20.063  14.799
97085W        W70153  30.664  17.283   4.784
97086W        W70154   4.328  44.022  10.528
97087W        W70155  23.807  42.473  14.313
97088W        W70156  34.958  35.070  10.088
97089W        W70157  30.090  41.852  14.541
97090W        W70158  16.165  34.895  10.855
97091W        W70159  14.804   2.679   1.331
97092W        W70160  28.253  38.357  13.852
97093W        W70161  30.785  38.521  14.430
97094W        W70162  17.117  40.376  13.117
97095W        W70163  19.537  12.761  14.710
97096W        W70164  26.616  29.520   3.193
97097W        W70165  25.558  37.104  12.114
97098W        W70166  18.629  32.059  12.943
97099W        W70167  31.503  27.066  10.482
97100W        W70168  26.552  23.240   2.594
97101W        W70169  41.416   2.268   2.754
97102W        W70170  43.780  17.736  11.190
97103W        W70171  13.906  19.579  13.692
97104W        W70172  42.826   6.824   2.385
97105W        W70173  44.694  12.186   4.251
97106W        W70174  27.726  21.577   4.273
97107W        W70175  12.099  29.926   1.336
97108W        W70176  37.927  24.295   4.645
97109W        W70177   7.397  14.045   1.656
97110W        W70178  33.960  13.061  12.028
97111W        W70179  13.155  42.907  14.834
97112W        W70180  29.107  21.849  10.768
97113W        W70181  24.579   0.743  10.791
97114W        W70182  37.790   6.048   0.409
97115W        W70183  27.917  20.553  13.576
97116W        W70184   1.204  10.986  13.977
97117W        W70185  19.149  24.093   2.209
97118W        W70186  15.566  39.490  13.979
97119W        W70187  21.297   5.800   2.182
97120W        W70188  35.154  39.018   3.794
97121W        W70189   9.127  14.259   2.207
97122W        W70190   5.451  15.597   0.066
97123W        W70191  14.223  43.996  14.902
97124W        W70192  18.497  10.272   4.301
97125W        W70193  18.178  14.360   2.315
97126W        W70194  36.548  44.914   0.525
97127W        W70195  26.768  29.422  11.961
97128W        W70196  37.538  10.859  14.925
97129W        W70197  38.596   9.847   1.958
97130W        W70198  11.260  28.693   1.722
97131W        W70199  27.744   5.706  14.022
97132W        W70200  22.926  29.977  14.895
97133W        W70201  12.209   6.391   3.603
97134W        W70202  24.722  32.433  13.992
97135W        W70203  33.107  34.426  12.982
97136W        W70204  16.606  33.580   2.642
97137W        W70205  23.034  26.707   4.605
97138W        W70206  18.961   2.301  12.440
97139W        W70207  37.693  24.554   1.865
97140W        W70208  36.386  34.519  10.959
97141W        W70209   4.838  12.875  11.176
97142W        W70210  43.790  12.113  13.471
97143W        W70211  43.464  33.321  10.901
97144W        W70212  41.394  43.403   3.106
97145W        W70213  29.633  42.817   0.947
97146W        W70214  40.085  11.505   3.330
97147W        W70215  37.094   6.952   3.288
97148W        W70216  15.318   1.738   3.719
97149W        W70217  36.889   2.774   3.151
97150W        W70218  42.227  34.877  10.744
97151W        W70219  32.384  27.635   3.286
97152W        W70220  32.572  27.590   2.253
97153W        W70221  30.160  17.948  12.544
97154W        W70222  20.445  19.249  14.814
97155W        W70223   7.741  20.602  12.153
97156W        W70224  30.595   5.213   3.248
97157W        W70225  44.055   6.791   1.536
97158W        W70226   6.931   1.761  13.377
97159W        W70227  38.412  22.752   0.553
97160W        W70228   4.908  14.010   4.155
97161W        W70229   8.629  19.560   1.689
97162W        W70230  13.760  33.968   3.229
97163W        W70231  33.525  36.601  13.879
97164W        W70232  30.425  38.748   1.859
97165W        W70233  13.375  17.109  14.441
97166W        W70234  26.187  10.630   1.786
97167W        W70235   1.519  33.548  10.699
97168W        W70236   3.887  11.633   1.305
97169W        W70237   1.363   1.915  12.496
97170W        W70238  25.800  30.029   2.332
97171W        W70239  38.813   2.982  10.723
97172W        W70240  35.477  42.471  14.992
97173W        W70241  25.058  31.223   1.237
97174W        W70242  29.925  12.178   1.550
97175W        W70243  11.580  19.066  14.424
97176W        W70244  20.001   3.296  10.305
97177W        W70245   4.744  14.743   2.731
97178W        W70246   0.299  13.025  11.232
97179W        W70247   9.188  42.439  12.023
97180W        W70248  44.006  37.753   2.815
97181W        W70249  17.048  26.961   2.104
97182W        W70250   3.122   8.097  13.491
97183W        W70251  11.321  44.603   0.808
97184W        W70252  12.133  10.501  14.796
97185W        W70253  26.411  44.694   0.890
97186W        W70254  16.375  39.887   0.422
97187W        W70255  39.927  24.053   2.843
97188W        W70256   7.564  44.905   1.671
97189W        W70257  12.247   8.801  11.891
97190W        W70258  19.707  30.193  13.491
97191W        W70259  36.868  27.259   1.717
97192W        W70260  34.450  39.292  12.457
97193W        W70261  33.586  42.979  10.909
97194W        W70262  32.378  43.453  14.702
97195W        W70263   4.382  34.651   1.310
97196W        W70264   1.478  14.312  12.447
97197W        W70265   0.481  25.567   2.295
97198W        W70266  21.229  13.197   4.832
97199W        W70267  40.221   1.373   1.335
97200W        W70268  25.288   8.687  14.744
97201W        W70269   5.006  32.120   2.904
97202W        W70270  30.600  36.420  13.127
97203W        W70271  22.622  18.199   0.990
97204W        W70272  39.980  21.021   3.146
97205W        W70273  15.506  27.912  11.964
97206W        W70274  37.962  25.160  10.594
97207W        W70275   6.833   8.280   1.748
97208W        W70276   9.169  10.352   2.691
97209W        W70277   8.234  30.059  11.467
97210W        W70278   4.674   7.828  14.920
97211W        W70279   4.666  41.345  13.783
97212W        W70280   9.852  27.219  14.288
97213W        W70281   7.832  38.592  14.949
97214W        W70282  36.053  39.835   2.622
97215W        W70283  27.207  32.730   0.717
97216W        W70284  26.302  24.076   1.828
97217W        W70285  13.853   8.692   1.860
97218W        W70286  19.748  44.965   3.158
97219W        W70287  35.542  37.102  12.331
97220W        W70288   9.100  20.091  14.367
97221W        W70289  19.717  27.856   1.370
97222W        W70290  39.583  33.097  10.676
97223W        W70291  39.065   6.002  10.259
97224W        W70292   0.254  34.963   2.803
97225W        W70293  30.925  11.425   4.254
97226W        W70294  35.541  10.260   3.223
97227W        W70295  15.150  34.430   3.223
97228W        W70296  20.730  40.452   4.391
97229W        W70297   4.094  17.454  11.135
97230W        W70298   7.680  24.526   2.732
97231W        W70299  24.149  15.528  11.953
97232W        W70300  39.311  20.691  14.322
97233W        W70301  10.450  25.384  13.343
97234W        W70302  15.271  28.129  13.182
97235W        W70303  13.163  35.102   0.087
97236W        W70304  25.915  15.064  14.431
97237W        W70305  27.531  11.894   3.955
97238W        W70306   5.094  31.085  14.768
97239W        W70307  21.980   6.870  12.524
97240W        W70308  27.502  25.428   0.014
97241W        W70309   5.350  39.957   1.287
97242W        W70310  38.290  37.539  14.941
97243W        W70311   4.425  27.495   0.418
97244W        W70312  24.485  39.920  14.453
97245W        W70313  14.765   6.457  14.949
97246W        W70314  13.658  15.128   2.140
97247W        W70315  10.175  30.019  10.525
97248W        W70316  13.931  27.857   4.849
97249W        W70317  35.007  44.446   0.964
97250W        W70318  15.126  19.097  14.418
97251W        W70319   1.202  44.281  11.395
97252W        W70320   4.336  23.058  13.367
97253W        W70321  39.431   2.403   0.754
97254W        W70322  33.356  32.101   2.312
97255W        W70323  11.341   0.288  14.443
97256W        W70324  26.512  36.209   2.323
97257W        W70325  40.925  23.098  11.680
97258W        W70326   9.874  35.115   3.674
97259W        W70327  34.303   8.766   4.892
97260W        W70328  38.923  29.999   2.442
97261W        W70329  18.690  37.079   4.563
97262W        W70330  21.922  34.547   2.343
97263W        W70331   9.662   0.923  12.021
97264W        W70332  27.102  44.723  13.459
97265W        W70333  19.505   7.754  14.894
97266W        W70334  11.262   5.512  13.955
97267W        W70335  30.899  22.769   3.825
97268W        W70336  33.581  41.475  11.628
97269W        W70337   4.209  26.115  12.036
97270W        W70338  34.888  32.143  13.865
97271W        W70339   0.549  43.876  10.725
97272W        W70340  14.542  23.948   3.785
97273W        W70341   8.640  33.115   0.231
97274W        W70342  38.910  19.025  14.852
97275W        W70343  36.763  37.429   4.600
97276W        W70344  40.473  19.068   2.223
97277W        W70345   4.842  25.768   0.218
97278W        W70346  12.847  31.202   3.279
97279W        W70347  16.291   3.464  14.965
97280W        W70348  11.617  38.432  12.969
97281W        W70349  31.187  26.460   2.653
97282W        W70350  26.585  44.579  14.652
97283W        W70351   3.172   7.859   1.328
97284W        W70352   7.393  21.674   3.722
97285W        W70353  16.027  23.532  11.486
97286W        W70354  39.174   1.796  10.217
97287W        W70355   5.435   4.675   0.389
97288W        W70356  43.283  35.625  12.887
97289W        W70357   9.952  38.871   1.717
97290W        W70358  10.848  29.727  14.913
97291W        W70359  24.054  43.258   0.012
97292W        W70360  11.186  33.526  14.315
97293W        W70361  10.290  11.619  11.068
97294W        W70362  14.098  24.453  12.974
97295W        W70363  32.867  17.278  12.492
97296W        W70364   4.139  22.167   1.754
97297W        W70365  23.561  10.828   2.636
97298W        W70366  11.967  12.778  11.150
97299W        W70367  19.364  16.006   1.594
97300W        W70368  35.526  21.694  14.873
97301W        W70369  34.794  32.312   2.354
97302W        W70370  26.579   7.273  10.310
97303W        W70371  12.560  43.759  13.945
97304W        W70372  10.143  23.999  13.330
97305W        W70373  19.199  41.534  10.559
97306W        W70374  15.753  44.827   4.323
97307W        W70375  24.659  35.162  11.955
97308W        W70376  15.699  27.111  12.449
97309W        W70377  16.743  39.485  10.584
97310W        W70378  29.950   9.791  14.462
97311W        W70379   5.458   0.443  12.947
97312W        W70380  36.476  29.503  12.791
97313W        W70381  25.522  22.691  14.139
97314W        W70382   3.199  32.045  11.082
97315W        W70383  14.524  11.054  13.884
97316W        W70384  41.435  13.058   4.700
97317W        W70385  19.125  36.945   1.725
97318W        W70386  24.272  30.045  10.751
97319W        W70387  14.597  42.108   4.547
97320W        W70388  31.366  30.443   3.443
97321W        W70389  32.373  29.048   1.696
97322W        W70390  37.373  16.058   4.836
97323W        W70391  27.144  23.582   3.245
97324W        W70392  42.667  37.322   3.223
97325W        W70393  18.591  17.231   1.898
97326W        W70394   4.226  26.539  10.353
97327W        W70395  31.383  20.682  14.914
97328W        W70396  16.090  18.095  13.049
97329W        W70397   5.937  43.445   2.277
97330W        W70398  20.966   6.205   0.062
97331W        W70399  23.601   9.320  12.801
97332W        W70400  20.436   0.155  12.666
97333W        W70401  23.522  29.066   3.152
97334W        W70402  34.905  32.639  13.977
97335W        W70403  37.917  26.980  13.738
97336W        W70404   9.762   5.804   1.824
97337W        W70405  19.163   1.185   4.119
97338W        W70406  42.118  42.066  11.357
97339W        W70407  24.647  21.815   0.748
97340W        W70408   6.730  40.359  11.151
97341W        W70409  29.684   2.454   2.131
97342W        W70410  28.392  44.482  11.109
97343W        W70411  29.237  30.752   2.303
97344W        W70412  37.502  28.131  10.998
97345W        W70413  44.952  13.717   1.874
97346W        W70414  35.086  32.161  11.036
97347W        W70415  15.143  16.735  14.443
97348W        W70416  30.933  30.199   5.177
97349W        W70417   2.479  44.796   3.654
97350W        W70418  31.890  10.205   2.680
97351W        W70419  32.314   1.681   3.785
97352W        W70420   1.439  30.664  13.104
97353W        W70421  21.751  41.125  11.538
97354W        W70422  44.184   6.984  13.499
97355W        W70423  37.527  10.633   3.921
97356W        W70424  30.182  19.548  12.942
97357W        W70425  37.935  24.214  14.291
97358W        W70426   9.396  10.602  11.117
97359W        W70427  13.119  23.968   3.744
97360W        W70428  37.929  31.621   2.697
97361W        W70429  14.175  26.356  12.084
97362W        W70430  40.122  19.249   1.799
97363W        W70431  25.235  26.558  12.805
97364W        W70432  17.121  26.983  12.582
97365W        W70433  41.312   1.054   3.462
97366W        W70434   3.381  26.281  10.707
97367W        W70435  14.061  10.622  10.809
97368W        W70436  30.717  39.529  12.113
97369W        W70437   0.774  26.445  10.377
97370W        W70438  43.642  27.700   3.624
97371W        W70439  27.964  15.089   0.268
97372W        W70440  27.938   5.507  11.049
97373W        W70441   0.366  35.037  11.363
97374W        W70442  43.419  36.027   2.873
97375W        W70443  34.452  19.031  13.547
97376W        W70444  15.812  39.971  13.003
97377W        W70445   4.356   9.827   0.310
97378W        W70446   0.011  19.979   1.734
97379W        W70447  35.059  34.207   3.015
97380W        W70448  37.628   9.231  11.686
97381W        W70449  44.208  32.378  12.614
97382W        W70450  41.748  38.068   3.234
97383W        W70451  16.162   8.301   3.213
97384W        W70452  12.854  26.146  13.585
97385W        W70453   1.774  42.173   2.833
97386W        W70454  36.593  28.872  10.674
97387W        W70455  19.688  17.179  13.928
97388W        W70456  23.231  15.114   2.690
97389W        W70457   6.342  27.985  14.881
97390W        W70458   6.826  27.163  11.945
97391W        W70459  12.768  10.708  10.444
97392W        W70460   4.831  31.553   5.038
97393W        W70461  36.833  12.550  13.608
97394W        W70462  25.575  13.618  11.879
97395W        W70463   9.876  39.889  12.349
97396W        W70464  37.544   2.896   1.717
97397W        W70465  21.624   1.196   3.076
97398W        W70466  14.177  22.624   4.059
97399W        W70467   6.287  21.008   0.935
97400W        W70468  27.303  35.331  12.057
97401W        W70469  20.244  16.768  11.509
97402W        W70470   2.673  33.529   1.675
97403W        W70471  44.059  39.673  14.959
97404W        W70472  11.399  10.825   1.224
97405W        W70473  34.832  35.603   4.354
97406W        W70474  11.663  37.207  11.154
97407W        W70475  38.053  16.978  14.776
97408W        W70476  13.541   1.350   1.134
97409W        W70477  25.542  42.945  11.107
97410W        W70478  16.648  14.739  14.823
97411W        W70479  19.246  22.588   2.849
97412W        W70480  34.073  22.532   2.953
97413W        W70481  29.116  23.626   4.024
97414W        W70482  22.799  19.043  11.763
97415W        W70483   4.520  34.916  10.611
97416W        W70484  41.372  17.668   4.331
97417W        W70485  16.712  40.287   2.351
97418W        W70486  16.239  19.276  13.626
97419W        W70487  15.270   9.830   0.941
97420W        W70488   2.718  29.064   4.161
97421W        W70489  31.763  36.451   1.355
97422W        W70490  15.887   9.681   3.970
97423W        W70491  26.020  43.339  14.773
97424W        W70492   8.574  39.720  11.936
97425W        W70493  39.289  16.225   3.407
97426W        W70494  16.127  11.903   1.832
97427W        W70495  23.988  31.965   1.760
97428W        W70496  17.710  13.932   4.413
97429W        W70497  14.495  28.892  10.686
97430W        W70498  11.338  23.147   2.924
97431W        W70499   5.325  43.698  13.529
97432W        W70500  13.921  18.704  11.179
97433W        W70501  33.080  31.178   1.758
97434W        W70502  16.234  11.180   1.314
97435W        W70503  23.233   4.596   1.352
97436W        W70504  17.757  44.266  11.191
97437W        W70505  42.012  43.788  14.404
97438W        W70506   5.681  24.608  10.669
97439W        W70507  12.625   1.087   1.644
97440W        W70508   7.731  38.253   2.900
97441W        W70509  27.731  16.776   0.732
97442W        W70510  29.527   7.320   4.166
97443W        W70511  11.329   1.918   0.380
97444W        W70512   0.417  19.591   0.557
97445W        W70513   9.272  17.019  14.344
97446W        W70514  42.365   0.819  12.301
97447W        W70515   3.176  14.618  11.449
97448W        W70516  23.064   2.723   0.668
97449W        W70517  22.764  12.642   4.081
97450W        W70518   2.502  26.004   2.832
97451W        W70519   2.225   4.858  13.038
97452W        W70520  43.512  44.823   3.166
97453W        W70521  12.247   6.169  14.393
97454W        W70522  41.048   7.233  14.401
97455W        W70523  24.675   9.861   3.063
97456W        W70524  19.858  18.173  12.890
97457W        W70525  28.472  29.301   3.636
97458W        W70526  33.383  37.587   4.143
97459W        W70527  41.417  26.152  13.087
97460W        W70528  44.386   3.394   2.875
97461W        W70529  21.559  41.527   4.502
97462W        W70530  19.647  11.703   2.310
97463W        W70531  42.875  17.610  14.753
97464W        W70532  15.207  12.597   0.316
97465W        W70533  16.967   2.025  13.915
97466W        W70534  28.944  13.029  11.160
97467W        W70535  34.341  37.186  11.034
97468W        W70536   4.281   7.384  11.460
97469W        W70537  43.781  22.147  14.819
97470W        W70538  37.541  24.199  12.657
97471W        W70539  13.829  15.460  13.952
97472W        W70540  42.394  19.397   3.314
97473W        W70541   7.980  13.305   2.252
97474W        W70542  33.129  14.248  14.840
97475W        W70543  39.770   5.490  11.528
97476W        W70544   7.008   3.465  11.406
97477W        W70545  33.528   2.759   2.330
97478W        W70546  23.688  15.314  12.100
97479W        W70547  29.977  25.547  12.083
97480W        W70548  43.422  25.236  13.838
97481W        W70549   6.164  33.625   1.349
97482W        W70550  27.700  40.088   4.793
97483W        W70551  37.945  29.022   2.208
97484W        W70552   8.791  12.832  10.460
97485W        W70553   3.354   2.218  13.097
97486W        W70554  42.958  23.899  13.927
97487W        W70555  27.568   7.439  14.320
97488W        W70556  29.673  38.367   3.339
97489W        W70557   5.909  30.222   3.613
97490W        W70558   0.587   0.334   3.722
97491W        W70559   8.350  35.879  14.968
97492W        W70560   5.296  38.568   0.976
97493W        W70561  29.296  16.762  12.441
97494W        W70562  11.440  18.761   1.822
97495W        W70563  44.345  10.189   3.154
97496W        W70564  35.393  29.964  11.317
97497W        W70565  41.416  14.631  14.921
97498W        W70566  28.920   3.720  11.170
97499W        W70567  36.026   8.221   0.837
97500W        W70568  36.644  24.794   1.832
97501W        W70569  31.349  11.801   3.245
97502W        W70570  44.322  28.882  10.077
97503W        W70571  41.955   2.213   4.653
97504W        W70572  20.457  40.876  11.363
97505W        W70573  40.835  36.577  14.731
97506W        W70574   7.159  13.258   2.677
97507W        W70575  38.035  43.820   3.739
97508W        W70576  43.552  35.061   2.256
97509W        W70577  17.022  44.580  12.951
97510W        W70578  39.591  20.156   4.878
97511W        W70579   3.075   5.616  13.327
97512W        W70580  22.740  11.697  14.267
97513W        W70581   2.452  38.903   4.690
97514W        W70582  24.867  24.998   3.641
97515W        W70583  44.949  28.548  12.412
97516W        W70584  19.215  40.393  11.039
97517W        W70585  40.263  22.021  10.961
97518W        W70586  43.858  22.983   1.416
97519W        W70587   1.386   2.961  12.526
97520W        W70588  38.874  30.684   4.871
97521W        W70589  40.336  20.587  14.836
97522W        W70590  31.648  29.912   2.307
97523W        W70591  38.989   4.906  12.532
97524W        W70592  12.781  34.686   1.200
97525W        W70593  16.181   3.807   2.163
97526W        W70594  42.185  42.904  13.360
97527W        W70595   1.258  15.231  14.917
97528W        W70596  25.701  29.967  13.369
97529W        W70597  11.538  23.753  10.298
97530W        W70598  11.167  36.568   4.574
97531W        W70599  19.818  28.549  14.389
97532W        W70600  34.739  24.742   0.263
97533W        W70601  43.849  21.049  13.537
97534W        W70602  30.957  30.900  10.817
97535W        W70603  22.264  27.247   1.957
97536W        W70604  30.037  39.641  14.510
97537W        W70605  19.495  14.039   3.086
97538W        W70606  38.504   4.734  13.832
97539W        W70607  28.944  39.309   3.907
97540W        W70608  43.133  11.484  13.858
97541W        W70609  44.506  41.893   0.265
97542W        W70610  33.489  40.991  11.494
97543W        W70611  41.345  32.663   3.765
97544W        W70612  25.263  14.218   0.190
97545W        W70613  23.548  30.015  14.109
97546W        W70614  38.297  18.274   2.906
97547W        W70615  29.920  13.315   2.495
97548W        W70616  11.748  30.054  11.874
97549W        W70617   9.838  21.702  13.077
97550W        W70618  18.111   8.811  12.055
97551W        W70619  25.416   2.429   2.795
97552W        W70620   1.702  27.060   3.127
97553W        W70621  38.609  10.395  14.308
97554W        W70622   4.888  24.324  14.306
97555W        W70623  37.417  29.865   0.808
97556W        W70624  39.839  26.063  13.567
97557W        W70625  43.164  32.981  14.838
97558W        W70626   7.497  34.834   1.177
97559W        W70627  32.345  13.884  12.952
97560W        W70628   8.750  37.077   1.835
97561W        W70629   0.367   6.824   4.256
97562W        W70630  29.495  42.250  11.014
97563W        W70631   5.720  28.046  11.969
97564W        W70632   4.919  38.840   3.707
97565W        W70633  10.166  35.343  14.355
97566W        W70634  12.761  19.811  14.544
97567W        W70635  13.899  10.275   0.265
97568W        W70636  41.037  44.484   4.923
97569W        W70637  40.270   9.205   2.845
97570W        W70638   5.322   6.425   2.633
97571W        W70639  38.437  40.043  14.066
97572W        W70640  29.241   4.360   3.817
97573W        W70641  11.799  20.297  14.032
97574W        W70642  24.160  20.484  12.789
97575W        W70643  11.450  27.612   0.388
97576W        W70644  19.213  32.929  14.518
97577W        W70645  15.632  10.420  13.107
97578W        W70646  16.787  36.156  10.558
97579W        W70647   6.274   9.134  14.745
97580W        W70648  22.570  43.552   0.381
97581W        W70649  30.532  25.372  11.635
97582W        W70650  10.131  36.580  11.076
97583W        W70651  13.958  17.812   1.850
97584W        W70652  40.452  17.197  14.921
97585W        W70653   4.503   5.747  11.819
97586W        W70654  14.203  41.587  13.570
97587W        W70655  20.766  15.838   4.893
97588W        W70656   5.384  30.003  13.554
97589W        W70657  30.117   5.861   3.901
97590W        W70658   8.261  18.629  10.554
97591W        W70659  28.558  26.866   2.302
97592W        W70660  36.830  36.068   0.977
97593W        W70661  41.289  42.270  12.563
97594W        W70662  32.420  43.953   2.382
97595W        W70663  18.370   9.600   1.695
97596W        W70664  35.612  35.563  14.333
97597W        W70665  26.472  17.188  12.373
97598W        W70666  28.773  25.324  12.558
97599W        W70667  44.534  44.217  13.991
97600W        W70668  39.359  20.333  13.951
97601W        W70669  38.850  44.273   2.294
97602W        W70670  38.265  21.206   4.281
97603W        W70671  35.163   9.893  12.435
97604W        W70672   1.762  42.720   3.206
97605W        W70673  32.364  17.088   3.172
97606W        W70674  38.498  25.956   2.185
97607W        W70675  23.255  35.283   1.422
97608W        W70676   4.745   0.173  14.877
97609W        W70677  20.118  24.784   4.547
97610W        W70678   5.538  41.410   3.311
97611W        W70679   0.835  31.375  13.780
97612W        W70680   7.314  28.372  11.981
97613W        W70681   4.448  31.375   3.162
97614W        W70682   1.091  25.211   4.625
97615W        W70683  17.885  17.272   3.232
97616W        W70684  43.818  31.516   4.520
97617W        W70685  31.468  38.502   0.439
97618W        W70686  33.982  18.712  12.807
97619W        W70687  31.562   1.437   0.376
97620W        W70688  17.230  37.733  14.300
97621W        W70689  24.058  36.992  12.109
97622W        W70690  20.536  44.294   5.078
97623W        W70691  39.618  38.335   1.352
97624W        W70692  27.181  19.294   0.002
97625W        W70693  15.133  13.654  11.094
97626W        W70694  42.345  36.062  14.830
97627W        W70695  22.046  19.579   2.177
97628W        W70696  40.987  36.492   0.639
97629W        W70697  36.603  35.499   1.717
97630W        W70698   9.729  37.503  12.931
97631W        W70699  16.680  34.525   2.247
97632W        W70700  32.584  40.562  12.148
97633W        W70701  32.539   3.387   1.775
97634W        W70702  35.916  36.569   2.328
97635W        W70703  20.235  40.875   4.751
97636W        W70704  16.304  31.455   1.420
97637W        W70705  44.253  24.827   4.596
97638W        W70706  26.220  36.329   3.658
97639W        W70707   7.567   3.847  13.874
97640W        W70708  37.483   6.680   0.884
97641W        W70709  21.743   6.493   0.171
97642W        W70710   5.458  41.342  11.968
97643W        W70711  26.972  41.822   1.249
97644W        W70712  28.652  31.170  12.447
97645W        W70713   9.248  41.251   1.847
97646W        W70714  42.825  37.799   3.361
97647W        W70715  24.886  33.767  14.383
97648W        W70716  28.068  35.134  13.269
97649W        W70717  36.054  19.086   1.652
97650W        W70718  33.394  24.189   2.814
97651W        W70719   3.286  21.582  10.962
97652W        W70720   2.911  15.160  10.594
97653W        W70721   7.137  13.838  11.412
97654W        W70722  42.044  41.271  14.448
97655W        W70723  21.728  13.500   2.749
97656W        W70724   6.346   9.113  13.393
97657W        W70725  38.915  19.005  10.598
97658W        W70726  16.707  35.071  12.958
97659W        W70727  19.581  10.440   4.993
97660W        W70728  42.056  27.267  14.748
97661W        W70729  35.375   3.096   3.214
97662W        W70730  23.370   7.200   4.630
97663W        W70731  23.091  35.050   4.125
97664W        W70732  28.210   3.887  13.418
97665W        W70733  31.234  17.685   1.299
97666W        W70734  17.484  18.176   4.256
97667W        W70735  35.714  43.500  12.847
97668W        W70736  22.517   3.005  13.026
97669W        W70737  26.041  19.058   2.837
97670W        W70738   6.187  15.061  14.894
97671W        W70739   0.351  43.952   0.864
97672W        W70740  31.024  14.879  14.984
97673W        W70741  11.710   5.346  14.532
97674W        W70742   3.370  28.665   0.313
97675W        W70743  23.641  30.391  13.756
97676W        W70744  37.811  14.038   4.724
97677W        W70745  43.750  17.805   2.121
97678W        W70746  30.404   7.610   1.794
97679W        W70747  31.408  20.615   3.616
97680W        W70748  16.431   5.411   0.599
97681W        W70749   2.488  40.057   2.325
97682W        W70750   6.620  15.524   4.179
97683W        W70751   3.731  42.463  11.924
97684W        W70752  10.723  28.572   1.630
97685W        W70753  44.523  10.650   1.911
97686W        W70754  16.503  13.800   1.328
97687W        W70755  28.311   3.405  12.691
97688W        W70756  38.885  40.476  12.445
97689W        W70757   9.259  38.010  14.870
97690W        W70758  36.619  16.852  13.481
97691W        W70759  43.483  30.399   2.202
97692W        W70760   9.619   2.692   2.677
97693W        W70761  38.083  10.660   1.887
97694W        W70762  19.644  17.745   1.485
97695W        W70763  34.449  24.018  10.511
97696W        W70764  39.136  25.707  13.949
97697W        W70765  23.755  41.619   1.395
97698W        W70766  24.067  29.474   4.670
97699W        W70767   2.218  14.056   3.166
97700W        W70768  20.545  22.846  13.028
97701W        W70769  13.671  11.109  12.438
97702W        W70770  13.803  33.528   4.617
97703W        W70771  33.913  15.550  12.359
97704W        W70772   1.248  17.787   4.307
97705W        W70773  36.539  36.042   1.708
97706W        W70774  31.353   5.615   2.953
97707W        W70775  43.007   9.760  14.835
97708W        W70776  28.735  34.481   1.854
97709W        W70777  18.805  12.316   1.766
97710W        W70778  41.533   2.922   0.911
97711W        W70779   6.889  33.440   4.022
97712W        W70780  23.440   3.568  10.040
97713W        W70781  26.258  23.098  11.436
97714W        W70782  21.542   5.222  11.124
97715W        W70783  35.377  29.019  12.564
97716W        W70784   1.063  15.839  10.367
97717W        W70785  10.174  18.199  10.229
97718W        W70786   2.980  30.160  12.272
97719W        W70787   4.893  20.293   2.341
97720W        W70788  11.852  36.376  14.944
97721W        W70789  32.485  35.312  13.290
97722W        W70790   1.946  12.940   1.398
97723W        W70791  21.070  15.499   3.193
97724W        W70792  37.316  14.256  13.346
97725W        W70793  30.945  15.856   1.014
97726W        W70794  31.585  32.418  13.165
97727W        W70795  21.267  37.868   0.187
97728W        W70796  22.740  15.747   3.758
97729W        W70797  43.482   3.729  14.248
97730W        W70798  12.874  27.258   3.705
97731W        W70799   7.744  12.075   2.775
97732W        W70800  16.068   9.143   3.990
97733W        W70801   0.850  33.174   2.921
97734W        W70802  25.970  16.746  14.465
97735W        W70803  19.500  25.745  11.154
97736W        W70804  14.281   6.530  11.623
97737W        W70805  24.334  13.083   1.270
97738W        W70806  28.315  16.866  13.483
97739W        W70807  36.435  37.129   4.371
97740W        W70808   5.899  21.157   2.153
97741W        W70809  43.958   4.743  14.856
97742W        W70810  33.949  10.967   0.865
97743W        W70811  34.424  41.277   0.428
97744W        W70812   8.348  22.018  14.072
97745W        W70813  34.444   0.349   4.413
97746W        W70814  33.321  10.045  14.867
97747W        W70815  14.664   9.971   3.260
97748W        W70816  28.996  22.785   0.841
97749W        W70817   7.424   4.348  13.886
97750W        W70818  30.919  31.665  11.932
97751W        W70819  29.060  31.852  10.779
97752W        W70820  27.150  33.946  11.501
97753W        W70821  12.834  38.786   2.715
97754W        W70822  11.861   8.234  11.174
97755W        W70823   8.948  15.839  14.199
97756W        W70824  27.463  39.998  14.235
97757W        W70825   2.124   9.357  14.765
97758W        W70826  38.057   4.124  10.640
97759W        W70827   7.426  14.136  11.057
97760W        W70828   7.616  29.689   2.270
97761W        W70829  15.185  10.230  13.339
97762W        W70830  11.924  10.272   4.552
97763W        W70831  41.701  29.834  12.040
97764W        W70832   5.365  34.969  11.180
97765W        W70833  41.535   4.704  13.018
97766W        W70834   4.447   0.021  13.032
97767W        W70835   1.251  43.367  14.588
97768W        W70836  31.848  35.453   4.315
97769W        W70837  29.944  35.673   3.091
97770W        W70838  34.615  39.991   0.233
97771W        W70839  32.344  44.819   3.759
97772W        W70840  37.173  30.188   4.509
97773W        W70841  13.155   9.956   2.681
97774W        W70842   6.952  13.277  13.984
97775W        W70843  13.637  29.400   4.546
97776W        W70844   9.192  27.996  14.361
97777W        W70845  20.277   0.288   2.904
97778W        W70846  26.183   3.843   3.685
97779W        W70847  23.172  21.653   2.556
97780W        W70848   6.951  17.470   0.146
97781W        W70849   7.121  42.874  11.387
97782W        W70850  31.121  26.256  12.362
97783W        W70851  15.296  44.901  12.161
97784W        W70852  17.164  35.797   3.663
97785W        W70853  38.093  25.654  12.016
97786W        W70854   6.277  18.221   4.877
97787W        W70855  30.898  42.769   2.364
97788W        W70856  43.908  13.813   2.256
97789W        W70857  23.749   5.328  11.578
97790W        W70858  15.125  31.223  12.956
97791W        W70859  13.650  44.299   0.826
97792W        W70860  19.723  10.411  11.259
97793W        W70861  28.838  44.658  13.577
97794W        W70862  26.474   8.169  12.936
97795W        W70863  11.042  25.231  10.767
97796W        W70864  33.517   7.338   0.349
97797W        W70865  15.589  36.600   1.241
97798W        W70866  32.372   1.859  14.229
97799W        W70867  30.416  18.689  14.770
97800W        W70868  16.372  13.052   0.262
97801W        W70869  37.063   7.299  14.503
97802W        W70870  44.781   9.191   0.255
97803W        W70871   9.436  27.850   4.327
97804W        W70872  30.949  10.128   0.277
97805W        W70873  14.269  10.191  11.097
97806W        W70874  11.104   6.698   4.074
97807W        W70875  19.005  15.329  11.475
97808W        W70876  15.099   0.870   2.872
97809W        W70877  43.791   0.917   4.772
97810W        W70878  26.733  41.902  14.851
97811W        W70879  38.398  24.120   4.786
97812W        W70880  21.560   9.223   4.313
97813W        W70881  40.947  27.021  14.898
97814W        W70882   0.930  29.928   3.437
97815W        W70883   4.368  31.249  13.054
97816W        W70884  19.564  25.821   2.731
97817W        W70885  37.376  27.956  10.535
97818W        W70886  25.516   8.331   2.528
97819W        W70887  40.821  24.929  14.919
97820W        W70888  29.148  33.051  14.465
97821W        W70889  15.614  37.823  13.310
97822W        W70890  26.583   7.278   0.470
97823W        W70891  43.048  11.645   4.641
97824W        W70892   8.635  34.666  11.955
97825W        W70893  13.310   5.776  11.870
97826W        W70894  17.838  25.220   0.887
97827W        W70895  18.707   3.888   4.415
97828W        W70896  15.042   5.696   2.252
97829W        W70897  32.911   9.913  14.519
97830W        W70898  12.211  28.934  13.521
97831W        W70899  32.543  11.756   4.623
97832W        W70900  36.690  29.650  13.878
97833W        W70901  23.510  40.918   2.830
97834W        W70902  42.490  39.842  10.523
97835W        W70903  13.756   1.931   3.756
97836W        W70904  19.493  31.489  13.788
97837W        W70905  33.893  27.775   3.138
97838W        W70906   4.340   3.281   4.653
97839W        W70907  14.142  25.075  12.384
97840W        W70908  17.351   9.400   2.857
97841W        W70909  23.984   5.303  12.993
97842W        W70910  18.396  23.740   1.916
97843W        W70911  43.522  32.833  11.112
97844W        W70912   8.867  16.799   2.367
97845W        W70913   4.021  20.547   4.746
97846W        W70914  25.605  30.925   3.609
97847W        W70915  26.230   5.254   4.083
97848W        W70916  37.656   8.733  13.684
97849W        W70917  10.554  36.426  10.725
97850W        W70918  12.295  34.695   2.811
97851W        W70919  11.555  10.368   3.727
97852W        W70920   0.986   4.207   3.677
97853W        W70921  17.211  38.857   0.761
97854W        W70922  25.660  19.991   2.038
97855W        W70923  13.786   2.307  13.915
97856W        W70924  22.151  13.402  11.535
97857W        W70925  27.164  30.539   4.675
97858W        W70926  20.268  29.959  12.913
97859W        W70927  21.337  37.641   9.945
97860W        W70928  38.854  43.051  13.453
97861W        W70929  19.614  24.549  10.757
97862W        W70930  27.648  23.548   3.177
97863W        W70931  22.289  28.698  14.318
97864W        W70932  26.701  41.852   4.097
97865W        W70933   8.291  15.104  14.206
97866W        W70934  14.814   7.176  11.236
97867W        W70935  30.542  39.691   0.813
97868W        W70936  15.804  36.443  12.398
97869W        W70937  12.812  15.667  11.105
97870W        W70938  34.058   7.268  11.615
97871W        W70939  40.308  36.262   3.245
97872W        W70940  13.640  19.157  11.148
97873W        W70941  21.783  34.950   4.018
97874W        W70942  15.752   4.341   4.444
97875W        W70943  33.447  42.297  13.300
97876W        W70944  25.039  16.220  13.415
97877W        W70945  43.180  11.368  13.350
97878W        W70946   7.420   1.876  11.187
97879W        W70947   6.090   6.362  11.666
97880W        W70948  26.903   4.972  12.896
97881W        W70949  19.232   9.548  11.880
97882W        W70950   5.114  10.175  10.758
97883W        W70951   5.153   2.493   0.326
97884W        W70952  22.118  18.073   0.283
97885W        W70953  44.928   9.333  13.409
97886W        W70954  23.468  18.996  11.105
97887W        W70955  36.787  24.553   2.304
97888W        W70956  30.955  33.574  13.875
97889W        W70957  38.930  44.436   5.111
97890W        W70958  26.045   6.379   1.068
97891W        W70959   9.732  38.298   2.917
97892W        W70960  29.281  28.281   4.121
97893W        W70961  26.374  28.923  14.743
97894W        W70962  43.724  32.264  12.578
97895W        W70963  44.406  19.466  13.642
97896W        W70964  12.881  28.178  12.021
97897W        W70965  23.583  13.728  12.138
97898W        W70966  14.381   2.994   1.258
97899W        W70967   7.690  17.150  14.157
97900W        W70968  40.868  21.466   2.925
97901W        W70969   7.214  37.720  12.040
97902W        W70970  32.154  16.502   0.389
97903W        W70971  10.579   5.181   1.956
97904W        W70972   4.246  36.728  13.416
97905W        W70973  41.366  29.376  12.227
97906W        W70974  23.627   1.042  12.006
97907W        W70975  20.089   1.427   1.953
97908W        W70976   6.248  43.266   3.962
97909W        W70977  40.121   1.546   5.531
97910W        W70978  13.898  38.348  12.929
97911W        W70979   4.430  14.326   3.564
97912W        W70980  31.064   3.655   1.748
97913W        W70981   3.964  41.026   3.352
97914W        W70982  19.749  32.236   4.087
97915W        W70983   9.113  26.035  12.428
97916W        W70984  44.355   5.903   3.170
97917W        W70985   4.993   1.799  11.601
97918W        W70986  33.932  22.766   4.853
97919W        W70987   9.150   3.830  12.396
97920W        W70988   5.191  23.733   3.554
97921W        W70989  17.801   3.229   2.827
97922W        W70990   1.262  15.304  13.220
97923W        W70991  42.461  23.797  12.104
97924W        W70992  23.147  22.209  14.467
97925W        W70993  30.580  38.837   3.619
97926W        W70994  19.365  40.342   2.299
97927W        W70995  25.166  15.903  13.795
97928W        W70996  12.562  29.711   0.824
97929W        W70997  40.941  42.957   0.539
97930W        W70998   4.805  14.840   0.693
97931W        W70999  31.116  39.868  13.263
97932W        W71000  42.701  37.001  13.882
97933W        W71001  23.562  39.935   0.278
97934W        W71002  16.489  42.261  11.066
97935W        W71003   0.706  12.583   1.414
97936W        W71004  38.949  43.795   3.439
97937W        W71005  15.327   2.064  12.844
97938W        W71006  36.052  28.279   2.959
97939W        W71007  31.663   4.857  10.819
97940W        W71008  16.815  15.252  13.973
97941W        W71009  43.452   7.368  13.944
97942W        W71010   1.539  44.122  12.764
97943W        W71011  33.659  42.903  11.926
97944W        W71012  44.527   0.588   5.078
97945W        W71013   4.455  41.765   0.503
97946W        W71014   5.258  43.337  14.286
97947W        W71015  32.284  38.183  14.333
97948W        W71016   0.991  15.229   2.874
97949W        W71017  19.310  36.933   0.303
97950W        W71018  30.689  25.457  12.523
97951W        W71019   6.218  23.171  12.125
97952W        W71020  24.505  30.379   4.875
97953W        W71021  19.515  10.327  13.922
97954W        W71022   6.179   7.216   4.719
97955W        W71023  42.851  27.706  14.439
97956W        W71024  16.156  28.144  11.143
97957W        W71025  20.909  24.708   3.391
97958W        W71026  13.619  38.452   2.295
97959W        W71027   2.576  26.558   2.264
97960W        W71028  29.009  38.108   0.825
97961W        W71029  40.416  29.187   0.913
97962W        W71030   4.969   0.776  12.952
97963W        W71031  12.926  40.362  14.397
97964W        W71032  39.740  18.705  10.711
97965W        W71033  37.524  11.366   0.048
97966W        W71034  12.630  40.604   2.737
97967W        W71035  31.637  30.397   4.486
97968W        W71036  30.481   9.840   4.400
97969W        W71037   9.517   3.844   0.955
97970W        W71038  28.103  16.205   2.411
97971W        W71039  42.527  17.503  11.100
97972W        W71040  12.367   8.665   0.174
97973W        W71041   5.341  38.346   0.524
97974W        W71042  37.375  27.748  13.763
97975W        W71043  18.244  26.747  13.968
97976W        W71044  31.464  11.628  12.448
97977W        W71045  16.554  35.125  11.151
97978W        W71046   7.819  15.991   4.084
97979W        W71047  15.792  32.820  11.478
97980W        W71048  18.794   2.441  12.925
97981W        W71049  37.191  37.178   1.622
97982W        W71050   6.431  37.292   3.725
97983W        W71051  35.813   5.569   2.819
97984W        W71052  42.819  36.720   2.782
97985W        W71053  31.054   1.334   1.149
97986W        W71054  34.575  33.243   0.340
97987W        W71055  34.986  23.196  12.840
97988W        W71056  19.123  35.317   0.253
97989W        W71057  17.524  34.993   0.810
97990W        W71058  31.546  16.785  12.095
97991W        W71059  32.539  31.419   2.605
97992W        W71060   4.868  28.426   2.351
97993W        W71061  34.183  10.611  12.508
97994W        W71062  22.758  22.050  13.719
97995W        W71063   1.036  25.738  11.512
97996W        W71064  20.272  41.029  13.020
97997W        W71065  43.232  39.283  12.457
97998W        W71066   1.955  38.418   2.861
97999W        W71067  29.558  42.740   2.429
98000W        W71068  35.453  15.713   0.524
98001W        W71069  36.324   8.694   0.702
98002W        W71070   1.444   4.430   3.618
98003W        W71071   8.846  19.933  12.855
98004W        W71072  21.631  16.277  11.130
98005W        W71073  10.861  38.299   2.618
98006W        W71074  25.874  11.701  12.282
98007W        W71075  21.062   0.556  10.977
98008W        W71076   6.597  16.219  11.746
98009W        W71077  38.321  19.591  13.181
98010W        W71078  29.719  41.388   1.099
98011W        W71079  11.738  16.909   3.317
98012W        W71080  26.726  26.889  13.705
98013W        W71081  42.087  43.267  14.325
98014W        W71082   2.326  40.992  13.383
98015W        W71083   0.973  14.233  12.495
98016W        W71084  30.885  16.659   3.140
98017W        W71085  35.763   4.656  11.557
98018W        W71086  39.045  28.966  10.606
98019W        W71087  35.329  20.760  14.348
98020W        W71088  44.084  22.085  12.871
98021W        W71089  11.552   3.500   3.745
98022W        W71090  37.290  42.941   3.558
98023W        W71091  42.995   6.126   3.165
98024W        W71092  13.507  27.284  12.454
98025W        W71093  17.232  21.084   4.134
98026W        W71094  24.637  26.991   4.051
98027W        W71095  31.522  13.111  12.941
98028W        W71096  43.282  42.033   2.236
98029W        W71097  34.675  37.115  14.845
98030W        W71098  22.940  15.268  11.574
98031W        W71099   8.637   9.356  11.545
98032W        W71100  29.772  27.429  14.219
98033W        W71101  37.453   3.543   4.778
98034W        W71102   4.290  33.467   3.232
98035W        W71103   9.554  33.582   1.835
98036W        W71104  40.420  20.803   3.540
98037W        W71105  16.662  33.968   0.822
98038W        W71106  33.228  20.523   0.832
98039W        W71107   9.882   3.841  10.785
98040W        W71108  12.237  41.416  10.699
98041W        W71109  19.020   4.783   5.047
98042W        W71110   3.224  40.974   1.998
98043W        W71111  34.556   9.280   3.669
98044W        W71112  34.068  18.144  13.795
98045W        W71113   7.471  22.162   4.553
98046W        W71114   2.228  13.112   2.340
98047W        W71115  43.018  29.079  12.976
98048W        W71116  44.921  26.255  14.096
98049W        W71117  10.447  10.209  11.604
98050W        W71118  43.864  22.687  10.774
98051W        W71119  41.367  26.947  12.127
98052W        W71120  11.077  27.756  14.005
98053W        W71121  12.076  20.554  14.383
98054W        W71122  41.243  43.847   2.875
98055W        W71123  20.835  21.189   2.194
98056W        W71124  19.889  43.300  13.081
98057W        W71125  35.557  38.770  11.864
98058W        W71126  36.359  21.732   2.393
98059W        W71127  31.875  36.946   1.239
98060W        W71128   1.723   4.740  11.052
98061W        W71129  36.570  39.050   3.436
98062W        W71130  27.123  38.067  13.124
98063W        W71131  16.234  24.407   1.729
98064W        W71132  43.795  26.631  12.082
98065W        W71133  37.843  15.539  12.885
98066W        W71134  16.019  23.803  11.935
98067W        W71135  18.788   4.891  11.544
98068W        W71136  27.584  31.041   3.011
98069W        W71137  33.345  32.790  12.440
98070W        W71138   2.306  10.694  10.980
98071W        W71139  31.414  11.178  11.600
98072W        W71140  29.473  22.986   4.106
98073W        W71141  30.515  39.809  14.423
98074W        W71142   5.261  14.658   2.490
98075W        W71143   9.772  31.532  14.762
98076W        W71144  16.673  26.138  12.030
98077W        W71145  21.987  16.369  11.959
98078W        W71146  31.620  14.712   2.147
98079W        W71147  36.096  27.115  10.974
98080W        W71148  17.508  41.969  11.680
98081W        W71149  10.725  27.763  11.622
98082W        W71150  25.038  20.669   2.844
98083W        W71151  34.536  29.932   4.100
98084W        W71152   0.247  22.521  10.710
98085W        W71153   2.172  34.978   1.886
98086W        W71154  31.101  36.670   4.399
98087W        W71155  14.048  19.175   4.362
98088W        W71156  20.662  32.087  14.691
98089W        W71157  44.471   8.638  11.994
98090W        W71158  23.008  18.638   0.871
98091W        W71159  41.701  31.395   3.167
98092W        W71160  12.843  23.686   0.427
98093W        W71161  29.092  23.421   0.406
98094W        W71162  17.028   1.859  10.807
98095W        W71163   4.840   6.757  10.713
98096W        W71164  36.143  21.781  13.639
98097W        W71165  24.725  10.892   3.318
98098W        W71166  35.914  34.500  13.373
98099W        W71167   1.025  24.425   4.137
98100W        W71168  36.988   5.178   4.904
98101W        W71169  44.487  20.986  11.171
98102W        W71170  39.443  24.630  13.498
98103W        W71171   5.249  44.502  14.063
98104W        W71172  43.372  23.435   0.775
98105W        W71173   8.636   3.659   0.524
98106W        W71174  34.879  30.328  11.581
98107W        W71175   9.235  13.965   0.505
98108W        W71176  10.095  26.614   3.344
98109W        W71177  10.570   3.902   1.342
98110W        W71178  14.906  20.296   1.001
98111W        W71179   0.801   2.751  13.798
98112W        W71180  35.106  34.983  13.288
98113W        W71181  35.326   3.919  11.245
98114W        W71182  18.840  39.943  11.604
98115W        W71183  10.355  25.756  11.990
98116W        W71184  31.142  24.750   1.179
98117W        W71185  15.303  24.705   0.952
98118W        W71186  16.786  35.058  14.942
98119W        W71187  29.083  41.997   3.592
98120W        W71188   2.699   7.764   2.252
98121W        W71189   7.761  38.043   1.190
98122W        W71190   4.275  22.849  13.853
98123W        W71191  31.284  43.385  10.569
98124W        W71192  13.053  33.636  13.553
98125W        W71193  12.858  14.222  14.015
98126W        W71194  20.640  11.123  12.966
98127W        W71195  21.741  21.130  12.835
98128W        W71196  40.881  12.279   4.742
98129W        W71197   7.266   8.467   1.525
98130W        W71198  16.146  33.405   2.877
98131W        W71199  33.567  20.019  14.617
98132W        W71200  19.983   5.317   0.234
98133W        W71201  39.993  24.217   2.188
98134W        W71202  22.288  30.976  11.471
98135W        W71203  19.280  18.148  13.314
98136W        W71204  38.553   8.206   4.113
98137W        W71205  24.716  39.352   4.933
98138W        W71206  36.842  44.459  14.741
98139W        W71207  16.283  40.254   4.103
98140W        W71208   8.849   8.753   1.986
98141W        W71209  15.180  30.690  13.000
98142W        W71210   7.797  42.576   2.860
98143W        W71211   8.254  12.275   2.771
98144W        W71212  30.912   1.772   3.365
98145W        W71213  29.783  24.505  13.779
98146W        W71214  11.525  24.680   2.516
98147W        W71215  24.100  12.619  10.736
98148W        W71216  35.593  22.589  12.835
98149W        W71217  32.523   2.009   2.823
98150W        W71218  30.677  31.549   2.310
98151W        W71219  26.985   5.193  11.210
98152W        W71220  18.149  33.510  11.168
98153W        W71221  10.180  39.375   1.758
98154W        W71222  36.534  29.630  11.241
98155W        W71223   9.369  16.225  11.269
98156W        W71224  22.455  18.586  10.264
98157W        W71225   1.461  37.824   4.829
98158W        W71226   0.401   4.607   3.116
98159W        W71227  30.911  13.878   3.398
98160W        W71228  14.444  11.329  13.413
98161W        W71229  16.823  27.580   4.631
98162W        W71230  36.329  17.561  11.209
98163W        W71231   0.166  20.971  11.414
98164W        W71232  35.950  34.565   1.067
98165W        W71233   6.450  27.699   0.862
98166W        W71234  17.563  35.809   3.184
98167W        W71235  10.693   7.418   4.128
98168W        W71236   1.496  17.718  10.667
98169W        W71237   2.707  39.611   4.094
98170W        W71238  38.171  35.341   3.375
98171W        W71239   9.289  14.098   3.986
98172W        W71240   4.234  21.018   4.742
98173W        W71241  43.243  17.263  14.972
98174W        W71242  40.919   8.612  14.746
98175W        W71243   2.864  20.224  14.796
98176W        W71244  37.253  41.981   3.524
98177W        W71245  13.581  23.189  14.298
98178W        W71246   3.719   0.777  11.585
98179W        W71247  18.721  13.091   0.244
98180W        W71248  11.243  19.598   2.702
98181W        W71249  24.180  14.168   2.640
98182W        W71250  37.440  40.810  11.648
98183W        W71251  38.515  36.685  12.906
98184W        W71252   8.784  39.006   5.083
98185W        W71253  43.210   4.799  13.978
98186W        W71254   2.019  21.076   2.491
98187W        W71255  44.729  26.731  11.006
98188W        W71256  38.351  30.194  11.840
98189W        W71257  38.356   6.970   3.469
98190W        W71258  12.767  36.634  11.467
98191W        W71259  13.328   5.114  13.929
98192W        W71260  38.352  16.685   3.694
98193W        W71261  11.302  37.674   1.415
98194W        W71262  30.649  29.475  14.470
98195W        W71263   5.755  40.243  14.975
98196W        W71264   2.874  33.964  14.029
98197W        W71265  44.917  43.440  11.735
98198W        W71266  36.938   2.976  11.592
98199W        W71267   6.158  22.110  13.376
98200W        W71268  30.890   6.401  10.699
98201W        W71269  30.338  25.030   1.788
98202W        W71270  21.631   4.245   2.273
98203W        W71271   6.827  29.874  14.381
98204W        W71272  37.732   4.743   4.939
98205W        W71273  39.415   2.344   0.205
98206W        W71274   2.770  33.071   1.412
98207W        W71275   4.465  16.461   3.874
98208W        W71276  33.294  12.422   0.326
98209W        W71277  15.876   0.281  13.447
98210W        W71278  26.115  17.568   2.909
98211W        W71279  39.582  22.616   1.192
98212W        W71280   7.452  41.929  11.676
98213W        W71281  10.747  43.754   3.123
98214W        W71282  31.579  31.102  14.980
98215W        W71283   4.610  35.966   2.192
98216W        W71284  24.898  40.829   4.151
98217W        W71285  35.473  36.675  12.625
98218W        W71286  19.161  35.754   1.421
98219W        W71287  29.559  15.773  14.443
98220W        W71288  33.913  14.633  13.070
98221W        W71289  24.144  10.602  10.591
98222W        W71290  36.179   7.009  12.917
98223W        W71291  22.602  14.135  14.106
98224W        W71292  17.099  25.198   0.353
98225W        W71293  44.485  23.417  11.137
98226W        W71294  10.219  22.085   4.003
98227W        W71295  26.179  42.395  11.460
98228W        W71296   3.274  11.059  13.641
98229W        W71297  13.827   2.835  13.960
98230W        W71298   8.961  12.020   3.156
98231W        W71299  32.483   9.125  12.891
98232W        W71300  28.436  42.359  14.408
98233W        W71301   7.843  36.898  12.183
98234W        W71302   2.636  24.598  11.185
98235W        W71303  23.694  39.117  11.004
98236W        W71304  25.208  32.235   0.161
98237W        W71305  32.707  16.362  14.253
98238W        W71306   9.460  40.702  12.457
98239W        W71307  25.900  44.244   0.931
98240W        W71308  26.431  42.189   0.155
98241W        W71309  33.451   9.923   2.769
98242W        W71310  26.485  27.710   4.475
98243W        W71311  44.661  32.973  11.724
98244W        W71312  30.106  43.892   4.317
98245W        W71313   3.242   2.003   0.709
98246W        W71314   0.982  25.191   1.710
98247W        W71315  43.073  13.754  12.123
98248W        W71316  43.830  26.633  10.426
98249W        W71317   9.387  36.586   1.403
98250W        W71318   8.725  32.659   3.260
98251W        W71319  44.253  28.130   2.133
98252W        W71320  31.606   3.009  14.289
98253W        W71321  19.134  19.296  13.013
98254W        W71322  26.968  34.146  13.236
98255W        W71323  37.961   4.650  10.595
98256W        W71324  43.568  23.044  13.949
98257W        W71325   1.447   6.638  12.983
98258W        W71326  33.949  14.723  10.645
98259W        W71327  21.125   4.394  12.856
98260W        W71328  18.641   2.063   4.814
98261W        W71329   7.520   9.295   3.740
98262W        W71330  28.380  10.916   3.273
98263W        W71331   6.195   3.391   5.209
98264W        W71332   3.726   2.859  11.118
98265W        W71333  38.817  23.007   5.007
98266W        W71334  24.211  30.462   1.088
98267W        W71335  10.835  23.251  14.886
98268W        W71336  35.047  27.089  10.952
98269W        W71337  35.528  44.828  13.169
98270W        W71338   5.630  14.146  12.639
98271W        W71339   6.656  43.630   4.738
98272W        W71340   4.208  22.459   4.390
98273W        W71341   7.734  12.624  14.675
98274W        W71342   6.788   7.494   2.888
98275W        W71343  16.070   9.833  13.959
98276W        W71344  28.139   7.170   0.765
98277W        W71345  14.924   7.394   5.142
98278W        W71346  21.147  12.277   2.862
98279W        W71347  18.768  20.471  11.923
98280W        W71348  37.402  31.868  13.797
98281W        W71349  29.086  23.102  13.034
98282W        W71350  33.147  18.603   1.794
98283W        W71351  11.260  16.547  13.582
98284W        W71352   4.098   7.370  12.570
98285W        W71353  10.593  21.194  12.538
98286W        W71354  36.553  27.850  14.344
98287W        W71355   0.748  12.398   0.901
98288W        W71356  21.629   2.836  12.802
98289W        W71357  11.033   3.163   5.079
98290W        W71358  18.955  26.475   3.570
98291W        W71359  12.312  39.043   0.509
98292W        W71360  19.823  27.579  11.949
98293W        W71361  22.018  10.063   2.736
98294W        W71362  24.802  40.806  10.654
98295W        W71363  32.114  21.767   2.765
98296W        W71364  33.453   7.188  12.981
98297W        W71365  22.610  42.829   4.129
98298W        W71366   2.517   8.792   0.308
98299W        W71367  20.488  32.008   0.211
98300W        W71368   6.241  18.397  13.805
98301W        W71369   7.318   3.243   3.378
98302W        W71370  20.538  13.812  10.504
98303W        W71371  30.135  40.952   2.837
98304W        W71372   6.206  17.596   2.818
98305W        W71373  39.768   7.729   1.428
98306W        W71374  19.581  18.787   1.232
98307W        W71375  43.253  16.686   4.155
98308W        W71376  40.996  44.005   4.156
98309W        W71377   9.324  23.814  11.176
98310W        W71378  35.179  42.527   0.404
98311W        W71379   5.233   2.970  11.217
98312W        W71380  31.376  35.945  14.037
98313W        W71381  42.747  24.215  11.900
98314W        W71382  11.739  35.682   5.072
98315W        W71383   3.450   2.368  11.143
98316W        W71384  10.079  29.478   0.860
98317W        W71385  39.886  26.886   2.261
98318W        W71386  39.848  37.206   1.766
98319W        W71387  15.524  10.856   2.838
98320W        W71388   9.721  21.197  11.298
98321W        W71389   8.304  12.793   2.831
98322W        W71390  35.428   2.841   2.463
98323W        W71391  21.052  32.174  13.411
98324W        W71392  40.885  34.955  10.789
98325W        W71393   4.393  16.067  11.665
98326W        W71394  39.843  10.219  12.007
98327W        W71395   8.613  35.124   3.671
98328W        W71396  32.408  17.281  13.878
98329W        W71397   3.539  18.344  13.513
98330W        W71398  34.042  27.648  11.646
98331W        W71399   2.479  24.589  13.009
98332W        W71400  32.052   3.428  10.751
98333W        W71401  25.135   3.285  12.852
98334W        W71402  16.103  36.876   4.481
98335W        W71403  44.504  10.184   3.647
98336W        W71404  27.243  21.664  12.976
98337W        W71405  19.533   3.953   3.629
98338W        W71406  42.938  40.865  10.615
98339W        W71407  27.672  36.649   2.253
98340W        W71408   7.395  14.291   4.628
98341W        W71409  36.868  36.089  11.479
98342W        W71410  15.255   9.228  11.080
98343W        W71411  26.199  17.547   0.791
98344W        W71412  14.304  23.650  12.571
98345W        W71413   0.580   6.140   3.772
98346W        W71414  19.133  22.730  13.962
98347W        W71415  26.428  38.355  13.399
98348W        W71416  14.862   1.672   4.986
98349W        W71417  17.277  22.719   5.018
98350W        W71418   5.802  24.777  11.670
98351W        W71419  10.464  18.578   0.775
98352W        W71420  32.680   7.407   1.872
98353W        W71421  25.761  22.048  14.975
98354W        W71422  34.017  29.114   2.623
98355W        W71423  18.034   8.890   3.542
98356W        W71424  30.412  26.553  12.800
98357W        W71425  25.997  21.074   4.113
98358W        W71426  17.870   4.813  11.282
98359W        W71427   2.203   3.701   4.091
98360W        W71428  31.979  41.111   0.337
98361W        W71429   2.772  25.879   2.385
98362W        W71430  18.647  37.875   4.137
98363W        W71431  12.655  16.365   0.305
98364W        W71432  22.199  14.585  14.441
98365W        W71433   9.107  30.508  14.425
98366W        W71434  28.894  40.376  10.704
98367W        W71435  23.221  40.205   2.173
98368W        W71436  26.574  31.046   1.214
98369W        W71437  24.064  36.181   2.359
98370W        W71438  34.032  37.372   3.660
98371W        W71439  20.540   4.226   3.701
98372W        W71440  23.474  29.622   3.911
98373W        W71441   2.944  38.922   2.476
98374W        W71442  32.379  37.284  13.877
98375W        W71443   5.326  21.777   2.803
98376W        W71444   4.709   9.395   4.105
98377W        W71445  44.195   5.681  14.802
98378W        W71446  14.815  20.994   3.623
98379W        W71447  11.632   2.235   1.250
98380W        W71448  41.282  25.625  14.469
98381W        W71449   6.936  33.168   3.560
98382W        W71450  27.164  33.407  12.516
98383W        W71451  36.313  18.311  12.121
98384W        W71452  30.519  32.184  10.743
98385W        W71453  12.295  42.255   0.867
98386W        W71454  39.081  40.572   2.702
98387W        W71455  40.899  16.240  13.472
98388W        W71456  30.398  18.202   4.186
98389W        W71457   5.825   3.803  11.668
98390W        W71458  11.833  28.952   3.766
98391W        W71459  42.988   9.724  11.255
98392W        W71460  38.062   8.608  11.572
98393W        W71461  20.290  32.477   1.300
98394W        W71462  37.402  15.189  14.820
98395W        W71463   1.542  27.605   0.192
98396W        W71464  44.520  28.976  11.672
98397W        W71465   3.994  20.114   2.931
98398W        W71466  26.933  36.596  14.856
98399W        W71467   3.412  27.195  10.437
98400W        W71468   8.705   0.340   1.014
98401W        W71469  36.178  31.538  13.852
98402W        W71470  24.021  13.646   3.144
98403W        W71471   3.939  16.790   0.295
98404W        W71472  36.090  28.262   0.719
98405W        W71473   9.324   4.094   5.006
98406W        W71474   6.214  10.076   9.929
98407W        W71475  13.386  21.105  12.611
98408W        W71476   6.235   5.428  13.977
98409W        W71477   8.630  38.792   0.316
98410W        W71478   7.252   6.203   2.403
98411W        W71479  38.336  17.307  11.433
98412W        W71480  31.388  30.449  13.869
98413W        W71481  27.147  25.429  12.266
98414W        W71482  16.424  32.950   1.436
98415W        W71483  29.628  35.450  10.391
98416W        W71484  21.438  41.010   2.514
98417W        W71485  10.827  28.162   2.304
98418W        W71486  26.775  24.203   1.221
98419W        W71487  20.516  12.581  14.912
98420W        W71488  34.608  30.665  14.805
98421W        W71489  22.509  19.939   4.580
98422W        W71490  36.112   9.410  13.402
98423W        W71491  44.497  36.561  13.607
98424W        W71492  34.002  27.824  13.546
98425W        W71493  40.890   5.856   3.276
98426W        W71494  14.547   6.903  12.565
98427W        W71495  24.747  39.245  12.107
98428W        W71496  35.290   2.299  12.019
98429W        W71497  19.177  23.164  14.292
98430W        W71498  39.914  35.465   0.309
98431W        W71499  18.351  23.775  11.104
98432W        W71500  19.784   4.172  12.517
98433W        W71501   7.512  22.587   4.188
98434W        W71502  24.689  43.921  12.943
98435W        W71503  25.625  11.828  11.805
98436W        W71504   5.954  33.434  13.450
98437W        W71505  17.034  23.168   2.752
98438W        W71506  10.666  19.332   2.087
98439W        W71507   8.391  26.847  11.086
98440W        W71508   3.854  31.363  13.827
98441W        W71509  10.758  41.831  10.868
98442W        W71510  31.769  21.930  13.500
98443W        W71511  33.862   8.963  11.565
98444W        W71512  24.957  14.047  14.532
98445W        W71513  27.203  31.060  11.515
98446W        W71514  28.442  12.323   3.151
98447W        W71515  40.843  44.974   0.723
98448W        W71516  43.002  13.971   3.817
98449W        W71517   5.355  21.623  10.967
98450W        W71518  15.727  14.714   0.752
98451W        W71519  17.980  22.535  14.444
98452W        W71520   4.638   8.176  12.840
98453W        W71521  21.895  32.704  12.599
98454W        W71522   4.705  31.704   0.335
98455W        W71523  21.674  22.240  11.326
98456W        W71524  44.281   4.577   3.754
98457W        W71525  27.133   1.274   3.383
98458W        W71526  27.003   1.703   4.196
98459W        W71527  41.391  25.523   2.308
98460W        W71528  11.788  26.696   2.144
98461W        W71529  37.332  25.745   1.830
98462W        W71530   7.024  41.985  10.784
98463W        W71531  34.478  15.582  10.685
98464W        W71532   8.590   7.816  14.901
98465W        W71533  15.056  15.057  14.886
98466W        W71534   3.322   1.127  11.532
98467W        W71535   6.764  15.827   4.622
98468W        W71536  44.523  18.712   2.271
98469W        W71537  35.749  16.811  11.999
98470W        W71538  19.654   1.183   0.856
98471W        W71539  28.930  22.542   4.638
98472W        W71540  44.383   1.840  14.734
98473W        W71541  34.601  29.229   4.616
98474W        W71542   2.467   1.775  10.824
98475W        W71543  28.159  35.086  13.803
98476W        W71544  24.015  37.079  13.011
98477W        W71545  26.973  15.130  13.482
98478W        W71546  25.676  39.393   4.729
98479W        W71547   4.497  36.435   1.358
98480W        W71548  36.487  21.246  10.281
98481W        W71549   5.327  30.353  14.041
98482W        W71550  10.833  10.099   0.534
98483W        W71551  43.405  13.017   2.380
98484W        W71552  12.782  13.130   2.459
98485W        W71553  31.619  24.452  12.631
98486W        W71554  21.691   1.927   3.590
98487W        W71555   9.912   6.714   2.249
98488W        W71556  38.366  14.281  14.391
98489W        W71557  19.851  37.460  10.791
98490W        W71558  10.155  42.280  10.886
98491W        W71559  42.665   0.839   3.908
98492W        W71560  19.504  42.190   1.408
98493W        W71561  21.986  21.442  11.513
98494W        W71562  40.814  23.582   4.645
98495W        W71563  22.109  26.421  12.587
98496W        W71564  20.491  33.909   4.165
98497W        W71565  15.078   8.358  12.070
98498W        W71566   4.703  33.095   1.294
98499W        W71567  22.059  36.503   3.663
98500W        W71568  19.259  22.465  12.674
98501W        W71569  14.354  33.991  12.159
98502W        W71570   7.148  44.945   1.939
98503W        W71571   1.887   5.256   4.758
98504W        W71572   2.826  44.471   3.289
98505W        W71573  23.530  44.472  11.817
98506W        W71574  19.348  21.162   3.667
98507W        W71575  42.647   7.440  12.603
98508W        W71576  17.079  33.331   1.864
98509W        W71577  26.896  10.667  10.638
98510W        W71578   9.706  14.695   5.027
98511W        W71579  23.581  19.608   5.140
98512W        W71580  36.634  34.550   5.006
98513W        W71581   8.362   4.344   3.349
98514W        W71582  38.166  19.130   1.157
98515W        W71583   8.056  40.324  11.548
98516W        W71584   4.444  34.821   1.816
98517W        W71585  18.207  30.673   0.869
98518W        W71586  14.310  12.768   0.951
98519W        W71587   9.553  34.754   0.276
98520W        W71588   6.364  42.895   4.298
98521W        W71589  21.227  10.577  11.971
98522W        W71590  42.813  43.828   0.722
98523W        W71591  29.960  29.223  12.602
98524W        W71592   2.770  16.196   0.046
98525W        W71593  11.640   2.803  10.740
98526W        W71594  21.105  32.044   2.915
98527W        W71595  28.073  20.762   1.779
98528W        W71596  34.933  12.667   4.540
98529W        W71597   5.369  38.243  12.518
98530W        W71598   0.272  23.146  12.829
98531W        W71599  14.293   0.609   4.986
98532W        W71600  11.208  21.154  12.129
98533W        W71601   5.734  33.009  14.664
98534W        W71602  31.944  12.163  10.614
98535W        W71603  22.452   2.986   2.575
98536W        W71604  29.415   8.744  13.390
98537W        W71605  31.122  30.910   3.231
98538W        W71606  22.583  32.498  13.939
98539W        W71607  17.054  44.484   3.056
98540W        W71608  38.917   3.809   4.583
98541W        W71609   9.564   6.599   1.483
98542W        W71610  35.450  31.056   3.178
98543W        W71611   1.417  15.240  12.377
98544W        W71612  32.006  40.052  13.086
98545W        W71613   9.126  11.441   1.941
98546W        W71614  11.267  28.660  11.571
98547W        W71615  31.404  34.599   4.863
98548W        W71616   6.315   2.975  13.785
98549W        W71617  25.908  13.223   4.631
98550W        W71618  40.321   7.285   0.291
98551W        W71619   6.847  32.432  12.487
98552W        W71620  37.738  32.921  10.565
98553W        W71621  30.791  33.337  11.184
98554W        W71622  34.823  18.185   4.762
98555W        W71623  23.823  11.950   0.399
98556W        W71624  37.032  33.711  10.208
98557W        W71625  37.962  22.063  12.958
98558W        W71626  32.981   8.049  13.975
98559W        W71627   4.776  13.804   2.643
98560W        W71628  44.321  22.269  10.386
98561W        W71629   8.165  10.821  11.505
98562W        W71630  32.975   1.435   1.682
98563W        W71631  15.729  17.034   2.917
98564W        W71632  22.545   0.353   4.524
98565W        W71633   9.329  42.079   3.742
98566W        W71634  31.510  26.535  10.393
98567W        W71635  36.997  38.785  12.623
98568W        W71636  26.045  19.296  11.036
98569W        W71637  13.396  11.205   1.796
98570W        W71638  39.084  26.346  11.909
98571W        W71639  21.709  25.211  13.549
98572W        W71640   1.871   0.980   2.537
98573W        W71641  43.687  25.180   1.506
98574W        W71642  20.008   0.414   3.399
98575W        W71643  18.535  11.701  10.713
98576W        W71644  14.736  27.715   0.468
98577W        W71645   0.466  32.006  11.434
98578W        W71646  23.496  42.793   0.539
98579W        W71647  17.072  20.136   0.492
98580W        W71648  33.421  22.308   2.376
98581W        W71649  31.394   2.445   1.744
98582W        W71650  21.273   8.361   2.127
98583W        W71651  22.261  30.091  10.686
98584W        W71652  29.625   3.507  14.930
98585W        W71653  13.746  28.722  11.250
98586W        W71654   6.211  15.988  13.458
98587W        W71655  28.463   5.179  12.511
98588W        W71656  14.087   7.034  11.742
98589W        W71657  32.757  33.560   9.907
98590W        W71658  14.536  21.703   2.647
98591W        W71659  16.855  42.023  12.567
98592W        W71660  43.952  30.949  11.851
98593W        W71661  12.737  22.483   2.884
98594W        W71662   3.339  10.564   2.097
98595W        W71663  29.064  39.370  11.547
98596W        W71664  20.763  23.007   0.260
98597W        W71665  13.617  33.428  12.898
98598W        W71666   7.827  44.985  14.107
98599W        W71667  12.586  39.167  14.791
98600W        W71668  20.498  44.482   1.894
98601W        W71669  36.425  14.236  10.551
98602W        W71670  26.138  39.962   0.881
98603W        W71671  40.974   8.325   3.658
98604W        W71672  35.374  27.537   4.188
98605W        W71673  29.362  24.045  11.136
98606W        W71674   6.224  21.858  14.825
98607W        W71675  44.960  26.250  11.099
98608W        W71676   1.042  28.603   3.547
98609W        W71677  32.149  23.567  13.778
98610W        W71678  21.904  19.269   2.588
98611W        W71679  31.391   0.893  14.346
98612W        W71680  19.125  24.960   1.359
98613W        W71681  21.160  16.411   1.228
98614W        W71682  43.285  27.695  13.953
98615W        W71683  36.147   6.274   2.353
98616W        W71684   6.310  34.604   0.714
98617W        W71685  15.883  44.320   2.899
98618W        W71686  18.651   8.702  11.321
98619W        W71687  30.073  13.802   3.414
98620W        W71688   1.030  40.636   3.276
98621W        W71689   3.248   4.771   1.009
98622W        W71690  15.975  24.990   2.701
98623W        W71691  10.536  34.495   2.855
98624W        W71692  33.368  38.435   4.680
98625W        W71693  30.013  44.016   0.762
98626W        W71694  31.139  40.085  11.903
98627W        W71695   0.222   1.165  14.312
98628W        W71696  13.323  15.965   2.174
98629W        W71697  41.041  10.548   1.971
98630W        W71698  37.449  22.610  14.060
98631W        W71699   4.177   1.941   3.652
98632W        W71700   9.216  17.222   1.717
98633W        W71701   5.273  33.483  14.425
98634W        W71702  31.805  23.779  14.107
98635W        W71703   1.334  10.151   4.692
98636W        W71704  11.020  14.169  10.670
98637W        W71705  17.682  25.520  14.882
98638W        W71706  15.655  37.344   4.115
98639W        W71707  29.718  17.235   3.599
98640W        W71708  38.556  43.817   3.757
98641W        W71709  38.751  39.645   0.422
98642W        W71710   5.721  36.051   1.298
98643W        W71711  14.255  25.672   5.235
98644W        W71712  26.187  13.776   3.628
98645W        W71713  20.799  44.441  11.523
98646W        W71714  19.181  32.405  14.466
98647W        W71715   2.232  41.766  13.840
98648W        W71716  18.746   4.258   4.077
98649W        W71717  42.061  27.083   0.639
98650W        W71718   4.573  25.580   4.729
98651W        W71719   0.169   2.381   0.222
98652W        W71720  43.224  41.155   2.261
98653W        W71721   8.286  40.920   1.260
98654W        W71722  40.625   1.629  10.225
98655W        W71723  26.181  15.743   4.128
98656W        W71724  28.479  19.530  12.771
98657W        W71725  36.684  41.881  12.580
98658W        W71726  44.934  22.626   3.306
98659W        W71727  19.331   3.180   1.947
98660W        W71728   1.379  25.238  10.706
98661W        W71729  40.361  42.300   1.172
98662W        W71730  30.923  38.498   2.774
98663W        W71731   4.436  44.310   5.066
98664W        W71732   4.747   1.358  13.413
98665W        W71733   9.112  23.706   2.362
98666W        W71734   5.943   1.273   3.704
98667W        W71735   5.815  10.642   0.873
98668W        W71736   0.460  32.568   0.509
98669W        W71737  21.514  42.141  13.454
98670W        W71738  33.901  30.616   0.248
98671W        W71739  20.215  34.601   2.083
98672W        W71740  26.434  26.639  12.574
98673W        W71741  19.069  40.447   4.127
98674W        W71742  26.276   9.726   4.078
98675W        W71743   7.388   9.900   1.321
98676W        W71744  30.999  10.698  14.424
98677W        W71745  14.298  28.538  11.334
98678W        W71746  11.131   9.283   4.383
98679W        W71747  44.866  25.147  12.100
98680W        W71748  19.895  27.078   1.917
98681W        W71749  44.014  28.998  11.817
98682W        W71750  28.186   9.268   1.638
98683W        W71751  25.762  18.528  12.426
98684W        W71752  41.489  22.036   4.403
98685W        W71753   6.282  12.247   4.701
98686W        W71754  35.859  24.005  11.054
98687W        W71755  12.826   6.657   3.221
98688W        W71756  29.803  17.607  11.234
98689W        W71757  39.315  16.539   2.284
98690W        W71758   5.113  27.294  11.873
98691W        W71759  35.928  37.622  14.148
98692W        W71760  14.464   7.673   1.156
98693W        W71761  24.549  42.990   0.165
98694W        W71762  35.472  44.840  12.635
98695W        W71763  15.629  25.002   3.818
98696W        W71764  37.703  11.009   2.373
98697W        W71765  10.335  13.345  10.768
98698W        W71766  32.054  31.503  14.522
98699W        W71767  25.535  42.961   1.928
98700W        W71768  43.477  28.477  12.366
98701W        W71769  24.017   6.259   3.679
98702W        W71770  23.184  40.615   4.059
98703W        W71771   1.838  15.786   3.201
98704W        W71772   1.942  43.047  14.485
98705W        W71773  30.972  36.969   1.707
98706W        W71774  39.048  13.683   4.520
98707W        W71775  14.608  22.679  13.046
98708W        W71776  25.662  33.005   3.632
98709W        W71777  23.569   7.269  10.666
98710W        W71778  14.787  29.052   3.396
98711W        W71779   2.655   6.573  13.389
98712W        W71780  21.240  27.222  12.342
98713W        W71781  42.880  42.860   0.244
98714W        W71782   4.116  37.827   1.311
98715W        W71783   4.160  19.997   0.804
98716W        W71784  21.651   1.377  12.864
98717W        W71785  35.030  23.707  12.881
98718W        W71786  36.977  44.012   4.214
98719W        W71787  29.194  30.900  11.133
98720W        W71788  19.714  29.445   0.444
98721W        W71789  25.461   5.327   4.562
98722W        W71790  18.144  13.819   2.729
98723W        W71791  33.838  43.433  14.792
98724W        W71792  39.047  18.567  12.359
98725W        W71793  27.659  38.512  10.714
98726W        W71794  44.724   0.274   1.321
98727W        W71795  31.879  42.060  12.860
98728W        W71796  32.477   9.707   0.975
98729W        W71797   0.418  36.528  10.703
98730W        W71798   3.794  11.214   0.443
98731W        W71799  16.478  15.587   3.033
98732W        W71800  25.199   1.286   3.713
98733W        W71801  16.414  22.328  11.342
98734W        W71802  30.647  16.572  14.494
98735W        W71803  44.501  11.669  10.781
98736W        W71804  34.524  44.202   0.857
98737W        W71805  39.353   5.813  11.527
98738W        W71806  25.020  43.767   0.001
98739W        W71807  23.263   6.687  12.011
98740W        W71808  36.625   1.775   0.110
98741W        W71809  31.680  28.379   3.907
98742W        W71810  40.463  22.263  11.497
98743W        W71811  43.860  43.626  11.151
98744W        W71812  17.347  21.621   1.238
98745W        W71813   7.012  28.859  12.056
98746W        W71814   8.702   0.280   2.075
98747W        W71815   9.708  34.030  14.073
98748W        W71816  20.890   8.260  10.421
98749W        W71817  26.457  41.417  12.451
98750W        W71818  19.576  34.322   3.830
98751W        W71819  35.394  18.794  11.982
98752W        W71820  24.630  18.632  14.410
98753W        W71821  17.782  12.618  11.541
98754W        W71822  16.611   2.937   3.336
98755W        W71823  42.388  24.017   4.022
98756W        W71824  19.131   7.215  10.685
98757W        W71825  26.377  44.012   3.912
98758W        W71826  24.891  42.828  14.768
98759W        W71827  18.945  20.648   4.757
98760W        W71828  18.506   6.254   4.088
98761W        W71829  21.257  25.978  14.969
98762W        W71830  29.203  14.010   3.752
98763W        W71831   6.191  26.675  12.359
98764W        W71832  27.096   7.401  10.448
98765W        W71833  20.600  35.217   0.927
98766W        W71834  27.653  10.758  11.052
98767W        W71835  13.222  27.664  14.702
98768W        W71836  17.993  13.193   3.348
98769W        W71837   7.728  38.387  14.472
98770W        W71838  34.450  27.982  12.566
98771W        W71839  39.399  17.523  11.048
98772W        W71840  13.396  37.423  14.816
98773W        W71841  30.330  39.098   4.008
98774W        W71842  43.167  40.732   3.720
98775W        W71843  11.312  35.401   2.131
98776W        W71844  34.722  41.714  14.336
98777W        W71845  27.119  26.136   4.250
98778W        W71846  43.948  12.642   0.763
98779W        W71847   3.513  31.056   0.433
98780W        W71848  18.355  18.698   2.364
98781W        W71849  38.448  31.620  14.458
98782W        W71850  10.141  35.926   1.968
98783W        W71851  24.102  30.777   5.150
98784W        W71852  40.247  29.970  12.833
98785W        W71853   1.483   2.934  13.834
98786W        W71854  37.414  29.174  12.059
98787W        W71855   2.375  20.501  10.723
98788W        W71856   7.953  13.554  11.129
98789W        W71857  24.481  23.660  11.601
98790W        W71858  43.375  20.237  14.804
98791W        W71859  31.515   5.737   1.347
98792W        W71860  30.736  20.532   3.271
98793W        W71861  37.242  35.029  11.576
98794W        W71862   8.094  22.701  11.602
98795W        W71863  40.197  19.601   4.340
98796W        W71864  37.104  21.998   1.670
98797W        W71865  35.407  41.347   1.802
98798W        W71866  20.272  24.221   2.709
98799W        W71867  21.119  32.944   2.229
98800W        W71868  31.200  12.788  14.834
98801W        W71869   1.076  30.752  11.096
98802W        W71870  41.802   1.355   1.337
98803W        W71871  39.146   5.021  10.145
98804W        W71872  13.274   8.294  12.152
98805W        W71873  23.704   4.797   2.284
98806W        W71874  13.480   8.483   5.173
98807W        W71875  30.399  18.651   4.470
98808W        W71876  26.047  21.141  10.372
98809W        W71877  38.420  37.560  11.019
98810W        W71878  11.798  40.748  12.422
98811W        W71879  31.911  42.309  13.777
98812W        W71880  38.403  37.113   0.209
98813W        W71881  36.097  12.569   2.282
98814W        W71882  25.699  10.057  10.152
98815W        W71883   9.953  44.947  12.925
98816W        W71884  42.197  20.561   4.191
98817W        W71885  41.825   9.825  13.957
98818W        W71886  29.038  35.814  11.934
98819W        W71887  14.437  17.845   1.665
98820W        W71888  39.155  29.406  14.692
98821W        W71889   8.971   9.863  10.771
98822W        W71890  17.282  37.054  13.461
98823W        W71891  35.886  39.523  14.993
98824W        W71892  33.072  17.747  12.576
98825W        W71893  41.620   0.313   3.724
98826W        W71894  29.171  16.612  13.555
98827W        W71895  43.480  38.856   2.434
98828W        W71896  32.984   1.808   4.542
98829W        W71897  14.234  28.033   2.690
98830W        W71898  19.131  13.760   0.747
98831W        W71899  27.000  13.121  10.048
98832W        W71900  25.538  31.453   1.946
98833W        W71901  23.510  19.780  13.041
98834W        W71902   7.365  30.128   2.113
98835W        W71903  36.401  43.849  13.580
98836W        W71904  38.338  43.518  12.668
98837W        W71905  15.562  22.583   5.014
98838W        W71906  16.774   6.148   1.042
98839W        W71907   2.990  36.320  14.771
98840W        W71908  11.813   6.695  11.558
98841W        W71909  34.104  44.007   4.877
98842W        W71910  41.003  39.503  12.860
98843W        W71911   8.408  25.826  13.556
98844W        W71912  34.826  41.190  14.414
98845W        W71913  29.600  19.169  10.625
98846W        W71914  11.038   2.816  14.853
98847W        W71915  14.995  43.173  10.735
98848W        W71916   9.537  19.149   0.631
98849W        W71917   0.016  37.827   0.349
98850W        W71918  34.167  27.545   1.178
98851W        W71919  28.017  16.612   1.614
98852W        W71920  19.744  14.378   4.121
98853W        W71921  11.795  29.009   1.471
98854W        W71922   3.815  24.125  13.854
98855W        W71923   1.485  38.381   0.075
98856W        W71924  22.496  21.508  11.570
98857W        W71925   3.097   3.439   0.220
98858W        W71926  39.328  43.522   0.441
98859W        W71927  30.438  42.641   3.051
98860W        W71928  26.936  32.524  12.863
98861W        W71929  17.808  31.445  11.955
98862W        W71930   5.330   8.770  14.174
98863W        W71931   3.785  42.261   4.329
98864W        W71932  35.941  16.135   2.631
98865W        W71933  24.558  44.715   3.286
98866W        W71934  24.938  18.519  14.018
98867W        W71935   7.484  41.434   2.785
98868W        W71936  26.955  29.690  12.370
98869W        W71937  18.215  29.900   3.657
98870W        W71938  26.190  25.749   4.717
98871W        W71939  27.263  12.626   2.971
98872W        W71940  23.852   8.135  10.463
98873W        W71941   0.201  25.225  11.121
98874W        W71942  39.590  12.255  13.859
98875W        W71943  28.168  44.932   0.394
98876W        W71944  35.340  29.849   1.654
98877W        W71945  39.085  20.629   4.582
98878W        W71946  41.675  25.501   4.166
98879W        W71947  44.237  21.243   0.049
98880W        W71948  25.186   7.409   3.784
98881W        W71949  22.102  15.125   0.869
98882W        W71950  40.129  37.463   1.375
98883W        W71951  41.408   4.752   4.193
98884W        W71952   1.282   9.811  12.944
98885W        W71953  27.844  29.019  13.379
98886W        W71954   5.476  11.937   0.364
98887W        W71955   9.836   6.292  14.061
98888W        W71956  27.599   2.345   3.856
98889W        W71957  28.650  34.912   4.492
98890W        W71958  25.693  20.498  12.925
98891W        W71959  40.998   2.224  12.016
98892W        W71960  32.610   7.867   3.731
98893W        W71961   6.282  33.651  14.311
98894W        W71962  19.765  33.810  13.848
98895W        W71963  32.651  28.111   3.610
98896W        W71964   6.459  33.156   1.485
98897W        W71965   5.306  40.581  11.433
98898W        W71966   7.938  17.280   3.614
98899W        W71967  43.279  26.533  10.588
98900W        W71968  15.570  22.057  13.474
98901W        W71969   2.309  33.981  12.627
98902W        W71970  36.428  25.577  10.947
98903W        W71971  29.438  30.520   1.847
98904W        W71972  19.835  28.507  10.741
98905W        W71973  37.133  28.112  14.048
98906W        W71974  28.784  40.944   1.221
98907W        W71975   7.147  29.459   0.028
98908W        W71976   0.708  34.784  13.471
98909W        W71977  30.779  35.293  14.636
98910W        W71978  44.015  24.829  13.086
98911W        W71979   8.891  12.283   3.597
98912W        W71980  15.762  16.326   1.377
98913W        W71981   8.723  41.514   0.245
98914W        W71982  39.027  38.730  13.645
98915W        W71983  20.258  30.217  13.369
98916W        W71984  10.201  44.566   1.917
98917W        W71985  27.115  41.199   5.073
98918W        W71986  16.055  18.500  10.508
98919W        W71987   9.180  17.280   4.257
98920W        W71988  20.316  21.549  14.283
98921W        W71989  30.351  40.569   2.067
98922W        W71990  33.857  40.773   2.814
98923W        W71991  35.029   6.343  14.242
98924W        W71992  28.628  19.668  11.808
98925W        W71993   3.502  40.253   1.422
98926W        W71994   8.674  15.308  10.976
98927W        W71995  28.470  16.221  12.552
98928W        W71996  22.117  40.008  12.357
98929W        W71997  32.047  10.855   1.904
98930W        W71998   0.232  11.616  14.475
98931W        W71999  22.971  41.987   0.764
98932W        W72000   9.775  33.518  13.933
98933W        W72001   0.860  17.648  13.817
98934W        W72002  23.646   8.132  13.821
98935W        W72003  38.533  35.498  11.514
98936W        W72004  20.048  30.031  11.523
98937W        W72005  21.235   8.660  10.287
98938W        W72006  14.946  24.437  13.952
98939W        W72007  16.822   5.244  12.421
98940W        W72008  32.054  36.046   0.336
98941W        W72009  11.170   7.691   3.809
98942W        W72010  21.157   5.271  14.270
98943W        W72011  22.003  24.675  10.950
98944W        W72012  23.145  19.984   0.287
98945W        W72013  34.423   4.394  11.548
98946W        W72014  36.619  28.945   4.211
98947W        W72015  38.091  24.757  12.071
98948W        W72016  42.440   9.918  11.515
98949W        W72017  10.692  33.584  10.621
98950W        W72018  38.592  10.105   1.233
98951W        W72019  20.729   2.308   4.165
98952W        W72020  35.449  19.271  14.003
98953W        W72021   7.662  31.912   3.799
98954W        W72022  28.650  10.954  10.984
98955W        W72023   3.977  25.731  10.479
98956W        W72024  29.631   2.243  12.443
98957W        W72025  40.105  12.298  14.375
98958W        W72026  41.796  39.482  10.748
98959W        W72027   7.668  32.168   1.939
98960W        W72028  11.658  42.046  14.881
98961W        W72029  18.252   8.998   4.904
98962W        W72030  41.943   8.819   0.374
98963W        W72031  10.313  28.971   3.504
98964W        W72032  18.936  10.859   0.936
98965W        W72033  18.798   1.838   4.378
98966W        W72034  11.311  39.102  12.746
98967W        W72035   3.821  21.209   3.299
98968W        W72036  29.357  18.203   1.494
98969W        W72037  14.288   5.917   1.847
98970W        W72038   3.784  35.582  10.448
98971W        W72039  32.644  11.190  14.860
98972W        W72040   1.362  37.265  11.959
98973W        W72041   9.280  18.101  11.609
98974W        W72042  15.573  23.634  13.899
98975W        W72043  18.946  35.538  11.983
98976W        W72044  38.511  35.039   0.494
98977W        W72045  34.940  25.106  11.662
98978W        W72046  12.668  43.271  11.616
98979W        W72047  36.436   7.610  13.422
98980W        W72048  19.771  39.991  14.762
98981W        W72049  14.552  17.677   4.081
98982W        W72050  23.330  36.232   3.221
98983W        W72051  44.455  16.188  10.619
98984W        W72052  24.296  24.368  12.403
98985W        W72053   3.085   5.233   0.769
98986W        W72054  32.995  36.874  10.876
98987W        W72055  20.075  43.783  13.438
98988W        W72056   1.493  25.168  12.106
98989W        W72057   2.940  42.796  11.769
98990W        W72058  26.040  13.317   0.359
98991W        W72059  39.488  30.145  11.275
98992W        W72060  20.984  26.950   2.353
98993W        W72061  35.335  34.928   1.847
98994W        W72062   0.225  10.690  14.315
98995W        W72063  35.417  23.988   2.761
98996W        W72064  22.519  25.949  14.438
98997W        W72065   2.850  37.566   0.633
98998W        W72066  33.820  34.428   4.917
98999W        W72067  24.044  33.909   4.586
99000W        W72068  30.020  22.199   3.882
99001W        W72069  11.224   7.123   2.585
99002W        W72070  27.927  20.041  13.503
99003W        W72071  40.732  31.415   0.733
99004W        W72072  20.081  26.058  13.384
99005W        W72073  16.474  24.104  10.729
99006W        W72074  29.674  31.440  13.390
99007W        W72075  28.990  40.094  12.745
99008W        W72076  39.214  37.157  13.211
99009W        W72077  20.044  32.984  14.468
99010W        W72078  12.560   1.864   1.125
99011W        W72079   3.578  35.233  13.543
99012W        W72080  27.638  30.468   3.702
99013W        W72081  26.334   9.571   4.947
99014W        W72082  43.317  36.057  14.972
99015W        W72083   4.494  33.945   1.926
99016W        W72084  11.925  28.008  13.509
99017W        W72085   7.259  22.617  10.998
99018W        W72086   9.082  27.182  14.999
99019W        W72087  35.062  13.791   1.330
99020W        W72088  38.890  12.623  13.004
99021W        W72089  40.500  34.654   1.279
99022W        W72090  10.922  20.294   4.145
99023W        W72091  34.391  15.188   4.247
99024W        W72092  34.825  19.079   0.770
99025W        W72093  17.197  40.028  13.944
99026W        W72094   6.317  16.812  14.812
99027W        W72095  41.537   5.162   3.365
99028W        W72096  38.445  21.546   3.422
99029W        W72097   0.710   5.884   2.211
99030W        W72098   9.110   1.916   4.189
99031W        W72099  16.623  43.228  13.948
99032W        W72100  11.729  16.107   2.761
99033W        W72101  37.654   0.813   5.244
99034W        W72102  19.519  31.525  11.012
99035W        W72103  19.633  13.349   0.368
99036W        W72104  12.162   3.817  10.658
99037W        W72105  20.542  44.353  11.978
99038W        W72106  26.393  23.548  14.132
99039W        W72107  37.581   4.742   4.198
99040W        W72108  10.380  25.242  12.007
99041W        W72109  26.449  17.683  12.528
99042W        W72110  18.247   5.735  13.296
99043W        W72111   1.302   9.762   2.738
99044W        W72112  36.420  35.625   3.467
99045W        W72113  33.712  20.267  11.989
99046W        W72114  11.515  17.661   0.734
99047W        W72115  12.816  32.496  10.421
99048W        W72116  26.956  12.277   4.653
99049W        W72117  25.984   2.412   4.121
99050W        W72118  40.013   2.305   1.970
99051W        W72119  34.359  39.267  11.226
99052W        W72120  11.132  19.035  12.552
99053W        W72121   0.011   5.397  11.054
99054W        W72122  31.415   5.414   0.748
99055W        W72123  33.010  26.857  11.416
99056W        W72124  25.828  13.280  14.216
99057W        W72125  31.837  10.642  14.276
99058W        W72126  18.498   5.376   2.150
99059W        W72127  30.598  23.170  13.123
99060W        W72128  44.573  36.165  14.001
99061W        W72129  21.724  27.656  10.751
99062W        W72130  34.273  24.285   4.752
99063W        W72131   7.383  31.960   4.259
99064W        W72132  43.682   0.875   3.345
99065W        W72133  22.498  16.447  13.050
99066W        W72134   7.161   7.939  12.097
99067W        W72135  16.616  23.193   3.642
99068W        W72136  26.213  44.373  12.753
99069W        W72137  20.567  19.148   0.299
99070W        W72138   2.527  40.028   0.569
99071W        W72139   8.894  36.330  13.910
99072W        W72140  35.079  25.195  10.553
99073W        W72141  11.077  13.706   1.450
99074W        W72142  15.333  31.370  11.166
99075W        W72143  26.220  40.819  11.746
99076W        W72144   2.707  30.524  13.160
99077W        W72145  18.268   5.504  12.363
99078W        W72146  13.720  37.034   0.412
99079W        W72147  16.594  25.461   4.725
99080W        W72148  40.389  17.785  13.905
99081W        W72149  26.510  31.234  14.011
99082W        W72150   8.373  25.652   0.532
99083W        W72151  16.134   5.262  10.559
99084W        W72152  27.819  14.355  11.930
99085W        W72153  20.780  18.644   1.255
99086W        W72154  20.609   7.727  14.845
99087W        W72155   7.425  39.483  12.933
99088W        W72156  25.971  44.016  13.019
99089W        W72157  41.934  24.921   0.834
99090W        W72158  39.060  18.101   4.351
99091W        W72159  35.118   3.963  12.517
99092W        W72160  42.241  28.405  14.027
99093W        W72161  22.029  28.980  11.709
99094W        W72162  27.370  10.901  10.644
99095W        W72163   8.254  31.794  12.545
99096W        W72164  26.959  12.194   2.229
99097W        W72165  23.201  19.206  11.485
99098W        W72166  39.073  32.234  12.801
99099W        W72167  38.445  30.712  10.978
99100W        W72168  25.289  41.032  10.643
99101W        W72169  24.075   6.993  13.247
99102W        W72170  36.817  17.908  13.413
99103W        W72171  26.079  44.300   4.234
99104W        W72172  10.702  33.380   3.238
99105W        W72173  38.243  36.505   2.695
99106W        W72174  41.986  44.283   2.463
99107W        W72175  24.228  43.617  12.017
99108W        W72176  19.198  22.203   0.020
99109W        W72177  25.926  17.082   0.837
99110W        W72178   8.649  14.664   0.523
99111W        W72179  38.067  43.000   3.258
99112W        W72180  25.710  44.694  13.495
99113W        W72181   5.170  36.112  12.073
99114W        W72182   1.272  24.117  12.018
99115W        W72183  35.034   0.728  14.274
99116W        W72184  32.676  17.263   3.621
99117W        W72185  21.525  33.956  12.068
99118W        W72186   7.593  19.370  12.684
99119W        W72187  11.575  10.432  10.317
99120W        W72188   2.463   3.194  12.910
99121W        W72189  10.068   2.986  14.550
99122W        W72190   3.691  44.799  13.309
99123W        W72191  31.275  42.479  11.978
99124W        W72192   8.776  40.319  12.912
99125W        W72193   3.178  14.762  12.328
99126W        W72194  41.965  21.242   0.334
99127W        W72195  37.273   8.489   3.132
99128W        W72196  29.438   6.184   4.206
99129W        W72197   2.417  40.564  12.106
99130W        W72198  27.923  13.174   0.332
99131W        W72199   0.077  12.798  14.679
99132W        W72200  39.551  32.570   2.943
99133W        W72201  33.254   7.278  13.574
99134W        W72202   0.250  20.334  10.882
99135W        W72203  39.727  23.618   3.603
99136W        W72204  36.152  18.622   1.923
99137W        W72205  26.825  11.705  14.165
99138W        W72206  12.514   4.303   1.316
99139W        W72207  20.098  27.536   3.671
99140W        W72208  40.032  11.237  12.637
99141W        W72209  34.885  34.486  10.914
99142W        W72210  33.846  33.487   3.773
99143W        W72211  35.850   4.247   0.951
99144W        W72212   6.262   9.809  11.127
99145W        W72213  17.499  30.416  12.421
99146W        W72214  19.981  26.007  10.707
99147W        W72215  35.340  15.594   1.880
99148W        W72216  33.001  16.068   2.844
99149W        W72217  36.253  30.625   2.308
99150W        W72218  20.448   9.763   3.157
99151W        W72219  10.764  16.185   2.663
99152W        W72220  42.474  38.013   3.808
99153W        W72221  21.245  38.852   0.235
99154W        W72222  23.741  39.702  10.216
99155W        W72223   9.701   6.295   0.526
99156W        W72224  37.145  44.264   1.509
99157W        W72225  35.734  27.293  14.403
99158W        W72226   2.655  27.539  14.950
99159W        W72227  31.461  43.428   1.922
99160W        W72228  37.472  27.434   4.211
99161W        W72229  19.332  32.899  11.112
99162W        W72230  20.008  25.788  11.168
99163W        W72231   2.791  29.440   1.525
99164W        W72232  41.126   4.993   0.454
99165W        W72233  32.638  16.069  11.041
99166W        W72234  13.613   0.909   1.986
99167W        W72235  32.872  13.574  12.883
99168W        W72236  19.027  11.396  12.342
99169W        W72237  26.924  13.009   2.805
99170W        W72238  29.484  40.020   4.153
99171W        W72239  11.777  19.197  11.171
99172W        W72240  23.968  22.018  10.772
99173W        W72241  24.206  37.039  14.480
99174W        W72242  44.815  33.151  10.855
99175W        W72243  14.354   3.911  12.882
99176W        W72244  34.931  18.566  14.394
99177W        W72245  30.536  23.688  13.278
99178W        W72246   4.546  16.622  11.182
99179W        W72247  33.348  23.008  10.505
99180W        W72248  33.629  14.090  14.389
99181W        W72249  22.638  43.841  12.403
99182W        W72250  12.658  24.362  13.881
99183W        W72251  32.442   3.766  10.882
99184W        W72252  32.282   4.499   0.463
99185W        W72253  11.769  18.139   2.619
99186W        W72254  16.179   7.300   4.605
99187W        W72255  30.574  32.031   2.155
99188W        W72256  21.296  22.944  12.003
99189W        W72257   3.702  32.360   4.516
99190W        W72258  38.621  14.220  14.845
99191W        W72259  40.023  27.761  14.577
99192W        W72260  19.070  30.547  11.223
99193W        W72261  18.131  36.812  10.551
99194W        W72262   4.043  22.676  14.300
99195W        W72263   0.069  18.994  11.596
99196W        W72264  39.046  25.225   4.601
99197W        W72265  25.528  10.073  11.522
99198W        W72266  39.001  25.112   2.905
99199W        W72267  12.112  14.366   0.254
99200W        W72268  14.157  33.109   4.614
99201W        W72269  15.077   4.871   1.550
99202W        W72270  44.261   9.255   3.723
99203W        W72271  17.645  24.217  10.697
99204W        W72272  22.593  11.316  10.721
99205W        W72273   4.608  41.796   4.983
99206W        W72274  26.223  32.486  13.791
99207W        W72275  19.131  12.422   4.203
99208W        W72276  30.612  39.933  13.396
99209W        W72277  32.954  13.653   3.764
99210W        W72278   8.105   3.680   1.432
99211W        W72279  21.143  30.335   3.993
99212W        W72280  18.256  29.981  13.536
99213W        W72281   7.819  16.694   1.348
99214W        W72282  22.948  31.231  12.949
99215W        W72283  30.349  12.146   1.216
99216W        W72284  15.749   7.304   0.900
99217W        W72285  16.253  39.842   4.437
99218W        W72286  28.608  44.068  13.871
99219W        W72287  32.616   4.828  12.354
99220W        W72288  42.949   2.754   3.850
99221W        W72289  35.540  25.965   2.114
99222W        W72290   4.352  44.193  11.015
99223W        W72291  34.077  17.172  13.068
99224W        W72292   0.420  28.005   4.616
99225W        W72293   0.438  39.920  12.869
99226W        W72294  31.625  27.566   4.986
99227W        W72295   7.448  42.803  10.998
99228W        W72296   7.271  27.659   4.096
99229W        W72297  44.267  23.516   2.853
99230W        W72298   2.482  30.651   1.762
99231W        W72299  25.103  14.291   3.262
99232W        W72300  34.995   1.776  12.934
99233W        W72301  21.065  22.705   2.162
99234W        W72302  35.619  20.271  11.934
99235W        W72303  40.491  25.647   1.207
99236W        W72304  14.150  31.010  11.952
99237W        W72305  10.421  13.372   2.382
99238W        W72306   0.032   8.750   0.432
99239W        W72307   5.032   4.827   4.252
99240W        W72308  13.216  18.567  14.426
99241W        W72309   3.340  14.983  14.004
99242W        W72310  35.320  40.142  14.815
99243W        W72311   9.677  24.957  12.511
99244W        W72312  31.798  18.548   2.303
99245W        W72313  39.883  34.063   4.061
99246W        W72314  15.936  16.040   0.401
99247W        W72315  41.076  25.074   0.928
99248W        W72316  26.566   6.217  14.000
99249W        W72317   0.198  31.847  12.203
99250W        W72318   4.424   9.487  10.688
99251W        W72319  34.063  15.616   3.582
99252W        W72320   2.246   5.180   2.759
99253W        W72321   2.784   9.848  13.776
99254W        W72322  31.109  31.320  14.864
99255W        W72323   6.658  32.211   3.708
99256W        W72324  16.288  14.030  12.005
99257W        W72325  43.379  38.468   3.595
99258W        W72326  25.752  12.929  14.596
99259W        W72327  21.467  43.379  11.860
99260W        W72328   6.408   9.848  12.874
99261W        W72329  25.079  15.709   2.914
99262W        W72330  21.583  25.697   0.281
99263W        W72331  34.590  23.067  12.502
99264W        W72332  12.259  37.040   2.801
99265W        W72333   3.337  16.057  11.901
99266W        W72334  30.981  32.800  14.916
99267W        W72335  40.833  29.164  13.422
99268W        W72336  41.902  19.011  12.063
99269W        W72337  20.272  30.222  13.910
99270W        W72338  13.216  15.281   3.772
99271W        W72339  18.715  16.747  14.937
99272W        W72340  16.581   3.821   1.239
99273W        W72341  10.353  26.281  10.078
99274W        W72342  10.739  34.639  10.745
99275W        W72343  16.316  22.925   3.288
99276W        W72344  23.347  21.061   3.695
99277W        W72345  24.715  33.417  10.506
99278W        W72346  21.417  17.712  12.268
99279W        W72347  36.834  24.168   3.730
99280W        W72348  12.412  14.476  12.515
99281W        W72349  43.468  10.699  12.002
99282W        W72350   9.160  38.690  11.610
99283W        W72351  26.233  38.645   3.148
99284W        W72352  36.486   5.378   0.801
99285W        W72353  44.828  14.146   2.334
99286W        W72354  32.124  11.733  10.835
99287W        W72355  10.522   8.878  11.092
99288W        W72356   7.723  43.996  13.817
99289W        W72357  33.933  29.916   4.813
99290W        W72358  12.642  22.499   0.031
99291W        W72359  40.021  42.005   1.409
99292W        W72360   1.954  12.353  11.093
99293W        W72361   4.143  18.106   3.161
99294W        W72362  42.551  40.871   1.340
99295W        W72363   1.793  43.230   3.299
99296W        W72364  32.538  23.491  14.102
99297W        W72365  37.329  32.482   1.004
99298W        W72366  44.214  43.523  10.770
99299W        W72367  38.617   6.868   4.249
99300W        W72368  12.149  34.703  14.118
99301W        W72369  28.018  13.282   1.639
99302W        W72370  43.398  10.175  14.840
99303W        W72371  31.396  33.528   1.932
99304W        W72372  31.924  23.780  10.618
99305W        W72373  32.669  33.439   0.315
99306W        W72374  32.509  33.967   0.369
99307W        W72375  32.163   5.883   3.734
99308W        W72376  23.999  41.143   2.246
99309W        W72377  41.075  24.712  13.989
99310W        W72378  10.713  26.546  12.427
99311W        W72379  41.338  34.868  12.604
99312W        W72380  27.590  27.903  14.116
99313W        W72381  28.187  41.555   0.360
99314W        W72382  41.899  31.116   3.704
99315W        W72383  32.029  28.906   0.330
99316W        W72384  31.091  41.215  13.057
99317W        W72385  41.083   2.101   4.490
99318W        W72386  27.376  16.740  13.518
99319W        W72387  35.416   3.304   2.246
99320W        W72388  22.624  35.835   5.034
99321W        W72389  38.058  31.361   3.309
99322W        W72390  36.272   9.323   2.685
99323W        W72391  33.443   0.436  13.342
99324W        W72392   1.880  22.239   1.916
99325W        W72393  32.971  10.609   3.278
99326W        W72394  33.828  30.319  11.615
99327W        W72395  14.372  41.635   0.045
99328W        W72396  15.500   1.757  14.095
99329W        W72397  35.853  39.967  10.787
99330W        W72398  12.668  37.983   3.113
99331W        W72399  34.897  38.076   3.677
99332W        W72400  37.321  38.327  13.954
99333W        W72401  25.214  12.139  13.485
99334W        W72402  18.066  27.340  13.013
99335W        W72403  18.522   9.626  11.237
99336W        W72404  23.933   2.555  11.645
99337W        W72405  34.404  27.618  13.950
99338W        W72406  26.209   8.981  14.427
99339W        W72407  18.225  26.452  11.961
99340W        W72408   9.678  17.614   5.068
99341W        W72409   3.645  32.514  12.122
99342W        W72410  29.106   4.700  12.065
99343W        W72411  14.751  11.828   0.307
99344W        W72412   2.242  36.699   1.411
99345W        W72413  34.280  16.332  12.135
99346W        W72414  44.762  36.174   3.258
99347W        W72415  34.695   9.753  12.179
99348W        W72416   0.519   1.823  13.606
99349W        W72417  44.370  41.344  11.656
99350W        W72418  23.745  44.740   2.659
99351W        W72419  32.485  10.172  14.740
99352W        W72420  10.560   3.909   3.114
99353W        W72421  28.359  41.353  10.672
99354W        W72422  39.822  21.457   2.643
99355W        W72423  23.992  44.538   2.206
99356W        W72424   2.579  19.146   1.954
99357W        W72425  19.769   2.823  12.842
99358W        W72426  17.501  11.031  13.854
99359W        W72427  40.370  38.633   3.728
99360W        W72428   2.580  43.521  12.166
99361W        W72429  33.440  13.828  12.078
99362W        W72430  20.659  39.048   0.884
99363W        W72431  16.785  23.635  12.001
99364W        W72432  10.124   1.562   3.159
99365W        W72433  14.993  16.219   1.904
99366W        W72434  20.296  21.076  14.022
99367W        W72435  31.473  42.519  13.589
99368W        W72436  29.094   1.909   3.669
99369W        W72437  36.451   3.628   4.020
99370W        W72438   2.923  25.565   1.088
99371W        W72439   4.299  27.042  10.368
99372W        W72440  18.820  10.331   5.314
99373W        W72441  14.033  25.535  10.726
99374W        W72442  39.494  25.993  11.914
99375W        W72443  12.296   9.754  11.734
99376W        W72444  27.700  14.300  14.918
99377W        W72445  42.853  17.312   1.527
99378W        W72446  35.625   2.726   2.932
99379W        W72447  34.241  28.444  14.497
99380W        W72448  26.038  23.172   2.149
99381W        W72449  39.800  41.655  11.199
99382W        W72450   5.042  13.950  11.977
99383W        W72451  15.140  37.000  13.454
99384W        W72452   0.853  35.568   0.081
99385W        W72453  39.445  30.622  11.624
99386W        W72454  20.842  41.207  12.389
99387W        W72455  10.289  37.410  14.150
99388W        W72456  19.124  27.232  14.107
99389W        W72457   7.703   1.072   0.293
99390W        W72458  40.282  35.528   4.238
99391W        W72459  32.957  27.282  12.962
99392W        W72460   9.927  30.519   4.078
99393W        W72461  27.966   2.875  10.367
99394W        W72462   9.916  30.400  12.315
99395W        W72463   7.302  26.030  10.706
99396W        W72464  33.433  38.514   4.166
99397W        W72465  17.111  35.328   0.826
99398W        W72466  12.140  43.280  14.981
99399W        W72467  38.847  13.097   2.249
99400W        W72468  14.579  25.345  12.518
99401W        W72469  36.050  32.504   1.310
99402W        W72470  23.201   9.057  13.507
99403W        W72471  39.541  27.599  14.575
99404W        W72472  21.054  10.665  12.463
99405W        W72473  41.310  31.830  14.352
99406W        W72474  17.134  15.192  14.372
99407W        W72475  37.866  32.834  11.149
99408W        W72476  28.636  21.103  10.536
99409W        W72477  44.330  20.226  14.359
99410W        W72478  20.683  36.290  11.120
99411W        W72479  35.159  39.597   1.403
99412W        W72480  39.398   8.126  10.204
99413W        W72481  16.043  38.544  13.948
99414W        W72482  24.695  22.032  14.067
99415W        W72483  28.557   0.384  11.190
99416W        W72484   8.736   2.803   3.740
99417W        W72485  15.267  35.261   4.825
99418W        W72486   7.422  31.000   2.647
99419W        W72487  17.250   5.282   1.989
99420W        W72488   1.043   4.935  13.906
99421W        W72489  37.585  28.982  11.604
99422W        W72490   1.279  12.330   1.998
99423W        W72491  23.466  27.217  12.514
99424W        W72492  18.259  10.199  12.018
99425W        W72493  38.858  43.163   4.992
99426W        W72494  14.398  32.925  11.565
99427W        W72495  18.031  14.786   4.582
99428W        W72496  43.126  33.974  14.832
99429W        W72497  39.418  10.895   0.646
99430W        W72498  38.552   3.296  14.180
99431W        W72499  28.511  34.399   4.510
99432W        W72500  33.140  13.788  13.864
99433W        W72501  43.118  14.407  11.289
99434W        W72502  40.267   2.655   2.541
99435W        W72503  18.337  25.023   3.743
99436W        W72504  17.713  34.839   1.280
99437W        W72505  11.343  16.625   3.157
99438W        W72506  44.423  37.058   4.586
99439W        W72507   1.050  37.795   4.137
99440W        W72508  26.560   9.638   3.652
99441W        W72509   2.195  10.178   3.551
99442W        W72510  10.420  38.597   2.721
99443W        W72511   2.379  38.965  11.245
99444W        W72512  27.445   6.349   2.242
99445W        W72513  27.071  34.080   2.124
99446W        W72514  20.606  42.738  13.803
99447W        W72515  44.025  38.868  11.591
99448W        W72516   9.181  37.849   2.308
99449W        W72517  38.368  39.334   0.534
99450W        W72518  40.492  25.202   1.483
99451W        W72519   2.549  31.527  13.989
99452W        W72520  33.623  34.594  10.039
99453W        W72521  42.252  34.407   1.935
99454W        W72522  42.424   6.468   4.148
99455W        W72523  15.006  34.336  14.992
99456W        W72524   0.917   6.733   0.865
99457W        W72525   3.492  33.941   1.692
99458W        W72526  11.875  29.576  13.930
99459W        W72527  12.153   9.414  13.003
99460W        W72528  43.315  41.271   4.598
99461W        W72529  19.639  17.769  13.887
99462W        W72530  21.727  13.290   4.805
99463W        W72531  38.470   8.960   5.129
99464W        W72532  44.271  37.293   1.289
99465W        W72533  15.302  29.248  12.834
99466W        W72534  36.764  17.648   1.469
99467W        W72535  41.743  12.096  11.592
99468W        W72536  19.915  24.539   3.249
99469W        W72537  37.943   9.674  13.488
99470W        W72538  34.043   1.588   4.160
99471W        W72539  14.956  13.604   2.802
99472W        W72540  38.341   3.461  14.614
99473W        W72541  22.343  33.460   3.037
99474W        W72542  42.951  26.440  14.907
99475W        W72543  40.570  21.733   4.654
99476W        W72544  32.032  42.372   4.735
99477W        W72545   2.513  16.118   2.890
99478W        W72546  17.752  19.208  11.766
99479W        W72547  16.846  23.836  12.463
99480W        W72548  30.179  23.387   0.878
99481W        W72549  16.574   3.112  12.490
99482W        W72550  42.926  32.083  14.910
99483W        W72551  26.531  41.719  13.340
99484W        W72552  40.197   1.676   4.752
99485W        W72553  14.717  34.868   0.473
99486W        W72554  20.204   9.410   0.369
99487W        W72555  34.066  36.503  14.039
99488W        W72556   6.960   1.353   3.785
99489W        W72557  31.995  16.729  14.367
99490W        W72558  22.775  13.165   1.340
99491W        W72559   0.269   0.944  10.593
99492W        W72560  40.294  43.953   0.449
99493W        W72561  40.328   1.277   2.351
99494W        W72562  12.164  43.183   4.630
99495W        W72563  24.833   9.130  12.840
99496W        W72564  17.392  40.636   0.738
99497W        W72565  34.194  15.088  12.682
99498W        W72566   2.492  31.575  10.737
99499W        W72567   0.962  14.263  14.300
99500W        W72568  23.798  37.543  12.284
99501W        W72569  24.546  28.937  11.202
99502W        W72570  14.892  36.872   3.522
99503W        W72571  40.910   6.797  14.682
99504W        W72572  10.287  18.656  10.465
99505W        W72573   4.422   6.498  10.824
99506W        W72574  39.396  16.405   4.960
99507W        W72575  25.196  30.591   2.879
99508W        W72576  17.683  42.303   2.411
99509W        W72577   4.775  23.447  14.795
99510W        W72578   4.266  43.831   4.934
99511W        W72579  32.735  30.996  11.171
99512W        W72580  44.868   5.740  12.335
99513W        W72581   5.279  44.285   0.909
99514W        W72582  16.333  38.905   4.325
99515W        W72583   4.495   3.488  11.329
99516W        W72584  37.891  37.483   2.811
99517W        W72585  14.609  41.930  13.611
99518W        W72586  12.235  34.397   3.746
99519W        W72587  23.833  15.996  13.088
99520W        W72588  31.451  42.007   1.855
99521W        W72589  28.497  28.569   2.395
99522W        W72590   0.499  36.864  14.030
99523W        W72591  18.035  12.266  10.396
99524W        W72592  33.080  38.765  11.093
99525W        W72593  22.026  41.950  12.522
99526W        W72594  13.384   3.887   0.366
99527W        W72595  35.644   9.782  11.650
99528W        W72596   9.439  32.972   1.143
99529W        W72597   6.721  27.668   1.375
99530W        W72598  23.613  11.643  12.046
99531W        W72599   2.478   6.655   4.908
99532W        W72600  18.334  13.687  11.374
99533W        W72601  33.507  21.641  13.151
99534W        W72602  22.534   8.912   1.848
99535W        W72603  22.714  28.097  12.439
99536W        W72604  31.097   4.004  12.628
99537W        W72605  30.440  13.349   0.577
99538W        W72606  15.085  32.001  11.460
99539W        W72607  16.975   5.774   3.080
99540W        W72608  19.152  44.352   2.262
99541W        W72609  40.237  43.409  11.984
99542W        W72610  31.064  11.843  12.909
99543W        W72611   7.445  15.694  14.510
99544W        W72612  40.245   7.157  12.325
99545W        W72613   8.940  14.517   4.009
99546W        W72614  39.038  39.657  12.223
99547W        W72615  12.961  42.879   2.841
99548W        W72616   2.297   6.208  12.577
99549W        W72617  29.466  24.987   4.077
99550W        W72618  12.757  42.891  12.032
99551W        W72619  37.625   2.272   4.587
99552W        W72620  37.441   1.023   1.800
99553W        W72621  36.133  24.435   3.919
99554W        W72622   0.931  13.115  14.968
99555W        W72623  33.125   8.619   2.804
99556W        W72624   7.299  40.377   0.729
99557W        W72625  40.919  11.794   0.015
99558W        W72626   6.219  19.507   2.571
99559W        W72627  14.623   2.830   3.173
99560W        W72628  38.872  22.951   0.731
99561W        W72629  31.202  22.157   1.255
99562W        W72630  14.235  34.806  13.964
99563W        W72631  39.565  33.463   4.571
99564W        W72632   6.451  36.672   0.713
99565W        W72633  36.028  39.002  14.962
99566W        W72634  19.682  11.786   0.778
99567W        W72635  29.777  32.296   3.422
99568W        W72636  37.963   4.872  13.120
99569W        W72637  24.057  28.645  13.182
99570W        W72638  34.542  37.022  12.095
99571W        W72639  41.905  31.157   4.489
99572W        W72640  42.340  22.591  12.917
99573W        W72641   4.810   8.803   5.041
99574W        W72642  17.358  14.870  10.307
99575W        W72643  11.637  28.487  13.495
99576W        W72644   6.432  42.458  10.863
99577W        W72645   0.800   4.970   3.198
99578W        W72646  36.963  17.178   1.375
99579W        W72647  15.166   6.196   1.132
99580W        W72648   2.999   7.399  14.485
99581W        W72649  36.601  41.389  12.447
99582W        W72650  44.886  34.473   0.387
99583W        W72651  19.292   4.939  11.601
99584W        W72652   0.723  37.373   4.092
99585W        W72653  30.837  40.997   4.464
99586W        W72654  29.080  19.868  10.562
99587W        W72655  13.800  44.095  12.030
99588W        W72656  20.071  13.605  13.549
99589W        W72657  15.841  18.986  11.048
99590W        W72658   2.450  12.920   4.545
99591W        W72659  36.072  42.710  12.928
99592W        W72660  21.569  22.001  13.991
99593W        W72661  35.563  28.931  13.986
99594W        W72662  35.476  16.956  12.432
99595W        W72663   0.722  10.350  11.351
99596W        W72664  30.324  18.515   3.131
99597W        W72665  38.271   3.258   0.068
99598W        W72666   2.516  13.384   0.369
99599W        W72667   1.104  36.739  11.532
99600W        W72668  44.420  29.656   4.025
99601W        W72669   2.983  21.750   1.248
99602W        W72670   1.703   8.949  12.787
99603W        W72671  24.947   3.335  10.967
99604W        W72672  25.231  42.511   1.234
99605W        W72673  25.305  36.370  11.592
99606W        W72674  42.055  32.947  13.773
99607W        W72675  16.022   7.928   4.585
99608W        W72676   4.709   8.664   1.869
99609W        W72677  42.958  17.810  11.209
99610W        W72678  41.856  19.183  12.566
99611W        W72679  44.460  37.510   2.847
99612W        W72680  29.979  38.924   4.336
99613W        W72681  14.900  27.715   4.708
99614W        W72682  36.420   4.650   1.374
99615W        W72683   6.823  27.476  12.385
99616W        W72684  42.830  30.158  14.436
99617W        W72685  34.631  37.984  14.733
99618W        W72686   1.190   0.586   4.498
99619W        W72687   4.826  22.851   1.029
99620W        W72688   8.299  30.861  14.862
99621W        W72689  39.147  30.211  11.656
99622W        W72690  21.122  35.617  10.708
99623W        W72691  37.268  12.793  11.979
99624W        W72692  33.082  18.228  14.457
99625W        W72693  28.643  26.602  13.848
99626W        W72694   2.742   8.650  13.772
99627W        W72695  28.627  44.523   3.324
99628W        W72696  26.961  18.868  10.787
99629W        W72697   5.442  17.075   4.028
99630W        W72698  22.716  28.395   3.121
99631W        W72699  24.965  31.078   5.097
99632W        W72700  28.236  20.138   2.299
99633W        W72701   6.849  21.766   3.291
99634W        W72702  21.113  36.342   1.359
99635W        W72703  35.760  13.038   3.144
99636W        W72704   5.344  41.418  13.417
99637W        W72705  24.967  23.533   4.376
99638W        W72706  10.669  15.793   1.753
99639W        W72707  38.152  32.809   3.202
99640W        W72708  22.682  38.611   0.711
99641W        W72709   7.941  35.439  11.477
99642W        W72710  38.566  10.924  11.913
99643W        W72711  41.009  27.543  13.553
99644W        W72712  11.721  23.793   2.616
99645W        W72713  37.090  44.339  11.385
99646W        W72714  15.074  35.942  13.757
99647W        W72715   1.958  30.912  13.261
99648W        W72716  25.771  15.435  14.834
99649W        W72717  18.238   4.249   4.002
99650W        W72718  12.795  36.360   0.352
99651W        W72719  26.928   3.212  13.414
99652W        W72720  24.741  27.998  14.328
99653W        W72721  10.865  25.957  13.952
99654W        W72722  28.159  40.116   0.547
99655W        W72723  36.919  11.718  12.989
99656W        W72724  31.589  10.097  14.860
99657W        W72725   1.800  37.470   1.974
99658W        W72726  22.625  31.602   3.562
99659W        W72727  44.380  31.166   1.386
99660W        W72728  29.611  41.081  12.554
99661W        W72729   9.710  22.003   3.913
99662W        W72730  13.554  36.203   4.025
99663W        W72731  21.460  35.591   4.653
99664W        W72732  14.581  16.349   2.207
99665W        W72733  22.940  33.667  13.513
99666W        W72734  37.196   9.213  12.621
99667W        W72735  13.564  24.510  13.813
99668W        W72736  39.815  16.497   0.632
99669W        W72737  44.813  28.669  14.716
99670W        W72738  18.051   9.261   0.823
99671W        W72739  34.126  43.412   1.781
99672W        W72740  19.233  18.149   0.634
99673W        W72741  16.013  16.672  13.856
99674W        W72742  15.591  39.085   3.745
99675W        W72743  28.553   3.507   0.865
99676W        W72744  28.456   7.447   1.700
99677W        W72745  38.780  23.913   4.165
99678W        W72746   3.691  14.704  11.618
99679W        W72747  43.985  24.541   0.394
99680W        W72748  10.590  36.566  14.373
99681W        W72749  18.540  27.002   1.409
99682W        W72750  20.761  40.216   3.313
99683W        W72751   7.204  13.656   1.907
99684W        W72752  24.822   6.300   4.645
99685W        W72753  30.762  32.009   4.322
99686W        W72754  42.820  27.642  13.461
99687W        W72755  33.060  27.238  10.642
99688W        W72756  29.621  32.042   9.964
99689W        W72757  26.900   9.669  13.479
99690W        W72758   0.050  28.092  14.499
99691W        W72759  11.443   1.303  12.398
99692W        W72760   6.403  35.852   2.718
99693W        W72761   3.898  14.363  13.612
99694W        W72762   5.352  26.926   4.651
99695W        W72763  43.509  29.716  14.011
99696W        W72764   5.300  41.539   0.041
99697W        W72765   7.331  32.972   3.941
99698W        W72766   4.419  25.030  12.070
99699W        W72767  22.995   9.851  11.553
99700W        W72768  12.989  21.212   1.465
99701W        W72769   1.167  28.900  14.779
99702W        W72770  29.479  44.940   1.460
99703W        W72771  12.903  44.336  11.590
99704W        W72772  43.477   1.842  11.415
99705W        W72773  21.993  38.366   2.274
99706W        W72774  19.153  35.021  13.861
99707W        W72775  12.642  16.797   4.939
99708W        W72776   9.807  39.052  13.080
99709W        W72777  13.846  20.225   0.211
99710W        W72778  38.466   7.765  11.848
99711W        W72779   9.141   8.901   9.678
99712W        W72780   1.852  34.682  11.545
99713W        W72781  36.840  26.645   4.578
99714W        W72782  15.063  39.308   4.182
99715W        W72783  36.311  42.219  11.668
99716W        W72784  41.800  10.292  10.968
99717W        W72785  30.556  23.131  12.607
99718W        W72786  15.376  38.411  12.925
99719W        W72787  12.182  15.996   1.932
99720W        W72788  17.592  37.319  10.985
99721W        W72789  38.370  16.492   0.973
99722W        W72790  25.266  21.133   2.854
99723W        W72791  16.093  41.553  12.161
99724W        W72792  42.210  28.110  14.724
99725W        W72793   7.692  30.409   3.735
99726W        W72794  34.053   4.306  13.010
99727W        W72795  12.864   3.317  10.877
99728W        W72796  29.044  36.658  12.848
99729W        W72797   4.839  13.558  14.306
99730W        W72798   3.014  39.406   1.688
99731W        W72799   8.872  16.265   4.705
99732W        W72800  16.337  42.176   0.022
99733W        W72801  30.689  18.239   4.620
99734W        W72802  42.470  31.696  13.848
99735W        W72803  31.884  23.660   3.951
99736W        W72804  29.698  12.589  14.961
99737W        W72805  13.760  33.601   1.572
99738W        W72806  37.658  18.675   1.806
99739W        W72807  19.683   9.148   2.828
99740W        W72808  38.534  15.166  11.917
99741W        W72809  14.443  40.316   3.653
99742W        W72810  30.058   8.129  13.382
99743W        W72811  13.427  41.874  14.713
99744W        W72812  22.659   9.893  13.596
99745W        W72813  33.319  13.718  11.105
99746W        W72814   4.521  25.159  13.890
99747W        W72815   8.762   8.650  13.528
99748W        W72816  20.138   9.051  11.226
99749W        W72817  17.184   9.848   4.544
99750W        W72818  41.584  31.100   0.450
99751W        W72819   3.018  21.115   3.706
99752W        W72820  21.312  28.331  14.428
99753W        W72821   8.168  13.735   4.441
99754W        W72822  29.065  23.970   0.343
99755W        W72823   0.190  35.510  13.725
99756W        W72824  10.333   5.857   3.607
99757W        W72825   2.930   2.410  11.899
99758W        W72826  11.776  38.906   1.251
99759W        W72827   6.336   8.331   4.553
99760W        W72828  15.186  37.265   3.772
99761W        W72829  34.350  38.931   4.148
99762W        W72830  38.128  17.692  14.347
99763W        W72831  17.685  31.080   2.369
99764W        W72832  31.870   4.138  11.535
99765W        W72833  34.062  44.199   2.287
99766W        W72834  31.862  18.556  11.522
99767W        W72835  14.769  39.953   1.335
99768W        W72836  18.385  23.191   1.388
99769W        W72837  43.642   3.961   1.409
99770W        W72838  26.550  40.811  11.324
99771W        W72839  17.216  37.349   2.352
99772W        W72840   4.254  24.106  11.668
99773W        W72841  24.948  10.574   4.637
99774W        W72842  33.797   0.365  12.970
99775W        W72843  15.589  30.885   0.457
99776W        W72844   6.514  10.949  13.401
99777W        W72845   2.185  44.285   0.950
99778W        W72846  32.412  40.151  12.417
99779W        W72847  15.013  13.804  13.953
99780W        W72848  38.977   5.630   4.188
99781W        W72849  44.017  16.201  13.307
99782W        W72850  36.871   3.926   4.191
99783W        W72851  44.497   1.279  12.188
99784W        W72852  25.692  23.036  10.633
99785W        W72853  30.514  44.893   3.741
99786W        W72854  37.581  27.912  11.464
99787W        W72855  21.688  26.975  13.636
99788W        W72856  16.324   5.266  14.527
99789W        W72857   9.955  35.536  11.318
99790W        W72858   4.927  41.153   2.588
99791W        W72859  23.312  14.184  12.845
99792W        W72860   2.304  44.353   3.884
99793W        W72861  28.944  17.265   4.678
99794W        W72862  11.412   6.132   0.729
99795W        W72863  35.534  32.966   2.372
99796W        W72864   3.813  25.719  11.823
99797W        W72865  38.169   4.986   1.357
99798W        W72866  13.388  15.632  13.362
99799W        W72867  15.786   3.966  13.406
99800W        W72868  24.759  42.361  10.623
99801W        W72869  29.434  27.867   4.980
99802W        W72870  18.452   3.376  11.961
99803W        W72871  10.284  32.655  14.744
99804W        W72872  18.533  42.366  11.086
99805W        W72873  43.749  40.989  11.265
99806W        W72874  19.853  28.080   3.217
99807W        W72875  33.373  22.297   1.527
99808W        W72876  20.773  10.418   1.218
99809W        W72877   4.378   7.415  13.501
99810W        W72878  36.925  18.058   1.156
99811W        W72879  39.526  32.096   1.253
99812W        W72880  28.587  27.182  10.838
99813W        W72881  14.119   8.787   2.319
99814W        W72882  14.906  11.120   2.244
99815W        W72883  16.203  27.589   0.948
99816W        W72884   6.328  37.304  13.374
99817W        W72885  44.863  11.563   0.874
99818W        W72886  33.854  25.514  14.358
99819W        W72887  19.005  11.641  14.931
99820W        W72888  12.661  28.759  14.407
99821W        W72889  18.967  10.814  11.628
99822W        W72890  33.115  32.642  12.003
99823W        W72891  41.583  41.131   1.327
99824W        W72892  18.367  38.679  12.769
99825W        W72893  35.036   9.146   3.634
99826W        W72894  25.532  18.063  12.442
99827W        W72895  42.872  38.482   2.703
99828W        W72896  37.820   3.202   2.945
99829W        W72897  36.873  19.210   2.491
99830W        W72898  22.439  26.866  14.977
99831W        W72899  14.819   8.908   1.758
99832W        W72900  15.978  28.621   3.273
99833W        W72901  12.956  22.121   1.929
99834W        W72902  39.771  25.085  12.366
99835W        W72903  22.944   7.067   3.031
99836W        W72904   6.739   9.393  14.780
99837W        W72905  24.452  15.625  10.168
99838W        W72906  12.193  11.434   4.654
99839W        W72907   6.126  30.094  11.592
99840W        W72908   0.850   6.658   4.139
99841W        W72909  18.737  13.372  11.555
99842W        W72910  39.056   4.720  11.087
99843W        W72911  31.842  41.658  11.932
99844W        W72912  41.013  43.096   3.283
99845W        W72913   4.721  41.032   1.175
99846W        W72914  36.695  13.210   1.000
99847W        W72915  11.654  30.198  12.378
99848W        W72916   7.702   6.858  12.522
99849W        W72917   2.316  23.046   3.784
99850W        W72918  14.594   5.009   0.755
99851W        W72919  22.604  11.158   2.665
99852W        W72920  38.122  17.849   0.202
99853W        W72921  30.903   2.648   1.849
99854W        W72922  20.612   6.808  13.513
99855W        W72923   3.823  37.864  13.074
99856W        W72924  24.672  16.789   2.057
99857W        W72925  24.405  28.942  12.935
99858W        W72926  35.245  16.967  13.597
99859W        W72927  43.282  35.173  12.040
99860W        W72928  36.851  27.612   2.600
99861W        W72929  20.213  38.952   1.536
99862W        W72930   8.914   9.834  12.323
99863W        W72931  11.108  12.690   3.348
99864W        W72932  41.077  24.742   0.348
99865W        W72933   4.420  44.344  11.493
99866W        W72934  23.227   4.749  13.849
99867W        W72935  35.930   4.618  12.441
99868W        W72936  39.843  40.695  14.429
99869W        W72937  39.514  20.197  12.637
99870W        W72938  34.939  40.835   3.949
99871W        W72939  21.303  42.344   1.675
99872W        W72940  29.806  39.342   3.132
99873W        W72941  39.395  25.919   4.853
99874W        W72942  43.962  14.372  13.138
99875W        W72943  33.001  25.535  13.961
99876W        W72944  35.188   6.649   0.534
99877W        W72945   7.681  43.788  11.547
99878W        W72946  10.118   1.191   1.417
99879W        W72947  10.419  15.287  13.982
99880W        W72948  16.047  21.542  10.763
99881W        W72949  14.063  24.201   3.816
99882W        W72950  37.142  20.137  11.977
99883W        W72951  22.171  35.868  10.561
99884W        W72952  33.931  23.944  11.719
99885W        W72953   0.822  37.959   2.826
99886W        W72954  29.104  15.029  14.869
99887W        W72955  24.679  22.680  12.871
99888W        W72956  24.189   8.859   3.830
99889W        W72957  23.529  33.810   4.383
99890W        W72958  42.038  30.897   2.115
99891W        W72959  20.603  17.810  11.545
99892W        W72960  35.351  26.077  13.648
99893W        W72961  40.018  13.416  12.927
99894W        W72962  29.608   5.797  14.260
99895W        W72963  34.446  36.876   1.310
99896W        W72964  33.683  25.795  12.962
99897W        W72965   7.816  17.192   1.448
99898W        W72966  10.357  41.506   4.243
99899W        W72967  28.462   0.504   2.241
99900W        W72968  13.615  10.651  10.475
99901W        W72969  26.247  31.125   0.795
99902W        W72970  11.139  22.945  10.715
99903W        W72971  22.154  44.092   9.783
99904W        W72972  31.962  15.555  10.835
99905W        W72973  40.608  33.352   5.167
99906W        W72974  23.084   4.028   4.078
99907W        W72975  40.391   3.101   2.791
99908W        W72976   0.460  18.613  10.869
99909W        W72977  19.460  21.877   1.813
99910W        W72978   9.112   4.898   2.443
99911W        W72979  37.916  22.018  14.995
99912W        W72980  24.477  18.777  13.945
99913W        W72981  20.043  33.962  11.064
99914W        W72982  19.731  36.409   1.529
99915W        W72983   8.867  41.804  11.093
99916W        W72984  13.703  34.664  10.954
99917W        W72985   8.377  34.022  13.207
99918W        W72986  32.066  36.786  14.301
99919W        W72987  23.592  23.781   2.639
99920W        W72988  25.993   2.772   3.120
99921W        W72989  38.396  44.478   4.431
99922W        W72990  43.437   4.913  11.871
99923W        W72991  12.533   7.877   2.210
99924W        W72992  18.181  38.168   2.411
99925W        W72993  24.208   5.219  14.496
99926W        W72994   8.702   5.251   0.880
99927W        W72995  19.874  43.016  10.268
99928W        W72996  38.061  39.104  10.843
99929W        W72997  15.986  28.142   1.405
99930W        W72998  39.388  28.914   1.925
99931W        W72999  38.127   9.666  12.457
99932W        W73000  10.898  17.931  12.104
99933W        W73001  12.612  38.357   4.166
99934W        W73002  37.659  21.265  11.436
99935W        W73003   8.952  21.170   2.094
99936W        W73004   7.726  28.701  14.914
99937W        W73005  28.649  21.174   2.560
99938W        W73006  17.542   3.447   2.431
99939W        W73007  32.199   5.394   0.330
99940W        W73008   7.013   8.869  10.822
99941W        W73009   7.643   2.914   1.702
99942W        W73010   0.780  12.112   2.847
99943W        W73011  11.265   2.372   2.584
99944W        W73012  12.877  15.786  10.373
99945W        W73013   6.081  11.653  13.050
99946W        W73014  11.174  34.712   0.300
99947W        W73015   8.270  35.478  12.898
99948W        W73016  12.325  11.743  14.009
99949W        W73017  19.709   3.960   0.259
99950W        W73018  29.753  39.392  10.410
99951W        W73019  13.571  36.714   4.068
99952W        W73020  35.070  43.338   0.245
99953W        W73021  17.526  15.241   3.664
99954W        W73022  34.038   6.462  14.351
99955W        W73023  32.363  42.397  11.900
99956W        W73024  32.089  15.693  11.709
99957W        W73025  40.297  35.342  14.305
99958W        W73026  19.550   6.490  12.513
99959W        W73027   5.178  14.720   1.413
99960W        W73028  43.384  31.066  11.380
99961W        W73029  17.297  13.250  13.752
99962W        W73030   9.210  10.916   1.891
99963W        W73031  29.828  35.912   2.447
99964W        W73032  31.813  34.585   4.517
99965W        W73033  19.032  14.747  12.050
99966W        W73034  15.806   5.556  10.852
99967W        W73035   2.366  15.638   3.114
99968W        W73036  42.528  11.244  11.744
99969W        W73037  30.219  38.847   2.340
99970W        W73038  28.909  10.218   3.727
99971W        W73039  27.047   7.495  11.421
99972W        W73040  13.156  37.665   0.277
99973W        W73041  27.771  15.216  11.063
99974W        W73042  37.512  34.178   3.331
99975W        W73043  16.729  39.380  11.188
99976W        W73044  23.757  11.642   3.352
99977W        W73045  43.301   6.729   2.604
99978W        W73046   0.391  30.388   2.619
99979W        W73047  35.509  42.219   1.675
99980W        W73048  22.719  41.909  11.180
99981W        W73049  18.179  28.497  11.382
99982W        W73050  40.397  39.027  14.864
99983W        W73051  27.891   3.757   3.058
99984W        W73052  37.824  25.710  14.446
99985W        W73053  18.939  31.609  12.942
99986W        W73054  44.564  37.025   2.578
99987W        W73055  39.910  11.359  10.847
99988W        W73056  17.029   7.572   4.008
99989W        W73057  11.654  17.680  14.412
99990W        W73058  15.860  14.282  13.915
99991W        W73059  13.287  23.028   0.447
99992W        W73060   7.779  15.717   1.206
99993W        W73061  31.088  42.995   1.911
99994W        W73062   2.708   4.832   4.630
99995W        W73063  31.577  19.642   4.545
99996W        W73064  14.036  31.842  12.926
99997W        W73065  10.582  20.929  12.102
99998W        W73066  15.821  38.425   2.380
99999W        W73067  33.048  18.034   4.426
    0W        W73068  39.958   5.244   3.202
    1W        W73069  25.877  36.627  12.864
    2W        W73070  14.303  21.534  14.453
    3W        W73071   4.685  29.928   4.234
    4W        W73072  34.612  24.618  13.919
    5W        W73073   8.147   8.603  14.804
    6W        W73074  14.119  32.362   5.278
    7W        W73075   6.346  14.760   1.787
    8W        W73076  18.373  30.020   1.660
    9W        W73077  22.500  16.855  13.936
   10W        W73078  22.662  23.158  10.352
   11W        W73079  21.160  14.156   0.748
   12W        W73080  44.935  14.182  13.492
   13W        W73081  41.266  12.140  10.748
   14W        W73082   8.827  35.685   0.109
   15W        W73083  29.718  13.376   3.419
   16W        W73084  12.948  24.501   0.822
   17W        W73085  18.726  10.792  11.169
   18W        W73086  33.921  32.148   0.939
   19W        W73087   8.440  10.746   1.416
   20W        W73088  17.090  40.091   4.547
   21W        W73089  32.838  11.478  14.102
   22W        W73090  22.216   3.902   0.895
   23W        W73091  21.705  39.972   2.285
   24W        W73092  21.594   5.001   2.776
   25W        W73093  38.639  30.352   0.405
   26W        W73094  35.373  32.956  13.433
   27W        W73095  11.348  35.464  11.952
   28W        W73096  43.421  25.118   1.971
   29W        W73097  42.242  40.379   4.588
   30W        W73098  43.717   7.669   3.935
   31W        W73099  19.798  31.456  12.383
   32W        W73100   1.049  18.219   2.718
   33W        W73101  37.008  43.298   2.674
   34W        W73102  43.384  35.878  14.406
   35W        W73103  42.493  11.499  14.552
   36W        W73104   2.445   0.408   0.935
   37W        W73105   8.611  40.094  13.367
   38W        W73106  32.172  34.152   0.016
   39W        W73107  34.433   4.150   0.862
   40W        W73108  36.539  19.633   3.198
   41W        W73109  39.403  39.556  13.960
   42W        W73110  26.984  40.065   0.431
   43W        W73111   3.867  17.299   1.057
   44W        W73112  39.538  36.012   4.202
   45W        W73113  41.023  32.992  14.524
   46W        W73114  44.323  31.121  11.091
   47W        W73115  20.738  43.806   4.645
   48W        W73116   2.067  37.980   3.121
   49W        W73117  10.771  38.019  14.318
   50W        W73118  11.065  16.355   9.701
   51W        W73119  31.764   6.105   1.580
   52W        W73120  43.973  36.488   2.163
   53W        W73121  19.507   9.137  14.831
   54W        W73122   7.798  31.935   2.385
   55W        W73123  37.901  22.825   1.884
   56W        W73124   8.801  12.741   2.609
   57W        W73125  28.048  34.899  12.348
   58W        W73126  37.971  14.606  11.062
   59W        W73127  15.406  24.804   2.806
   60W        W73128   0.303  13.328   3.131
   61W        W73129  35.673  29.642   3.546
   62W        W73130  26.500  19.075   3.775
   63W        W73131  41.291  39.091  13.055
   64W        W73132  31.449  41.245   0.341
   65W        W73133  29.138   3.346   0.022
   66W        W73134  36.844  35.032   1.850
   67W        W73135  37.310  33.200  10.429
   68W        W73136  18.281  33.435  10.665
   69W        W73137  33.358  26.750   1.338
   70W        W73138   5.372   3.464  14.001
   71W        W73139  28.354   6.440  14.332
   72W        W73140  31.175  15.123  10.670
   73W        W73141   1.681   3.023  12.099
   74W        W73142   0.231   1.784  11.602
   75W        W73143  16.311  23.381  12.022
   76W        W73144  31.189  37.299  10.262
   77W        W73145  22.823   2.207  14.821
   78W        W73146  10.759  12.304  12.345
   79W        W73147  15.906  22.173  14.869
   80W        W73148  29.574  28.254  12.105
   81W        W73149   1.811  42.386   4.346
   82W        W73150  11.686  19.599  10.885
   83W        W73151  16.100  38.684  11.856
   84W        W73152  22.544   3.484   0.822
   85W        W73153   6.181  42.186   2.730
   86W        W73154   7.980   8.865  12.512
   87W        W73155  41.866   6.782   1.665
   88W        W73156  40.943   2.454   3.147
   89W        W73157  27.633  42.379   0.537
   90W        W73158  34.086   0.916  11.910
   91W        W73159  18.713   8.933   1.344
   92W        W73160  22.227  33.044  12.430
   93W        W73161  44.996   4.499   2.122
   94W        W73162  21.032  31.970   2.420
   95W        W73163  31.919   9.751  11.530
   96W        W73164   6.533   6.705  10.900
   97W        W73165  13.357  21.790  11.195
   98W        W73166   3.446  42.740  13.902
   99W        W73167  17.819  41.171  13.919
  100W        W73168  36.875  32.733  14.412
  101W        W73169  34.116  14.954   0.859
  102W        W73170  30.449   2.488   1.630
  103W        W73171  25.915  23.517  14.004
  104W        W73172  43.845  32.453  11.253
  105W        W73173  35.402   5.258  11.391
  106W        W73174   1.941   6.549  12.749
  107W        W73175  32.033  37.293  14.317
  108W        W73176  34.577   2.747   2.337
  109W        W73177  32.498   6.966   3.776
  110W        W73178  29.130  30.710  13.959
  111W        W73179  31.004  22.220  13.943
  112W        W73180  33.190  15.728  10.290
  113W        W73181  31.376  31.795   9.916
  114W        W73182  10.339   0.770  11.127
  115W        W73183   6.704  30.690   4.999
  116W        W73184  23.731  34.169   1.895
  117W        W73185  14.675  26.985  14.776
  118W        W73186  11.883  21.149  11.634
  119W        W73187  42.560  31.997   2.583
  120W        W73188   4.491  23.877   0.619
  121W        W73189  42.930   7.098  13.096
  122W        W73190  29.320  16.248  14.340
  123W        W73191  15.197   0.520  14.377
  124W        W73192  22.933  14.296   4.194
  125W        W73193  33.835   9.406  13.025
  126W        W73194  15.018   8.884  13.261
  127W        W73195  41.291  22.456  13.809
  128W        W73196  41.567  16.526   2.232
  129W        W73197  33.134  23.219   3.621
  130W        W73198  42.297   3.014   2.655
  131W        W73199  15.199  22.059  12.523
  132W        W73200  29.542   2.918   2.333
  133W        W73201  25.531  26.544   4.107
  134W        W73202  19.252  19.790  12.935
  135W        W73203   3.776  28.669  14.412
  136W        W73204  23.295  10.320  11.556
  137W        W73205   5.977   9.312  13.700
  138W        W73206  26.512  18.663  11.700
  139W        W73207   7.666  23.615  12.438
  140W        W73208   8.099  10.142   4.670
  141W        W73209   0.790   7.956  12.180
  142W        W73210  11.826  43.527  11.402
  143W        W73211  24.660   6.582   3.800
  144W        W73212  31.072   8.120   0.522
  145W        W73213   9.930  38.311   0.464
  146W        W73214  36.811  29.121  12.579
  147W        W73215  42.912  24.513   1.658
  148W        W73216   7.257   9.161  11.317
  149W        W73217  43.993  14.537   3.284
  150W        W73218  38.802  28.212  12.015
  151W        W73219  26.669  19.083  10.412
  152W        W73220  31.946   5.679  14.912
  153W        W73221  24.606  41.862  11.992
  154W        W73222  14.065  23.473  13.988
  155W        W73223  27.592  33.628   4.777
  156W        W73224  24.459  17.625  14.310
  157W        W73225  32.074   4.233   0.076
  158W        W73226   6.228  44.943  10.637
  159W        W73227   7.965  28.544   1.247
  160W        W73228  20.533  14.317   0.017
  161W        W73229  40.781  40.247   4.330
  162W        W73230  43.791   1.929  11.012
  163W        W73231   9.681   3.232  12.018
  164W        W73232   7.005  20.795  14.315
  165W        W73233  14.611  23.329   1.736
  166W        W73234   5.410  43.417   2.255
  167W        W73235   0.831  20.626   1.847
  168W        W73236  33.383  19.627  14.303
  169W        W73237  38.526  34.063  12.397
  170W        W73238  22.262  15.277   1.708
  171W        W73239  36.233  30.368  10.183
  172W        W73240  22.007  36.326   3.174
  173W        W73241  38.872   7.101   0.825
  174W        W73242  20.877  43.119  13.491
  175W        W73243  18.142  28.666   1.726
  176W        W73244  16.366   1.918   2.183
  177W        W73245  20.457  43.900   3.797
  178W        W73246   4.403  26.494   2.787
  179W        W73247  42.477  22.702  11.437
  180W        W73248  36.548  16.388  11.604
  181W        W73249  31.104  14.295   1.920
  182W        W73250   5.676   6.801   3.726
  183W        W73251  38.603   5.245  12.416
  184W        W73252  40.887  27.879  14.530
  185W        W73253  17.834  19.095   1.991
  186W        W73254  10.438  22.671  13.776
  187W        W73255  23.892  38.899   5.024
  188W        W73256  26.901  10.916  14.869
  189W        W73257  33.332  13.739   2.036
  190W        W73258  29.431  41.556  11.479
  191W        W73259   5.242  34.614  13.027
  192W        W73260   9.302  28.951  12.142
  193W        W73261  39.442   1.700   3.592
  194W        W73262   3.363  43.123  12.434
  195W        W73263   1.822  11.589   2.468
  196W        W73264  11.799  12.088   1.354
  197W        W73265   8.217  30.215   4.264
  198W        W73266   6.768  40.800  14.366
  199W        W73267  40.800  22.991  14.438
  200W        W73268  28.044  43.866   2.118
  201W        W73269  43.353  32.948  13.309
  202W        W73270  21.494  31.884  11.166
  203W        W73271  25.979   0.267   4.246
  204W        W73272  26.426  25.543  12.452
  205W        W73273  36.380  22.479   0.408
  206W        W73274  35.485  20.107   3.796
  207W        W73275  19.351  44.226  14.531
  208W        W73276  36.347  36.607   2.650
  209W        W73277  21.833  33.346   0.401
  210W        W73278   7.489   9.773   3.379
  211W        W73279   8.368  33.132  11.695
  212W        W73280  26.198  40.089  14.073
  213W        W73281  32.948  32.464  12.452
  214W        W73282  18.955  27.441   2.254
  215W        W73283  22.570  39.552  10.659
  216W        W73284  26.008  31.050  13.855
  217W        W73285  33.925  19.847   0.639
  218W        W73286  13.721  18.574   4.546
  219W        W73287  11.284   5.677   1.233
  220W        W73288   4.225  44.308   4.114
  221W        W73289  31.674  39.387   4.561
  222W        W73290  15.163  42.926  11.155
  223W        W73291   0.364  10.265   3.916
  224W        W73292  27.307  11.232   2.640
  225W        W73293  11.332  20.766  10.615
  226W        W73294  33.458  28.730   4.139
  227W        W73295  26.022  43.931  12.524
  228W        W73296  12.293  30.889   0.017
  229W        W73297   6.444   9.957  11.604
  230W        W73298   9.329  11.907  10.688
  231W        W73299  23.486  25.611  12.853
  232W        W73300  18.692  29.160   4.674
  233W        W73301  17.296  11.300   4.687
  234W        W73302  26.965  16.349  14.443
  235W        W73303  11.416  41.931   0.335
  236W        W73304  15.616   6.191  12.463
  237W        W73305  17.741  31.950  13.795
  238W        W73306  36.120  38.368   0.659
  239W        W73307  17.138   9.877  14.003
  240W        W73308  15.651  32.211  14.741
  241W        W73309  25.684  41.822   0.535
  242W        W73310  33.502  42.404  12.804
  243W        W73311  40.480  29.506  13.005
  244W        W73312  13.876   1.007  14.631
  245W        W73313  37.563  32.486  12.164
  246W        W73314  20.525   1.345   1.050
  247W        W73315  22.999   0.413  12.415
  248W        W73316  31.173  27.986  12.928
  249W        W73317  20.593   2.187   2.302
  250W        W73318  25.275  39.920  10.661
  251W        W73319  26.830  21.148   2.822
  252W        W73320  23.129  26.595   1.970
  253W        W73321  20.268  11.356  14.386
  254W        W73322   1.816  16.246   0.454
  255W        W73323  20.137  39.822   4.607
  256W        W73324   6.222  41.338  13.716
  257W        W73325  27.146   2.800   4.014
  258W        W73326  32.898   9.518   0.352
  259W        W73327   1.573  38.939  14.460
  260W        W73328  44.585  36.632   1.745
  261W        W73329   4.599  18.062   5.058
  262W        W73330  16.174  24.172   2.951
  263W        W73331  11.261  39.319  11.566
  264W        W73332  20.208   1.917  12.367
  265W        W73333  15.145  25.780  12.991
  266W        W73334  25.558  44.432   3.171
  267W        W73335  30.471  23.376   0.366
  268W        W73336  16.871  39.271   2.332
  269W        W73337  32.461  21.203   0.684
  270W        W73338  39.462  26.432  13.338
  271W        W73339  35.837  17.692   0.077
  272W        W73340  30.063  14.774   1.357
  273W        W73341  38.503  20.043   4.079
  274W        W73342  42.547  35.872  14.395
  275W        W73343  15.677  31.797  12.543
  276W        W73344  16.045  42.822  13.502
  277W        W73345  38.968   5.843   2.415
  278W        W73346   0.311  25.003  12.641
  279W        W73347  42.410  31.387   1.744
  280W        W73348  44.406  23.277   3.343
  281W        W73349  23.755   4.467   1.188
  282W        W73350   1.343  19.085   1.395
  283W        W73351  16.243  38.939  14.927
  284W        W73352   1.481   4.382   4.921
  285W        W73353   7.620   9.367   1.896
  286W        W73354   4.271  35.412   3.278
  287W        W73355  42.872  10.715   2.717
  288W        W73356   2.725  31.713   3.216
  289W        W73357  10.280  35.392   2.533
  290W        W73358  37.317  25.023   4.328
  291W        W73359  24.957  21.609  13.324
  292W        W73360  23.654  25.645   4.914
  293W        W73361  42.910  38.684  13.770
  294W        W73362  33.748  41.964  12.938
  295W        W73363   4.585  14.866  10.123
  296W        W73364  29.652  31.214   0.708
  297W        W73365   6.460  43.975   4.314
  298W        W73366   5.801  37.042   0.378
  299W        W73367   9.859  41.324   4.248
  300W        W73368  21.751  14.703   2.410
  301W        W73369  20.830  23.553  11.548
  302W        W73370  12.370  26.967  11.098
  303W        W73371  15.737  11.449  11.146
  304W        W73372  33.339  13.649   1.549
  305W        W73373  25.720   4.870  11.952
  306W        W73374   5.125  37.801   1.183
  307W        W73375   7.750  38.807   2.821
  308W        W73376  24.549  44.416  12.935
  309W        W73377   1.379  21.692   3.620
  310W        W73378  19.011  35.156   3.719
  311W        W73379  22.509  26.006  12.020
  312W        W73380  38.570  40.357  11.998
  313W        W73381  27.646   7.934  13.304
  314W        W73382   0.496  41.016   0.699
  315W        W73383  43.394  17.745  14.800
  316W        W73384   7.153  41.850  11.261
  317W        W73385  18.319  12.250   1.941
  318W        W73386  26.210  10.473   2.343
  319W        W73387  16.054  40.841   0.465
  320W        W73388  27.024  11.129   0.731
  321W        W73389  20.101  15.037  14.958
  322W        W73390  33.885   7.961   3.626
  323W        W73391  37.729  21.520   2.242
  324W        W73392  33.511   5.919  12.454
  325W        W73393   4.675  24.228  12.439
  326W        W73394  22.494  44.932  14.787
  327W        W73395  20.185   9.880  12.100
  328W        W73396   3.947   7.701  11.197
  329W        W73397  12.332  29.237   0.782
  330W        W73398  43.069  25.176  11.961
  331W        W73399  23.706  27.709  13.462
  332W        W73400  26.889  38.353   4.523
  333W        W73401   4.739  14.807   0.171
  334W        W73402  38.294   2.447  13.792
  335W        W73403  36.639  32.510   4.316
  336W        W73404  39.028  35.347   4.879
  337W        W73405  31.964  39.365  12.419
  338W        W73406  12.616   2.039   1.610
  339W        W73407   5.796   6.912   2.273
  340W        W73408  17.860  31.082   0.858
  341W        W73409  34.107  38.960   0.037
  342W        W73410  34.925  14.851   4.684
  343W        W73411  39.521   7.417   1.996
  344W        W73412  35.916   0.493  11.188
  345W        W73413  30.568  24.346  11.457
  346W        W73414   6.927   7.778   1.975
  347W        W73415  12.129  17.300   2.435
  348W        W73416  16.837  41.364   1.516
  349W        W73417   4.503  44.465  13.453
  350W        W73418  18.267  29.019  13.239
  351W        W73419   0.971  15.755   2.052
  352W        W73420  21.136  17.098   0.577
  353W        W73421  13.452   8.156  13.500
  354W        W73422  22.582  35.310  14.455
  355W        W73423  26.611  29.353  10.359
  356W        W73424  39.785  25.650   0.816
  357W        W73425  44.690   8.952   3.626
  358W        W73426  13.304   0.111   1.784
  359W        W73427  28.266  30.091  10.735
  360W        W73428  34.899   6.951   0.836
  361W        W73429  25.557  42.503   1.680
  362W        W73430  12.424  11.117  11.051
  363W        W73431  41.346  29.971  14.513
  364W        W73432  15.002  41.480  11.216
  365W        W73433  14.396  10.100   2.834
  366W        W73434   4.841   5.870  13.029
  367W        W73435  42.304   8.296  10.383
  368W        W73436  18.015  11.664  14.539
  369W        W73437  37.980  40.925  11.536
  370W        W73438  22.507  30.174  13.406
  371W        W73439  44.600  34.394   2.560
  372W        W73440   2.992   8.873   1.181
  373W        W73441  13.717  31.460  13.270
  374W        W73442  43.465  40.376  14.361
  375W        W73443  15.390   8.318  12.527
  376W        W73444  15.449   4.316   0.012
  377W        W73445  43.813   1.697  12.655
  378W        W73446  32.470  27.639   1.672
  379W        W73447  34.076  43.829  13.861
  380W        W73448   3.098  21.581   2.703
  381W        W73449  14.152  10.353   3.248
  382W        W73450  32.188  20.044   2.202
  383W        W73451  29.407  37.804   4.590
  384W        W73452  26.606   6.805  11.550
  385W        W73453  26.657  13.245   3.207
  386W        W73454  26.165  40.216   3.321
  387W        W73455  32.986  42.289  13.888
  388W        W73456  42.275   7.762  13.099
  389W        W73457  44.412   6.773   0.451
  390W        W73458  14.859  12.614  11.556
  391W        W73459  12.484  19.698  11.728
  392W        W73460  42.723  11.631   2.186
  393W        W73461  27.280  21.510   4.521
  394W        W73462  21.954  35.170  12.853
  395W        W73463   2.318  41.571   1.692
  396W        W73464  37.956   1.480   2.286
  397W        W73465  23.254  19.761  12.511
  398W        W73466   7.284   6.484  13.754
  399W        W73467  44.524  16.533  11.566
  400W        W73468   6.977  23.996  11.991
  401W        W73469   0.490  18.253  12.128
  402W        W73470   5.503  19.237   0.302
  403W        W73471  19.709  22.154  14.855
  404W        W73472  33.371  21.260   0.293
  405W        W73473  27.908  11.631   4.184
  406W        W73474  11.314  10.604  14.757
  407W        W73475  15.573  15.271   3.236
  408W        W73476  44.674  39.799   2.631
  409W        W73477  19.338  39.929  14.382
  410W        W73478  37.836  16.294   4.673
  411W        W73479  14.340  42.353   1.841
  412W        W73480  10.972  12.633  11.099
  413W        W73481  20.542   8.550   4.564
  414W        W73482  35.998   4.389   2.244
  415W        W73483  35.819  10.736  13.075
  416W        W73484  38.850  13.114   3.812
  417W        W73485  34.261  43.340   0.693
  418W        W73486  39.408  37.815   3.085
  419W        W73487  12.395  13.665   4.234
  420W        W73488  37.990  20.758   0.487
  421W        W73489  41.265  44.241   0.759
  422W        W73490  31.006  22.784   4.616
  423W        W73491  25.908  35.162   1.914
  424W        W73492  37.629  15.771  14.322
  425W        W73493   9.321  22.080  14.002
  426W        W73494   1.384  20.827  14.550
  427W        W73495  28.998  16.509   4.066
  428W        W73496  10.796   5.222   3.739
  429W        W73497  32.444  35.910   0.987
  430W        W73498   1.157  41.729   1.418
  431W        W73499  30.217  37.508  11.558
  432W        W73500  13.457  24.494   0.734
  433W        W73501  25.779  44.961   4.640
  434W        W73502  11.334   1.338   1.309
  435W        W73503  26.934  28.101   2.880
  436W        W73504  35.635  36.081  11.102
  437W        W73505   2.263   3.889   3.599
  438W        W73506  26.268   9.667  14.982
  439W        W73507   7.637  28.569  13.173
  440W        W73508   9.086  40.356  13.366
  441W        W73509   7.857   7.327   1.766
  442W        W73510  22.747  33.411   2.257
  443W        W73511  34.842  41.501   0.163
  444W        W73512  23.136   2.696  11.940
  445W        W73513   6.163   2.627   0.339
  446W        W73514  40.049  38.611  10.706
  447W        W73515  41.903   5.816   3.398
  448W        W73516  36.846  22.835  11.970
  449W        W73517  31.709   7.143   1.394
  450W        W73518  27.659  22.652  12.267
  451W        W73519  14.843  35.486  11.895
  452W        W73520  29.139  41.507  13.328
  453W        W73521  35.520   2.462  13.586
  454W        W73522  10.868   2.425   2.892
  455W        W73523  22.693  42.742  11.578
  456W        W73524   3.434   7.174   2.443
  457W        W73525  42.296  23.387   2.146
  458W        W73526  25.380   1.797  12.112
  459W        W73527  13.819  36.324  11.568
  460W        W73528  17.017   5.324  13.425
  461W        W73529  13.329   9.267   2.359
  462W        W73530  40.458  31.020  10.782
  463W        W73531  32.467  22.173   4.369
  464W        W73532  16.150   2.411   3.780
  465W        W73533  36.731   9.361   4.566
  466W        W73534  17.133   0.472  11.013
  467W        W73535  34.417   1.347   2.886
  468W        W73536  12.389  34.535   4.226
  469W        W73537  29.012  24.024  14.786
  470W        W73538  13.530  39.099   1.694
  471W        W73539  12.177   0.302   3.968
  472W        W73540  38.990  25.893   0.775
  473W        W73541  30.459  30.677  11.413
  474W        W73542  28.498   4.674  12.535
  475W        W73543  13.861   0.783   4.062
  476W        W73544  42.478  29.176   2.920
  477W        W73545  40.485  27.141   1.357
  478W        W73546  31.821  33.425  14.336
  479W        W73547   8.308  21.039  12.040
  480W        W73548  20.723  31.055  10.806
  481W        W73549   8.790  41.321  10.143
  482W        W73550  39.609  22.903   0.035
  483W        W73551  15.231   6.333  14.789
  484W        W73552  15.253  38.339   2.898
  485W        W73553  21.483  22.555   3.159
  486W        W73554  15.257  11.155  10.736
  487W        W73555  36.591  40.308   0.315
  488W        W73556  18.122  13.568  12.425
  489W        W73557   0.654   5.323  13.415
  490W        W73558   7.167  30.114   1.203
  491W        W73559  36.803  15.712  12.886
  492W        W73560  35.313  15.582  12.079
  493W        W73561  34.153  42.424  14.410
  494W        W73562  20.703  22.386   3.665
  495W        W73563  44.942  28.042  13.141
  496W        W73564  33.239  40.582  10.010
  497W        W73565  19.711  12.116  12.084
  498W        W73566  30.163  37.125   4.636
  499W        W73567  26.246  44.357   4.737
  500W        W73568   6.160  40.634   3.312
  501W        W73569   9.437  22.228  14.924
  502W        W73570  21.210   3.717   1.933
  503W        W73571  18.408  14.741   2.696
  504W        W73572  39.159  24.087  11.239
  505W        W73573  17.847  11.194   4.738
  506W        W73574  31.792  10.657  13.764
  507W        W73575  37.470  16.556  13.378
  508W        W73576  40.938  17.719   2.347
  509W        W73577  21.536   2.933   0.428
  510W        W73578  11.979  42.520  11.680
  511W        W73579  12.764  40.824  12.751
  512W        W73580  39.284  37.911  12.892
  513W        W73581  16.058   6.495  11.830
  514W        W73582  32.030  28.405   0.489
  515W        W73583   3.428   6.359   4.563
  516W        W73584  32.108  26.435   2.694
  517W        W73585  29.967  22.544  14.155
  518W        W73586  39.421  37.331  10.432
  519W        W73587  44.930  19.785   1.260
  520W        W73588  44.744  22.643   0.295
  521W        W73589   9.671  43.924  12.860
  522W        W73590  18.587  37.946  14.291
  523W        W73591  10.805  35.915  11.392
  524W        W73592  42.870  22.013  10.700
  525W        W73593  23.816   6.348   4.680
  526W        W73594   6.427  33.542  11.188
  527W        W73595   2.412  42.429  10.610
  528W        W73596   7.639  41.798  14.125
  529W        W73597  12.732  42.313  14.231
  530W        W73598  19.933  31.413   3.668
  531W        W73599  26.478  20.415   1.787
  532W        W73600  25.573  32.878  11.215
  533W        W73601  40.028  14.725  12.335
  534W        W73602  11.898   1.812   2.396
  535W        W73603  23.774   4.225  11.433
  536W        W73604   8.361  41.445   4.896
  537W        W73605   0.461  39.426  14.783
  538W        W73606   3.755  38.585  14.271
  539W        W73607  24.172  18.248  10.529
  540W        W73608   5.820  16.191  13.765
  541W        W73609  32.962  10.845  12.072
  542W        W73610   5.891  26.282  13.706
  543W        W73611  40.300   6.168  11.474
  544W        W73612  22.773  15.259  12.381
  545W        W73613   0.962  29.966  13.001
  546W        W73614  43.450  34.881   4.868
  547W        W73615  21.311  27.743  13.594
  548W        W73616  39.242   5.984   1.626
  549W        W73617  33.130  26.294  10.729
  550W        W73618  43.179  40.835   0.266
  551W        W73619  26.449  38.371   3.549
  552W        W73620   6.906  14.198   4.452
  553W        W73621  27.052  18.245  14.560
  554W        W73622  39.863  30.385  12.145
  555W        W73623  19.725  18.159   1.810
  556W        W73624  30.046  38.630  11.424
  557W        W73625  16.148   8.767   0.195
  558W        W73626  33.265   1.924   3.505
  559W        W73627   4.046  38.523  14.801
  560W        W73628  32.905  22.837   1.260
  561W        W73629  38.286   4.754   3.574
  562W        W73630  27.372  10.362  10.551
  563W        W73631  35.338  44.400   9.785
  564W        W73632  16.207   4.845   3.552
  565W        W73633  40.479  38.469   2.864
  566W        W73634  15.868  22.093  13.952
  567W        W73635   1.232  10.604  10.680
  568W        W73636  42.718  13.134  14.989
  569W        W73637  43.468  10.359   4.118
  570W        W73638   8.926  10.760   3.694
  571W        W73639  18.720  38.548   1.925
  572W        W73640   4.315   6.986  10.630
  573W        W73641  38.772  24.573  14.369
  574W        W73642  28.656  24.260   3.623
  575W        W73643  22.101  27.660   1.029
  576W        W73644  11.333   6.730   2.163
  577W        W73645  27.059  23.658  10.535
  578W        W73646  39.852  21.550   4.434
  579W        W73647  40.978  38.791  11.539
  580W        W73648  19.544  40.499   1.821
  581W        W73649  36.932  11.620   2.977
  582W        W73650   2.033  13.160  11.498
  583W        W73651  40.895   6.617  12.094
  584W        W73652   7.934   5.651  13.141
  585W        W73653  12.022  18.716   5.152
  586W        W73654   8.446   5.863   2.511
  587W        W73655  38.021  40.501   1.859
  588W        W73656  19.747  15.587   3.312
  589W        W73657  22.016  10.214  14.035
  590W        W73658  13.904  14.897  10.749
  591W        W73659  43.893  24.686   4.256
  592W        W73660  14.102  21.068  14.439
  593W        W73661   7.555  26.544  12.550
  594W        W73662  30.379  33.428   3.369
  595W        W73663  42.596  23.801  13.131
  596W        W73664  23.687  36.937  10.742
  597W        W73665  16.401  25.126   4.073
  598W        W73666  19.303  38.495   3.719
  599W        W73667  23.556  13.216  14.843
  600W        W73668   9.237  38.527  11.125
  601W        W73669   0.983  34.074   3.616
  602W        W73670   1.021  12.363  11.165
  603W        W73671  10.626   3.692  13.992
  604W        W73672   7.239  27.143   3.931
  605W        W73673  44.785   2.125  14.924
  606W        W73674  30.016  32.499   4.892
  607W        W73675  12.794  11.803   4.547
  608W        W73676  21.762  27.183  11.086
  609W        W73677  18.801   9.655  12.105
  610W        W73678  28.684  40.770  13.437
  611W        W73679  35.107  38.586  11.657
  612W        W73680   5.478  41.726   2.305
  613W        W73681   6.338  12.647  11.426
  614W        W73682   6.442  13.746  12.139
  615W        W73683  38.991  13.175  12.640
  616W        W73684  22.209  34.697   4.409
  617W        W73685   7.698  13.868   4.235
  618W        W73686   8.182  34.027  10.607
  619W        W73687  37.554  31.020   2.209
  620W        W73688  32.385   3.642  14.450
  621W        W73689  42.842   9.918   1.849
  622W        W73690  27.502   3.204   0.794
  623W        W73691  39.902  26.924  12.942
  624W        W73692  44.388  26.077  14.570
  625W        W73693  28.776  30.527   2.392
  626W        W73694  22.991  29.063   3.152
  627W        W73695  19.102  38.029   3.858
  628W        W73696  32.900   3.797   3.113
  629W        W73697   0.545  40.612  10.775
  630W        W73698  37.528   0.481  12.785
  631W        W73699  41.714   4.707   1.405
  632W        W73700  40.956  15.841   9.757
  633W        W73701  21.294  40.400  13.502
  634W        W73702   1.257  42.199  12.362
  635W        W73703  38.130   5.490   3.065
  636W        W73704  39.505  23.523  10.671
  637W        W73705  34.295  12.894  13.875
  638W        W73706  13.573  10.206  13.626
  639W        W73707  27.278   5.206   0.972
  640W        W73708  15.110  15.176   3.437
  641W        W73709  33.923   9.714  11.127
  642W        W73710  11.517   1.455  10.719
  643W        W73711   8.298   5.007  12.924
  644W        W73712   6.726  20.219  10.482
  645W        W73713   5.310   3.314   4.766
  646W        W73714  30.635  29.757  10.531
  647W        W73715  36.535  15.850  14.788
  648W        W73716  34.110  34.880   4.349
  649W        W73717  23.788  24.359  11.751
  650W        W73718  35.648   6.384  13.495
  651W        W73719  12.144  15.369  13.127
  652W        W73720   2.987  39.381   1.180
  653W        W73721  43.572  32.112   2.753
  654W        W73722  22.718  38.816   3.035
  655W        W73723  30.911  25.546  14.745
  656W        W73724  24.617  41.621  14.478
  657W        W73725  31.474  13.784  12.600
  658W        W73726  29.654  36.606   3.403
  659W        W73727  34.012  22.721   3.840
  660W        W73728   1.173  33.073  12.930
  661W        W73729  43.026  33.037   3.688
  662W        W73730  28.597  42.844   4.295
  663W        W73731  23.660  22.149   3.649
  664W        W73732  12.825   6.162  12.605
  665W        W73733  20.956  41.414  11.898
  666W        W73734  27.689  13.252   3.383
  667W        W73735  35.901   0.852  14.818
  668W        W73736  18.098  23.447   1.025
  669W        W73737  40.554  21.648   1.846
  670W        W73738  26.740  20.990   0.966
  671W        W73739  14.622  16.136   0.723
  672W        W73740   9.705  13.347   4.521
  673W        W73741   0.532  38.963  12.459
  674W        W73742  42.831   8.626  12.564
  675W        W73743   6.941   4.140   0.099
  676W        W73744  41.463  24.051   3.991
  677W        W73745  44.350  22.525  14.469
  678W        W73746  44.759  13.415  10.716
  679W        W73747  11.077   9.614  14.835
  680W        W73748  10.854   0.549  12.110
  681W        W73749  28.454  43.514   2.258
  682W        W73750   8.681  14.083   3.334
  683W        W73751  31.367   9.226  14.510
  684W        W73752  17.642  12.644   3.845
  685W        W73753  21.160  26.318  13.576
  686W        W73754  17.068   1.083  13.564
  687W        W73755   2.473  26.645  11.131
  688W        W73756  40.963  17.700   2.861
  689W        W73757  33.444   0.771   2.010
  690W        W73758  40.538  20.621  11.448
  691W        W73759  23.783  25.576  10.530
  692W        W73760  36.511   0.884   4.477
  693W        W73761   7.456  15.663   3.897
  694W        W73762  22.573  22.459   4.529
  695W        W73763   4.870  27.942  10.474
  696W        W73764   5.269  31.210  12.157
  697W        W73765  42.044  18.610   0.259
  698W        W73766  44.083  12.812  14.951
  699W        W73767  29.054   0.922   0.858
  700W        W73768  31.912  19.507  13.397
  701W        W73769   9.990  32.581   2.828
  702W        W73770  10.332  12.311   3.270
  703W        W73771  25.205   9.676   2.189
  704W        W73772  26.565  27.781   2.349
  705W        W73773  34.933  20.228  12.653
  706W        W73774   5.666  38.002   2.212
  707W        W73775  23.196  32.412  10.742
  708W        W73776  10.488   8.195  14.764
  709W        W73777  31.911  11.777  14.973
  710W        W73778  41.954  44.274  11.992
  711W        W73779  20.148  44.231   2.178
  712W        W73780   5.338   9.793  12.297
  713W        W73781  37.989   8.989  14.015
  714W        W73782   4.284  24.407   1.301
  715W        W73783  35.231  22.186   0.766
  716W        W73784   8.922   2.692  11.053
  717W        W73785  20.167  33.887   4.892
  718W        W73786  11.827  23.971   4.758
  719W        W73787  20.046  34.398   3.594
  720W        W73788   3.684  34.455   1.896
  721W        W73789  31.358  24.666  13.891
  722W        W73790  42.357  16.088   3.666
  723W        W73791   0.216   6.940  11.623
  724W        W73792  19.585   0.612  14.040
  725W        W73793   0.322  41.888  11.405
  726W        W73794  12.068   3.864  14.988
  727W        W73795  13.981  20.924   5.058
  728W        W73796  31.933  11.241  10.762
  729W        W73797  38.827   8.246  11.090
  730W        W73798  12.447  36.557   4.135
  731W        W73799  15.941  10.473  10.277
  732W        W73800  17.657  37.567   2.194
  733W        W73801  19.664  34.627  11.146
  734W        W73802  44.537  10.673   3.317
  735W        W73803   2.298  41.734   3.210
  736W        W73804   3.794  15.870  14.029
  737W        W73805  10.765  14.364   0.333
  738W        W73806   0.223  23.924  12.093
  739W        W73807   9.723  36.434   3.495
  740W        W73808  19.713  20.770   4.544
  741W        W73809  39.751  37.142  11.156
  742W        W73810   0.331  23.214   2.288
  743W        W73811  27.690   1.405   0.849
  744W        W73812  25.073  24.148  11.210
  745W        W73813  22.189  24.227   1.915
  746W        W73814  43.269   3.545   0.025
  747W        W73815  15.331  24.801  12.400
  748W        W73816   2.680  18.303  11.848
  749W        W73817  35.302  16.663   0.337
  750W        W73818  17.629   3.189   1.083
  751W        W73819   1.888  19.058  10.727
  752W        W73820  33.541  25.969  14.375
  753W        W73821  18.059   4.145  13.016
  754W        W73822  26.536   0.523  10.774
  755W        W73823  13.695  43.473   1.719
  756W        W73824   8.448  10.486   0.275
  757W        W73825  41.308   8.645  10.581
  758W        W73826  43.393  29.885  14.809
  759W        W73827  11.771   0.460  10.600
  760W        W73828   3.433  38.706   0.473
  761W        W73829   9.679  29.766  14.366
  762W        W73830  15.487  11.677   3.830
  763W        W73831  23.419  10.778   4.593
  764W        W73832  20.374  20.061   3.562
  765W        W73833  30.559   4.345   3.251
  766W        W73834  35.158  11.856   0.065
  767W        W73835   3.154  26.602   1.406
  768W        W73836  32.968   9.103  11.245
  769W        W73837  32.660  18.260   3.613
  770W        W73838  27.695  44.193   3.725
  771W        W73839  16.560  15.718  14.874
  772W        W73840  40.515  43.162  11.613
  773W        W73841  18.236  41.692  13.362
  774W        W73842  10.760  12.733  11.572
  775W        W73843  28.436  31.309   3.674
  776W        W73844  26.298  18.245   4.341
  777W        W73845  18.468  17.398   4.068
  778W        W73846  33.723  37.100  14.705
  779W        W73847  41.577   0.999   4.788
  780W        W73848  36.444  18.551  10.962
  781W        W73849  31.812   0.916  12.193
  782W        W73850  37.458  36.146  14.480
  783W        W73851  35.954  10.569   1.246
  784W        W73852  13.868  25.884   0.882
  785W        W73853  26.990  30.096   1.013
  786W        W73854   3.447  42.844  12.987
  787W        W73855  14.718  21.432   3.857
  788W        W73856  31.210  16.093  12.948
  789W        W73857   1.517  20.771  13.335
  790W        W73858  22.201  31.576   3.281
  791W        W73859  38.857   4.912   2.737
  792W        W73860  36.894   5.988  14.452
  793W        W73861  43.495  44.521   0.849
  794W        W73862  28.924  19.238   3.160
  795W        W73863  32.043  19.203  14.604
  796W        W73864  13.196  11.101   4.522
  797W        W73865  39.122  33.129  12.490
  798W        W73866  14.321   5.952  12.396
  799W        W73867   1.514  16.868   3.906
  800W        W73868  34.671  42.853   4.148
  801W        W73869  31.664  36.761  12.351
  802W        W73870  24.533  16.085  10.424
  803W        W73871  20.311  24.639  14.589
  804W        W73872  26.505  25.490   3.425
  805W        W73873   4.767  20.657   3.307
  806W        W73874  14.081  15.706  11.935
  807W        W73875   3.746  20.510   3.752
  808W        W73876  44.939  25.518   3.390
  809W        W73877  29.507  34.901   0.233
  810W        W73878  22.975  40.476  10.652
  811W        W73879   2.767  25.081  14.947
  812W        W73880  37.964   1.174   1.478
  813W        W73881  20.300  26.710   1.845
  814W        W73882  33.915  35.672  13.910
  815W        W73883   7.601  30.639  11.073
  816W        W73884  29.419  44.975   2.763
  817W        W73885   0.798   0.352  12.164
  818W        W73886  30.677   2.412  13.404
  819W        W73887  30.645  33.275  12.572
  820W        W73888  41.474  43.201  14.817
  821W        W73889  24.983   3.009  14.996
  822W        W73890  39.592  40.341  14.879
  823W        W73891  44.708  36.858  11.195
  824W        W73892   6.138  40.103  11.947
  825W        W73893  20.812  37.367  13.100
  826W        W73894   6.238  10.551  13.573
  827W        W73895  13.704  25.120   4.186
  828W        W73896  44.449   6.683   2.315
  829W        W73897  38.287  34.449  11.103
  830W        W73898  26.927  24.308  11.191
  831W        W73899  28.893  19.137  13.489
  832W        W73900  19.482  41.005   4.417
  833W        W73901  29.684  26.228  14.935
  834W        W73902   0.448  14.278  13.428
  835W        W73903  18.735  21.764   3.127
  836W        W73904   4.442  35.884   3.220
  837W        W73905  12.279  22.606  13.607
  838W        W73906  39.020  12.361  14.027
  839W        W73907  13.353  11.841   0.866
  840W        W73908  19.018  42.241  11.851
  841W        W73909  33.714  18.043  10.648
  842W        W73910  18.579  13.313  11.077
  843W        W73911   9.311  43.979  13.654
  844W        W73912  32.011  31.441   1.021
  845W        W73913  21.479  40.614   0.894
  846W        W73914  35.958  42.109   2.205
  847W        W73915  20.307   0.767  12.918
  848W        W73916  29.124   8.909   2.638
  849W        W73917  34.417  31.437  12.468
  850W        W73918  27.539  40.788  10.939
  851W        W73919  24.079  17.238  10.868
  852W        W73920  33.201  18.633  11.101
  853W        W73921   9.099  32.950  11.998
  854W        W73922   4.278   7.715   4.020
  855W        W73923   6.791  21.916  10.488
  856W        W73924  14.382  16.358  13.358
  857W        W73925   9.110  40.751  10.292
  858W        W73926  13.155  43.893   1.404
  859W        W73927   8.386  34.078   1.964
  860W        W73928  36.003  24.995  14.780
  861W        W73929  10.054  29.432  11.601
  862W        W73930   9.768  20.172  12.651
  863W        W73931  22.261  14.778  11.985
  864W        W73932  26.025  36.986   2.249
  865W        W73933  41.203  40.008   4.561
  866W        W73934   9.893  31.387   4.325
  867W        W73935  15.761   8.072   2.166
  868W        W73936  23.233  23.118  12.037
  869W        W73937  20.487   8.702  13.166
  870W        W73938   6.223  41.666   2.666
  871W        W73939   4.318  39.043  11.925
  872W        W73940  24.143  23.659   2.363
  873W        W73941   6.743  41.351  14.810
  874W        W73942   7.760  24.926  12.453
  875W        W73943  38.546  27.365  14.519
  876W        W73944  33.071  36.093   4.623
  877W        W73945  40.898  20.485   0.443
  878W        W73946  26.822   1.693   3.329
  879W        W73947  34.984  14.692  14.690
  880W        W73948   3.986  15.252   0.857
  881W        W73949   7.784  33.136   4.199
  882W        W73950  36.557   4.331  11.554
  883W        W73951  15.272   1.559   4.704
  884W        W73952  12.691  25.631   3.772
  885W        W73953  26.067   0.370   3.730
  886W        W73954  35.850  12.427  14.304
  887W        W73955  15.385  34.558  12.031
  888W        W73956   4.829  34.401  11.642
  889W        W73957  26.692  41.195   0.294
  890W        W73958   4.325  42.130  12.135
  891W        W73959   3.123  10.276  12.517
  892W        W73960  29.005   6.430  10.529
  893W        W73961  44.829  30.449   0.343
  894W        W73962  44.289   3.497  11.508
  895W        W73963  10.592  27.957   2.872
  896W        W73964  18.250  20.106   0.587
  897W        W73965   5.456   4.381  14.961
  898W        W73966  41.548   2.451  10.778
  899W        W73967  17.596  15.709  11.560
  900W        W73968   1.962  19.715   0.261
  901W        W73969  25.024  38.585   2.796
  902W        W73970  10.322   5.390  12.159
  903W        W73971  39.511  39.516   1.925
  904W        W73972  19.092  28.892   4.451
  905W        W73973  31.465  22.254   4.198
  906W        W73974  36.845   6.307   1.721
  907W        W73975   5.195   2.932  12.161
  908W        W73976  15.309   8.929  11.794
  909W        W73977  40.549  31.406   4.123
  910W        W73978  17.245  10.457   2.782
  911W        W73979   2.753  16.552  12.523
  912W        W73980  21.744  42.977   4.294
  913W        W73981  27.343  10.479  13.842
  914W        W73982   0.921   5.161  14.923
  915W        W73983   4.110  13.237  11.694
  916W        W73984   1.911  22.963  14.892
  917W        W73985   8.248   9.196   3.157
  918W        W73986  28.889  27.193  12.453
  919W        W73987   9.918  32.944   0.373
  920W        W73988  20.740  44.089  12.906
  921W        W73989  41.452  28.608   0.205
  922W        W73990  28.867   0.549  13.127
  923W        W73991   8.744  20.389  14.122
  924W        W73992  26.938  27.597  14.725
  925W        W73993  18.974  13.057  10.888
  926W        W73994  43.462  17.423  12.419
  927W        W73995  34.244  36.627  11.921
  928W        W73996  41.392  22.079   1.761
  929W        W73997  29.257  24.426   2.422
  930W        W73998  38.271   4.315  14.853
  931W        W73999  18.247  17.721  10.725
  932W        W74000   0.663  25.279  12.352
  933W        W74001  24.641  38.859  11.163
  934W        W74002  37.430  42.117  10.644
  935W        W74003   0.971  18.736   2.772
  936W        W74004  14.687  17.514  11.550
  937W        W74005   1.890  21.039   1.392
  938W        W74006  10.358  30.838   2.730
  939W        W74007   3.161  25.284   5.220
  940W        W74008  36.990  11.684  13.871
  941W        W74009  29.088  39.512  14.771
  942W        W74010  30.403  39.985  10.979
  943W        W74011  38.355  37.991  11.628
  944W        W74012  36.062  27.258  12.463
  945W        W74013  34.393  18.215  12.977
  946W        W74014   0.953  27.225  10.749
  947W        W74015  25.345   6.150  11.922
  948W        W74016  18.626   0.355   2.355
  949W        W74017  26.167  33.535  10.758
  950W        W74018  37.964  21.651   1.425
  951W        W74019   6.269  18.154  11.396
  952W        W74020  41.325  44.701  10.514
  953W        W74021   6.180  10.219   0.454
  954W        W74022  20.672  28.957  12.345
  955W        W74023  44.677  36.401   2.754
  956W        W74024  28.627  11.119   1.253
  957W        W74025   7.940  31.405   4.556
  958W        W74026   3.854  43.297   3.947
  959W        W74027  35.111  24.782  14.028
  960W        W74028  11.194  25.900   3.153
  961W        W74029  43.004  21.018  14.998
  962W        W74030  16.624  32.910  13.604
  963W        W74031  42.228   3.629  11.651
  964W        W74032   3.489   7.276  12.604
  965W        W74033  42.155  16.070   4.896
  966W        W74034  10.078   2.474   0.268
  967W        W74035  28.134   4.432   2.743
  968W        W74036  42.530  13.247   2.836
  969W        W74037  39.279  10.872  13.991
  970W        W74038  18.820  23.307   1.106
  971W        W74039  23.127  40.487   3.044
  972W        W74040  29.108  38.850  10.141
  973W        W74041  20.330  32.404  11.738
  974W        W74042  18.014  26.943   3.579
  975W        W74043  44.039  16.728  13.930
  976W        W74044  43.183  41.989  14.012
  977W        W74045  30.566  31.136  11.727
  978W        W74046   7.872  31.943   1.033
  979W        W74047  30.062  25.770  14.293
  980W        W74048  10.807  15.264  13.344
  981W        W74049  36.952  33.178  13.492
  982W        W74050   6.262  25.928  11.670
  983W        W74051   4.502   9.920  13.833
  984W        W74052  27.579  20.687   2.451
  985W        W74053  43.425   3.827  11.027
  986W        W74054   7.071  31.958   4.695
  987W        W74055  10.400  33.868  12.521
  988W        W74056  10.695   8.159   4.720
  989W        W74057  30.336  11.621   4.191
  990W        W74058   8.471   9.561  13.013
  991W        W74059  22.719  19.133   1.727
  992W        W74060  12.987  27.152   1.323
  993W        W74061  37.813  28.141   1.250
  994W        W74062  34.412  31.219   2.784
  995W        W74063   6.242  18.631   0.324
  996W        W74064   1.293   2.463  13.467
  997W        W74065  32.007  17.682   0.752
  998W        W74066  38.722  18.879   5.013
  999W        W74067  23.262  11.392   0.908
 1000W        W74068  30.108  18.092   2.876
 1001W        W74069  13.742  13.857   2.357
 1002W        W74070  26.518  18.322  13.007
 1003W        W74071  38.369  32.829  13.448
 1004W        W74072  32.615  24.590   0.793
 1005W        W74073  29.367  30.512   3.249
 1006W        W74074  43.020  22.995  13.967
 1007W        W74075   7.521  26.487   0.295
 1008W        W74076  36.116  40.221  12.058
 1009W        W74077  28.556  17.525  13.878
 1010W        W74078  36.189  42.516  13.817
 1011W        W74079   1.986  22.517   4.632
 1012W        W74080   2.376   7.916   1.869
 1013W        W74081  40.811  35.050  11.664
 1014W        W74082  34.533  12.082  14.468
 1015W        W74083  35.541  32.308   1.241
 1016W        W74084  33.972   4.968   2.325
 1017W        W74085  34.713  25.485   1.813
 1018W        W74086  36.666  31.925  10.610
 1019W        W74087  41.495  24.000   2.447
 1020W        W74088  24.260  21.348   4.832
 1021W        W74089  36.062   6.713   4.516
 1022W        W74090  31.539  12.708  13.275
 1023W        W74091   1.639  31.399  11.172
 1024W        W74092   6.164  14.063  11.149
 1025W        W74093   6.244  31.096   4.319
 1026W        W74094  34.020   2.091   3.620
 1027W        W74095  43.777  33.466   2.694
 1028W        W74096   3.428  39.889  13.917
 1029W        W74097  23.523  14.151  14.794
 1030W        W74098  38.271  32.030  14.763
 1031W        W74099   4.290  20.356   3.312
 1032W        W74100   5.756   8.981  10.397
 1033W        W74101   3.103   5.659  14.465
 1034W        W74102  41.495   1.894   0.910
 1035W        W74103  16.619  40.028   1.924
 1036W        W74104   0.041   7.356   1.831
 1037W        W74105  14.628  23.181   0.212
 1038W        W74106  38.611  29.885  10.530
 1039W        W74107  43.722  33.565   3.793
 1040W        W74108  11.283  17.813   1.757
 1041W        W74109  18.762   3.205  11.553
 1042W        W74110  37.363  30.999   2.998
 1043W        W74111  19.072  13.593   1.421
 1044W        W74112   7.214  25.081   1.439
 1045W        W74113   7.266  28.255   0.898
 1046W        W74114  16.592  40.469  10.778
 1047W        W74115   4.259  11.956  11.468
 1048W        W74116  38.931   0.919  10.575
 1049W        W74117  29.549  34.582  10.280
 1050W        W74118  12.251  34.558  13.610
 1051W        W74119   9.965  22.193  14.847
 1052W        W74120  41.854  17.712   2.245
 1053W        W74121   6.803  35.610  13.407
 1054W        W74122   0.972   1.296  13.967
 1055W        W74123  44.625   4.684  14.001
 1056W        W74124  12.600  19.054   0.910
 1057W        W74125  20.535  19.042  11.109
 1058W        W74126  35.181  31.411  12.156
 1059W        W74127  30.446  40.752  14.000
 1060W        W74128  17.565  10.180  14.565
 1061W        W74129  16.275   9.358  14.499
 1062W        W74130  17.256  11.153  10.757
 1063W        W74131  16.286  44.516  11.916
 1064W        W74132   5.988   8.632   4.811
 1065W        W74133  31.643   3.941  11.990
 1066W        W74134   8.884  44.818  12.402
 1067W        W74135  11.084  34.606   3.181
 1068W        W74136  34.317  23.178   0.967
 1069W        W74137  30.875   9.672  14.478
 1070W        W74138   0.844  44.884   4.368
 1071W        W74139  28.670  22.523   3.661
 1072W        W74140  15.208  31.950  14.789
 1073W        W74141   1.818  37.346  12.523
 1074W        W74142  10.144  38.879   5.105
 1075W        W74143  21.237  23.732  10.215
 1076W        W74144   1.697  12.893  11.896
 1077W        W74145  36.004   8.013  14.815
 1078W        W74146  38.944  22.747   2.120
 1079W        W74147  28.645   5.752  13.885
 1080W        W74148   2.018  20.658   0.767
 1081W        W74149  15.154  29.440  10.863
 1082W        W74150  33.950  38.752  14.056
 1083W        W74151  20.684  10.131  10.807
 1084W        W74152  26.036  26.565   4.147
 1085W        W74153  35.452  22.123  13.523
 1086W        W74154   8.343   7.168   1.530
 1087W        W74155   0.295  43.265   1.895
 1088W        W74156  40.415  10.342   1.533
 1089W        W74157   1.235  25.556   4.227
 1090W        W74158   1.986   1.758   1.836
 1091W        W74159  43.991   4.917   2.689
 1092W        W74160  41.273  21.246  11.577
 1093W        W74161  17.707  12.666  14.956
 1094W        W74162   9.417   1.992   1.570
 1095W        W74163  34.265  24.214  13.966
 1096W        W74164  42.079  26.388   2.732
 1097W        W74165   9.687  30.225  11.881
 1098W        W74166  36.464  11.722   2.144
 1099W        W74167  36.661  41.500  13.949
 1100W        W74168  30.491  19.817   0.311
 1101W        W74169   8.225  20.234   2.349
 1102W        W74170  28.166  37.133  12.423
 1103W        W74171  39.745  14.226   2.217
 1104W        W74172  43.244  13.583  14.467
 1105W        W74173  29.865  15.170  13.083
 1106W        W74174  31.637  17.211  14.485
 1107W        W74175  33.520  30.934  13.597
 1108W        W74176  37.807  34.105  13.355
 1109W        W74177   2.350  14.573  11.971
 1110W        W74178  21.410  16.087   1.620
 1111W        W74179   9.784   9.900   4.714
 1112W        W74180  18.239  29.657   4.171
 1113W        W74181  14.121  17.213  13.955
 1114W        W74182  39.848  21.772   3.598
 1115W        W74183  14.180  31.462  13.846
 1116W        W74184   2.284  24.960   3.744
 1117W        W74185  10.300  10.004  10.192
 1118W        W74186  18.062  31.663   3.381
 1119W        W74187  35.017  32.418   3.171
 1120W        W74188  33.399  11.818   1.926
 1121W        W74189   5.469  25.110   0.787
 1122W        W74190   3.945  36.177  14.697
 1123W        W74191  32.597  27.182   1.457
 1124W        W74192   5.345   3.316  10.813
 1125W        W74193  37.463   6.161   0.807
 1126W        W74194  20.822  33.397   0.409
 1127W        W74195  15.363  28.937   1.255
 1128W        W74196  24.039   9.878   0.925
 1129W        W74197  39.834  10.775   2.226
 1130W        W74198  12.183  42.279   3.701
 1131W        W74199  31.230  31.902   4.662
 1132W        W74200   2.628   9.291  13.085
 1133W        W74201  26.448  40.314  11.400
 1134W        W74202  42.756  41.716  13.802
 1135W        W74203   1.940  12.141   0.748
 1136W        W74204  24.687  19.693  12.513
 1137W        W74205  42.460   6.737  12.079
 1138W        W74206   8.209  20.051  14.016
 1139W        W74207  22.201  19.786   1.159
 1140W        W74208  26.716   6.354   0.428
 1141W        W74209  14.515  27.678   2.443
 1142W        W74210  36.401  14.168   4.639
 1143W        W74211   3.301  25.729   0.754
 1144W        W74212  31.546   1.717  13.609
 1145W        W74213   8.223  33.396   4.224
 1146W        W74214  11.130  17.696  14.440
 1147W        W74215  43.027  27.627  10.769
 1148W        W74216  27.674  16.977   2.365
 1149W        W74217  30.821  32.388   3.245
 1150W        W74218  10.113  13.927  10.399
 1151W        W74219   7.247  39.431   1.194
 1152W        W74220  30.302  20.981  12.909
 1153W        W74221  10.136   9.777   0.965
 1154W        W74222  34.984  15.779  11.566
 1155W        W74223   3.792   8.823   1.760
 1156W        W74224  44.752  37.355  14.411
 1157W        W74225  36.739  40.912   1.860
 1158W        W74226  18.477  23.102  11.641
 1159W        W74227   5.497  23.603  10.767
 1160W        W74228  32.546  39.477   3.052
 1161W        W74229  41.875  37.917  13.203
 1162W        W74230  21.708   8.025  12.924
 1163W        W74231  27.619  35.335  13.041
 1164W        W74232   6.625  11.603  14.894
 1165W        W74233  43.447  15.185  14.246
 1166W        W74234  25.427  31.944   2.722
 1167W        W74235  40.420  42.744   4.618
 1168W        W74236  15.568   7.399   2.004
 1169W        W74237  40.076  33.126  11.483
 1170W        W74238  26.968  14.589  11.987
 1171W        W74239  39.020   0.734   2.613
 1172W        W74240   5.800  32.313   4.180
 1173W        W74241  12.264  32.112  14.369
 1174W        W74242  18.460  34.871  11.454
 1175W        W74243   3.140   1.788   2.135
 1176W        W74244  12.206  29.926   4.436
 1177W        W74245  24.288   0.810   9.985
 1178W        W74246  21.984   3.809  11.703
 1179W        W74247   7.548  36.007  10.732
 1180W        W74248  37.465  32.155  11.049
 1181W        W74249   8.448  12.306  12.237
 1182W        W74250  14.782  36.119  10.552
 1183W        W74251  44.448  33.390   0.754
 1184W        W74252  41.738  12.241  14.756
 1185W        W74253   8.577  31.068   4.073
 1186W        W74254  20.574  20.672  14.811
 1187W        W74255   7.843  15.295  14.397
 1188W        W74256  44.949  35.861  13.148
 1189W        W74257  17.582  29.396  12.150
 1190W        W74258  22.465  30.541   3.176
 1191W        W74259  19.295   8.758  14.488
 1192W        W74260  34.073  24.157   3.336
 1193W        W74261  37.844   0.855  14.525
 1194W        W74262  39.069  20.506   1.290
 1195W        W74263   4.956  39.470  13.459
 1196W        W74264  26.053  23.671   1.007
 1197W        W74265  29.132   2.763   4.265
 1198W        W74266  41.845  22.818  12.893
 1199W        W74267   1.879   5.746   0.404
 1200W        W74268  44.936  42.600   1.768
 1201W        W74269  10.942  44.570  13.750
 1202W        W74270  17.343   9.285  13.925
 1203W        W74271  41.794  12.076  13.415
 1204W        W74272  41.308  23.367   4.691
 1205W        W74273  11.877  22.850   3.616
 1206W        W74274  30.377  11.839   0.783
 1207W        W74275  42.285  39.325  11.611
 1208W        W74276  35.462  28.239  11.987
 1209W        W74277   6.001  44.010   4.083
 1210W        W74278  33.403  36.210   2.444
 1211W        W74279  38.710  19.172   2.726
 1212W        W74280  36.417  19.624  13.918
 1213W        W74281   9.734  42.089  14.027
 1214W        W74282  36.083  32.997  12.635
 1215W        W74283  33.946  32.479   0.449
 1216W        W74284  39.413  22.770  13.892
 1217W        W74285  29.977   5.449  14.039
 1218W        W74286  29.753   4.355  12.681
 1219W        W74287  11.196  11.217   4.657
 1220W        W74288   0.277  40.514  11.631
 1221W        W74289   9.397  29.659  13.494
 1222W        W74290   9.692  40.324   1.132
 1223W        W74291  27.731   8.615   3.317
 1224W        W74292  31.606   3.437   3.346
 1225W        W74293  15.268  39.235  12.762
 1226W        W74294   9.068  30.941   0.127
 1227W        W74295  26.736   0.536  12.510
 1228W        W74296  15.142  18.234   3.235
 1229W        W74297  25.236  24.494   1.444
 1230W        W74298  25.930   7.761   1.228
 1231W        W74299   9.555  32.359  11.965
 1232W        W74300  31.226  38.403   3.412
 1233W        W74301  14.283  15.293  10.633
 1234W        W74302  34.038  20.996  11.683
 1235W        W74303  44.301  23.241  12.631
 1236W        W74304   8.439  17.309   0.641
 1237W        W74305  11.898  28.067  14.895
 1238W        W74306  27.700  29.659   3.168
 1239W        W74307   0.347  30.345   4.622
 1240W        W74308  40.653  23.810  12.035
 1241W        W74309  16.321  38.669  14.409
 1242W        W74310  38.142  16.403   2.719
 1243W        W74311  19.776  16.971  14.896
 1244W        W74312  30.780  22.014   3.552
 1245W        W74313  20.676  31.221   3.679
 1246W        W74314  33.124  12.268  12.405
 1247W        W74315  31.610  15.366   1.373
 1248W        W74316   9.411  27.300  12.112
 1249W        W74317  31.998  13.990   1.240
 1250W        W74318   4.794  10.595   0.446
 1251W        W74319  41.500  37.948  14.832
 1252W        W74320  42.345   0.721  11.785
 1253W        W74321  40.692  29.617  14.885
 1254W        W74322   9.177  36.044   4.995
 1255W        W74323  43.460  20.681   1.158
 1256W        W74324  24.620  43.243  11.229
 1257W        W74325  23.245  40.994  11.477
 1258W        W74326  42.083  33.007  10.803
 1259W        W74327  36.016  34.328   3.851
 1260W        W74328  29.351  22.127   4.699
 1261W        W74329  43.746  23.584   2.119
 1262W        W74330  31.454  41.240   3.427
 1263W        W74331  12.037   6.742   1.262
 1264W        W74332   6.959  34.251  11.575
 1265W        W74333  44.804  37.048  10.712
 1266W        W74334   7.659  30.973   4.480
 1267W        W74335   0.973  12.593  14.934
 1268W        W74336  19.342   1.221   0.138
 1269W        W74337  10.723  43.525  10.946
 1270W        W74338  31.039  38.481   4.320
 1271W        W74339  20.154   0.496  11.162
 1272W        W74340  24.133  32.750  13.410
 1273W        W74341  23.027  41.804   2.396
 1274W        W74342   3.241  18.909   0.461
 1275W        W74343   8.860  43.920   1.799
 1276W        W74344  29.050  38.616   0.760
 1277W        W74345  11.724  37.887   1.639
 1278W        W74346   2.975  17.657  11.472
 1279W        W74347  29.615  11.880  13.542
 1280W        W74348  32.006   0.228  14.895
 1281W        W74349  14.013  34.558   1.925
 1282W        W74350  34.090  30.298  13.307
 1283W        W74351   5.279  11.115  14.803
 1284W        W74352  17.070  38.496  13.953
 1285W        W74353  27.388  27.114   2.841
 1286W        W74354   4.289  28.139  10.760
 1287W        W74355  21.064  25.618   0.303
 1288W        W74356  40.354  39.825  13.334
 1289W        W74357  44.043  38.509  14.497
 1290W        W74358  17.684  43.992  14.385
 1291W        W74359  23.352  22.174   4.046
 1292W        W74360   5.510  36.549   1.050
 1293W        W74361   0.397  18.599   0.622
 1294W        W74362   1.492  34.472  11.162
 1295W        W74363  27.500  27.624   1.802
 1296W        W74364  18.782  31.897  12.497
 1297W        W74365  38.391   1.908  11.227
 1298W        W74366  17.156  12.730   0.697
 1299W        W74367  10.680  30.929   3.954
 1300W        W74368   3.828  34.616  13.849
 1301W        W74369  14.091  40.139  10.748
 1302W        W74370  10.745  15.030  11.652
 1303W        W74371  34.186  14.798  11.088
 1304W        W74372  23.156  34.970  13.617
 1305W        W74373  36.361  36.632   4.959
 1306W        W74374   5.344  42.958   3.554
 1307W        W74375  38.397  33.922  11.463
 1308W        W74376   8.336  22.448   2.904
 1309W        W74377  41.375  21.744   3.592
 1310W        W74378  29.507  25.520  10.844
 1311W        W74379  16.292  32.059  13.310
 1312W        W74380  23.568  21.568   1.726
 1313W        W74381   2.784  17.432  13.969
 1314W        W74382  25.664  33.459  13.807
 1315W        W74383  27.149   2.750   1.906
 1316W        W74384  23.721  13.656  13.425
 1317W        W74385   1.466  37.517   0.702
 1318W        W74386   2.519  34.485  11.020
 1319W        W74387  23.262  44.375   3.665
 1320W        W74388  30.010   6.386   1.329
 1321W        W74389  14.224  12.878   1.454
 1322W        W74390  10.700   6.907  14.521
 1323W        W74391  18.129  36.384   4.491
 1324W        W74392  30.993   8.897  14.366
 1325W        W74393   3.128  14.033   0.441
 1326W        W74394  33.078   5.929  10.732
 1327W        W74395   9.998  24.494  11.793
 1328W        W74396  29.124  44.211   3.308
 1329W        W74397  29.100   2.100   1.671
 1330W        W74398  13.331  29.926   0.904
 1331W        W74399  23.627  24.754  14.403
 1332W        W74400  29.633  44.843   3.383
 1333W        W74401  26.601  37.099  13.909
 1334W        W74402  29.386   3.410   1.350
 1335W        W74403  42.651  10.236  13.806
 1336W        W74404  29.476  40.908  13.001
 1337W        W74405  28.911  12.228  13.884
 1338W        W74406  17.178  21.813  13.822
 1339W        W74407   5.396   6.409  14.712
 1340W        W74408  27.863  33.876  10.661
 1341W        W74409  34.077  42.511   3.419
 1342W        W74410  44.839   3.735  11.732
 1343W        W74411   8.966   7.395  13.868
 1344W        W74412  34.561   4.687   4.167
 1345W        W74413  32.153  16.355  11.077
 1346W        W74414  20.551  35.551   2.764
 1347W        W74415  12.006   4.884  11.558
 1348W        W74416  32.614  13.819  13.795
 1349W        W74417   2.271  17.255   1.869
 1350W        W74418  27.242  31.467   1.137
 1351W        W74419  27.260   6.694   0.959
 1352W        W74420  20.774  33.510   3.994
 1353W        W74421   7.336  14.114  13.988
 1354W        W74422  19.899  23.168  13.713
 1355W        W74423  10.855   7.625   0.180
 1356W        W74424  17.495   3.529  13.875
 1357W        W74425  37.043  12.230   0.516
 1358W        W74426  35.185  12.324   3.280
 1359W        W74427  35.940   3.704   4.638
 1360W        W74428  20.529  29.670   3.832
 1361W        W74429   2.189  16.582  11.096
 1362W        W74430   6.034  29.068   2.858
 1363W        W74431   3.161  27.649  14.901
 1364W        W74432   9.218  35.920  11.840
 1365W        W74433  42.060  39.704   0.445
 1366W        W74434   8.716   1.935  13.319
 1367W        W74435  35.297  12.734  11.170
 1368W        W74436  26.087  42.381  14.439
 1369W        W74437   1.491   2.315   4.514
 1370W        W74438  27.456  40.733   3.673
 1371W        W74439   2.789  15.066  11.480
 1372W        W74440  37.296  42.452   3.751
 1373W        W74441  29.816  32.145  11.130
 1374W        W74442  36.600  26.605  12.353
 1375W        W74443  32.272   2.960   0.577
 1376W        W74444   1.868   2.151  12.347
 1377W        W74445  41.590  19.614  13.402
 1378W        W74446  24.195   7.888  12.675
 1379W        W74447  25.078  40.415   1.548
 1380W        W74448  29.574  40.566  12.595
 1381W        W74449  16.605  38.775   1.465
 1382W        W74450   1.387   8.412   1.444
 1383W        W74451  29.617   7.692  14.211
 1384W        W74452  35.916  43.812   3.732
 1385W        W74453  33.535  17.087   4.105
 1386W        W74454  30.370   2.260   1.161
 1387W        W74455  15.058  30.418   4.580
 1388W        W74456  16.307  17.849  14.964
 1389W        W74457  24.636   6.652  13.039
 1390W        W74458  27.672   1.070  10.733
 1391W        W74459   3.196  30.560  13.308
 1392W        W74460  28.952   3.667  12.917
 1393W        W74461  24.452  14.632   0.945
 1394W        W74462  32.912  10.178  13.443
 1395W        W74463  18.348   9.106  11.508
 1396W        W74464  41.925  16.264  13.463
 1397W        W74465  23.161   5.668  14.553
 1398W        W74466   3.763  13.286   4.199
 1399W        W74467  13.531   3.763  11.246
 1400W        W74468  22.757  35.857   0.699
 1401W        W74469  27.381  39.345   1.952
 1402W        W74470   3.548  34.937   3.252
 1403W        W74471  27.705  32.766   0.062
 1404W        W74472  26.679  20.533  14.908
 1405W        W74473  30.565  35.044   3.670
 1406W        W74474  21.144   8.042  10.817
 1407W        W74475  31.114  34.165   4.156
 1408W        W74476  10.670  11.343  10.854
 1409W        W74477   0.873  12.707  10.324
 1410W        W74478   5.231  11.770  12.458
 1411W        W74479   1.408  24.287  15.000
 1412W        W74480  17.351   1.990  11.242
 1413W        W74481  20.310  14.176   0.946
 1414W        W74482  24.663   8.611   3.616
 1415W        W74483  15.810  14.251  12.885
 1416W        W74484  18.066  28.878   2.883
 1417W        W74485  12.285  41.455   4.920
 1418W        W74486  33.875   3.454  13.388
 1419W        W74487   3.289  30.367   1.901
 1420W        W74488  34.099   9.369   3.330
 1421W        W74489   7.797  27.696  13.356
 1422W        W74490   2.343  34.910   0.513
 1423W        W74491  42.052   9.883   2.219
 1424W        W74492  10.165  18.735   0.276
 1425W        W74493  16.269  44.416  13.633
 1426W        W74494  36.633  14.037   3.829
 1427W        W74495  28.503  41.058  12.928
 1428W        W74496  15.771  29.878  11.125
 1429W        W74497   8.441  42.841   4.130
 1430W        W74498  15.907   6.414  14.953
 1431W        W74499  16.340  20.706   2.405
 1432W        W74500  33.010  36.532   1.961
 1433W        W74501  38.083  30.913  14.983
 1434W        W74502  18.346   3.525  11.078
 1435W        W74503  15.879  12.404  10.971
 1436W        W74504  19.692  41.707  10.676
 1437W        W74505  26.846   2.414   1.632
 1438W        W74506  35.530   1.890  11.217
 1439W        W74507  16.656   3.380  11.694
 1440W        W74508  20.641   2.703   2.279
 1441W        W74509   0.015  14.719   4.042
 1442W        W74510  41.755  16.043   3.453
 1443W        W74511  28.729  36.359   0.786
 1444W        W74512  16.634  26.731   1.857
 1445W        W74513   1.811  34.071  14.952
 1446W        W74514  31.031   5.411  14.250
 1447W        W74515  29.916  22.857  13.226
 1448W        W74516  13.204  42.347  14.794
 1449W        W74517  17.273  32.162  11.297
 1450W        W74518   9.244  31.560   1.040
 1451W        W74519  20.261  43.918   4.802
 1452W        W74520   3.507  13.603   0.617
 1453W        W74521  30.490  11.650   1.274
 1454W        W74522   3.809   8.241  12.506
 1455W        W74523   2.126  29.496  10.981
 1456W        W74524  42.176   5.568  12.324
 1457W        W74525   7.180  23.758  13.304
 1458W        W74526  24.232   4.357  10.513
 1459W        W74527  15.200   8.834  12.751
 1460W        W74528  40.026  35.833   3.112
 1461W        W74529  31.379  19.785   3.085
 1462W        W74530  18.079   1.565  11.688
 1463W        W74531  40.937  17.763  10.887
 1464W        W74532  31.586   7.446   2.393
 1465W        W74533  11.363  28.481   2.203
 1466W        W74534   3.984   3.255  11.967
 1467W        W74535  40.742  40.525  11.150
 1468W        W74536   7.859  39.505  14.948
 1469W        W74537  37.602  23.638  10.512
 1470W        W74538   8.249  29.816  14.786
 1471W        W74539   2.323   1.784   4.198
 1472W        W74540   9.835  36.349   1.285
 1473W        W74541  24.435  16.610  12.544
 1474W        W74542   0.840   9.170   3.123
 1475W        W74543  21.787  29.812   2.283
 1476W        W74544   0.910  32.697  14.375
 1477W        W74545   5.798  23.991  14.329
 1478W        W74546  33.969   8.071   2.745
 1479W        W74547  19.901  11.238   2.264
 1480W        W74548  20.041  24.548   0.987
 1481W        W74549   5.196  17.816  13.650
 1482W        W74550   3.162  31.434   0.445
 1483W        W74551  26.388   2.645  14.715
 1484W        W74552   4.703   2.245  12.524
 1485W        W74553  25.974   9.184   4.820
 1486W        W74554  36.650  41.019  11.266
 1487W        W74555  11.317  31.936   1.795
 1488W        W74556  30.920  36.605  14.869
 1489W        W74557  22.113  21.329   0.785
 1490W        W74558   6.510  33.975  10.441
 1491W        W74559  35.320  42.323  10.784
 1492W        W74560   9.893   4.299   4.808
 1493W        W74561  38.019  27.290   1.239
 1494W        W74562   3.822  30.573  14.621
 1495W        W74563   4.164  38.252   4.237
 1496W        W74564  36.707  28.516   3.633
 1497W        W74565  16.005  11.047  12.555
 1498W        W74566  35.618  43.261   4.142
 1499W        W74567  31.426  30.933  11.698
 1500W        W74568  39.827  43.083  11.233
 1501W        W74569   7.862  34.561  11.531
 1502W        W74570  23.368  15.767  13.073
 1503W        W74571  22.219  14.942   0.399
 1504W        W74572  27.628  25.676  12.026
 1505W        W74573  41.145   4.217  13.987
 1506W        W74574  10.182  20.980  14.455
 1507W        W74575  40.003  40.792  13.531
 1508W        W74576  25.979   9.138   4.267
 1509W        W74577  25.665   0.342   2.119
 1510W        W74578  42.971  40.330  13.576
 1511W        W74579  32.158  30.815   3.179
 1512W        W74580   5.224  33.443  11.329
 1513W        W74581  12.778  19.056  13.790
 1514W        W74582  38.571  22.295   1.220
 1515W        W74583   5.423   5.210   3.634
 1516W        W74584  12.387   6.443   3.102
 1517W        W74585  26.079  38.084   2.290
 1518W        W74586  14.624  19.196  13.548
 1519W        W74587  44.478  41.808  11.816
 1520W        W74588  10.884   5.931   1.045
 1521W        W74589  41.562  22.049  14.696
 1522W        W74590  14.136  30.411  13.917
 1523W        W74591  22.565  39.576  13.503
 1524W        W74592  25.913  14.596  14.749
 1525W        W74593   1.942  34.331  13.993
 1526W        W74594  44.102   1.287   0.537
 1527W        W74595  21.586  25.658   2.172
 1528W        W74596  27.157  35.303   1.506
 1529W        W74597  21.042  34.663   4.248
 1530W        W74598   4.129   6.204  11.134
 1531W        W74599  44.900  17.575   2.735
 1532W        W74600  27.949  26.033  13.145
 1533W        W74601  41.998  41.578  12.495
 1534W        W74602  32.154  26.453  13.887
 1535W        W74603  38.574  13.153  13.490
 1536W        W74604  38.510  17.008   0.976
 1537W        W74605  10.734  25.005  11.121
 1538W        W74606  42.856  39.695   3.535
 1539W        W74607  16.653  18.185  11.569
 1540W        W74608   2.317  15.963   1.188
 1541W        W74609  26.335  31.676  13.142
 1542W        W74610  24.695   0.899  13.047
 1543W        W74611  26.584  33.216  10.712
 1544W        W74612  29.922  33.055  11.213
 1545W        W74613  38.829  44.294  14.786
 1546W        W74614   6.775  40.934   0.259
 1547W        W74615  40.897  20.351   0.958
 1548W        W74616  25.579   1.564   0.914
 1549W        W74617  38.944  26.464   2.145
 1550W        W74618  12.614  42.448   3.024
 1551W        W74619  32.607   2.991   4.168
 1552W        W74620  38.461  21.677  10.755
 1553W        W74621  15.682  12.607   2.225
 1554W        W74622   6.793  11.874  14.490
 1555W        W74623   0.985  41.034   1.886
 1556W        W74624  33.770   5.795   0.132
 1557W        W74625   6.924  40.881   5.415
 1558W        W74626  38.083  23.144   2.332
 1559W        W74627  40.006  32.332   1.268
 1560W        W74628   3.717  32.889   4.417
 1561W        W74629  19.282  37.559  14.973
 1562W        W74630  24.707   7.428  13.403
 1563W        W74631  37.926  26.219  10.598
 1564W        W74632   5.311  41.285   1.483
 1565W        W74633  38.066  28.090  12.933
 1566W        W74634  17.483  16.357   3.769
 1567W        W74635  43.777  32.504  14.030
 1568W        W74636   1.441   6.788  14.044
 1569W        W74637  36.298  18.795   4.026
 1570W        W74638   1.896  11.408  13.482
 1571W        W74639  10.359  14.382   1.104
 1572W        W74640  26.716  32.542   0.693
 1573W        W74641  20.203  28.953  12.534
 1574W        W74642  37.157  32.957   0.882
 1575W        W74643  10.770  24.325   3.090
 1576W        W74644  20.842  36.491   1.803
 1577W        W74645  11.383  21.964  13.053
 1578W        W74646   2.979  33.016   0.424
 1579W        W74647   1.112  35.428  14.030
 1580W        W74648  12.606  41.817  12.801
 1581W        W74649  38.426  32.363   3.746
 1582W        W74650  24.453   7.397  14.866
 1583W        W74651  43.954  42.068   3.700
 1584W        W74652  28.939  39.029  13.907
 1585W        W74653   2.917   9.873   3.134
 1586W        W74654   8.287   3.426  13.420
 1587W        W74655  10.075  41.892   2.868
 1588W        W74656  35.544  30.571  12.169
 1589W        W74657  19.147  15.271   0.793
 1590W        W74658  15.679   2.563  12.762
 1591W        W74659  44.814  22.125   1.379
 1592W        W74660  19.780   3.886  13.459
 1593W        W74661   3.453  13.607   2.787
 1594W        W74662   6.685  13.208   2.418
 1595W        W74663   7.037  35.537   2.410
 1596W        W74664  23.881   0.520  13.016
 1597W        W74665  29.052  20.098  13.336
 1598W        W74666  35.085  22.658  11.965
 1599W        W74667  26.438  26.030   1.359
 1600W        W74668  32.455  12.169  10.738
 1601W        W74669   6.405  13.551   5.011
 1602W        W74670  40.836   9.682   1.959
 1603W        W74671   2.831  13.100   3.189
 1604W        W74672  17.627  23.924  13.358
 1605W        W74673  20.268  32.856   0.832
 1606W        W74674  33.637  35.397  13.537
 1607W        W74675  13.160  36.909  12.477
 1608W        W74676   2.366  25.644  14.216
 1609W        W74677  16.921   7.725  10.996
 1610W        W74678   2.765  26.147   3.240
 1611W        W74679  23.982  37.925   1.660
 1612W        W74680   0.897   1.664   0.349
 1613W        W74681  34.844  34.530  13.447
 1614W        W74682  27.643   1.402  11.146
 1615W        W74683  13.236  34.368   3.650
 1616W        W74684  37.029  36.051   1.474
 1617W        W74685  28.054  39.563   2.984
 1618W        W74686   8.671  17.159  11.030
 1619W        W74687  27.042  35.808   1.353
 1620W        W74688  19.223  30.098  11.014
 1621W        W74689   8.913   2.439   4.875
 1622W        W74690  25.491  27.133  10.726
 1623W        W74691  19.361  33.132  13.012
 1624W        W74692  28.867  18.833   4.637
 1625W        W74693  11.658  14.787   0.898
 1626W        W74694  17.791  23.085  12.748
 1627W        W74695  15.562  11.196  12.063
 1628W        W74696  39.235  15.062  12.527
 1629W        W74697  29.910  38.087  14.746
 1630W        W74698   4.305  43.882   4.405
 1631W        W74699  36.306  24.724   2.264
 1632W        W74700   8.671  16.245  14.027
 1633W        W74701  26.142  23.846  10.590
 1634W        W74702  37.423  20.149   2.114
 1635W        W74703  12.680   5.859   1.058
 1636W        W74704  30.209  25.987  11.962
 1637W        W74705   5.709  28.717   2.344
 1638W        W74706   0.477  25.599  14.700
 1639W        W74707  16.960   2.647   0.933
 1640W        W74708  37.430  32.972  13.590
 1641W        W74709  27.389  44.744   0.804
 1642W        W74710   5.816  32.008   1.255
 1643W        W74711  23.089  14.858   0.339
 1644W        W74712  35.331  43.667  11.851
 1645W        W74713  42.462  43.479  11.293
 1646W        W74714   1.266  17.620  11.116
 1647W        W74715  35.097  39.010  11.934
 1648W        W74716  15.580   9.539   3.042
 1649W        W74717  34.501  17.226   3.864
 1650W        W74718  30.049  20.998   1.354
 1651W        W74719   9.178  23.794   3.862
 1652W        W74720  14.256  32.033  10.184
 1653W        W74721  14.758  40.994   1.917
 1654W        W74722  21.959   4.893  11.548
 1655W        W74723  19.264   1.875  12.466
 1656W        W74724  34.484   8.314   2.660
 1657W        W74725  15.802  11.259   2.637
 1658W        W74726   6.875  14.173   3.934
 1659W        W74727  39.887   0.241  11.314
 1660W        W74728  37.484  29.547   2.977
 1661W        W74729   9.069  15.202  12.369
 1662W        W74730   0.856  34.936  12.165
 1663W        W74731  10.163  27.462  13.297
 1664W        W74732   2.226  18.287  11.633
 1665W        W74733  39.066  31.326   4.080
 1666W        W74734  18.290  33.894  10.401
 1667W        W74735  19.520  27.934  13.203
 1668W        W74736  44.965  19.566   0.806
 1669W        W74737   8.097   2.883  14.407
 1670W        W74738  15.801  17.694   2.721
 1671W        W74739  23.642   2.805   3.244
 1672W        W74740   0.941  23.766   1.464
 1673W        W74741  29.450   2.969   3.881
 1674W        W74742  30.023   0.316   1.984
 1675W        W74743  44.901  36.157   1.019
 1676W        W74744  23.095   7.878  10.818
 1677W        W74745  44.538  20.169  12.528
 1678W        W74746  32.127  29.975   3.870
 1679W        W74747  14.103   3.269   4.802
 1680W        W74748  26.732  21.715  13.815
 1681W        W74749  13.121  36.266  12.053
 1682W        W74750  14.537  19.686   0.703
 1683W        W74751   0.484  22.212  11.064
 1684W        W74752  11.790  22.722   4.094
 1685W        W74753  40.716  15.989   5.413
 1686W        W74754  37.357  14.823  12.506
 1687W        W74755  20.126  32.857  11.749
 1688W        W74756  39.968  26.138  11.223
 1689W        W74757   0.144   3.448  14.373
 1690W        W74758   9.253   8.326   3.220
 1691W        W74759  38.980  37.350   4.537
 1692W        W74760  26.309  25.534  10.666
 1693W        W74761  44.247  17.712   0.224
 1694W        W74762   6.391  40.876   1.350
 1695W        W74763  22.828  14.182  13.059
 1696W        W74764  16.899  19.215  11.677
 1697W        W74765  42.669  28.613  14.561
 1698W        W74766  38.104   0.781   0.539
 1699W        W74767  26.585  37.792   3.188
 1700W        W74768  31.058   0.879   2.963
 1701W        W74769  41.950   1.909  11.690
 1702W        W74770  37.628  29.891   2.182
 1703W        W74771  20.654  17.640  12.879
 1704W        W74772   8.583   4.926   4.030
 1705W        W74773  27.955  25.915  11.608
 1706W        W74774  27.507  17.294   2.748
 1707W        W74775  25.859  42.160   4.209
 1708W        W74776  22.923  35.157   0.075
 1709W        W74777  16.659  30.059   4.657
 1710W        W74778   4.024  18.627  12.863
 1711W        W74779  37.786   8.711  14.456
 1712W        W74780   9.737  29.774   3.358
 1713W        W74781  26.254   5.251  14.024
 1714W        W74782  11.759  20.514  14.808
 1715W        W74783   5.989  26.733   3.242
 1716W        W74784  35.309  36.523  12.149
 1717W        W74785  33.547  33.062   3.915
 1718W        W74786   9.706  19.589  13.912
 1719W        W74787   3.122  21.567   0.429
 1720W        W74788  11.244  29.447   3.237
 1721W        W74789  11.787  39.378   3.617
 1722W        W74790  44.953  37.888  10.995
 1723W        W74791  33.621   7.905  10.961
 1724W        W74792  36.374   0.908   0.031
 1725W        W74793  39.412  35.084  13.696
 1726W        W74794  16.252   7.112   4.129
 1727W        W74795  34.852  29.433  13.447
 1728W        W74796  40.266  33.379   0.794
 1729W        W74797  30.976   7.732  14.253
 1730W        W74798  28.111  28.293  11.692
 1731W        W74799   6.531   3.166  14.222
 1732W        W74800  37.887  30.379  11.944
 1733W        W74801  31.914  23.699   4.457
 1734W        W74802  21.986   4.211   2.651
 1735W        W74803  42.779  43.888  12.715
 1736W        W74804  16.981  35.490   1.358
 1737W        W74805  34.847  13.806   0.458
 1738W        W74806  29.983  37.841   0.498
 1739W        W74807  35.929  16.232  13.370
 1740W        W74808  18.387  21.974  12.510
 1741W        W74809   0.839   1.408   2.165
 1742W        W74810   7.920  33.294   1.044
 1743W        W74811   6.647  24.989  14.538
 1744W        W74812  13.276   1.436  13.137
 1745W        W74813  20.688   5.028   0.985
 1746W        W74814  16.826  44.472  12.438
 1747W        W74815  31.615  14.960  13.771
 1748W        W74816   7.906  18.319   0.908
 1749W        W74817  36.328  15.700  12.095
 1750W        W74818  28.253  24.504   0.280
 1751W        W74819  41.057  13.880   5.083
 1752W        W74820  22.084  37.087  12.897
 1753W        W74821   8.502  30.462   4.615
 1754W        W74822  41.885  38.666   3.811
 1755W        W74823   9.881  42.950   0.510
 1756W        W74824  29.989  15.204  14.386
 1757W        W74825  28.878   6.433  12.346
 1758W        W74826  10.294  42.260  11.460
 1759W        W74827  15.755   8.225   0.537
 1760W        W74828  16.216  32.214   4.767
 1761W        W74829  20.578  44.758  11.189
 1762W        W74830  20.699  17.190  13.883
 1763W        W74831  43.406  24.390  11.521
 1764W        W74832   9.342  23.523  13.292
 1765W        W74833  17.146   1.379   3.255
 1766W        W74834  21.029  21.158   3.174
 1767W        W74835  31.029  11.112   3.729
 1768W        W74836  29.375  28.146   1.344
 1769W        W74837  41.737   0.307   2.361
 1770W        W74838  27.405   4.750  14.275
 1771W        W74839  35.862  39.125   0.454
 1772W        W74840   0.022  16.512   0.067
 1773W        W74841  39.809  41.005   4.795
 1774W        W74842  34.339  13.412  11.999
 1775W        W74843  15.039  33.544   0.956
 1776W        W74844  43.206   7.350  14.396
 1777W        W74845  43.281   5.391   0.025
 1778W        W74846  12.709  22.670  10.900
 1779W        W74847  31.848  38.608  11.520
 1780W        W74848   7.959  40.734  14.323
 1781W        W74849  13.943  43.863  12.856
 1782W        W74850  28.753  22.151  14.789
 1783W        W74851  25.139   5.921  14.801
 1784W        W74852  22.675   4.637   3.572
 1785W        W74853  33.617  15.341   3.738
 1786W        W74854  26.680  25.710   1.024
 1787W        W74855   6.677  22.289   3.992
 1788W        W74856   4.218  43.310   0.847
 1789W        W74857  27.202   1.568  13.792
 1790W        W74858  34.890  38.725   0.435
 1791W        W74859  18.187  16.971   4.276
 1792W        W74860   4.413  15.225  12.099
 1793W        W74861  44.758   2.242   4.168
 1794W        W74862  26.109  36.417  11.955
 1795W        W74863  11.750  41.072   0.111
 1796W        W74864  26.478   5.791  14.347
 1797W        W74865   2.207  44.928   4.108
 1798W        W74866  17.762  15.061  13.805
 1799W        W74867  23.424  29.907   0.011
 1800W        W74868   2.309  17.344  12.601
 1801W        W74869  39.123   7.321  14.411
 1802W        W74870  17.164  30.856  11.580
 1803W        W74871  16.749   2.777   1.390
 1804W        W74872  28.876   1.789   4.141
 1805W        W74873  34.157  39.771  12.497
 1806W        W74874  28.039  20.727   0.509
 1807W        W74875   7.364  17.325  11.304
 1808W        W74876  39.099  21.738  10.156
 1809W        W74877  38.908  37.290   5.081
 1810W        W74878  35.878  19.598   1.813
 1811W        W74879  27.341  31.170   1.987
 1812W        W74880   1.711  24.102  10.803
 1813W        W74881   1.914  27.742   1.876
 1814W        W74882   8.098  10.328   3.658
 1815W        W74883  21.739  39.042   0.351
 1816W        W74884  21.945  18.978  12.380
 1817W        W74885  34.471  14.002  11.612
 1818W        W74886  34.941  36.922   3.405
 1819W        W74887  42.108  37.170   3.687
 1820W        W74888  25.711  42.436  13.471
 1821W        W74889  21.127  42.499   1.197
 1822W        W74890  19.409  28.975  12.416
 1823W        W74891   7.760  44.399   1.714
 1824W        W74892  32.513  18.513  13.257
 1825W        W74893  14.013  17.334  11.054
 1826W        W74894  16.209   2.016   4.587
 1827W        W74895  21.610  12.931  12.025
 1828W        W74896  11.008  22.203  14.521
 1829W        W74897  39.900  38.777  14.061
 1830W        W74898  37.991   9.901  10.566
 1831W        W74899  21.741  31.021  13.822
 1832W        W74900  39.482  33.860   1.697
 1833W        W74901  38.176  29.213  10.256
 1834W        W74902   6.326  41.486   3.626
 1835W        W74903   0.677  32.561  10.959
 1836W        W74904  22.902  15.073   2.276
 1837W        W74905  36.968  21.893  13.085
 1838W        W74906  13.151  11.180  11.536
 1839W        W74907  34.551  11.830   0.268
 1840W        W74908  20.675  33.437  10.258
 1841W        W74909  38.032  37.948   1.890
 1842W        W74910  13.763  24.411  11.508
 1843W        W74911   0.968   4.776   1.821
 1844W        W74912  23.641  44.332  14.465
 1845W        W74913   8.287   6.235  10.532
 1846W        W74914  10.326   9.576  11.139
 1847W        W74915  24.499   9.113  13.829
 1848W        W74916  15.718  28.123  14.398
 1849W        W74917   7.790   2.404   2.980
 1850W        W74918   7.910  30.109   2.956
 1851W        W74919  10.492  14.521  13.052
 1852W        W74920  36.920  19.531  14.073
 1853W        W74921  38.881  32.665  12.589
 1854W        W74922  42.768  43.114  11.005
 1855W        W74923  23.368  31.492  11.106
 1856W        W74924  24.219   2.309  14.933
 1857W        W74925  19.169  25.028   2.845
 1858W        W74926  12.919  23.636   0.988
 1859W        W74927  13.309   3.770  13.033
 1860W        W74928   8.796  23.224  11.636
 1861W        W74929  25.566  34.062   1.126
 1862W        W74930   4.177  38.395  13.968
 1863W        W74931  43.940  28.531   4.124
 1864W        W74932  13.662   0.062  14.445
 1865W        W74933   5.781  10.080  10.204
 1866W        W74934  31.403  34.868  12.568
 1867W        W74935   1.758  16.580  11.390
 1868W        W74936  16.877  32.556  14.852
 1869W        W74937  24.186  16.131   4.790
 1870W        W74938  36.850  22.094   3.174
 1871W        W74939  37.811  26.032  12.469
 1872W        W74940  23.844  32.023  10.774
 1873W        W74941  23.964   3.601   4.351
 1874W        W74942  37.144  25.198  11.556
 1875W        W74943  31.417   5.737   2.447
 1876W        W74944   4.222  40.819   0.262
 1877W        W74945  42.838  11.055  10.943
 1878W        W74946  29.204  32.358  13.358
 1879W        W74947  32.597   8.185   2.269
 1880W        W74948  14.597   5.689   4.266
 1881W        W74949  14.857   1.738  14.792
 1882W        W74950  28.979  14.710   2.113
 1883W        W74951  40.630  16.224   0.733
 1884W        W74952  29.578  36.542   2.885
 1885W        W74953  40.590  44.174   0.068
 1886W        W74954  37.404  32.171   3.248
 1887W        W74955  25.134  29.950  11.572
 1888W        W74956  24.090  30.157   2.736
 1889W        W74957  34.919   3.805  13.041
 1890W        W74958  43.261  38.273   1.813
 1891W        W74959  27.923   0.294   4.310
 1892W        W74960  34.524  23.383  12.092
 1893W        W74961  22.464   9.880   0.334
 1894W        W74962  11.618  31.919   4.833
 1895W        W74963  33.508   7.502   4.102
 1896W        W74964   4.231  44.423   3.090
 1897W        W74965   5.488   9.863  10.578
 1898W        W74966  21.555  37.013   4.110
 1899W        W74967  40.401   4.842  11.806
 1900W        W74968   4.705  25.939  11.935
 1901W        W74969   3.221   2.829   3.857
 1902W        W74970  13.590   0.215  14.997
 1903W        W74971  25.912  19.206  11.968
 1904W        W74972   3.941  28.123  13.533
 1905W        W74973  36.429  33.422   2.870
 1906W        W74974  21.401  35.790   3.798
 1907W        W74975  27.468  12.156   2.232
 1908W        W74976  37.393   9.822   3.189
 1909W        W74977  22.232  35.509  11.990
 1910W        W74978   9.947  25.957   1.020
 1911W        W74979   3.351  42.491   4.105
 1912W        W74980  34.432  29.163  13.368
 1913W        W74981   7.135   9.384  10.880
 1914W        W74982  12.327  11.286   4.175
 1915W        W74983  36.057  25.373  10.396
 1916W        W74984  35.924  11.595  13.984
 1917W        W74985   1.227  43.927   1.727
 1918W        W74986  11.139  23.232  13.480
 1919W        W74987   1.935   8.442  11.040
 1920W        W74988  23.573  39.883   4.366
 1921W        W74989  37.206  22.258  10.616
 1922W        W74990  15.047  10.312   0.991
 1923W        W74991  35.409  31.655  12.636
 1924W        W74992  11.211  12.290  12.036
 1925W        W74993   3.182  31.447   2.666
 1926W        W74994  14.390  41.087   0.974
 1927W        W74995  31.837  12.828  11.124
 1928W        W74996  11.424  17.229  14.292
 1929W        W74997  23.067  34.967  13.104
 1930W        W74998  29.411   9.632   1.851
 1931W        W74999  10.226  35.916  11.553
 1932W        W75000  24.311  17.582   2.381
 1933W        W75001  18.012  27.055  11.228
 1934W        W75002  44.252   4.996  10.826
 1935W        W75003  26.850  27.341   1.738
 1936W        W75004  32.455   6.866  12.456
 1937W        W75005  10.935  14.072  12.418
 1938W        W75006  34.640   0.964   1.472
 1939W        W75007  36.370  42.236  13.413
 1940W        W75008  22.040  31.748  12.888
 1941W        W75009   3.683  43.346   0.944
 1942W        W75010  31.970  14.894   4.418
 1943W        W75011  14.828  22.422  11.194
 1944W        W75012  23.131   0.184  12.862
 1945W        W75013  39.710   3.488  14.339
 1946W        W75014   9.892  23.413   4.554
 1947W        W75015  10.598   5.834  12.342
 1948W        W75016   0.043  36.597   2.361
 1949W        W75017  12.616   9.397   3.326
 1950W        W75018  25.494  32.692  12.538
 1951W        W75019  27.451  23.024  12.557
 1952W        W75020  23.774  10.198  14.131
 1953W        W75021  25.859  32.188  13.560
 1954W        W75022  26.704  37.927   3.684
 1955W        W75023  29.311   0.990   0.404
 1956W        W75024  15.796  36.536  14.823
 1957W        W75025  43.808   0.297  14.511
 1958W        W75026  19.231  26.639  13.436
 1959W        W75027  18.126  14.328  14.847
 1960W        W75028  34.387  21.858   2.258
 1961W        W75029   2.446  37.063  12.956
 1962W        W75030  27.579  11.168   2.169
 1963W        W75031  26.416  34.844  14.359
 1964W        W75032  10.156  15.542   2.617
 1965W        W75033  23.877  23.502   4.898
 1966W        W75034   2.858   8.491   4.690
 1967W        W75035  37.762  13.143  10.835
 1968W        W75036  44.912  21.389   2.094
 1969W        W75037  39.434  11.312  13.786
 1970W        W75038  21.141  38.792  13.960
 1971W        W75039  26.523  33.000   0.922
 1972W        W75040  29.469  43.890   3.054
 1973W        W75041  14.115  14.612  12.857
 1974W        W75042  23.858   9.742  12.029
 1975W        W75043  31.565  25.278   1.933
 1976W        W75044  33.902  33.511  13.554
 1977W        W75045  12.201  36.866  11.028
 1978W        W75046  17.081  11.760   1.713
 1979W        W75047  11.145  32.817   3.789
 1980W        W75048   9.898  19.132  10.194
 1981W        W75049  23.287   1.168   0.012
 1982W        W75050  37.523  11.260  10.572
 1983W        W75051   9.248  32.889   4.984
 1984W        W75052  16.260  17.559  10.671
 1985W        W75053   8.887  43.091   5.015
 1986W        W75054  21.695  34.150  13.552
 1987W        W75055  30.584  14.831  14.680
 1988W        W75056  41.020   5.178   1.212
 1989W        W75057  32.512   1.898  13.730
 1990W        W75058  42.571  11.146   2.275
 1991W        W75059  33.310  25.518  12.780
 1992W        W75060  24.797  43.429  12.873
 1993W        W75061  32.130  20.334  13.714
 1994W        W75062  38.118  26.958   4.576
 1995W        W75063  34.982   9.121   4.704
 1996W        W75064  30.658   8.144  14.021
 1997W        W75065  26.642  11.330  12.896
 1998W        W75066  43.950  39.095   3.234
 1999W        W75067   8.138  13.616   0.365
 2000W        W75068  13.231  42.426   4.608
 2001W        W75069  14.084   8.055  12.025
 2002W        W75070   8.712   8.447  10.812
 2003W        W75071   3.882   1.068  11.205
 2004W        W75072  14.557  37.435   5.188
 2005W        W75073   2.249  17.255  13.931
 2006W        W75074  23.301  27.407   2.550
 2007W        W75075   6.253  10.391   1.318
 2008W        W75076  24.245  37.908  14.403
 2009W        W75077   4.000  21.092  11.207
 2010W        W75078   4.967   2.967   4.145
 2011W        W75079  34.383   1.681  14.903
 2012W        W75080  41.931  19.075   4.015
 2013W        W75081  12.599   3.578  12.503
 2014W        W75082  25.921  24.629  14.852
 2015W        W75083  42.431   0.016   2.889
 2016W        W75084  36.490   7.463   2.749
 2017W        W75085   2.221   0.620   3.285
 2018W        W75086   4.850  11.353   1.878
 2019W        W75087   6.332  21.320  13.868
 2020W        W75088  23.211  15.003  12.577
 2021W        W75089   0.091  20.875  10.025
 2022W        W75090  22.539  39.632   1.881
 2023W        W75091  11.135   1.817  14.404
 2024W        W75092  30.381  35.843  12.242
 2025W        W75093  37.039  40.743  13.470
 2026W        W75094  13.884  36.491  14.058
 2027W        W75095   5.337  13.192  10.779
 2028W        W75096   7.011   3.036  11.679
 2029W        W75097  39.240  40.857  13.807
 2030W        W75098  23.731  27.124   0.946
 2031W        W75099  40.081  17.407   0.293
 2032W        W75100  14.262  11.900  13.997
 2033W        W75101  32.929  12.019   4.351
 2034W        W75102   7.239   9.705  14.871
 2035W        W75103  21.049   6.721   1.842
 2036W        W75104  16.053  29.092  10.628
 2037W        W75105   9.685  38.042  12.907
 2038W        W75106  24.092  23.553   3.873
 2039W        W75107  39.995   7.147  11.061
 2040W        W75108  31.919   7.293  10.877
 2041W        W75109   7.472   8.783  11.042
 2042W        W75110  17.135  20.474   1.532
 2043W        W75111  18.058  20.387   1.938
 2044W        W75112  25.180  30.452  13.899
 2045W        W75113  16.162  40.758   4.194
 2046W        W75114  36.148  39.071   3.157
 2047W        W75115  34.241  12.744   5.003
 2048W        W75116  11.847  32.420  11.688
 2049W        W75117  35.461  34.660   0.842
 2050W        W75118   3.795  35.952   0.692
 2051W        W75119  40.795  18.830  13.444
 2052W        W75120  15.521  40.610  12.599
 2053W        W75121  32.374  23.613  12.410
 2054W        W75122  17.889  39.488  12.023
 2055W        W75123   5.133   0.115   0.647
 2056W        W75124  32.016  44.591   0.424
 2057W        W75125  12.888  17.022   1.319
 2058W        W75126   0.718  30.506  13.728
 2059W        W75127  33.870  28.794  14.476
 2060W        W75128  10.287  32.654   2.406
 2061W        W75129  16.748  11.156  13.534
 2062W        W75130  19.120  18.615  10.789
 2063W        W75131  22.522  26.338  10.204
 2064W        W75132  32.141  39.938   2.402
 2065W        W75133  43.983  12.640   3.161
 2066W        W75134  43.144  43.864  11.268
 2067W        W75135  30.102  21.205   4.231
 2068W        W75136  12.239  22.442   2.767
 2069W        W75137  41.997  30.723  14.737
 2070W        W75138  14.857  14.095  14.790
 2071W        W75139  23.200   8.319  14.513
 2072W        W75140  33.958  23.506  13.083
 2073W        W75141   5.313  42.667  11.652
 2074W        W75142  35.843  11.636   0.370
 2075W        W75143  44.582   2.469  12.878
 2076W        W75144  20.513   0.557  14.954
 2077W        W75145   0.755  33.162   3.447
 2078W        W75146  35.711  37.014   2.164
 2079W        W75147   7.677  37.554   4.939
 2080W        W75148  42.284  24.006  13.934
 2081W        W75149  31.678  39.564  14.803
 2082W        W75150  34.613  22.251   3.572
 2083W        W75151   5.019  25.008  10.187
 2084W        W75152  40.919  30.965   0.512
 2085W        W75153  38.126  18.128   4.981
 2086W        W75154  29.704  37.837  11.120
 2087W        W75155  33.336  38.976  11.492
 2088W        W75156  14.698  37.994  13.014
 2089W        W75157  24.397   4.344   2.292
 2090W        W75158   8.185  26.349   3.636
 2091W        W75159  26.957  40.964   3.665
 2092W        W75160  14.886  30.385   3.301
 2093W        W75161   2.327   2.275  13.023
 2094W        W75162  40.819  16.064   4.915
 2095W        W75163  30.970  25.643   0.232
 2096W        W75164  26.708  32.442   4.128
 2097W        W75165  27.630  39.052  14.562
 2098W        W75166  42.882  29.560   4.939
 2099W        W75167   2.816  29.256   2.005
 2100W        W75168  12.270  32.322  12.613
 2101W        W75169   0.461   0.870  12.776
 2102W        W75170  34.337   1.234   4.954
 2103W        W75171  39.920  17.647  13.780
 2104W        W75172  11.805  11.109   1.413
 2105W        W75173  34.859  20.309  14.479
 2106W        W75174  11.734  28.663   3.343
 2107W        W75175  44.501  42.910  12.528
 2108W        W75176  22.719  37.266  14.294
 2109W        W75177  29.915  26.767  14.501
 2110W        W75178  14.823  33.999   0.897
 2111W        W75179  26.259   8.918   3.445
 2112W        W75180  38.831  21.716   3.762
 2113W        W75181  16.689  24.010  13.731
 2114W        W75182  37.992  16.082  14.618
 2115W        W75183  23.219   6.961  12.965
 2116W        W75184  39.012  10.722  11.092
 2117W        W75185  12.115  13.200   2.729
 2118W        W75186  38.090  43.369  10.583
 2119W        W75187  16.227  37.427  13.861
 2120W        W75188  22.740  24.273   5.413
 2121W        W75189  15.311  10.367  11.380
 2122W        W75190  44.404  32.447   2.226
 2123W        W75191  33.347  21.058   0.805
 2124W        W75192   1.473  20.293  12.512
 2125W        W75193   7.468   7.906  13.950
 2126W        W75194  41.383  37.562   5.076
 2127W        W75195  24.136  25.063  13.365
 2128W        W75196  38.902  42.500   1.752
 2129W        W75197  35.008  20.235  13.536
 2130W        W75198  14.155   6.815   4.664
 2131W        W75199  10.226  19.301   1.832
 2132W        W75200  15.523  23.531  14.831
 2133W        W75201  18.603  35.472   3.595
 2134W        W75202  10.360   4.344   4.576
 2135W        W75203  40.504  39.282  13.454
 2136W        W75204  41.236  41.705   3.287
 2137W        W75205  19.970   1.452  10.920
 2138W        W75206   6.506  23.207   3.910
 2139W        W75207  32.186  18.149   4.815
 2140W        W75208  35.049  37.653   1.246
 2141W        W75209  33.011   4.749  10.955
 2142W        W75210  29.161  25.175  13.315
 2143W        W75211   0.251  10.217  11.150
 2144W        W75212  39.374  34.482   2.914
 2145W        W75213   8.620   8.478  13.060
 2146W        W75214  16.944  11.770   1.203
 2147W        W75215  43.933   5.967   0.230
 2148W        W75216  12.241   5.826   0.317
 2149W        W75217  18.209  12.390  11.839
 2150W        W75218  40.374   0.530   1.249
 2151W        W75219  31.108   7.142   2.573
 2152W        W75220  43.363  10.173  12.950
 2153W        W75221   2.097  43.116  13.514
 2154W        W75222  15.218   6.460  11.568
 2155W        W75223   7.885  12.191   3.665
 2156W        W75224  15.670  16.049  11.584
 2157W        W75225  14.797  27.297   3.167
 2158W        W75226   9.681  24.970   1.188
 2159W        W75227  20.695  27.582  12.941
 2160W        W75228  20.268   1.907   1.778
 2161W        W75229   6.882  18.235   2.480
 2162W        W75230  17.257  31.668  11.195
 2163W        W75231  43.269   9.587   1.816
 2164W        W75232  41.010  29.463   2.189
 2165W        W75233   9.086   7.736  12.468
 2166W        W75234  25.975   4.047  14.959
 2167W        W75235  23.064  23.740  10.954
 2168W        W75236  14.662  21.577  11.725
 2169W        W75237  12.213   6.237   2.664
 2170W        W75238  36.397  11.319   2.894
 2171W        W75239  21.055  35.429   0.827
 2172W        W75240   6.212  28.965   4.579
 2173W        W75241   8.629  22.101  14.498
 2174W        W75242  13.296  27.585  13.293
 2175W        W75243  29.595  32.582  10.841
 2176W        W75244  37.933  32.034   0.992
 2177W        W75245  38.267  44.193   4.032
 2178W        W75246   3.341   6.855  13.894
 2179W        W75247  18.675  33.701  11.981
 2180W        W75248  23.198  42.965   0.913
 2181W        W75249  25.986  37.365  11.983
 2182W        W75250  28.403  40.259  10.635
 2183W        W75251   6.262   0.961  11.619
 2184W        W75252  43.859  38.217   3.741
 2185W        W75253  34.379  14.999   1.327
 2186W        W75254  16.651  36.347   3.173
 2187W        W75255   9.858  28.117  11.943
 2188W        W75256  16.457  11.648   1.095
 2189W        W75257   9.659  44.006   4.126
 2190W        W75258  32.790  26.277  12.974
 2191W        W75259  37.463  35.937   1.750
 2192W        W75260  37.099  11.248   4.081
 2193W        W75261  44.257  27.633   5.014
 2194W        W75262  20.728  25.506  13.562
 2195W        W75263   1.036   7.948   0.192
 2196W        W75264   4.702   0.231  10.958
 2197W        W75265  23.053  21.688   4.063
 2198W        W75266  24.071  11.610  14.539
 2199W        W75267  16.954   8.337  13.080
 2200W        W75268  43.729  37.762   4.647
 2201W        W75269   5.176   7.617  11.617
 2202W        W75270  39.955  26.131   0.923
 2203W        W75271   2.737  43.880   1.436
 2204W        W75272  12.997  23.344  12.623
 2205W        W75273  41.703  18.402  13.408
 2206W        W75274  14.579  43.453   4.928
 2207W        W75275  39.120  21.067  12.393
 2208W        W75276  10.731  37.480   0.454
 2209W        W75277  38.075  33.947   0.379
 2210W        W75278  31.166  31.472   3.063
 2211W        W75279  23.174   7.838  12.685
 2212W        W75280  19.222  18.688   2.756
 2213W        W75281   5.453  44.808  11.160
 2214W        W75282  43.059  20.132   1.446
 2215W        W75283  44.505   4.607   0.893
 2216W        W75284  18.163  40.432   4.059
 2217W        W75285  38.034   5.819   0.833
 2218W        W75286   4.655  13.090  13.532
 2219W        W75287  42.758  43.017   3.773
 2220W        W75288  42.415   8.845   0.073
 2221W        W75289  30.984   3.462   0.745
 2222W        W75290   9.284  43.767  12.551
 2223W        W75291  14.768  10.270   0.233
 2224W        W75292  21.523  11.836  12.782
 2225W        W75293  19.268  40.194  12.389
 2226W        W75294  44.245  37.880  13.365
 2227W        W75295   0.818  36.189   2.128
 2228W        W75296  39.046  36.408  11.566
 2229W        W75297  27.699  41.015   1.267
 2230W        W75298   4.441  11.238   4.725
 2231W        W75299  29.777  21.037  12.352
 2232W        W75300  17.589   1.840   1.198
 2233W        W75301  21.480  14.067  14.946
 2234W        W75302  12.471  42.367  11.620
 2235W        W75303  29.629  14.168  12.434
 2236W        W75304  14.328  23.028  13.852
 2237W        W75305   5.407  27.443   2.619
 2238W        W75306   3.688  36.489  13.039
 2239W        W75307   6.855  21.251  13.020
 2240W        W75308  21.586  37.034   3.154
 2241W        W75309  31.155  33.570  14.365
 2242W        W75310  41.528   7.614   1.747
 2243W        W75311  43.980  44.846   3.344
 2244W        W75312  35.380  33.592   3.692
 2245W        W75313  33.426  17.990   3.583
 2246W        W75314  23.626  19.137   4.930
 2247W        W75315  21.403  28.889   0.952
 2248W        W75316   9.062   7.252  12.727
 2249W        W75317   0.134  40.924  12.197
 2250W        W75318  11.666  29.302  12.344
 2251W        W75319  39.699  29.850   1.351
 2252W        W75320  44.842  10.708   4.135
 2253W        W75321  18.682  27.379   1.802
 2254W        W75322  25.986   0.966   1.428
 2255W        W75323  39.691   7.396  14.441
 2256W        W75324  38.923  14.289  13.963
 2257W        W75325  40.491  44.992  12.381
 2258W        W75326  17.044  24.483  12.442
 2259W        W75327  39.817  27.146  12.098
 2260W        W75328  31.540  33.848  12.524
 2261W        W75329  31.822  24.891  13.845
 2262W        W75330  39.633   1.008  11.076
 2263W        W75331  39.501  17.342   4.129
 2264W        W75332   5.271  18.577   2.732
 2265W        W75333  15.631  20.080   3.256
 2266W        W75334   2.243  43.448  14.423
 2267W        W75335  17.143  33.540  10.261
 2268W        W75336  14.194  26.292   0.699
 2269W        W75337  10.254  22.435   2.718
 2270W        W75338  39.926  26.324   3.322
 2271W        W75339  14.177   8.372  14.306
 2272W        W75340  18.674   5.822  13.024
 2273W        W75341   1.787   8.452   0.656
 2274W        W75342  12.109  41.779   3.606
 2275W        W75343  11.438   7.357  14.974
 2276W        W75344  38.523  16.070  14.711
 2277W        W75345  23.929  38.038   2.185
 2278W        W75346  37.985  17.280   0.985
 2279W        W75347   1.460   2.215   0.824
 2280W        W75348  40.971   6.113  12.061
 2281W        W75349  40.701  33.930  13.167
 2282W        W75350  35.990  42.026  10.752
 2283W        W75351  23.816   0.305   0.188
 2284W        W75352  32.148  26.523  11.028
 2285W        W75353   2.437  13.187   1.879
 2286W        W75354  23.582   8.893  14.095
 2287W        W75355  35.557  38.422   1.145
 2288W        W75356  35.867  18.643  12.142
 2289W        W75357  30.451  43.147  12.085
 2290W        W75358   3.537   4.823   2.887
 2291W        W75359   2.931  44.316  13.154
 2292W        W75360  29.486  44.859   1.961
 2293W        W75361   4.450  29.915  14.288
 2294W        W75362  17.633  18.721   1.681
 2295W        W75363   6.967  10.571  12.030
 2296W        W75364   3.935  17.553  13.434
 2297W        W75365  12.380   7.868  10.719
 2298W        W75366  31.481  43.764   4.052
 2299W        W75367  26.397  26.547   2.035
 2300W        W75368  16.168  43.309   3.714
 2301W        W75369  13.750  14.157  13.514
 2302W        W75370  40.243   6.245   0.279
 2303W        W75371  34.115  26.411   1.954
 2304W        W75372  30.347  37.859   3.422
 2305W        W75373  13.751  12.385   3.485
 2306W        W75374  16.309  31.142  12.352
 2307W        W75375  17.356   0.387   2.827
 2308W        W75376  39.098  27.715  13.430
 2309W        W75377  24.056   8.872  11.531
 2310W        W75378  37.901  39.966   2.663
 2311W        W75379  27.723  31.114  11.516
 2312W        W75380  42.853   4.158  10.211
 2313W        W75381  40.749  13.716   3.715
 2314W        W75382  11.876  33.395   3.328
 2315W        W75383  22.084  19.265  11.919
 2316W        W75384  27.799  41.504   3.488
 2317W        W75385   9.619  16.273  13.102
 2318W        W75386  11.655   1.804   5.007
 2319W        W75387   9.879   3.620  14.102
 2320W        W75388  40.783  25.415   0.115
 2321W        W75389  44.283  18.800  11.950
 2322W        W75390  28.228  20.079   3.822
 2323W        W75391   2.950  21.548   4.599
 2324W        W75392  24.936  32.988   4.631
 2325W        W75393  28.592  16.084   2.480
 2326W        W75394  29.154  39.961   0.690
 2327W        W75395  21.033   5.380  12.527
 2328W        W75396   8.691  14.999   3.285
 2329W        W75397  16.822  41.727  13.632
 2330W        W75398  18.498  37.499   0.421
 2331W        W75399   0.554   9.733  13.393
 2332W        W75400  17.772  23.969   0.319
 2333W        W75401  21.674  36.585  14.082
 2334W        W75402   2.760  11.605  14.334
 2335W        W75403  22.099  15.297  14.445
 2336W        W75404  44.517  11.895   0.712
 2337W        W75405  27.122  31.034   3.330
 2338W        W75406  30.798  43.032   1.457
 2339W        W75407  27.377  43.901   4.047
 2340W        W75408  31.577  35.363  10.759
 2341W        W75409  21.931  43.804   0.300
 2342W        W75410  28.637  21.034   3.640
 2343W        W75411  25.378  29.250   9.810
 2344W        W75412  14.037  44.035   3.697
 2345W        W75413  28.365   7.296   0.315
 2346W        W75414  31.546  38.880  14.068
 2347W        W75415  17.219   8.784  13.763
 2348W        W75416  18.015  16.079   2.732
 2349W        W75417  16.217  33.947   2.670
 2350W        W75418  22.670  43.855   2.177
 2351W        W75419  42.201  14.231   0.816
 2352W        W75420  19.498  22.622   4.298
 2353W        W75421  15.726  15.523  14.514
 2354W        W75422  36.227  23.592   1.680
 2355W        W75423  43.482   3.713  12.333
 2356W        W75424   7.031  27.913  12.852
 2357W        W75425  34.129  13.211  12.520
 2358W        W75426   1.733  31.121  14.256
 2359W        W75427  21.262  39.465  12.879
 2360W        W75428   0.052  39.883  11.617
 2361W        W75429  18.739   8.268  12.661
 2362W        W75430  42.260   6.386   2.743
 2363W        W75431   4.487  26.943   4.492
 2364W        W75432  35.428  27.511   0.376
 2365W        W75433   3.815  11.607  10.180
 2366W        W75434  10.106   8.225  14.401
 2367W        W75435  37.807  27.658  13.062
 2368W        W75436   1.737  30.537  13.557
 2369W        W75437  35.331  39.325   2.203
 2370W        W75438  36.432   4.460  14.555
 2371W        W75439   4.153   9.751  13.354
 2372W        W75440  35.387  18.305  14.468
 2373W        W75441  17.716  18.254   0.889
 2374W        W75442   2.827  10.711  13.145
 2375W        W75443   9.837  40.838   4.517
 2376W        W75444   0.740  27.887   2.347
 2377W        W75445  20.776  43.896  12.010
 2378W        W75446  28.157   5.090  10.233
 2379W        W75447  39.932  34.938   0.438
 2380W        W75448  39.408  32.277   0.796
 2381W        W75449  43.220  36.558   4.992
 2382W        W75450  27.000  30.609   1.916
 2383W        W75451   5.175  16.005   3.296
 2384W        W75452  35.079  24.004   1.057
 2385W        W75453  12.214  12.853   1.308
 2386W        W75454  12.083  19.938  10.951
 2387W        W75455  32.981   2.010  12.767
 2388W        W75456  25.811  28.241  11.971
 2389W        W75457  18.007  33.121  11.488
 2390W        W75458   6.815  20.998  12.037
 2391W        W75459  42.946  42.274  11.461
 2392W        W75460  11.904   8.863  11.519
 2393W        W75461   0.528  40.799  14.870
 2394W        W75462  34.519  21.214   3.361
 2395W        W75463  25.457   5.316  12.907
 2396W        W75464  36.418   4.690   0.429
 2397W        W75465  34.003   2.535   0.851
 2398W        W75466  31.031  17.329  12.881
 2399W        W75467  40.613  26.361   4.234
 2400W        W75468  30.396  22.130   0.582
 2401W        W75469  33.360  19.962  11.174
 2402W        W75470   1.946  24.606  12.124
 2403W        W75471  35.777  15.168   2.750
 2404W        W75472  40.632  40.409   2.764
 2405W        W75473  39.994  43.042   4.766
 2406W        W75474  38.612  44.980   4.555
 2407W        W75475   6.799  30.699   4.257
 2408W        W75476  29.616  34.638   4.135
 2409W        W75477   6.890   2.105  12.954
 2410W        W75478  16.392  14.601   0.262
 2411W        W75479  19.779  21.062  13.970
 2412W        W75480  28.859  28.414   3.819
 2413W        W75481  17.740  34.576  10.723
 2414W        W75482  16.565  15.059  13.557
 2415W        W75483  19.585  37.171   1.760
 2416W        W75484   1.935  33.360   2.399
 2417W        W75485  34.978   2.453   0.679
 2418W        W75486  43.821  24.012   1.233
 2419W        W75487   9.861   1.012  11.533
 2420W        W75488  20.731  37.759  11.062
 2421W        W75489  13.063  26.968  12.499
 2422W        W75490  14.679   6.778   1.259
 2423W        W75491   5.237  24.767   4.998
 2424W        W75492  21.300  16.786  12.214
 2425W        W75493  32.212  30.441  11.881
 2426W        W75494  23.427  24.236   2.410
 2427W        W75495  38.494  30.617   4.521
 2428W        W75496  35.957  24.038  12.357
 2429W        W75497  17.047  39.442   1.474
 2430W        W75498  19.120  37.080   0.786
 2431W        W75499  28.059   6.490  12.586
 2432W        W75500  35.169  35.886   0.403
 2433W        W75501  37.824  23.521  14.899
 2434W        W75502  17.658  17.504  14.742
 2435W        W75503  22.569   8.357  10.410
 2436W        W75504  31.593  14.132   2.021
 2437W        W75505   2.879  36.127   0.232
 2438W        W75506   7.099   6.762   1.900
 2439W        W75507   9.569  42.778  11.907
 2440W        W75508  30.842  31.836   4.973
 2441W        W75509  27.106   3.805  14.528
 2442W        W75510   0.211  12.744   3.801
 2443W        W75511  40.292   7.141  10.641
 2444W        W75512  31.666  20.159   3.825
 2445W        W75513  15.837   0.149  10.141
 2446W        W75514   1.305  15.932   1.183
 2447W        W75515  26.447  14.875   4.175
 2448W        W75516  41.370  37.471   0.647
 2449W        W75517   0.754  35.042   2.775
 2450W        W75518  41.026   0.676  11.096
 2451W        W75519  43.446  27.208   0.394
 2452W        W75520  24.758  31.414   4.163
 2453W        W75521  43.378   5.609   1.083
 2454W        W75522  27.113   4.289  12.080
 2455W        W75523  16.644   0.331  11.147
 2456W        W75524  10.290  39.049   3.042
 2457W        W75525  28.474  42.328   1.419
 2458W        W75526  44.620  19.241   4.563
 2459W        W75527   7.455   7.697   4.507
 2460W        W75528  21.684  19.117  10.957
 2461W        W75529  30.593  16.099   0.622
 2462W        W75530  12.845   5.622  11.701
 2463W        W75531   2.414   6.224   3.254
 2464W        W75532   0.531   4.438  10.682
 2465W        W75533  41.474  40.366  12.330
 2466W        W75534  11.651  24.259  13.011
 2467W        W75535   1.823   7.900   2.674
 2468W        W75536  23.471  27.190   1.389
 2469W        W75537   4.426  40.302  12.454
 2470W        W75538  28.315  10.424  12.208
 2471W        W75539   2.298   8.369  14.873
 2472W        W75540  36.294  23.289  13.012
 2473W        W75541  37.415  40.475  12.338
 2474W        W75542  33.174   9.365  12.448
 2475W        W75543  44.292  34.663   3.907
 2476W        W75544  39.940  24.196   4.902
 2477W        W75545  25.985  23.274  12.969
 2478W        W75546   1.405  42.339   4.682
 2479W        W75547  44.084  44.872  12.083
 2480W        W75548  41.402  39.962  14.043
 2481W        W75549  33.216  31.897  11.603
 2482W        W75550  19.683  44.241  14.942
 2483W        W75551  40.939  28.081  13.323
 2484W        W75552  18.553   2.719   1.969
 2485W        W75553  21.265  18.594   2.610
 2486W        W75554  35.915  36.618   1.224
 2487W        W75555  11.679  33.136  11.341
 2488W        W75556  31.696  30.063   3.587
 2489W        W75557  16.727  14.285   1.433
 2490W        W75558   3.279   5.268   2.810
 2491W        W75559  41.920  30.617   0.322
 2492W        W75560  22.042  40.359   4.142
 2493W        W75561  18.542   2.986   3.711
 2494W        W75562  16.131  39.014   2.902
 2495W        W75563   7.780   6.673  14.354
 2496W        W75564  28.234  12.143  12.521
 2497W        W75565   0.672  24.136   3.717
 2498W        W75566  20.541  19.087  12.004
 2499W        W75567  11.947   9.866  14.435
 2500W        W75568  20.577  38.491   2.209
 2501W        W75569   7.847  40.689   2.609
 2502W        W75570   1.312  32.580   3.706
 2503W        W75571  23.776  38.712  12.217
 2504W        W75572   3.785  16.899   0.763
 2505W        W75573  42.552   6.263  14.098
 2506W        W75574  31.718  16.030  13.072
 2507W        W75575  11.960  14.746   2.307
 2508W        W75576  16.657  18.624  12.430
 2509W        W75577  21.293   9.006  12.439
 2510W        W75578  19.974  43.248   2.366
 2511W        W75579  12.577   3.770  14.996
 2512W        W75580  14.268  43.444  12.651
 2513W        W75581  14.095  16.824  11.237
 2514W        W75582   9.726  19.977  11.057
 2515W        W75583  18.635   2.871   4.212
 2516W        W75584  13.332  26.513   4.040
 2517W        W75585  38.966  42.948   4.095
 2518W        W75586  30.899  22.655  13.065
 2519W        W75587   6.568  18.589  12.573
 2520W        W75588  33.645  14.135  13.513
 2521W        W75589  16.777  36.458  14.503
 2522W        W75590  23.154   0.827  13.412
 2523W        W75591  32.360   8.267  13.346
 2524W        W75592  30.207  21.118  14.203
 2525W        W75593  22.640  40.330  10.251
 2526W        W75594  13.616  16.609   3.180
 2527W        W75595  16.344  26.461   2.674
 2528W        W75596  27.562  27.641  10.484
 2529W        W75597   0.324  42.316   4.325
 2530W        W75598  15.232  32.898  11.244
 2531W        W75599  37.917  32.129   0.482
 2532W        W75600  33.809  22.796   3.309
 2533W        W75601  22.085  22.715  13.845
 2534W        W75602  22.203   6.732  14.370
 2535W        W75603  25.098  18.834   1.607
 2536W        W75604  43.562  15.661   2.287
 2537W        W75605   6.041  15.060  10.958
 2538W        W75606  21.419  12.749  14.348
 2539W        W75607  43.912   4.840  12.788
 2540W        W75608  37.633  37.225   1.365
 2541W        W75609  38.469  39.099  12.916
 2542W        W75610  29.165  15.228   0.824
 2543W        W75611  19.931  36.471   0.804
 2544W        W75612  36.469   6.917   2.794
 2545W        W75613  26.930  24.939   0.492
 2546W        W75614  25.602   1.302   1.353
 2547W        W75615   2.258   3.440   3.302
 2548W        W75616   3.915  36.186   5.155
 2549W        W75617  31.515   4.707  13.545
 2550W        W75618  34.387  21.588   4.333
 2551W        W75619   6.226  19.237   4.248
 2552W        W75620   4.265   2.597  11.195
 2553W        W75621  43.246   9.384  11.578
 2554W        W75622  12.956  11.962  10.748
 2555W        W75623  35.396   2.943   4.883
 2556W        W75624   9.142  13.821  12.526
 2557W        W75625   4.986  33.941   1.711
 2558W        W75626  39.776  23.409   1.765
 2559W        W75627  34.376   3.195   4.656
 2560W        W75628  17.926  43.472   0.691
 2561W        W75629  35.399  36.140  14.910
 2562W        W75630  23.781  17.727  12.953
 2563W        W75631  28.177  20.479  11.551
 2564W        W75632  26.664   2.471   2.458
 2565W        W75633   9.668  14.213   1.375
 2566W        W75634   9.655   8.866  10.976
 2567W        W75635   1.043  27.105  14.110
 2568W        W75636  31.196  15.905  11.138
 2569W        W75637  19.970  28.993   3.370
 2570W        W75638   8.553  12.138  12.723
 2571W        W75639  28.704  25.018   0.888
 2572W        W75640  27.013  36.087  13.373
 2573W        W75641   9.857   9.572  11.412
 2574W        W75642  43.293  16.577  13.472
 2575W        W75643  13.857  18.759  12.537
 2576W        W75644  28.253  20.722  12.780
 2577W        W75645  42.729   4.212  14.966
 2578W        W75646  26.039  25.229  11.493
 2579W        W75647  13.877  40.420  12.690
 2580W        W75648  28.425  37.423   1.253
 2581W        W75649  27.142  35.284   2.892
 2582W        W75650   8.086  10.346  13.198
 2583W        W75651  13.167  44.226  12.571
 2584W        W75652  14.732  26.103  10.616
 2585W        W75653  18.000  35.513   4.554
 2586W        W75654   7.335  20.722  12.510
 2587W        W75655  23.261  36.571  11.185
 2588W        W75656   4.826  37.808  14.978
 2589W        W75657  40.979  29.581   0.305
 2590W        W75658  19.661  19.064  12.400
 2591W        W75659  28.182  29.791  12.948
 2592W        W75660  44.700  37.566   0.699
 2593W        W75661  34.475  35.654  12.180
 2594W        W75662  42.780  39.516   0.954
 2595W        W75663   1.263  43.026  14.987
 2596W        W75664  17.987  27.104   2.274
 2597W        W75665  11.651  22.259   2.887
 2598W        W75666  25.672  18.259   0.920
 2599W        W75667  14.897  38.456   2.501
 2600W        W75668  19.628  24.450   3.685
 2601W        W75669  24.040  15.114   2.169
 2602W        W75670  36.241  43.530   2.299
 2603W        W75671  28.619  38.606   3.999
 2604W        W75672   7.709  23.291  13.449
 2605W        W75673   0.811  33.628   3.801
 2606W        W75674  12.124  28.022   2.812
 2607W        W75675  39.462  41.869  14.713
 2608W        W75676  32.854  35.702   1.263
 2609W        W75677  20.807   3.726  14.603
 2610W        W75678  18.332  43.912   3.337
 2611W        W75679  33.930  44.356  12.920
 2612W        W75680  24.430   7.419  12.375
 2613W        W75681  28.264  10.254   3.344
 2614W        W75682  44.613  39.121   1.407
 2615W        W75683  12.538  40.445   3.843
 2616W        W75684  10.203  12.058   4.177
 2617W        W75685  43.416  40.299  13.317
 2618W        W75686  25.148  30.159   1.494
 2619W        W75687  43.387  39.579  11.002
 2620W        W75688   2.731   0.277   0.398
 2621W        W75689  22.668  17.547  13.010
 2622W        W75690  13.245   1.983   2.391
 2623W        W75691  34.284  29.614  14.733
 2624W        W75692   5.616  39.541   0.527
 2625W        W75693  39.506  35.468  11.565
 2626W        W75694  13.764  36.899   0.966
 2627W        W75695  37.894   3.348  10.302
 2628W        W75696  35.568  39.927   0.206
 2629W        W75697  21.051  43.340   5.443
 2630W        W75698  33.904  26.174  14.895
 2631W        W75699   4.891  42.440   1.354
 2632W        W75700  10.134  10.228   2.601
 2633W        W75701   3.826  14.735  14.274
 2634W        W75702  35.921  10.202  13.931
 2635W        W75703  11.244   4.331   4.175
 2636W        W75704  33.893   5.679  12.948
 2637W        W75705  35.874  42.353  12.599
 2638W        W75706   2.331  35.998   4.601
 2639W        W75707  29.002  11.825   1.746
 2640W        W75708   2.491  28.178  11.652
 2641W        W75709  39.319  14.862  13.020
 2642W        W75710  25.060  13.786   3.227
 2643W        W75711   5.675   2.284   3.208
 2644W        W75712  42.280  17.549   3.518
 2645W        W75713   7.178  30.413  13.447
 2646W        W75714  44.665  38.050   4.645
 2647W        W75715  32.147   9.279  11.566
 2648W        W75716  17.241  36.927  12.475
 2649W        W75717  20.494  12.267  10.791
 2650W        W75718   0.448   3.533   4.208
 2651W        W75719  17.556   2.951   5.110
 2652W        W75720  44.584  17.289  13.407
 2653W        W75721  23.748  43.456  12.928
 2654W        W75722   2.498  36.049  11.553
 2655W        W75723  16.311  38.382   3.651
 2656W        W75724  32.404   6.040   4.264
 2657W        W75725   5.138  23.846  11.577
 2658W        W75726  24.604  34.383  13.787
 2659W        W75727  33.723   0.652  10.617
 2660W        W75728  41.202  32.720   4.248
 2661W        W75729  43.587  19.323   1.281
 2662W        W75730  26.009   5.073   3.150
 2663W        W75731  11.200  30.183   3.849
 2664W        W75732  12.263  25.924   4.818
 2665W        W75733   0.827  11.719  11.624
 2666W        W75734  40.538  26.685   0.057
 2667W        W75735   5.371  14.288   1.664
 2668W        W75736   6.849   7.468  10.680
 2669W        W75737  31.496  22.930   2.802
 2670W        W75738  23.567   0.239  11.132
 2671W        W75739  36.069  17.211   0.774
 2672W        W75740  32.889  17.763   0.378
 2673W        W75741  33.557   4.912  10.381
 2674W        W75742  41.474   7.216   3.073
 2675W        W75743  36.537  13.164   3.804
 2676W        W75744  31.052   9.067   4.508
 2677W        W75745  15.327  44.036  13.556
 2678W        W75746   1.688  20.378  11.218
 2679W        W75747  39.324  28.544  10.321
 2680W        W75748   1.447   9.443   0.946
 2681W        W75749  40.450  16.775   2.588
 2682W        W75750  31.987   1.996  13.887
 2683W        W75751  13.341  43.573   0.500
 2684W        W75752   1.734   4.324   1.816
 2685W        W75753  43.480  25.722   2.675
 2686W        W75754  27.045  27.748   0.835
 2687W        W75755  38.376   6.742  13.516
 2688W        W75756   7.218  27.451   3.115
 2689W        W75757  43.843  14.607   3.781
 2690W        W75758   8.634  19.344   0.402
 2691W        W75759  34.569   7.411   1.466
 2692W        W75760   7.169   9.948   0.496
 2693W        W75761  39.845  27.696   4.108
 2694W        W75762   4.521   5.433   2.838
 2695W        W75763  31.035  40.396  14.948
 2696W        W75764  33.921  37.480   1.794
 2697W        W75765  42.212  32.084  10.231
 2698W        W75766  14.229  30.902  13.777
 2699W        W75767  28.148   8.924   1.211
 2700W        W75768   8.737   2.350   3.492
 2701W        W75769  28.458  17.131   1.282
 2702W        W75770   0.423   8.220   2.266
 2703W        W75771   1.698  35.096  14.703
 2704W        W75772  35.574  24.404  12.447
 2705W        W75773  14.323   6.279   4.707
 2706W        W75774  18.698   5.561   0.890
 2707W        W75775  30.015  17.774   0.534
 2708W        W75776  38.354  31.391   1.373
 2709W        W75777   7.710  33.549  10.708
 2710W        W75778  30.516  16.143   1.138
 2711W        W75779  12.017  14.582   4.614
 2712W        W75780  29.355  35.103   3.243
 2713W        W75781  44.718  28.617  11.337
 2714W        W75782   9.405  36.586   0.448
 2715W        W75783  37.389  16.267   2.346
 2716W        W75784  34.404  10.089  13.847
 2717W        W75785  30.687   7.950  11.059
 2718W        W75786  43.651   8.305   1.372
 2719W        W75787  40.025  13.767   1.401
 2720W        W75788  16.619   8.632   2.711
 2721W        W75789  14.980   7.822   3.358
 2722W        W75790  22.046  38.694   4.226
 2723W        W75791  16.611  28.658  13.100
 2724W        W75792  27.475  37.773  11.984
 2725W        W75793  42.753  18.105  13.557
 2726W        W75794   1.961   2.359   3.589
 2727W        W75795  41.222  15.598   5.195
 2728W        W75796  18.931  37.938   0.174
 2729W        W75797  29.364  14.280   5.066
 2730W        W75798   0.110  38.986   0.871
 2731W        W75799  13.294  29.008  11.257
 2732W        W75800  31.868  37.443   0.271
 2733W        W75801  18.646  23.127  14.306
 2734W        W75802  21.263   9.745  13.079
 2735W        W75803  44.082   2.896   2.223
 2736W        W75804  41.461  18.134  12.847
 2737W        W75805  35.157  34.261  11.922
 2738W        W75806  38.816  14.857   0.782
 2739W        W75807   8.370  35.026  13.902
 2740W        W75808  27.969   2.926  13.546
 2741W        W75809  17.166  34.702  11.684
 2742W        W75810  29.640  19.150   2.763
 2743W        W75811   7.837  39.238   4.533
 2744W        W75812   1.953  28.935  14.408
 2745W        W75813  38.355  27.587  14.031
 2746W        W75814  24.152  40.601   4.549
 2747W        W75815  30.491  42.347  11.631
 2748W        W75816  37.508  14.491   2.729
 2749W        W75817   1.653  38.003   1.215
 2750W        W75818  44.425  19.961  13.890
 2751W        W75819  42.809  21.190   1.813
 2752W        W75820  15.874  27.411   4.502
 2753W        W75821   7.183  35.030  10.745
 2754W        W75822  20.549  44.290   4.568
 2755W        W75823   9.755  37.944  12.400
 2756W        W75824  26.202   1.364  12.418
 2757W        W75825  30.992  25.865   1.970
 2758W        W75826  14.578  40.870   4.231
 2759W        W75827   4.921   0.676  11.141
 2760W        W75828  33.379  12.218  14.862
 2761W        W75829  23.329  42.955   2.717
 2762W        W75830  32.819   1.034  14.424
 2763W        W75831   6.151  35.486  11.509
 2764W        W75832  31.468  38.480   0.981
 2765W        W75833   2.778  33.080  14.954
 2766W        W75834   8.099  22.051   0.328
 2767W        W75835  37.283  10.381  13.883
 2768W        W75836   3.424  27.915   4.294
 2769W        W75837  36.559   0.915   3.970
 2770W        W75838  24.254  37.605   5.075
 2771W        W75839  36.501  27.050   4.512
 2772W        W75840  14.811  32.602   2.954
 2773W        W75841   5.614  27.053   3.679
 2774W        W75842  11.743  19.126  10.109
 2775W        W75843  38.822  17.158  13.711
 2776W        W75844  20.686   3.939   2.669
 2777W        W75845  38.115  26.667  14.878
 2778W        W75846  43.794  44.475  13.385
 2779W        W75847  34.342   5.216  13.052
 2780W        W75848  37.558  21.295  14.698
 2781W        W75849  39.943  41.358  10.789
 2782W        W75850  27.886  39.468   1.803
 2783W        W75851  28.994  13.665  14.272
 2784W        W75852  30.936  12.292   1.731
 2785W        W75853  37.364  30.512  13.846
 2786W        W75854   1.034  33.544   4.280
 2787W        W75855   5.718   7.793   4.309
 2788W        W75856  20.128  37.503  12.249
 2789W        W75857  42.293   5.089  14.818
 2790W        W75858  25.541  37.956   2.208
 2791W        W75859  33.263  28.261  12.996
 2792W        W75860  42.324  25.948  10.850
 2793W        W75861  13.377  43.362  12.509
 2794W        W75862   3.195  41.077   2.957
 2795W        W75863  25.743  37.752  13.500
 2796W        W75864  34.078  18.746  11.020
 2797W        W75865  11.172  19.546  10.073
 2798W        W75866  25.949   5.328  12.832
 2799W        W75867  33.096  44.507   4.651
 2800W        W75868  39.272  30.534  13.872
 2801W        W75869  25.034  42.452  12.906
 2802W        W75870   3.460  32.198  13.076
 2803W        W75871  42.451  31.467  11.435
 2804W        W75872  44.939   6.341  11.154
 2805W        W75873  35.316  24.922   1.304
 2806W        W75874  41.431  32.156  12.632
 2807W        W75875  16.147  15.805   4.815
 2808W        W75876  23.258  35.096   0.929
 2809W        W75877  28.041  15.225  11.492
 2810W        W75878  33.178  20.153  10.693
 2811W        W75879   3.910  10.016   1.008
 2812W        W75880   9.844   5.243  14.772
 2813W        W75881  39.680  30.994   4.951
 2814W        W75882  24.077  29.539   2.030
 2815W        W75883  26.662  31.918   4.731
 2816W        W75884  12.176   8.864  14.723
 2817W        W75885  21.240  30.441  11.894
 2818W        W75886  34.724  35.818   3.747
 2819W        W75887   1.396  29.143  11.421
 2820W        W75888  24.861  24.057  14.806
 2821W        W75889  26.394  36.563  13.051
 2822W        W75890  39.336   2.335   2.786
 2823W        W75891  28.054   5.002   0.525
 2824W        W75892  30.951  32.503   4.121
 2825W        W75893  23.507  19.252  14.032
 2826W        W75894   3.449  26.746  10.988
 2827W        W75895  20.560  29.161   0.475
 2828W        W75896   6.161  29.647  12.908
 2829W        W75897  35.803   6.348  14.741
 2830W        W75898  34.421  20.004   0.412
 2831W        W75899  39.614  22.887   3.007
 2832W        W75900  43.376  21.507  12.858
 2833W        W75901  14.995  11.687  10.756
 2834W        W75902  24.119   8.584  10.604
 2835W        W75903  10.113   4.406  14.034
 2836W        W75904  23.918  17.207  13.606
 2837W        W75905   4.220   9.221  12.665
 2838W        W75906  34.549  19.511   0.574
 2839W        W75907   3.983  26.241  13.455
 2840W        W75908  32.240  38.319  12.430
 2841W        W75909  11.350  26.713   1.831
 2842W        W75910  43.455  26.182   1.846
 2843W        W75911  28.972   5.987  11.627
 2844W        W75912   9.818  28.580   0.499
 2845W        W75913   2.144  35.828  11.033
 2846W        W75914  26.818  28.138   2.043
 2847W        W75915   2.585   9.920   0.408
 2848W        W75916  24.231   2.778   0.184
 2849W        W75917  32.963  30.471  11.122
 2850W        W75918  17.042   7.860  12.849
 2851W        W75919   9.278  30.099   0.536
 2852W        W75920   3.474  23.191  10.567
 2853W        W75921  27.619  22.062   4.365
 2854W        W75922  36.054   7.030  14.900
 2855W        W75923  29.238  32.996   0.351
 2856W        W75924  37.709  34.934  13.001
 2857W        W75925  23.156  21.695  14.589
 2858W        W75926  26.344  18.663  14.833
 2859W        W75927  33.465  21.077  11.077
 2860W        W75928   8.739   7.612   2.416
 2861W        W75929   0.781  20.489  11.288
 2862W        W75930  28.201   8.757  12.355
 2863W        W75931  24.201   6.868   2.771
 2864W        W75932  20.758   1.531  10.512
 2865W        W75933  39.882  41.802   3.241
 2866W        W75934  34.973  22.266  10.909
 2867W        W75935  15.842  43.519  11.021
 2868W        W75936  26.523   1.589   4.938
 2869W        W75937   2.272  43.315  11.487
 2870W        W75938  31.009  32.945   0.929
 2871W        W75939   8.906  21.538  12.181
 2872W        W75940   3.344  33.553  12.368
 2873W        W75941   5.467  28.143   0.861
 2874W        W75942  42.406  26.659  12.033
 2875W        W75943  12.399  21.815  11.044
 2876W        W75944  18.965   9.365  11.162
 2877W        W75945  21.437  14.702  12.417
 2878W        W75946  14.791  16.679  11.473
 2879W        W75947  37.959  39.044   2.191
 2880W        W75948   7.342  16.269   0.256
 2881W        W75949  39.135  10.142  13.481
 2882W        W75950   7.030  43.742  13.037
 2883W        W75951  33.106  36.449   1.066
 2884W        W75952  39.928  34.103  13.574
 2885W        W75953  32.644  20.373  13.650
 2886W        W75954  13.682  43.781   4.631
 2887W        W75955  41.696  16.649   1.744
 2888W        W75956  22.127  23.945   0.035
 2889W        W75957  38.530  37.582  14.472
 2890W        W75958  42.832   3.045  12.567
 2891W        W75959  43.227  41.635  14.849
 2892W        W75960   5.245   7.122  13.450
 2893W        W75961  27.999  44.573   5.033
 2894W        W75962  27.442   4.262   4.129
 2895W        W75963  25.783  13.632   0.024
 2896W        W75964   3.815  31.892  10.564
 2897W        W75965  41.440  41.524   2.505
 2898W        W75966  36.877   8.188   0.249
 2899W        W75967  34.916  15.125   1.734
 2900W        W75968  39.789  28.847   2.496
 2901W        W75969  23.967  35.453   3.677
 2902W        W75970  16.838   8.391   4.541
 2903W        W75971   7.347  34.959  13.088
 2904W        W75972  21.280  26.222   1.816
 2905W        W75973  24.709  12.621  11.466
 2906W        W75974  34.105  29.960  12.906
 2907W        W75975  32.325  16.608   4.244
 2908W        W75976  21.652  42.893  13.972
 2909W        W75977  14.804  20.900   4.547
 2910W        W75978   7.149  12.596   1.446
 2911W        W75979  34.783   0.895  11.451
 2912W        W75980  39.803  31.499  12.042
 2913W        W75981  26.234  22.143  11.500
 2914W        W75982  17.572   7.767  11.611
 2915W        W75983  40.506  18.745  14.886
 2916W        W75984  26.976  36.081   3.047
 2917W        W75985  13.379  34.669   4.051
 2918W        W75986  34.645  35.502   1.716
 2919W        W75987  17.232  40.634   2.838
 2920W        W75988  24.463   2.907   1.868
 2921W        W75989   8.235  30.695   4.106
 2922W        W75990  41.726   4.221  13.279
 2923W        W75991   1.438  22.473  12.674
 2924W        W75992  29.450  23.647   1.295
 2925W        W75993   3.631   5.483  13.818
 2926W        W75994  42.275  40.986   4.307
 2927W        W75995  32.098  16.842  13.849
 2928W        W75996  18.739  24.293   1.000
 2929W        W75997  20.100  40.508   1.780
 2930W        W75998  18.708  33.168  10.582
 2931W        W75999  35.298  19.060  13.502
 2932W        W76000  41.270  14.455   4.872
 2933W        W76001   7.890  18.033   4.097
 2934W        W76002   0.475  40.468   4.055
 2935W        W76003  15.405  17.224  13.501
 2936W        W76004  41.388  20.505   4.988
 2937W        W76005  27.653  28.547   4.572
 2938W        W76006  38.794  21.859  13.483
 2939W        W76007  40.075  35.732  12.793
 2940W        W76008  36.381   6.348   1.431
 2941W        W76009  33.674  19.713   1.773
 2942W        W76010  30.953  22.736  13.928
 2943W        W76011  40.320   2.364  11.381
 2944W        W76012   5.664  36.352   3.203
 2945W        W76013  42.979   1.183   3.690
 2946W        W76014  27.205  36.092  11.609
 2947W        W76015  11.649  36.883   2.452
 2948W        W76016  28.881  31.001  10.699
 2949W        W76017  39.364   2.996   2.962
 2950W        W76018  26.890  19.289  12.035
 2951W        W76019  10.669  41.355   0.332
 2952W        W76020  32.086  19.907   4.072
 2953W        W76021  43.382   9.682  13.947
 2954W        W76022   1.002  19.227   4.286
 2955W        W76023  28.711  19.927   0.829
 2956W        W76024   5.298  23.202   0.348
 2957W        W76025   5.829  39.754  10.544
 2958W        W76026  19.761  15.570   4.103
 2959W        W76027  34.642  20.237  14.963
 2960W        W76028  32.809  37.036  13.790
 2961W        W76029   3.798  15.765  11.555
 2962W        W76030  23.789   6.320  13.523
 2963W        W76031  39.454  13.113  11.182
 2964W        W76032  34.341  38.333  13.932
 2965W        W76033  43.596  20.825   2.083
 2966W        W76034  17.161  28.763   4.355
 2967W        W76035  24.388  34.511   1.952
 2968W        W76036  38.428   9.851  13.410
 2969W        W76037  15.190   1.503   4.177
 2970W        W76038   8.952  24.213   4.126
 2971W        W76039   6.073  44.225   4.579
 2972W        W76040  32.469  20.027  14.001
 2973W        W76041  26.649  21.936   5.089
 2974W        W76042  29.587  38.558   0.064
 2975W        W76043  10.779   6.667  11.892
 2976W        W76044  16.684  24.478  13.952
 2977W        W76045  43.444   5.942  11.981
 2978W        W76046  34.499  19.178  10.750
 2979W        W76047  42.626  31.488  14.855
 2980W        W76048  33.869   2.492   3.311
 2981W        W76049  22.232  27.694  14.440
 2982W        W76050  41.011  23.650   3.284
 2983W        W76051  19.753  22.010   2.807
 2984W        W76052  36.782   3.968   2.688
 2985W        W76053  11.375  26.180  14.901
 2986W        W76054  34.979  18.303  12.449
 2987W        W76055  17.217  29.143  10.713
 2988W        W76056  31.492   6.427   2.495
 2989W        W76057  40.312  15.606   1.929
 2990W        W76058  24.613  22.039   3.571
 2991W        W76059   2.739  29.877  10.962
 2992W        W76060  39.796   7.982   4.215
 2993W        W76061  44.126  37.960   5.059
 2994W        W76062  21.753  29.451  11.618
 2995W        W76063  10.193  30.624  13.529
 2996W        W76064  25.199  27.138   0.467
 2997W        W76065  43.302  32.646  11.969
 2998W        W76066  22.310  40.411   3.547
 2999W        W76067  18.910  36.012   1.826
 3000W        W76068   1.496  34.604  12.469
 3001W        W76069   6.346  26.683   0.827
 3002W        W76070  20.988  21.233   1.292
 3003W        W76071  20.949   1.443   2.334
 3004W        W76072   6.479  34.826   2.868
 3005W        W76073  42.099  31.602   1.359
 3006W        W76074  10.739  25.435  13.914
 3007W        W76075   4.681  11.731  11.185
 3008W        W76076  18.069  44.753  14.729
 3009W        W76077  41.386  38.775  12.110
 3010W        W76078  23.767  16.334   3.527
 3011W        W76079  16.780  19.633  11.978
 3012W        W76080  28.039  11.383  12.996
 3013W        W76081  11.584  25.714   2.372
 3014W        W76082  31.172  43.162  11.032
 3015W        W76083  38.567  15.431   3.267
 3016W        W76084  22.636  31.579   4.103
 3017W        W76085  29.447  35.602   3.200
 3018W        W76086  33.212  10.174   4.074
 3019W        W76087   6.692  16.719   0.855
 3020W        W76088  15.567  20.163  11.636
 3021W        W76089  12.802  40.731   4.173
 3022W        W76090   0.475  23.120  11.346
 3023W        W76091  21.973  13.136   0.866
 3024W        W76092  15.236  27.471   5.219
 3025W        W76093   9.163  41.644   4.954
 3026W        W76094   1.736  21.805  11.923
 3027W        W76095   5.294  39.412   3.825
 3028W        W76096  17.528  44.326  13.063
 3029W        W76097   5.873  37.888   4.433
 3030W        W76098  14.055  15.747   2.772
 3031W        W76099   2.515  41.932  14.375
 3032W        W76100  12.144  43.413  13.102
 3033W        W76101  24.351  32.899   0.331
 3034W        W76102   8.717  22.628   4.798
 3035W        W76103   5.456  36.938  11.943
 3036W        W76104  41.329   6.861   3.435
 3037W        W76105  22.180   6.188   4.361
 3038W        W76106  40.356   8.326   2.735
 3039W        W76107  31.472  13.312   0.477
 3040W        W76108   0.207  40.438   3.221
 3041W        W76109  22.504   3.378   3.333
 3042W        W76110  24.909  29.085  13.004
 3043W        W76111  16.804  16.557   1.708
 3044W        W76112  14.872  22.685  12.571
 3045W        W76113   7.385  10.543   2.170
 3046W        W76114   2.346   2.898  11.556
 3047W        W76115  12.124  35.974   2.174
 3048W        W76116   1.293  32.627   2.723
 3049W        W76117  25.916  35.292  12.487
 3050W        W76118  24.275   2.702   3.726
 3051W        W76119   4.425  40.099  10.779
 3052W        W76120   6.257   9.615  13.370
 3053W        W76121  20.522  26.529   0.324
 3054W        W76122  20.201   1.286   0.179
 3055W        W76123  28.728  26.550   1.935
 3056W        W76124  41.541  43.884   2.247
 3057W        W76125  31.206  44.911  11.596
 3058W        W76126  18.853  39.403   3.695
 3059W        W76127   3.677  44.666   2.414
 3060W        W76128  15.983  40.910  14.404
 3061W        W76129  20.240  22.794   2.812
 3062W        W76130  10.812   1.649  11.025
 3063W        W76131  41.852   3.629  12.621
 3064W        W76132   3.977   7.991   0.924
 3065W        W76133  32.072  25.209  13.464
 3066W        W76134   6.519  37.004  12.930
 3067W        W76135  19.071  19.292   0.394
 3068W        W76136   0.416   7.796   4.368
 3069W        W76137  33.006   7.711  11.512
 3070W        W76138   5.684  29.116  11.607
 3071W        W76139  40.371  31.816  14.469
 3072W        W76140  41.477  18.994  12.863
 3073W        W76141  22.422  43.361  12.324
 3074W        W76142   5.664  26.218  12.651
 3075W        W76143  30.987   0.445   0.841
 3076W        W76144  25.250  21.807   2.308
 3077W        W76145  22.744  35.092   3.692
 3078W        W76146  27.977  18.048   3.217
 3079W        W76147  30.901  19.285  13.605
 3080W        W76148   5.244  28.921   4.960
 3081W        W76149  31.734  20.985  12.555
 3082W        W76150  43.800  12.739   1.793
 3083W        W76151  28.147  19.600   3.602
 3084W        W76152   2.434  17.864  12.605
 3085W        W76153  33.437  33.501   1.710
 3086W        W76154   8.670   6.270   2.324
 3087W        W76155  40.761  17.221   2.750
 3088W        W76156  41.323  25.975   3.575
 3089W        W76157   0.922   9.112  13.028
 3090W        W76158  21.303  32.441   0.209
 3091W        W76159  32.509  34.807  13.363
 3092W        W76160  21.002   5.640   2.574
 3093W        W76161  43.073  35.572   4.506
 3094W        W76162  20.243  15.731   4.840
 3095W        W76163  21.682  32.839  10.966
 3096W        W76164  40.975   3.372   4.197
 3097W        W76165   2.920  36.176   1.165
 3098W        W76166   9.180  39.168  12.398
 3099W        W76167  19.836   2.017  14.420
 3100W        W76168  21.279  23.686  13.849
 3101W        W76169   2.983  11.158   0.810
 3102W        W76170  32.314   4.147  13.632
 3103W        W76171  22.017  21.251   4.214
 3104W        W76172  38.979  29.538  11.286
 3105W        W76173  18.275   2.354   2.623
 3106W        W76174  36.527  15.268   2.296
 3107W        W76175  12.948  40.322   0.312
 3108W        W76176  25.152  18.807  14.388
 3109W        W76177  27.152  17.924  12.394
 3110W        W76178  26.070   6.016   1.463
 3111W        W76179  39.067  17.304   2.438
 3112W        W76180  34.573  12.587  11.699
 3113W        W76181  19.128  37.230  11.116
 3114W        W76182  26.256  28.570  11.945
 3115W        W76183  32.943   6.739   3.569
 3116W        W76184  11.951   6.192  11.457
 3117W        W76185  31.672   9.319   3.202
 3118W        W76186  27.583  32.885   2.330
 3119W        W76187  24.904  38.439  12.625
 3120W        W76188   6.985  26.712  12.146
 3121W        W76189   0.868  21.106  14.435
 3122W        W76190  13.485  10.496  14.831
 3123W        W76191   9.812  20.142  13.162
 3124W        W76192   6.518  41.145  11.580
 3125W        W76193  25.242  35.953  11.962
 3126W        W76194  28.098  22.591  12.561
 3127W        W76195  44.745  20.008   2.182
 3128W        W76196   8.205  20.876  10.391
 3129W        W76197  44.411  31.346   2.755
 3130W        W76198  40.125  41.028  13.088
 3131W        W76199   1.243  23.676   3.245
 3132W        W76200   0.875   9.639   3.337
 3133W        W76201  39.082   4.866   1.675
 3134W        W76202  28.673  38.783  12.001
 3135W        W76203  43.824  10.907  14.282
 3136W        W76204   8.824  30.796   1.450
 3137W        W76205  10.796   7.332  12.519
 3138W        W76206   2.922   6.359  14.274
 3139W        W76207  28.439  23.736   4.671
 3140W        W76208  37.800   8.245  13.524
 3141W        W76209  29.355  31.680   0.859
 3142W        W76210  27.591  18.570   1.130
 3143W        W76211   1.980  11.651  12.139
 3144W        W76212  37.341  40.216   3.305
 3145W        W76213  42.384   6.001   3.866
 3146W        W76214  14.046  24.829   4.592
 3147W        W76215  41.978  36.561  14.424
 3148W        W76216  34.112   8.907  11.993
 3149W        W76217  21.514  38.585   2.383
 3150W        W76218   5.282  43.939   1.349
 3151W        W76219  12.026  25.469   0.342
 3152W        W76220  18.149  34.804   4.093
 3153W        W76221   1.539   6.506   3.723
 3154W        W76222  25.790  12.321   3.845
 3155W        W76223  30.203  12.807  14.848
 3156W        W76224  14.428  14.356   2.074
 3157W        W76225  20.793  30.486  10.623
 3158W        W76226  12.161  44.446  12.707
 3159W        W76227  17.523  11.632  10.677
 3160W        W76228  11.801  27.518   3.884
 3161W        W76229  38.472  21.517  11.242
 3162W        W76230  18.470  41.518   3.757
 3163W        W76231   2.386  32.631   0.926
 3164W        W76232  27.186   5.180  14.493
 3165W        W76233  36.903  11.129   3.110
 3166W        W76234   5.334   7.591   0.455
 3167W        W76235   7.949  10.638  11.071
 3168W        W76236  13.159  11.084   3.644
 3169W        W76237  38.526  33.602   0.347
 3170W        W76238  28.018  21.425  13.170
 3171W        W76239   9.208  35.535  12.745
 3172W        W76240   7.853  28.206  13.481
 3173W        W76241  42.389   4.819   4.095
 3174W        W76242  23.429  32.516   1.267
 3175W        W76243   2.659  30.664  13.700
 3176W        W76244  42.063  23.062   3.370
 3177W        W76245   4.286  36.027   0.901
 3178W        W76246  43.259   6.732  13.896
 3179W        W76247  32.274   0.303  10.576
 3180W        W76248  20.223  41.806   4.307
 3181W        W76249  22.169   3.665   4.106
 3182W        W76250  25.947  11.164  13.999
 3183W        W76251   6.452   3.870   4.766
 3184W        W76252   5.986   5.398  10.581
 3185W        W76253  25.232  37.972   1.710
 3186W        W76254  30.482  31.643  13.963
 3187W        W76255  24.548  17.324   1.953
 3188W        W76256  35.905  16.541   4.586
 3189W        W76257  44.511   5.014  11.725
 3190W        W76258   6.632  40.552   3.127
 3191W        W76259  42.804   1.206  13.113
 3192W        W76260  21.125  34.787  13.090
 3193W        W76261   6.855  13.384  14.479
 3194W        W76262  15.186  25.041   3.217
 3195W        W76263  24.663  40.762   1.482
 3196W        W76264  15.394  14.809   4.212
 3197W        W76265  42.697  37.347  12.349
 3198W        W76266   5.655  11.594  11.209
 3199W        W76267   9.892   7.081  13.502
 3200W        W76268  42.958  16.655   3.276
 3201W        W76269   5.299   4.836   2.695
 3202W        W76270   5.287  23.720   4.060
 3203W        W76271  12.087  37.464  14.291
 3204W        W76272   0.029   8.477  11.987
 3205W        W76273  37.831   8.344  12.972
 3206W        W76274  24.110   0.931  12.488
 3207W        W76275   5.214   5.922  13.804
 3208W        W76276  19.096  21.975  11.498
 3209W        W76277  39.644   7.738  12.820
 3210W        W76278  28.594  39.417   4.311
 3211W        W76279  22.740   5.450  14.335
 3212W        W76280   1.793   3.826   0.403
 3213W        W76281   5.190   0.566  12.102
 3214W        W76282  29.936  22.051  14.301
 3215W        W76283  32.075  27.049   2.725
 3216W        W76284  25.997  36.461   1.706
 3217W        W76285  35.484  25.721   1.659
 3218W        W76286  22.505   1.896   0.775
 3219W        W76287  41.204  11.371  11.696
 3220W        W76288  28.020  34.594   2.216
 3221W        W76289  29.584  18.712   0.261
 3222W        W76290  15.358  31.606  12.172
 3223W        W76291   7.404  43.485   1.979
 3224W        W76292  29.291  41.196  10.198
 3225W        W76293  22.030  42.480   4.665
 3226W        W76294  37.941  43.434   0.028
 3227W        W76295  41.509  23.552   0.382
 3228W        W76296  25.235  33.852   4.592
 3229W        W76297  33.233   0.191   9.988
 3230W        W76298  27.030  15.589  13.244
 3231W        W76299   1.201  24.748  14.900
 3232W        W76300  44.489  40.821  11.951
 3233W        W76301  20.735  34.994  14.011
 3234W        W76302   0.918   9.890  11.228
 3235W        W76303  34.736  17.144   2.488
 3236W        W76304  26.235  12.826   0.455
 3237W        W76305  25.009  14.826  11.893
 3238W        W76306   6.024  43.863  13.169
 3239W        W76307   8.628  37.960  11.619
 3240W        W76308  23.682  22.644   0.047
 3241W        W76309  43.791   6.794   2.803
 3242W        W76310  32.557  24.617  13.816
 3243W        W76311  44.328  44.020  10.626
 3244W        W76312  38.438   9.283  14.361
 3245W        W76313   6.392  41.466  13.255
 3246W        W76314  10.734  42.549   3.741
 3247W        W76315   9.268  29.672   1.732
 3248W        W76316  26.044  39.647   2.185
 3249W        W76317   5.206  12.221   0.035
 3250W        W76318   4.662  25.037   1.832
 3251W        W76319  10.833   0.235  14.224
 3252W        W76320  37.384  42.031  13.983
 3253W        W76321  13.196  15.431   0.944
 3254W        W76322   2.235  23.451  11.521
 3255W        W76323  43.214  18.095  11.559
 3256W        W76324  12.320   2.962   4.761
 3257W        W76325  22.483  39.845  13.025
 3258W        W76326  33.367  12.262   4.075
 3259W        W76327  27.591  11.747  11.471
 3260W        W76328  38.412  15.163   0.424
 3261W        W76329  24.218   7.489  13.244
 3262W        W76330  34.369  42.780  13.483
 3263W        W76331  24.102   1.560   4.456
 3264W        W76332  24.437  22.766  14.376
 3265W        W76333  30.711  34.429  12.916
 3266W        W76334  43.529  18.538   4.247
 3267W        W76335  37.098  38.929   3.948
 3268W        W76336  34.548   8.575   3.209
 3269W        W76337  28.544  16.972  12.990
 3270W        W76338  16.275  41.031  11.426
 3271W        W76339  17.762  41.813   2.826
 3272W        W76340  33.997  28.601   2.448
 3273W        W76341  15.251  34.950   1.665
 3274W        W76342  25.614  34.862  13.105
 3275W        W76343  38.609  44.895  12.068
 3276W        W76344  44.277  16.343   2.305
 3277W        W76345  42.080  13.343   1.811
 3278W        W76346   1.309   1.896   4.071
 3279W        W76347  14.548  23.704   3.323
 3280W        W76348  24.791  18.795  10.243
 3281W        W76349  14.239  26.974   3.628
 3282W        W76350  26.638  24.704   2.372
 3283W        W76351  41.828  29.484  12.452
 3284W        W76352   4.654  31.189   1.480
 3285W        W76353   7.452  37.273   4.557
 3286W        W76354  20.386   5.968  12.464
 3287W        W76355  35.489  32.316   3.503
 3288W        W76356  43.748  35.392   0.859
 3289W        W76357   4.635   7.859   2.331
 3290W        W76358  30.897  34.118   2.776
 3291W        W76359  27.549  19.056  10.350
 3292W        W76360  37.038  14.626  11.570
 3293W        W76361  35.121  26.102  14.474
 3294W        W76362  28.655  27.100  14.130
 3295W        W76363  16.632  34.839  12.468
 3296W        W76364  30.344  16.988  12.462
 3297W        W76365  42.478  11.319  12.733
 3298W        W76366  34.796   8.800  10.688
 3299W        W76367  23.176  26.126   2.835
 3300W        W76368  39.918  14.035   0.738
 3301W        W76369   2.625  37.715   2.203
 3302W        W76370  22.052  20.806  14.536
 3303W        W76371  28.632  43.550  13.057
 3304W        W76372  22.483   0.287   2.292
 3305W        W76373  35.766  16.798   0.031
 3306W        W76374  12.507  25.088  13.317
 3307W        W76375  41.134  13.351   5.047
 3308W        W76376  26.551  27.526  14.239
 3309W        W76377  34.645  14.153   0.993
 3310W        W76378  11.500  17.175   9.746
 3311W        W76379  37.611  29.075  13.874
 3312W        W76380   9.166  35.826   0.939
 3313W        W76381  38.718  27.248   1.956
 3314W        W76382   5.112  12.197  11.103
 3315W        W76383  40.243  44.630   4.608
 3316W        W76384  37.658   8.681   3.425
 3317W        W76385  18.207  39.360   3.135
 3318W        W76386   4.823  22.700  13.800
 3319W        W76387  31.536  28.506  14.732
 3320W        W76388   7.266  35.784   1.139
 3321W        W76389  40.977   4.490  12.647
 3322W        W76390  16.110  28.923   2.861
 3323W        W76391  35.203  37.265  13.936
 3324W        W76392  29.157  25.477  14.935
 3325W        W76393  18.698   3.692  11.602
 3326W        W76394   1.448   6.420  14.422
 3327W        W76395   4.010  35.503   0.829
 3328W        W76396  37.100   0.447   2.337
 3329W        W76397   3.914  38.840   0.250
 3330W        W76398   5.230  10.381   0.284
 3331W        W76399  27.779  36.561   3.273
 3332W        W76400  24.012  13.342   2.210
 3333W        W76401  44.150  44.667  11.168
 3334W        W76402   8.000  10.261   0.412
 3335W        W76403   8.178  43.029   3.716
 3336W        W76404  40.765   2.337  11.147
 3337W        W76405  18.854  25.196   4.584
 3338W        W76406  25.071  36.353   2.421
 3339W        W76407  14.509   9.000   3.116
 3340W        W76408  13.436  40.452   0.179
 3341W        W76409  35.048   6.176   0.470
 3342W        W76410  18.068   8.842  11.132
 3343W        W76411  22.894  44.678  11.109
 3344W        W76412  23.106  25.178   2.814
 3345W        W76413  40.032  16.691   3.320
 3346W        W76414  11.845  17.657  10.255
 3347W        W76415   0.648   8.773  13.326
 3348W        W76416  43.384   7.389  10.510
 3349W        W76417  42.308  39.383  10.759
 3350W        W76418  26.019   2.522  14.350
 3351W        W76419   3.755   0.837   2.290
 3352W        W76420  12.670   7.284   4.261
 3353W        W76421  37.507   1.901  12.976
 3354W        W76422  43.242  32.998   2.293
 3355W        W76423  28.736   6.172  13.404
 3356W        W76424  41.919   5.424  12.961
 3357W        W76425   5.634  19.111   3.637
 3358W        W76426  19.733  18.000   0.848
 3359W        W76427  18.160  15.124  10.515
 3360W        W76428  20.258  28.806  11.488
 3361W        W76429  35.385  31.747  11.040
 3362W        W76430   0.175   4.051   2.295
 3363W        W76431  37.007  20.798   1.865
 3364W        W76432   3.432   0.768  13.026
 3365W        W76433  41.513  16.380   3.777
 3366W        W76434  29.591   5.684   3.358
 3367W        W76435  41.371  29.457   4.305
 3368W        W76436  40.887  13.421  12.074
 3369W        W76437  40.740  30.014  12.912
 3370W        W76438  28.239  37.620  12.498
 3371W        W76439  40.013  30.375   1.270
 3372W        W76440  17.728  39.915   4.135
 3373W        W76441  41.301  29.604  14.906
 3374W        W76442  14.354  37.583   3.591
 3375W        W76443  41.789  35.053  12.916
 3376W        W76444  30.013  14.549   2.766
 3377W        W76445  34.961  25.114  13.003
 3378W        W76446  26.487   7.248   3.339
 3379W        W76447  14.420  42.898  10.622
 3380W        W76448  39.067  22.988  11.730
 3381W        W76449  21.610  21.602  10.556
 3382W        W76450  28.975  16.482   2.319
 3383W        W76451  39.315  42.947  11.981
 3384W        W76452  12.738   6.959  14.535
 3385W        W76453  44.242  27.024  14.545
 3386W        W76454  40.084  14.638   0.969
 3387W        W76455   5.326  39.796  12.486
 3388W        W76456  32.846  43.209   4.245
 3389W        W76457  36.282  16.722   3.660
 3390W        W76458  18.005  34.641  12.496
 3391W        W76459  11.968  38.150  11.210
 3392W        W76460  40.354  44.193  10.618
 3393W        W76461  13.305   4.966   1.328
 3394W        W76462  14.389  35.354  12.296
 3395W        W76463  42.270   9.868  13.687
 3396W        W76464  36.463  38.343   0.234
 3397W        W76465  14.647  39.029  10.801
 3398W        W76466  35.265  17.471  13.454
 3399W        W76467  41.301  35.376   4.165
 3400W        W76468  11.703  35.542  12.409
 3401W        W76469  27.519  11.773  10.413
 3402W        W76470  44.357   7.629  11.999
 3403W        W76471  37.534   6.183  13.986
 3404W        W76472   9.792  29.246   2.419
 3405W        W76473  10.685   9.515  12.432
 3406W        W76474  27.729   4.754   2.851
 3407W        W76475  32.342  43.932   2.898
 3408W        W76476   9.867  42.569  12.397
 3409W        W76477  18.591  14.822  13.447
 3410W        W76478   3.384  10.264  13.005
 3411W        W76479  42.921  15.772  12.394
 3412W        W76480  19.692  10.432   3.604
 3413W        W76481  33.951  42.751  12.579
 3414W        W76482   1.891   3.642   0.881
 3415W        W76483   3.517  32.544   4.050
 3416W        W76484  43.990  31.526  14.477
 3417W        W76485  27.509  44.748  13.806
 3418W        W76486  34.431  43.755  12.053
 3419W        W76487  16.826  31.209   0.927
 3420W        W76488  20.868  35.093  12.766
 3421W        W76489  30.385   5.632  14.919
 3422W        W76490  42.371  33.142   2.226
 3423W        W76491   1.239  13.793  11.477
 3424W        W76492  33.452  41.055   4.670
 3425W        W76493   1.552  33.503   4.302
 3426W        W76494  22.717  33.412   4.291
 3427W        W76495  34.960  42.767   3.712
 3428W        W76496   6.847  35.197   4.169
 3429W        W76497  41.030  30.431  14.460
 3430W        W76498  36.210  14.763   3.538
 3431W        W76499   9.319   3.710   4.102
 3432W        W76500  33.985  41.264  14.928
 3433W        W76501  11.258  14.617  12.397
 3434W        W76502  14.613   2.213  14.752
 3435W        W76503  36.440  11.739  13.933
 3436W        W76504  35.909   6.450   1.936
 3437W        W76505   4.480  26.572  13.016
 3438W        W76506   9.140  18.262   2.391
 3439W        W76507  15.641  21.302  12.572
 3440W        W76508  26.280  35.988   4.625
 3441W        W76509  32.793  16.525  14.979
 3442W        W76510  29.085  34.148   3.559
 3443W        W76511  14.687  32.927  12.354
 3444W        W76512  44.703   4.211  14.790
 3445W        W76513  31.512  21.725   4.158
 3446W        W76514   0.347  16.262  11.941
 3447W        W76515  12.069   8.326  10.713
 3448W        W76516  10.772   8.718   1.879
 3449W        W76517  43.073  13.793   2.427
 3450W        W76518  29.067  22.721   1.894
 3451W        W76519  20.233  18.165  11.907
 3452W        W76520  34.840  11.336  10.155
 3453W        W76521  24.961  21.598   1.107
 3454W        W76522   3.370  15.357   3.561
 3455W        W76523  21.322   0.887   0.878
 3456W        W76524  25.875  17.770   3.345
 3457W        W76525  16.211  36.352   3.893
 3458W        W76526  29.148  39.124   1.650
 3459W        W76527  42.129  30.704   2.893
 3460W        W76528  14.927  43.092   3.338
 3461W        W76529  39.570   7.779  13.985
 3462W        W76530  25.945  16.777  11.681
 3463W        W76531  28.624  19.821  13.509
 3464W        W76532  11.354   9.372   1.416
 3465W        W76533  14.874   1.522   3.553
 3466W        W76534  23.715   1.052  14.725
 3467W        W76535   6.930  18.664  11.269
 3468W        W76536   5.901  15.579   3.355
 3469W        W76537   5.429  15.678   4.663
 3470W        W76538  27.668  31.971   3.819
 3471W        W76539   5.643  44.903   3.598
 3472W        W76540   8.169  33.527  13.046
 3473W        W76541  20.302  37.876   3.346
 3474W        W76542  41.030  29.702   4.603
 3475W        W76543  15.127  19.616  14.416
 3476W        W76544  17.530  26.655   0.182
 3477W        W76545   2.362  18.871  12.504
 3478W        W76546  12.698  22.792  13.911
 3479W        W76547  38.951  16.070   0.374
 3480W        W76548  31.575  17.209   3.765
 3481W        W76549  43.970   3.606  13.377
 3482W        W76550   8.294  35.419  14.620
 3483W        W76551  36.507  34.597  10.050
 3484W        W76552  42.333  28.337  12.904
 3485W        W76553  33.121  16.719  11.249
 3486W        W76554  29.395  15.272   3.171
 3487W        W76555   6.669  22.529   4.661
 3488W        W76556   3.494  14.838  11.121
 3489W        W76557  16.756  37.840  14.536
 3490W        W76558   2.824  10.882   2.596
 3491W        W76559   7.905  10.474  14.016
 3492W        W76560  26.087  43.260   4.435
 3493W        W76561   1.167   2.746   2.198
 3494W        W76562  11.386  42.459  12.797
 3495W        W76563  41.271  36.827  13.493
 3496W        W76564  21.748  12.663   2.126
 3497W        W76565  20.493  23.087  12.556
 3498W        W76566  19.638  27.018   4.567
 3499W        W76567  22.196  30.973   2.255
 3500W        W76568   6.451   7.369   3.347
 3501W        W76569   7.501   2.799  11.059
 3502W        W76570  42.350  12.403   1.838
 3503W        W76571  35.090  10.355  14.353
 3504W        W76572  36.496  26.899   2.561
 3505W        W76573  39.540  24.038  14.422
 3506W        W76574   8.798   1.011  10.650
 3507W        W76575  42.909  22.532   3.263
 3508W        W76576  24.844   2.292  10.715
 3509W        W76577  39.547  11.390   1.893
 3510W        W76578  41.369  11.771   4.085
 3511W        W76579   6.413  17.744   0.821
 3512W        W76580  30.122  29.224   1.361
 3513W        W76581  11.645  21.963   4.708
 3514W        W76582   6.583  22.722   0.030
 3515W        W76583  36.991  11.724   2.328
 3516W        W76584  12.546  26.184  14.952
 3517W        W76585  28.464  17.406   2.695
 3518W        W76586  20.914  12.815  14.436
 3519W        W76587   4.906   1.202   0.080
 3520W        W76588  34.980  32.035  13.368
 3521W        W76589  32.602   1.438  11.192
 3522W        W76590  43.921  29.482   4.266
 3523W        W76591  30.220   5.160  12.216
 3524W        W76592   0.235  42.545   1.217
 3525W        W76593  43.650   7.527  13.497
 3526W        W76594  13.411  22.087   3.245
 3527W        W76595  20.434  10.717   0.367
 3528W        W76596  29.149   2.307  14.846
 3529W        W76597  18.278  38.570  10.673
 3530W        W76598  37.010  31.720  12.974
 3531W        W76599  36.010   4.325   1.452
 3532W        W76600  16.899   7.299   5.223
 3533W        W76601  10.714  28.153  13.143
 3534W        W76602  41.845  44.727   0.656
 3535W        W76603  36.073  41.863  11.982
 3536W        W76604  11.825   5.963   2.883
 3537W        W76605  30.091  34.801   1.277
 3538W        W76606  12.019  12.810  14.543
 3539W        W76607  18.092  12.389  10.958
 3540W        W76608   3.704   6.460  13.857
 3541W        W76609  26.563   0.825   3.674
 3542W        W76610  29.019  36.406   1.787
 3543W        W76611  38.075   0.352  14.185
 3544W        W76612  36.546  38.842  14.925
 3545W        W76613  11.587  11.194  13.562
 3546W        W76614  42.947  44.921  13.542
 3547W        W76615   8.842  22.136  11.419
 3548W        W76616  41.534  24.003  14.812
 3549W        W76617  33.045   2.220   3.881
 3550W        W76618  38.626  37.788   2.699
 3551W        W76619  33.370   6.392  10.719
 3552W        W76620  44.775   9.337  14.750
 3553W        W76621  11.857  32.525  13.461
 3554W        W76622  31.217  37.705   1.384
 3555W        W76623  12.364  28.568  14.856
 3556W        W76624  19.806  29.479   4.554
 3557W        W76625  13.642   0.793   0.057
 3558W        W76626  25.748  11.141   0.515
 3559W        W76627   1.025  16.089   0.794
 3560W        W76628  24.957   6.490  11.069
 3561W        W76629  22.620  13.121  12.789
 3562W        W76630  28.321  35.602  12.535
 3563W        W76631   3.900  24.765   2.039
 3564W        W76632  36.623   2.387  13.299
 3565W        W76633  37.566  20.744  11.584
 3566W        W76634  27.586   1.066  12.551
 3567W        W76635  12.768  31.342   2.733
 3568W        W76636  30.646   0.619   0.021
 3569W        W76637  37.025  28.523   0.502
 3570W        W76638  13.367   1.618  14.070
 3571W        W76639  14.727  15.863  11.213
 3572W        W76640  22.315   3.990  12.858
 3573W        W76641  10.432  25.340   3.633
 3574W        W76642  13.712   3.918  10.794
 3575W        W76643  13.760   1.261  10.340
 3576W        W76644  22.535  17.509  11.604
 3577W        W76645   9.390   4.434   2.422
 3578W        W76646  40.928  32.519  14.364
 3579W        W76647  14.118  30.680  13.330
 3580W        W76648  42.430  14.760  14.118
 3581W        W76649  32.425  43.495   4.169
 3582W        W76650   8.624  24.328  13.273
 3583W        W76651  15.175   2.541  12.851
 3584W        W76652  27.932   0.050   3.786
 3585W        W76653   3.202  22.615  11.981
 3586W        W76654  27.217  16.775   4.816
 3587W        W76655  35.974  29.211   0.915
 3588W        W76656   9.918  43.408  14.087
 3589W        W76657  25.222  14.184   0.820
 3590W        W76658  43.320  15.916   3.649
 3591W        W76659  44.055  29.978   3.831
 3592W        W76660  10.697  29.550  13.983
 3593W        W76661  28.383   3.320   1.311
 3594W        W76662   4.943   6.428  13.589
 3595W        W76663  39.839   1.348  10.697
 3596W        W76664  15.263  29.002   3.580
 3597W        W76665  17.714  37.101  10.545
 3598W        W76666   4.263  28.419   4.664
 3599W        W76667  33.871   0.533   3.238
 3600W        W76668  27.037  30.215  13.406
 3601W        W76669  24.098   0.515   1.433
 3602W        W76670  32.396  43.570  11.485
 3603W        W76671   5.655  12.869   3.655
 3604W        W76672   1.876   6.147   4.060
 3605W        W76673   0.188   6.488  14.019
 3606W        W76674   6.108  20.546   3.180
 3607W        W76675  20.953  33.317   1.811
 3608W        W76676  16.237  34.436  10.649
 3609W        W76677   6.179  43.232  13.652
 3610W        W76678  40.954  27.603   0.770
 3611W        W76679  21.208   0.609   2.398
 3612W        W76680  29.976  26.104  11.384
 3613W        W76681  27.859   7.939   4.383
 3614W        W76682  38.811  18.664   1.975
 3615W        W76683  25.568  11.170   0.025
 3616W        W76684  22.067  22.190   4.525
 3617W        W76685  15.143  23.990  12.957
 3618W        W76686  26.184  24.779  10.658
 3619W        W76687  42.231  19.945  11.098
 3620W        W76688  31.818  33.012  13.896
 3621W        W76689  12.355  33.341   1.293
 3622W        W76690  12.111  32.911   2.289
 3623W        W76691   6.025  12.900   0.919
 3624W        W76692  14.476  25.685  13.460
 3625W        W76693  36.019  27.000   2.717
 3626W        W76694  22.150  24.375  13.577
 3627W        W76695  24.368  24.278  13.286
 3628W        W76696  26.709  13.047  14.711
 3629W        W76697  28.679  18.364   4.430
 3630W        W76698  19.721   4.959  11.874
 3631W        W76699  43.542  38.428  12.079
 3632W        W76700  14.950   4.789   3.048
 3633W        W76701  19.721  14.439  14.550
 3634W        W76702  39.350   4.978   3.737
 3635W        W76703  24.841  29.578   0.834
 3636W        W76704  42.235  43.808  12.988
 3637W        W76705  20.785  36.040  10.676
 3638W        W76706  18.662  31.826  14.804
 3639W        W76707  11.193  40.450   4.239
 3640W        W76708  13.351   4.599  13.843
 3641W        W76709  11.676  12.233  11.817
 3642W        W76710  27.683  35.840  13.622
 3643W        W76711  11.632   4.805   0.776
 3644W        W76712  43.313   2.458   0.064
 3645W        W76713   0.027  33.058  12.603
 3646W        W76714   9.126   1.293  11.216
 3647W        W76715  11.527  19.565  13.663
 3648W        W76716  18.611  40.151   4.138
 3649W        W76717  17.806  33.589  10.742
 3650W        W76718  44.875  19.769  10.951
 3651W        W76719  37.341  14.375  14.393
 3652W        W76720  13.597  35.309   0.252
 3653W        W76721  19.899  44.014   0.380
 3654W        W76722  37.652  41.766   3.278
 3655W        W76723   3.776   9.071   1.285
 3656W        W76724  39.848  40.510   4.071
 3657W        W76725   8.059  37.881  13.266
 3658W        W76726  19.448  12.231   1.003
 3659W        W76727  26.233   9.540  12.850
 3660W        W76728  41.119  25.873  10.960
 3661W        W76729  28.594  29.031  14.972
 3662W        W76730  19.013   0.223   4.182
 3663W        W76731  13.698  12.675  14.370
 3664W        W76732  43.502  42.269   3.928
 3665W        W76733  39.964  23.335  13.148
 3666W        W76734  30.304   7.840  13.034
 3667W        W76735   6.739   8.380   2.721
 3668W        W76736  35.534  11.367  10.681
 3669W        W76737  44.258  14.215   1.502
 3670W        W76738  42.198  32.826  14.811
 3671W        W76739  22.640   4.275   3.951
 3672W        W76740  10.104  28.134  14.023
 3673W        W76741  32.524  15.928   5.040
 3674W        W76742  23.725  17.196   4.508
 3675W        W76743  28.629  18.586   1.858
 3676W        W76744  28.454  12.041   5.364
 3677W        W76745  27.650   0.967   0.543
 3678W        W76746   8.417   4.227  10.674
 3679W        W76747  40.832  24.700   3.332
 3680W        W76748  32.330  32.179   3.181
 3681W        W76749  41.859   8.110   4.263
 3682W        W76750  30.562  42.858   1.939
 3683W        W76751  21.566  14.060   4.198
 3684W        W76752  11.347  14.078  11.125
 3685W        W76753  30.943   3.160   1.783
 3686W        W76754  36.375  32.476   0.841
 3687W        W76755  27.260  20.477   4.453
 3688W        W76756  20.628  42.018   0.927
 3689W        W76757  44.453  40.699   1.097
 3690W        W76758  21.291  40.423  11.935
 3691W        W76759  32.636  39.045  11.281
 3692W        W76760  22.911  21.775  12.695
 3693W        W76761  19.832  28.609   4.903
 3694W        W76762  26.796  32.960   0.440
 3695W        W76763  32.393   8.916   4.096
 3696W        W76764  36.884  20.012   4.177
 3697W        W76765   4.398   5.718   1.268
 3698W        W76766  30.669  30.826  14.463
 3699W        W76767  13.249  15.406  11.230
 3700W        W76768   5.485  41.917   3.166
 3701W        W76769  14.445  36.697  14.660
 3702W        W76770  40.867  17.094   3.273
 3703W        W76771  32.429  41.370   0.377
 3704W        W76772  17.701  36.891  14.279
 3705W        W76773  10.775  23.935  11.029
 3706W        W76774   6.808  16.036   3.186
 3707W        W76775   8.616  37.767   4.662
 3708W        W76776  21.225   6.817  13.093
 3709W        W76777  30.030  26.219   1.925
 3710W        W76778  33.373  13.322  13.011
 3711W        W76779  43.544   9.589   0.529
 3712W        W76780   6.358  43.787  14.979
 3713W        W76781  21.484  38.956  12.721
 3714W        W76782   3.841   0.282  10.520
 3715W        W76783  20.579  44.870  11.731
 3716W        W76784  25.672  37.580   0.202
 3717W        W76785  27.954  17.714   4.629
 3718W        W76786  43.960   2.866  10.730
 3719W        W76787  24.397  36.476  13.883
 3720W        W76788  34.754  41.914  12.136
 3721W        W76789  31.412   0.951  11.863
 3722W        W76790   6.766  36.057  11.139
 3723W        W76791  25.584  22.826  14.626
 3724W        W76792  17.239  37.423  13.078
 3725W        W76793  11.221  27.765   4.586
 3726W        W76794  12.093   5.989  10.996
 3727W        W76795  16.782  17.469  10.676
 3728W        W76796  18.328  12.840   3.129
 3729W        W76797  24.102  17.327  14.073
 3730W        W76798  35.389  28.977   4.020
 3731W        W76799  28.787  26.671  11.632
 3732W        W76800  29.043   7.397   3.232
 3733W        W76801  13.953  25.213  11.176
 3734W        W76802   8.991  39.101   0.948
 3735W        W76803   7.761  27.636  11.014
 3736W        W76804   9.778   3.406   1.048
 3737W        W76805  28.868  23.190   1.959
 3738W        W76806   2.870  15.538  11.657
 3739W        W76807  13.326  17.577   1.627
 3740W        W76808  23.288  37.096   0.203
 3741W        W76809  41.012   0.912  14.365
 3742W        W76810  22.575  44.187   4.163
 3743W        W76811  37.429  22.971   1.322
 3744W        W76812  20.281  11.970  12.096
 3745W        W76813   2.848  32.430   4.550
 3746W        W76814  28.545   8.399   1.939
 3747W        W76815  31.347   2.523   0.434
 3748W        W76816  25.360   0.249   0.280
 3749W        W76817  12.869  34.159   1.315
 3750W        W76818  36.643  22.143   4.678
 3751W        W76819  30.422  10.641   2.245
 3752W        W76820  33.957  32.194   2.634
 3753W        W76821  29.443   8.634  12.016
 3754W        W76822  26.681  41.349  12.968
 3755W        W76823  10.835   8.223   3.203
 3756W        W76824  31.611  24.723   0.957
 3757W        W76825  42.929  38.219   3.662
 3758W        W76826  23.086  37.046   2.730
 3759W        W76827  41.375  14.603  11.145
 3760W        W76828  13.306  43.268  11.128
 3761W        W76829  40.659  40.365   0.795
 3762W        W76830  38.246  11.757  13.311
 3763W        W76831   0.804  11.583  11.141
 3764W        W76832  32.892   0.731  12.998
 3765W        W76833   9.885  31.723   1.694
 3766W        W76834  42.081  26.994  11.556
 3767W        W76835  42.819  14.394   4.175
 3768W        W76836  32.455  22.265   1.766
 3769W        W76837  15.882   8.745  12.194
 3770W        W76838  30.192   4.637  12.074
 3771W        W76839  41.263  37.107   4.131
 3772W        W76840  11.038   4.763   3.189
 3773W        W76841  19.634   5.566   3.769
 3774W        W76842  28.612   3.419   1.774
 3775W        W76843  18.031   6.066  13.619
 3776W        W76844  21.877  24.141  12.100
 3777W        W76845  12.870  37.351  11.601
 3778W        W76846  39.010  44.413   1.211
 3779W        W76847  33.110  38.594  14.926
 3780W        W76848  33.312   5.093   4.355
 3781W        W76849  18.540  32.076   1.504
 3782W        W76850  32.093  34.353   0.966
 3783W        W76851  25.681   2.465  13.060
 3784W        W76852  16.757  17.648   2.295
 3785W        W76853  32.689  43.318  13.838
 3786W        W76854  21.515  24.969  10.702
 3787W        W76855  17.316  34.498  12.379
 3788W        W76856   5.467  34.020  10.504
 3789W        W76857  14.248   2.948  12.070
 3790W        W76858   8.988  16.208   3.811
 3791W        W76859   3.747  38.066   3.128
 3792W        W76860  44.562  22.974  11.883
 3793W        W76861  26.994  14.162   0.367
 3794W        W76862  21.373  38.894   3.175
 3795W        W76863  20.802   7.762  12.128
 3796W        W76864  23.017  15.567  12.739
 3797W        W76865  17.141   8.685  11.943
 3798W        W76866  27.034   3.008   0.243
 3799W        W76867   0.906   9.003  10.949
 3800W        W76868   1.453   7.829  13.388
 3801W        W76869   1.695  43.308  14.869
 3802W        W76870  42.652  12.207   0.897
 3803W        W76871   0.254   5.484  11.516
 3804W        W76872  35.959  17.068   4.556
 3805W        W76873  13.886   9.742  10.711
 3806W        W76874   4.421  25.046  14.876
 3807W        W76875  26.400  32.617   3.739
 3808W        W76876  36.451  14.960  13.331
 3809W        W76877  18.686  34.953  13.391
 3810W        W76878  44.818  39.118  12.953
 3811W        W76879  15.698  36.548   2.684
 3812W        W76880  38.782  36.671  11.127
 3813W        W76881  24.144  30.467  11.649
 3814W        W76882  10.159   7.166   1.455
 3815W        W76883  21.241   6.720  14.421
 3816W        W76884  17.728  43.073  14.390
 3817W        W76885  37.001  16.879  14.295
 3818W        W76886  14.822  15.072  10.750
 3819W        W76887  29.244  21.153  13.989
 3820W        W76888   8.296  11.755   4.618
 3821W        W76889  17.382  23.733  13.775
 3822W        W76890   3.056  36.431  14.272
 3823W        W76891  18.514  25.077  14.868
 3824W        W76892  36.368   1.371   2.863
 3825W        W76893  16.587  18.479  10.575
 3826W        W76894   3.018  11.171  11.364
 3827W        W76895  16.247  30.053  12.989
 3828W        W76896   9.323  41.699  11.353
 3829W        W76897   4.022  37.863  12.474
 3830W        W76898  39.772   9.579  13.885
 3831W        W76899   3.608  12.480   1.705
 3832W        W76900   5.038  21.779   2.391
 3833W        W76901   7.437   7.394  10.657
 3834W        W76902  28.427  30.657  12.574
 3835W        W76903  20.144   8.140   0.314
 3836W        W76904  41.542  22.450  11.005
 3837W        W76905  30.531  16.317  11.072
 3838W        W76906  44.519  16.033  12.432
 3839W        W76907  27.773   9.907  11.699
 3840W        W76908   0.665  32.490  11.462
 3841W        W76909  21.236  31.082  14.098
 3842W        W76910  27.329  31.535  13.004
 3843W        W76911   1.980   0.832  14.040
 3844W        W76912  15.850  30.451   0.376
 3845W        W76913   2.989  24.565   2.132
 3846W        W76914  37.058  28.091  12.605
 3847W        W76915  31.495  37.354  14.920
 3848W        W76916  25.934  35.263   2.802
 3849W        W76917  20.738  38.427  12.390
 3850W        W76918  18.684   3.792   0.166
 3851W        W76919  10.824  22.699   3.832
 3852W        W76920  20.777  32.834  11.120
 3853W        W76921   7.946  16.255  11.611
 3854W        W76922  14.982   9.301  12.002
 3855W        W76923   2.836  38.649   3.138
 3856W        W76924  17.498  35.530   4.439
 3857W        W76925  17.766  25.641   3.812
 3858W        W76926  20.589   9.593  12.013
 3859W        W76927  34.900  27.438  12.169
 3860W        W76928  36.015  12.921  10.750
 3861W        W76929  43.029  26.077  12.150
 3862W        W76930  41.285   8.141  10.344
 3863W        W76931  19.560  29.743  10.810
 3864W        W76932  39.122  17.270  14.707
 3865W        W76933  25.992  13.118  11.705
 3866W        W76934  33.995  31.203  10.943
 3867W        W76935  29.517   3.030   1.817
 3868W        W76936  39.920  14.374  14.149
 3869W        W76937  31.559  24.127  10.820
 3870W        W76938  44.132  36.397   1.675
 3871W        W76939  41.087  25.211  10.566
 3872W        W76940  33.536  39.797  13.722
 3873W        W76941  44.920  21.910   2.249
 3874W        W76942  26.739  42.269   3.262
 3875W        W76943  14.259  37.306   4.589
 3876W        W76944  31.398  16.612   3.342
 3877W        W76945  37.582  33.349   3.672
 3878W        W76946  34.355  41.555   3.671
 3879W        W76947  12.144   0.878   2.820
 3880W        W76948  20.095  13.495   0.142
 3881W        W76949  20.504  32.127   2.095
 3882W        W76950  38.285  44.898  14.238
 3883W        W76951  20.992  35.878  11.131
 3884W        W76952  39.111  24.011   3.313
 3885W        W76953  42.636  41.376   1.403
 3886W        W76954  23.964  43.359  14.509
 3887W        W76955  41.490  29.954   2.275
 3888W        W76956   7.179  22.774   2.384
 3889W        W76957   1.733  41.876   4.493
 3890W        W76958  36.487   2.330   3.809
 3891W        W76959  18.261   4.815  13.541
 3892W        W76960   9.153  20.099  11.556
 3893W        W76961  40.030  23.488  14.458
 3894W        W76962   2.239  20.633  14.032
 3895W        W76963  31.887  28.845  13.474
 3896W        W76964  39.023   9.009   5.043
 3897W        W76965   3.438   4.539  14.784
 3898W        W76966   9.660   8.428   2.902
 3899W        W76967  36.661   0.481   1.746
 3900W        W76968  35.339  21.660   0.690
 3901W        W76969   7.366  23.236   2.827
 3902W        W76970  27.727  13.796  13.482
 3903W        W76971   1.375   4.474  14.404
 3904W        W76972  13.617  24.411   4.640
 3905W        W76973  16.758  31.448  13.277
 3906W        W76974  41.960  37.074  13.324
 3907W        W76975  22.095  36.648   1.296
 3908W        W76976  19.724  32.774  12.915
 3909W        W76977   0.938  28.860  11.464
 3910W        W76978  23.876  30.452  14.376
 3911W        W76979  11.648  23.559   0.279
 3912W        W76980  19.992  12.202  10.769
 3913W        W76981  25.518  10.087   1.981
 3914W        W76982  19.262  26.041   0.239
 3915W        W76983   9.430  35.527   2.531
 3916W        W76984   1.461  31.969   1.766
 3917W        W76985  44.025  24.370  13.307
 3918W        W76986  29.618  44.933  14.432
 3919W        W76987  10.857  28.936  13.703
 3920W        W76988   7.225  11.215   1.537
 3921W        W76989  15.101  19.291  12.406
 3922W        W76990  37.610  11.233  14.523
 3923W        W76991  20.817  17.103  14.770
 3924W        W76992  24.223  37.313  12.563
 3925W        W76993  28.184  15.706   2.727
 3926W        W76994  42.385  15.704  13.112
 3927W        W76995  14.399  37.647  13.649
 3928W        W76996  44.235  10.394  12.439
 3929W        W76997   1.455   7.030   3.604
 3930W        W76998  37.394  25.032  13.957
 3931W        W76999   7.668  38.052  14.865
 3932W        W77000  35.649  24.043  10.587
 3933W        W77001   1.297  42.286   3.645
 3934W        W77002  23.454  21.939  11.569
 3935W        W77003  20.994  16.322   1.812
 3936W        W77004   9.853  36.687   2.144
 3937W        W77005  16.560  35.174  12.036
 3938W        W77006  33.992  31.402  11.420
 3939W        W77007  11.662   0.025   1.972
 3940W        W77008   7.463  38.433   4.592
 3941W        W77009  22.730  43.492  11.899
 3942W        W77010  29.361  11.571  14.952
 3943W        W77011  32.857  22.222   0.438
 3944W        W77012   0.534  44.508   1.737
 3945W        W77013  35.972  19.993   1.408
 3946W        W77014  20.149  35.569   0.817
 3947W        W77015   2.371  14.664   4.919
 3948W        W77016   8.029  37.328  12.390
 3949W        W77017  24.641  33.988   2.639
 3950W        W77018  36.780  26.349  10.813
 3951W        W77019  19.273  23.082   2.676
 3952W        W77020  16.803  22.986  13.777
 3953W        W77021  17.887  23.841   1.903
 3954W        W77022   9.342  12.376  11.657
 3955W        W77023  14.370  21.999  10.727
 3956W        W77024   7.827  23.268   3.128
 3957W        W77025  11.411   1.005  11.119
 3958W        W77026  44.392  32.900   3.740
 3959W        W77027  15.757  36.542   3.644
 3960W        W77028  24.501  10.763  11.327
 3961W        W77029  14.288  44.726  12.722
 3962W        W77030  36.159  17.327  11.643
 3963W        W77031  10.617  13.160   4.084
 3964W        W77032  37.005  33.445   4.563
 3965W        W77033  19.265  33.056   0.863
 3966W        W77034  15.217  10.897   4.181
 3967W        W77035  35.909  12.320   2.749
 3968W        W77036  41.265   1.910  12.985
 3969W        W77037  28.724  17.854   2.323
 3970W        W77038  41.566  17.986  11.989
 3971W        W77039  11.218  21.134  13.571
 3972W        W77040  28.393  23.969  11.602
 3973W        W77041  19.198  30.395  11.699
 3974W        W77042   2.248   4.349   1.825
 3975W        W77043   2.437  32.604   4.872
 3976W        W77044  43.894  35.588  14.468
 3977W        W77045  38.458  11.270  14.781
 3978W        W77046  28.153  28.991  14.691
 3979W        W77047  17.785  19.542  12.961
 3980W        W77048  42.878  40.906  14.277
 3981W        W77049  42.778  44.192   4.205
 3982W        W77050  32.419  19.578  13.306
 3983W        W77051  35.118  14.217  14.874
 3984W        W77052  37.871  33.561   2.734
 3985W        W77053  20.648  17.040   0.745
 3986W        W77054  26.991   8.521   1.824
 3987W        W77055  41.616  43.039  14.304
 3988W        W77056  41.830  37.453  12.973
 3989W        W77057  15.987   6.920   0.030
 3990W        W77058  15.780   3.536   3.362
 3991W        W77059   6.233  13.781   2.934
 3992W        W77060   6.435   7.569  11.086
 3993W        W77061  22.699  23.403  11.235
 3994W        W77062   0.810  39.521   4.114
 3995W        W77063  28.938  37.168  12.891
 3996W        W77064  28.829   1.624  11.481
 3997W        W77065  11.354  40.608   1.826
 3998W        W77066   8.161   0.263  13.830
 3999W        W77067   8.180  17.917  11.717
 4000W        W77068  18.405  37.810  10.628
 4001W        W77069  15.331  42.724   1.958
 4002W        W77070   0.090  13.246   2.634
 4003W        W77071  23.570   2.493  14.685
 4004W        W77072  21.163  27.761   4.563
 4005W        W77073   5.438  21.844  13.919
 4006W        W77074  16.910   9.888   1.826
 4007W        W77075  31.664  30.186  11.072
 4008W        W77076   2.242  34.693   0.986
 4009W        W77077  30.699  16.974  13.535
 4010W        W77078  21.624  24.066   4.676
 4011W        W77079  44.305   6.699  13.908
 4012W        W77080   7.237  37.602   1.658
 4013W        W77081   2.122  18.232   4.658
 4014W        W77082  38.416   2.129  12.257
 4015W        W77083  35.983  13.093   2.206
 4016W        W77084  20.235  29.489   4.227
 4017W        W77085  23.650  42.409  12.895
 4018W        W77086  31.409   9.734  11.480
 4019W        W77087  13.400  14.230   3.585
 4020W        W77088  22.399   4.110  13.342
 4021W        W77089  44.693  10.093  13.115
 4022W        W77090   7.398  31.679  10.632
 4023W        W77091  33.070  30.743  13.436
 4024W        W77092  21.503  10.104   3.693
 4025W        W77093  40.958  20.012  10.704
 4026W        W77094  24.208  34.507  12.344
 4027W        W77095  15.072  13.321  11.514
 4028W        W77096  39.174  22.164   0.496
 4029W        W77097  43.918  44.225   4.996
 4030W        W77098  42.558   3.461  12.691
 4031W        W77099  16.128  18.271   1.347
 4032W        W77100   2.820  15.507  14.178
 4033W        W77101   0.917   8.396   2.448
 4034W        W77102  13.226  28.423  12.911
 4035W        W77103  34.853  43.853  11.701
 4036W        W77104   7.311  27.891  11.072
 4037W        W77105  30.969  28.002   0.266
 4038W        W77106  12.474  16.049  14.879
 4039W        W77107  29.100   2.505   3.817
 4040W        W77108  43.783  20.158  12.589
 4041W        W77109  16.716  28.094   4.494
 4042W        W77110  10.965  16.370  14.012
 4043W        W77111  15.453   9.648  10.792
 4044W        W77112   3.377   9.608   4.415
 4045W        W77113  16.279  15.764  13.455
 4046W        W77114   4.829  17.522  13.400
 4047W        W77115  11.793  27.063  12.002
 4048W        W77116   3.165  33.542  11.898
 4049W        W77117  34.143  36.066   3.066
 4050W        W77118  44.223  36.486   4.200
 4051W        W77119   5.309  24.888   1.272
 4052W        W77120  38.881  43.778  10.593
 4053W        W77121  27.733  30.375  14.035
 4054W        W77122  25.193   0.152  11.105
 4055W        W77123  12.564  41.469  11.112
 4056W        W77124  28.230  19.973  11.626
 4057W        W77125  38.589   8.122   0.990
 4058W        W77126  13.300  20.547   4.347
 4059W        W77127  34.435  23.070   3.750
 4060W        W77128   1.774  30.394   1.368
 4061W        W77129  38.927  43.546  13.550
 4062W        W77130  35.301  18.297   0.346
 4063W        W77131  44.520  42.691  10.378
 4064W        W77132  20.498  36.526  10.702
 4065W        W77133  25.491   8.811   1.704
 4066W        W77134  28.395  31.009  10.834
 4067W        W77135  29.997  32.371   0.295
 4068W        W77136  16.795  13.606   3.091
 4069W        W77137  30.477   9.776   2.665
 4070W        W77138  15.325   9.355  14.820
 4071W        W77139  18.148  19.990  11.076
 4072W        W77140  22.024  32.281  12.936
 4073W        W77141  23.689  40.842   1.832
 4074W        W77142  14.353   1.329   2.698
 4075W        W77143  39.932  18.252  13.088
 4076W        W77144  42.008   0.868  14.541
 4077W        W77145  41.844  27.128   3.297
 4078W        W77146   5.559   8.906   0.413
 4079W        W77147   5.484  16.237   3.727
 4080W        W77148   3.734  28.608   1.665
 4081W        W77149   1.703  22.273   4.250
 4082W        W77150  23.128  42.915  12.349
 4083W        W77151  39.864  10.052   4.059
 4084W        W77152  18.235   3.844  11.868
 4085W        W77153  27.105  41.982  14.012
 4086W        W77154  29.427  30.306  14.150
 4087W        W77155  43.542  10.394   2.182
 4088W        W77156  40.462  21.811  14.820
 4089W        W77157   7.115  40.186  13.408
 4090W        W77158   5.794  21.093   3.165
 4091W        W77159  12.822  10.919   3.263
 4092W        W77160   1.881  35.427  12.422
 4093W        W77161  13.653  29.519   1.670
 4094W        W77162  41.066  40.139  11.993
 4095W        W77163  14.153   6.653  14.976
 4096W        W77164  33.853  33.380   1.369
 4097W        W77165  31.699  39.169   1.417
 4098W        W77166  20.663   5.828   0.917
 4099W        W77167  43.597  34.015   3.993
 4100W        W77168  27.990  33.576   2.368
 4101W        W77169  39.265  26.800  11.605
 4102W        W77170  10.636  28.251   0.793
 4103W        W77171  39.488  24.293  11.596
 4104W        W77172  41.400   5.708   4.206
 4105W        W77173  31.064  31.691   3.797
 4106W        W77174  34.547  20.723   4.724
 4107W        W77175  13.762  35.376   3.224
 4108W        W77176  23.429  13.711  12.620
 4109W        W77177  23.598  29.353   4.879
 4110W        W77178   7.390   7.088   1.597
 4111W        W77179   8.225  40.916   1.784
 4112W        W77180   9.732  11.291  13.801
 4113W        W77181   9.851  12.412   0.751
 4114W        W77182  19.524   8.712  12.449
 4115W        W77183  36.075  10.330   0.496
 4116W        W77184  38.188   0.002  12.427
 4117W        W77185  40.867  31.927   3.522
 4118W        W77186  18.281  22.164   3.018
 4119W        W77187   7.177   1.850  13.821
 4120W        W77188   8.653  22.737   3.377
 4121W        W77189  30.549  14.796   0.178
 4122W        W77190  38.005  30.517   4.432
 4123W        W77191  27.123  15.195  12.910
 4124W        W77192   4.479  31.624  14.418
 4125W        W77193   0.007   3.212   4.226
 4126W        W77194  26.752  30.560  13.907
 4127W        W77195  41.752  21.082  11.496
 4128W        W77196   7.861  22.537  11.110
 4129W        W77197   8.666  34.948  10.682
 4130W        W77198  31.605  35.170   3.232
 4131W        W77199   8.799   9.896   0.803
 4132W        W77200  16.775  35.525   2.765
 4133W        W77201   1.780  21.543   0.794
 4134W        W77202  18.128  20.544   0.056
 4135W        W77203  17.169  36.490  11.782
 4136W        W77204  23.903  29.843  12.012
 4137W        W77205  40.205  44.325   3.208
 4138W        W77206   4.379  38.268   1.413
 4139W        W77207  26.511  38.347  14.301
 4140W        W77208  38.425  18.217  14.936
 4141W        W77209  41.165  28.363   3.569
 4142W        W77210  17.749  38.665   0.004
 4143W        W77211  22.982  30.361  13.382
 4144W        W77212   1.279  35.327  14.903
 4145W        W77213  29.721   0.752  11.170
 4146W        W77214   1.681  39.438  11.400
 4147W        W77215   7.667  42.430   4.272
 4148W        W77216   7.929  22.328   4.352
 4149W        W77217  25.575  25.549   2.995
 4150W        W77218  23.559   9.169   3.489
 4151W        W77219  21.672   0.861   3.643
 4152W        W77220  20.668  22.278   4.567
 4153W        W77221   1.049  42.960  13.531
 4154W        W77222   6.232  26.882   1.313
 4155W        W77223  20.290  11.169   1.890
 4156W        W77224   4.854  31.727  12.408
 4157W        W77225  29.065  21.483   2.639
 4158W        W77226   5.756  39.367   2.270
 4159W        W77227  29.878  12.733  10.906
 4160W        W77228  33.533  14.769  11.805
 4161W        W77229  37.318  16.185   1.527
 4162W        W77230  29.098  12.545  11.150
 4163W        W77231   3.910  27.768   4.152
 4164W        W77232  24.504  31.182   0.791
 4165W        W77233  38.083  25.703   2.381
 4166W        W77234   1.834  30.485   4.831
 4167W        W77235   6.424  23.213  11.637
 4168W        W77236  36.562   5.254   3.947
 4169W        W77237  10.748  16.180  13.577
 4170W        W77238  11.849  36.019  14.576
 4171W        W77239   9.769  37.451   1.979
 4172W        W77240  26.687  38.985   1.354
 4173W        W77241   5.383  28.975   0.347
 4174W        W77242   9.135   6.164  10.690
 4175W        W77243  19.613  38.624   4.399
 4176W        W77244  12.769  20.480   2.139
 4177W        W77245   2.158  31.340   1.343
 4178W        W77246  21.074   9.185   4.099
 4179W        W77247  22.648  11.243  13.477
 4180W        W77248   7.608  25.168  12.914
 4181W        W77249   2.736  17.111  10.678
 4182W        W77250  30.838   3.815   0.306
 4183W        W77251  22.998  14.743   4.502
 4184W        W77252  28.276  26.733  11.654
 4185W        W77253  33.844  30.127   2.321
 4186W        W77254   2.775  29.776  13.799
 4187W        W77255  44.246  43.800  11.460
 4188W        W77256   0.195  38.784   1.826
 4189W        W77257  21.149  42.537   2.113
 4190W        W77258  22.782   1.559   2.586
 4191W        W77259  11.687  44.089  12.617
 4192W        W77260  26.178   8.734  12.654
 4193W        W77261  10.140  17.155   1.219
 4194W        W77262  12.596   0.279  12.420
 4195W        W77263  34.476  32.578   1.189
 4196W        W77264   3.278  20.630  11.731
 4197W        W77265  24.708   8.561   3.098
 4198W        W77266  13.413  16.796   3.614
 4199W        W77267  35.974  15.789  12.463
 4200W        W77268  44.505  43.828   2.237
 4201W        W77269  44.885  42.839  13.347
 4202W        W77270  25.368   1.350   2.773
 4203W        W77271  28.613  32.341   2.574
 4204W        W77272  37.891  25.990  13.993
 4205W        W77273   9.887  21.161   4.147
 4206W        W77274  21.189  44.482   4.502
 4207W        W77275  15.177  33.113   0.680
 4208W        W77276  36.621  12.764   3.185
 4209W        W77277  31.651  28.409  11.417
 4210W        W77278   6.643  11.721  11.113
 4211W        W77279  23.658   2.828  11.274
 4212W        W77280  36.006   4.248  10.757
 4213W        W77281  23.027  27.889  11.563
 4214W        W77282  30.579  35.526  10.575
 4215W        W77283   8.956  32.186   3.213
 4216W        W77284  34.199  16.831   2.208
 4217W        W77285  25.314  42.864  13.426
 4218W        W77286   6.914  31.580   0.961
 4219W        W77287  19.697   8.705  11.947
 4220W        W77288  32.064  42.364  13.265
 4221W        W77289   4.384  21.481   4.586
 4222W        W77290   6.843  19.036   0.816
 4223W        W77291  24.573  40.079  11.821
 4224W        W77292  30.046  30.065   4.594
 4225W        W77293  40.461  11.719   3.624
 4226W        W77294  18.850  31.579   5.002
 4227W        W77295  14.670   1.529   4.060
 4228W        W77296   6.006  35.976  12.805
 4229W        W77297  35.079  23.281  14.300
 4230W        W77298   8.955  42.434  12.525
 4231W        W77299  28.088   3.191  13.983
 4232W        W77300  32.180  13.336  14.262
 4233W        W77301  23.829  22.116   4.201
 4234W        W77302   9.347  33.064   3.470
 4235W        W77303  43.000   7.757  10.446
 4236W        W77304  15.279  44.840  13.929
 4237W        W77305  27.297  24.188   1.086
 4238W        W77306  14.783  42.721   1.268
 4239W        W77307   8.618  37.569   0.225
 4240W        W77308  32.963  34.640   0.453
 4241W        W77309  10.355  40.289  12.958
 4242W        W77310  28.023  11.904   4.613
 4243W        W77311  22.371  44.055  11.092
 4244W        W77312  16.634  36.981   4.563
 4245W        W77313  34.379   0.405   3.366
 4246W        W77314  41.432  41.834  14.540
 4247W        W77315  37.720  15.556  10.894
 4248W        W77316   7.321  15.772  11.544
 4249W        W77317  31.425  44.293  10.504
 4250W        W77318  32.597  11.280   0.793
 4251W        W77319   7.477  22.201   3.729
 4252W        W77320  35.869  10.732   4.726
 4253W        W77321  23.066  38.752   3.856
 4254W        W77322  18.566   3.954   1.261
 4255W        W77323  39.584  44.877  11.089
 4256W        W77324  16.615   1.364  12.931
 4257W        W77325   5.041   5.467   3.341
 4258W        W77326  34.361  23.569   3.327
 4259W        W77327  14.383  20.257   0.179
 4260W        W77328  41.879   0.368  10.607
 4261W        W77329  18.170  22.495  10.442
 4262W        W77330  31.036  38.019   4.563
 4263W        W77331  12.959  38.230   1.319
 4264W        W77332  41.635  18.827   0.468
 4265W        W77333  30.840  26.695  12.522
 4266W        W77334  15.173  26.529   0.814
 4267W        W77335  34.000  17.017   0.848
 4268W        W77336  33.554   4.985   2.623
 4269W        W77337  41.535  29.496   4.792
 4270W        W77338  20.004   2.424   4.271
 4271W        W77339   3.771  17.140   1.959
 4272W        W77340  20.172  25.182   3.037
 4273W        W77341  17.504  43.776   0.685
 4274W        W77342  37.471  39.479  10.865
 4275W        W77343  28.554  11.311  13.053
 4276W        W77344  36.142  31.341   5.109
 4277W        W77345  13.592   8.884   4.113
 4278W        W77346  39.581  41.079  12.914
 4279W        W77347  20.048  16.307   2.270
 4280W        W77348  11.740  27.330  12.618
 4281W        W77349  27.377  26.220   0.378
 4282W        W77350   4.384   6.949  12.515
 4283W        W77351  26.974  23.467   3.805
 4284W        W77352  18.736  40.632   3.240
 4285W        W77353   4.807  39.430  11.210
 4286W        W77354   5.351  22.708   3.239
 4287W        W77355  13.496  43.602  11.983
 4288W        W77356  23.711  30.884  13.917
 4289W        W77357   4.736  17.803   3.813
 4290W        W77358  35.481  34.725  11.869
 4291W        W77359  19.569  24.551  12.953
 4292W        W77360  11.977   1.694  11.868
 4293W        W77361  44.350  15.245  14.407
 4294W        W77362  41.729   0.690   4.143
 4295W        W77363  34.038  42.395  12.985
 4296W        W77364  41.260  36.198   2.168
 4297W        W77365  43.802  23.486   2.621
 4298W        W77366  32.067  43.667  10.745
 4299W        W77367  33.548  30.068  14.243
 4300W        W77368   3.216  37.790   1.525
 4301W        W77369  28.859   2.281  11.214
 4302W        W77370  22.056  28.211  11.568
 4303W        W77371  29.951  43.296   0.485
 4304W        W77372  30.457  36.821  12.818
 4305W        W77373   0.546  16.654   1.781
 4306W        W77374  39.292  19.093   0.220
 4307W        W77375  30.087  25.720   0.304
 4308W        W77376   9.281  17.549  14.387
 4309W        W77377   9.862  31.145  11.424
 4310W        W77378  44.952  44.008   1.347
 4311W        W77379  21.490  32.567  11.559
 4312W        W77380  24.270   1.573   1.725
 4313W        W77381   4.353   6.172  14.991
 4314W        W77382  41.906  18.494   2.621
 4315W        W77383  25.030  39.263  11.489
 4316W        W77384   9.192   5.927   1.413
 4317W        W77385   2.808  33.529   1.181
 4318W        W77386  13.386   7.397  11.136
 4319W        W77387  13.938  25.516  13.787
 4320W        W77388   5.267   3.836   0.257
 4321W        W77389  24.176   2.156   1.864
 4322W        W77390   8.358  38.230   3.313
 4323W        W77391  33.401  39.339  13.386
 4324W        W77392  25.599  37.649  12.265
 4325W        W77393  28.023  26.676   2.328
 4326W        W77394  41.915  23.529  10.718
 4327W        W77395  33.494  13.320  13.867
 4328W        W77396  14.461  13.615   0.639
 4329W        W77397  19.243   9.745   3.739
 4330W        W77398   7.187  24.129   4.844
 4331W        W77399  23.813  41.311   3.585
 4332W        W77400  28.456  32.021  14.371
 4333W        W77401  10.824   9.296   3.600
 4334W        W77402  34.597   3.254   1.776
 4335W        W77403   4.760  33.531  14.560
 4336W        W77404   4.174   0.299  14.206
 4337W        W77405  21.826  26.967   1.974
 4338W        W77406   3.394  24.930   3.678
 4339W        W77407   6.703   5.116   0.317
 4340W        W77408  38.870  19.053  12.451
 4341W        W77409  26.200  25.727   0.835
 4342W        W77410  36.348  23.285  13.561
 4343W        W77411   4.469   2.983   4.253
 4344W        W77412  35.129   2.243  13.309
 4345W        W77413  31.890  43.523  14.507
 4346W        W77414  28.617  17.578   0.365
 4347W        W77415  29.203  40.481  13.027
 4348W        W77416  29.550  37.573   3.682
 4349W        W77417  43.807   9.564   1.688
 4350W        W77418  17.073  27.197  12.101
 4351W        W77419  39.595  21.103  10.001
 4352W        W77420   4.793  37.561   3.027
 4353W        W77421  15.549  34.611   0.389
 4354W        W77422   3.291  24.691  14.299
 4355W        W77423  11.232  32.690   3.141
 4356W        W77424  15.007   1.779  13.859
 4357W        W77425   8.937  33.557  12.488
 4358W        W77426   5.393  25.119  13.509
 4359W        W77427  41.972  16.980   0.337
 4360W        W77428   0.199  16.275   3.584
 4361W        W77429  11.709  22.017   2.449
 4362W        W77430  25.694  21.017   4.583
 4363W        W77431   8.673   2.233  11.125
 4364W        W77432  26.126  42.090   1.445
 4365W        W77433   0.441  44.081  12.076
 4366W        W77434  12.293  19.711  12.944
 4367W        W77435  17.140  32.545  10.631
 4368W        W77436  32.596   8.755  13.421
 4369W        W77437   2.989   8.990   0.191
 4370W        W77438   1.076  29.041  11.909
 4371W        W77439  36.407  13.949   0.348
 4372W        W77440  17.722   9.018  13.217
 4373W        W77441  20.635  28.549  10.660
 4374W        W77442  29.593  33.639  14.891
 4375W        W77443  14.029  31.264   5.005
 4376W        W77444  17.047  28.098  10.695
 4377W        W77445   9.701  26.692  14.156
 4378W        W77446   3.514  41.863  14.308
 4379W        W77447  35.875  24.018   3.794
 4380W        W77448  21.119  43.582  13.471
 4381W        W77449  39.638  11.710  14.466
 4382W        W77450  35.879  44.006   1.768
 4383W        W77451   6.899  20.333   4.758
 4384W        W77452  24.058  41.002   3.952
 4385W        W77453  22.472  32.466   0.830
 4386W        W77454  18.006  39.107   2.736
 4387W        W77455  19.502  29.415  12.149
 4388W        W77456  15.352  41.751   2.346
 4389W        W77457  19.180  15.721   2.352
 4390W        W77458  26.779   9.268   5.142
 4391W        W77459   0.283  38.328   4.536
 4392W        W77460   7.331   2.222  14.775
 4393W        W77461  44.315  40.776  12.465
 4394W        W77462  36.383  19.499   1.777
 4395W        W77463  40.934  37.322  12.601
 4396W        W77464   1.347  16.109  12.050
 4397W        W77465  24.078  43.981  12.359
 4398W        W77466  19.759  37.350   3.873
 4399W        W77467  32.540  13.871   0.500
 4400W        W77468  35.479  14.757  11.402
 4401W        W77469  28.439   8.602   3.883
 4402W        W77470  31.669  30.396  10.566
 4403W        W77471   2.784  39.286   4.501
 4404W        W77472  37.536   0.249   0.340
 4405W        W77473   3.633  15.375  11.225
 4406W        W77474  35.640   5.609   0.737
 4407W        W77475   6.146   8.885  10.716
 4408W        W77476  23.466  24.531   1.966
 4409W        W77477   1.491  14.158  10.696
 4410W        W77478   0.040  20.263   0.307
 4411W        W77479  40.478  43.855  12.139
 4412W        W77480   9.874  43.921   3.130
 4413W        W77481  38.070  44.166   1.853
 4414W        W77482  26.803   3.150   1.937
 4415W        W77483  25.498  23.795  11.198
 4416W        W77484  11.860  16.176   5.179
 4417W        W77485  35.868  35.958  10.667
 4418W        W77486  43.324  21.060  11.400
 4419W        W77487   0.301   5.880  12.689
 4420W        W77488  39.883  19.251  14.599
 4421W        W77489  14.693  42.987  13.942
 4422W        W77490  16.302  42.730  12.205
 4423W        W77491  14.237  28.852   4.088
 4424W        W77492  33.563  41.407   3.227
 4425W        W77493   5.310  42.304   0.366
 4426W        W77494  10.005  12.901  11.989
 4427W        W77495   7.302  32.692  13.601
 4428W        W77496  23.058  41.888  11.584
 4429W        W77497  12.392  19.837   1.347
 4430W        W77498  22.191  12.418  13.304
 4431W        W77499  23.549  16.068   1.844
 4432W        W77500  23.464  16.755  10.655
 4433W        W77501  10.227  26.789  11.027
 4434W        W77502   7.236  16.588   3.726
 4435W        W77503  14.889   8.871  13.786
 4436W        W77504   5.706  27.242  14.140
 4437W        W77505  25.099   2.968   3.288
 4438W        W77506  24.895  10.816   1.057
 4439W        W77507  24.164   3.112  12.453
 4440W        W77508  16.330  14.236  12.917
 4441W        W77509  38.641  31.963  12.620
 4442W        W77510  36.988  30.644   4.777
 4443W        W77511   9.178  19.514   1.643
 4444W        W77512  24.169  20.251   1.891
 4445W        W77513   5.215  11.846   3.243
 4446W        W77514   6.888  33.781   4.791
 4447W        W77515  23.217  13.101  14.436
 4448W        W77516  13.267  43.531   4.039
 4449W        W77517  20.198   9.215  12.834
 4450W        W77518  32.073   7.800   2.848
 4451W        W77519   3.038  14.913   1.674
 4452W        W77520  31.942   8.714  12.824
 4453W        W77521  24.218  39.496  10.156
 4454W        W77522  24.310   1.862   3.484
 4455W        W77523  36.908  24.996  14.744
 4456W        W77524  34.338  27.210  14.788
 4457W        W77525   6.760  38.012  11.162
 4458W        W77526   2.921  23.326  14.086
 4459W        W77527  38.870  16.552  11.935
 4460W        W77528  27.646  44.702   1.252
 4461W        W77529  31.957  18.346   1.443
 4462W        W77530  34.931  17.700  10.710
 4463W        W77531   6.488  30.250   4.287
 4464W        W77532  11.310  27.401   3.217
 4465W        W77533  23.278   7.871   0.908
 4466W        W77534  18.064  16.219  13.483
 4467W        W77535  33.129  40.352   1.357
 4468W        W77536  10.156  44.453   4.621
 4469W        W77537  44.600  20.282   3.479
 4470W        W77538  42.680  43.580  13.681
 4471W        W77539  43.272  32.515  12.514
 4472W        W77540  22.117  37.905   0.687
 4473W        W77541  16.728  38.928  12.369
 4474W        W77542   6.279  37.442   1.897
 4475W        W77543   0.552  25.037   4.517
 4476W        W77544  38.003  22.534  14.941
 4477W        W77545  36.585   5.745  13.991
 4478W        W77546  20.668   3.353   3.065
 4479W        W77547  17.634   8.589   3.655
 4480W        W77548  19.008  20.797  12.328
 4481W        W77549  43.801  16.209   0.520
 4482W        W77550  13.983  35.106  14.327
 4483W        W77551  17.850  38.996  13.054
 4484W        W77552  38.290  23.561   1.713
 4485W        W77553   4.657  10.387  12.607
 4486W        W77554  26.932   4.442  12.915
 4487W        W77555  16.709  14.844   3.918
 4488W        W77556  36.167  25.504  12.976
 4489W        W77557  13.316  24.029   0.276
 4490W        W77558  40.373  40.265   0.350
 4491W        W77559  42.485  42.790  12.126
 4492W        W77560  37.607  32.113  12.510
 4493W        W77561  25.740  40.564   3.209
 4494W        W77562  44.854  38.666   3.277
 4495W        W77563  29.312  33.705   0.771
 4496W        W77564   5.544   4.634  10.899
 4497W        W77565   9.254  22.203   4.060
 4498W        W77566  36.821  35.540   4.768
 4499W        W77567  38.545  32.819  14.523
 4500W        W77568  40.886  43.034  13.357
 4501W        W77569  31.160   3.131   4.560
 4502W        W77570  19.245  10.073   0.655
 4503W        W77571   6.869   5.301   0.788
 4504W        W77572  44.444   1.814   3.351
 4505W        W77573  18.693   5.835   2.268
 4506W        W77574  44.405   6.335   1.437
 4507W        W77575  41.455   6.910   2.656
 4508W        W77576  25.136   1.429  13.321
 4509W        W77577   4.831  37.198   2.648
 4510W        W77578   9.450  16.829   0.075
 4511W        W77579  29.426   0.761  12.427
 4512W        W77580   4.303  40.104   4.530
 4513W        W77581   1.349  16.258  14.856
 4514W        W77582  25.696  38.047   3.683
 4515W        W77583  36.572   9.638  13.260
 4516W        W77584  17.085  12.229   4.312
 4517W        W77585  43.939  22.513   3.247
 4518W        W77586  19.822   0.271  11.553
 4519W        W77587  23.222  43.723  14.183
 4520W        W77588  15.341  20.229  13.991
 4521W        W77589  39.133  43.932   0.037
 4522W        W77590  24.159  37.443   1.534
 4523W        W77591   9.288  30.593   2.269
 4524W        W77592   1.334  30.884  10.631
 4525W        W77593  17.214  22.991  10.414
 4526W        W77594  35.006   1.988  12.425
 4527W        W77595  38.505  23.488   2.207
 4528W        W77596  37.522  34.557  11.603
 4529W        W77597  20.497  39.921  11.967
 4530W        W77598   9.778   0.350  10.566
 4531W        W77599  42.486  35.561  13.210
 4532W        W77600  11.001   0.500   1.908
 4533W        W77601  17.542  32.409  10.932
 4534W        W77602  31.876   3.639   4.239
 4535W        W77603  42.449  13.474  11.206
 4536W        W77604   6.360  21.269  12.004
 4537W        W77605  21.110  26.647  11.652
 4538W        W77606  38.377   1.745   2.289
 4539W        W77607  20.094  10.709   4.097
 4540W        W77608   5.023   2.279  13.746
 4541W        W77609  38.460  41.279  13.315
 4542W        W77610  25.550  19.804   0.318
 4543W        W77611   5.931  33.127  13.883
 4544W        W77612  40.500   7.678   0.010
 4545W        W77613  27.398  29.895  13.259
 4546W        W77614   5.364  31.993   4.142
 4547W        W77615  10.348  23.592  10.221
 4548W        W77616  39.537  32.525   0.361
 4549W        W77617  19.260  31.506   2.224
 4550W        W77618  15.322   8.969   0.788
 4551W        W77619  16.704   4.746   1.227
 4552W        W77620   6.677  23.656   2.426
 4553W        W77621  25.873  34.686   1.706
 4554W        W77622  21.787  39.923  10.506
 4555W        W77623  41.965   7.549  11.176
 4556W        W77624  40.822  39.067   0.248
 4557W        W77625  40.636   3.361  14.166
 4558W        W77626   0.840  29.435  12.935
 4559W        W77627  13.101  44.353  14.393
 4560W        W77628  38.206   6.314  10.151
 4561W        W77629  24.596  44.203   3.440
 4562W        W77630  20.203   5.251   0.821
 4563W        W77631  42.869   8.351   0.859
 4564W        W77632  18.980  16.067  12.522
 4565W        W77633  36.194  14.291   1.899
 4566W        W77634  41.975  29.753   2.227
 4567W        W77635  21.054  40.328   0.802
 4568W        W77636  37.293  15.130  13.902
 4569W        W77637  39.986  33.366  11.938
 4570W        W77638  18.760  25.165   0.471
 4571W        W77639  30.826   0.224  10.721
 4572W        W77640   1.324  22.046  14.055
 4573W        W77641   0.320  39.475   4.399
 4574W        W77642  15.751  27.212   1.655
 4575W        W77643  23.257  39.481   3.236
 4576W        W77644   0.369  32.125   4.117
 4577W        W77645  32.792  26.464   3.579
 4578W        W77646  35.831  18.816  11.647
 4579W        W77647  43.189  43.445   0.017
 4580W        W77648  44.691  30.499  13.869
 4581W        W77649  25.710  11.151  10.597
 4582W        W77650  26.376   3.686  14.935
 4583W        W77651  30.411  36.807  12.303
 4584W        W77652   2.439  38.482   1.379
 4585W        W77653   4.941  19.941   2.744
 4586W        W77654  22.774  19.132   0.823
 4587W        W77655  25.772  15.976   0.078
 4588W        W77656  22.194  42.844  13.892
 4589W        W77657  44.405  36.068   0.883
 4590W        W77658  20.069  39.410  11.600
 4591W        W77659  13.833  16.001  14.136
 4592W        W77660  22.700   9.677   1.336
 4593W        W77661  44.339  22.329  12.500
 4594W        W77662  36.301  40.973  13.155
 4595W        W77663  38.987  10.134  12.490
 4596W        W77664  22.091  40.674   4.829
 4597W        W77665   1.268  35.433  11.167
 4598W        W77666  39.639  37.960  13.311
 4599W        W77667   9.801   8.300   4.655
 4600W        W77668   7.358   5.462   0.754
 4601W        W77669  19.498  19.664   2.864
 4602W        W77670  32.566   9.466   2.761
 4603W        W77671   7.406  31.635  12.843
 4604W        W77672   4.240  41.429   4.918
 4605W        W77673  35.183  29.675   3.396
 4606W        W77674  30.422  16.145   3.611
 4607W        W77675  25.190  12.849   4.884
 4608W        W77676  10.206  37.535   1.689
 4609W        W77677  20.096  21.612  12.814
 4610W        W77678   4.220  11.245   1.348
 4611W        W77679  11.152  43.638   0.942
 4612W        W77680  14.033  30.128  12.564
 4613W        W77681  42.763   8.218  10.625
 4614W        W77682  11.412  26.600   4.003
 4615W        W77683   5.817   5.787  12.549
 4616W        W77684  39.565  35.268  14.521
 4617W        W77685  20.123   1.007   1.039
 4618W        W77686  41.687  37.899   2.433
 4619W        W77687  41.872  17.450   2.721
 4620W        W77688  11.516  40.485  13.924
 4621W        W77689  30.542  43.832   0.003
 4622W        W77690  40.891  39.783   4.151
 4623W        W77691  39.386  40.293   1.250
 4624W        W77692   7.477  33.352  12.476
 4625W        W77693   7.140  30.520   1.851
 4626W        W77694  13.531  39.966   0.374
 4627W        W77695  36.988   1.679  13.014
 4628W        W77696   7.694  28.905  10.387
 4629W        W77697  33.611  16.023  11.064
 4630W        W77698  16.807  31.022  12.433
 4631W        W77699  36.084   8.890  13.340
 4632W        W77700  29.121  31.372  10.932
 4633W        W77701  27.647  12.674  10.886
 4634W        W77702  40.045  37.075  12.328
 4635W        W77703  17.166   1.357   4.293
 4636W        W77704  30.682  16.171  12.978
 4637W        W77705  34.623  11.217   3.998
 4638W        W77706   5.431  22.894  12.454
 4639W        W77707  29.154  34.724  13.008
 4640W        W77708  21.942  16.113   1.636
 4641W        W77709   6.251  36.307  13.562
 4642W        W77710  24.555  13.846  11.992
 4643W        W77711  30.438  43.866  13.972
 4644W        W77712  35.123  38.397   1.865
 4645W        W77713  17.611  28.952   3.108
 4646W        W77714  30.021  16.229   3.201
 4647W        W77715  19.555  12.952  11.600
 4648W        W77716   0.901  27.900  12.997
 4649W        W77717  22.302  16.909   4.279
 4650W        W77718   6.459  38.441   4.373
 4651W        W77719  28.271  25.557  10.471
 4652W        W77720  16.756  21.058  10.995
 4653W        W77721  36.430  35.106  11.322
 4654W        W77722  14.136  23.479  12.099
 4655W        W77723  25.741  21.613  12.067
 4656W        W77724   6.805  21.262   3.235
 4657W        W77725  27.470  13.573  12.569
 4658W        W77726   3.340  41.321   4.576
 4659W        W77727   7.401  42.363  11.288
 4660W        W77728  43.411  30.370   4.026
 4661W        W77729  20.157  23.514  13.449
 4662W        W77730  22.778  19.706  11.043
 4663W        W77731  28.790  37.036  10.739
 4664W        W77732  16.736  11.834  13.297
 4665W        W77733  32.066  41.128  13.204
 4666W        W77734  18.191  37.809   4.811
 4667W        W77735  28.018   7.304   3.211
 4668W        W77736   6.427  43.815   2.772
 4669W        W77737   2.437  19.232   4.935
 4670W        W77738  32.623   6.477   1.986
 4671W        W77739  19.951   8.371   2.425
 4672W        W77740  10.614  21.514   1.144
 4673W        W77741  35.010  26.968  11.946
 4674W        W77742   7.714  42.245  12.863
 4675W        W77743   2.205  38.303   3.861
 4676W        W77744   6.079  28.907  14.809
 4677W        W77745  43.451   2.420  12.188
 4678W        W77746  15.904  15.042  11.660
 4679W        W77747  38.795  42.066  13.566
 4680W        W77748  16.689  31.578   3.273
 4681W        W77749  26.684  42.926   4.004
 4682W        W77750  37.824  20.171   2.432
 4683W        W77751  31.270  28.706   3.793
 4684W        W77752  24.678  31.652  12.844
 4685W        W77753  29.100  12.291  10.675
 4686W        W77754  13.387  16.138   3.044
 4687W        W77755  25.588  23.192   2.417
 4688W        W77756  15.657  31.239  13.404
 4689W        W77757   5.769  26.024  10.734
 4690W        W77758  12.866  22.703  11.927
 4691W        W77759   7.450  21.379   0.067
 4692W        W77760  21.258  24.456  14.982
 4693W        W77761  33.908  14.265  13.983
 4694W        W77762  26.517  40.784   0.683
 4695W        W77763   3.911   8.891   2.351
 4696W        W77764   0.214   3.410  11.931
 4697W        W77765  27.367  10.852  11.489
 4698W        W77766   0.264   9.440  14.848
 4699W        W77767  25.229   5.765   2.963
 4700W        W77768  13.821  15.781  14.814
 4701W        W77769   1.147  40.099  12.991
 4702W        W77770  31.927   8.141  11.964
 4703W        W77771  25.196  30.930   3.272
 4704W        W77772  30.391  40.531   3.008
 4705W        W77773  24.657  37.266   0.366
 4706W        W77774  14.790  10.223  14.729
 4707W        W77775  39.001   5.609  13.120
 4708W        W77776  19.812   7.991   3.643
 4709W        W77777  37.524  23.704  11.418
 4710W        W77778  14.237   0.778   0.348
 4711W        W77779  11.814  10.590   1.431
 4712W        W77780   2.141  30.975   4.160
 4713W        W77781  34.882  23.729   2.625
 4714W        W77782  36.368  16.304   1.932
 4715W        W77783  27.000  42.571   3.600
 4716W        W77784  19.262  21.507   4.822
 4717W        W77785  37.999  14.333   2.096
 4718W        W77786  20.062  18.351   0.646
 4719W        W77787  24.590  10.299   4.962
 4720W        W77788  43.251   4.250   1.186
 4721W        W77789  42.064  18.730  13.254
 4722W        W77790  31.829  29.562  11.583
 4723W        W77791  21.074  30.662   3.092
 4724W        W77792  18.089   8.218  10.687
 4725W        W77793  29.688  24.138  12.924
 4726W        W77794  25.272   7.462  11.181
 4727W        W77795  35.853  43.043  11.558
 4728W        W77796  44.882   6.419  14.466
 4729W        W77797  30.981  29.860  12.005
 4730W        W77798  18.223   1.997   3.583
 4731W        W77799   3.458  36.239   3.895
 4732W        W77800  21.942  24.059   0.953
 4733W        W77801   0.213  15.325   0.930
 4734W        W77802  14.067  39.920   4.161
 4735W        W77803  37.706   8.208  12.423
 4736W        W77804   1.156  12.245  13.352
 4737W        W77805   2.707  33.457   3.652
 4738W        W77806  32.587  42.386  14.299
 4739W        W77807  31.974  17.250   2.403
 4740W        W77808   8.274  39.125   9.882
 4741W        W77809  22.954  21.253  11.594
 4742W        W77810  14.028  29.727  14.459
 4743W        W77811  13.349   4.733   3.822
 4744W        W77812  37.995  38.432  12.329
 4745W        W77813  37.005  35.490  13.994
 4746W        W77814  11.350   5.390   1.996
 4747W        W77815  24.466  18.933   2.745
 4748W        W77816  22.028  15.189  11.738
 4749W        W77817  34.497  16.266   1.892
 4750W        W77818  41.693  37.516  12.472
 4751W        W77819  33.472  30.647  12.544
 4752W        W77820   9.614  37.023  12.420
 4753W        W77821   3.200  27.608   1.394
 4754W        W77822   0.645  43.028  13.876
 4755W        W77823  35.434  24.219  11.972
 4756W        W77824  44.874  23.677  12.838
 4757W        W77825  44.988  26.484   0.636
 4758W        W77826  30.343  17.100  13.897
 4759W        W77827   7.446  27.753   4.587
 4760W        W77828  16.210   2.885  10.645
 4761W        W77829  17.064   1.439  14.441
 4762W        W77830  15.020  28.138   3.160
 4763W        W77831  15.517  38.835   3.290
 4764W        W77832  30.951   9.315   1.262
 4765W        W77833  24.348   5.045  12.456
 4766W        W77834  12.753  14.106   2.262
 4767W        W77835  43.938  19.703   2.902
 4768W        W77836   8.420  36.331  14.732
 4769W        W77837  34.078   2.376   1.792
 4770W        W77838   2.665   4.904  12.749
 4771W        W77839  33.470  11.584  14.504
 4772W        W77840   2.239  12.809  12.632
 4773W        W77841  43.712  24.546  14.252
 4774W        W77842  32.117  13.497   1.172
 4775W        W77843  16.066  16.052  12.483
 4776W        W77844  15.376  26.668   4.623
 4777W        W77845  21.627  24.234  14.332
 4778W        W77846  26.501  29.703  11.629
 4779W        W77847   7.320  21.294  11.062
 4780W        W77848   7.580  14.606   3.764
 4781W        W77849   5.963  43.521   1.388
 4782W        W77850  22.020  32.626  14.318
 4783W        W77851  29.109   6.280  14.008
 4784W        W77852   6.651  35.049   2.425
 4785W        W77853  35.988  22.509  11.953
 4786W        W77854  35.552  21.992  11.472
 4787W        W77855  40.109  21.532   3.976
 4788W        W77856  20.775  41.811   2.260
 4789W        W77857  30.673   1.750   4.207
 4790W        W77858  26.789   1.889   1.709
 4791W        W77859  17.740  33.084  10.687
 4792W        W77860  34.857   9.915  11.484
 4793W        W77861  38.545   9.344   2.123
 4794W        W77862  12.078  23.170   4.110
 4795W        W77863  43.719  41.820  13.849
 4796W        W77864  16.068  21.430  11.588
 4797W        W77865  32.045  30.743  12.265
 4798W        W77866  18.864  34.999  14.308
 4799W        W77867  21.946  38.391  14.364
 4800W        W77868  23.874  12.808  14.774
 4801W        W77869  16.675  18.458  13.015
 4802W        W77870  30.509  37.499   2.597
 4803W        W77871   8.717  10.320   1.143
 4804W        W77872  25.691  25.221   1.247
 4805W        W77873  14.418  30.947   4.161
 4806W        W77874  18.424  42.493   0.872
 4807W        W77875  42.402  19.261   4.788
 4808W        W77876   4.842  17.137   1.216
 4809W        W77877  43.053  27.428   0.701
 4810W        W77878   9.408  25.540  12.348
 4811W        W77879  12.902  36.130   2.402
 4812W        W77880  25.521  38.414  13.906
 4813W        W77881  15.090   1.232  11.145
 4814W        W77882  25.058  17.616   4.397
 4815W        W77883   0.023  44.400   0.841
 4816W        W77884  17.142  24.106  13.455
 4817W        W77885  22.990   9.158   1.808
 4818W        W77886   1.890  28.842  11.546
 4819W        W77887  33.642  32.332  13.449
 4820W        W77888  20.628  20.811   3.099
 4821W        W77889  39.377  11.753   2.254
 4822W        W77890   3.306   4.321   0.652
 4823W        W77891  12.179  37.193  10.038
 4824W        W77892  29.139  30.075   0.249
 4825W        W77893   9.783   1.963   1.186
 4826W        W77894  41.745  22.028   2.877
 4827W        W77895   8.412  34.088   0.259
 4828W        W77896  44.553  11.118  12.062
 4829W        W77897  12.578  19.122   2.717
 4830W        W77898  20.309  38.429  13.872
 4831W        W77899  21.522  34.389  11.083
 4832W        W77900  21.543   5.388   3.568
 4833W        W77901  44.002   4.173   3.184
 4834W        W77902  42.319  40.027  14.674
 4835W        W77903  29.624  30.825  14.883
 4836W        W77904  21.689  29.084   1.765
 4837W        W77905  35.967  42.579  14.894
 4838W        W77906  27.587  38.083   4.293
 4839W        W77907  12.672  33.922  12.072
 4840W        W77908  29.564  41.362   4.503
 4841W        W77909   3.048  32.038   1.856
 4842W        W77910  38.281  32.085  10.796
 4843W        W77911  20.799  38.569  11.879
 4844W        W77912   1.646  37.269   1.321
 4845W        W77913  43.648  26.929   2.113
 4846W        W77914  39.060  21.016   1.339
 4847W        W77915   6.914  42.019   1.454
 4848W        W77916  38.738  21.280   2.639
 4849W        W77917   5.900  19.058   4.646
 4850W        W77918   7.421  17.165  13.337
 4851W        W77919  13.668  11.365  11.455
 4852W        W77920  34.162  11.935  13.018
 4853W        W77921  30.645  25.919   2.766
 4854W        W77922  34.510   4.893  10.424
 4855W        W77923  34.491  40.478  13.937
 4856W        W77924   0.442   4.195   0.649
 4857W        W77925  22.554  26.713  12.576
 4858W        W77926  30.864  12.272  13.120
 4859W        W77927  25.501  34.214   0.638
 4860W        W77928  22.036  18.833   0.750
 4861W        W77929  27.516   3.868   2.716
 4862W        W77930  33.018  23.683  14.026
 4863W        W77931  28.947  20.741   0.956
 4864W        W77932  29.733   3.849   3.340
 4865W        W77933   1.537   6.145  12.955
 4866W        W77934  27.080   0.854   0.014
 4867W        W77935  30.585   4.787  14.500
 4868W        W77936  13.116  33.840  12.415
 4869W        W77937  29.083  38.844   4.082
 4870W        W77938  40.908  33.475  14.442
 4871W        W77939  43.573   4.633  11.454
 4872W        W77940  24.701   2.362  11.223
 4873W        W77941  44.149  43.205  12.092
 4874W        W77942  18.748  18.252  11.534
 4875W        W77943   1.199  37.793  13.435
 4876W        W77944  34.220  35.833   3.642
 4877W        W77945   1.863  31.445  11.633
 4878W        W77946   8.568  35.996   0.470
 4879W        W77947   9.511  34.884  12.014
 4880W        W77948   3.229  34.487  12.498
 4881W        W77949   3.302   6.960   3.352
 4882W        W77950  34.388  24.744  13.432
 4883W        W77951  14.159   9.781   0.222
 4884W        W77952  43.849   5.683   4.736
 4885W        W77953  40.257   1.318   3.295
 4886W        W77954  36.041  36.738  11.049
 4887W        W77955  43.966  31.134  14.811
 4888W        W77956  12.259  14.088   2.150
 4889W        W77957  36.830  44.991  14.706
 4890W        W77958  29.606  44.520  11.546
 4891W        W77959  15.236  30.740   0.809
 4892W        W77960  30.990  42.407  11.545
 4893W        W77961  24.832  38.475  10.347
 4894W        W77962  29.403  27.131   2.903
 4895W        W77963  28.454   1.857  12.922
 4896W        W77964  41.873  36.384   3.658
 4897W        W77965  40.865  37.440   2.406
 4898W        W77966  21.149  23.503   3.618
 4899W        W77967  15.256  28.602   2.203
 4900W        W77968  33.861  22.053   3.174
 4901W        W77969  24.776  21.754  14.844
 4902W        W77970  42.064  36.372  13.914
 4903W        W77971  42.756  28.200   2.680
 4904W        W77972  34.379   8.608   4.387
 4905W        W77973  44.143   4.724  11.257
 4906W        W77974   2.802  16.203   2.417
 4907W        W77975  14.482  12.292  12.319
 4908W        W77976  14.635   7.250   2.882
 4909W        W77977  23.433  35.694   2.887
 4910W        W77978  31.964  31.485  12.451
 4911W        W77979  29.431  39.799   2.216
 4912W        W77980  30.590  13.845   0.766
 4913W        W77981  10.857  36.008  10.406
 4914W        W77982  24.573  36.245   2.553
 4915W        W77983  29.712  43.702   2.280
 4916W        W77984  24.670  21.789  11.968
 4917W        W77985  12.094  26.630   0.800
 4918W        W77986  41.816   0.490   3.241
 4919W        W77987  40.655  11.665  14.220
 4920W        W77988   8.053   3.280   1.760
 4921W        W77989  39.059  18.056  12.687
 4922W        W77990  16.002  42.411  11.931
 4923W        W77991   2.479  21.986   3.862
 4924W        W77992  33.025  20.797  12.409
 4925W        W77993   6.935  41.656   9.857
 4926W        W77994  17.618  14.218   0.707
 4927W        W77995  22.463   1.381  11.463
 4928W        W77996  11.212  20.255   1.841
 4929W        W77997  35.731  41.440   2.280
 4930W        W77998   8.042   7.106   0.662
 4931W        W77999  34.404   3.229   0.361
 4932W        W78000  39.316  40.403   2.226
 4933W        W78001  40.083  12.919   3.395
 4934W        W78002   1.991  41.005  12.287
 4935W        W78003  21.194  39.530  14.342
 4936W        W78004  12.554  39.596  11.196
 4937W        W78005  32.640  13.978  11.962
 4938W        W78006  25.675  28.112  13.352
 4939W        W78007  15.689  41.063   4.180
 4940W        W78008  21.984  19.764   2.681
 4941W        W78009  25.696   5.167   4.108
 4942W        W78010  38.325  10.880  12.383
 4943W        W78011  40.685  44.350  13.416
 4944W        W78012  40.521  25.217   3.691
 4945W        W78013  12.472  32.347  14.784
 4946W        W78014   3.330   6.817   0.220
 4947W        W78015   4.000  21.640  13.447
 4948W        W78016  11.677  20.897  12.038
 4949W        W78017   8.518   0.108  12.140
 4950W        W78018   2.800   5.294   4.121
 4951W        W78019  18.754  43.009   4.307
 4952W        W78020  23.431  12.873   1.342
 4953W        W78021  22.070   4.298  14.089
 4954W        W78022   5.704  21.057   2.630
 4955W        W78023  21.465   3.423   0.276
 4956W        W78024  14.623  21.283  11.303
 4957W        W78025   6.247  14.808   0.762
 4958W        W78026   0.983  25.605   0.903
 4959W        W78027  42.251  32.384   0.873
 4960W        W78028  35.151  22.400  11.376
 4961W        W78029   0.217   5.694  14.982
 4962W        W78030  17.576   2.364   4.604
 4963W        W78031   0.756   8.264  13.575
 4964W        W78032   1.414  41.457  13.352
 4965W        W78033  29.673  43.508  14.794
 4966W        W78034  21.186   1.445   5.156
 4967W        W78035  43.808  29.125  10.863
 4968W        W78036  26.623  42.534   2.789
 4969W        W78037  13.141   6.176  14.394
 4970W        W78038  39.774  44.192   2.305
 4971W        W78039  41.721  35.558  10.783
 4972W        W78040  39.314   0.085  10.710
 4973W        W78041  32.844   8.118   1.419
 4974W        W78042  29.908  41.732  10.817
 4975W        W78043  28.143  44.181   4.068
 4976W        W78044   6.493   4.282  12.908
 4977W        W78045   0.966  34.914  13.939
 4978W        W78046  31.337   6.316   3.736
 4979W        W78047  42.343  40.854   3.237
 4980W        W78048   3.949  14.350   0.738
 4981W        W78049  26.113  12.898   1.336
 4982W        W78050   8.262  25.890   3.367
 4983W        W78051  32.035  14.405   2.178
 4984W        W78052   6.721  38.260  10.721
 4985W        W78053  22.933   3.431   1.768
 4986W        W78054  21.170  22.718   2.695
 4987W        W78055  35.591  32.563  13.762
 4988W        W78056  12.454   5.299  13.531
 4989W        W78057   4.751  15.690  12.667
 4990W        W78058   5.648  12.288   4.175
 4991W        W78059  17.792  42.769  10.673
 4992W        W78060  18.035  29.070   3.383
 4993W        W78061   4.325  31.498   1.845
 4994W        W78062   0.400  19.457  11.121
 4995W        W78063  12.867  15.681   3.615
 4996W        W78064  41.573  32.410   5.002
 4997W        W78065  44.264  24.151   1.452
 4998W        W78066   4.973   0.649   1.463
 4999W        W78067   9.424  27.152   3.759
 5000W        W78068  36.019  37.385  13.151
 5001W        W78069  26.606  44.870   2.573
 5002W        W78070  15.266  36.548   2.416
 5003W        W78071   8.766  22.402   4.184
 5004W        W78072  33.318   9.625   1.324
 5005W        W78073  37.762  39.362  12.827
 5006W        W78074  35.301   6.369   3.241
 5007W        W78075   7.861   1.932   2.158
 5008W        W78076  14.702  43.969   1.762
 5009W        W78077  36.986  37.277  13.503
 5010W        W78078   7.670  14.703   3.257
 5011W        W78079  36.903   7.675   1.478
 5012W        W78080  29.401  24.203  12.452
 5013W        W78081   3.345  10.486  11.449
 5014W        W78082  26.946  34.815  14.457
 5015W        W78083  41.003  15.104  13.022
 5016W        W78084  22.940  28.135   0.541
 5017W        W78085  17.750  25.716   0.863
 5018W        W78086   4.694  21.176  14.312
 5019W        W78087  39.908  40.539   4.590
 5020W        W78088  32.143   3.921  12.253
 5021W        W78089  37.801   3.357  14.872
 5022W        W78090  40.476  20.449   4.595
 5023W        W78091  34.552   6.579   0.849
 5024W        W78092  13.551  15.291  13.009
 5025W        W78093  25.140  44.296   1.942
 5026W        W78094  43.567  34.369  10.780
 5027W        W78095   4.976  42.105  14.418
 5028W        W78096   1.196  27.238   0.273
 5029W        W78097   8.779  13.249  10.768
 5030W        W78098   4.751  14.521  14.714
 5031W        W78099   0.760   0.655   0.402
 5032W        W78100  20.705  35.421  10.442
 5033W        W78101   1.178   1.382  14.423
 5034W        W78102   2.011  27.114  14.683
 5035W        W78103  38.247   0.234  11.897
 5036W        W78104   4.304  29.034   0.898
 5037W        W78105  40.477  15.087  13.920
 5038W        W78106  11.203  29.119  12.494
 5039W        W78107  21.441  37.420   4.770
 5040W        W78108   1.637  17.274  11.171
 5041W        W78109  32.858  27.292  14.953
 5042W        W78110  23.596   0.506   3.897
 5043W        W78111  13.064  14.775  11.112
 5044W        W78112  11.384  24.719  11.865
 5045W        W78113  44.256  30.210   0.464
 5046W        W78114  28.793  30.392  14.994
 5047W        W78115   5.980   1.706  13.063
 5048W        W78116  16.807  23.267  14.245
 5049W        W78117  42.852  10.896  12.556
 5050W        W78118   5.008  33.023   1.725
 5051W        W78119  27.938  35.827   1.437
 5052W        W78120  10.616   3.802   0.141
 5053W        W78121   3.485   3.293  11.981
 5054W        W78122  32.300  21.712   3.273
 5055W        W78123  30.843  40.414   2.202
 5056W        W78124  40.054  36.839  11.495
 5057W        W78125  41.662   3.739  10.495
 5058W        W78126  21.223  44.325   3.712
 5059W        W78127  21.565  17.333  11.001
 5060W        W78128   3.659  13.581  12.857
 5061W        W78129  20.621  26.022  13.505
 5062W        W78130   8.251   6.199   1.284
 5063W        W78131  21.653   8.188   1.169
 5064W        W78132  30.682  37.288  11.592
 5065W        W78133   2.013  26.210   3.788
 5066W        W78134  13.086  17.671   2.772
 5067W        W78135  33.056   2.400   2.005
 5068W        W78136  43.457  38.548   1.404
 5069W        W78137  37.432  43.995  11.110
 5070W        W78138  24.594   0.263   1.276
 5071W        W78139  25.020  10.147  12.297
 5072W        W78140  39.420   8.667  11.862
 5073W        W78141  12.786  11.442  12.320
 5074W        W78142  36.806  29.187  11.248
 5075W        W78143  25.710   5.892  11.163
 5076W        W78144   1.217  21.184  11.512
 5077W        W78145  41.756  20.811   4.162
 5078W        W78146  26.422  40.845   1.215
 5079W        W78147   7.729  17.619   1.189
 5080W        W78148  11.820  28.619   2.415
 5081W        W78149  23.196  32.836  14.703
 5082W        W78150  17.950  13.876  13.449
 5083W        W78151  17.566  28.746   1.753
 5084W        W78152   2.009   4.726  10.640
 5085W        W78153  35.367   9.097   1.698
 5086W        W78154   7.268  43.371   1.493
 5087W        W78155   1.840  29.076  11.108
 5088W        W78156   3.868  20.036  12.088
 5089W        W78157  14.667  14.476  13.420
 5090W        W78158  44.583   0.706  13.040
 5091W        W78159  10.682   3.963  12.693
 5092W        W78160   2.166  16.049   4.510
 5093W        W78161   5.343   5.801  11.788
 5094W        W78162  38.842  41.546  13.527
 5095W        W78163  38.447  37.015  14.250
 5096W        W78164   3.395  37.396   1.223
 5097W        W78165  12.077  41.758  14.836
 5098W        W78166   9.359  15.255  12.795
 5099W        W78167  20.969  21.661   0.730
 5100W        W78168  41.505  13.733  12.987
 5101W        W78169   5.685  34.841  14.429
 5102W        W78170  21.090  25.793  12.424
 5103W        W78171  32.434  41.272  10.477
 5104W        W78172  20.098  42.005  14.170
 5105W        W78173   5.768  38.242  10.514
 5106W        W78174  30.846  39.415   4.228
 5107W        W78175  18.049  42.013  11.703
 5108W        W78176  26.476   4.716  14.460
 5109W        W78177  11.342  18.698  14.717
 5110W        W78178  34.104  36.873  14.435
 5111W        W78179  11.730  36.677  11.058
 5112W        W78180  36.828  10.242  14.869
 5113W        W78181  36.984   6.142   3.650
 5114W        W78182  34.156  23.928  13.525
 5115W        W78183   3.152  29.975   4.584
 5116W        W78184   7.250  16.794   1.302
 5117W        W78185  24.620  24.921   0.048
 5118W        W78186  19.147  13.784  14.277
 5119W        W78187  11.706  29.827  13.128
 5120W        W78188  14.311  17.787   4.527
 5121W        W78189   6.605  28.619   3.599
 5122W        W78190   8.655  22.705   1.335
 5123W        W78191  38.339   9.395  11.190
 5124W        W78192  14.260  29.745   3.734
 5125W        W78193   8.766   6.036  12.415
 5126W        W78194   9.392  15.156   1.054
 5127W        W78195  21.350  19.288  10.069
 5128W        W78196   9.731  13.685  11.678
 5129W        W78197  24.992  13.747   2.723
 5130W        W78198  19.995  27.475  13.800
 5131W        W78199  21.633  40.703   4.037
 5132W        W78200   1.833  23.471  14.927
 5133W        W78201  17.297  10.049   3.709
 5134W        W78202  10.419  42.866  11.610
 5135W        W78203  32.611   7.117  14.764
 5136W        W78204   1.058  26.956  14.646
 5137W        W78205  22.063  29.806   1.839
 5138W        W78206  40.538   4.844   1.933
 5139W        W78207   3.692  25.138  10.678
 5140W        W78208  35.450  16.112  14.571
 5141W        W78209  37.662  24.712   2.917
 5142W        W78210  43.898  22.646   4.551
 5143W        W78211   8.855  31.853   9.858
 5144W        W78212  40.915   5.339  14.421
 5145W        W78213   8.356  35.996  12.378
 5146W        W78214  22.614   5.608  13.299
 5147W        W78215  19.659  15.202   4.465
 5148W        W78216  13.387  41.238  14.036
 5149W        W78217   0.596   0.484  13.111
 5150W        W78218  23.953  34.866  12.609
 5151W        W78219  10.463  20.702   1.903
 5152W        W78220  37.468  18.322  11.165
 5153W        W78221  33.977  11.287  11.934
 5154W        W78222   6.338   6.697   4.670
 5155W        W78223  42.976   3.544   2.052
 5156W        W78224  28.836  33.648  11.898
 5157W        W78225  43.909   8.124   0.929
 5158W        W78226  19.639  24.697  12.460
 5159W        W78227   0.384  42.727   1.997
 5160W        W78228   9.944  25.038  10.710
 5161W        W78229  43.921  34.072  14.384
 5162W        W78230  28.791  11.468  10.964
 5163W        W78231  36.010   9.768   2.812
 5164W        W78232   1.752  33.298  12.120
 5165W        W78233  33.019  12.841   4.896
 5166W        W78234  43.027  29.207  14.384
 5167W        W78235  13.167  34.591  10.848
 5168W        W78236  28.069  23.064   3.733
 5169W        W78237  11.296  40.511  14.394
 5170W        W78238  17.845  29.216  13.469
 5171W        W78239  37.808  43.259   2.906
 5172W        W78240  36.723  40.835  12.169
 5173W        W78241  35.929   0.418  13.865
 5174W        W78242  42.266  43.605  13.972
 5175W        W78243  35.544  43.786  14.586
 5176W        W78244  12.645  41.856   3.752
 5177W        W78245   5.685   5.929  13.618
 5178W        W78246  16.616   9.336   3.132
 5179W        W78247  25.480  20.166   3.401
 5180W        W78248  42.940  34.127   3.688
 5181W        W78249  28.398  35.585   1.431
 5182W        W78250  25.453  28.609  12.179
 5183W        W78251  29.064   3.993   1.683
 5184W        W78252   2.708   2.715  11.134
 5185W        W78253   4.013   6.634  13.072
 5186W        W78254  21.215  40.324   4.483
 5187W        W78255  12.773  15.579  12.447
 5188W        W78256  39.379   3.910   1.272
 5189W        W78257  16.219  15.748   3.568
 5190W        W78258  15.841   5.271   3.852
 5191W        W78259  32.882  13.995   4.183
 5192W        W78260  35.833  26.544   0.484
 5193W        W78261  26.571  30.993   4.503
 5194W        W78262  36.151   0.872   1.377
 5195W        W78263  39.825  34.636   0.891
 5196W        W78264   2.679  13.053  14.536
 5197W        W78265  25.067  18.445   3.130
 5198W        W78266   1.432  39.434  13.654
 5199W        W78267  28.697   9.212  13.145
 5200W        W78268  22.786  10.247   3.176
 5201W        W78269   7.708  35.983   0.847
 5202W        W78270  39.770   4.786   2.380
 5203W        W78271  24.272   8.710  11.084
 5204W        W78272  27.781  38.972   4.489
 5205W        W78273  36.026  25.205   2.326
 5206W        W78274   4.452   8.587   3.780
 5207W        W78275  20.008  29.321  12.146
 5208W        W78276  18.472  27.272  14.546
 5209W        W78277   7.088  25.481  11.033
 5210W        W78278   9.937  14.407   3.301
 5211W        W78279  39.669  12.408  14.974
 5212W        W78280  32.992  33.577  13.425
 5213W        W78281  17.554  18.955   4.854
 5214W        W78282  40.311   0.099  11.553
 5215W        W78283  11.289  10.922  13.260
 5216W        W78284  32.841  23.529  10.972
 5217W        W78285  22.752  21.209  12.824
 5218W        W78286  26.152  18.451   0.840
 5219W        W78287  37.931  33.941   3.941
 5220W        W78288  37.221  12.114  14.553
 5221W        W78289  25.576   7.015   2.635
 5222W        W78290   9.328  13.253   1.477
 5223W        W78291   9.100   3.343  10.613
 5224W        W78292  23.158   8.940   2.259
 5225W        W78293  21.074  35.027  14.835
 5226W        W78294  24.205  38.355  14.769
 5227W        W78295   3.726  35.137  12.657
 5228W        W78296  38.019  23.582  11.566
 5229W        W78297  16.069  24.318  10.369
 5230W        W78298  38.526  26.634   3.316
 5231W        W78299   0.278  39.546  14.296
 5232W        W78300  39.823  41.730   1.847
 5233W        W78301   1.688  42.341   2.325
 5234W        W78302   3.807  30.112   0.354
 5235W        W78303  32.975  10.499  13.053
 5236W        W78304  39.415  30.066  12.435
 5237W        W78305   7.849  33.461   2.504
 5238W        W78306   9.761  26.551   1.836
 5239W        W78307  34.025  19.002  10.557
 5240W        W78308  14.234   0.698  12.894
 5241W        W78309  26.596  38.599   2.641
 5242W        W78310  15.427  16.238  11.174
 5243W        W78311  27.796  29.122  14.286
 5244W        W78312  44.930  26.378   1.915
 5245W        W78313  30.455  34.395   1.275
 5246W        W78314  25.123  10.963   2.192
 5247W        W78315   0.429  43.388   1.347
 5248W        W78316  44.975   1.840  12.583
 5249W        W78317  15.052  18.949  11.544
 5250W        W78318   9.862   5.453  11.195
 5251W        W78319   4.727  21.098   4.629
 5252W        W78320  10.132  16.819   1.925
 5253W        W78321  15.867  27.431  13.033
 5254W        W78322  41.833  23.068   0.556
 5255W        W78323  15.858  28.629  12.512
 5256W        W78324  31.605  33.365   0.245
 5257W        W78325  32.822  16.293   3.751
 5258W        W78326  39.546   5.436   5.398
 5259W        W78327  19.697  36.484  13.820
 5260W        W78328   6.337  11.828   3.833
 5261W        W78329  44.017  11.760   0.738
 5262W        W78330   8.125   7.236  13.812
 5263W        W78331  16.034  41.752   0.091
 5264W        W78332  41.461  43.070  12.341
 5265W        W78333  39.639  12.749   3.187
 5266W        W78334  22.145  43.340   0.050
 5267W        W78335  36.042   4.795   4.481
 5268W        W78336  23.512  14.584   1.688
 5269W        W78337  26.059   3.581   3.238
 5270W        W78338  34.579  26.430  14.981
 5271W        W78339  41.866   2.989   0.220
 5272W        W78340  14.036  42.506   0.279
 5273W        W78341  14.955  37.547  12.522
 5274W        W78342  37.593  31.760  14.596
 5275W        W78343   9.886  40.270   3.777
 5276W        W78344   2.994   1.953   2.620
 5277W        W78345  35.504  11.234  12.946
 5278W        W78346  31.420  16.618   2.257
 5279W        W78347   0.354  20.902   3.240
 5280W        W78348   6.865   5.651   4.173
 5281W        W78349  10.941  40.135  10.698
 5282W        W78350  12.942  14.960  14.971
 5283W        W78351   8.260  21.054   1.005
 5284W        W78352   4.691  24.711  11.100
 5285W        W78353  29.615   5.496   1.298
 5286W        W78354  12.870  15.741   2.159
 5287W        W78355  39.768  15.082   0.963
 5288W        W78356  21.562  25.607   4.613
 5289W        W78357  11.206   6.371  11.960
 5290W        W78358  29.684  18.184   0.733
 5291W        W78359  36.855   4.207  12.574
 5292W        W78360  27.343  26.593  11.466
 5293W        W78361  12.907  36.565   2.103
 5294W        W78362   0.450  14.551  12.026
 5295W        W78363  17.303  24.785  11.056
 5296W        W78364  26.546  12.142   1.900
 5297W        W78365  39.726  41.650   3.699
 5298W        W78366   3.345   6.728  14.715
 5299W        W78367   0.538  44.441  14.983
 5300W        W78368  26.679   8.324  13.382
 5301W        W78369   9.860  38.106  14.238
 5302W        W78370  15.619  35.032  12.045
 5303W        W78371  30.634  26.103  11.122
 5304W        W78372  24.362  37.159   2.229
 5305W        W78373  19.469  33.756  11.068
 5306W        W78374  28.255  41.481  13.184
 5307W        W78375  24.785  35.262  12.812
 5308W        W78376  40.830  15.104   3.790
 5309W        W78377   3.335  16.724  10.252
 5310W        W78378   2.193   3.320   2.803
 5311W        W78379  40.308   0.170  10.801
 5312W        W78380  20.593  27.641   3.487
 5313W        W78381  33.438  31.083  14.372
 5314W        W78382  40.024  35.910   1.420
 5315W        W78383  26.528  40.972  12.120
 5316W        W78384  21.285  36.056   4.268
 5317W        W78385   3.258   8.325   4.978
 5318W        W78386  27.948  32.115   4.249
 5319W        W78387  35.415  29.818  14.542
 5320W        W78388   3.561  10.938   0.056
 5321W        W78389  39.942   0.361   1.481
 5322W        W78390  21.112  39.778   2.523
 5323W        W78391  25.596  32.373   1.952
 5324W        W78392  20.229   6.394   4.122
 5325W        W78393  11.671  41.070   4.637
 5326W        W78394  27.916  36.447  13.646
 5327W        W78395  34.548  39.398   3.924
 5328W        W78396  12.870  19.164   3.682
 5329W        W78397  22.040  30.021  14.268
 5330W        W78398  18.723  18.131   4.707
 5331W        W78399  25.092   2.595   1.492
 5332W        W78400  19.027  14.218  12.043
 5333W        W78401  32.049   8.697  14.478
 5334W        W78402  13.990  19.512   3.611
 5335W        W78403  10.616  38.447  13.929
 5336W        W78404  24.796  35.522  11.116
 5337W        W78405  35.277  22.115  14.010
 5338W        W78406   8.738  35.353   2.664
 5339W        W78407   4.709  32.147   3.716
 5340W        W78408  17.371   5.272   3.826
 5341W        W78409   9.707   4.593  13.764
 5342W        W78410   4.870  15.228  10.354
 5343W        W78411   1.397  16.606   3.416
 5344W        W78412  31.479  13.330  12.021
 5345W        W78413  33.088  12.832   2.449
 5346W        W78414  44.841  34.558   4.042
 5347W        W78415   5.272   6.489  10.626
 5348W        W78416  41.189   7.193  14.887
 5349W        W78417  32.567  10.561   1.302
 5350W        W78418  38.802  37.891   1.291
 5351W        W78419  27.075   2.717  13.365
 5352W        W78420   0.399   5.386   4.148
 5353W        W78421  28.696   4.716  13.981
 5354W        W78422  25.077   6.138   0.673
 5355W        W78423  38.906   2.631  14.559
 5356W        W78424  38.679  21.747   2.396
 5357W        W78425  28.392   1.276   4.839
 5358W        W78426  43.346   1.359   4.018
 5359W        W78427   5.199  35.032   2.184
 5360W        W78428  41.043  18.194   3.689
 5361W        W78429  31.815  17.514   4.159
 5362W        W78430   0.874   8.987  14.274
 5363W        W78431  30.880  31.047   1.283
 5364W        W78432  38.760  29.023  11.055
 5365W        W78433  31.026  26.362  10.933
 5366W        W78434   8.363  12.695  14.824
 5367W        W78435  16.616  14.874   4.962
 5368W        W78436  18.655  11.285   1.071
 5369W        W78437  11.114  17.065  12.938
 5370W        W78438  29.976  21.109  14.692
 5371W        W78439  23.508  44.309   0.923
 5372W        W78440  29.090  36.040   1.398
 5373W        W78441  24.760   2.790   4.585
 5374W        W78442  15.769  26.857  13.952
 5375W        W78443  18.591  22.204  10.601
 5376W        W78444  33.149  28.757   4.688
 5377W        W78445  42.155  29.635   3.645
 5378W        W78446  43.839  14.121   4.150
 5379W        W78447  25.773  10.914  12.955
 5380W        W78448  26.961  11.919  13.339
 5381W        W78449  26.255  31.446   1.329
 5382W        W78450  24.551  34.874  12.549
 5383W        W78451   8.256  29.665  13.801
 5384W        W78452  37.862   7.209   2.690
 5385W        W78453   5.437   7.672   3.805
 5386W        W78454  23.613  31.649   1.399
 5387W        W78455  30.184  33.833   2.274
 5388W        W78456  24.254  39.939   1.172
 5389W        W78457   0.849  29.153  13.796
 5390W        W78458   0.971  26.173   0.885
 5391W        W78459  19.371   4.420   1.286
 5392W        W78460   0.850   6.613   4.648
 5393W        W78461  42.588  30.706   1.285
 5394W        W78462  13.701  31.983  11.986
 5395W        W78463   6.291   7.410  12.511
 5396W        W78464  44.003  20.711   1.195
 5397W        W78465  39.616  43.976  14.843
 5398W        W78466  10.843  20.607   3.251
 5399W        W78467  35.232  25.646   3.357
 5400W        W78468  35.124  16.283  11.514
 5401W        W78469  22.289  33.574   3.540
 5402W        W78470  31.706  15.728  12.587
 5403W        W78471  44.416  30.851   2.660
 5404W        W78472  13.334  31.606   0.308
 5405W        W78473  33.407  25.653   4.134
 5406W        W78474  39.365  11.780  14.023
 5407W        W78475  20.240  14.089   3.866
 5408W        W78476   4.983   8.289   3.285
 5409W        W78477  31.056  24.226  12.067
 5410W        W78478   5.907  38.588  13.752
 5411W        W78479  36.377  26.054  10.685
 5412W        W78480  24.088  28.570  14.052
 5413W        W78481  35.816  12.961  11.233
 5414W        W78482  10.975  29.512  12.088
 5415W        W78483  24.306  43.267   1.689
 5416W        W78484  35.088  21.223  14.348
 5417W        W78485  43.481  29.005  14.554
 5418W        W78486  18.509  28.334   1.945
 5419W        W78487  42.230  28.757  11.928
 5420W        W78488  28.615  40.040  13.088
 5421W        W78489  22.652  34.988   2.381
 5422W        W78490   5.253   3.196  12.601
 5423W        W78491  13.833   2.845  12.886
 5424W        W78492   6.583  21.665   4.245
 5425W        W78493  13.864   8.136   3.269
 5426W        W78494  30.420  13.883  12.105
 5427W        W78495  13.737  30.060  10.780
 5428W        W78496  40.349   9.606  11.065
 5429W        W78497  10.173   1.759  12.535
 5430W        W78498  30.434   2.384   4.046
 5431W        W78499   0.952  40.562   4.311
 5432W        W78500  39.283  10.935   0.131
 5433W        W78501  38.508   6.215   4.968
 5434W        W78502  11.793  28.576  14.911
 5435W        W78503  33.762  21.689  14.357
 5436W        W78504   1.921  44.263  13.908
 5437W        W78505  31.098  29.963  14.964
 5438W        W78506  34.778  38.347  13.560
 5439W        W78507   2.756  20.604  14.012
 5440W        W78508   9.247  40.069   0.890
 5441W        W78509  35.914  36.176   3.305
 5442W        W78510  24.217   4.935   4.097
 5443W        W78511  11.804  43.426   3.792
 5444W        W78512  28.197  32.025   3.768
 5445W        W78513  21.460  42.474  11.962
 5446W        W78514  31.054  28.029   3.204
 5447W        W78515  36.352  13.411  13.425
 5448W        W78516  21.120  34.364  12.191
 5449W        W78517  24.958  19.079  12.084
 5450W        W78518  43.930   8.643   4.041
 5451W        W78519  29.445   4.871  10.597
 5452W        W78520  18.754  28.572  14.498
 5453W        W78521  15.812   9.350  10.235
 5454W        W78522  10.160  39.853   4.672
 5455W        W78523  34.344  26.130  13.934
 5456W        W78524   9.071  16.759   4.644
 5457W        W78525  21.554   4.627  14.810
 5458W        W78526   0.424  12.815   0.971
 5459W        W78527  43.480  26.673   2.786
 5460W        W78528   7.530  15.189   4.083
 5461W        W78529  42.046   6.461  11.987
 5462W        W78530  23.553  19.960   5.512
 5463W        W78531  36.059  13.906  11.080
 5464W        W78532  39.033  11.206   0.478
 5465W        W78533  28.234   9.290   2.167
 5466W        W78534  39.872  25.115  11.855
 5467W        W78535   3.640  25.137   1.760
 5468W        W78536  27.888   3.238   1.354
 5469W        W78537  37.494   6.163   2.747
 5470W        W78538  31.611  20.927   1.246
 5471W        W78539  38.476  11.788   2.672
 5472W        W78540   9.928  44.911   0.622
 5473W        W78541  24.654  12.601   0.374
 5474W        W78542  26.997  44.005   1.785
 5475W        W78543   8.193  33.624  11.698
 5476W        W78544   6.306  20.471   2.345
 5477W        W78545  18.917  30.173   2.281
 5478W        W78546   2.319   9.399   2.147
 5479W        W78547   8.139  17.028  13.936
 5480W        W78548   6.385  29.753   4.299
 5481W        W78549  14.828  32.024   3.633
 5482W        W78550   5.412  12.116   2.852
 5483W        W78551  33.956  14.324  10.975
 5484W        W78552  14.958  28.574   3.430
 5485W        W78553  24.526  16.990   3.352
 5486W        W78554  36.950  26.010  14.006
 5487W        W78555  15.726  28.925  14.016
 5488W        W78556  42.737  29.751   4.134
 5489W        W78557  42.391  22.547   2.341
 5490W        W78558  38.396  32.850   0.059
 5491W        W78559  43.548  13.243   2.800
 5492W        W78560  23.924   5.320  14.944
 5493W        W78561  31.811  27.945  11.257
 5494W        W78562  41.427  43.771  14.830
 5495W        W78563  27.275  20.203   3.714
 5496W        W78564   0.955  40.977  13.919
 5497W        W78565   4.336  29.360   3.635
 5498W        W78566  41.779  29.235  14.918
 5499W        W78567  17.108  31.203  12.980
 5500W        W78568  11.205  41.086  12.799
 5501W        W78569  28.719  35.114   2.795
 5502W        W78570  26.143  39.251   4.617
 5503W        W78571  15.291  17.205   1.284
 5504W        W78572   4.799  32.526  10.594
 5505W        W78573   8.633   6.324  14.952
 5506W        W78574  30.452   6.643   3.024
 5507W        W78575  15.314  32.421   2.924
 5508W        W78576  39.992   7.178  11.879
 5509W        W78577  44.989  13.603  11.148
 5510W        W78578  42.781  14.257  10.944
 5511W        W78579  38.940  22.023  14.008
 5512W        W78580   7.431   5.320  14.833
 5513W        W78581   1.373  36.271   4.588
 5514W        W78582  20.949  38.903   4.204
 5515W        W78583   3.057  10.345  13.878
 5516W        W78584   6.125   1.759   0.506
 5517W        W78585   5.829  17.073  12.130
 5518W        W78586  25.074   8.180   2.269
 5519W        W78587  44.769  15.693  11.869
 5520W        W78588  17.549  11.377  11.129
 5521W        W78589   5.738   5.181   1.823
 5522W        W78590   5.762  19.028   4.151
 5523W        W78591  14.243  42.178  11.259
 5524W        W78592  15.785  16.102  12.935
 5525W        W78593  17.026   2.745  14.498
 5526W        W78594  27.628  40.463   1.389
 5527W        W78595  34.392  11.694  14.779
 5528W        W78596  21.250  10.651  10.479
 5529W        W78597  32.137  27.163   3.380
 5530W        W78598  42.410  17.629  12.349
 5531W        W78599  29.980  18.275   3.877
 5532W        W78600   7.463   1.744   4.710
 5533W        W78601  34.016  13.397  14.949
 5534W        W78602  24.593  44.187  12.469
 5535W        W78603   1.919  40.111  12.029
 5536W        W78604  42.105  37.544   0.439
 5537W        W78605  41.255  27.353  11.815
 5538W        W78606   1.213  40.215   3.038
 5539W        W78607  36.536   7.545   4.565
 5540W        W78608  14.198  42.836   1.170
 5541W        W78609  36.945  30.923  14.895
 5542W        W78610  32.303  26.804   0.350
 5543W        W78611  28.438  33.476   1.206
 5544W        W78612  33.624  17.536   3.724
 5545W        W78613  18.826  34.681  12.205
 5546W        W78614  25.038   4.014   2.422
 5547W        W78615  26.887  27.913  12.106
 5548W        W78616  15.383   3.472  10.406
 5549W        W78617  34.131  26.660  14.906
 5550W        W78618   3.436  40.579   2.281
 5551W        W78619   0.759   8.715  12.738
 5552W        W78620  30.862  10.244   2.799
 5553W        W78621   8.330   1.245   4.810
 5554W        W78622  10.842  43.103  14.712
 5555W        W78623  25.492   7.873  14.354
 5556W        W78624   9.986  24.472   1.375
 5557W        W78625  26.039  44.357  14.500
 5558W        W78626  34.523  14.343   0.529
 5559W        W78627  42.012  43.780   0.285
 5560W        W78628  25.662  38.941   3.807
 5561W        W78629  21.663  44.123   0.617
 5562W        W78630  12.240   4.339   3.152
 5563W        W78631  16.938  40.613   4.682
 5564W        W78632   2.445  26.583  14.984
 5565W        W78633   1.236  22.003  14.558
 5566W        W78634  21.254   0.757  12.388
 5567W        W78635  27.239  44.497  11.178
 5568W        W78636  42.780  13.614  11.619
 5569W        W78637  35.011  36.508   3.094
 5570W        W78638  38.085  26.020  11.568
 5571W        W78639  23.450  34.424  14.411
 5572W        W78640   9.799  39.051  11.724
 5573W        W78641  17.508  27.034  11.205
 5574W        W78642  21.253  44.767  13.505
 5575W        W78643  38.535   0.282  10.936
 5576W        W78644   8.844  28.769   1.491
 5577W        W78645  30.950  29.168   1.761
 5578W        W78646  33.960   7.096  12.934
 5579W        W78647   3.711  42.094   0.495
 5580W        W78648  15.637   5.746  12.811
 5581W        W78649  27.450  19.299   1.933
 5582W        W78650  35.594   6.183   3.639
 5583W        W78651  36.443  30.565   1.002
 5584W        W78652  23.997   4.501   4.309
 5585W        W78653   1.731  35.786   3.726
 5586W        W78654  41.584  13.362  11.105
 5587W        W78655  29.516   4.006   1.935
 5588W        W78656  13.672  25.518   1.751
 5589W        W78657   2.227   0.940   2.163
 5590W        W78658  31.606  21.073   0.201
 5591W        W78659  39.911  25.528  12.596
 5592W        W78660  40.320  31.439   4.589
 5593W        W78661   5.225  39.027  14.375
 5594W        W78662  25.179  15.588  13.367
 5595W        W78663   7.469  29.989  13.751
 5596W        W78664  23.662  30.969   4.298
 5597W        W78665  25.799   1.009   2.848
 5598W        W78666  44.793   5.873   4.661
 5599W        W78667   0.800  20.253   0.882
 5600W        W78668   7.833  22.821  13.231
 5601W        W78669  26.005  11.231  12.032
 5602W        W78670  44.140  14.202  11.215
 5603W        W78671   2.415  33.141   2.386
 5604W        W78672  37.380   8.757   3.921
 5605W        W78673  30.858  37.059  13.051
 5606W        W78674   9.149  20.317  14.845
 5607W        W78675  10.667   4.665   1.960
 5608W        W78676  30.606  16.771  10.822
 5609W        W78677  29.120  30.552  13.450
 5610W        W78678  25.020  29.929   3.310
 5611W        W78679  23.508  27.432  12.969
 5612W        W78680  41.206  16.816   3.821
 5613W        W78681  35.778  32.060   2.226
 5614W        W78682  19.014  27.657  12.395
 5615W        W78683  17.779  18.600   2.664
 5616W        W78684   8.740  29.088   4.602
 5617W        W78685   9.230  32.555  11.591
 5618W        W78686   7.859  17.662  12.873
 5619W        W78687  25.228  17.691   2.899
 5620W        W78688   7.617  13.608   2.719
 5621W        W78689  19.292   4.026  13.251
 5622W        W78690   7.405  40.257   3.741
 5623W        W78691  42.787   9.264  14.909
 5624W        W78692  31.896   4.160   4.153
 5625W        W78693  12.214   2.211  13.752
 5626W        W78694  19.435   4.350  12.871
 5627W        W78695  23.717   3.870   0.876
 5628W        W78696   2.952  40.920   3.383
 5629W        W78697  23.081  38.950  14.959
 5630W        W78698  22.502   0.530  13.218
 5631W        W78699  10.582  27.098   2.933
 5632W        W78700  24.102  18.627  14.325
 5633W        W78701  35.464  39.769   3.310
 5634W        W78702  25.621   4.248  13.584
 5635W        W78703   7.222   3.709   3.100
 5636W        W78704  40.929  16.389  11.114
 5637W        W78705   5.283  29.931  12.583
 5638W        W78706  24.527   7.015  14.302
 5639W        W78707  34.572  22.770   2.208
 5640W        W78708  38.450  11.795  12.832
 5641W        W78709  41.866  36.096   0.329
 5642W        W78710  33.516   2.344   3.646
 5643W        W78711  10.221  24.532  14.012
 5644W        W78712  22.086   1.576   0.731
 5645W        W78713  14.190  21.751   4.659
 5646W        W78714  42.536  15.459  14.878
 5647W        W78715   2.986  13.935  13.362
 5648W        W78716   5.184   9.644   4.094
 5649W        W78717  19.719  34.530  12.674
 5650W        W78718  42.932   1.921   4.895
 5651W        W78719  19.033  22.447   0.483
 5652W        W78720  40.049  35.138   3.905
 5653W        W78721  33.602  28.061  11.650
 5654W        W78722  29.636   8.090   1.336
 5655W        W78723   1.720  16.151   4.252
 5656W        W78724   3.985  36.547   1.462
 5657W        W78725   4.896  16.004  13.616
 5658W        W78726  28.481  39.950   1.880
 5659W        W78727   8.393  42.413  12.522
 5660W        W78728  42.567  13.880   3.302
 5661W        W78729  16.206   8.632  10.818
 5662W        W78730  15.743  39.124  12.516
 5663W        W78731  42.565  29.170  14.673
 5664W        W78732  43.993  27.176   0.426
 5665W        W78733  25.490   4.269  12.503
 5666W        W78734  33.205  24.493   3.312
 5667W        W78735  29.065  24.968   3.275
 5668W        W78736  39.713  34.260  13.122
 5669W        W78737   5.467  12.627   1.787
 5670W        W78738  10.085   5.398  11.661
 5671W        W78739  42.753  10.810   3.260
 5672W        W78740  12.642  34.357   1.749
 5673W        W78741  35.528  19.056  10.727
 5674W        W78742  30.507  27.795  11.205
 5675W        W78743  10.170  18.604   2.321
 5676W        W78744   6.413  44.741   1.992
 5677W        W78745  15.678  28.116  12.431
 5678W        W78746  40.833  26.262   0.184
 5679W        W78747  42.615   6.017   2.820
 5680W        W78748   6.981  10.215  12.447
 5681W        W78749   4.698  11.096   0.390
 5682W        W78750  14.271  11.973   4.771
 5683W        W78751  44.007  41.564  13.488
 5684W        W78752  39.852  36.387   4.363
 5685W        W78753  30.560   5.349  11.822
 5686W        W78754  13.855  29.060  12.977
 5687W        W78755  39.064   6.282   3.273
 5688W        W78756   0.517  17.623  14.421
 5689W        W78757  24.251  31.437  14.283
 5690W        W78758  35.405   6.152  12.476
 5691W        W78759  16.118  20.830   4.192
 5692W        W78760  41.001   9.795   4.410
 5693W        W78761   0.305  22.575  11.754
 5694W        W78762  29.864  16.016   4.667
 5695W        W78763  37.481  23.688  12.761
 5696W        W78764  33.357  23.512  14.371
 5697W        W78765  12.846  17.200   0.396
 5698W        W78766  35.360  36.931  13.118
 5699W        W78767   9.277  12.186   0.486
 5700W        W78768   2.374  27.967   1.782
 5701W        W78769  33.941  16.045   2.685
 5702W        W78770  21.491  18.161   0.187
 5703W        W78771   7.167  44.032   0.867
 5704W        W78772   6.093   9.167   1.763
 5705W        W78773  26.788   0.279  11.138
 5706W        W78774   3.487  15.997   2.671
 5707W        W78775  13.675   1.406   4.919
 5708W        W78776  35.652  35.612  13.486
 5709W        W78777   6.184  30.386  13.640
 5710W        W78778  18.703  25.948   4.686
 5711W        W78779  17.284  19.026   3.354
 5712W        W78780  42.984  21.770   2.584
 5713W        W78781  34.529  29.853   0.413
 5714W        W78782  31.744   1.704  12.598
 5715W        W78783  26.756   4.259  12.454
 5716W        W78784  22.930   0.186   2.750
 5717W        W78785  20.125   4.184   4.651
 5718W        W78786  11.062  20.428   2.824
 5719W        W78787  13.243  22.486  13.545
 5720W        W78788  22.182   9.615  10.515
 5721W        W78789   4.651  18.588  10.352
 5722W        W78790  41.525  23.610   1.291
 5723W        W78791  19.738  18.613  14.411
 5724W        W78792  36.033  43.402   2.766
 5725W        W78793  43.047  36.961  14.820
 5726W        W78794  27.881  18.447  12.014
 5727W        W78795   4.952  23.106   2.398
 5728W        W78796  35.554   4.159   3.223
 5729W        W78797  15.347   6.698   3.274
 5730W        W78798  26.453  43.330   3.158
 5731W        W78799  42.267  35.809  10.694
 5732W        W78800  12.664  38.037   3.712
 5733W        W78801  24.224  27.048  11.236
 5734W        W78802  22.171  23.070  10.532
 5735W        W78803  41.615  10.767  10.906
 5736W        W78804  37.062  23.953  12.895
 5737W        W78805  39.180  17.503  10.569
 5738W        W78806  29.845  24.614   4.033
 5739W        W78807   6.445  36.559   1.211
 5740W        W78808   0.320   2.183   2.150
 5741W        W78809  32.079  19.151   1.609
 5742W        W78810   4.234  22.595   4.876
 5743W        W78811  24.926   5.365  13.886
 5744W        W78812  20.702  20.619  14.281
 5745W        W78813   2.412  15.380   5.040
 5746W        W78814   6.300  37.947   1.367
 5747W        W78815   3.168   4.553  11.941
 5748W        W78816  37.577  34.449  14.785
 5749W        W78817  13.362  24.152   2.351
 5750W        W78818  36.629   6.661  13.544
 5751W        W78819  30.950  17.252   1.425
 5752W        W78820   1.252   5.790   4.739
 5753W        W78821   7.344  11.178  11.537
 5754W        W78822  39.674  18.762   3.235
 5755W        W78823  40.565  42.815   3.292
 5756W        W78824  30.931  35.367  13.315
 5757W        W78825  36.344  44.883  14.497
 5758W        W78826  33.835  22.585  14.500
 5759W        W78827  15.023   0.506  11.718
 5760W        W78828  12.321  39.021   1.033
 5761W        W78829  37.436  25.560  13.452
 5762W        W78830  18.162   9.174   3.128
 5763W        W78831  10.671  38.328  12.415
 5764W        W78832  27.135  28.995  11.955
 5765W        W78833  32.511  43.409   0.589
 5766W        W78834  29.411  12.729  10.629
 5767W        W78835  42.527  34.479  14.498
 5768W        W78836  30.914  11.128   2.615
 5769W        W78837  18.639  43.921   2.805
 5770W        W78838   5.405   0.985  14.341
 5771W        W78839  35.959  38.330   2.824
 5772W        W78840   2.702   7.318  12.949
 5773W        W78841  41.189   5.266  11.816
 5774W        W78842  23.206  27.568  13.335
 5775W        W78843   4.697  44.627   4.742
 5776W        W78844  25.644   3.759   0.260
 5777W        W78845  39.878   7.463  11.468
 5778W        W78846  30.481  34.548  14.735
 5779W        W78847  24.540  42.743  11.299
 5780W        W78848   8.261  32.420  11.149
 5781W        W78849  21.548  32.412  13.886
 5782W        W78850   1.210  20.937   4.052
 5783W        W78851  13.552  23.196  11.049
 5784W        W78852  37.054  22.186  13.488
 5785W        W78853  31.054   2.834   0.088
 5786W        W78854  15.997  15.131   2.911
 5787W        W78855   4.748  33.961  14.893
 5788W        W78856  12.817  42.538  13.299
 5789W        W78857  40.566   5.693   3.912
 5790W        W78858  39.159  30.527  11.166
 5791W        W78859   0.315  44.303  10.581
 5792W        W78860   9.678  24.636   3.231
 5793W        W78861  36.613  10.782  13.758
 5794W        W78862  32.748  42.482   3.325
 5795W        W78863  23.256  17.670  12.996
 5796W        W78864  19.956  39.043   1.985
 5797W        W78865  30.445   0.036  12.808
 5798W        W78866  30.156  14.350   2.307
 5799W        W78867  15.026  35.222   3.953
 5800W        W78868  43.572  21.323   4.764
 5801W        W78869  40.748   7.308  12.388
 5802W        W78870   5.903  16.367  12.427
 5803W        W78871  14.838  35.450  13.850
 5804W        W78872  14.580  10.081   0.989
 5805W        W78873  19.784  22.325  12.458
 5806W        W78874  21.635  17.190  14.715
 5807W        W78875  29.730  22.020   1.255
 5808W        W78876  24.447   5.204  13.793
 5809W        W78877  18.002  40.466  10.638
 5810W        W78878   5.846  39.809   0.918
 5811W        W78879  24.962  21.572  11.578
 5812W        W78880   3.197  32.213   2.397
 5813W        W78881  37.454  44.362  13.579
 5814W        W78882  38.073  32.529   2.238
 5815W        W78883  25.946  25.911   1.325
 5816W        W78884   1.473   6.820  11.218
 5817W        W78885  28.937  23.566   4.510
 5818W        W78886  43.942  34.582  13.461
 5819W        W78887  40.552   4.656  12.927
 5820W        W78888  44.661  12.167   3.327
 5821W        W78889  37.371  27.952   4.222
 5822W        W78890  36.944  22.589  11.528
 5823W        W78891  12.086  19.604  11.420
 5824W        W78892  14.785  30.591  11.637
 5825W        W78893  11.851  31.661   2.829
 5826W        W78894   9.119  10.207   3.645
 5827W        W78895   9.374  31.613   2.414
 5828W        W78896  39.350  17.958  11.915
 5829W        W78897  33.360  42.924   3.857
 5830W        W78898  18.101  43.875  14.944
 5831W        W78899  16.724   4.888   2.124
 5832W        W78900  43.938   3.829  10.918
 5833W        W78901  36.513  40.267  13.406
 5834W        W78902   4.261   7.222  14.836
 5835W        W78903  10.850  36.918   1.329
 5836W        W78904  15.616  12.303   3.223
 5837W        W78905  24.622   3.185   3.297
 5838W        W78906  14.092  29.666  13.430
 5839W        W78907  17.367   1.014  11.077
 5840W        W78908  39.562  26.319   0.619
 5841W        W78909  23.633  35.772   0.716
 5842W        W78910  20.472  34.941  13.588
 5843W        W78911  27.551   3.393   3.234
 5844W        W78912  35.881  35.007  14.858
 5845W        W78913   0.460   5.410  10.746
 5846W        W78914  18.247  22.951  12.487
 5847W        W78915  38.114  12.730  10.751
 5848W        W78916   3.891  26.525   2.156
 5849W        W78917  15.795  40.498  13.053
 5850W        W78918   5.460  29.316  14.101
 5851W        W78919   3.485  17.491   2.190
 5852W        W78920   6.362  35.472  10.621
 5853W        W78921   1.659  33.851   0.502
 5854W        W78922  35.456  19.807  13.885
 5855W        W78923  12.183  19.438  10.947
 5856W        W78924  43.942  42.272  14.871
 5857W        W78925  37.652  28.968  12.978
 5858W        W78926   9.705   5.730  14.933
 5859W        W78927  32.538  39.289   4.532
 5860W        W78928  16.318  31.403   4.207
 5861W        W78929  29.006  17.193  11.589
 5862W        W78930  28.055  16.634   2.720
 5863W        W78931  20.011   1.483   4.822
 5864W        W78932  24.604  30.920   1.247
 5865W        W78933   1.925  44.760   4.630
 5866W        W78934   9.639  33.392   0.302
 5867W        W78935  20.682  34.814  11.017
 5868W        W78936  40.261  37.268   3.216
 5869W        W78937   4.637  20.202  12.525
 5870W        W78938  40.831  13.651  12.512
 5871W        W78939  30.956  18.850   1.043
 5872W        W78940   8.002   9.726  12.849
 5873W        W78941  42.284   6.191  12.495
 5874W        W78942  37.513  30.510   2.992
 5875W        W78943  20.233  43.946  12.928
 5876W        W78944  38.319  43.845  13.565
 5877W        W78945  40.652   7.219  14.787
 5878W        W78946  28.744  39.297   4.813
 5879W        W78947  14.732   4.668  12.412
 5880W        W78948  31.125   5.457   2.077
 5881W        W78949  14.769  37.007   0.915
 5882W        W78950   8.714   1.186  13.296
 5883W        W78951  11.481  28.064  11.931
 5884W        W78952   0.295  38.948  14.514
 5885W        W78953  35.389  17.758  11.936
 5886W        W78954  26.718  33.867   0.455
 5887W        W78955  23.986  34.125  12.118
 5888W        W78956  13.790   8.378   4.151
 5889W        W78957  38.951  40.341   1.802
 5890W        W78958  44.033  16.640  12.953
 5891W        W78959  16.244  14.660  10.773
 5892W        W78960  32.589  38.553  12.966
 5893W        W78961   2.778  16.096  10.727
 5894W        W78962  24.438  27.828  12.921
 5895W        W78963   3.088  31.564   4.297
 5896W        W78964   1.894  23.420   2.444
 5897W        W78965  35.271  26.082  11.652
 5898W        W78966  19.405   7.370  10.267
 5899W        W78967  25.383  22.219   0.415
 5900W        W78968  27.276  15.206   2.677
 5901W        W78969  25.166  41.286   3.264
 5902W        W78970  20.469  39.085  11.000
 5903W        W78971  40.400  24.785   4.811
 5904W        W78972  13.522  32.790   3.704
 5905W        W78973  37.430  16.565  14.299
 5906W        W78974  38.414   0.641   5.178
 5907W        W78975  14.768  31.554   4.831
 5908W        W78976  41.134  19.162   4.687
 5909W        W78977  24.218  23.285  13.453
 5910W        W78978  35.204  26.471  12.056
 5911W        W78979  21.397   2.078  13.551
 5912W        W78980  40.943  31.229   2.717
 5913W        W78981  16.690  42.364   1.308
 5914W        W78982  20.971   9.397  13.309
 5915W        W78983   6.462  22.629  12.822
 5916W        W78984  29.996  40.800   4.038
 5917W        W78985  13.178   7.692   3.671
 5918W        W78986  10.414   5.306   1.318
 5919W        W78987   9.767   4.658   1.316
 5920W        W78988  31.010  40.114  12.394
 5921W        W78989  26.725  43.154   1.324
 5922W        W78990   7.900  23.148  14.858
 5923W        W78991   5.564  24.407  12.616
 5924W        W78992  23.762  26.621  11.555
 5925W        W78993  38.225  11.288  12.068
 5926W        W78994  16.091  40.024  12.523
 5927W        W78995  41.250  12.390  11.610
 5928W        W78996  41.324  34.678   2.318
 5929W        W78997  22.287  13.297  12.415
 5930W        W78998  19.842  16.829  13.553
 5931W        W78999  38.990  40.164   4.203
 5932W        W79000   7.573  34.356  13.892
 5933W        W79001  16.094   3.454  11.837
 5934W        W79002   3.052  19.183   1.741
 5935W        W79003  11.060  27.161   2.715
 5936W        W79004   1.273  41.006   4.824
 5937W        W79005  13.551  40.364   1.486
 5938W        W79006  34.592  11.556   3.551
 5939W        W79007  35.874  20.441   4.074
 5940W        W79008  22.333  42.811   4.983
 5941W        W79009  27.095  39.463   3.456
 5942W        W79010  11.146  31.813  13.440
 5943W        W79011  16.756  37.080   0.875
 5944W        W79012  18.619  34.589  13.020
 5945W        W79013  32.383  17.705   0.392
 5946W        W79014   0.775   0.829   4.716
 5947W        W79015  31.888   2.438  12.836
 5948W        W79016   9.844   2.923   0.395
 5949W        W79017  40.309  16.687   1.707
 5950W        W79018   9.076   1.504  10.762
 5951W        W79019  39.618  27.765  13.279
 5952W        W79020  19.176  35.934   0.418
 5953W        W79021  19.632  39.114  12.811
 5954W        W79022   7.750  39.809  10.367
 5955W        W79023  25.166  42.723  12.454
 5956W        W79024  32.225  26.863   1.358
 5957W        W79025  37.030  18.304   2.132
 5958W        W79026  40.860  22.141  14.005
 5959W        W79027  26.037   6.232  10.584
 5960W        W79028  38.197  13.943  14.017
 5961W        W79029  41.799  13.255   1.253
 5962W        W79030  30.518  10.957  10.680
 5963W        W79031  23.464  21.842   0.465
 5964W        W79032   3.500  19.304   1.967
 5965W        W79033  34.285   5.794  11.980
 5966W        W79034  23.286  25.050  11.229
 5967W        W79035  34.208  28.213   2.716
 5968W        W79036  39.877  27.518  11.735
 5969W        W79037   3.530   9.196   2.141
 5970W        W79038   6.199  11.641  10.495
 5971W        W79039   3.790  15.326  14.899
 5972W        W79040   5.607  31.407  11.809
 5973W        W79041  21.537   6.315  14.270
 5974W        W79042   2.737  41.927   0.695
 5975W        W79043  35.057   6.790   3.078
 5976W        W79044  28.418  39.164   2.976
 5977W        W79045  19.713   4.468   0.344
 5978W        W79046   7.740   6.658  12.051
 5979W        W79047  24.969  23.514   1.890
 5980W        W79048  14.010  15.771   0.326
 5981W        W79049   2.547  29.899   1.432
 5982W        W79050  38.542  17.345  11.896
 5983W        W79051   4.411  21.728   0.356
 5984W        W79052  18.882  35.979  13.212
 5985W        W79053  27.953   3.767  11.662
 5986W        W79054  13.665  43.871   4.130
 5987W        W79055   4.208  30.923   3.258
 5988W        W79056   3.185  22.931   2.738
 5989W        W79057   3.252  27.066   3.227
 5990W        W79058  14.220  34.869  10.853
 5991W        W79059  23.399  42.382   0.244
 5992W        W79060  36.897  29.984   0.926
 5993W        W79061   0.847   3.319   4.551
 5994W        W79062   0.749  17.328  11.576
 5995W        W79063  40.139   2.155   2.467
 5996W        W79064   7.745  25.474   0.937
 5997W        W79065  15.454  39.296  11.117
 5998W        W79066  41.341  21.739  11.526
 5999W        W79067  17.253  30.464  13.578
 6000W        W79068   7.540  10.787  13.416
 6001W        W79069   8.490   6.454   1.803
 6002W        W79070  12.653  24.025  10.767
 6003W        W79071  44.519  41.985   2.844
 6004W        W79072  26.585  11.933   3.619
 6005W        W79073   9.865   4.389  14.498
 6006W        W79074  38.839   8.161   0.255
 6007W        W79075   2.352  38.424   2.454
 6008W        W79076  13.351  26.844   0.243
 6009W        W79077  15.641  15.319  10.369
 6010W        W79078  17.273  20.193  14.585
 6011W        W79079   1.957  10.947   2.682
 6012W        W79080   3.468  40.214  10.048
 6013W        W79081  43.042  18.632   0.299
 6014W        W79082  29.138   9.679  11.115
 6015W        W79083  39.585  33.636   3.843
 6016W        W79084  22.254  30.652   1.848
 6017W        W79085  26.647   0.296  12.972
 6018W        W79086  22.930   5.738   3.201
 6019W        W79087  15.520  15.683   5.303
 6020W        W79088  16.719  40.299  11.240
 6021W        W79089   5.645  23.503  14.219
 6022W        W79090  16.628  36.059   0.730
 6023W        W79091  10.567  11.103   0.798
 6024W        W79092  34.509  16.427  14.584
 6025W        W79093  42.324  13.765   3.733
 6026W        W79094   0.554  22.602  14.070
 6027W        W79095  43.312  10.851  14.362
 6028W        W79096   9.716  26.701   3.740
 6029W        W79097   9.771  29.953   4.816
 6030W        W79098  12.731  12.540   1.239
 6031W        W79099  25.679  14.264   0.548
 6032W        W79100   3.442   5.164  12.472
 6033W        W79101  25.441   9.998   0.929
 6034W        W79102  15.213  10.701  11.005
 6035W        W79103   0.434  30.027   3.316
 6036W        W79104  15.630  19.591   1.382
 6037W        W79105  38.527  19.184   4.173
 6038W        W79106  35.557  18.237   1.844
 6039W        W79107   6.429  12.032  10.756
 6040W        W79108   2.778  34.222  12.366
 6041W        W79109  27.968  10.576  13.355
 6042W        W79110  35.378  38.921   0.380
 6043W        W79111  33.798  16.771  12.945
 6044W        W79112  12.558   2.856  14.876
 6045W        W79113  29.522  42.586  10.626
 6046W        W79114  19.218   3.190   0.378
 6047W        W79115  32.201  25.105   4.290
 6048W        W79116   2.343  44.333   2.698
 6049W        W79117  31.104   2.393  11.631
 6050W        W79118  22.648   1.236  11.911
 6051W        W79119  24.045  40.948   2.751
 6052W        W79120  33.000   2.212   1.528
 6053W        W79121  33.508  44.427  10.495
 6054W        W79122  25.612  15.741  12.857
 6055W        W79123  18.014  29.367   2.761
 6056W        W79124  23.230   2.997  10.971
 6057W        W79125  29.490  29.421  12.501
 6058W        W79126  44.903  13.285  14.826
 6059W        W79127  39.365  27.411  11.826
 6060W        W79128  28.925  18.526   3.770
 6061W        W79129  28.029  23.259   1.746
 6062W        W79130  40.986  38.899   1.282
 6063W        W79131   7.867  23.048  13.919
 6064W        W79132  41.820  30.046   3.655
 6065W        W79133  11.831  22.548  13.361
 6066W        W79134   4.824   6.177   1.872
 6067W        W79135  25.697  21.697   0.856
 6068W        W79136  38.858  19.085  13.815
 6069W        W79137   1.291   6.301   4.732
 6070W        W79138   4.491  42.831  13.917
 6071W        W79139   5.534  35.484  13.802
 6072W        W79140  35.551  23.490   2.755
 6073W        W79141  10.649  15.375   3.137
 6074W        W79142  12.162  38.395   3.271
 6075W        W79143  23.957  43.585   4.905
 6076W        W79144  43.750   8.181  11.545
 6077W        W79145  15.325  26.516   2.739
 6078W        W79146  32.406  43.386  10.492
 6079W        W79147  22.852  41.821   1.232
 6080W        W79148  29.063  22.444   3.303
 6081W        W79149  33.338   9.456  13.839
 6082W        W79150  39.532  38.067   3.758
 6083W        W79151  17.002  22.529  12.827
 6084W        W79152   0.770  42.846   2.314
 6085W        W79153  31.136  44.881  14.343
 6086W        W79154  39.969  25.882   2.397
 6087W        W79155  43.866  31.617  10.640
 6088W        W79156  39.974  12.336   2.325
 6089W        W79157  35.875  27.018   3.233
 6090W        W79158   4.106  13.897  12.894
 6091W        W79159  24.222  17.048   4.714
 6092W        W79160  18.514   7.681  14.676
 6093W        W79161   0.976  17.127  13.255
 6094W        W79162  18.174  23.015  14.532
 6095W        W79163  28.124  12.920   1.228
 6096W        W79164  42.790  30.511   2.823
 6097W        W79165  40.956  39.549   1.665
 6098W        W79166   8.553  26.454  12.499
 6099W        W79167  33.506   3.323   4.586
 6100W        W79168  34.519   5.936  12.419
 6101W        W79169  23.666   9.324   3.008
 6102W        W79170  42.192  10.060   1.296
 6103W        W79171  20.088   6.560   5.026
 6104W        W79172  14.726  41.953  12.933
 6105W        W79173  38.635   6.662  10.666
 6106W        W79174   9.330  14.310   0.879
 6107W        W79175  12.865   4.413  10.510
 6108W        W79176  29.154  44.398  10.637
 6109W        W79177  18.258  11.905  11.103
 6110W        W79178  37.157  41.265  10.342
 6111W        W79179  32.678  13.310   2.334
 6112W        W79180  21.522   1.444  14.387
 6113W        W79181  36.377  27.883  13.374
 6114W        W79182  12.279   0.899   2.025
 6115W        W79183  37.751  42.823   5.398
 6116W        W79184   2.729  35.356  13.453
 6117W        W79185  18.230  19.615   0.798
 6118W        W79186  16.984   6.242  14.497
 6119W        W79187  25.516   7.689   4.153
 6120W        W79188  26.239  32.261  12.411
 6121W        W79189  11.054  11.707   3.183
 6122W        W79190  14.314  33.941   0.866
 6123W        W79191  21.664  14.563   4.265
 6124W        W79192   0.015  18.755   1.179
 6125W        W79193  39.304  20.923  11.916
 6126W        W79194  30.995   4.775  11.488
 6127W        W79195  42.711  42.362   0.171
 6128W        W79196  20.219  41.774   2.313
 6129W        W79197   2.682   1.659   2.342
 6130W        W79198   7.942  38.022   1.813
 6131W        W79199   9.262  16.606  12.563
 6132W        W79200  14.305  16.189  14.309
 6133W        W79201  28.072  16.437  12.301
 6134W        W79202  17.219   1.209  11.599
 6135W        W79203  39.361  16.815   1.293
 6136W        W79204  15.844  13.289  13.898
 6137W        W79205  10.139  16.654   0.299
 6138W        W79206  32.414  14.782   4.173
 6139W        W79207  15.172  41.721  13.080
 6140W        W79208   7.757   6.977   0.226
 6141W        W79209   1.917  39.050   1.173
 6142W        W79210  29.883  34.229  14.245
 6143W        W79211  28.337  43.959   1.308
 6144W        W79212   2.805   4.324   4.800
 6145W        W79213  15.420   3.683   3.711
 6146W        W79214  12.700   0.568  14.836
 6147W        W79215  12.755  12.751  10.389
 6148W        W79216  25.775  21.677   3.099
 6149W        W79217  15.779  16.785   0.751
 6150W        W79218  29.867  32.035   2.391
 6151W        W79219  42.029  39.018   0.992
 6152W        W79220  15.374   5.380   2.923
 6153W        W79221  10.875  26.059   1.170
 6154W        W79222   0.758  31.931   2.978
 6155W        W79223  29.873  13.719  13.465
 6156W        W79224   3.721   0.346  11.869
 6157W        W79225  23.679  26.129   2.585
 6158W        W79226  16.808  12.778  11.672
 6159W        W79227  32.671  19.571   3.647
 6160W        W79228  15.847  20.200   2.792
 6161W        W79229  30.494  20.064   3.349
 6162W        W79230  15.200  27.533   3.735
 6163W        W79231  40.745   1.129   0.735
 6164W        W79232  25.069  28.382  12.484
 6165W        W79233  29.165  21.265   0.810
 6166W        W79234  23.019  14.235   2.193
 6167W        W79235  41.890  36.953  11.814
 6168W        W79236  30.016  14.966  13.908
 6169W        W79237  26.672  35.472   1.447
 6170W        W79238  23.623  32.633  13.470
 6171W        W79239   5.730  34.832  11.581
 6172W        W79240  20.365  13.696   1.151
 6173W        W79241   2.920   0.904   5.067
 6174W        W79242   1.750  42.284  12.559
 6175W        W79243  17.276   2.828   1.312
 6176W        W79244  42.573  11.812   3.490
 6177W        W79245   3.625  21.058  11.608
 6178W        W79246  42.335  30.064   3.430
 6179W        W79247  19.250  23.579   4.600
 6180W        W79248  26.730  40.862  12.579
 6181W        W79249  12.528  42.845   4.491
 6182W        W79250   8.249  19.758   4.109
 6183W        W79251  19.681  15.754   1.917
 6184W        W79252  10.613  26.668   3.362
 6185W        W79253  20.534  38.583  10.920
 6186W        W79254  39.276  40.017   4.668
 6187W        W79255  25.726  32.486  13.978
 6188W        W79256  38.081   7.596   4.231
 6189W        W79257   0.055  26.487   1.134
 6190W        W79258  29.994  12.320  13.095
 6191W        W79259  14.096  24.162  14.703
 6192W        W79260  25.577  23.437   0.284
 6193W        W79261   0.988  23.581   2.790
 6194W        W79262   4.665  15.271   0.437
 6195W        W79263  29.964  37.506  12.005
 6196W        W79264  26.480  36.118   1.370
 6197W        W79265  21.280  40.789  13.864
 6198W        W79266  38.559  20.500  13.604
 6199W        W79267  39.126  27.995  13.871
 6200W        W79268  41.946   0.848  12.589
 6201W        W79269  33.046   6.166  12.118
 6202W        W79270  43.382  18.034  13.440
 6203W        W79271  39.580  34.638  13.478
 6204W        W79272  42.116   4.353  11.427
 6205W        W79273  24.495  24.125  13.761
 6206W        W79274  12.042  35.742   0.731
 6207W        W79275  20.988   8.780  12.079
 6208W        W79276  11.339  34.217   0.390
 6209W        W79277  39.805  31.302   2.737
 6210W        W79278  18.278   2.535  11.484
 6211W        W79279  36.570   6.666  13.009
 6212W        W79280  32.829  41.441  11.848
 6213W        W79281  35.036  39.317  14.962
 6214W        W79282  37.838  16.646  12.008
 6215W        W79283  18.606  35.045  14.764
 6216W        W79284   5.378   3.129   1.391
 6217W        W79285  41.842  13.681  14.542
 6218W        W79286   0.059  10.783   3.275
 6219W        W79287  39.191   5.795   5.565
 6220W        W79288  15.394   5.809  13.860
 6221W        W79289  40.975  24.227  14.151
 6222W        W79290  19.853  36.491  12.087
 6223W        W79291  14.034  37.963  10.744
 6224W        W79292  16.861  10.175  12.136
 6225W        W79293  11.637   5.788  14.850
 6226W        W79294   7.185  16.613   2.750
 6227W        W79295  27.873  26.775  10.253
 6228W        W79296  44.849   5.305   1.989
 6229W        W79297  28.406  27.966  11.440
 6230W        W79298  24.870   7.841  10.649
 6231W        W79299  40.388  25.237  11.729
 6232W        W79300   8.180  26.477   2.322
 6233W        W79301  27.674   4.744   0.294
 6234W        W79302  11.772  20.990   0.526
 6235W        W79303  36.878  40.114   1.545
 6236W        W79304   8.392   6.773  13.799
 6237W        W79305   9.214  34.131  10.775
 6238W        W79306  33.654   3.920   0.047
 6239W        W79307  20.027  28.503  13.329
 6240W        W79308  36.907  23.260   4.683
 6241W        W79309  19.143  22.026   2.911
 6242W        W79310  32.835   9.335   0.887
 6243W        W79311  35.296   3.191   0.349
 6244W        W79312  23.708  39.007  14.368
 6245W        W79313  39.813  34.788  11.597
 6246W        W79314  38.446  30.439   5.039
 6247W        W79315  39.482  15.678   1.556
 6248W        W79316  30.479  37.495   1.203
 6249W        W79317  38.501  13.706  11.947
 6250W        W79318  35.876  30.005   4.815
 6251W        W79319  17.165  15.111  10.744
 6252W        W79320  14.024  36.641  12.003
 6253W        W79321  20.890  25.515   3.859
 6254W        W79322  18.568   3.272  10.682
 6255W        W79323  31.098  13.682   0.520
 6256W        W79324   1.814  23.990  14.853
 6257W        W79325  36.922   9.223  10.968
 6258W        W79326  13.361  12.351   3.165
 6259W        W79327   7.563  11.797  14.837
 6260W        W79328   4.861   5.673   1.968
 6261W        W79329  28.349  11.201   1.814
 6262W        W79330  26.244  10.243  10.986
 6263W        W79331  43.022  18.358   0.898
 6264W        W79332  21.659  16.534   1.728
 6265W        W79333  35.865  17.362  11.160
 6266W        W79334  22.911   4.273  13.495
 6267W        W79335  11.857  26.405  13.447
 6268W        W79336  15.024  41.575   0.811
 6269W        W79337  24.451   9.313   1.885
 6270W        W79338   8.233  41.440  14.079
 6271W        W79339  16.681   8.054  14.524
 6272W        W79340  26.429  10.892  11.841
 6273W        W79341  42.637  40.641   4.373
 6274W        W79342  13.835  12.369   0.402
 6275W        W79343  13.547  27.901  11.570
 6276W        W79344  31.952  31.186   4.294
 6277W        W79345   4.272   7.413  10.912
 6278W        W79346  18.160  40.812   1.642
 6279W        W79347  10.955  22.722  13.378
 6280W        W79348  14.070   0.768  11.784
 6281W        W79349  26.230  18.161   3.286
 6282W        W79350  18.724  34.330  13.448
 6283W        W79351  10.217  29.846   1.689
 6284W        W79352   5.313  17.301   1.363
 6285W        W79353   3.630  13.628  11.977
 6286W        W79354  27.554   8.126  11.152
 6287W        W79355  24.547  20.436   4.700
 6288W        W79356  17.483  13.098  10.685
 6289W        W79357   6.363  39.124   0.739
 6290W        W79358  15.330  22.044  10.541
 6291W        W79359  42.439  44.968   3.408
 6292W        W79360  20.798  16.349  10.490
 6293W        W79361   3.916  22.635   1.803
 6294W        W79362  24.867  23.619   4.886
 6295W        W79363   9.760  36.008   0.861
 6296W        W79364   1.696  18.031  14.480
 6297W        W79365   0.430  28.715  13.079
 6298W        W79366  32.871  14.639  11.177
 6299W        W79367  19.241  10.821  14.991
 6300W        W79368  23.137  12.850  11.543
 6301W        W79369  31.346  29.571  14.749
 6302W        W79370   8.864  24.934   0.463
 6303W        W79371  13.153  43.885  11.420
 6304W        W79372  22.492  21.527  12.515
 6305W        W79373   9.455  32.000   0.364
 6306W        W79374  22.319   8.663  13.069
 6307W        W79375   6.888  36.759   1.916
 6308W        W79376  20.542  23.262  13.828
 6309W        W79377  33.932  25.011  13.463
 6310W        W79378  29.571  24.997   3.165
 6311W        W79379  41.435  35.825  12.984
 6312W        W79380  14.102  38.657   2.279
 6313W        W79381  28.252  43.106  13.956
 6314W        W79382   6.824  19.366   4.603
 6315W        W79383  27.455  30.375  14.493
 6316W        W79384  16.813   0.853  14.964
 6317W        W79385  35.847  42.006  11.556
 6318W        W79386  44.847  18.000   4.627
 6319W        W79387   2.393  38.794   3.783
 6320W        W79388  27.474  41.042  12.961
 6321W        W79389  34.897  26.514   4.735
 6322W        W79390   0.118  44.082   0.400
 6323W        W79391  38.095   0.113  11.167
 6324W        W79392  11.439  35.024   0.626
 6325W        W79393  17.237  36.339  10.743
 6326W        W79394  16.665  19.809  12.489
 6327W        W79395  21.231  42.741  10.664
 6328W        W79396  29.962  26.089  13.898
 6329W        W79397  22.048   2.828   0.686
 6330W        W79398  23.224  30.230  12.931
 6331W        W79399  41.704  38.340  13.940
 6332W        W79400  18.788  13.711  13.040
 6333W        W79401  31.006   4.188  14.969
 6334W        W79402  12.159  41.272   3.157
 6335W        W79403  34.564   9.946   4.165
 6336W        W79404  40.182  25.675  13.441
 6337W        W79405   3.767  35.399   3.189
 6338W        W79406  38.539   5.412  14.652
 6339W        W79407  21.120  27.417   0.217
 6340W        W79408  37.834  30.856   3.239
 6341W        W79409  31.109  11.001   0.522
 6342W        W79410  28.193   9.441  11.149
 6343W        W79411  16.122  12.925   1.918
 6344W        W79412  32.422  23.760  11.173
 6345W        W79413  10.584  41.015  14.203
 6346W        W79414  25.546  44.206  13.631
 6347W        W79415   2.772  11.418   1.229
 6348W        W79416  38.122  11.317  14.377
 6349W        W79417  43.879  16.731   0.388
 6350W        W79418  22.511   9.932   1.747
 6351W        W79419  15.037   4.224   2.291
 6352W        W79420  38.349  14.684  12.708
 6353W        W79421  31.404  27.926  10.482
 6354W        W79422  18.691  12.549   0.998
 6355W        W79423  25.039  19.012   2.281
 6356W        W79424  32.954  40.103  13.112
 6357W        W79425  26.457  24.496   4.253
 6358W        W79426  32.391  12.666  13.501
 6359W        W79427  42.761  30.095  12.121
 6360W        W79428   8.858   3.057  14.877
 6361W        W79429  42.919  16.912   1.917
 6362W        W79430  30.900  24.063  13.359
 6363W        W79431   9.833  33.372  10.438
 6364W        W79432  23.706  39.510   2.335
 6365W        W79433  37.530  33.899  14.706
 6366W        W79434  40.459  33.835  11.188
 6367W        W79435  43.208  19.142   0.450
 6368W        W79436  32.011  24.065   1.750
 6369W        W79437  29.897  43.262  11.137
 6370W        W79438   5.899  12.395  11.588
 6371W        W79439  21.369  13.409   5.307
 6372W        W79440   8.253  40.893   0.332
 6373W        W79441   4.664  36.682  11.491
 6374W        W79442  26.304  40.864  10.443
 6375W        W79443  11.206   7.657   1.007
 6376W        W79444   8.586   6.363  13.261
 6377W        W79445   9.035   5.472  11.573
 6378W        W79446  35.974  20.669   3.171
 6379W        W79447  26.353  11.593  13.255
 6380W        W79448  17.635  33.357   4.131
 6381W        W79449  18.545   1.886   1.053
 6382W        W79450  28.281  36.514   0.544
 6383W        W79451  19.611  31.633  14.519
 6384W        W79452  26.629  44.502  13.390
 6385W        W79453  13.706  31.462   4.664
 6386W        W79454  30.189  21.036   0.692
 6387W        W79455  11.756  11.314   2.379
 6388W        W79456  14.151  15.146   4.349
 6389W        W79457  28.192  15.247   2.456
 6390W        W79458  39.775  14.186   3.111
 6391W        W79459  13.156   4.799  13.367
 6392W        W79460   6.958  41.790  11.932
 6393W        W79461  30.438   9.308  10.923
 6394W        W79462  32.082  14.113   2.659
 6395W        W79463  29.458   6.677  10.685
 6396W        W79464   9.130  34.757   4.731
 6397W        W79465  34.839  14.367  11.559
 6398W        W79466   3.827  13.913   3.032
 6399W        W79467  27.634  19.303  12.375
 6400W        W79468  23.630   0.199  12.679
 6401W        W79469  44.646  43.043  12.032
 6402W        W79470  21.068  29.885   0.628
 6403W        W79471   6.660  11.119  14.744
 6404W        W79472  37.461  29.801  11.183
 6405W        W79473   3.285  40.975  10.709
 6406W        W79474   6.657  29.471  11.057
 6407W        W79475  41.483   8.401   4.466
 6408W        W79476  39.094  29.142  13.999
 6409W        W79477  10.276  12.449   0.453
 6410W        W79478  31.040  29.131  13.354
 6411W        W79479  43.781  44.749   3.847
 6412W        W79480   5.259   4.212  13.453
 6413W        W79481  34.287  17.036  10.694
 6414W        W79482  29.126  43.009  10.739
 6415W        W79483  42.189  16.167   3.187
 6416W        W79484  16.083   2.560   0.532
 6417W        W79485  42.989  43.498   3.664
 6418W        W79486  41.763  13.179  14.712
 6419W        W79487  25.154  12.800  13.863
 6420W        W79488  35.614  10.322   0.852
 6421W        W79489  13.236  19.719   2.328
 6422W        W79490  19.617  14.529   3.177
 6423W        W79491  21.125   4.215  10.721
 6424W        W79492  31.483  40.551   2.806
 6425W        W79493  18.152   4.853   1.018
 6426W        W79494  44.350  14.387   2.345
 6427W        W79495   7.895  40.153   1.323
 6428W        W79496   9.100  19.729  12.415
 6429W        W79497   1.206  38.009  10.414
 6430W        W79498  22.767  22.647  14.632
 6431W        W79499  44.810  15.507   0.640
 6432W        W79500   2.853  19.532   0.919
 6433W        W79501  39.237  21.080   4.201
 6434W        W79502  12.169  38.624   0.225
 6435W        W79503  40.872  21.579   5.086
 6436W        W79504  27.847  26.023   0.340
 6437W        W79505  15.673  34.055  12.808
 6438W        W79506  10.904  41.023   0.658
 6439W        W79507  44.903   4.238  13.968
 6440W        W79508  22.267  39.053   3.279
 6441W        W79509  35.005  10.611   0.269
 6442W        W79510  36.045  36.923   3.766
 6443W        W79511   6.321  14.740  12.083
 6444W        W79512   8.222   8.171  12.078
 6445W        W79513  13.141  24.162  12.965
 6446W        W79514  12.113  15.718   0.376
 6447W        W79515  41.826   0.616   1.701
 6448W        W79516   5.197   0.665   1.992
 6449W        W79517  28.742  39.302   1.323
 6450W        W79518  25.903  14.204   3.685
 6451W        W79519  40.442  44.519  10.207
 6452W        W79520   1.509  13.785  11.047
 6453W        W79521  15.113   6.204  11.132
 6454W        W79522  18.364  11.410  12.914
 6455W        W79523  20.988  20.649   2.336
 6456W        W79524  41.449  33.858  14.392
 6457W        W79525  44.944  20.496   1.872
 6458W        W79526   0.397  10.232   2.261
 6459W        W79527  41.473   0.812  13.767
 6460W        W79528  38.493  19.048   2.255
 6461W        W79529  28.210  31.920   4.644
 6462W        W79530  36.377  18.684   4.523
 6463W        W79531   3.937  26.427  10.882
 6464W        W79532  40.344  25.726   3.819
 6465W        W79533  27.270  22.777   3.081
 6466W        W79534  24.841   3.310   4.493
 6467W        W79535  14.706   3.841   2.343
 6468W        W79536   7.177  36.003   1.602
 6469W        W79537   7.675  22.221  10.746
 6470W        W79538  29.580  24.104   1.059
 6471W        W79539  33.580  10.681   3.261
 6472W        W79540  32.871  43.691   2.343
 6473W        W79541  31.134   7.393  13.575
 6474W        W79542  33.837  34.092  14.154
 6475W        W79543  40.898   6.905  11.498
 6476W        W79544  15.533  20.795  12.805
 6477W        W79545  26.988  18.544  13.357
 6478W        W79546  44.357  32.168   3.240
 6479W        W79547   8.306  40.387  14.032
 6480W        W79548   8.795  31.429  13.087
 6481W        W79549   4.061  25.014  10.318
 6482W        W79550   6.495  38.343  13.306
 6483W        W79551  26.340  11.707   0.926
 6484W        W79552  41.911  38.994  10.735
 6485W        W79553  28.533   9.658  13.908
 6486W        W79554  29.593  29.392  14.301
 6487W        W79555  28.613  23.756  14.587
 6488W        W79556  31.804  14.248   0.816
 6489W        W79557   3.915   1.910   1.430
 6490W        W79558   2.863   2.186   0.387
 6491W        W79559  34.779  37.126  10.584
 6492W        W79560  29.468  16.770  14.982
 6493W        W79561  44.382   0.656  11.053
 6494W        W79562  21.039   0.084   0.521
 6495W        W79563  15.641  16.467   3.550
 6496W        W79564  25.625  28.865  14.321
 6497W        W79565  42.114  38.355   4.143
 6498W        W79566  43.120  41.273  11.258
 6499W        W79567   3.405  23.128   2.234
 6500W        W79568  34.020  20.135   2.671
 6501W        W79569  14.382   3.437   4.175
 6502W        W79570  24.655   0.744  12.079
 6503W        W79571  27.169  28.948   2.433
 6504W        W79572  38.014  20.559  11.898
 6505W        W79573  25.224  34.427  14.810
 6506W        W79574  12.567  34.520  11.575
 6507W        W79575  43.730  16.380   0.016
 6508W        W79576  14.655  17.029   4.631
 6509W        W79577  17.224  36.310  14.730
 6510W        W79578  28.794  32.187  11.044
 6511W        W79579  15.145   3.162   1.734
 6512W        W79580  41.970  38.149   3.684
 6513W        W79581  42.546  26.180   2.757
 6514W        W79582  38.847  42.288  11.667
 6515W        W79583  30.612  12.754   1.814
 6516W        W79584   6.165  20.599  10.756
 6517W        W79585  40.481  21.039   1.201
 6518W        W79586   7.832   3.458  13.662
 6519W        W79587  39.139   9.915  11.965
 6520W        W79588  25.086  10.771   4.135
 6521W        W79589  12.582  11.411  14.572
 6522W        W79590   2.401  36.553   4.750
 6523W        W79591  11.892  12.636   0.948
 6524W        W79592   0.395   8.395   0.920
 6525W        W79593  25.904  33.762  11.952
 6526W        W79594   1.249  25.643   1.911
 6527W        W79595  10.731  34.024  11.547
 6528W        W79596   2.527   4.309   1.381
 6529W        W79597  21.746  30.673   2.478
 6530W        W79598  41.623  18.655   4.127
 6531W        W79599  25.070  40.026  11.961
 6532W        W79600   8.101  29.646   2.984
 6533W        W79601  17.636  11.303  14.787
 6534W        W79602   5.311  14.698   1.992
 6535W        W79603  21.256  12.273   0.478
 6536W        W79604  35.613  44.978   4.085
 6537W        W79605   9.792  28.994   3.392
 6538W        W79606  34.986  44.785   2.361
 6539W        W79607  44.957  17.251   1.428
 6540W        W79608   5.246  16.338  13.262
 6541W        W79609  10.234  12.863   3.838
 6542W        W79610   3.489   6.332   2.173
 6543W        W79611  11.580  17.684  13.466
 6544W        W79612  35.344  39.286   4.212
 6545W        W79613  10.417  11.104   4.220
 6546W        W79614   4.755   9.773   2.161
 6547W        W79615  11.732  39.484  12.943
 6548W        W79616  14.622  13.037  11.621
 6549W        W79617   9.569  37.906   3.761
 6550W        W79618   5.454   1.363  11.042
 6551W        W79619  31.384  41.354  13.890
 6552W        W79620  12.852  26.916  11.960
 6553W        W79621   6.296  13.013  11.063
 6554W        W79622  12.173   0.781   3.789
 6555W        W79623  35.543  23.173   4.555
 6556W        W79624  31.376  19.627  12.212
 6557W        W79625  42.773  27.253   2.409
 6558W        W79626   9.746  39.817   0.926
 6559W        W79627  44.423   1.004  14.383
 6560W        W79628  10.753  10.657  13.034
 6561W        W79629  34.792  13.136   1.027
 6562W        W79630  42.826   8.156  14.332
 6563W        W79631   8.679   8.865   4.361
 6564W        W79632   1.258  27.379   4.677
 6565W        W79633  43.043  33.614   0.383
 6566W        W79634  18.844   5.654   1.787
 6567W        W79635   6.931  29.912  11.101
 6568W        W79636  30.016  38.596  14.742
 6569W        W79637  31.564  27.179   4.073
 6570W        W79638  20.022  26.435   0.437
 6571W        W79639  31.056  19.220   0.681
 6572W        W79640  28.680   7.767  14.009
 6573W        W79641  24.473  27.135   4.520
 6574W        W79642  36.769   1.332  13.823
 6575W        W79643  16.427  14.275   3.347
 6576W        W79644  12.213  44.469   3.093
 6577W        W79645  33.100  24.281   1.465
 6578W        W79646  14.229  20.803   3.129
 6579W        W79647  33.116  30.988   4.024
 6580W        W79648  27.459  22.397  11.300
 6581W        W79649  25.923  42.381  13.945
 6582W        W79650  36.503  24.133  10.575
 6583W        W79651   9.798  11.793  13.023
 6584W        W79652   9.939  17.660   1.233
 6585W        W79653  34.628  22.044   4.464
 6586W        W79654  24.242  38.042  11.495
 6587W        W79655   1.398  14.446   3.092
 6588W        W79656  44.516  29.956   2.809
 6589W        W79657  34.073   8.756  14.299
 6590W        W79658  10.841   1.417  11.486
 6591W        W79659   2.694   2.714   2.236
 6592W        W79660  35.175   9.363  11.581
 6593W        W79661   5.402  29.162  10.751
 6594W        W79662  26.119  39.768   4.647
 6595W        W79663  30.408  24.504   1.755
 6596W        W79664  38.003   2.817  10.970
 6597W        W79665  40.793  39.385  12.399
 6598W        W79666  19.956  17.375  14.641
 6599W        W79667  20.090   8.220  14.211
 6600W        W79668   0.427  10.960   1.715
 6601W        W79669  41.421  17.320  10.427
 6602W        W79670  39.884  11.820   2.332
 6603W        W79671  27.756   0.851  11.190
 6604W        W79672  15.137  18.886  10.625
 6605W        W79673  17.302  14.878  11.565
 6606W        W79674  21.128   0.161   1.474
 6607W        W79675  35.661  22.776   2.333
 6608W        W79676  36.311  26.025   4.097
 6609W        W79677  27.990  31.579   3.645
 6610W        W79678  15.240   0.641   4.661
 6611W        W79679   5.263  31.233  13.085
 6612W        W79680  30.943  12.307  10.638
 6613W        W79681  43.996  31.407   4.051
 6614W        W79682  10.366  38.586  11.090
 6615W        W79683  32.269  28.143  10.228
 6616W        W79684  25.969   3.492  11.197
 6617W        W79685  10.810  20.344  14.515
 6618W        W79686  18.544  26.164  12.567
 6619W        W79687  11.828  31.909   1.758
 6620W        W79688   5.031  36.600  11.967
 6621W        W79689  34.330   2.713   3.268
 6622W        W79690   9.178  19.765  14.875
 6623W        W79691  22.494  14.989  14.659
 6624W        W79692  15.232  17.890   0.374
 6625W        W79693  43.477   8.243  11.098
 6626W        W79694  40.599  44.708  14.970
 6627W        W79695  16.031  34.777   2.203
 6628W        W79696  36.782  20.738  11.142
 6629W        W79697  43.193  43.910   3.888
 6630W        W79698  15.405   4.922  13.709
 6631W        W79699  15.780  37.918  12.772
 6632W        W79700   9.366   9.148  13.973
 6633W        W79701  14.538  29.046   0.313
 6634W        W79702   2.813  19.735   0.018
 6635W        W79703   3.163  44.759   0.691
 6636W        W79704   6.300  22.712  10.915
 6637W        W79705  23.504  32.045  12.064
 6638W        W79706  41.209   4.700   1.346
 6639W        W79707   1.940  10.106  14.462
 6640W        W79708  15.612  23.665  10.323
 6641W        W79709  17.272  29.431   1.767
 6642W        W79710  35.338  44.955  14.496
 6643W        W79711  43.435  40.017   4.208
 6644W        W79712   5.167  34.916  14.483
 6645W        W79713  30.422  10.905  14.888
 6646W        W79714   1.539  33.451  11.674
 6647W        W79715  44.715  27.077   3.281
 6648W        W79716   5.654  21.428   4.328
 6649W        W79717   9.927   8.373   0.854
 6650W        W79718   2.411  42.137  14.878
 6651W        W79719  41.335  36.320   4.523
 6652W        W79720  25.629  20.194  13.875
 6653W        W79721  17.471  39.804  14.495
 6654W        W79722  34.407   7.648  12.858
 6655W        W79723   0.378  19.031  14.291
 6656W        W79724  44.365  19.712   2.590
 6657W        W79725  35.510   4.823   4.557
 6658W        W79726  42.580  11.667  12.028
 6659W        W79727   5.296   0.219  14.723
 6660W        W79728   0.972  27.055   1.353
 6661W        W79729  21.777  25.144  13.027
 6662W        W79730   9.491  28.600   3.742
 6663W        W79731  23.447   5.129  14.956
 6664W        W79732   8.008  35.384  11.971
 6665W        W79733   7.218  10.252   4.177
 6666W        W79734  32.450   7.248   5.040
 6667W        W79735  38.482   9.073   0.209
 6668W        W79736  33.173  20.552  14.814
 6669W        W79737   2.761  43.561   2.685
 6670W        W79738  16.830  38.883  11.005
 6671W        W79739  39.938  25.834   3.470
 6672W        W79740  30.919  18.214  13.737
 6673W        W79741  18.407  20.027   1.076
 6674W        W79742   0.738  22.586  11.469
 6675W        W79743   1.784  31.179  10.720
 6676W        W79744  27.468   5.730   2.690
 6677W        W79745  14.458  44.448   2.265
 6678W        W79746  42.160  25.132  14.425
 6679W        W79747   3.229  35.331   3.089
 6680W        W79748   9.376  33.907   3.733
 6681W        W79749  19.220  10.745  14.046
 6682W        W79750   4.954   2.529   0.803
 6683W        W79751  41.275   6.031  10.503
 6684W        W79752  18.222  30.278  11.421
 6685W        W79753  28.201  26.531   3.780
 6686W        W79754  23.771  42.242   3.122
 6687W        W79755  40.552  27.400   2.844
 6688W        W79756  14.380   1.568   0.946
 6689W        W79757  37.842  28.920  11.169
 6690W        W79758  38.307  32.330  14.352
 6691W        W79759  34.042   4.746   4.115
 6692W        W79760  14.708   4.651  14.401
 6693W        W79761   7.761  10.659  12.452
 6694W        W79762  11.323  33.672  12.253
 6695W        W79763  26.723  26.509   4.434
 6696W        W79764  15.154  27.219  12.351
 6697W        W79765  19.446  23.780   0.494
 6698W        W79766  32.636  32.880   0.296
 6699W        W79767  38.113  24.264   1.771
 6700W        W79768  13.137  21.553  11.607
 6701W        W79769  41.131  14.628   1.223
 6702W        W79770  35.579  41.756   0.852
 6703W        W79771  20.597  44.803   4.523
 6704W        W79772  41.502  20.500  14.827
 6705W        W79773  10.733  42.331   3.273
 6706W        W79774  22.051  11.620  11.998
 6707W        W79775  23.435   7.404  12.532
 6708W        W79776  28.126   8.180   1.665
 6709W        W79777   7.337  20.790  11.101
 6710W        W79778  30.438  11.623   2.177
 6711W        W79779  38.616  40.011   2.133
 6712W        W79780  11.100  39.326   4.966
 6713W        W79781  13.154  34.104   1.788
 6714W        W79782   9.924  43.926   3.675
 6715W        W79783  12.135  25.600   3.103
 6716W        W79784  14.210   3.483   0.957
 6717W        W79785  20.690  15.895  11.507
 6718W        W79786   9.152   7.861   2.698
 6719W        W79787   4.584  34.506  14.916
 6720W        W79788   1.550  25.494  12.504
 6721W        W79789  43.114  14.709  13.818
 6722W        W79790   0.307  21.341   1.764
 6723W        W79791  15.292  41.275  11.591
 6724W        W79792   0.409  37.824   4.144
 6725W        W79793  10.809   0.871  14.780
 6726W        W79794   5.942  22.542   4.150
 6727W        W79795  33.006  38.884  13.597
 6728W        W79796  32.546  19.678   4.133
 6729W        W79797  35.336  28.897   3.127
 6730W        W79798  21.525  40.981   1.237
 6731W        W79799  16.741  35.463   1.845
 6732W        W79800   0.715  29.156  11.121
 6733W        W79801   9.381  19.887   0.740
 6734W        W79802  21.629   8.728  14.900
 6735W        W79803  26.679  15.278  14.855
 6736W        W79804   0.952  22.603   1.802
 6737W        W79805  42.085   5.034  12.212
 6738W        W79806  36.482   9.382   1.227
 6739W        W79807  25.785  26.705  10.643
 6740W        W79808  22.400  22.290  14.515
 6741W        W79809  29.860   9.360  13.895
 6742W        W79810  24.577  17.378   0.769
 6743W        W79811  33.918  34.623  13.434
 6744W        W79812  13.858  36.606   0.164
 6745W        W79813  20.710   1.458   9.905
 6746W        W79814  41.954  18.250   3.193
 6747W        W79815  26.062   1.448   1.174
 6748W        W79816  41.530  37.801  12.047
 6749W        W79817  37.390  34.375  12.986
 6750W        W79818  30.201  21.625  11.535
 6751W        W79819  38.894  25.254  13.840
 6752W        W79820  19.086  20.741  11.093
 6753W        W79821  28.633  40.605   4.356
 6754W        W79822  22.514   6.456   4.074
 6755W        W79823   3.954  30.545  11.609
 6756W        W79824  10.200   9.319   0.672
 6757W        W79825   2.697  32.384  13.401
 6758W        W79826  28.250  39.329  10.566
 6759W        W79827  22.116  26.913  12.399
 6760W        W79828  32.063  32.637   4.313
 6761W        W79829   2.198  33.066  11.074
 6762W        W79830  23.596  20.628   4.706
 6763W        W79831  11.840  36.431   2.219
 6764W        W79832  38.453  28.777  12.571
 6765W        W79833  16.996  10.377  11.130
 6766W        W79834   9.897   7.539   2.621
 6767W        W79835  42.011  14.770   3.198
 6768W        W79836  42.734  32.073   3.632
 6769W        W79837  20.802  11.311  10.803
 6770W        W79838   7.681  43.446  11.114
 6771W        W79839  11.841  38.637  12.083
 6772W        W79840  31.658  13.672  14.014
 6773W        W79841  30.667  36.896  11.253
 6774W        W79842  44.861  14.212   0.749
 6775W        W79843  10.616   0.056   4.072
 6776W        W79844  18.656  32.706   2.712
 6777W        W79845  18.307  38.003  13.446
 6778W        W79846  21.982  22.715   3.248
 6779W        W79847   8.747  28.871   3.345
 6780W        W79848  13.346  34.606  13.083
 6781W        W79849   9.265  33.816   1.485
 6782W        W79850  36.575  40.927   3.366
 6783W        W79851   6.730  15.107   0.987
 6784W        W79852  10.572  41.469  11.636
 6785W        W79853  13.793  43.335  12.841
 6786W        W79854  20.672   7.339  13.495
 6787W        W79855   3.459  20.104   2.870
 6788W        W79856  11.627  13.040   2.661
 6789W        W79857  19.489   8.563   2.347
 6790W        W79858  13.197  12.348  14.377
 6791W        W79859  19.191  26.528  12.922
 6792W        W79860  17.139  28.368   4.029
 6793W        W79861  18.287  40.505   4.576
 6794W        W79862   2.862   4.942  11.793
 6795W        W79863  37.981  25.975  11.064
 6796W        W79864  25.642  31.626  10.743
 6797W        W79865  13.298   1.253  10.591
 6798W        W79866  11.545  14.665   4.762
 6799W        W79867  24.628  43.174   2.691
 6800W        W79868  22.174  32.906   3.950
 6801W        W79869   1.372  41.450   3.188
 6802W        W79870  17.263  44.331  14.836
 6803W        W79871  36.982  34.501  11.655
 6804W        W79872  20.098   4.712   1.818
 6805W        W79873  37.996  42.844  10.680
 6806W        W79874  35.914  14.164   4.182
 6807W        W79875  33.503  17.288   5.114
 6808W        W79876  23.245  20.762   1.295
 6809W        W79877  24.414  15.063   0.191
 6810W        W79878   4.898  41.986   0.293
 6811W        W79879  42.361  19.280   3.821
 6812W        W79880  12.653   2.475  14.524
 6813W        W79881  24.681  19.988   0.262
 6814W        W79882  35.906  15.156  13.937
 6815W        W79883  10.984   4.798  12.468
 6816W        W79884  31.866   3.460   1.205
 6817W        W79885  19.129  39.497  14.596
 6818W        W79886  36.480  13.164  10.762
 6819W        W79887  16.347  11.340   3.856
 6820W        W79888  34.955  42.242   3.624
 6821W        W79889   7.802  37.588  13.863
 6822W        W79890  34.466  17.800  12.029
 6823W        W79891  41.817  21.539   3.388
 6824W        W79892  10.150  41.423   0.197
 6825W        W79893  15.157  12.217   4.511
 6826W        W79894  10.758  39.091  14.563
 6827W        W79895   9.444  13.133  13.998
 6828W        W79896  16.542  27.698   4.198
 6829W        W79897   5.763  36.577   4.587
 6830W        W79898   7.879  31.764  13.039
 6831W        W79899  22.053  30.464  13.380
 6832W        W79900  39.618  14.433   0.885
 6833W        W79901  26.961  20.508  12.459
 6834W        W79902   7.714  39.267  14.397
 6835W        W79903  18.541  10.775   1.756
 6836W        W79904  19.838  14.879   4.121
 6837W        W79905  23.541  25.544   1.346
 6838W        W79906  20.611   4.008  12.060
 6839W        W79907   8.134  22.015   2.682
 6840W        W79908  42.295   0.781  11.276
 6841W        W79909   3.902  14.830  14.785
 6842W        W79910   3.380  24.241   2.286
 6843W        W79911   4.182  25.079  10.813
 6844W        W79912  24.648  29.126   2.046
 6845W        W79913  33.192  38.993  14.563
 6846W        W79914  28.966  10.534   4.604
 6847W        W79915  31.132   5.822   3.877
 6848W        W79916  42.313   8.297   0.848
 6849W        W79917  36.997  41.061  12.558
 6850W        W79918  10.775   0.415   0.748
 6851W        W79919  36.070  41.249   2.625
 6852W        W79920  39.781  43.019  13.045
 6853W        W79921  10.223  18.258  13.806
 6854W        W79922  36.471  13.584  11.145
 6855W        W79923   7.529  39.799   2.454
 6856W        W79924   6.539  41.402  12.766
 6857W        W79925  16.811  15.283  11.963
 6858W        W79926  35.598  34.945   3.259
 6859W        W79927  15.227  14.722   1.550
 6860W        W79928  29.166  26.639   1.659
 6861W        W79929  42.209  39.274  12.470
 6862W        W79930  14.899  42.962   2.803
 6863W        W79931  29.133  31.116   3.724
 6864W        W79932  38.632   4.236   2.852
 6865W        W79933  12.825   8.059  10.932
 6866W        W79934  24.187  14.167   3.174
 6867W        W79935  27.616  11.428   3.032
 6868W        W79936  14.639  30.879   3.324
 6869W        W79937  41.937  10.892  13.906
 6870W        W79938  31.073  23.757   3.563
 6871W        W79939  39.538  26.042   1.523
 6872W        W79940  41.282  21.431  13.780
 6873W        W79941   7.161  36.582  12.501
 6874W        W79942  32.891   5.030  11.370
 6875W        W79943  31.548  35.333   3.731
 6876W        W79944  22.058   8.691   3.510
 6877W        W79945  14.896  25.804   4.052
 6878W        W79946   1.537   5.830  13.431
 6879W        W79947   9.305   0.969   1.336
 6880W        W79948  26.366  26.003   2.751
 6881W        W79949   1.816  16.617   2.245
 6882W        W79950  13.323  42.034   4.242
 6883W        W79951   0.010   4.640  14.896
 6884W        W79952  39.246  13.741  11.514
 6885W        W79953   2.639  21.087  11.379
 6886W        W79954  12.083  37.686   0.392
 6887W        W79955  13.500  19.104  14.346
 6888W        W79956  43.460  21.825   4.698
 6889W        W79957   7.383   3.924  14.891
 6890W        W79958   0.502  35.920   1.284
 6891W        W79959   9.406  23.310  11.138
 6892W        W79960   3.445  26.881  13.850
 6893W        W79961  21.650  28.503   4.493
 6894W        W79962   8.790  16.846   1.300
 6895W        W79963  32.889  12.380  14.994
 6896W        W79964  31.001  44.009  11.574
 6897W        W79965  20.202  17.054   1.823
 6898W        W79966   9.980  41.080   5.340
 6899W        W79967  25.201  37.533  10.996
 6900W        W79968   1.491  23.231   1.240
 6901W        W79969  38.581  16.883  11.644
 6902W        W79970  43.858  18.666   0.804
 6903W        W79971  37.317   4.303   4.164
 6904W        W79972  36.094  41.378  12.502
 6905W        W79973   6.338  23.605  10.649
 6906W        W79974  16.030  36.977  12.184
 6907W        W79975  32.384  18.776   4.712
 6908W        W79976  40.763  37.934   2.338
 6909W        W79977  33.074  25.266   0.348
 6910W        W79978  43.798  39.322  10.736
 6911W        W79979  14.654  10.871  13.024
 6912W        W79980  35.164  42.354  11.288
 6913W        W79981  44.913   8.155  14.810
 6914W        W79982  40.824  32.429  13.018
 6915W        W79983  37.837  23.152  10.703
 6916W        W79984   1.339   2.662  12.070
 6917W        W79985  15.609  37.321   0.278
 6918W        W79986  33.084  30.007  13.983
 6919W        W79987  20.771  16.784  10.754
 6920W        W79988  15.305  13.106  13.318
 6921W        W79989  37.777   6.377   1.727
 6922W        W79990  38.191   1.165  14.905
 6923W        W79991  37.914  30.541   1.449
 6924W        W79992   6.370   7.595  13.576
 6925W        W79993  32.827  37.439   0.118
 6926W        W79994  27.957  39.995  10.717
 6927W        W79995  12.558  18.557  13.026
 6928W        W79996  18.493  19.692   3.826
 6929W        W79997  13.725  39.606   3.312
 6930W        W79998  39.364  10.308  12.818
 6931W        W79999  31.522  37.833  13.975
 6932W        W80000  32.384  12.879   1.760
 6933W        W80001  21.053   8.250  14.441
 6934W        W80002  42.473   8.708   4.051
 6935W        W80003   8.672  42.964  11.433
 6936W        W80004  41.058  15.364  14.931
 6937W        W80005  26.368  29.147  10.780
 6938W        W80006  35.177  24.594   3.593
 6939W        W80007  39.850  23.143   3.401
 6940W        W80008  28.033  44.692   4.158
 6941W        W80009  32.297  16.331   3.767
 6942W        W80010   4.212  42.897  11.089
 6943W        W80011   7.176  10.066   3.664
 6944W        W80012  22.086  27.053  11.474
 6945W        W80013  42.025  21.509   4.813
 6946W        W80014  14.236  24.458   2.344
 6947W        W80015  14.066   6.113  13.529
 6948W        W80016  28.838   0.291  10.333
 6949W        W80017  29.053  33.007  10.660
 6950W        W80018  19.003   9.907  12.507
 6951W        W80019   0.818  22.091  14.255
 6952W        W80020  34.827  21.963  13.823
 6953W        W80021  11.354  13.126  12.430
 6954W        W80022  23.119   5.154   1.376
 6955W        W80023  11.641  41.487   3.685
 6956W        W80024  25.331  40.476   5.414
 6957W        W80025  33.598  28.615   1.341
 6958W        W80026  44.388  21.424   4.063
 6959W        W80027  35.303  16.761   0.871
 6960W        W80028  44.090   6.256   2.827
 6961W        W80029   5.038   3.397   0.819
 6962W        W80030   3.382  19.894  13.885
 6963W        W80031  38.466   1.668  10.767
 6964W        W80032  34.868  33.855  12.054
 6965W        W80033  35.620  10.474   1.844
 6966W        W80034  23.106   7.179  14.509
 6967W        W80035  38.414  42.031  10.534
 6968W        W80036  10.686  25.575  10.620
 6969W        W80037  14.814  17.764  11.105
 6970W        W80038  25.552   4.660   4.207
 6971W        W80039  18.774  33.474  14.734
 6972W        W80040   1.694  39.638   4.184
 6973W        W80041  23.140   1.475  14.611
 6974W        W80042  30.190  39.714   3.180
 6975W        W80043  30.425  25.588  10.719
 6976W        W80044  42.985   6.598   3.401
 6977W        W80045   9.160  37.424  14.972
 6978W        W80046  27.141  21.164  10.630
 6979W        W80047  25.258  18.035   4.115
 6980W        W80048  38.357   3.901  13.488
 6981W        W80049  26.169  14.800   0.290
 6982W        W80050  40.317   3.037   2.094
 6983W        W80051  15.227  23.243  14.474
 6984W        W80052  18.716  35.098  12.901
 6985W        W80053  27.479   6.146   4.457
 6986W        W80054  17.761  12.652  10.652
 6987W        W80055  11.509  14.554   0.442
 6988W        W80056   7.355  38.459  12.796
 6989W        W80057   5.634  22.489   4.553
 6990W        W80058   3.916  38.340   1.195
 6991W        W80059  23.939  22.033  14.718
 6992W        W80060   4.660  37.020  12.493
 6993W        W80061  13.801  18.112   4.764
 6994W        W80062  13.388   8.770  10.797
 6995W        W80063  17.184  23.984  11.621
 6996W        W80064  30.582  18.045  14.461
 6997W        W80065  37.881  18.492  13.771
 6998W        W80066  17.587  20.861   0.736
 6999W        W80067  25.540   0.483   4.477
 7000W        W80068  10.453  40.053   2.756
 7001W        W80069  15.783  15.240   0.437
 7002W        W80070   1.904  27.579  10.623
 7003W        W80071  14.269  25.593   3.465
 7004W        W80072  24.013   1.465  14.533
 7005W        W80073   4.680  40.456   0.941
 7006W        W80074  12.847  15.261   2.333
 7007W        W80075   7.281   5.779  10.660
 7008W        W80076  34.315  22.197  11.586
 7009W        W80077  26.242  29.417  12.826
 7010W        W80078  39.845  20.612  11.212
 7011W        W80079  12.338  22.114  14.829
 7012W        W80080  37.545  21.608   1.745
 7013W        W80081   3.634  14.469  10.386
 7014W        W80082  23.009  33.906   0.285
 7015W        W80083  16.098  15.522   4.041
 7016W        W80084  10.726  38.653  11.514
 7017W        W80085  40.148  17.252  11.026
 7018W        W80086  19.920  31.924  10.284
 7019W        W80087  39.344  30.070  13.571
 7020W        W80088  14.201  39.456  11.444
 7021W        W80089  27.210  31.453  10.886
 7022W        W80090  33.828  30.405  12.861
 7023W        W80091  14.882  20.002   3.626
 7024W        W80092  43.295  26.179   0.257
 7025W        W80093   1.056  37.320  10.669
 7026W        W80094  12.577   0.036  11.114
 7027W        W80095  43.724   0.922  11.964
 7028W        W80096  25.627  14.603   0.175
 7029W        W80097  19.275   3.763  11.085
 7030W        W80098   1.732  14.726  14.563
 7031W        W80099  36.403  20.052  10.687
 7032W        W80100  12.213  36.068   1.585
 7033W        W80101   1.004  14.804   3.738
 7034W        W80102  27.290  33.033   0.295
 7035W        W80103  21.658  21.126  11.834
 7036W        W80104  25.657  20.543   1.369
 7037W        W80105  17.673   4.756   0.779
 7038W        W80106  19.812  15.822  11.211
 7039W        W80107  43.347  39.861   1.121
 7040W        W80108  41.042  37.018   0.702
 7041W        W80109  10.866  40.807  12.402
 7042W        W80110  18.624   1.929   0.273
 7043W        W80111  34.856   8.770   2.403
 7044W        W80112  16.432   6.631  12.177
 7045W        W80113  14.050  35.994  13.971
 7046W        W80114  44.868  26.435  10.627
 7047W        W80115  21.158  40.540   1.731
 7048W        W80116  38.779   9.562  10.174
 7049W        W80117   5.464   2.411   2.735
 7050W        W80118  36.750  29.573  14.720
 7051W        W80119  34.372  22.131   3.127
 7052W        W80120  40.123  28.683  13.455
 7053W        W80121  42.423  41.304  10.765
 7054W        W80122  12.539  22.616   1.410
 7055W        W80123   1.281   4.158   0.988
 7056W        W80124  18.561  24.171  13.016
 7057W        W80125  15.298   3.876   3.248
 7058W        W80126  39.509  17.848   4.323
 7059W        W80127   9.795   3.679   3.579
 7060W        W80128  34.674   2.813  12.051
 7061W        W80129  14.766  25.404  11.152
 7062W        W80130  16.838   6.319  12.060
 7063W        W80131   5.803  35.051   4.051
 7064W        W80132  32.606  22.628   3.649
 7065W        W80133  44.868  25.692   4.686
 7066W        W80134   7.777  36.057   2.334
 7067W        W80135  12.663  19.353  12.211
 7068W        W80136   3.701   6.893   4.156
 7069W        W80137  44.233  28.441   1.705
 7070W        W80138  26.513  24.580  11.034
 7071W        W80139  36.133   7.746  13.948
 7072W        W80140   2.291  11.754   2.164
 7073W        W80141   9.079  41.889   4.142
 7074W        W80142  14.777  18.855   3.284
 7075W        W80143  11.831  13.108  12.875
 7076W        W80144  10.645   9.229  14.380
 7077W        W80145  13.989  37.763   3.268
 7078W        W80146  31.640  21.545  12.504
 7079W        W80147  10.769   0.934   1.970
 7080W        W80148  33.885   1.807  10.544
 7081W        W80149  35.197  21.135  13.041
 7082W        W80150  26.846  42.183  12.565
 7083W        W80151   5.830   8.972  14.512
 7084W        W80152  43.508  30.916   2.264
 7085W        W80153  21.639  14.718  13.929
 7086W        W80154  41.991  33.051   1.303
 7087W        W80155  22.523  14.878   1.900
 7088W        W80156   2.933  13.842  14.872
 7089W        W80157  31.938  32.895  14.959
 7090W        W80158   2.250  16.807  12.535
 7091W        W80159  26.056   9.787   0.443
 7092W        W80160  22.147  36.310  13.377
 7093W        W80161  38.430  32.044   0.788
 7094W        W80162   9.132  22.164  14.477
 7095W        W80163  10.926  26.497   4.167
 7096W        W80164   3.049  22.691   3.745
 7097W        W80165  22.950   4.339  14.906
 7098W        W80166  20.628   7.897   3.100
 7099W        W80167  34.003  34.710   1.595
 7100W        W80168  14.248  13.250  12.411
 7101W        W80169  16.842  30.081  10.666
 7102W        W80170  30.034  37.147   1.744
 7103W        W80171  43.404  23.532  14.745
 7104W        W80172  27.401  10.354  12.505
 7105W        W80173  25.647  43.071   4.656
 7106W        W80174  15.005  14.274   5.053
 7107W        W80175  24.696  19.280   9.962
 7108W        W80176  43.892  19.610   4.921
 7109W        W80177   3.289  38.862  11.123
 7110W        W80178  31.066  19.639   4.770
 7111W        W80179  24.161   0.403  12.590
 7112W        W80180  38.768   8.230  10.551
 7113W        W80181  31.613   3.383   1.839
 7114W        W80182  20.919  13.583   3.053
 7115W        W80183  24.116   2.277  13.948
 7116W        W80184  11.380  36.043   1.374
 7117W        W80185  34.970  16.119   1.710
 7118W        W80186  19.539  16.823  11.912
 7119W        W80187  19.222  15.634  12.448
 7120W        W80188  41.932  41.318   3.859
 7121W        W80189  17.460  43.345   0.948
 7122W        W80190   4.361  39.534  12.102
 7123W        W80191  20.004  36.832  14.827
 7124W        W80192   2.262  12.179   4.102
 7125W        W80193  16.095  38.512  10.527
 7126W        W80194   9.622  26.686   4.743
 7127W        W80195  39.435  32.738  14.895
 7128W        W80196   8.730  43.182   1.901
 7129W        W80197  24.135  24.009   1.945
 7130W        W80198  15.594   9.694   1.353
 7131W        W80199  33.631   0.470   2.366
 7132W        W80200  18.672   9.790  14.946
 7133W        W80201  13.100  11.645   1.827
 7134W        W80202   7.818  10.621   4.404
 7135W        W80203  20.434  37.494   0.407
 7136W        W80204  44.117   8.194   2.332
 7137W        W80205  14.262  17.789  12.641
 7138W        W80206   0.263  22.009  10.652
 7139W        W80207  24.600  28.648  11.629
 7140W        W80208  14.790  30.874   4.661
 7141W        W80209  37.237  27.697   1.763
 7142W        W80210  10.730  14.076   3.561
 7143W        W80211  18.265   8.338  12.867
 7144W        W80212  39.956  14.404  11.941
 7145W        W80213  25.521   9.115  13.358
 7146W        W80214   2.585  21.515   3.667
 7147W        W80215   3.949  30.054   1.844
 7148W        W80216  26.748  21.646  12.065
 7149W        W80217  39.528   7.599  13.499
 7150W        W80218  28.681  15.679   3.433
 7151W        W80219  34.011  40.447   4.115
 7152W        W80220  34.869  35.875   0.830
 7153W        W80221  34.693  43.996   3.392
 7154W        W80222  28.513  17.800   1.842
 7155W        W80223  29.770  29.051   4.210
 7156W        W80224  36.072  42.210   0.306
 7157W        W80225   4.344   9.777   1.394
 7158W        W80226  18.028  35.054   0.883
 7159W        W80227  39.341  40.744  14.705
 7160W        W80228  23.430  38.364  12.345
 7161W        W80229  31.994  28.187   0.939
 7162W        W80230  26.687   1.313   2.359
 7163W        W80231   2.778   9.564   3.764
 7164W        W80232  15.310  27.915   2.752
 7165W        W80233  29.669  29.046   1.482
 7166W        W80234  31.052   1.566  13.917
 7167W        W80235  20.983  32.031   0.116
 7168W        W80236  13.933   2.725  11.532
 7169W        W80237   3.191  16.198   3.757
 7170W        W80238  40.747  17.099   4.656
 7171W        W80239  32.392  29.481  10.774
 7172W        W80240  42.337  37.371  10.166
 7173W        W80241  24.183  29.072   1.217
 7174W        W80242  12.726  31.047   4.633
 7175W        W80243  41.042  30.962  14.125
 7176W        W80244   8.001  35.620   2.126
 7177W        W80245  36.932  14.305   2.398
 7178W        W80246  19.497  40.692  12.116
 7179W        W80247   2.687   1.160  10.508
 7180W        W80248  19.049  33.904  14.455
 7181W        W80249   4.429  39.493  13.523
 7182W        W80250  33.616  29.637   3.152
 7183W        W80251   3.489  15.234   1.641
 7184W        W80252  41.948   5.931  12.847
 7185W        W80253   2.779   0.274  14.479
 7186W        W80254  15.701  43.838   3.201
 7187W        W80255  24.074  23.933   2.873
 7188W        W80256  14.486  42.260   0.420
 7189W        W80257  28.209   9.033   2.606
 7190W        W80258   1.999  21.573  13.015
 7191W        W80259  11.844   0.794   3.349
 7192W        W80260   0.046  24.561  11.021
 7193W        W80261   2.998   0.326   2.237
 7194W        W80262  15.645  43.814   1.289
 7195W        W80263  10.214   0.103   3.208
 7196W        W80264  43.957  31.827   3.204
 7197W        W80265  12.240  22.999   2.713
 7198W        W80266  26.128  18.056   3.863
 7199W        W80267  17.308  27.899  12.808
 7200W        W80268  44.208  38.391  10.167
 7201W        W80269   7.303  25.633  14.368
 7202W        W80270  15.635  35.838   0.847
 7203W        W80271  38.949  18.097  12.189
 7204W        W80272  24.692  44.749  11.005
 7205W        W80273  35.334  27.907   3.255
 7206W        W80274  15.797  10.132  14.491
 7207W        W80275  12.177  17.191  14.987
 7208W        W80276   0.327  20.524  13.137
 7209W        W80277  26.605  30.485  12.594
 7210W        W80278   7.926   8.891   0.254
 7211W        W80279  33.514  43.553  12.600
 7212W        W80280   4.050  15.340   2.435
 7213W        W80281  41.955  29.657  10.471
 7214W        W80282   7.711  28.421   2.840
 7215W        W80283  39.437  18.782  11.404
 7216W        W80284  18.011  29.672  12.122
 7217W        W80285  30.860   8.940   4.065
 7218W        W80286  17.093  14.124  11.734
 7219W        W80287  42.261   6.965   3.695
 7220W        W80288   9.257  25.251   3.743
 7221W        W80289  10.212  22.073  11.151
 7222W        W80290  25.971  44.473  10.739
 7223W        W80291  29.497   5.312  13.920
 7224W        W80292  16.325  27.189   2.215
 7225W        W80293  13.650  40.526  11.781
 7226W        W80294  27.411   5.499  13.546
 7227W        W80295   2.457   2.784   0.933
 7228W        W80296  35.107   6.684   2.532
 7229W        W80297   7.342  37.995   4.337
 7230W        W80298  14.598  39.585  14.542
 7231W        W80299  25.365  43.829   3.488
 7232W        W80300  23.558  20.359   4.193
 7233W        W80301  25.941  37.921  10.686
 7234W        W80302  17.730  26.024  14.004
 7235W        W80303  15.145   1.484  13.423
 7236W        W80304  19.628   6.344   3.219
 7237W        W80305   5.084  36.166   0.282
 7238W        W80306  15.008  19.075   2.677
 7239W        W80307  38.309  17.902   0.891
 7240W        W80308  16.625  26.806   2.397
 7241W        W80309  40.202  12.686  10.203
 7242W        W80310  26.196  20.952   3.629
 7243W        W80311  23.589  13.631  13.924
 7244W        W80312  17.574  19.791  13.380
 7245W        W80313  44.839  33.815  13.476
 7246W        W80314  38.639  20.289   3.057
 7247W        W80315   4.412  37.906  11.622
 7248W        W80316  29.970  44.002  13.770
 7249W        W80317  35.834  16.530  12.912
 7250W        W80318   8.651  41.732   0.747
 7251W        W80319  26.989   5.360  12.040
 7252W        W80320  13.120   1.154  11.482
 7253W        W80321   5.844   5.235  14.801
 7254W        W80322  21.954  15.849   0.453
 7255W        W80323  44.043  12.205   2.351
 7256W        W80324  28.443  28.013   1.820
 7257W        W80325  15.321   8.302   2.342
 7258W        W80326  42.491  38.383  10.650
 7259W        W80327  14.101  29.099   4.525
 7260W        W80328  25.642  11.905  13.758
 7261W        W80329  35.601  26.696   1.830
 7262W        W80330  14.076  26.753   4.643
 7263W        W80331  43.530  37.612   3.849
 7264W        W80332  31.516   0.719   4.444
 7265W        W80333  27.508  14.596  14.005
 7266W        W80334  10.134  29.622  13.871
 7267W        W80335  32.062   0.172   1.858
 7268W        W80336   5.307   5.786  12.835
 7269W        W80337  32.020  24.765  14.313
 7270W        W80338  16.195  20.300  11.144
 7271W        W80339  14.576  16.629   0.492
 7272W        W80340   1.066   1.756   1.861
 7273W        W80341  19.528  20.656  10.843
 7274W        W80342  22.114  28.364   3.788
 7275W        W80343  36.015  16.204   4.207
 7276W        W80344  30.686   8.390   1.848
 7277W        W80345  18.230  40.848   3.245
 7278W        W80346  19.294   0.494   2.888
 7279W        W80347   8.324  40.857  10.739
 7280W        W80348   5.998  15.139   1.686
 7281W        W80349  44.404  42.895   0.464
 7282W        W80350  24.059   8.826  13.789
 7283W        W80351  23.737  25.273   0.928
 7284W        W80352   5.800  11.304   1.957
 7285W        W80353   6.230  18.210  12.795
 7286W        W80354  12.765  44.947  13.834
 7287W        W80355  24.166  41.391  14.523
 7288W        W80356  24.215  29.450  11.432
 7289W        W80357   0.513  27.851  13.941
 7290W        W80358  33.224  43.736   1.954
 7291W        W80359  40.128  39.453  10.651
 7292W        W80360   6.371  19.204  13.187
 7293W        W80361   6.832  24.510   4.781
 7294W        W80362   0.466  38.916   0.489
 7295W        W80363   2.056  26.051   1.929
 7296W        W80364  11.759  20.478  10.726
 7297W        W80365   3.398  44.842  12.881
 7298W        W80366  37.632  25.609   4.959
 7299W        W80367  12.716   2.686  12.191
 7300W        W80368  30.558  36.898   4.376
 7301W        W80369  40.907   4.726   0.889
 7302W        W80370  29.443  43.000  11.562
 7303W        W80371  27.230  30.164  11.559
 7304W        W80372  14.823  11.324   0.299
 7305W        W80373  22.843  44.723   1.769
 7306W        W80374  44.439  39.955   0.309
 7307W        W80375  14.397  44.878   1.281
 7308W        W80376  43.024  34.483  14.823
 7309W        W80377  13.885  13.305  14.448
 7310W        W80378   4.636   2.828  12.965
 7311W        W80379   8.106  16.754   3.671
 7312W        W80380  23.479  31.142   1.395
 7313W        W80381  13.918   9.515   4.172
 7314W        W80382  31.645  14.692   4.793
 7315W        W80383  34.675   7.408   0.961
 7316W        W80384   1.974  42.552  14.536
 7317W        W80385  43.295  40.312  10.309
 7318W        W80386  24.526   6.660   4.333
 7319W        W80387  31.146  30.129  11.150
 7320W        W80388  44.043  23.965   2.442
 7321W        W80389  39.591  27.381   4.793
 7322W        W80390  31.216   0.841   2.484
 7323W        W80391  22.769   8.490  14.258
 7324W        W80392  18.607  40.307  14.443
 7325W        W80393   5.633  24.678  13.605
 7326W        W80394  30.610  10.046  12.381
 7327W        W80395  43.122  11.252   1.291
 7328W        W80396   6.981  29.096  13.782
 7329W        W80397  21.326  40.134   3.248
 7330W        W80398  16.754  24.587  12.017
 7331W        W80399  40.496  24.110   3.629
 7332W        W80400  30.179   0.378  12.562
 7333W        W80401  26.625  41.946  10.831
 7334W        W80402  41.584  18.268   0.738
 7335W        W80403   0.321  28.537   4.571
 7336W        W80404  36.190  33.831   2.080
 7337W        W80405  27.522  21.933   2.936
 7338W        W80406  38.746   6.231   9.924
 7339W        W80407  11.506   7.339  11.156
 7340W        W80408  10.829  19.072  10.634
 7341W        W80409  32.057  28.502   2.432
 7342W        W80410  42.990  11.356  12.370
 7343W        W80411  22.477  40.960   4.588
 7344W        W80412   4.063  32.950   3.118
 7345W        W80413  16.770  27.517   1.314
 7346W        W80414   3.295   3.445   1.732
 7347W        W80415  43.500  22.233  13.524
 7348W        W80416  17.354  30.475   1.180
 7349W        W80417   6.388   6.430   2.755
 7350W        W80418  23.996   7.087   1.348
 7351W        W80419  37.560  39.886  13.016
 7352W        W80420  35.881  18.022  12.033
 7353W        W80421  38.257  22.655   1.503
 7354W        W80422  36.131  38.924   3.669
 7355W        W80423  34.498  17.717   2.668
 7356W        W80424  33.037  36.824  11.426
 7357W        W80425   3.473  37.248  13.493
 7358W        W80426   3.984   8.680  14.385
 7359W        W80427  42.510  10.176   0.439
 7360W        W80428  32.521  12.739  12.971
 7361W        W80429  33.957  43.261  12.598
 7362W        W80430  10.150  24.441   2.768
 7363W        W80431  44.809  31.470   1.334
 7364W        W80432  21.124  36.845   1.215
 7365W        W80433  35.808  42.622   2.213
 7366W        W80434  43.973  36.687  11.054
 7367W        W80435  44.871  42.596  11.774
 7368W        W80436  36.534   9.601  13.765
 7369W        W80437   1.912  36.830  11.017
 7370W        W80438  11.389  16.625  13.083
 7371W        W80439  38.613  43.896   0.032
 7372W        W80440  34.378  44.356   0.333
 7373W        W80441  24.688  39.099  10.717
 7374W        W80442   1.806  16.406   4.692
 7375W        W80443  24.777  40.941   3.411
 7376W        W80444   1.442  14.855  14.038
 7377W        W80445  24.132  15.044  12.183
 7378W        W80446  27.150  22.268   3.107
 7379W        W80447  32.849  20.968   1.739
 7380W        W80448  18.679  20.171  14.712
 7381W        W80449  11.069  11.937  11.593
 7382W        W80450  12.265  32.085  11.797
 7383W        W80451   5.858  29.852  11.000
 7384W        W80452  23.361  34.685   4.659
 7385W        W80453  11.631  32.717  12.055
 7386W        W80454  14.275  42.598   3.819
 7387W        W80455   5.695  31.241   2.509
 7388W        W80456   8.054   9.213  12.953
 7389W        W80457  44.967  42.210   0.947
 7390W        W80458  42.449  44.943   1.843
 7391W        W80459  31.111   1.229  12.991
 7392W        W80460  24.511  18.027  11.671
 7393W        W80461  13.340   7.462  12.048
 7394W        W80462   3.693  36.591  11.587
 7395W        W80463  31.164   9.204  12.507
 7396W        W80464  12.069   3.521   3.611
 7397W        W80465  36.322  42.858   4.566
 7398W        W80466  27.786  25.681  10.632
 7399W        W80467  14.810  24.014   1.065
 7400W        W80468   2.056  36.228   3.802
 7401W        W80469  40.561  23.007  10.910
 7402W        W80470  20.499  39.048  14.830
 7403W        W80471  35.751  25.671   0.823
 7404W        W80472  23.271  37.502  13.074
 7405W        W80473  10.299  29.972   2.633
 7406W        W80474  14.093   2.051   1.428
 7407W        W80475  26.854  35.338  14.687
 7408W        W80476  43.295  28.940  10.740
 7409W        W80477   5.310  30.191  13.060
 7410W        W80478  19.682   2.486   0.315
 7411W        W80479  11.930  25.928   3.693
 7412W        W80480  13.375  28.906  12.975
 7413W        W80481   6.087  37.465  10.761
 7414W        W80482   0.978  11.220  13.209
 7415W        W80483   4.120  28.269  14.543
 7416W        W80484  30.374  37.235  14.896
 7417W        W80485  14.794  39.467   1.464
 7418W        W80486   8.041  21.010   9.817
 7419W        W80487  13.492   1.269  14.909
 7420W        W80488  36.166  21.902   4.605
 7421W        W80489  25.062   6.504  13.324
 7422W        W80490  31.890  21.562  10.633
 7423W        W80491  34.140  28.224   3.252
 7424W        W80492  19.476  20.503   1.027
 7425W        W80493   3.920   7.859   4.360
 7426W        W80494  21.209  30.824  14.981
 7427W        W80495  30.273  10.640   0.306
 7428W        W80496  34.905  27.418  13.064
 7429W        W80497  21.597  30.717  13.417
 7430W        W80498  37.784  44.580  10.151
 7431W        W80499  28.585  25.209  14.040
 7432W        W80500  24.177  30.624  13.018
 7433W        W80501  43.317  27.463  14.423
 7434W        W80502  32.929  39.523  10.724
 7435W        W80503  38.552  30.259   4.139
 7436W        W80504  18.994  38.401   4.728
 7437W        W80505   5.614  39.067   1.304
 7438W        W80506  25.437  29.095  13.881
 7439W        W80507  31.384  35.406   0.270
 7440W        W80508  37.335  18.637  12.900
 7441W        W80509  20.761  20.267  10.678
 7442W        W80510  42.658  36.545  12.547
 7443W        W80511  20.257  29.969   2.227
 7444W        W80512  43.692  12.299  14.788
 7445W        W80513  37.839   6.104   1.231
 7446W        W80514  24.594  38.524   0.925
 7447W        W80515  28.215  23.052  10.322
 7448W        W80516  34.540   3.807   2.409
 7449W        W80517  20.126  38.693  14.368
 7450W        W80518  20.023  18.465   0.091
 7451W        W80519  16.842  26.065  11.554
 7452W        W80520  41.872  37.625  10.200
 7453W        W80521  27.596  18.176  12.484
 7454W        W80522  12.601  22.580   4.811
 7455W        W80523  40.736  31.366   0.203
 7456W        W80524  43.287  44.765  12.953
 7457W        W80525   4.299   4.074  12.443
 7458W        W80526  23.392  23.054   3.582
 7459W        W80527  15.799  43.446   2.647
 7460W        W80528  40.118   1.928  11.864
 7461W        W80529  25.075  34.686  12.601
 7462W        W80530  44.100   2.190  13.466
 7463W        W80531  20.127   3.359   0.751
 7464W        W80532  27.971  27.792  11.730
 7465W        W80533  15.550  10.268   0.911
 7466W        W80534   6.443   8.591  13.421
 7467W        W80535  33.341  26.253  12.087
 7468W        W80536   1.668   9.428  13.958
 7469W        W80537   1.387  25.143  11.208
 7470W        W80538   4.404  11.064   1.825
 7471W        W80539  14.171  12.822  14.580
 7472W        W80540   6.323   0.380  10.987
 7473W        W80541  18.985  12.169   1.253
 7474W        W80542  16.462  17.786   0.844
 7475W        W80543  40.467  22.750   3.096
 7476W        W80544  36.515   0.106  13.862
 7477W        W80545  43.735  27.091  13.499
 7478W        W80546  27.410  12.604  14.679
 7479W        W80547  14.807  30.397   2.430
 7480W        W80548  20.648  26.093   2.351
 7481W        W80549  16.113  12.140   0.448
 7482W        W80550   8.248  29.166   4.349
 7483W        W80551  28.991  20.683   3.792
 7484W        W80552  39.392  29.148   3.362
 7485W        W80553  36.112   3.257   2.792
 7486W        W80554  31.692  10.171  13.998
 7487W        W80555  26.504  43.576   3.641
 7488W        W80556  30.683   7.937   2.756
 7489W        W80557  35.987  15.151   1.001
 7490W        W80558  10.220  39.084  11.074
 7491W        W80559  24.006  14.594   2.916
 7492W        W80560  21.653  11.300   3.930
 7493W        W80561   8.921  10.973  11.141
 7494W        W80562  42.748  44.061  11.504
 7495W        W80563  35.311  38.960  10.959
 7496W        W80564  19.114  40.804   2.346
 7497W        W80565  41.242   9.418   0.983
 7498W        W80566  25.004  33.836   5.071
 7499W        W80567  34.573  14.578   2.717
 7500W        W80568   6.471  43.560   1.381
 7501W        W80569  41.788   3.785   1.305
 7502W        W80570  37.968  24.272  12.949
 7503W        W80571  16.949  36.039  11.905
 7504W        W80572  14.710  27.455  12.479
 7505W        W80573  23.508   0.209  13.228
 7506W        W80574   4.927  17.548  10.548
 7507W        W80575  28.110   8.382  13.558
 7508W        W80576  30.288   1.738  11.855
 7509W        W80577   4.305  36.103   0.035
 7510W        W80578   8.811  28.520  13.013
 7511W        W80579   5.741   7.949  10.637
 7512W        W80580  24.799  13.279   1.190
 7513W        W80581  43.864  13.461   0.350
 7514W        W80582   0.953  20.574  14.357
 7515W        W80583   5.316   4.093   4.893
 7516W        W80584   0.003  24.946   1.862
 7517W        W80585  26.946  20.247   3.309
 7518W        W80586  42.910  32.023  13.849
 7519W        W80587   1.850   2.505  11.958
 7520W        W80588   1.938  37.951   4.625
 7521W        W80589  17.387  17.619  14.304
 7522W        W80590  11.341  41.003  12.282
 7523W        W80591  33.058  16.590   0.994
 7524W        W80592  35.811  29.984  11.594
 7525W        W80593  27.688  43.354  11.616
 7526W        W80594  27.428  20.069   3.172
 7527W        W80595  12.157  44.574   2.587
 7528W        W80596  20.321  33.014  10.931
 7529W        W80597  25.040  19.743   2.806
 7530W        W80598  37.468  43.748  14.404
 7531W        W80599  14.836  27.156   1.610
 7532W        W80600   7.199   0.257   4.640
 7533W        W80601  12.183  38.330   4.705
 7534W        W80602   8.897  34.327   4.919
 7535W        W80603  42.823  29.548  12.839
 7536W        W80604  27.143  26.428  13.060
 7537W        W80605  41.530  36.529  11.574
 7538W        W80606  30.826   9.331  11.254
 7539W        W80607  27.584  18.054   1.303
 7540W        W80608   7.349  30.390  14.805
 7541W        W80609  34.034  13.791  11.446
 7542W        W80610  10.093   7.433  12.069
 7543W        W80611   8.613  25.950  11.723
 7544W        W80612  10.308  38.558   0.874
 7545W        W80613  22.713  26.279  11.621
 7546W        W80614  25.856  38.523  12.276
 7547W        W80615   0.989   0.405  14.939
 7548W        W80616   0.482  43.085  12.259
 7549W        W80617  11.822  41.001  11.385
 7550W        W80618  42.531  43.904   1.402
 7551W        W80619  22.845   4.019  11.563
 7552W        W80620  18.597  42.758   1.298
 7553W        W80621   6.136  22.036   3.125
 7554W        W80622  40.296   2.714   4.233
 7555W        W80623  27.013  20.115   0.267
 7556W        W80624  12.336  41.605   0.272
 7557W        W80625  31.247   2.679   4.308
 7558W        W80626  20.485  29.052   4.402
 7559W        W80627  40.728  26.840  11.096
 7560W        W80628   5.502  37.495   1.349
 7561W        W80629  44.794  26.720   3.832
 7562W        W80630  33.079  14.232  12.068
 7563W        W80631  25.510  29.081  10.895
 7564W        W80632  14.670  17.865   0.403
 7565W        W80633  23.035  35.869  11.502
 7566W        W80634   0.812  17.804  12.450
 7567W        W80635  38.445   3.493   1.832
 7568W        W80636   9.355  20.113   3.747
 7569W        W80637  34.367  29.356   2.347
 7570W        W80638   9.171  24.634  12.045
 7571W        W80639  26.195  17.597  13.421
 7572W        W80640  13.855  33.615  11.412
 7573W        W80641   2.424  10.407   0.312
 7574W        W80642  18.962  39.872  12.120
 7575W        W80643  42.347  26.914  13.452
 7576W        W80644  38.185  11.436   1.567
 7577W        W80645  21.705  19.225  13.429
 7578W        W80646  14.733  28.618  11.059
 7579W        W80647  27.159  18.989  12.455
 7580W        W80648   6.641  25.242  11.098
 7581W        W80649  26.202  28.769   0.880
 7582W        W80650  25.719   1.826  11.722
 7583W        W80651  18.774  18.751  12.404
 7584W        W80652  37.713  42.690   1.729
 7585W        W80653  25.447  44.749  12.434
 7586W        W80654  20.153   7.398  12.419
 7587W        W80655  44.829   1.343  12.592
 7588W        W80656  29.612  23.473   4.043
 7589W        W80657  25.340  19.361   0.191
 7590W        W80658   2.482  38.934   2.248
 7591W        W80659  31.259  35.662  13.036
 7592W        W80660   9.563  15.178   0.502
 7593W        W80661  22.469  33.892  11.128
 7594W        W80662  22.457   4.173  10.988
 7595W        W80663  21.481  16.314  12.112
 7596W        W80664  30.789  14.314  12.062
 7597W        W80665   6.340  11.757  12.055
 7598W        W80666  20.661  38.124   4.542
 7599W        W80667  13.561  39.092  13.120
 7600W        W80668  35.227  27.763   0.832
 7601W        W80669   2.333  37.852  10.600
 7602W        W80670   3.927  18.312   3.876
 7603W        W80671  37.628   2.411   1.884
 7604W        W80672  32.900   6.463   4.463
 7605W        W80673  28.973  34.210  11.363
 7606W        W80674   2.326   7.396   4.027
 7607W        W80675  35.493   1.222  14.064
 7608W        W80676  10.708  31.870   2.334
 7609W        W80677  32.892  24.946  13.068
 7610W        W80678  41.949  12.851   4.570
 7611W        W80679  10.303  27.999  10.343
 7612W        W80680   0.691  40.830   2.252
 7613W        W80681  25.524   3.077  13.998
 7614W        W80682  17.426  24.170   4.070
 7615W        W80683  27.408  24.682  12.102
 7616W        W80684   8.206  20.761   1.409
 7617W        W80685  31.508  43.546   2.428
 7618W        W80686  31.181  31.414  11.579
 7619W        W80687  14.847   5.055   0.311
 7620W        W80688  35.658  44.042   1.294
 7621W        W80689   1.900  31.006   0.210
 7622W        W80690  10.652  11.120  14.329
 7623W        W80691  28.645  22.521  12.489
 7624W        W80692  13.260  18.722   1.208
 7625W        W80693  38.807   3.959   1.222
 7626W        W80694  33.116  39.477   0.256
 7627W        W80695  17.073  18.785   0.945
 7628W        W80696  28.075  17.766   1.303
 7629W        W80697  26.215  44.789   4.424
 7630W        W80698  32.029  13.031   1.350
 7631W        W80699  33.885  16.558  12.449
 7632W        W80700  26.583   9.713  10.480
 7633W        W80701   9.937  44.837  13.843
 7634W        W80702  24.910   1.175  11.994
 7635W        W80703  10.917  41.826   0.334
 7636W        W80704  18.604  17.067  14.506
 7637W        W80705   2.417  20.121   3.826
 7638W        W80706  15.544   9.010   5.103
 7639W        W80707  23.210   5.266  13.539
 7640W        W80708  39.090   5.838   9.776
 7641W        W80709  31.415   4.433  10.681
 7642W        W80710   4.273   6.787   2.362
 7643W        W80711  25.570  44.538   1.687
 7644W        W80712  34.485   3.793  13.603
 7645W        W80713   7.124  34.449  12.011
 7646W        W80714  43.001  22.611  14.311
 7647W        W80715  44.989  13.628  12.012
 7648W        W80716  32.453  42.143   1.354
 7649W        W80717  33.125  29.818  14.469
 7650W        W80718  25.883  15.149   4.691
 7651W        W80719   9.234   3.195  11.082
 7652W        W80720   2.513  22.325  10.959
 7653W        W80721  21.701  18.623   0.022
 7654W        W80722  24.674  35.430   2.407
 7655W        W80723  40.776   9.241   2.675
 7656W        W80724  23.220  33.708  13.998
 7657W        W80725  39.739  19.716   0.929
 7658W        W80726   2.926   8.850  13.348
 7659W        W80727  30.167  23.113   4.419
 7660W        W80728  29.995  11.785  11.394
 7661W        W80729  43.421  22.831   4.396
 7662W        W80730  36.546  19.865  12.152
 7663W        W80731  11.601  39.084  11.055
 7664W        W80732  28.127  21.657   2.223
 7665W        W80733  14.787  11.708   3.161
 7666W        W80734  38.030  19.167   4.913
 7667W        W80735  35.493  23.046  14.083
 7668W        W80736   9.238  35.933  10.872
 7669W        W80737   1.764   9.857   4.570
 7670W        W80738  23.108  23.172   2.005
 7671W        W80739  19.072  41.532   2.429
 7672W        W80740  31.070  31.160  12.006
 7673W        W80741  31.160  23.864   2.594
 7674W        W80742  42.398  22.226  10.548
 7675W        W80743  15.288  26.040  12.578
 7676W        W80744   2.447  42.745   0.711
 7677W        W80745  12.227  14.408  13.008
 7678W        W80746  13.308  36.014   0.628
 7679W        W80747  30.074  35.374  13.457
 7680W        W80748  19.130  23.218  14.809
 7681W        W80749  23.636  24.233   2.879
 7682W        W80750  22.433  39.077  12.677
 7683W        W80751  13.910  11.484  11.003
 7684W        W80752  14.287  34.027  13.077
 7685W        W80753  13.742  25.190  14.458
 7686W        W80754  37.645   8.224  11.451
 7687W        W80755  34.978  17.781  12.522
 7688W        W80756  21.682  25.503   1.675
 7689W        W80757   2.254   8.856  10.600
 7690W        W80758   6.845  40.046  10.774
 7691W        W80759  17.372  19.801  14.071
 7692W        W80760  22.539  20.396  13.952
 7693W        W80761  18.790   7.739   2.748
 7694W        W80762  19.622  30.512  11.387
 7695W        W80763  27.082  44.599  14.433
 7696W        W80764  11.053  16.876   9.670
 7697W        W80765  31.025   1.485   0.653
 7698W        W80766   0.900  35.610  12.955
 7699W        W80767  28.116  31.588  10.729
 7700W        W80768  15.070  31.609  13.499
 7701W        W80769  22.745  44.507  14.500
 7702W        W80770  35.484  33.884  14.502
 7703W        W80771  10.999  23.444   2.173
 7704W        W80772   1.445   7.175  13.710
 7705W        W80773  33.295   3.256   9.997
 7706W        W80774   1.931  18.327   4.128
 7707W        W80775   6.381  23.189  14.003
 7708W        W80776  20.128  41.356   1.451
 7709W        W80777   8.366  27.059  11.564
 7710W        W80778   4.709   4.357  11.167
 7711W        W80779  44.352  34.083   1.499
 7712W        W80780  20.630  25.442   1.262
 7713W        W80781  36.616  37.602   0.797
 7714W        W80782   9.393  25.036  10.709
 7715W        W80783  26.598  27.746   4.982
 7716W        W80784  37.886  31.299   4.175
 7717W        W80785  40.978   7.850   0.191
 7718W        W80786  26.032  43.451  12.333
 7719W        W80787  12.842  37.380   1.204
 7720W        W80788  33.182  35.990   3.327
 7721W        W80789  27.959  32.663  13.849
 7722W        W80790   1.925  34.065  10.587
 7723W        W80791  42.951  33.075   1.688
 7724W        W80792  29.922  29.140   2.385
 7725W        W80793  17.891  11.323   3.816
 7726W        W80794  42.283  19.785   4.554
 7727W        W80795  27.272   9.370   2.256
 7728W        W80796  25.151  22.486   2.767
 7729W        W80797  18.059  33.921   1.308
 7730W        W80798  40.580   1.851   3.655
 7731W        W80799   7.314  22.493   3.311
 7732W        W80800  30.040  17.245  14.304
 7733W        W80801   6.806  20.315  14.337
 7734W        W80802  12.165  40.001  12.049
 7735W        W80803   0.772  25.481  13.207
 7736W        W80804  21.961  31.973   2.063
 7737W        W80805  18.843  24.622   4.083
 7738W        W80806  34.830  21.968   0.492
 7739W        W80807  31.488  24.563  10.529
 7740W        W80808  15.583  15.431   4.212
 7741W        W80809  17.889   1.441   0.423
 7742W        W80810  30.997  29.469  12.933
 7743W        W80811  10.136   3.999  12.096
 7744W        W80812  23.578   0.383   4.399
 7745W        W80813  27.223  39.455  12.567
 7746W        W80814  13.646   9.873   1.434
 7747W        W80815  21.651  34.807   2.718
 7748W        W80816  37.248  17.870   2.367
 7749W        W80817   2.985  11.807   4.161
 7750W        W80818   4.968  32.547  11.203
 7751W        W80819  11.720   6.880  10.748
 7752W        W80820   2.447   8.598  11.021
 7753W        W80821  18.500   7.300   2.830
 7754W        W80822   2.761   0.807   2.258
 7755W        W80823  12.416  14.393   1.189
 7756W        W80824  20.107  29.576  14.735
 7757W        W80825  13.610   3.584   2.736
 7758W        W80826  41.818  33.857   2.596
 7759W        W80827  10.690  26.030   4.188
 7760W        W80828  44.952   0.688   0.041
 7761W        W80829  18.864  32.048   3.271
 7762W        W80830  22.204   5.938  14.969
 7763W        W80831   1.723   8.548   2.389
 7764W        W80832  11.174  31.815   3.559
 7765W        W80833  33.587   7.773  14.327
 7766W        W80834   7.225   8.580   2.081
 7767W        W80835   3.878   9.860   0.088
 7768W        W80836   9.013  38.986  11.220
 7769W        W80837  40.271   3.074   3.542
 7770W        W80838  17.662   8.906   4.133
 7771W        W80839   9.804  25.659   1.474
 7772W        W80840  20.112   7.388   0.937
 7773W        W80841  32.506   0.830   1.925
 7774W        W80842  29.527  40.198  13.474
 7775W        W80843  10.036   0.259  14.196
 7776W        W80844   3.757  31.690   1.844
 7777W        W80845  43.441  44.066  13.433
 7778W        W80846  12.137  18.207  12.981
 7779W        W80847  22.959   5.173  13.984
 7780W        W80848  22.553   8.640   0.109
 7781W        W80849  20.199   1.610  11.347
 7782W        W80850  11.195  12.119  11.115
 7783W        W80851  17.134  26.705   3.214
 7784W        W80852  25.594  32.477   4.745
 7785W        W80853  16.692   4.824  14.964
 7786W        W80854   7.874  44.132  12.949
 7787W        W80855   9.367  42.256  14.462
 7788W        W80856  17.525   9.483  11.842
 7789W        W80857  29.011  20.784  14.938
 7790W        W80858  40.554  31.667   2.157
 7791W        W80859  29.603  39.415  14.691
 7792W        W80860   4.024  13.642   3.904
 7793W        W80861  40.037  24.740  13.612
 7794W        W80862  28.672  41.301  12.469
 7795W        W80863  25.439  22.510   3.228
 7796W        W80864  37.048   8.884  13.367
 7797W        W80865  11.873  42.132   2.463
 7798W        W80866  25.593  23.687  14.370
 7799W        W80867  20.123  31.986  14.834
 7800W        W80868  19.086  37.998   4.387
 7801W        W80869  25.548   4.997  11.070
 7802W        W80870  27.628  19.194  14.228
 7803W        W80871  39.564  25.075  12.874
 7804W        W80872   3.223  37.959   0.849
 7805W        W80873  26.346  10.917   4.587
 7806W        W80874  28.631  16.124  11.072
 7807W        W80875  14.596  30.433  13.329
 7808W        W80876  19.716  21.268   4.657
 7809W        W80877  40.581  25.205   2.764
 7810W        W80878   8.942  14.100  12.929
 7811W        W80879  24.422  39.069  14.080
 7812W        W80880  10.694  21.346   0.358
 7813W        W80881  28.595   9.695  13.373
 7814W        W80882  29.935  23.790  12.503
 7815W        W80883  31.747  10.158   4.224
 7816W        W80884  26.460  20.490   3.674
 7817W        W80885  33.791   7.198   2.335
 7818W        W80886  30.940  24.142   3.018
 7819W        W80887  15.954  34.267   2.193
 7820W        W80888  10.793   9.703  11.556
 7821W        W80889  41.479  21.994  11.964
 7822W        W80890  39.796   2.991   3.728
 7823W        W80891   5.472  13.560  11.234
 7824W        W80892  24.706  20.719  13.992
 7825W        W80893  44.274  29.480   0.705
 7826W        W80894   8.664  44.372  14.014
 7827W        W80895  41.041  40.994   4.738
 7828W        W80896  20.653  34.597   2.383
 7829W        W80897  12.914  30.519  11.551
 7830W        W80898  16.701  20.931  12.462
 7831W        W80899  31.332  36.905   1.287
 7832W        W80900  22.189  18.286  13.457
 7833W        W80901  18.283   4.634  13.054
 7834W        W80902  19.587  38.440  12.140
 7835W        W80903  23.172  30.092   0.448
 7836W        W80904  32.608  39.961  10.941
 7837W        W80905   1.991   0.631   1.034
 7838W        W80906   3.236  41.826   4.847
 7839W        W80907  29.246  14.628   2.590
 7840W        W80908  37.315  32.842   1.526
 7841W        W80909  42.713  12.102  13.454
 7842W        W80910  27.668  12.876   0.806
 7843W        W80911   9.691   1.003  14.286
 7844W        W80912  16.697  37.958  12.220
 7845W        W80913  32.152  10.174   4.542
 7846W        W80914  11.883  27.595  10.745
 7847W        W80915  34.612   5.251   2.237
 7848W        W80916  31.532   4.389   2.632
 7849W        W80917  34.506   8.770  13.519
 7850W        W80918  11.375   1.908   2.365
 7851W        W80919  34.292  26.705   1.356
 7852W        W80920  36.566  18.194   4.630
 7853W        W80921  36.624   7.194   3.219
 7854W        W80922  21.257  21.235   0.853
 7855W        W80923  18.806  21.966  13.451
 7856W        W80924  19.907  27.821   4.232
 7857W        W80925   5.460  27.918   1.717
 7858W        W80926  13.188  21.214  10.385
 7859W        W80927  15.529   3.413  11.872
 7860W        W80928  12.550  25.578   0.360
 7861W        W80929  15.880  33.459  12.544
 7862W        W80930  32.545  14.218  11.135
 7863W        W80931  28.023   7.646   0.498
 7864W        W80932  44.193   2.280   3.261
 7865W        W80933  21.991  39.274   0.738
 7866W        W80934  22.831  10.253   4.134
 7867W        W80935   2.212   0.325   1.412
 7868W        W80936  15.883  35.034   4.270
 7869W        W80937  35.596   9.477  13.321
 7870W        W80938  30.435   1.492  10.930
 7871W        W80939  15.216  12.772  10.611
 7872W        W80940  19.847  42.885  11.221
 7873W        W80941  15.706   9.876   0.619
 7874W        W80942  19.683  36.901   1.308
 7875W        W80943  23.661  39.847  13.923
 7876W        W80944  39.936  30.566  10.752
 7877W        W80945   4.587  35.028   3.245
 7878W        W80946   7.249  18.979  10.561
 7879W        W80947  15.363  32.032  14.284
 7880W        W80948  11.397  28.447   0.820
 7881W        W80949  14.088  10.806   1.356
 7882W        W80950  26.260   5.314   0.870
 7883W        W80951   4.160  37.076  10.749
 7884W        W80952  18.308   3.460   3.579
 7885W        W80953   5.752  28.158   1.316
 7886W        W80954  27.526  33.106  12.262
 7887W        W80955  18.638  10.328   2.697
 7888W        W80956  10.751   9.858  11.068
 7889W        W80957   5.180  27.958   4.620
 7890W        W80958   8.994  36.817  14.002
 7891W        W80959   3.720  21.830  12.172
 7892W        W80960  34.266  31.603  13.331
 7893W        W80961  19.500  17.749   3.687
 7894W        W80962   7.936  19.065  12.427
 7895W        W80963  14.563  25.602  10.711
 7896W        W80964  22.983  35.976   2.919
 7897W        W80965   6.989  19.992   2.888
 7898W        W80966  10.868  43.946  11.178
 7899W        W80967  35.941  39.774   3.117
 7900W        W80968  32.896  20.231   1.174
 7901W        W80969  34.361  27.512   0.699
 7902W        W80970   9.475  37.043   0.202
 7903W        W80971  11.477  31.106  12.891
 7904W        W80972  22.750  11.103  11.198
 7905W        W80973  26.341   2.455  11.717
 7906W        W80974   2.559  42.453   1.991
 7907W        W80975  30.601  29.950  14.646
 7908W        W80976  36.954  23.694  14.541
 7909W        W80977  21.527  30.106   1.902
 7910W        W80978  22.196  36.588   2.757
 7911W        W80979  36.460  13.279   2.083
 7912W        W80980  21.030  11.579  11.197
 7913W        W80981  17.705   9.746  11.417
 7914W        W80982  19.615   0.705   3.632
 7915W        W80983  29.954  17.498  11.706
 7916W        W80984  20.418   3.343  12.450
 7917W        W80985  40.056  31.433  10.708
 7918W        W80986  20.101  29.726   0.239
 7919W        W80987  13.872  20.197   1.222
 7920W        W80988  40.851   4.938  10.837
 7921W        W80989  22.590  14.675  13.933
 7922W        W80990  20.611  24.114   4.783
 7923W        W80991  17.350  40.734  14.557
 7924W        W80992  20.018   7.125   3.657
 7925W        W80993  12.347  43.475  12.643
 7926W        W80994  32.952  44.214  14.397
 7927W        W80995  35.696  28.237   3.674
 7928W        W80996   5.830   2.937   1.167
 7929W        W80997  29.643   6.495   4.563
 7930W        W80998  26.587   3.488   3.616
 7931W        W80999  10.543   5.422  12.634
 7932W        W81000  26.635  16.276   0.338
 7933W        W81001   0.771  26.446  10.891
 7934W        W81002   4.903   8.665   2.743
 7935W        W81003  18.075  11.084   2.801
 7936W        W81004  14.121  24.020  13.873
 7937W        W81005  27.815  12.633   0.334
 7938W        W81006  42.254  15.729   1.827
 7939W        W81007  14.072  34.378   3.241
 7940W        W81008  27.264   8.090   1.807
 7941W        W81009  28.632  27.390   2.389
 7942W        W81010  16.674   5.625   3.752
 7943W        W81011  34.991  29.702   4.277
 7944W        W81012  28.868  29.059   4.596
 7945W        W81013  24.830  30.115   2.327
 7946W        W81014   0.729  36.832   0.747
 7947W        W81015  38.320  44.033  14.052
 7948W        W81016   8.925  11.837   2.335
 7949W        W81017  44.011   4.483  12.423
 7950W        W81018   3.467  29.877   1.857
 7951W        W81019  13.219  13.626   0.491
 7952W        W81020   1.079   9.613   0.297
 7953W        W81021  33.014  26.170  12.519
 7954W        W81022  43.470   8.742  14.520
 7955W        W81023  23.731  14.806  11.572
 7956W        W81024  12.950  14.650   0.379
 7957W        W81025  43.061   8.162   4.162
 7958W        W81026  35.867   7.427   4.075
 7959W        W81027   6.097  44.664  13.817
 7960W        W81028   1.535  17.765   3.460
 7961W        W81029  40.996  34.972  12.124
 7962W        W81030  40.834  35.858  10.703
 7963W        W81031  35.524  33.422  14.278
 7964W        W81032  18.646  17.248  13.406
 7965W        W81033  15.038  29.582  11.930
 7966W        W81034   5.478  35.625  12.089
 7967W        W81035  28.846  21.527  12.998
 7968W        W81036  20.215  28.940  10.683
 7969W        W81037  13.829  10.353   1.401
 7970W        W81038  26.978  37.952  12.138
 7971W        W81039  11.212  15.100   0.791
 7972W        W81040   0.713  25.203  14.102
 7973W        W81041  25.623  29.453  11.223
 7974W        W81042  37.375  17.355   2.263
 7975W        W81043  24.738   3.858   0.811
 7976W        W81044   4.328  40.631   3.733
 7977W        W81045  37.851  44.254   0.788
 7978W        W81046  42.411  34.619  12.097
 7979W        W81047  35.039  19.259   4.188
 7980W        W81048   9.100  38.175  11.543
 7981W        W81049  41.415  27.066  12.617
 7982W        W81050  34.010  19.642   3.575
 7983W        W81051   6.090  35.970   5.075
 7984W        W81052  37.536  35.437   2.634
 7985W        W81053  21.168  42.497  11.126
 7986W        W81054  12.094  38.900  11.022
 7987W        W81055  32.475  41.417  13.268
 7988W        W81056  37.979  15.401   0.188
 7989W        W81057   5.785  42.420  14.904
 7990W        W81058  35.833   6.755  13.955
 7991W        W81059  22.758  23.866   0.534
 7992W        W81060  13.809   6.038   1.672
 7993W        W81061  26.032  27.015  11.558
 7994W        W81062  23.430  11.079  13.956
 7995W        W81063  43.598   8.318  12.835
 7996W        W81064   1.368   0.703  10.977
 7997W        W81065  31.847  23.684  12.388
 7998W        W81066  44.825  32.230   0.399
 7999W        W81067  34.127   1.940  12.247
 8000W        W81068   6.099  39.426  14.142
 8001W        W81069  39.403   0.377  11.132
 8002W        W81070   3.688  19.538  10.819
 8003W        W81071  28.146   4.347   1.296
 8004W        W81072  19.209  38.429  12.541
 8005W        W81073  13.880  40.558  10.962
 8006W        W81074  43.900  32.323  11.738
 8007W        W81075  16.655  19.578  14.817
 8008W        W81076   8.614  12.758   1.567
 8009W        W81077  18.998   7.896   4.189
 8010W        W81078  39.851  24.550   4.176
 8011W        W81079   4.753  23.978   3.439
 8012W        W81080  17.288  29.714  14.464
 8013W        W81081   8.841  43.882  12.779
 8014W        W81082  14.144  38.063   2.880
 8015W        W81083  20.011  12.666   4.625
 8016W        W81084  31.048  44.312   4.125
 8017W        W81085  10.846  25.128  10.287
 8018W        W81086   7.645   6.846   3.853
 8019W        W81087  13.138  11.614   3.647
 8020W        W81088  28.570  38.587   2.029
 8021W        W81089   0.109  12.226  13.397
 8022W        W81090  25.139  15.263   3.589
 8023W        W81091  27.568  17.003  13.053
 8024W        W81092  12.917   9.643   3.725
 8025W        W81093  11.262  28.601  13.828
 8026W        W81094  15.146  44.278   1.809
 8027W        W81095  40.574   0.085  13.867
 8028W        W81096  34.305  25.839   3.115
 8029W        W81097  10.194  36.574   3.612
 8030W        W81098  16.168  24.208  11.584
 8031W        W81099  12.793  27.407   1.767
 8032W        W81100   8.778  14.789   0.010
 8033W        W81101  27.523  40.865   1.825
 8034W        W81102  29.471  27.545  13.792
 8035W        W81103  31.397  14.705   3.800
 8036W        W81104  39.122  17.069   3.223
 8037W        W81105  41.472  30.580   1.343
 8038W        W81106  30.075   9.219  10.579
 8039W        W81107   3.733  23.067  12.546
 8040W        W81108  17.782  42.317   4.192
 8041W        W81109  16.272  21.083  10.767
 8042W        W81110  23.222  27.126   0.950
 8043W        W81111   9.263  29.187   2.318
 8044W        W81112  21.064  18.082  10.677
 8045W        W81113  21.017  41.821   2.819
 8046W        W81114  23.050  27.601  14.275
 8047W        W81115   1.567   1.094  14.265
 8048W        W81116  10.298  14.215  12.706
 8049W        W81117  14.606  27.602   1.399
 8050W        W81118  39.237  19.657  14.999
 8051W        W81119  18.062  31.318   3.014
 8052W        W81120   3.915  36.655  14.027
 8053W        W81121   7.962  35.504   0.793
 8054W        W81122  37.125   0.724  11.896
 8055W        W81123  27.766   3.117   5.067
 8056W        W81124   4.412  41.196  14.201
 8057W        W81125  12.725  31.143  12.932
 8058W        W81126  44.811   8.257  12.390
 8059W        W81127  39.579  23.000   2.476
 8060W        W81128   4.507  32.991   3.403
 8061W        W81129  13.313  26.932   3.130
 8062W        W81130  21.006  23.166   2.394
 8063W        W81131  22.990  36.812  11.595
 8064W        W81132   4.823  14.846  14.298
 8065W        W81133   2.279   7.204   4.495
 8066W        W81134  42.290   1.916  12.079
 8067W        W81135  10.740  37.808  12.460
 8068W        W81136  12.001  16.228  14.966
 8069W        W81137   6.180   8.346  13.830
 8070W        W81138   6.269  42.758  13.984
 8071W        W81139  21.183   5.116   0.791
 8072W        W81140  44.844  35.415   0.424
 8073W        W81141  40.327  26.202   0.151
 8074W        W81142  16.811   1.820  12.077
 8075W        W81143   8.957  27.902  10.852
 8076W        W81144  30.231  31.060  12.106
 8077W        W81145  33.567  29.236   4.159
 8078W        W81146  21.348  40.309   1.285
 8079W        W81147   4.696   0.578   4.797
 8080W        W81148  17.954  32.090  10.149
 8081W        W81149  32.187  32.624   0.334
 8082W        W81150  31.798  44.218  14.884
 8083W        W81151  34.367  42.473  12.581
 8084W        W81152   3.271   5.104  11.490
 8085W        W81153  12.051  36.289   0.834
 8086W        W81154  13.088  17.201  13.971
 8087W        W81155   7.774  14.369   0.945
 8088W        W81156  42.800  20.282   3.672
 8089W        W81157  29.553  28.197  11.256
 8090W        W81158  35.493  20.209   1.293
 8091W        W81159  39.029  18.571   4.165
 8092W        W81160   9.804  19.290  11.608
 8093W        W81161  23.864  40.837  12.886
 8094W        W81162  41.965  44.761  11.335
 8095W        W81163   2.477  28.415   3.497
 8096W        W81164  44.245   1.557  14.310
 8097W        W81165  21.787  37.649   5.075
 8098W        W81166  21.738   0.771  11.123
 8099W        W81167   0.945  30.243  11.132
 8100W        W81168  31.244  18.382  14.915
 8101W        W81169  13.719  35.093   0.882
 8102W        W81170  23.487  12.084   3.232
 8103W        W81171  40.316  39.130  11.530
 8104W        W81172  37.451  26.310   3.177
 8105W        W81173  33.189  32.066   0.737
 8106W        W81174  41.026  24.965  11.104
 8107W        W81175  44.323  33.387  10.838
 8108W        W81176  43.806  39.490   3.541
 8109W        W81177   4.510   1.058  12.980
 8110W        W81178  27.187  27.184  10.837
 8111W        W81179  24.646   6.093  14.048
 8112W        W81180   4.934  34.997   1.711
 8113W        W81181   0.702  34.341   0.897
 8114W        W81182   1.070  13.728  14.439
 8115W        W81183  14.025  20.902  10.960
 8116W        W81184  11.709  43.781  14.234
 8117W        W81185   2.023   8.998   4.781
 8118W        W81186  41.413  43.374   4.144
 8119W        W81187  23.765  40.559   1.299
 8120W        W81188  33.991  41.766  13.882
 8121W        W81189   2.938  29.097   4.636
 8122W        W81190  28.899   1.344   2.388
 8123W        W81191  36.960  30.337  14.583
 8124W        W81192   8.284  10.154  14.915
 8125W        W81193  24.955  21.161  14.008
 8126W        W81194   6.049   9.140  11.318
 8127W        W81195   3.817   2.516  11.476
 8128W        W81196  19.001  27.555  11.531
 8129W        W81197  30.878   8.120  11.527
 8130W        W81198  11.549  27.649   1.384
 8131W        W81199  20.026  31.238   0.328
 8132W        W81200  14.206   1.783  11.474
 8133W        W81201  11.342  19.158  13.971
 8134W        W81202   5.411  28.949  13.698
 8135W        W81203   0.228  19.124  12.091
 8136W        W81204  26.196   4.054   1.415
 8137W        W81205   1.902   5.808   2.743
 8138W        W81206  38.593  19.156   0.831
 8139W        W81207  42.005  16.217   1.850
 8140W        W81208  22.550  38.417  12.321
 8141W        W81209  12.641  18.632   3.669
 8142W        W81210  21.256  17.240  12.454
 8143W        W81211  32.985  15.653  12.959
 8144W        W81212  10.272  41.854  10.603
 8145W        W81213  20.164  36.230  11.126
 8146W        W81214  14.664  20.228  10.565
 8147W        W81215  38.226  13.717   3.754
 8148W        W81216  13.359  20.359  10.714
 8149W        W81217  19.285  41.407   4.134
 8150W        W81218  22.696  23.618  13.085
 8151W        W81219  23.466  42.665   2.263
 8152W        W81220  17.532   5.281   2.415
 8153W        W81221  42.435  21.552  12.793
 8154W        W81222  43.363   9.650  12.905
 8155W        W81223  32.481  21.509  12.398
 8156W        W81224  28.552  30.871   2.737
 8157W        W81225  30.173  27.087  13.927
 8158W        W81226  42.236  29.481   0.907
 8159W        W81227  12.758  30.798  11.150
 8160W        W81228  40.810  33.047   1.889
 8161W        W81229  17.114  24.183  13.998
 8162W        W81230  17.418   4.381   2.436
 8163W        W81231  42.893  44.065  13.480
 8164W        W81232   8.891  40.107  12.068
 8165W        W81233   2.539  24.131   0.835
 8166W        W81234  44.316  14.262   0.511
 8167W        W81235  41.484  28.916   0.751
 8168W        W81236  34.949  17.994  12.050
 8169W        W81237  12.155   2.228  14.313
 8170W        W81238  36.045   8.400  13.569
 8171W        W81239  11.073  21.321   0.762
 8172W        W81240  27.705  44.309  12.900
 8173W        W81241  18.483  27.877   4.592
 8174W        W81242  20.024  19.710  10.732
 8175W        W81243   4.434  27.724   4.180
 8176W        W81244  22.083  10.194   0.462
 8177W        W81245  22.898  15.535   2.806
 8178W        W81246   1.724  13.737   3.843
 8179W        W81247   2.115   8.942   3.597
 8180W        W81248   2.186  33.562  14.366
 8181W        W81249  21.551  12.804   4.657
 8182W        W81250  21.986  13.562   3.571
 8183W        W81251  43.695   1.209  12.576
 8184W        W81252  14.136  19.880   2.767
 8185W        W81253   3.326  40.800  13.873
 8186W        W81254   9.268   2.853   4.906
 8187W        W81255   7.361   9.313  13.520
 8188W        W81256  22.594  38.599  12.806
 8189W        W81257   6.843  12.884  14.310
 8190W        W81258  34.419  27.770   3.069
 8191W        W81259  15.696  34.429  12.446
 8192W        W81260  27.114   6.632   2.575
 8193W        W81261  21.579  31.666  11.626
 8194W        W81262  20.091  23.171   4.623
 8195W        W81263   4.189  16.934  12.419
 8196W        W81264  12.136   1.337  11.540
 8197W        W81265  15.753  14.543  10.635
 8198W        W81266  19.656  38.491   0.057
 8199W        W81267   7.453  37.260  11.966
 8200W        W81268  26.019  21.978  13.232
 8201W        W81269  17.984  21.818  14.848
 8202W        W81270  42.289  24.642  12.124
 8203W        W81271  38.855  35.002  14.535
 8204W        W81272  26.360   0.302  10.333
 8205W        W81273  24.652  37.601   2.386
 8206W        W81274  16.358  10.241   1.320
 8207W        W81275   2.914  34.986   2.686
 8208W        W81276   4.622  11.223  13.566
 8209W        W81277  44.206  33.353   1.963
 8210W        W81278   7.936  27.598   4.518
 8211W        W81279   7.464  27.485   0.400
 8212W        W81280  40.336   7.830   3.337
 8213W        W81281  22.047  21.625   0.208
 8214W        W81282   3.878  15.198   1.336
 8215W        W81283  25.833  25.930  13.905
 8216W        W81284  22.442  30.171  14.813
 8217W        W81285  32.855   4.948   4.565
 8218W        W81286  41.009  22.708   0.207
 8219W        W81287  34.133  23.576  10.702
 8220W        W81288  44.819  15.595   1.180
 8221W        W81289  23.394  28.917   0.954
 8222W        W81290  40.118   1.836   3.420
 8223W        W81291  39.350  10.467   0.343
 8224W        W81292  38.071  40.402  14.748
 8225W        W81293  17.174  29.804  12.977
 8226W        W81294  23.148  23.466   3.854
 8227W        W81295  31.943  40.009   1.445
 8228W        W81296   4.284   1.920   1.815
 8229W        W81297   5.506  31.900  11.714
 8230W        W81298  31.139  40.484   1.779
 8231W        W81299  15.266  27.660   3.237
 8232W        W81300  40.398  19.134  14.424
 8233W        W81301  43.786  33.916   3.435
 8234W        W81302  17.812  28.194   0.552
 8235W        W81303  22.451  11.092   3.154
 8236W        W81304  18.449  16.967  11.870
 8237W        W81305  24.047  27.474  14.287
 8238W        W81306  30.888   2.257  12.957
 8239W        W81307  24.639   7.035  10.684
 8240W        W81308  38.462   7.260  13.587
 8241W        W81309   2.737  26.298   0.337
 8242W        W81310  44.889  21.110  12.105
 8243W        W81311  28.919  11.721  10.366
 8244W        W81312   7.812  32.416   4.664
 8245W        W81313   3.759   6.760  12.175
 8246W        W81314  17.752  24.952   2.675
 8247W        W81315   9.206  18.112   1.420
 8248W        W81316  41.372  35.058   0.811
 8249W        W81317  22.733  38.273   1.756
 8250W        W81318  13.850  35.608  14.364
 8251W        W81319  20.551  30.795  14.523
 8252W        W81320  42.198  13.102   0.079
 8253W        W81321  39.201   5.534   2.825
 8254W        W81322  33.019   8.175   3.803
 8255W        W81323  30.728   5.048   2.778
 8256W        W81324   5.546  22.602   0.398
 8257W        W81325  31.739  27.604   2.125
 8258W        W81326   0.352  30.211   0.542
 8259W        W81327  28.303  28.450  13.899
 8260W        W81328  41.440  20.105   4.663
 8261W        W81329  25.473  14.333  11.041
 8262W        W81330  32.434   4.405  13.182
 8263W        W81331  21.075  36.886   3.196
 8264W        W81332  10.357   4.094   4.109
 8265W        W81333  13.864  19.589  10.921
 8266W        W81334   2.137   0.801  10.287
 8267W        W81335  31.057  21.087   0.817
 8268W        W81336  30.913  27.903  13.369
 8269W        W81337  44.751  41.147   2.300
 8270W        W81338  41.096   8.183  13.819
 8271W        W81339   3.368  11.869   3.337
 8272W        W81340  13.578  32.561  12.580
 8273W        W81341   9.333  25.450   0.298
 8274W        W81342  18.149  12.897  13.275
 8275W        W81343   3.303   3.787  14.012
 8276W        W81344  26.546   5.060   3.689
 8277W        W81345  10.592   6.409  13.458
 8278W        W81346  43.761  28.040  13.342
 8279W        W81347  28.088   3.384   0.010
 8280W        W81348  36.929  14.279  10.717
 8281W        W81349  38.889  17.521  11.028
 8282W        W81350  31.277   5.888  11.833
 8283W        W81351  35.955  40.663  13.983
 8284W        W81352  35.941  38.401   3.699
 8285W        W81353  22.671  28.626  11.070
 8286W        W81354   7.308  19.160   4.550
 8287W        W81355  30.396  19.048   3.134
 8288W        W81356  42.854  21.571  13.438
 8289W        W81357  42.493  44.472   3.862
 8290W        W81358  24.563  20.346   3.217
 8291W        W81359  39.408   8.221   4.486
 8292W        W81360  39.098   9.747   1.924
 8293W        W81361  22.722  26.937  11.064
 8294W        W81362   2.016  11.178  13.935
 8295W        W81363  38.065  32.857   4.165
 8296W        W81364   6.779  15.305   4.637
 8297W        W81365  28.785  15.556   4.344
 8298W        W81366  32.931   8.420  13.006
 8299W        W81367  31.682  18.232  10.599
 8300W        W81368  20.441  28.031  12.742
 8301W        W81369  13.231  32.751  13.429
 8302W        W81370   0.544  28.410   2.374
 8303W        W81371   2.415   2.695   4.165
 8304W        W81372   7.465   5.720   3.496
 8305W        W81373  38.858  39.835  10.581
 8306W        W81374  41.239  38.750   4.989
 8307W        W81375  17.722  41.301  10.750
 8308W        W81376  18.059  34.382   0.380
 8309W        W81377  24.584  38.611  13.873
 8310W        W81378  21.217  20.472  11.563
 8311W        W81379  31.440  22.704  11.332
 8312W        W81380   3.929  31.019  12.896
 8313W        W81381   8.952  34.990  11.118
 8314W        W81382  26.163  24.735  11.653
 8315W        W81383  21.438  12.659  12.972
 8316W        W81384   7.106  39.115  13.510
 8317W        W81385  19.930   2.327   1.892
 8318W        W81386  39.425  42.035  10.906
 8319W        W81387  19.476  44.569  13.405
 8320W        W81388  20.492  40.350  13.989
 8321W        W81389  23.679  44.276   1.429
 8322W        W81390  40.606  27.113  11.515
 8323W        W81391   6.198   5.707  12.913
 8324W        W81392  22.723  38.133   3.305
 8325W        W81393  20.986   2.367   1.839
 8326W        W81394   0.165  16.599   3.970
 8327W        W81395  41.224   0.928   0.835
 8328W        W81396   1.465  36.612   2.821
 8329W        W81397  34.922  27.064  10.459
 8330W        W81398  28.406  30.625   3.220
 8331W        W81399  28.037  37.792  14.755
 8332W        W81400  44.219   8.578  12.872
 8333W        W81401  16.305  43.578   4.149
 8334W        W81402  39.289  28.069   3.306
 8335W        W81403  22.781  30.049   3.168
 8336W        W81404  38.511  34.631  14.370
 8337W        W81405  21.248  32.217  14.732
 8338W        W81406  11.332  11.084  11.030
 8339W        W81407   9.384  36.790  12.026
 8340W        W81408  24.753  16.616  11.108
 8341W        W81409   6.387   2.344   4.573
 8342W        W81410  36.846  38.529  13.121
 8343W        W81411  13.238  21.230   0.414
 8344W        W81412  25.737  41.418  11.095
 8345W        W81413  21.373  19.033  14.929
 8346W        W81414  28.579   7.602   2.373
 8347W        W81415   2.434  25.638   0.914
 8348W        W81416   5.857   5.876   2.255
 8349W        W81417  33.666  40.435  13.043
 8350W        W81418  40.916  29.583  12.106
 8351W        W81419  32.385  41.647   1.351
 8352W        W81420  11.622  32.512  12.996
 8353W        W81421   6.518  23.213   3.393
 8354W        W81422  19.909  13.810  14.132
 8355W        W81423  20.761  14.283   1.911
 8356W        W81424   3.246  12.535  14.980
 8357W        W81425  42.907  20.238  11.568
 8358W        W81426   9.168   0.779   4.848
 8359W        W81427  17.071  37.921   1.709
 8360W        W81428  33.063  41.083   1.844
 8361W        W81429  31.123  11.108   4.620
 8362W        W81430  41.270  27.208   0.887
 8363W        W81431   4.254  20.501   3.813
 8364W        W81432  39.758  36.099   2.741
 8365W        W81433  41.080   0.103   2.743
 8366W        W81434  30.679  22.521   4.914
 8367W        W81435  14.712  20.149  11.951
 8368W        W81436  21.221   0.523   4.713
 8369W        W81437  16.354  39.393   3.671
 8370W        W81438  33.168  17.596   0.788
 8371W        W81439  19.740  31.856  14.076
 8372W        W81440  24.064  31.492  11.596
 8373W        W81441  42.019  40.052   3.050
 8374W        W81442  42.680  24.872  14.975
 8375W        W81443  27.598   4.818  14.764
 8376W        W81444  35.524  43.443  13.348
 8377W        W81445  41.252  16.113  12.540
 8378W        W81446   9.467   9.213  12.955
 8379W        W81447  32.162   9.928  13.862
 8380W        W81448  38.872  32.928   2.456
 8381W        W81449  34.679  12.410   4.146
 8382W        W81450  26.046  39.052  13.903
 8383W        W81451   7.345  36.017   2.612
 8384W        W81452  41.492   0.835  12.833
 8385W        W81453   3.217  38.531   4.487
 8386W        W81454  31.893  32.922  12.523
 8387W        W81455  18.748   2.950  12.029
 8388W        W81456  37.000  41.950  10.923
 8389W        W81457   3.495  11.532   0.024
 8390W        W81458   1.576  16.561  12.094
 8391W        W81459  19.504  44.032  13.408
 8392W        W81460  27.644  29.205   2.288
 8393W        W81461  14.364   4.775   3.759
 8394W        W81462  39.754   8.357   5.211
 8395W        W81463  23.930  25.442  11.551
 8396W        W81464  44.352  11.733   3.282
 8397W        W81465  30.771   7.836   2.078
 8398W        W81466  42.073  42.337  13.811
 8399W        W81467  26.938   6.352   4.777
 8400W        W81468   5.283  13.743  12.593
 8401W        W81469  41.869  14.706  12.648
 8402W        W81470   5.184   4.166   2.377
 8403W        W81471  27.672   9.816  11.202
 8404W        W81472  39.776   4.270  12.011
 8405W        W81473  32.824  13.761   4.675
 8406W        W81474  27.049  15.159   1.872
 8407W        W81475   2.329  24.638   0.884
 8408W        W81476  40.351   4.970   0.980
 8409W        W81477   4.735  41.244  14.735
 8410W        W81478  42.063  28.097  13.626
 8411W        W81479  22.765  39.985   4.559
 8412W        W81480   2.328  31.028  13.976
 8413W        W81481  24.284  39.073  10.444
 8414W        W81482  37.474   5.237  10.582
 8415W        W81483  27.613  42.280   1.072
 8416W        W81484  23.939  33.938  13.902
 8417W        W81485  36.143  15.230  11.999
 8418W        W81486   1.493  28.502   1.806
 8419W        W81487  16.349  26.634  13.503
 8420W        W81488  18.315  42.999  12.964
 8421W        W81489   8.890  17.091   0.791
 8422W        W81490  33.269  20.662   4.633
 8423W        W81491  41.002   1.983   3.975
 8424W        W81492   0.134   0.861   4.193
 8425W        W81493  43.551  30.077  12.529
 8426W        W81494  28.155  28.611   0.825
 8427W        W81495  29.051   7.866   0.295
 8428W        W81496  44.374  11.116  12.879
 8429W        W81497  38.024  24.649  10.705
 8430W        W81498  12.331   1.368  12.643
 8431W        W81499  18.856  44.371  14.762
 8432W        W81500  13.290  24.415  13.391
 8433W        W81501  22.249  18.257   3.400
 8434W        W81502  42.602  11.388   3.770
 8435W        W81503  21.034  36.813  12.954
 8436W        W81504  37.850  23.326   1.897
 8437W        W81505  21.013  39.394  10.548
 8438W        W81506   7.184  28.397   2.938
 8439W        W81507  24.388  38.598   1.407
 8440W        W81508  18.672  25.146   1.017
 8441W        W81509   1.541  29.601   4.617
 8442W        W81510  17.018   4.731  12.350
 8443W        W81511  40.355   1.201  10.680
 8444W        W81512  29.596   1.877  14.036
 8445W        W81513  26.516  33.027   4.751
 8446W        W81514  20.727  39.033   5.173
 8447W        W81515  10.673  31.923  13.253
 8448W        W81516  41.479   4.405  10.655
 8449W        W81517  14.204  27.923   0.344
 8450W        W81518  33.873   8.640   1.311
 8451W        W81519  34.164  11.780   2.819
 8452W        W81520  36.546  33.939  12.298
 8453W        W81521  29.097  27.719   0.301
 8454W        W81522  42.837  26.389   0.851
 8455W        W81523  19.071  16.578  12.634
 8456W        W81524  36.620   1.612   4.975
 8457W        W81525  22.574  16.805   4.687
 8458W        W81526  31.733  41.169  12.000
 8459W        W81527  12.337  13.182  11.024
 8460W        W81528  43.307  44.654   0.339
 8461W        W81529  22.403   9.183   0.886
 8462W        W81530   9.674  19.672  12.943
 8463W        W81531  43.208  28.032   0.882
 8464W        W81532  10.980  14.493  13.170
 8465W        W81533   9.438  23.113  14.985
 8466W        W81534  36.354  29.107   0.379
 8467W        W81535   0.457   3.406   0.332
 8468W        W81536  32.373   4.273  11.646
 8469W        W81537  28.512   8.660   2.373
 8470W        W81538  34.101  40.464   4.627
 8471W        W81539   6.015  19.997   3.694
 8472W        W81540  28.376  31.055   0.445
 8473W        W81541  16.132  10.245  12.853
 8474W        W81542   9.032  36.429   2.442
 8475W        W81543   3.490  44.744  14.412
 8476W        W81544  16.531  40.812   0.308
 8477W        W81545  26.287  26.729   4.579
 8478W        W81546  43.561  15.301   2.807
 8479W        W81547   5.477   1.545  11.990
 8480W        W81548   9.728  33.346  12.284
 8481W        W81549  14.760  19.581  10.109
 8482W        W81550  13.115   2.294   4.917
 8483W        W81551  26.540   3.063   1.464
 8484W        W81552  44.085  23.372  14.924
 8485W        W81553  22.829  35.550  13.137
 8486W        W81554  26.733  37.924  13.407
 8487W        W81555  38.903  40.563  14.527
 8488W        W81556  44.999  25.273   3.882
 8489W        W81557  38.958  31.905   4.988
 8490W        W81558  38.213  11.393   2.931
 8491W        W81559  12.113  35.162  13.783
 8492W        W81560   8.202  42.031   5.610
 8493W        W81561  32.096   0.307  11.997
 8494W        W81562  42.888  43.845  12.204
 8495W        W81563  28.391  18.810  10.743
 8496W        W81564  14.679   6.362  14.091
 8497W        W81565   0.239  13.751  13.510
 8498W        W81566  34.309   0.011  13.358
 8499W        W81567   3.272  17.022   2.164
 8500W        W81568  14.037  42.479  12.508
 8501W        W81569   6.274   2.481  11.408
 8502W        W81570  43.947  40.066   2.901
 8503W        W81571  36.045  44.026   4.208
 8504W        W81572  17.316  21.221  14.871
 8505W        W81573   4.046  35.457  14.325
 8506W        W81574  39.422   4.032   1.973
 8507W        W81575   0.256  17.249  12.152
 8508W        W81576   4.347   5.107  12.484
 8509W        W81577  33.285  42.349   0.761
 8510W        W81578  34.929  39.980   3.870
 8511W        W81579  23.600   4.970   1.405
 8512W        W81580  18.524  35.802  10.227
 8513W        W81581  35.608   3.243  13.953
 8514W        W81582  20.740  21.098   3.813
 8515W        W81583  13.156  20.148  11.610
 8516W        W81584   5.429   1.323   3.744
 8517W        W81585  21.733   8.285   0.240
 8518W        W81586  31.672  40.390  11.432
 8519W        W81587  33.033  36.690  14.090
 8520W        W81588  13.113  15.293  14.566
 8521W        W81589  26.644  36.621   1.351
 8522W        W81590  19.267   6.678   2.297
 8523W        W81591  33.103  17.756  11.578
 8524W        W81592  41.462   1.730   2.649
 8525W        W81593  26.877   1.406  11.067
 8526W        W81594   6.755  32.651  12.927
 8527W        W81595   7.800   0.493  12.094
 8528W        W81596  22.390  43.402   4.326
 8529W        W81597  39.815  27.653  12.712
 8530W        W81598  25.566  40.365   4.975
 8531W        W81599  11.803   3.655   2.769
 8532W        W81600   0.180   3.869   1.440
 8533W        W81601  32.523  22.821  10.203
 8534W        W81602  21.613  23.734   4.223
 8535W        W81603  18.505  34.643  14.417
 8536W        W81604  18.266  16.873   3.736
 8537W        W81605  43.801  13.337  10.697
 8538W        W81606  35.363  17.110   0.035
 8539W        W81607  43.436  27.560   9.946
 8540W        W81608  24.069   5.055  11.261
 8541W        W81609  28.921  37.341  11.239
 8542W        W81610   1.339  21.594  13.780
 8543W        W81611  14.772  27.024  11.902
 8544W        W81612  28.084  31.191   0.908
 8545W        W81613   3.225  28.099  14.644
 8546W        W81614  36.269  35.900  12.877
 8547W        W81615  19.678  32.412   0.087
 8548W        W81616   8.646  42.270  11.051
 8549W        W81617   6.340  13.047  12.913
 8550W        W81618  23.149  30.595  10.947
 8551W        W81619   1.940  39.155  10.484
 8552W        W81620   8.362   4.519   2.856
 8553W        W81621  15.542  14.680  11.084
 8554W        W81622   0.458   9.017  10.588
 8555W        W81623  17.444  36.516   2.479
 8556W        W81624  44.335  37.507  10.259
 8557W        W81625   2.711  40.978  12.957
 8558W        W81626  34.809  16.615   2.784
 8559W        W81627   4.052   8.001  14.047
 8560W        W81628  40.778  35.379  10.503
 8561W        W81629  36.339  28.869  13.462
 8562W        W81630  24.173  29.916   1.375
 8563W        W81631  20.593  29.996  10.777
 8564W        W81632  15.574  38.754  11.717
 8565W        W81633  19.577  12.699  12.904
 8566W        W81634   6.199  24.997   1.273
 8567W        W81635  35.919  15.639   2.430
 8568W        W81636  29.895  19.491   4.694
 8569W        W81637  19.695  41.951   3.545
 8570W        W81638   2.354  19.256   3.947
 8571W        W81639   0.398  11.733  14.957
 8572W        W81640  43.224   8.419  10.694
 8573W        W81641  20.150  10.907  12.953
 8574W        W81642  13.351  13.288   3.282
 8575W        W81643   8.741  13.867   2.697
 8576W        W81644  18.851   5.440  14.534
 8577W        W81645  13.901   7.240   4.128
 8578W        W81646  25.556  41.564   3.498
 8579W        W81647  38.024  37.308   4.937
 8580W        W81648  35.194   7.152   3.443
 8581W        W81649  31.989  24.989   1.781
 8582W        W81650  23.302  14.061  11.809
 8583W        W81651  29.083  21.009   2.832
 8584W        W81652  18.338  11.483  11.441
 8585W        W81653   4.861  26.078   0.942
 8586W        W81654  23.498  12.304   4.735
 8587W        W81655  14.061  13.840  13.217
 8588W        W81656  17.241  35.065   4.398
 8589W        W81657  27.604  33.787   0.226
 8590W        W81658   9.239  44.086  13.111
 8591W        W81659   1.314  37.816  12.928
 8592W        W81660  14.074  34.943  12.055
 8593W        W81661  36.513   8.549   4.575
 8594W        W81662  43.202  18.043  14.410
 8595W        W81663  16.170  18.658   2.929
 8596W        W81664  11.199  21.112   3.660
 8597W        W81665  19.721   7.874   1.285
 8598W        W81666  30.021  21.772  10.680
 8599W        W81667  19.604  17.180  11.096
 8600W        W81668   6.493   4.228   0.343
 8601W        W81669  17.684  22.948  13.238
 8602W        W81670  27.133   1.490  11.922
 8603W        W81671  21.070  44.632   1.472
 8604W        W81672  22.579   5.342   0.703
 8605W        W81673  24.538  41.355  11.116
 8606W        W81674  36.578  30.060  14.794
 8607W        W81675  20.174  39.888   5.126
 8608W        W81676  17.497   2.137  13.859
 8609W        W81677  43.871  34.068  13.409
 8610W        W81678  13.242  31.965  11.521
 8611W        W81679  18.742  26.576  13.297
 8612W        W81680  17.284   0.524  12.766
 8613W        W81681  27.478  41.363  12.535
 8614W        W81682  32.880   5.289   1.836
 8615W        W81683  22.040  31.684  11.922
 8616W        W81684  39.079  35.690   5.278
 8617W        W81685  35.335  26.447   0.405
 8618W        W81686   2.278  12.582   4.930
 8619W        W81687  23.711  37.371  13.866
 8620W        W81688   2.896  32.561   3.537
 8621W        W81689  14.080  28.307   3.097
 8622W        W81690  29.642  42.255  13.718
 8623W        W81691  37.351  44.064  13.990
 8624W        W81692  16.028   2.292   2.356
 8625W        W81693  40.090  16.084  14.971
 8626W        W81694   1.697  11.939   2.828
 8627W        W81695  32.459  22.180   3.853
 8628W        W81696   3.927   8.399  11.520
 8629W        W81697  32.666  28.915   1.066
 8630W        W81698  33.136  25.745   1.255
 8631W        W81699  39.840  37.050   2.685
 8632W        W81700  15.815  20.805   4.631
 8633W        W81701   3.340  25.588  12.003
 8634W        W81702   7.866  28.407   0.311
 8635W        W81703  17.015  43.746  12.685
 8636W        W81704   4.671   9.191   1.824
 8637W        W81705  39.810   7.395  12.456
 8638W        W81706  18.607  22.807   3.247
 8639W        W81707   0.922  29.861  11.643
 8640W        W81708   8.743   5.288  12.893
 8641W        W81709  31.433  23.741   4.236
 8642W        W81710  32.929  39.075   1.712
 8643W        W81711  27.608  39.495   3.254
 8644W        W81712  44.980  24.479   0.283
 8645W        W81713  21.227   1.855  11.204
 8646W        W81714  14.230  32.129   3.663
 8647W        W81715   0.413  16.426  11.010
 8648W        W81716  43.197  20.785  12.346
 8649W        W81717  17.089  42.601   2.891
 8650W        W81718  23.764   3.489   0.526
 8651W        W81719  22.098  42.334   1.184
 8652W        W81720  38.558  18.096   4.519
 8653W        W81721   9.227   3.214  14.340
 8654W        W81722  23.249   1.056  11.111
 8655W        W81723  10.714  29.046  12.747
 8656W        W81724  40.688   5.874   0.555
 8657W        W81725  30.498  39.759   2.672
 8658W        W81726  12.347  15.651   3.679
 8659W        W81727  31.464   0.881   1.945
 8660W        W81728  14.048  41.243  14.961
 8661W        W81729  33.093  20.399  11.132
 8662W        W81730  23.492  37.902   5.039
 8663W        W81731   8.131   7.904  11.642
 8664W        W81732  40.874   8.378  12.458
 8665W        W81733  27.171  14.710   3.768
 8666W        W81734  43.499  12.164  12.143
 8667W        W81735  26.523  23.075   3.598
 8668W        W81736  26.131  11.800   2.798
 8669W        W81737  19.602   9.125  13.512
 8670W        W81738  10.413  10.211   4.569
 8671W        W81739  10.169  25.924  14.198
 8672W        W81740   2.737  18.991   3.196
 8673W        W81741   5.174  25.564  14.868
 8674W        W81742  20.945   4.914  11.632
 8675W        W81743  32.116  40.385  12.065
 8676W        W81744  27.711   5.259   2.720
 8677W        W81745  24.467   1.093  11.224
 8678W        W81746   2.481  44.454  12.916
 8679W        W81747   8.940  13.429  14.716
 8680W        W81748   1.664  38.076  11.894
 8681W        W81749   7.460  10.367   0.364
 8682W        W81750  28.603   5.019   4.184
 8683W        W81751  32.581   1.773  11.587
 8684W        W81752  41.010   6.362   4.999
 8685W        W81753  43.359   9.912  11.577
 8686W        W81754  21.740   4.786   4.706
 8687W        W81755  27.392  20.658  11.472
 8688W        W81756   1.903   2.106  14.440
 8689W        W81757  15.203  34.954   3.174
 8690W        W81758  18.351   8.751   1.665
 8691W        W81759  40.220   0.346   2.781
 8692W        W81760  29.786   2.147   5.066
 8693W        W81761  34.639  21.980   2.699
 8694W        W81762  29.728   9.263  13.047
 8695W        W81763  38.512  35.979  10.234
 8696W        W81764  20.855  27.089   1.869
 8697W        W81765  40.500  24.044   2.064
 8698W        W81766  20.528  27.442  13.832
 8699W        W81767  44.726  37.111  14.905
 8700W        W81768  34.927  20.711  12.451
 8701W        W81769  29.612  22.111   4.223
 8702W        W81770  32.059  13.698   1.687
 8703W        W81771  15.850  30.807  12.409
 8704W        W81772   2.629  31.539   1.208
 8705W        W81773  42.785  27.460  13.940
 8706W        W81774   2.163   7.071   4.990
 8707W        W81775  41.788  18.818  10.650
 8708W        W81776  28.136  28.222   2.224
 8709W        W81777  15.795  10.290   2.612
 8710W        W81778  35.290   9.802   4.784
 8711W        W81779   8.262  30.017   4.756
 8712W        W81780  24.590  40.317  14.806
 8713W        W81781  25.533  44.399   4.154
 8714W        W81782   5.888  18.127  10.989
 8715W        W81783  31.354  23.666  11.610
 8716W        W81784  42.253  15.899   0.409
 8717W        W81785  43.453   3.343  11.188
 8718W        W81786  21.149  37.289   2.263
 8719W        W81787  32.494   4.681  10.912
 8720W        W81788  16.255  25.252   5.082
 8721W        W81789  29.330  33.411  13.990
 8722W        W81790  24.488  13.098  13.889
 8723W        W81791  31.064  40.030  13.748
 8724W        W81792  15.112   4.342   3.263
 8725W        W81793  24.216  11.137   2.249
 8726W        W81794  28.065  21.267   0.409
 8727W        W81795  35.513  23.491  14.504
 8728W        W81796  19.567  41.306  13.032
 8729W        W81797  37.878  44.852  13.917
 8730W        W81798  23.502   6.207   3.755
 8731W        W81799   4.731  43.179   4.509
 8732W        W81800  35.006   5.795  12.422
 8733W        W81801  14.276  21.212  11.704
 8734W        W81802  15.677  12.409   4.286
 8735W        W81803  22.126  12.656  11.993
 8736W        W81804  22.387  31.238   2.682
 8737W        W81805  30.389  21.771   3.309
 8738W        W81806  33.322  29.542  13.006
 8739W        W81807  25.468  13.659   2.955
 8740W        W81808  18.437  31.596  12.807
 8741W        W81809  44.329  16.897   2.280
 8742W        W81810   4.773  35.905  14.956
 8743W        W81811  20.673   8.603  14.476
 8744W        W81812   3.415   5.438   4.810
 8745W        W81813   6.191  20.500   0.985
 8746W        W81814  34.417  42.561  14.912
 8747W        W81815  26.210   5.775  11.988
 8748W        W81816  28.464  14.802   1.837
 8749W        W81817  23.558   3.478   0.059
 8750W        W81818  20.717   5.447   0.080
 8751W        W81819  38.979  28.583   2.035
 8752W        W81820  36.054  25.116   3.193
 8753W        W81821  43.489  35.643  10.797
 8754W        W81822   6.494  10.648   4.133
 8755W        W81823  35.572   5.277  10.366
 8756W        W81824  28.052   1.387   2.619
 8757W        W81825   7.152  19.178   1.586
 8758W        W81826  13.361  12.655   3.693
 8759W        W81827  17.262  41.303   1.792
 8760W        W81828  42.257  31.887   0.940
 8761W        W81829  32.539   4.912   4.159
 8762W        W81830  39.207   9.899  10.176
 8763W        W81831  31.343   2.911   2.681
 8764W        W81832  31.374  39.012   1.779
 8765W        W81833   4.225  35.635   4.656
 8766W        W81834   1.228  42.797  11.192
 8767W        W81835  42.067  19.460  13.550
 8768W        W81836  39.365  18.856  13.712
 8769W        W81837   5.273  16.818  13.062
 8770W        W81838  27.943  13.068  13.416
 8771W        W81839  27.645  38.617   0.867
 8772W        W81840   6.767   3.217  14.707
 8773W        W81841   1.290   9.210   3.409
 8774W        W81842  26.870  11.274  13.862
 8775W        W81843  11.433  31.391   2.929
 8776W        W81844   9.700  39.283   1.923
 8777W        W81845  23.061  41.976  14.407
 8778W        W81846  11.707  24.958   3.754
 8779W        W81847   6.390  24.516   1.313
 8780W        W81848  16.617  43.847   2.663
 8781W        W81849  34.855   9.958  14.842
 8782W        W81850  12.075  11.477  14.729
 8783W        W81851  27.744  43.667  13.033
 8784W        W81852  31.966   5.688   4.181
 8785W        W81853  41.805  19.021  13.573
 8786W        W81854   8.811  44.884   1.256
 8787W        W81855  10.071   9.410  12.203
 8788W        W81856  28.339   8.902   5.109
 8789W        W81857  19.532  12.938  14.231
 8790W        W81858  29.740  25.753   3.638
 8791W        W81859  38.819  36.411   4.621
 8792W        W81860   8.266  22.124  13.589
 8793W        W81861   6.262  24.939   4.982
 8794W        W81862  12.699  13.220  13.083
 8795W        W81863  39.544   8.718  11.364
 8796W        W81864  22.739  33.550  10.820
 8797W        W81865  34.509  28.872  12.953
 8798W        W81866  11.854  44.270  13.389
 8799W        W81867  22.254  18.516  10.735
 8800W        W81868  36.066  38.813  13.482
 8801W        W81869  40.763  14.307   4.944
 8802W        W81870  43.393   6.441  14.555
 8803W        W81871   1.291   1.337   0.302
 8804W        W81872  35.867  39.441   1.820
 8805W        W81873  23.628  21.155  11.191
 8806W        W81874   6.305  11.513   1.855
 8807W        W81875  13.598   0.273   2.369
 8808W        W81876   7.034  12.729  14.764
 8809W        W81877  22.615  41.006   2.391
 8810W        W81878   4.601  29.430  13.212
 8811W        W81879  11.496  23.687   3.584
 8812W        W81880  12.168  36.810  14.968
 8813W        W81881   5.660  26.667  12.376
 8814W        W81882  41.014  30.955   3.558
 8815W        W81883  11.174  34.640  14.448
 8816W        W81884  23.135  42.915  14.397
 8817W        W81885  35.333   9.240  11.115
 8818W        W81886   6.624   0.973   4.726
 8819W        W81887   0.467   1.080  11.049
 8820W        W81888   5.970  39.855   2.239
 8821W        W81889  36.275  19.025   1.169
 8822W        W81890  14.695  17.744  14.405
 8823W        W81891  10.636  40.556  13.350
 8824W        W81892  13.801  14.104  14.040
 8825W        W81893  25.553  33.694  11.550
 8826W        W81894  27.564  39.795  10.996
 8827W        W81895  40.682  39.920  12.908
 8828W        W81896  42.906  14.683   1.418
 8829W        W81897  21.560  11.802  11.855
 8830W        W81898  23.088  43.759  10.690
 8831W        W81899  38.508  19.486   1.890
 8832W        W81900  16.847  15.084   0.774
 8833W        W81901  35.575  43.793   4.166
 8834W        W81902  26.581  43.085   4.479
 8835W        W81903  42.845  41.991  11.005
 8836W        W81904  27.453   9.265  12.416
 8837W        W81905  29.700  39.865   3.142
 8838W        W81906  35.137  33.629  13.388
 8839W        W81907  31.019  13.052  12.005
 8840W        W81908  17.870   8.209   0.726
 8841W        W81909  13.381  26.520   0.648
 8842W        W81910  10.936   3.506   4.707
 8843W        W81911  42.482  28.020  12.466
 8844W        W81912  35.639   5.656  11.635
 8845W        W81913   3.773   2.296   4.163
 8846W        W81914  12.663  29.286  12.852
 8847W        W81915  22.517  20.156   0.916
 8848W        W81916  19.676  41.432  11.134
 8849W        W81917   0.055  33.551   0.265
 8850W        W81918   6.690   7.382  14.958
 8851W        W81919  30.896  19.577   2.291
 8852W        W81920   5.727  40.483  11.115
 8853W        W81921  41.653  10.310  13.887
 8854W        W81922  37.083  27.100   4.423
 8855W        W81923  44.688  18.577  13.752
 8856W        W81924  40.909  20.781  11.141
 8857W        W81925  39.516  31.633   3.928
 8858W        W81926   6.593  44.527  12.645
 8859W        W81927  30.893  16.728  14.924
 8860W        W81928   3.476  31.086  12.126
 8861W        W81929  44.568  27.086   1.912
 8862W        W81930  25.013  15.144   2.229
 8863W        W81931  11.200  15.290  10.551
 8864W        W81932  17.950  15.559   3.620
 8865W        W81933  31.490  27.552  11.161
 8866W        W81934  15.261  42.066  12.097
 8867W        W81935  30.718  40.918   2.133
 8868W        W81936  30.873  11.692   2.486
 8869W        W81937  31.037  25.427  11.852
 8870W        W81938   9.160  42.385   4.201
 8871W        W81939  29.868  35.192  14.447
 8872W        W81940  43.786  34.356  11.252
 8873W        W81941  43.027   9.268   0.781
 8874W        W81942  32.794  33.107   1.291
 8875W        W81943  19.005  38.239   3.384
 8876W        W81944  16.152   4.910  10.147
 8877W        W81945  33.639  42.198  10.276
 8878W        W81946  22.762  31.993  11.584
 8879W        W81947  43.438   6.942  12.235
 8880W        W81948  33.968  40.545   1.862
 8881W        W81949  16.715  29.567   2.275
 8882W        W81950   2.291  30.674   4.607
 8883W        W81951  17.112  17.445   1.750
 8884W        W81952   8.254   0.934   3.096
 8885W        W81953  40.305   6.886  14.979
 8886W        W81954   0.240  14.886  10.861
 8887W        W81955  43.436  31.642   0.488
 8888W        W81956  22.176   3.906  13.780
 8889W        W81957  43.371  33.174  11.989
 8890W        W81958   5.269  13.237  12.669
 8891W        W81959   6.984  15.010  13.958
 8892W        W81960  44.355  40.147   1.153
 8893W        W81961   0.870   8.069   4.404
 8894W        W81962  18.001  32.408  12.436
 8895W        W81963  26.538   9.721   2.785
 8896W        W81964  28.268  34.220  13.771
 8897W        W81965  15.589  14.706  12.923
 8898W        W81966  34.491  43.036   3.716
 8899W        W81967  36.993  39.597   0.928
 8900W        W81968  15.699  43.086   3.756
 8901W        W81969   7.193  19.721  13.439
 8902W        W81970  43.857  38.046  12.133
 8903W        W81971  30.956  37.841  13.059
 8904W        W81972  36.386  33.059  13.592
 8905W        W81973  16.752  39.569   3.295
 8906W        W81974   7.299  10.883   0.206
 8907W        W81975  20.958  38.975  11.047
 8908W        W81976  36.940  12.828  14.393
 8909W        W81977  35.133  18.655   1.738
 8910W        W81978  38.367  23.274   4.904
 8911W        W81979  35.433  31.361   0.356
 8912W        W81980  22.917  39.329   1.658
 8913W        W81981  38.309  40.150  12.604
 8914W        W81982  34.043  28.106  11.394
 8915W        W81983  42.290   4.850  14.348
 8916W        W81984   5.200  39.755  11.176
 8917W        W81985  33.330  13.192   3.672
 8918W        W81986  27.923  10.401   4.673
 8919W        W81987  27.930  43.951   0.132
 8920W        W81988  12.148  42.002  12.946
 8921W        W81989  30.886  34.868   0.898
 8922W        W81990   4.466   6.422  13.375
 8923W        W81991  22.934   3.641   9.926
 8924W        W81992   7.483  40.027  11.244
 8925W        W81993  42.161  41.223  10.333
 8926W        W81994  26.453   5.588  11.574
 8927W        W81995  23.751   7.134  11.663
 8928W        W81996  21.140   1.438   3.201
 8929W        W81997  15.256   2.086   4.553
 8930W        W81998  38.546  18.379   3.551
 8931W        W81999  31.576   8.390  10.616
 8932W        W82000  27.559  40.296  11.105
 8933W        W82001  42.472   4.306  13.076
 8934W        W82002  22.531   0.516   1.803
 8935W        W82003  39.806  19.755  10.635
 8936W        W82004  24.164  29.674   4.186
 8937W        W82005   0.830  41.064   4.565
 8938W        W82006  17.201   1.373   3.780
 8939W        W82007  13.937   6.622  14.350
 8940W        W82008  32.623  43.374  12.986
 8941W        W82009  10.841   0.899  11.378
 8942W        W82010  14.579  32.523  12.682
 8943W        W82011  43.885  24.781  12.221
 8944W        W82012  12.821   2.111  12.020
 8945W        W82013   6.323  33.928  13.860
 8946W        W82014   8.104  19.334   3.832
 8947W        W82015  19.462  33.431   2.717
 8948W        W82016  12.763   9.104  11.037
 8949W        W82017  31.394  16.072   0.789
 8950W        W82018   9.769  12.199   0.295
 8951W        W82019  35.081   5.440   4.573
 8952W        W82020  39.917  35.044  13.482
 8953W        W82021   9.447  38.842   0.867
 8954W        W82022  10.337   7.754  10.336
 8955W        W82023   4.751  18.618   4.136
 8956W        W82024  31.530  17.055  11.162
 8957W        W82025  42.312   8.477   3.083
 8958W        W82026  30.037   8.033  14.949
 8959W        W82027   6.349   5.759  10.430
 8960W        W82028  39.476  35.173   0.472
 8961W        W82029  14.620  19.863   2.252
 8962W        W82030   6.144  24.181   3.738
 8963W        W82031  25.237  41.333   4.155
 8964W        W82032   3.410  11.357   3.239
 8965W        W82033  22.362  23.055   4.011
 8966W        W82034  39.118  32.463   3.336
 8967W        W82035  25.029  25.401  14.040
 8968W        W82036  24.290   8.811   0.795
 8969W        W82037  23.997  40.351   3.151
 8970W        W82038  35.284   9.658  12.905
 8971W        W82039  34.345  13.866   0.645
 8972W        W82040  34.558  38.478  12.958
 8973W        W82041  12.475   2.728  12.673
 8974W        W82042  23.640   5.723   4.018
 8975W        W82043   9.261  21.072   0.347
 8976W        W82044  25.092  34.510  13.938
 8977W        W82045   0.448  26.989   4.513
 8978W        W82046  31.267  26.131  14.080
 8979W        W82047   3.014  16.212   4.233
 8980W        W82048  30.920  33.387   4.566
 8981W        W82049  31.264  36.373   0.267
 8982W        W82050  12.205  15.736  11.879
 8983W        W82051   7.773  14.082  11.928
 8984W        W82052  17.225  16.626   2.836
 8985W        W82053  10.838  41.825   4.202
 8986W        W82054   7.921  17.134   2.311
 8987W        W82055   6.214  39.924  10.207
 8988W        W82056  31.895  38.355   4.597
 8989W        W82057   5.095  39.261  11.630
 8990W        W82058  37.439  18.054   0.990
 8991W        W82059  23.461   5.236   4.629
 8992W        W82060  43.901   2.746   2.783
 8993W        W82061   4.998  19.243  11.099
 8994W        W82062  36.696  37.098   1.772
 8995W        W82063  28.247  10.039  14.856
 8996W        W82064   0.766  44.799  13.580
 8997W        W82065  38.960  22.993  14.865
 8998W        W82066  10.366  20.204  10.584
 8999W        W82067  26.572   8.620  14.412
 9000W        W82068   3.249   6.973  12.032
 9001W        W82069  14.095   4.445  12.885
 9002W        W82070  15.368  37.074  13.909
 9003W        W82071  12.381   4.824   1.288
 9004W        W82072  28.493   6.724   0.810
 9005W        W82073  20.307  23.299   2.866
 9006W        W82074  20.136  36.647   1.280
 9007W        W82075   8.717  20.733   1.277
 9008W        W82076  26.202  32.419  11.506
 9009W        W82077  29.154   4.382   2.966
 9010W        W82078  12.197  36.217  12.062
 9011W        W82079  29.592  28.106   0.841
 9012W        W82080  34.466  36.513   1.689
 9013W        W82081  35.054  17.918  11.158
 9014W        W82082  14.384  36.516   3.758
 9015W        W82083  27.918  25.058   2.691
 9016W        W82084  39.016  18.121  14.823
 9017W        W82085  26.685  25.192   0.908
 9018W        W82086  21.127  12.419  14.014
 9019W        W82087  34.193  31.707   3.768
 9020W        W82088   3.139  16.158  11.083
 9021W        W82089  40.865  28.476   2.264
 9022W        W82090  23.194  24.214  10.714
 9023W        W82091  23.445  16.984   1.223
 9024W        W82092  30.470  28.977   1.675
 9025W        W82093  41.801  26.176   1.200
 9026W        W82094  34.547   1.720   4.274
 9027W        W82095   0.702   9.204  12.576
 9028W        W82096  41.315  39.444  12.447
 9029W        W82097  16.490  41.016  14.350
 9030W        W82098  10.836  27.378   4.734
 9031W        W82099  16.366   5.179   3.894
 9032W        W82100  25.983   4.291   4.151
 9033W        W82101  25.424  44.861  13.064
 9034W        W82102   8.213  41.409   1.054
 9035W        W82103  28.035  34.609  14.043
 9036W        W82104  24.521  18.973   3.653
 9037W        W82105  10.462  29.147   0.112
 9038W        W82106  21.981   5.644  11.069
 9039W        W82107  38.348   6.221   1.015
 9040W        W82108  43.955  43.986  13.308
 9041W        W82109   3.702  19.602   3.653
 9042W        W82110  36.532  38.237   3.471
 9043W        W82111  38.993  30.329  13.248
 9044W        W82112  18.702  22.702  12.350
 9045W        W82113   7.356  41.623  10.182
 9046W        W82114  33.594   4.218   2.392
 9047W        W82115  42.866  22.637  14.795
 9048W        W82116   9.905  43.521  10.566
 9049W        W82117  14.160  12.930   4.137
 9050W        W82118  39.149  44.891  11.956
 9051W        W82119  15.519   7.196   0.313
 9052W        W82120   1.704  39.474  12.779
 9053W        W82121  30.054  36.884   0.243
 9054W        W82122  40.906  21.014   3.220
 9055W        W82123  44.710  21.676  14.330
 9056W        W82124  37.060  23.046  12.386
 9057W        W82125   2.457  13.305   2.765
 9058W        W82126  31.627   5.896   0.854
 9059W        W82127  27.176  40.008   2.689
 9060W        W82128  25.022  15.703   1.905
 9061W        W82129  23.718  38.600  11.385
 9062W        W82130   4.164  19.743  11.175
 9063W        W82131  19.814  17.552   3.264
 9064W        W82132  37.301  22.957  14.414
 9065W        W82133  22.706  27.992   2.191
 9066W        W82134  13.248  40.177   4.528
 9067W        W82135  43.045  31.452   1.287
 9068W        W82136  36.470   4.009  12.161
 9069W        W82137  34.099  35.280  12.760
 9070W        W82138  30.452   8.669   0.968
 9071W        W82139  39.794  21.939   4.078
 9072W        W82140  37.448  13.586   2.379
 9073W        W82141  41.458  15.668  13.973
 9074W        W82142  41.338  14.743  10.642
 9075W        W82143  37.905  37.137  12.010
 9076W        W82144  12.338  36.340   0.098
 9077W        W82145   9.634   3.470   3.127
 9078W        W82146   2.922  31.199   0.940
 9079W        W82147   5.139   1.808  10.438
 9080W        W82148  29.118  31.536   4.321
 9081W        W82149   4.334  35.600  11.707
 9082W        W82150  25.522  11.402  13.851
 9083W        W82151  20.500   8.203   0.781
 9084W        W82152  28.121  28.223   3.076
 9085W        W82153  31.410  23.466   3.800
 9086W        W82154  36.693  44.940  12.414
 9087W        W82155  16.386  35.917   4.119
 9088W        W82156  36.058  41.090   3.278
 9089W        W82157  35.719  14.686  12.965
 9090W        W82158   7.086  25.145  12.881
 9091W        W82159  29.913  33.656   3.399
 9092W        W82160  29.975  44.879  12.644
 9093W        W82161  42.357  42.940   1.006
 9094W        W82162  13.866   8.341   2.278
 9095W        W82163  30.051  36.188  14.417
 9096W        W82164  16.135   9.422   1.793
 9097W        W82165  26.127  27.475   3.134
 9098W        W82166   5.305  29.723  12.100
 9099W        W82167  26.444  23.982  13.840
 9100W        W82168   8.204  20.022   1.034
 9101W        W82169  30.046  43.431   3.284
 9102W        W82170  41.031  19.700   2.780
 9103W        W82171  29.221  20.640  12.901
 9104W        W82172  12.328  20.271   4.123
 9105W        W82173   3.204  28.605   4.814
 9106W        W82174  20.734   2.602  12.900
 9107W        W82175  16.058   3.912  10.979
 9108W        W82176  26.078  29.904  12.550
 9109W        W82177  10.766  24.199  12.812
 9110W        W82178  41.864   4.563  11.862
 9111W        W82179   2.165  23.934   0.223
 9112W        W82180  21.692  34.002   0.765
 9113W        W82181  22.318   0.049   1.859
 9114W        W82182  24.734  42.341  11.868
 9115W        W82183   2.456  28.881   3.754
 9116W        W82184  42.276  43.909   4.458
 9117W        W82185  34.137   6.730   4.287
 9118W        W82186   7.275   1.411  10.782
 9119W        W82187  25.578  21.322  11.596
 9120W        W82188  41.821  10.846   1.223
 9121W        W82189  21.512  33.838   1.734
 9122W        W82190  44.463  20.922  13.027
 9123W        W82191  38.809  26.509   3.812
 9124W        W82192  31.037  28.164  14.780
 9125W        W82193  33.398  44.050  13.869
 9126W        W82194  30.599   7.070  12.591
 9127W        W82195  39.102   5.392  10.648
 9128W        W82196  26.771  23.773   2.001
 9129W        W82197  13.690  40.618   1.927
 9130W        W82198  22.629  25.220  13.781
 9131W        W82199  18.603  44.491   4.471
 9132W        W82200   2.334  27.398   3.631
 9133W        W82201  29.648  18.331  10.430
 9134W        W82202  11.132  44.846  12.020
 9135W        W82203  22.703  26.435   1.735
 9136W        W82204  20.720  43.307   2.224
 9137W        W82205  10.500  24.503   1.429
 9138W        W82206  29.086  38.940   1.179
 9139W        W82207  24.968  15.774   0.119
 9140W        W82208  12.881  34.962  14.268
 9141W        W82209  41.705  29.826  12.915
 9142W        W82210  13.764  40.484   4.224
 9143W        W82211  33.065  43.306  14.253
 9144W        W82212  40.504  34.386   0.828
 9145W        W82213  36.553  37.074   0.794
 9146W        W82214  43.110   1.432  13.487
 9147W        W82215  30.164  15.082   0.376
 9148W        W82216  13.400  28.483   0.704
 9149W        W82217   5.638  24.416   0.831
 9150W        W82218  41.929  43.377  12.590
 9151W        W82219   9.744   5.775  13.313
 9152W        W82220  24.161   2.716   0.684
 9153W        W82221  26.717  29.114   2.287
 9154W        W82222   5.764   0.067  12.469
 9155W        W82223  12.595  15.201   2.891
 9156W        W82224  33.372  34.180  11.379
 9157W        W82225   2.714   4.412   4.193
 9158W        W82226   3.402   7.485   3.256
 9159W        W82227  14.254  29.749  14.945
 9160W        W82228  26.387   3.372  11.581
 9161W        W82229  39.998  29.664   2.287
 9162W        W82230   5.228  14.965   4.143
 9163W        W82231  10.348  43.411  11.639
 9164W        W82232  15.488  33.710  13.474
 9165W        W82233  35.861  29.661   4.024
 9166W        W82234  18.933  21.224  11.061
 9167W        W82235   5.809  37.206  10.379
 9168W        W82236  18.129  13.375  13.477
 9169W        W82237  37.300  25.374   0.960
 9170W        W82238   6.915   6.749  13.988
 9171W        W82239  21.482  38.482  14.554
 9172W        W82240  42.468  12.675   3.711
 9173W        W82241  14.096  11.333  12.579
 9174W        W82242   8.211  28.963  12.455
 9175W        W82243  18.719  18.851   4.177
 9176W        W82244  40.018   6.190  12.098
 9177W        W82245  37.562  43.786   2.222
 9178W        W82246   6.484  40.278   4.648
 9179W        W82247  16.735  10.117  13.100
 9180W        W82248  33.767  31.223   2.224
 9181W        W82249  20.132   3.793  12.135
 9182W        W82250  20.537  41.861  14.372
 9183W        W82251   5.901  27.456   3.416
 9184W        W82252  18.454  31.517  11.295
 9185W        W82253  12.301   6.312   1.222
 9186W        W82254  27.951  40.990   2.872
 9187W        W82255   5.677  28.396   1.894
 9188W        W82256  27.954  13.716  12.443
 9189W        W82257  20.121  41.104   0.336
 9190W        W82258  36.065  30.602  14.199
 9191W        W82259  31.527  22.302  13.816
 9192W        W82260  30.937  42.518   3.862
 9193W        W82261   7.012  28.546  13.990
 9194W        W82262  14.959  17.545   0.094
 9195W        W82263   4.919  14.663  12.887
 9196W        W82264  42.391   0.758  13.488
 9197W        W82265  33.479   8.500  11.452
 9198W        W82266  21.353  17.788   3.198
 9199W        W82267  28.391  20.193  14.959
 9200W        W82268  23.746   2.167  12.493
 9201W        W82269  28.381  29.012  10.740
 9202W        W82270   2.794  12.091  14.140
 9203W        W82271  16.187   5.368   2.922
 9204W        W82272  37.463  15.167  12.869
 9205W        W82273  32.120  20.249   2.708
 9206W        W82274   0.814   3.859   3.335
 9207W        W82275   2.258  18.216   3.446
 9208W        W82276  31.057  26.907  14.465
 9209W        W82277  26.722   0.263  12.060
 9210W        W82278  33.536  20.646  12.308
 9211W        W82279  18.805  42.517   1.721
 9212W        W82280  44.369  35.583   4.124
 9213W        W82281  31.511  41.470   0.820
 9214W        W82282  13.800  33.238  14.542
 9215W        W82283  30.451  11.603  11.541
 9216W        W82284   6.056  35.072   1.518
 9217W        W82285  41.392  14.703   3.089
 9218W        W82286  20.253  39.840  10.689
 9219W        W82287  15.022  21.617   0.986
 9220W        W82288  20.254   5.045  11.107
 9221W        W82289  12.635   4.251   2.781
 9222W        W82290  42.915  34.938   4.537
 9223W        W82291  44.485  16.443  13.984
 9224W        W82292   0.802  41.894  10.721
 9225W        W82293   7.186   3.388  12.312
 9226W        W82294   4.715  44.055   4.708
 9227W        W82295   6.226  10.127  13.280
 9228W        W82296  33.841   9.393  13.898
 9229W        W82297   2.487   4.386   3.699
 9230W        W82298  38.607  12.821   3.384
 9231W        W82299   0.674   9.265   2.302
 9232W        W82300  29.795   7.411   0.695
 9233W        W82301  37.631  26.707  11.465
 9234W        W82302   6.990   2.832   4.091
 9235W        W82303  17.043   0.207  11.472
 9236W        W82304  12.982  32.052   4.273
 9237W        W82305   0.006  30.554  14.308
 9238W        W82306   9.983  43.611   4.116
 9239W        W82307  26.483  40.503  14.835
 9240W        W82308  33.382  28.547  11.944
 9241W        W82309  19.055   4.108  12.646
 9242W        W82310  37.746  37.611  11.925
 9243W        W82311  26.790  12.780  10.933
 9244W        W82312  44.022  28.822   0.105
 9245W        W82313  13.709   2.926   3.678
 9246W        W82314  41.834  10.737  12.602
 9247W        W82315  27.109   8.935  13.002
 9248W        W82316  20.076  18.774  11.185
 9249W        W82317   0.604  13.931   0.344
 9250W        W82318   1.500  41.338   2.190
 9251W        W82319   6.975   2.586  13.159
 9252W        W82320  13.060  26.077   1.299
 9253W        W82321  29.171  43.332  13.858
 9254W        W82322  32.021   0.453   4.483
 9255W        W82323  13.569  37.964   2.125
 9256W        W82324  28.462   4.031  11.102
 9257W        W82325  20.198  18.590  12.611
 9258W        W82326  28.910  35.636  12.589
 9259W        W82327  14.391  41.128  12.535
 9260W        W82328  18.366  29.157  12.393
 9261W        W82329   8.544  26.795  12.904
 9262W        W82330   6.887  31.382  13.501
 9263W        W82331  28.899  12.864   1.732
 9264W        W82332  13.886  17.873  13.054
 9265W        W82333  10.809  28.221   3.243
 9266W        W82334  36.514   6.804  14.982
 9267W        W82335  39.050  13.189  13.169
 9268W        W82336  22.214  36.807  12.488
 9269W        W82337  17.095   1.368  13.139
 9270W        W82338   9.891  15.097  12.466
 9271W        W82339  22.572  10.704   2.414
 9272W        W82340  26.953  39.551  12.988
 9273W        W82341  43.866  34.037  12.822
 9274W        W82342  11.051   7.920  12.162
 9275W        W82343  27.894   0.006   2.720
 9276W        W82344  43.962   2.004   0.006
 9277W        W82345  37.324  30.588   2.007
 9278W        W82346   2.806  25.227  11.318
 9279W        W82347  19.721  43.936   4.787
 9280W        W82348   2.835   9.889   4.171
 9281W        W82349  40.348  26.654   1.361
 9282W        W82350  16.538  24.927   2.342
 9283W        W82351  15.229  21.736  14.511
 9284W        W82352  23.756  35.115   2.368
 9285W        W82353  21.734   7.257  14.694
 9286W        W82354  33.355  17.546   2.166
 9287W        W82355  17.953  11.355  13.809
 9288W        W82356  26.583   2.684  10.920
 9289W        W82357  28.389  26.658   0.964
 9290W        W82358   0.007  41.882  14.215
 9291W        W82359  21.063  11.349   0.551
 9292W        W82360  32.060  23.327  14.219
 9293W        W82361  14.416  16.404  11.220
 9294W        W82362   5.191  16.365   4.536
 9295W        W82363  14.726  27.237   2.662
 9296W        W82364  44.771  28.794   4.083
 9297W        W82365  12.872  41.533   3.083
 9298W        W82366   5.887  16.259   4.106
 9299W        W82367  29.897  19.466  11.007
 9300W        W82368   7.779  15.860  11.330
 9301W        W82369  38.008  13.638  12.113
 9302W        W82370  17.431  22.548  14.516
 9303W        W82371  42.436  30.308   2.087
 9304W        W82372  36.940   9.152  14.864
 9305W        W82373  19.294   1.048   1.333
 9306W        W82374   8.565  26.905   4.113
 9307W        W82375   5.829  16.330   0.472
 9308W        W82376   3.757  37.850   2.271
 9309W        W82377  10.368  42.474  14.350
 9310W        W82378   3.992  42.738  13.785
 9311W        W82379  36.867  13.283  11.081
 9312W        W82380  40.791  44.038   0.598
 9313W        W82381   5.358  42.779  13.670
 9314W        W82382  44.440   2.792   1.178
 9315W        W82383  20.231   1.257  11.705
 9316W        W82384  39.649  36.027  14.053
 9317W        W82385  27.366  32.976  12.757
 9318W        W82386   7.634  42.052   0.751
 9319W        W82387  41.956  42.987  14.739
 9320W        W82388  13.791  44.763   3.272
 9321W        W82389   3.750  42.035   4.837
 9322W        W82390   3.389   6.766   0.737
 9323W        W82391  12.174   4.774   4.655
 9324W        W82392   5.177  16.349  11.915
 9325W        W82393  28.443  27.910  11.944
 9326W        W82394  18.227   0.562  12.005
 9327W        W82395   0.402  19.826   4.646
 9328W        W82396  41.096  37.794  10.759
 9329W        W82397  10.284  11.126  12.533
 9330W        W82398   8.748   0.783   1.887
 9331W        W82399   5.878  17.101   3.436
 9332W        W82400  35.510   3.934   0.106
 9333W        W82401  33.848   6.353  12.480
 9334W        W82402  22.263   0.919  11.061
 9335W        W82403   2.422  32.918   0.478
 9336W        W82404  38.147  24.695   2.077
 9337W        W82405  15.160  37.560   1.971
 9338W        W82406  44.316  15.720  10.437
 9339W        W82407  38.584  23.466  10.646
 9340W        W82408   0.854  37.448  12.066
 9341W        W82409  12.515  37.179  14.835
 9342W        W82410  13.624  41.923   4.655
 9343W        W82411   9.486   1.975   4.561
 9344W        W82412   2.443   7.102  13.795
 9345W        W82413  27.866  22.171   1.397
 9346W        W82414  33.123  33.996   2.752
 9347W        W82415  17.339   0.696  13.751
 9348W        W82416  36.382   7.075   1.880
 9349W        W82417  28.354  10.642  11.463
 9350W        W82418  18.642   5.027  14.270
 9351W        W82419  23.494  18.503   2.807
 9352W        W82420  19.619   1.167  14.002
 9353W        W82421   2.725   2.867   1.351
 9354W        W82422  44.182  33.539  12.178
 9355W        W82423  40.877   4.812  11.669
 9356W        W82424   7.668  36.100  13.440
 9357W        W82425  39.756  33.524  11.495
 9358W        W82426   3.860   6.753  14.423
 9359W        W82427   7.078   0.751   4.523
 9360W        W82428  13.021  25.900   2.217
 9361W        W82429   5.104  28.613  14.278
 9362W        W82430  14.815  13.614   1.005
 9363W        W82431   3.151   7.250   4.733
 9364W        W82432   4.396   6.985  11.145
 9365W        W82433  30.500  38.983   4.495
 9366W        W82434  11.775  36.915  13.121
 9367W        W82435   4.224  15.556   0.520
 9368W        W82436  35.992  12.061   3.219
 9369W        W82437  35.173  30.613   3.261
 9370W        W82438  17.738  20.098  14.333
 9371W        W82439  26.529  21.736  10.712
 9372W        W82440  16.547  32.978   0.027
 9373W        W82441  21.739   9.114   2.162
 9374W        W82442  21.054  32.711  14.829
 9375W        W82443  23.607   6.394  14.441
 9376W        W82444   2.194  39.384  11.955
 9377W        W82445  27.918  40.447  13.594
 9378W        W82446  29.682  10.682  11.069
 9379W        W82447  43.798  17.527  12.037
 9380W        W82448   3.748   3.194  12.433
 9381W        W82449  21.635  14.652  12.880
 9382W        W82450  16.340  26.653  14.994
 9383W        W82451   0.899  19.062  14.377
 9384W        W82452  37.316  20.264   3.220
 9385W        W82453  35.336  28.363   4.599
 9386W        W82454  40.750  23.958   0.875
 9387W        W82455   4.387  37.745   4.217
 9388W        W82456   0.230  17.722  11.285
 9389W        W82457  19.971  40.989  13.494
 9390W        W82458  37.266  40.359   0.007
 9391W        W82459  29.068   8.328   1.970
 9392W        W82460   6.801  31.563   4.485
 9393W        W82461  32.024   1.089   0.505
 9394W        W82462  26.590  26.036   4.558
 9395W        W82463  19.030  20.679   0.839
 9396W        W82464  14.107  16.693   0.224
 9397W        W82465  40.076  17.541  14.792
 9398W        W82466  15.773  32.197  13.333
 9399W        W82467  28.453   8.566   1.464
 9400W        W82468  36.960   6.351  13.266
 9401W        W82469  13.611  39.781   0.860
 9402W        W82470  15.554  26.698  13.498
 9403W        W82471  20.796  40.998   3.838
 9404W        W82472  40.659  13.567   5.010
 9405W        W82473  33.134  40.415   0.450
 9406W        W82474  17.126  39.021   2.711
 9407W        W82475  40.767  36.083   3.051
 9408W        W82476  15.074  13.197  14.695
 9409W        W82477  11.483  18.017   2.206
 9410W        W82478  33.731  33.652  14.446
 9411W        W82479  10.939  30.935  13.406
 9412W        W82480  13.869  19.101   2.342
 9413W        W82481  22.884  26.443   3.274
 9414W        W82482   9.807  39.460   4.583
 9415W        W82483  30.182   8.703  10.667
 9416W        W82484   0.248  34.119   3.148
 9417W        W82485   4.917  11.557   1.402
 9418W        W82486  31.134   1.334   4.704
 9419W        W82487  27.019  22.107   3.701
 9420W        W82488  17.777  22.597   1.013
 9421W        W82489  26.445   6.252  11.203
 9422W        W82490  38.355  28.313   0.741
 9423W        W82491  24.787   6.460   3.316
 9424W        W82492  29.631  27.543   1.670
 9425W        W82493  21.640  41.957   2.038
 9426W        W82494  38.882  20.594   0.284
 9427W        W82495  29.935  27.603  13.335
 9428W        W82496  19.749  18.758   0.400
 9429W        W82497  25.236  33.471  14.619
 9430W        W82498   7.788  35.545   3.655
 9431W        W82499  26.468  30.914   4.989
 9432W        W82500  40.278  26.466   1.858
 9433W        W82501  40.391  40.360   3.214
 9434W        W82502  36.992  10.427  10.370
 9435W        W82503  44.512   4.317   3.303
 9436W        W82504  32.561   1.633  10.715
 9437W        W82505  19.525   3.508  11.960
 9438W        W82506   4.395  18.151   3.623
 9439W        W82507  12.720  21.191   0.322
 9440W        W82508   7.652  11.291   3.312
 9441W        W82509  34.510  28.418   4.045
 9442W        W82510   3.871   3.069   4.623
 9443W        W82511   3.041  44.811  10.367
 9444W        W82512   0.467   2.015   2.710
 9445W        W82513  40.254  24.835  12.143
 9446W        W82514  38.804   7.798   1.361
 9447W        W82515  36.452  38.146   1.647
 9448W        W82516  31.097  33.538   1.508
 9449W        W82517  37.515  41.893  12.562
 9450W        W82518  31.068  31.959  11.536
 9451W        W82519  12.597  10.202  13.311
 9452W        W82520  23.821  36.423   3.299
 9453W        W82521   7.669  39.596   0.903
 9454W        W82522  15.586  40.036   2.848
 9455W        W82523  23.405  32.070   0.879
 9456W        W82524  17.139   4.672   0.831
 9457W        W82525  21.686  20.715  11.470
 9458W        W82526   7.673  18.619  13.342
 9459W        W82527  39.839   0.864   0.638
 9460W        W82528   6.639  10.856  11.523
 9461W        W82529  17.702  11.639  13.441
 9462W        W82530  15.088  21.175  11.551
 9463W        W82531  23.717  38.957   1.427
 9464W        W82532  10.753  14.309   1.821
 9465W        W82533  27.888  12.387  14.846
 9466W        W82534  24.586  10.851   1.928
 9467W        W82535  39.367   2.970  14.036
 9468W        W82536  11.812  16.878  10.655
 9469W        W82537  37.481  22.625   2.768
 9470W        W82538   6.847  35.229  12.442
 9471W        W82539  16.637  17.997  12.474
 9472W        W82540  25.131   5.707  10.546
 9473W        W82541  23.743  13.305   1.306
 9474W        W82542  11.857  26.688  10.703
 9475W        W82543   6.803  30.931  14.361
 9476W        W82544  38.635  16.454  12.412
 9477W        W82545   0.160  40.715   2.765
 9478W        W82546   2.901  39.903  13.845
 9479W        W82547   9.776  27.016  11.861
 9480W        W82548   8.491   6.843   0.517
 9481W        W82549  39.819  39.409   3.645
 9482W        W82550   9.250  28.851   4.140
 9483W        W82551  12.637  34.243  13.451
 9484W        W82552  14.061  14.497  13.758
 9485W        W82553   2.251  43.420  10.857
 9486W        W82554  39.562   5.670   1.365
 9487W        W82555  40.345   7.666  11.539
 9488W        W82556  21.530  37.942   3.549
 9489W        W82557  33.430   1.081  10.779
 9490W        W82558  32.871   2.485   0.399
 9491W        W82559   8.928  13.324  12.488
 9492W        W82560  33.047  24.012  12.203
 9493W        W82561  14.576  30.552  11.140
 9494W        W82562  19.053  23.024  12.127
 9495W        W82563  27.168  28.168  14.233
 9496W        W82564  43.210  33.577  14.054
 9497W        W82565  39.008  23.725   2.775
 9498W        W82566   5.970   7.692   3.781
 9499W        W82567  17.148  38.152  12.456
 9500W        W82568   5.665  24.053   0.436
 9501W        W82569  39.764   9.712   1.300
 9502W        W82570  36.457  37.654   4.254
 9503W        W82571  39.917  30.479   4.122
 9504W        W82572  15.530  23.712  10.844
 9505W        W82573  26.173  41.030  14.739
 9506W        W82574  40.558   7.655   1.027
 9507W        W82575  35.582   8.784  11.152
 9508W        W82576  42.497  31.122  12.097
 9509W        W82577  13.534  24.976  12.934
 9510W        W82578   9.224   0.735   4.335
 9511W        W82579  15.289  37.494  13.560
 9512W        W82580  14.241  33.987   1.383
 9513W        W82581  21.492  35.778   1.806
 9514W        W82582   7.256  10.295  13.338
 9515W        W82583   2.122  22.692   0.899
 9516W        W82584  41.762  32.513  13.912
 9517W        W82585  33.647   9.242  12.549
 9518W        W82586  11.341   9.311   2.351
 9519W        W82587  31.562  42.803   1.215
 9520W        W82588  44.530   4.960   2.817
 9521W        W82589   1.161  13.152  14.422
 9522W        W82590  36.617  37.916   1.213
 9523W        W82591  16.583  39.562  14.830
 9524W        W82592  10.770  44.516   2.403
 9525W        W82593  35.013   5.926   1.806
 9526W        W82594  17.663  37.541  14.954
 9527W        W82595   5.442  18.358   4.849
 9528W        W82596  30.452  19.773  11.715
 9529W        W82597  12.251  44.199  14.851
 9530W        W82598   8.148   6.395  13.538
 9531W        W82599  17.854  40.317  12.448
 9532W        W82600  33.602  41.961   0.899
 9533W        W82601   5.235  40.991  13.169
 9534W        W82602  14.275  16.512   1.229
 9535W        W82603  32.251   5.734  12.035
 9536W        W82604  29.412  20.828   0.737
 9537W        W82605  44.477  44.309   1.718
 9538W        W82606  36.838  18.313  14.530
 9539W        W82607  22.925  21.209  14.832
 9540W        W82608  11.585  10.575   4.856
 9541W        W82609   4.084   1.565  11.683
 9542W        W82610  22.154  37.693  13.701
 9543W        W82611  39.982  30.489  11.649
 9544W        W82612   8.663  13.613   0.547
 9545W        W82613  43.312  44.160   0.536
 9546W        W82614  20.519  33.214  14.382
 9547W        W82615  19.211   3.630  12.801
 9548W        W82616  37.123  18.169   4.592
 9549W        W82617   9.414  18.605   1.716
 9550W        W82618  24.226  25.412   2.113
 9551W        W82619   7.388  26.390  13.484
 9552W        W82620  31.899  21.712   4.511
 9553W        W82621  25.276   7.479  13.546
 9554W        W82622  40.845  35.353  14.411
 9555W        W82623  16.053  17.138   1.068
 9556W        W82624  18.249   6.488  14.977
 9557W        W82625  10.692  42.693  10.803
 9558W        W82626  37.720  23.873   0.922
 9559W        W82627  35.505  34.290  12.949
 9560W        W82628  42.762   2.151   3.589
 9561W        W82629  25.495  29.404   2.842
 9562W        W82630  30.492  14.045   3.082
 9563W        W82631  12.363  19.079   5.340
 9564W        W82632  30.081  30.424  10.970
 9565W        W82633   7.236  40.851  11.707
 9566W        W82634  26.074  37.813  11.730
 9567W        W82635  36.306  26.987   3.615
 9568W        W82636   8.954  24.958  11.010
 9569W        W82637   6.111   7.311  11.428
 9570W        W82638   5.582  11.375  12.492
 9571W        W82639  43.040   2.390  13.376
 9572W        W82640   9.886   2.405  12.927
 9573W        W82641   9.303   8.124   1.772
 9574W        W82642  23.037  34.172  12.022
 9575W        W82643   5.121   0.133   1.364
 9576W        W82644  16.130  28.329   0.448
 9577W        W82645  33.459  15.045   1.455
 9578W        W82646  23.045  30.642   0.475
 9579W        W82647  19.036  34.012   2.921
 9580W        W82648  34.784  25.969   3.867
 9581W        W82649  37.667  30.892  14.013
 9582W        W82650  42.313   1.995  13.016
 9583W        W82651   6.619  26.967  11.500
 9584W        W82652  26.706  30.717  13.036
 9585W        W82653  32.183  36.915   2.901
 9586W        W82654  36.383  10.336  13.615
 9587W        W82655  20.055  32.137  13.387
 9588W        W82656   4.409  28.935   4.551
 9589W        W82657  21.231  28.478  11.153
 9590W        W82658  40.207  27.985  12.529
 9591W        W82659  33.165  37.523   1.001
 9592W        W82660  20.174  31.955   2.462
 9593W        W82661  38.590  43.754  13.122
 9594W        W82662  44.890  20.870   2.267
 9595W        W82663  18.609  26.144  13.578
 9596W        W82664  26.642  42.744  13.108
 9597W        W82665  42.028  36.423  11.706
 9598W        W82666   1.435   5.962   0.490
 9599W        W82667   0.498   2.979   1.791
 9600W        W82668  18.446   9.189   3.671
 9601W        W82669  11.132  36.506  12.977
 9602W        W82670  38.875   4.106  14.396
 9603W        W82671  10.512  36.300  11.245
 9604W        W82672  18.136  15.374   2.328
 9605W        W82673  39.979  27.209   3.992
 9606W        W82674   7.029  40.941  10.556
 9607W        W82675  10.625   2.300   0.996
 9608W        W82676  10.674  30.181   4.443
 9609W        W82677  40.680  28.104  11.067
 9610W        W82678  27.483  30.908  11.110
 9611W        W82679  37.136   5.858   1.114
 9612W        W82680  24.021  39.896   0.669
 9613W        W82681  39.033  27.198   9.686
 9614W        W82682  41.501  11.927   0.115
 9615W        W82683  29.411   3.986  14.739
 9616W        W82684  36.477  42.797   9.806
 9617W        W82685  17.720   8.337  14.342
 9618W        W82686  24.825  21.803   3.138
 9619W        W82687   4.792  20.964   2.697
 9620W        W82688  32.659  21.074  10.446
 9621W        W82689  14.849  28.940   1.282
 9622W        W82690  32.511   2.121   0.994
 9623W        W82691  29.245  23.789   0.809
 9624W        W82692  31.905   3.479  12.080
 9625W        W82693  28.211  37.040   0.295
 9626W        W82694   6.323   3.976  11.671
 9627W        W82695   5.814   0.898   1.553
 9628W        W82696   5.210  20.518  13.912
 9629W        W82697   4.963   2.138   2.240
 9630W        W82698   4.722  40.826  14.354
 9631W        W82699  13.862  32.313  12.942
 9632W        W82700   6.161  11.220  12.117
 9633W        W82701  38.539  38.457   0.515
 9634W        W82702  41.792  11.555  13.539
 9635W        W82703  31.488  30.912  14.102
 9636W        W82704   2.285  23.495  13.577
 9637W        W82705   8.309  39.520   0.226
 9638W        W82706  15.658  20.655  13.998
 9639W        W82707  21.154  41.345   0.021
 9640W        W82708   9.278  15.764   4.105
 9641W        W82709  42.863   0.761  12.429
 9642W        W82710   1.520  41.537   0.286
 9643W        W82711  31.539  32.656   2.152
 9644W        W82712  20.557   5.674  11.369
 9645W        W82713  16.231  24.481  13.091
 9646W        W82714  13.000  18.606  13.960
 9647W        W82715   4.575  33.942   3.810
 9648W        W82716  23.225  23.674  13.801
 9649W        W82717  43.943  16.316  10.622
 9650W        W82718  36.172  44.756  14.015
 9651W        W82719   3.726  23.602   3.929
 9652W        W82720  20.777  43.349  10.322
 9653W        W82721   9.324  17.064  13.426
 9654W        W82722  14.764  33.661  11.213
 9655W        W82723  19.504   2.431  14.410
 9656W        W82724  16.315  29.584  12.339
 9657W        W82725  37.728  13.549  13.555
 9658W        W82726  10.922  23.745   4.601
 9659W        W82727  36.061  26.081   2.224
 9660W        W82728  11.049  10.689   2.544
 9661W        W82729  31.903   5.232  11.085
 9662W        W82730   3.792  28.635   3.604
 9663W        W82731   9.388  12.343   0.966
 9664W        W82732  15.172  42.446   4.330
 9665W        W82733  11.654   7.241   4.598
 9666W        W82734  44.109   1.278   2.818
 9667W        W82735  40.559  12.668   4.568
 9668W        W82736   6.957   5.119  13.934
 9669W        W82737   2.990  28.363   3.296
 9670W        W82738  41.340   9.426  13.907
 9671W        W82739  18.592  18.143  10.633
 9672W        W82740  16.041  20.611  14.466
 9673W        W82741  29.442  22.997  13.423
 9674W        W82742  44.676  33.525  13.046
 9675W        W82743  31.129  12.726  12.905
 9676W        W82744   2.636  21.569   2.948
 9677W        W82745  17.981   5.709  11.591
 9678W        W82746  44.762  39.261   3.556
 9679W        W82747  30.968   3.514  12.607
 9680W        W82748  30.123  19.206  10.635
 9681W        W82749  36.568   3.777  12.645
 9682W        W82750   2.872   3.229  14.769
 9683W        W82751  25.545  27.400   3.284
 9684W        W82752  11.283  16.771  14.956
 9685W        W82753  10.934   3.909  14.356
 9686W        W82754  33.156  13.364   4.898
 9687W        W82755  11.324   0.008   2.598
 9688W        W82756  28.372  10.118  10.559
 9689W        W82757  12.233  39.099   2.791
 9690W        W82758   5.760  16.195   2.674
 9691W        W82759  41.083  10.604  13.093
 9692W        W82760  35.379  20.960  12.421
 9693W        W82761   0.492  37.391  13.956
 9694W        W82762  37.939  22.408  14.042
 9695W        W82763   2.411  16.201  13.819
 9696W        W82764   1.397   8.146   2.361
 9697W        W82765  35.928   5.952  11.174
 9698W        W82766  34.576   2.945  11.550
 9699W        W82767   6.411   8.990   4.053
 9700W        W82768  20.233  20.206  10.682
 9701W        W82769  19.797  32.934   1.820
 9702W        W82770   0.572  27.332  14.055
 9703W        W82771  23.045  41.581   1.938
 9704W        W82772  33.325   0.308  10.530
 9705W        W82773  32.244  42.455   4.245
 9706W        W82774   0.406  29.959  10.590
 9707W        W82775  36.312  42.767  12.454
 9708W        W82776  20.657  32.373  11.372
 9709W        W82777  41.488  12.148  13.850
 9710W        W82778  39.130  40.716   1.475
 9711W        W82779  26.726   6.273   4.289
 9712W        W82780   5.953   3.836   4.692
 9713W        W82781   8.372  18.125   0.748
 9714W        W82782  32.090  36.828  13.397
 9715W        W82783  35.415   8.567  14.301
 9716W        W82784  30.315  41.900  11.085
 9717W        W82785   4.200   8.092   2.100
 9718W        W82786  38.272  38.440  11.008
 9719W        W82787  25.446  12.369  13.885
 9720W        W82788  32.940  40.505  13.481
 9721W        W82789  28.741  25.681   3.667
 9722W        W82790   6.429  44.958  12.899
 9723W        W82791  16.912  17.759  14.162
 9724W        W82792  16.653   1.227   3.564
 9725W        W82793  36.371  40.104   1.732
 9726W        W82794  21.451  34.684   2.205
 9727W        W82795  43.362  38.234  10.800
 9728W        W82796  35.820   7.361  14.575
 9729W        W82797  29.981  41.568   4.694
 9730W        W82798   1.986  11.256  11.652
 9731W        W82799  40.192   0.941   5.085
 9732W        W82800  36.296   4.781  11.571
 9733W        W82801  35.546  18.340  13.929
 9734W        W82802  30.246  36.600   4.693
 9735W        W82803  18.569  44.813  12.970
 9736W        W82804  35.361  30.845   0.423
 9737W        W82805  32.741  20.682   4.653
 9738W        W82806  33.292   0.058   3.314
 9739W        W82807  32.957  27.248   4.099
 9740W        W82808  40.391  19.452   9.965
 9741W        W82809  32.161  16.834  10.279
 9742W        W82810  35.451   9.594   4.282
 9743W        W82811   7.155  24.971  11.109
 9744W        W82812  17.499   4.395  13.389
 9745W        W82813  15.498  17.952   2.370
 9746W        W82814  41.475  11.153  14.028
 9747W        W82815   8.220  13.094  12.980
 9748W        W82816   7.419  21.235  12.488
 9749W        W82817  42.253  16.449  12.574
 9750W        W82818  22.827   2.731   1.153
 9751W        W82819   0.316  18.218   3.830
 9752W        W82820  44.675   3.907   3.825
 9753W        W82821  30.603  28.955  11.671
 9754W        W82822  21.581  25.605  13.234
 9755W        W82823  18.388  28.979   0.445
 9756W        W82824  32.922  15.640   1.971
 9757W        W82825   5.282  12.277  13.247
 9758W        W82826  34.068  41.291   1.322
 9759W        W82827  35.475  13.712   4.819
 9760W        W82828   1.295   0.205  11.101
 9761W        W82829   5.930   8.254  14.960
 9762W        W82830   8.247  10.170  10.375
 9763W        W82831  43.694  42.904  11.365
 9764W        W82832   8.730  15.095  11.503
 9765W        W82833  12.105  31.590  11.532
 9766W        W82834  37.471  42.976  10.219
 9767W        W82835   6.724  44.082  13.920
 9768W        W82836  32.538   5.799   0.692
 9769W        W82837  18.501  24.732   2.352
 9770W        W82838  44.519   5.934  13.624
 9771W        W82839  32.976  39.317  11.652
 9772W        W82840  26.480   6.723  13.874
 9773W        W82841  37.021  12.405  11.082
 9774W        W82842   6.387   3.790  10.355
 9775W        W82843  38.348  14.262   3.151
 9776W        W82844  14.202  35.905   2.769
 9777W        W82845  33.050  18.512  13.087
 9778W        W82846   6.917  37.415   0.623
 9779W        W82847   9.386   3.958   2.205
 9780W        W82848  37.427   9.119   5.256
 9781W        W82849   8.046   4.738   3.199
 9782W        W82850  21.521  31.967   1.647
 9783W        W82851  42.986   8.816   5.099
 9784W        W82852  29.265   5.898   1.198
 9785W        W82853  25.862  18.785  14.864
 9786W        W82854  39.586   3.369   3.264
 9787W        W82855  43.759  36.988  11.600
 9788W        W82856  26.890  36.404  12.977
 9789W        W82857  39.458  29.594   2.221
 9790W        W82858  37.011  26.460   2.323
 9791W        W82859  38.038  39.797  12.873
 9792W        W82860  31.874  36.531  11.955
 9793W        W82861  28.179  13.865   2.828
 9794W        W82862   6.249   7.887  12.662
 9795W        W82863  27.740  42.245  13.314
 9796W        W82864  21.817  44.746   3.195
 9797W        W82865  40.856  37.235  11.760
 9798W        W82866  29.211   9.205  13.108
 9799W        W82867  16.582  44.002  12.819
 9800W        W82868   0.639  15.192  13.995
 9801W        W82869  42.063   1.833  14.897
 9802W        W82870  17.836  26.693  10.745
 9803W        W82871  10.105  40.931   3.466
 9804W        W82872  22.163  38.448  13.034
 9805W        W82873  18.632  21.990   2.666
 9806W        W82874  13.430   0.091   0.493
 9807W        W82875  20.777  41.533   3.186
 9808W        W82876   8.962  15.582  11.905
 9809W        W82877  24.405  14.158   0.270
 9810W        W82878   0.052  33.597  14.767
 9811W        W82879  32.670  15.642   2.432
 9812W        W82880  34.285  42.108  12.204
 9813W        W82881  32.511  13.815   1.012
 9814W        W82882  29.494  26.199   3.680
 9815W        W82883  18.759  18.683  11.152
 9816W        W82884  28.579  41.053  13.897
 9817W        W82885  10.135   8.479   3.158
 9818W        W82886  19.200   4.248   4.326
 9819W        W82887   5.740  25.199   3.273
 9820W        W82888  14.261  41.350  10.699
 9821W        W82889  31.312  33.978   1.308
 9822W        W82890  15.686   7.286  14.113
 9823W        W82891  38.236  40.806  11.964
 9824W        W82892  26.106   7.196  13.830
 9825W        W82893  13.161  21.262  12.061
 9826W        W82894   4.424  44.496  12.903
 9827W        W82895   7.545  44.429  13.511
 9828W        W82896  39.302  16.341  13.009
 9829W        W82897  11.169  24.199  13.255
 9830W        W82898  17.787  11.337   1.660
 9831W        W82899  31.631  12.199  13.487
 9832W        W82900  20.634  17.236   3.878
 9833W        W82901  21.083  19.009   4.249
 9834W        W82902   9.351   9.766   2.624
 9835W        W82903  15.591  32.456   3.391
 9836W        W82904  17.162  41.113   0.768
 9837W        W82905   4.227  30.555   2.678
 9838W        W82906  16.061   8.300   0.981
 9839W        W82907  34.104   5.466   1.441
 9840W        W82908   5.110  27.164   3.853
 9841W        W82909  17.771  31.521   2.631
 9842W        W82910  43.586   3.830  12.827
 9843W        W82911  36.601  12.897   0.533
 9844W        W82912  24.533   1.266   4.522
 9845W        W82913  12.326  37.404  10.959
 9846W        W82914  16.079   6.304  14.244
 9847W        W82915   5.736  38.080   4.913
 9848W        W82916  37.633  32.263  14.735
 9849W        W82917  29.474  16.103  11.918
 9850W        W82918  14.738  39.019   1.196
 9851W        W82919   8.872   3.921   2.283
 9852W        W82920  39.863  43.394  10.492
 9853W        W82921  34.417  25.625   0.248
 9854W        W82922  17.548  10.654   0.889
 9855W        W82923  30.515   3.213   0.879
 9856W        W82924  26.054   2.744  13.825
 9857W        W82925  17.735  20.582  11.145
 9858W        W82926  16.663  24.944   4.928
 9859W        W82927  32.856  24.503   3.799
 9860W        W82928   4.979  15.535   2.536
 9861W        W82929  41.454  10.768  13.671
 9862W        W82930  29.249  25.690  13.223
 9863W        W82931  12.227  41.029  12.542
 9864W        W82932  31.143   8.049   4.496
 9865W        W82933  34.382   3.805  13.082
 9866W        W82934  16.327  30.370   2.158
 9867W        W82935  38.054  34.607  11.579
 9868W        W82936  19.138   3.544  13.293
 9869W        W82937  17.682  24.266  14.392
 9870W        W82938  44.547  44.943  14.444
 9871W        W82939  24.000  16.366  12.473
 9872W        W82940  26.664  27.616  12.547
 9873W        W82941  30.607  25.565  13.526
 9874W        W82942   8.378  22.027   3.684
 9875W        W82943   4.393  31.527  12.587
 9876W        W82944  14.849  34.507   2.808
 9877W        W82945  15.131  21.581  10.660
 9878W        W82946  33.559  10.362   4.386
 9879W        W82947  30.970  29.050   0.732
 9880W        W82948   9.763  26.293   2.763
 9881W        W82949  34.747  33.998  13.258
 9882W        W82950   2.663  36.999  11.547
 9883W        W82951  37.531   8.724  11.656
 9884W        W82952  25.645  40.713  10.100
 9885W        W82953   0.240   4.885   4.104
 9886W        W82954  29.591  20.144  11.924
 9887W        W82955  35.960   7.022   0.419
 9888W        W82956  26.596  26.125   0.721
 9889W        W82957  25.025  34.856   0.522
 9890W        W82958  10.838   7.292   3.300
 9891W        W82959  32.977  18.502  14.012
 9892W        W82960   8.383   9.821  11.592
 9893W        W82961  22.225   1.184   4.379
 9894W        W82962  41.694  15.181   3.130
 9895W        W82963   3.613  24.478   2.802
 9896W        W82964  29.507  40.827  13.967
 9897W        W82965  28.003  32.957  10.685
 9898W        W82966  29.655  33.107  13.623
 9899W        W82967  36.987  33.769  12.067
 9900W        W82968   1.369  16.145   3.201
 9901W        W82969   0.936  25.337  13.668
 9902W        W82970  40.360  37.375   1.835
 9903W        W82971  17.917  38.016   0.403
 9904W        W82972  25.909  15.251   0.301
 9905W        W82973  10.882   6.347   3.208
 9906W        W82974  17.558   7.666  13.475
 9907W        W82975  23.105   3.323  14.796
 9908W        W82976  34.368  37.548  14.674
 9909W        W82977  41.522  18.727   0.970
 9910W        W82978  41.540  22.919  13.807
 9911W        W82979  39.897  31.032  10.976
 9912W        W82980  18.242  16.128  10.674
 9913W        W82981  10.506   9.243  11.487
 9914W        W82982  35.192   3.725   1.146
 9915W        W82983   6.959  11.855   2.301
 9916W        W82984   5.455  34.455   4.544
 9917W        W82985  43.012  42.883  14.310
 9918W        W82986  13.233  39.255  13.956
 9919W        W82987  24.653  29.702  11.644
 9920W        W82988  43.460  42.439   3.427
 9921W        W82989  42.768   5.802   0.413
 9922W        W82990  36.844  40.023   3.300
 9923W        W82991  32.607  28.086   3.100
 9924W        W82992   3.247  19.159  14.438
 9925W        W82993  44.462  27.960  13.003
 9926W        W82994  44.828  41.869  14.725
 9927W        W82995  44.888  16.996  14.848
 9928W        W82996  38.085   0.363  10.712
 9929W        W82997  28.508   7.629  14.902
 9930W        W82998  21.781   0.948   4.163
 9931W        W82999  30.063  19.733   2.442
 9932W        W83000   0.161  24.527  13.846
 9933W        W83001  22.701  16.661   9.817
 9934W        W83002   9.281  16.663  12.046
 9935W        W83003  15.203  42.226   1.923
 9936W        W83004  15.633  25.169  11.724
 9937W        W83005   3.962  27.525  11.607
 9938W        W83006   0.364  31.045  14.846
 9939W        W83007  24.103  22.472   1.776
 9940W        W83008  44.870  23.220  14.528
 9941W        W83009  38.972  21.550  10.627
 9942W        W83010   8.679  25.758   2.332
 9943W        W83011   9.330  18.050   2.814
 9944W        W83012  12.407  28.111   4.265
 9945W        W83013   6.856  34.814   4.535
 9946W        W83014  10.826  36.361   1.271
 9947W        W83015  40.010  44.426   2.733
 9948W        W83016   8.847  44.863  11.389
 9949W        W83017  14.611  30.576  10.629
 9950W        W83018  23.657   2.382   3.793
 9951W        W83019  32.008   4.916   0.324
 9952W        W83020  15.221   2.050  14.436
 9953W        W83021  39.391   7.415  14.915
 9954W        W83022   8.076  14.619   3.595
 9955W        W83023  15.285   6.987  14.307
 9956W        W83024   7.877  15.040  14.849
 9957W        W83025  16.671  37.579   0.923
 9958W        W83026   3.208  21.211  10.604
 9959W        W83027  34.352  22.265  14.032
 9960W        W83028  34.052  31.531   4.659
 9961W        W83029   8.315  24.809  12.054
 9962W        W83030  13.871  12.872   0.283
 9963W        W83031  10.974  27.941   4.114
 9964W        W83032  40.017  43.555   4.656
 9965W        W83033  10.889  32.714  13.749
 9966W        W83034  17.047  10.871   1.747
 9967W        W83035  17.524  39.074   2.395
 9968W        W83036  19.590  16.069  14.510
 9969W        W83037  17.090  20.082  12.672
 9970W        W83038  17.179  38.683  13.477
 9971W        W83039  19.665  18.827  11.957
 9972W        W83040  33.379   5.228   3.660
 9973W        W83041  32.584   3.354   0.419
 9974W        W83042   3.897  11.601  10.701
 9975W        W83043   8.432  23.636  11.132
 9976W        W83044   5.078  28.826  14.925
 9977W        W83045   6.667  14.772   0.203
 9978W        W83046  40.508  22.636  14.215
 9979W        W83047   1.911  38.195  11.461
 9980W        W83048   9.239  30.002  14.501
 9981W        W83049  31.924  41.075  14.465
 9982W        W83050  14.337   6.649   3.394
 9983W        W83051   3.707  22.996  14.546
 9984W        W83052  32.968  43.040   4.738
 9985W        W83053  24.325   6.722   1.136
 9986W        W83054  27.325  23.497  13.857
 9987W        W83055  34.623   8.950   4.066
 9988W        W83056  39.137  12.384   0.007
 9989W        W83057   1.305  41.952   0.002
 9990W        W83058  40.856  33.662   1.724
 9991W        W83059  34.564  39.625   2.612
 9992W        W83060   9.705   9.915  14.029
 9993W        W83061  43.871   3.889  14.952
 9994W        W83062  25.261  20.105  14.518
 9995W        W83063  33.973  10.441   0.009
 9996W        W83064  22.037  20.271   0.996
 9997W        W83065  26.084   1.067  11.581
 9998W        W83066  34.467  20.873   3.767
 9999W        W83067  12.215  38.364   3.808
10000W        W83068  38.432   1.217   5.105
10001W        W83069  27.005  37.528   3.817
10002W        W83070  24.126  41.014  10.227
10003W        W83071  12.405  36.068   0.538
10004W        W83072  26.947  31.913   4.299
10005W        W83073   7.968  18.572   2.768
10006W        W83074  40.601  40.429  11.999
10007W        W83075  44.537  14.240  14.453
10008W        W83076  17.029  40.750   0.403
10009W        W83077  34.215  24.893   2.744
10010W        W83078  21.785  22.991   4.551
10011W        W83079  10.713  43.283   2.801
10012W        W83080   8.724  17.853   3.652
10013W        W83081  30.007  19.284   3.369
10014W        W83082   0.364   0.294   1.741
10015W        W83083   5.057  23.188  10.729
10016W        W83084  27.418  11.428   4.148
10017W        W83085   3.812  12.912  13.439
10018W        W83086  14.806  30.448   0.414
10019W        W83087  40.580  40.576  14.860
10020W        W83088  32.572  25.155   4.630
10021W        W83089   1.199  10.292  14.748
10022W        W83090  19.185  41.275  11.036
10023W        W83091  26.564   3.482   4.676
10024W        W83092  10.400  41.940   2.440
10025W        W83093  12.522  24.244  12.467
10026W        W83094   8.936  27.184  14.503
10027W        W83095  16.555  29.112  12.424
10028W        W83096  13.785  36.543  13.549
10029W        W83097  43.953  39.569   3.025
10030W        W83098  27.481   6.692  13.852
10031W        W83099  29.584  16.298   2.922
10032W        W83100  24.062  17.622  13.367
10033W        W83101   0.971  15.865   3.369
10034W        W83102  21.978  30.986   0.285
10035W        W83103   9.058  41.324  13.419
10036W        W83104  29.937  24.535  14.368
10037W        W83105  11.997   6.203  12.945
10038W        W83106  12.828  35.212  13.518
10039W        W83107  29.591  13.277  14.446
10040W        W83108  37.435  32.380  13.874
10041W        W83109  40.818   1.060   4.287
10042W        W83110  28.226  42.483   1.914
10043W        W83111  32.664  31.345  12.009
10044W        W83112  10.131   8.890  10.750
10045W        W83113   5.904  43.671  11.028
10046W        W83114  34.482  11.621  11.316
10047W        W83115  33.663  17.306  14.428
10048W        W83116   1.053  10.758   3.489
10049W        W83117  42.323   6.924   4.577
10050W        W83118  20.138  30.513   0.764
10051W        W83119  12.579  25.971  11.679
10052W        W83120  13.247   9.541   1.177
10053W        W83121  18.188  19.338  12.002
10054W        W83122  21.411  32.961   4.967
10055W        W83123  38.774  44.761   3.575
10056W        W83124  30.698  42.450   1.661
10057W        W83125  26.154  14.720  11.005
10058W        W83126  38.495  30.531   3.694
10059W        W83127   1.824  24.233  13.896
10060W        W83128  42.953  10.474  12.861
10061W        W83129  36.422  44.958   0.012
10062W        W83130  32.391  33.440   4.542
10063W        W83131   0.305  11.235  14.869
10064W        W83132   2.751   6.223   2.835
10065W        W83133  12.109  25.418  11.865
10066W        W83134  25.783  40.964   5.086
10067W        W83135  27.517  11.959  12.883
10068W        W83136   0.827  30.681   1.181
10069W        W83137  35.680  33.158   3.675
10070W        W83138  15.629  29.201   2.771
10071W        W83139  28.624   6.163  14.868
10072W        W83140   2.577  36.599  14.668
10073W        W83141  41.228  12.901   2.867
10074W        W83142   0.949  39.819   2.281
10075W        W83143  26.506  39.307  10.542
10076W        W83144  19.996  42.903  14.386
10077W        W83145  36.001  24.583   4.390
10078W        W83146  35.020  28.606  14.840
10079W        W83147  27.461  15.018   4.163
10080W        W83148  44.978  43.736  13.356
10081W        W83149  19.778  36.456  12.934
10082W        W83150  15.720   8.661   0.802
10083W        W83151  42.287  24.396  10.711
10084W        W83152  40.683  30.733  11.179
10085W        W83153   1.971  41.460  10.633
10086W        W83154   3.551  37.612   4.282
10087W        W83155  30.132  16.278  12.016
10088W        W83156  18.066  25.680   1.253
10089W        W83157  39.361  43.010  14.162
10090W        W83158  27.415  42.445  14.016
10091W        W83159  34.073  39.403   0.438
10092W        W83160  28.159   4.015   0.179
10093W        W83161  20.857  19.172   3.776
10094W        W83162  30.031  42.591   2.275
10095W        W83163  20.241   8.776   3.733
10096W        W83164   5.681  37.949  11.890
10097W        W83165  41.001  38.116  13.390
10098W        W83166  44.343   7.447  10.660
10099W        W83167   5.753  19.216  12.391
10100W        W83168  17.722  19.584  14.400
10101W        W83169  24.183  38.712   0.563
10102W        W83170  43.879   3.997  14.438
10103W        W83171  35.027  11.776  13.132
10104W        W83172  20.647  43.918  14.752
10105W        W83173  11.189  14.165   0.551
10106W        W83174  25.049  29.180  14.740
10107W        W83175  42.874  20.302  12.107
10108W        W83176   2.824  40.912   2.353
10109W        W83177  22.758   2.818  11.125
10110W        W83178  39.599   4.043   2.880
10111W        W83179  20.232  39.901  11.532
10112W        W83180  36.063  16.785   4.131
10113W        W83181  39.309   8.343   4.969
10114W        W83182   7.933   3.338   2.729
10115W        W83183  31.431  32.352  10.712
10116W        W83184  23.277  29.223  13.974
10117W        W83185  44.365  18.229   4.522
10118W        W83186  29.029  16.881   1.886
10119W        W83187  13.825  26.048  14.321
10120W        W83188  19.241  34.935  12.006
10121W        W83189  17.815  35.710   4.080
10122W        W83190   5.631   7.113   1.290
10123W        W83191  33.058  36.498   0.573
10124W        W83192  30.923  28.117  12.479
10125W        W83193  15.066  42.978  12.522
10126W        W83194  19.586  21.090   3.202
10127W        W83195   5.134  26.405   4.144
10128W        W83196   6.492  41.485  11.974
10129W        W83197  13.127  42.434   3.200
10130W        W83198  18.754  14.008  10.658
10131W        W83199   1.933   1.245   1.702
10132W        W83200   1.970   3.763  10.677
10133W        W83201  38.869  19.582  12.501
10134W        W83202  42.553  27.512   1.636
10135W        W83203   2.354  43.591  10.380
10136W        W83204  34.562  20.102  12.324
10137W        W83205  33.413  36.053  10.506
10138W        W83206  33.875  21.125   1.798
10139W        W83207  39.316   3.116  13.536
10140W        W83208  34.952  24.141   3.427
10141W        W83209  33.030  40.565  10.479
10142W        W83210  23.718  39.307   1.844
10143W        W83211   5.580  36.439  14.584
10144W        W83212  38.340  23.041  10.834
10145W        W83213   3.790  17.531   1.608
10146W        W83214  28.444  30.693   4.125
10147W        W83215   6.704  22.271  14.099
10148W        W83216  26.422  15.599   0.736
10149W        W83217  30.094   3.495   3.207
10150W        W83218   8.693  32.641   0.430
10151W        W83219   9.652  40.903   1.028
10152W        W83220   5.877  41.034   4.166
10153W        W83221  18.352  17.786  13.863
10154W        W83222  11.770  31.860  10.030
10155W        W83223  22.267   5.928   3.818
10156W        W83224   3.881  21.972   4.109
10157W        W83225   4.117  34.583   2.168
10158W        W83226   9.906  43.433   2.330
10159W        W83227  15.675  12.384   0.277
10160W        W83228  27.871  30.562   2.177
10161W        W83229  39.081  31.553   2.346
10162W        W83230  33.071  12.790  14.730
10163W        W83231  27.742  24.170   4.321
10164W        W83232   2.612  10.346  12.516
10165W        W83233  34.561  35.389  10.554
10166W        W83234  38.128  28.161   2.169
10167W        W83235  35.607  24.141  11.472
10168W        W83236  40.087  43.069  14.938
10169W        W83237  31.062  22.262   4.667
10170W        W83238   3.944  40.353  13.026
10171W        W83239   0.234  33.327  11.101
10172W        W83240  43.822  37.896   4.166
10173W        W83241  19.564  32.885   3.625
10174W        W83242  30.461   6.222   3.323
10175W        W83243  10.238   3.988  14.825
10176W        W83244  15.366  12.765   2.623
10177W        W83245   5.418  15.788  10.625
10178W        W83246  19.552  33.561   4.909
10179W        W83247   9.357  16.554  14.640
10180W        W83248  11.416  32.782   0.441
10181W        W83249   1.897  20.561  10.464
10182W        W83250  39.858  13.920  11.120
10183W        W83251   3.908  16.132   0.973
10184W        W83252   5.661  26.084   3.814
10185W        W83253  26.540  13.780  12.804
10186W        W83254  35.469  14.941  14.743
10187W        W83255  27.705   5.179   4.653
10188W        W83256  16.893   2.339   4.155
10189W        W83257   0.232  14.075  12.036
10190W        W83258   7.437  31.534   2.361
10191W        W83259  28.162  38.272   4.143
10192W        W83260   4.896  14.013  14.017
10193W        W83261  21.124  26.330  12.458
10194W        W83262   7.597  21.074   2.056
10195W        W83263  25.949  24.618   0.780
10196W        W83264  20.058  41.487  12.995
10197W        W83265   4.566  22.187   4.891
10198W        W83266  16.708  35.950   2.230
10199W        W83267  12.810  27.062   0.340
10200W        W83268  18.245  29.532   2.310
10201W        W83269  21.512  44.588  14.812
10202W        W83270  15.731   1.808   4.608
10203W        W83271   0.817   1.324   1.628
10204W        W83272  27.614  18.702   2.089
10205W        W83273  42.895  12.726   0.684
10206W        W83274   2.638  40.954   4.866
10207W        W83275   2.357  25.033   2.731
10208W        W83276  29.527   9.655   1.353
10209W        W83277  12.619  24.024  11.652
10210W        W83278  40.980  12.080  14.342
10211W        W83279  41.994  40.221   0.486
10212W        W83280  10.061   8.597  11.177
10213W        W83281  33.831  39.014   1.029
10214W        W83282  18.233  17.366   3.606
10215W        W83283   6.129  18.726   1.413
10216W        W83284  31.412  29.052  11.978
10217W        W83285  13.223   2.490   0.632
10218W        W83286   9.615  22.576   3.169
10219W        W83287  27.035  21.606   1.298
10220W        W83288   1.716  27.478  11.097
10221W        W83289   5.409  32.216  12.118
10222W        W83290  11.643  18.884   0.633
10223W        W83291  28.434  25.663  14.772
10224W        W83292  44.143  13.000   3.545
10225W        W83293  13.712  40.018  14.530
10226W        W83294  24.309   3.859  14.711
10227W        W83295   5.516   2.271  14.861
10228W        W83296  22.178  24.157   1.402
10229W        W83297   1.961  24.453   2.326
10230W        W83298  13.666  38.772  11.371
10231W        W83299   1.462  29.882  14.808
10232W        W83300  12.280  26.733   2.745
10233W        W83301  17.524  34.491   3.936
10234W        W83302   2.440  17.012   3.203
10235W        W83303  24.407   0.454  13.037
10236W        W83304  27.680  23.470  12.682
10237W        W83305  26.584  40.278  14.377
10238W        W83306  34.013  32.431   4.907
10239W        W83307  30.364  37.337   4.125
10240W        W83308  17.760  10.173   1.804
10241W        W83309  38.914  26.344   4.738
10242W        W83310  27.865   6.161  14.311
10243W        W83311  35.275  31.095  14.940
10244W        W83312  42.290  17.215   0.893
10245W        W83313   5.248  19.092  11.520
10246W        W83314  25.549  16.762  11.325
10247W        W83315  20.004  20.215  14.377
10248W        W83316  10.102  15.166   0.404
10249W        W83317  13.669   0.547   1.417
10250W        W83318  22.622   0.853   5.161
10251W        W83319  36.646  27.923  11.195
10252W        W83320   8.208  36.892  11.413
10253W        W83321  43.577   0.746  12.985
10254W        W83322  38.657   0.205  10.420
10255W        W83323  11.499  44.839   3.637
10256W        W83324  44.055  23.110  11.988
10257W        W83325  36.048   8.250   1.368
10258W        W83326  24.617  23.051   0.310
10259W        W83327  15.789   4.005   3.169
10260W        W83328  32.111  27.973   1.762
10261W        W83329  29.879  35.600   4.577
10262W        W83330   3.820   4.227   0.712
10263W        W83331  25.676  14.892   4.239
10264W        W83332   6.457  35.882  11.498
10265W        W83333  34.956  37.142   1.270
10266W        W83334  18.244   4.708  14.058
10267W        W83335  42.025   2.798  12.919
10268W        W83336  33.960   2.754   2.861
10269W        W83337  28.674  12.299  10.960
10270W        W83338  21.083   1.857   4.893
10271W        W83339   0.874  42.559   1.852
10272W        W83340  12.969  20.918   2.805
10273W        W83341   5.450   0.972  13.004
10274W        W83342   5.276   1.498   0.311
10275W        W83343  27.654  35.919  13.071
10276W        W83344   5.235  43.221  13.328
10277W        W83345   8.389   2.370   4.733
10278W        W83346   3.786  41.392  14.846
10279W        W83347  33.964  24.644  11.458
10280W        W83348  24.993   9.262  12.375
10281W        W83349  41.316  25.747   1.786
10282W        W83350  16.147  39.181  11.727
10283W        W83351   6.672   3.887  11.311
10284W        W83352  30.021   8.908   1.133
10285W        W83353   6.228   3.463  13.887
10286W        W83354  10.542  31.452   3.241
10287W        W83355   2.315  33.491  12.443
10288W        W83356  34.598  22.411  12.838
10289W        W83357  33.969   2.979  12.361
10290W        W83358   3.996  26.094   1.550
10291W        W83359  34.881  43.323  12.582
10292W        W83360  14.588  21.222   1.171
10293W        W83361  14.354   0.198  12.906
10294W        W83362  43.842  29.107   1.905
10295W        W83363   1.256  30.657   2.849
10296W        W83364  38.985  31.683  12.858
10297W        W83365  20.711  28.921   2.451
10298W        W83366   2.541  40.523  13.397
10299W        W83367  26.454  27.879   1.430
10300W        W83368   8.566   3.958   1.441
10301W        W83369  15.907  19.534   4.386
10302W        W83370  26.594   4.175   1.763
10303W        W83371  39.823  25.101   2.396
10304W        W83372  16.555  10.847   3.665
10305W        W83373  28.073  13.273  12.936
10306W        W83374   8.219  30.419   3.664
10307W        W83375  27.114   7.815   3.687
10308W        W83376   1.816  17.550  12.359
10309W        W83377  32.401  39.845   1.701
10310W        W83378  22.943  25.103   4.880
10311W        W83379  39.624   3.554  13.396
10312W        W83380  25.584  36.473   4.718
10313W        W83381  11.140  28.035  14.459
10314W        W83382  24.199  12.915   1.952
10315W        W83383   5.105  31.633  14.795
10316W        W83384  42.572  15.667   3.882
10317W        W83385  17.665   4.825   3.817
10318W        W83386  42.297   7.506  13.553
10319W        W83387  18.118  16.896  11.054
10320W        W83388  28.180  34.516   0.416
10321W        W83389  10.051  17.127   4.560
10322W        W83390   6.629  26.441   2.227
10323W        W83391  23.656  40.235  14.859
10324W        W83392   0.223  43.878   4.691
10325W        W83393  10.173  14.209   5.181
10326W        W83394  27.213  17.668   0.715
10327W        W83395   2.861  18.977  12.550
10328W        W83396  16.571  19.358  10.793
10329W        W83397  41.562  30.839   0.891
10330W        W83398  31.393  29.141   2.044
10331W        W83399  22.508  29.261   3.925
10332W        W83400  18.285  26.387  14.444
10333W        W83401  37.022  11.646  11.569
10334W        W83402  30.636   0.532  12.745
10335W        W83403  29.051  30.486   0.928
10336W        W83404  27.544  37.114  14.043
10337W        W83405  26.909  28.005   4.551
10338W        W83406  22.988  18.072   0.197
10339W        W83407  13.363  41.978  10.832
10340W        W83408  12.591  14.513  11.088
10341W        W83409   8.332   6.348   3.794
10342W        W83410  17.775  30.604   2.128
10343W        W83411  43.622  35.137   0.367
10344W        W83412  19.969  29.012   4.349
10345W        W83413  25.729   3.582  14.228
10346W        W83414  42.480  34.463   2.871
10347W        W83415  27.616  16.792   1.882
10348W        W83416  29.864   3.432  10.804
10349W        W83417   2.035  35.147   3.399
10350W        W83418  12.704  10.893  11.439
10351W        W83419  44.260  19.247   4.199
10352W        W83420   3.872  31.229   3.549
10353W        W83421  28.102  35.988  13.910
10354W        W83422  37.088  25.231  14.336
10355W        W83423  19.069  28.386  12.981
10356W        W83424  32.733  26.627  12.582
10357W        W83425  18.044  22.430   4.290
10358W        W83426  37.010  43.351   1.204
10359W        W83427   8.047  17.346  14.724
10360W        W83428   0.333  36.884   3.216
10361W        W83429  14.644  18.358   3.223
10362W        W83430   0.443  25.698  10.618
10363W        W83431  39.472  38.883   0.305
10364W        W83432   8.935  42.881   3.080
10365W        W83433   8.805  24.195  10.648
10366W        W83434  32.112  25.521   3.114
10367W        W83435  40.308  23.709   0.782
10368W        W83436  10.267  24.474   4.678
10369W        W83437   7.617  41.192  10.044
10370W        W83438  23.574  26.375  10.751
10371W        W83439  38.494   0.372   1.973
10372W        W83440   6.407  15.801   5.079
10373W        W83441  41.418  25.670  10.590
10374W        W83442  35.581  31.173   2.089
10375W        W83443   0.836  39.986   1.783
10376W        W83444  40.229  18.572  10.701
10377W        W83445   3.245  24.308  11.611
10378W        W83446  14.495  27.900   4.349
10379W        W83447  32.566  28.505   2.389
10380W        W83448  30.241  21.834   1.493
10381W        W83449  38.658  32.648  11.363
10382W        W83450   6.875   3.437  10.585
10383W        W83451  36.692   4.218  13.972
10384W        W83452  43.305   9.435  10.761
10385W        W83453  11.306   1.194   3.661
10386W        W83454  37.975  10.868   2.818
10387W        W83455  18.320  14.198  11.520
10388W        W83456  28.488   7.960   1.329
10389W        W83457  42.088  32.646   3.678
10390W        W83458  35.979  37.257  11.181
10391W        W83459  39.502  18.055   2.326
10392W        W83460  41.312  14.731  11.786
10393W        W83461  23.219  28.767   4.841
10394W        W83462   9.005  37.538  13.388
10395W        W83463  38.096  13.839   1.832
10396W        W83464  40.442  20.180  10.737
10397W        W83465   6.168   6.375  12.167
10398W        W83466   4.547  13.204   1.754
10399W        W83467  15.054  34.440   0.509
10400W        W83468  32.999  37.893   0.686
10401W        W83469  10.484  16.829   4.580
10402W        W83470  37.092   7.105  10.974
10403W        W83471  38.318   5.059   2.857
10404W        W83472  10.448  32.360   2.805
10405W        W83473  25.304  23.485  13.340
10406W        W83474  22.473   7.341   3.668
10407W        W83475   6.782  14.574   2.122
10408W        W83476  28.849   9.260  14.003
10409W        W83477  22.631   2.522   2.779
10410W        W83478   3.953  30.739  12.442
10411W        W83479  36.922  19.799   0.438
10412W        W83480  35.854  40.113  13.976
10413W        W83481  11.252  37.962   1.873
10414W        W83482  16.495   9.383  10.570
10415W        W83483  39.013  20.236  14.365
10416W        W83484   7.929  10.773  14.435
10417W        W83485  30.606  11.127   2.201
10418W        W83486  35.448  36.497   0.981
10419W        W83487  10.308  42.376   4.647
10420W        W83488  32.154   2.906  10.699
10421W        W83489   8.232  23.621   4.113
10422W        W83490  22.248   3.294   3.765
10423W        W83491  30.108  40.190  14.543
10424W        W83492  27.479  33.701   2.197
10425W        W83493  19.133  37.534  11.525
10426W        W83494  35.398   5.758   4.321
10427W        W83495  23.225  22.194   4.539
10428W        W83496  13.279   4.620  10.270
10429W        W83497  44.714  36.586   4.235
10430W        W83498  25.610  30.678   4.050
10431W        W83499   6.236  12.727  11.920
10432W        W83500  26.627  40.597   2.637
10433W        W83501  10.909  30.555  12.856
10434W        W83502   5.305   6.896   2.411
10435W        W83503  26.133  38.789  13.457
10436W        W83504   0.668   3.392   2.590
10437W        W83505   8.306  24.905   2.425
10438W        W83506  23.171  40.374  13.162
10439W        W83507   9.724  35.590   3.717
10440W        W83508  28.224  29.110  12.032
10441W        W83509  38.084  10.197  13.513
10442W        W83510  23.694  34.812  12.126
10443W        W83511  29.227   1.866  13.104
10444W        W83512  13.894  13.697   2.828
10445W        W83513  34.187  29.579  11.121
10446W        W83514   2.804  43.861  10.432
10447W        W83515  25.147   0.756   0.871
10448W        W83516   7.623   9.479  13.097
10449W        W83517  23.575  34.880   1.308
10450W        W83518  38.413  17.693  11.049
10451W        W83519  18.693  38.092  10.953
10452W        W83520  14.994  20.225  11.396
10453W        W83521   4.792  37.858  12.987
10454W        W83522   8.632  39.292   3.756
10455W        W83523  41.979  28.622   2.317
10456W        W83524  24.015  17.194   0.051
10457W        W83525  41.783  17.607   1.740
10458W        W83526  21.700  24.202  14.859
10459W        W83527  29.206  20.034   0.146
10460W        W83528  10.121  16.484   0.784
10461W        W83529  38.331   8.366  11.960
10462W        W83530  28.596  25.182   4.444
10463W        W83531  40.531   7.914  11.973
10464W        W83532   1.779  25.112  10.386
10465W        W83533  35.831  28.722   3.905
10466W        W83534  36.347  21.544   0.946
10467W        W83535  38.908  24.064  14.366
10468W        W83536  35.563   6.816   3.292
10469W        W83537  16.623  10.812   1.168
10470W        W83538  23.743  17.706  10.407
10471W        W83539  20.224  40.405  11.154
10472W        W83540  24.593  39.775  12.719
10473W        W83541   5.896  34.599  12.531
10474W        W83542   4.731  32.168  11.449
10475W        W83543  15.319   2.762   3.593
10476W        W83544   5.123  14.475   3.468
10477W        W83545  14.174   9.592   4.608
10478W        W83546  33.001  15.308   4.546
10479W        W83547  37.897  12.915  12.660
10480W        W83548  41.039   0.251  13.987
10481W        W83549  25.755  24.712   1.247
10482W        W83550   9.427  21.712   2.838
10483W        W83551  19.545  39.017  13.305
10484W        W83552  37.362  13.199  10.497
10485W        W83553  19.322  42.672  12.029
10486W        W83554  22.962  11.052   3.328
10487W        W83555   7.402  39.926   1.391
10488W        W83556  35.541   0.800   4.599
10489W        W83557  27.083   6.233  12.588
10490W        W83558  26.475  44.506   1.770
10491W        W83559   6.372  16.306   2.353
10492W        W83560  34.937  23.139   3.900
10493W        W83561  22.532  29.466   0.762
10494W        W83562  15.763  40.853  10.915
10495W        W83563  37.340   7.241  14.974
10496W        W83564  25.723  31.069  14.328
10497W        W83565  17.866  30.561  12.073
10498W        W83566  21.118  15.605  11.504
10499W        W83567  44.378  25.051  12.323
10500W        W83568  28.596  22.824  10.742
10501W        W83569  30.119  18.820   0.450
10502W        W83570  13.725  31.354   3.119
10503W        W83571  10.339   5.440   3.945
10504W        W83572  13.678  18.097   0.965
10505W        W83573  42.199  29.938  12.955
10506W        W83574  20.019  36.614  13.385
10507W        W83575  37.416  37.450  10.434
10508W        W83576  31.370   9.943  10.653
10509W        W83577  40.425  40.880   2.647
10510W        W83578  22.775  25.109  11.228
10511W        W83579  18.019  42.743   3.559
10512W        W83580  17.577   0.464   3.310
10513W        W83581  17.164  13.189   1.889
10514W        W83582  35.919  22.691  14.061
10515W        W83583   5.875  40.837  13.088
10516W        W83584  14.688  31.527   0.994
10517W        W83585  28.698  18.216   4.943
10518W        W83586   8.744  35.086   2.202
10519W        W83587  13.766   4.284   1.033
10520W        W83588  38.337  44.234  13.247
10521W        W83589   6.511  40.492   0.437
10522W        W83590   4.743  16.165  11.280
10523W        W83591   1.229  20.621  12.919
10524W        W83592  25.496  12.808   2.632
10525W        W83593  19.573  33.661   4.393
10526W        W83594  37.267  38.372  14.861
10527W        W83595   9.246  12.459   2.766
10528W        W83596   3.586  29.367   2.803
10529W        W83597  16.670  40.120  14.403
10530W        W83598  39.861  34.412   0.412
10531W        W83599  22.735  42.710   3.267
10532W        W83600   3.145  22.299   1.924
10533W        W83601  12.711  25.434   2.769
10534W        W83602   6.252  13.693   3.966
10535W        W83603  23.527  34.664   1.976
10536W        W83604   6.284  37.013  14.248
10537W        W83605  34.381  19.573  11.519
10538W        W83606  30.960  32.599  12.465
10539W        W83607  37.775  35.049  11.556
10540W        W83608  16.688  39.875  10.908
10541W        W83609  14.290  40.402  11.715
10542W        W83610  31.634  19.294   1.363
10543W        W83611   6.640  15.644  12.497
10544W        W83612  28.255  37.093   2.226
10545W        W83613   1.330  38.419  14.084
10546W        W83614  33.770   8.383  14.062
10547W        W83615  30.214   2.964   3.205
10548W        W83616  43.709  18.072  11.587
10549W        W83617  10.221  13.797  11.896
10550W        W83618  37.773   0.549  11.063
10551W        W83619  26.767  35.226   4.892
10552W        W83620  32.527  17.349   0.068
10553W        W83621  22.065  11.918  13.921
10554W        W83622  13.185  37.258  10.380
10555W        W83623  35.162  27.664  14.459
10556W        W83624  14.227  34.039   0.329
10557W        W83625  34.221  12.811  12.925
10558W        W83626  41.064  39.068   0.792
10559W        W83627  31.580  29.608   3.807
10560W        W83628  29.009  11.738  12.919
10561W        W83629  30.362  24.704  11.095
10562W        W83630  14.903   3.356  10.596
10563W        W83631  38.046  38.001  14.977
10564W        W83632   6.094   1.892  10.734
10565W        W83633   0.404  26.022   4.054
10566W        W83634  23.967  44.330  13.585
10567W        W83635   3.199  22.935  14.558
10568W        W83636  42.814  39.908  14.415
10569W        W83637  44.537  30.943   3.581
10570W        W83638  24.679  31.440  13.989
10571W        W83639  12.861  28.547   2.767
10572W        W83640  30.566  30.560   0.841
10573W        W83641  14.801  20.476  13.994
10574W        W83642   5.140   1.364   1.180
10575W        W83643  25.686  32.504   0.933
10576W        W83644  34.319   8.129   3.125
10577W        W83645  19.233  15.600   0.236
10578W        W83646  15.025   7.231   0.143
10579W        W83647  35.028   3.987   2.144
10580W        W83648  38.947   4.483  14.072
10581W        W83649  25.152  43.777   1.974
10582W        W83650  36.618  25.618   2.747
10583W        W83651  40.580   3.713   4.166
10584W        W83652   1.836  40.401  12.946
10585W        W83653  14.470  14.284   5.108
10586W        W83654  43.936  12.945  13.059
10587W        W83655  22.944  38.569   1.152
10588W        W83656   4.372   1.303  14.369
10589W        W83657  25.113  15.723   2.407
10590W        W83658  29.685  14.880   0.400
10591W        W83659  27.445  20.302  14.993
10592W        W83660   1.544  10.824  14.867
10593W        W83661  31.420  22.934   0.077
10594W        W83662  32.088  41.308   2.675
10595W        W83663  41.481  10.947   2.696
10596W        W83664   2.995   8.371   3.482
10597W        W83665  25.046  28.110   2.742
10598W        W83666  31.648  37.436   4.712
10599W        W83667  42.730  19.672  13.963
10600W        W83668  39.011  21.271  14.583
10601W        W83669  10.600  40.031   3.351
10602W        W83670   2.460  28.088   4.448
10603W        W83671   2.903  32.747  12.478
10604W        W83672  10.693  31.343   2.381
10605W        W83673   6.659  44.006   2.325
10606W        W83674   4.250  28.109   2.805
10607W        W83675  41.440  19.766   0.394
10608W        W83676  31.536  14.292   0.264
10609W        W83677  39.824  35.107  14.053
10610W        W83678  18.345  31.518  13.330
10611W        W83679  13.306  38.511   2.798
10612W        W83680  44.733  11.693   4.121
10613W        W83681   1.917  25.529   4.359
10614W        W83682  16.716  43.456  12.089
10615W        W83683   8.263  29.799   1.214
10616W        W83684  15.638  36.811   1.708
10617W        W83685  41.511  22.185   0.198
10618W        W83686  11.239   9.418   3.887
10619W        W83687  29.248  29.616   3.201
10620W        W83688   8.899  12.153  11.044
10621W        W83689  14.917  14.047  10.292
10622W        W83690  36.593  11.349   0.476
10623W        W83691  14.721  36.417   3.316
10624W        W83692  21.781  14.619  13.410
10625W        W83693  22.664  41.780   3.117
10626W        W83694  30.426  28.293  11.317
10627W        W83695   6.464  31.082  13.406
10628W        W83696   0.786   4.966   2.299
10629W        W83697  20.079  40.454  12.469
10630W        W83698  30.361  35.056  13.919
10631W        W83699   0.572  16.628  11.632
10632W        W83700   6.657  24.648   0.878
10633W        W83701  10.035  33.538  14.383
10634W        W83702   2.283   0.883   0.665
10635W        W83703   9.146  34.463   2.510
10636W        W83704  43.001  22.045   3.029
10637W        W83705  23.740  41.770   3.313
10638W        W83706  10.745  33.880   0.975
10639W        W83707   4.146  11.490  13.902
10640W        W83708  23.519  17.338  12.703
10641W        W83709   8.603   2.731   2.846
10642W        W83710  33.001  32.583   1.895
10643W        W83711  23.458  29.569   2.446
10644W        W83712  35.409  13.240  11.117
10645W        W83713  37.558  31.607  11.788
10646W        W83714  34.083  25.976  14.370
10647W        W83715  28.626  28.929  11.177
10648W        W83716  31.946   5.720   2.463
10649W        W83717  24.103  10.114  10.389
10650W        W83718  31.361  10.913  13.486
10651W        W83719  22.923  29.414  10.763
10652W        W83720  12.378  14.060  14.916
10653W        W83721  36.557   6.579  12.479
10654W        W83722  44.785  33.002  13.075
10655W        W83723  44.719  23.913   2.123
10656W        W83724  35.959  33.741   9.818
10657W        W83725  22.394  30.000   0.733
10658W        W83726   3.579  34.707  14.835
10659W        W83727  27.079   3.720   4.783
10660W        W83728  44.411  14.908   2.345
10661W        W83729  44.466  22.630   3.813
10662W        W83730   3.333   1.867  10.852
10663W        W83731  21.035  26.997  10.933
10664W        W83732   9.002  11.478   3.155
10665W        W83733   5.356   0.980   0.267
10666W        W83734  22.933   4.517  10.164
10667W        W83735   7.594  12.318   3.233
10668W        W83736   5.986  35.872   3.691
10669W        W83737  25.748  42.994   2.897
10670W        W83738  24.147  37.689   2.523
10671W        W83739  25.664  33.577  12.405
10672W        W83740  18.350  10.495  10.947
10673W        W83741  39.339   3.368   1.492
10674W        W83742  33.391  35.576  13.122
10675W        W83743  17.204  21.210  11.190
10676W        W83744  19.888   3.236   1.796
10677W        W83745  37.291  17.866  11.154
10678W        W83746  37.321  24.240  12.201
10679W        W83747  13.381   4.287   4.114
10680W        W83748  29.817  13.078  11.854
10681W        W83749  28.479   4.545   3.333
10682W        W83750   0.244   7.669  11.091
10683W        W83751  11.670  20.054  12.189
10684W        W83752  24.618  31.013   3.825
10685W        W83753  31.411  44.796   3.059
10686W        W83754   1.983  37.515   3.712
10687W        W83755   1.230  36.484   4.114
10688W        W83756  23.222  27.373   4.061
10689W        W83757   6.242   7.711  14.464
10690W        W83758  11.639  22.434   1.216
10691W        W83759  41.499  34.032   3.815
10692W        W83760   0.774  42.486   4.133
10693W        W83761  39.765  23.816  14.838
10694W        W83762   4.216   2.330   1.490
10695W        W83763  34.390  13.948  12.089
10696W        W83764  19.396  14.362  13.316
10697W        W83765   3.458   9.144  14.377
10698W        W83766   9.556   2.381  10.464
10699W        W83767  23.966  40.123   3.621
10700W        W83768  38.847  39.273   3.685
10701W        W83769   6.808  10.341  11.613
10702W        W83770  34.130  13.836  13.761
10703W        W83771  41.260  20.126   2.599
10704W        W83772  17.239  44.982   4.360
10705W        W83773  27.319   9.211  14.289
10706W        W83774   6.240  38.526  12.856
10707W        W83775  37.107  39.533  14.022
10708W        W83776  18.586  43.677   1.445
10709W        W83777  31.057   4.223   4.612
10710W        W83778  38.019   3.807  13.032
10711W        W83779  43.233  32.482  13.928
10712W        W83780  36.568  33.796  10.407
10713W        W83781  41.357  33.838   1.759
10714W        W83782  14.298  14.858  11.543
10715W        W83783  25.956   3.263  13.778
10716W        W83784  13.089  33.047   0.213
10717W        W83785  19.164  26.865   0.036
10718W        W83786   1.345  11.364   2.346
10719W        W83787  12.241  33.110   0.229
10720W        W83788  17.420  10.860   0.411
10721W        W83789  37.436   1.789   4.584
10722W        W83790   8.279  40.042   0.944
10723W        W83791  22.114  38.634  11.565
10724W        W83792  32.491  25.468   3.614
10725W        W83793  12.124  16.894   2.096
10726W        W83794  31.482   3.255   0.916
10727W        W83795   4.639  12.671  12.900
10728W        W83796   0.749   9.592  12.932
10729W        W83797  26.793  19.707  14.999
10730W        W83798   2.910  38.454   2.687
10731W        W83799  25.547  38.798   3.335
10732W        W83800   5.835  17.272   2.971
10733W        W83801  28.690   4.848  12.977
10734W        W83802   6.306  20.264   1.417
10735W        W83803  30.149  15.648   4.931
10736W        W83804   9.997   0.619  10.145
10737W        W83805   3.972  39.314   0.052
10738W        W83806  19.718   5.259   3.259
10739W        W83807   1.302  42.465   4.168
10740W        W83808  24.075  20.301   3.759
10741W        W83809  26.080   6.821  12.877
10742W        W83810  40.844   7.961   2.234
10743W        W83811  11.761   6.886   2.430
10744W        W83812  39.187  44.797   5.404
10745W        W83813  39.242  23.747  14.117
10746W        W83814  32.407  39.922   2.841
10747W        W83815  34.814   7.966  12.794
10748W        W83816  23.184  28.605   3.291
10749W        W83817  15.335  26.478   1.306
10750W        W83818  43.784  24.437  12.852
10751W        W83819  23.937  26.203  14.414
10752W        W83820   6.943  27.973  11.923
10753W        W83821  31.895  24.465  11.183
10754W        W83822   9.366  27.022  12.536
10755W        W83823  33.289  34.366   4.785
10756W        W83824   9.615  30.558   3.642
10757W        W83825   4.469   7.795  11.166
10758W        W83826  20.084  39.068  12.570
10759W        W83827  35.333  31.256   1.651
10760W        W83828   0.010  17.641  14.006
10761W        W83829   9.084  17.046  10.225
10762W        W83830  44.274  37.052   1.771
10763W        W83831  40.329   2.301  10.814
10764W        W83832  13.104  42.900  12.450
10765W        W83833  11.940   6.855   4.362
10766W        W83834  12.149  17.650  14.595
10767W        W83835  26.485   6.647   2.298
10768W        W83836  23.214  35.861   0.451
10769W        W83837  14.069  44.566   3.664
10770W        W83838   0.738  21.662   1.926
10771W        W83839  21.120  31.202  11.078
10772W        W83840  16.402  41.452  13.832
10773W        W83841  24.965  35.450   2.837
10774W        W83842  14.942   9.448   0.162
10775W        W83843  20.993  27.729  10.177
10776W        W83844   8.299  16.300  12.803
10777W        W83845  44.982   7.952   2.219
10778W        W83846   7.810   0.801  14.868
10779W        W83847  11.252   1.715   3.678
10780W        W83848  33.554  30.974  10.745
10781W        W83849  12.585  36.425   3.111
10782W        W83850  15.586  36.211  10.165
10783W        W83851   2.912  20.125  13.933
10784W        W83852  25.088  15.579  11.103
10785W        W83853  28.990  28.154  12.673
10786W        W83854  35.797  24.755   2.323
10787W        W83855  29.485  24.452   1.890
10788W        W83856  26.990  13.418  12.755
10789W        W83857  12.917   1.764  13.922
10790W        W83858  35.072  21.527  13.931
10791W        W83859  25.590   9.615  13.413
10792W        W83860  35.505  27.437  14.848
10793W        W83861  40.422   5.374   2.486
10794W        W83862  39.326  31.564  11.218
10795W        W83863   7.937  24.008   0.907
10796W        W83864  39.940  38.908   0.061
10797W        W83865  10.642   4.965   4.144
10798W        W83866  33.310  34.992   0.593
10799W        W83867  39.405  26.293  11.466
10800W        W83868  18.163  33.934   3.108
10801W        W83869  29.467  27.887  13.394
10802W        W83870   0.693  28.130  12.070
10803W        W83871  44.289  13.132   0.313
10804W        W83872  41.320  10.242   4.441
10805W        W83873  12.831  36.011   0.827
10806W        W83874  33.566   2.352  14.949
10807W        W83875  28.587   4.899  12.078
10808W        W83876   9.184  43.038   4.569
10809W        W83877  36.615  13.842  13.688
10810W        W83878  27.972  34.441  12.611
10811W        W83879  37.451  34.955   4.643
10812W        W83880  10.714  20.796  14.779
10813W        W83881   3.806   2.224  13.363
10814W        W83882  24.257  44.300   1.835
10815W        W83883  17.581   0.602  10.813
10816W        W83884  41.043   1.695   4.799
10817W        W83885  16.116   1.405   3.365
10818W        W83886  27.986  16.583   0.222
10819W        W83887  30.447   2.985   2.751
10820W        W83888  35.469  23.272  12.068
10821W        W83889   4.748  16.173   0.359
10822W        W83890  22.989  32.133  13.028
10823W        W83891  16.952  32.990   1.435
10824W        W83892  17.201  20.578   4.163
10825W        W83893  11.122  36.418   0.825
10826W        W83894  35.494  14.434  13.489
10827W        W83895   7.697  22.782   5.075
10828W        W83896  41.396  20.154  11.587
10829W        W83897  18.856  13.511  10.653
10830W        W83898  19.587   8.318   4.770
10831W        W83899  14.572  42.771  13.477
10832W        W83900  30.899  22.677   0.927
10833W        W83901   6.741  28.879  14.752
10834W        W83902   3.171  20.146   3.301
10835W        W83903  16.315  27.437   2.663
10836W        W83904  16.703  26.477  13.914
10837W        W83905  26.131  32.034   0.103
10838W        W83906  26.425  29.506  14.328
10839W        W83907  17.950  38.166  10.713
10840W        W83908  25.311  26.958   4.867
10841W        W83909  29.247  44.376  12.860
10842W        W83910  20.559  17.726  13.409
10843W        W83911  13.077  42.688   3.728
10844W        W83912  23.974  38.956  10.050
10845W        W83913  30.128   2.367   2.439
10846W        W83914  31.438  33.040   1.767
10847W        W83915  40.416  44.569   1.276
10848W        W83916  11.235  44.938  14.077
10849W        W83917  21.522  40.351  10.658
10850W        W83918   2.350  27.091   4.548
10851W        W83919  24.055  19.998   0.874
10852W        W83920  18.783  10.271  11.181
10853W        W83921   2.158  38.206  11.952
10854W        W83922   3.377  42.811   4.499
10855W        W83923  13.215  38.395  14.064
10856W        W83924  28.985  40.459   2.765
10857W        W83925  28.340  42.130  11.599
10858W        W83926   2.376  32.572  11.824
10859W        W83927  38.128  26.165   2.632
10860W        W83928  40.293   5.829   1.915
10861W        W83929   3.778  11.145  13.755
10862W        W83930  17.924   4.540  10.027
10863W        W83931  24.118  43.432   3.916
10864W        W83932  20.039  11.694  13.288
10865W        W83933  43.601   3.254   4.602
10866W        W83934  40.048  25.350   1.273
10867W        W83935   9.611   4.883   2.320
10868W        W83936  44.915  11.043   2.337
10869W        W83937   5.844  41.923  12.305
10870W        W83938  33.560  14.149  11.251
10871W        W83939  16.859  14.231  12.941
10872W        W83940   6.292   5.720  10.950
10873W        W83941  10.062  19.470   0.288
10874W        W83942  18.496  33.470   3.821
10875W        W83943  36.061  44.017   2.251
10876W        W83944  11.774  37.869   2.663
10877W        W83945  39.178   6.242   0.372
10878W        W83946  33.865  17.505  13.405
10879W        W83947  23.454  27.020  11.618
10880W        W83948  23.247  13.327   1.532
10881W        W83949  36.508   8.894  11.011
10882W        W83950  26.482  34.505   0.693
10883W        W83951  36.540   2.943  14.372
10884W        W83952  11.656  33.825  10.713
10885W        W83953  30.405  33.188  10.800
10886W        W83954  27.076  40.325   1.381
10887W        W83955  34.632  17.769   1.236
10888W        W83956  13.016  25.937  11.961
10889W        W83957  26.153  32.163  11.053
10890W        W83958  19.007  32.427   4.479
10891W        W83959  27.810  27.124   0.555
10892W        W83960  31.614  16.270  11.954
10893W        W83961  21.991  10.918   1.250
10894W        W83962  34.449   9.861   1.426
10895W        W83963  33.094  17.591   3.681
10896W        W83964  35.078  23.893   0.315
10897W        W83965  20.301  44.238  12.468
10898W        W83966  24.416  22.603  12.434
10899W        W83967  30.531  39.890  12.443
10900W        W83968   6.329  36.537  14.033
10901W        W83969  22.965   1.978   0.519
10902W        W83970   7.242  16.152  12.384
10903W        W83971  32.838  36.794  12.853
10904W        W83972  35.042   6.242   2.795
10905W        W83973  23.044  20.684  14.823
10906W        W83974   0.415  40.265   2.772
10907W        W83975   5.229  22.824   4.566
10908W        W83976  14.271  43.850   1.473
10909W        W83977  32.612  36.057  11.617
10910W        W83978  40.994  17.919   0.047
10911W        W83979  18.097  44.009   1.367
10912W        W83980  10.305  33.367  13.985
10913W        W83981  14.671   0.198  13.323
10914W        W83982   9.463  30.011  13.060
10915W        W83983  12.798  34.824   0.368
10916W        W83984  34.631   1.240   0.164
10917W        W83985  20.084  42.738  13.473
10918W        W83986   8.857  25.507  11.841
10919W        W83987  40.409  28.630  12.415
10920W        W83988  24.950  28.370   4.101
10921W        W83989   4.236  30.463  13.468
10922W        W83990  14.376  34.492  12.008
10923W        W83991   9.483  39.572   5.568
10924W        W83992  14.441  25.392  13.893
10925W        W83993  41.273  26.040  12.089
10926W        W83994  14.733  28.107  14.174
10927W        W83995   9.812  38.740  10.869
10928W        W83996  29.401  43.335  11.984
10929W        W83997  37.843  37.212   2.289
10930W        W83998  26.478  40.827  14.365
10931W        W83999   6.975   5.899   3.627
10932W        W84000  18.841  17.044   3.211
10933W        W84001  15.277   3.375  10.983
10934W        W84002  34.311  33.822  13.507
10935W        W84003  20.317  27.104  12.430
10936W        W84004  26.687  18.426   3.231
10937W        W84005  24.231  35.662  14.751
10938W        W84006  32.686  23.197   0.370
10939W        W84007  17.311  13.707  14.016
10940W        W84008   0.833  39.638  11.197
10941W        W84009  35.024   2.683   4.092
10942W        W84010   0.585   5.942   0.911
10943W        W84011  39.532  10.129  11.118
10944W        W84012   3.852  44.987   4.676
10945W        W84013  15.141  29.214   0.886
10946W        W84014  37.378  22.734   0.343
10947W        W84015  18.795  22.763   3.747
10948W        W84016  19.500  23.081   2.226
10949W        W84017  10.162   7.315   4.803
10950W        W84018   5.981  35.721   0.997
10951W        W84019  33.057  30.686   0.472
10952W        W84020  28.268  10.684   4.973
10953W        W84021  23.586  43.279  13.389
10954W        W84022   3.236  20.156   0.683
10955W        W84023  27.755   7.744   4.878
10956W        W84024  30.114  43.765   0.313
10957W        W84025  17.362  29.976  13.756
10958W        W84026  37.617  16.974  13.074
10959W        W84027   7.724  24.681   4.703
10960W        W84028  32.888  41.704   1.214
10961W        W84029  30.065  14.810  14.923
10962W        W84030   0.566  20.733  14.668
10963W        W84031  13.461  17.815   2.087
10964W        W84032  32.717  33.726  11.366
10965W        W84033  35.459  27.983   1.939
10966W        W84034  20.907   8.731   4.259
10967W        W84035  12.427  18.118  14.286
10968W        W84036  18.793  18.345   2.837
10969W        W84037  34.730   8.328  12.082
10970W        W84038  36.807  39.214  11.669
10971W        W84039   9.229   5.161  10.678
10972W        W84040  22.306   8.714   0.685
10973W        W84041  14.540   4.746  13.092
10974W        W84042  22.033   8.123   1.783
10975W        W84043  34.364  25.072  14.083
10976W        W84044  10.290   8.136  11.188
10977W        W84045  12.097  20.453  11.139
10978W        W84046  31.396   5.824   0.366
10979W        W84047  10.189  13.834  10.895
10980W        W84048   0.183  41.913   4.663
10981W        W84049  44.856   0.837   4.744
10982W        W84050  43.259   5.736  12.799
10983W        W84051  28.736  13.798   3.760
10984W        W84052   7.628  31.269  13.115
10985W        W84053  24.611  14.812  13.185
10986W        W84054  17.538  35.858  13.552
10987W        W84055  39.503  35.908  12.261
10988W        W84056   0.757  32.383   2.735
10989W        W84057  26.658   7.786   3.963
10990W        W84058   5.911  27.103  13.676
10991W        W84059  22.299   7.231  12.993
10992W        W84060  44.946   0.104  11.565
10993W        W84061  43.870  35.416   3.385
10994W        W84062   6.303  43.254  14.155
10995W        W84063  30.514  36.995   2.460
10996W        W84064  12.467   9.722  12.218
10997W        W84065  30.878  40.746  13.073
10998W        W84066  32.208  42.529   2.725
10999W        W84067  18.437  44.910  13.739
11000W        W84068   9.365  12.729   4.685
11001W        W84069  41.020  24.136  10.648
11002W        W84070  27.716   2.273   2.705
11003W        W84071  24.781  13.104  14.393
11004W        W84072  11.450   7.306   3.569
11005W        W84073   2.018   5.765   1.809
11006W        W84074  12.314  11.684   0.883
11007W        W84075   4.220  36.961  11.580
11008W        W84076  14.300   2.981  13.755
11009W        W84077  29.236  13.772   4.688
11010W        W84078   5.577  26.030  14.066
11011W        W84079  13.635   3.906   4.357
11012W        W84080  41.526   5.444   3.795
11013W        W84081  28.229   5.480   0.674
11014W        W84082  43.960  27.902  12.880
11015W        W84083   3.412  33.295  14.795
11016W        W84084  15.301  25.014  10.390
11017W        W84085  44.220  20.960   4.293
11018W        W84086   5.032  11.605   5.174
11019W        W84087  20.296  39.922  14.890
11020W        W84088  37.909  11.095  11.627
11021W        W84089  43.268  26.639  11.991
11022W        W84090   4.726  16.429  13.329
11023W        W84091   4.382   2.902   2.081
11024W        W84092  30.169   7.237   4.546
11025W        W84093  11.838  32.618  12.541
11026W        W84094  11.732   5.797   1.928
11027W        W84095  14.651  39.820  11.504
11028W        W84096  27.918  37.310  11.993
11029W        W84097  43.778  38.865  14.771
11030W        W84098  24.865   9.753  13.150
11031W        W84099   7.687  13.799  10.722
11032W        W84100  21.451   1.919  12.141
11033W        W84101   2.933  38.930   0.937
11034W        W84102   6.826  17.495   0.657
11035W        W84103  42.918  15.055  12.036
11036W        W84104   1.319  39.367   2.946
11037W        W84105  18.217  33.481   3.348
11038W        W84106  28.538  33.891  14.359
11039W        W84107   4.967  38.331  10.457
11040W        W84108  12.221   0.762   1.523
11041W        W84109  29.962   4.948   0.673
11042W        W84110  18.060  36.470  11.241
11043W        W84111  37.496  30.360  10.300
11044W        W84112  32.347  13.386   3.833
11045W        W84113   5.821  33.839   1.020
11046W        W84114   8.592  19.194  14.474
11047W        W84115   3.252  18.006   3.774
11048W        W84116  11.330  20.751   1.301
11049W        W84117   8.403  23.111  11.316
11050W        W84118  27.716  20.103   2.198
11051W        W84119   0.030  13.326  11.577
11052W        W84120  12.122   7.590   0.847
11053W        W84121   8.305  35.638  13.602
11054W        W84122   7.848  29.874   1.485
11055W        W84123   3.855  30.712   3.569
11056W        W84124   8.431   6.990   1.016
11057W        W84125   3.374  29.410   0.949
11058W        W84126  43.745  19.970   0.968
11059W        W84127  37.358  18.544  10.712
11060W        W84128  21.176   5.621  10.074
11061W        W84129  28.348  31.193   4.199
11062W        W84130  25.566  30.400   3.591
11063W        W84131  43.406  40.899   4.163
11064W        W84132  18.776  26.746   2.664
11065W        W84133  36.044  13.416  10.920
11066W        W84134  35.405  37.306   0.414
11067W        W84135  18.719  35.533   1.565
11068W        W84136  31.639   1.683   4.570
11069W        W84137  31.896  29.142   1.906
11070W        W84138  28.719  32.680   4.310
11071W        W84139  16.247   0.830  11.744
11072W        W84140   2.703  29.408  11.183
11073W        W84141   8.812  14.409   0.960
11074W        W84142  29.114  13.583  11.967
11075W        W84143  11.425   9.790   2.567
11076W        W84144   4.297  19.556  12.989
11077W        W84145   3.486  17.064  12.036
11078W        W84146  17.852   2.325   3.781
11079W        W84147  28.567  41.854   0.052
11080W        W84148   6.435  19.752  11.885
11081W        W84149  10.246  28.592   3.110
11082W        W84150  38.058  17.719  10.670
11083W        W84151  40.828  39.295  14.765
11084W        W84152  13.458  29.001   2.308
11085W        W84153  18.156  36.419  12.714
11086W        W84154  12.831  41.429  11.556
11087W        W84155   4.336  16.154   2.142
11088W        W84156  33.783   2.880  10.642
11089W        W84157  22.212   2.401   1.383
11090W        W84158  20.004  23.742   2.803
11091W        W84159  18.499  36.003  12.843
11092W        W84160  36.467  20.062   4.595
11093W        W84161  39.100   8.480  13.854
11094W        W84162  42.488  19.152  14.342
11095W        W84163  19.085  15.354   2.925
11096W        W84164  15.696  18.125  11.609
11097W        W84165  31.318  18.806   3.230
11098W        W84166  25.549  18.843   2.938
11099W        W84167  16.099  29.362  13.319
11100W        W84168   7.613   4.743   0.062
11101W        W84169  11.830  23.770  13.921
11102W        W84170  31.943  44.250   0.847
11103W        W84171  14.685  22.710  12.078
11104W        W84172  30.987  16.028  10.687
11105W        W84173  31.150  14.570   2.349
11106W        W84174  42.453  38.310  11.166
11107W        W84175   4.340  39.308   0.415
11108W        W84176   3.342  30.390   2.758
11109W        W84177   6.450  10.302  14.972
11110W        W84178  27.989  10.430   2.327
11111W        W84179  25.012   3.246  13.792
11112W        W84180  31.916  22.929   1.032
11113W        W84181  11.956  18.170   3.819
11114W        W84182  12.372   9.852  14.121
11115W        W84183   1.948  28.404  14.459
11116W        W84184  33.307  20.579  12.798
11117W        W84185   4.379  39.015   1.914
11118W        W84186  38.772   1.955   0.335
11119W        W84187  10.388  26.126  12.407
11120W        W84188   5.392   1.502  14.312
11121W        W84189   8.901   8.390   0.754
11122W        W84190  14.585  32.451  13.581
11123W        W84191  18.487   9.224  11.992
11124W        W84192  27.880  40.955  11.305
11125W        W84193  22.148   3.213   2.963
11126W        W84194  29.617  38.418  12.145
11127W        W84195   0.751   5.783   1.357
11128W        W84196  35.827   2.616   2.184
11129W        W84197   2.455  15.664  10.730
11130W        W84198  12.864  20.270   1.246
11131W        W84199  10.147  26.102  14.886
11132W        W84200  36.851   5.362  11.942
11133W        W84201  30.577   4.827  13.583
11134W        W84202  28.447  14.360   0.850
11135W        W84203  27.427  37.932   2.975
11136W        W84204  23.754   4.759  13.865
11137W        W84205  34.492  22.148  10.791
11138W        W84206  40.495   1.793  13.569
11139W        W84207  37.379  26.561   0.368
11140W        W84208  44.719  14.070  12.062
11141W        W84209   2.337  42.110   1.669
11142W        W84210   2.781  34.345   3.245
11143W        W84211  23.752  18.667   4.645
11144W        W84212  38.815  23.304  12.033
11145W        W84213  22.884   2.451   0.266
11146W        W84214   4.772  35.844  12.465
11147W        W84215  14.697  31.203   2.904
11148W        W84216   3.734  37.248  10.980
11149W        W84217  31.050  22.976   1.783
11150W        W84218  12.927   9.223  13.351
11151W        W84219  18.049  14.167   1.818
11152W        W84220  39.120  32.478  13.739
11153W        W84221  37.924   6.394   0.789
11154W        W84222  24.416  33.598   0.889
11155W        W84223  19.004   1.963  14.903
11156W        W84224   1.822  12.683  12.940
11157W        W84225   6.701  36.354   3.704
11158W        W84226   0.289  38.259   3.871
11159W        W84227  23.078  11.194  10.604
11160W        W84228   1.960  10.896  13.486
11161W        W84229  11.321  29.216   1.651
11162W        W84230  34.612  35.875  13.037
11163W        W84231  29.612   0.421   1.601
11164W        W84232  12.663  13.257  12.039
11165W        W84233  17.536  24.632  12.410
11166W        W84234  22.089  14.067   3.613
11167W        W84235  27.357  42.322  12.489
11168W        W84236  22.151   6.248  11.482
11169W        W84237  40.876  33.826  11.866
11170W        W84238  22.641  11.319   3.671
11171W        W84239  14.148  26.885  10.852
11172W        W84240  19.493  43.776   1.282
11173W        W84241  23.804  29.425   0.374
11174W        W84242   3.404  26.545  12.283
11175W        W84243  11.825  31.569   0.363
11176W        W84244  30.446  23.647  12.252
11177W        W84245  32.485   0.898   2.841
11178W        W84246  23.673  16.210   1.000
11179W        W84247   2.419   9.560  13.515
11180W        W84248  20.286  39.407   2.170
11181W        W84249  14.553  25.116  12.984
11182W        W84250   0.291   0.415  10.516
11183W        W84251  24.414   1.047   1.765
11184W        W84252   2.505  16.061  12.316
11185W        W84253   3.185  13.957  12.008
11186W        W84254  31.965  32.529  10.618
11187W        W84255  10.214  31.613  13.569
11188W        W84256  22.549  38.438   4.538
11189W        W84257   4.418  34.009   1.402
11190W        W84258  11.600  27.091   4.101
11191W        W84259  33.970  44.395   4.545
11192W        W84260  28.475  19.038   3.392
11193W        W84261  10.795  13.120   1.393
11194W        W84262   9.039  23.023   3.190
11195W        W84263  39.964  13.072   0.754
11196W        W84264   2.498   5.332   2.310
11197W        W84265  16.799  28.355  14.649
11198W        W84266   1.772  25.488  13.376
11199W        W84267   6.518   0.830  13.134
11200W        W84268  29.423  24.089   2.804
11201W        W84269   0.558  34.509   2.966
11202W        W84270  32.390  29.160  12.860
11203W        W84271   9.337  41.940  10.898
11204W        W84272  33.085  20.037  14.821
11205W        W84273   2.262  42.280  13.995
11206W        W84274  11.596  38.865  14.812
11207W        W84275  15.658  38.109   3.724
11208W        W84276  30.490  15.315  14.475
11209W        W84277  23.736  16.817  11.923
11210W        W84278  40.851  28.186   1.823
11211W        W84279  43.270   7.769  14.698
11212W        W84280  14.864   8.437   2.551
11213W        W84281  26.809  43.999   3.584
11214W        W84282  24.855  25.506  11.469
11215W        W84283   5.299  40.854   4.296
11216W        W84284  24.488   9.428  10.508
11217W        W84285   0.211  12.309  10.744
11218W        W84286   2.310  32.597  11.295
11219W        W84287  27.693  13.127  10.646
11220W        W84288  39.144  14.058   2.839
11221W        W84289  18.002  43.240   3.699
11222W        W84290  20.042  44.448  12.024
11223W        W84291  27.148   2.095   1.331
11224W        W84292  14.071  19.087   3.176
11225W        W84293  20.293   7.711   3.640
11226W        W84294  19.861   4.922   0.529
11227W        W84295  12.256   5.317   1.406
11228W        W84296   0.327  10.045  13.740
11229W        W84297  15.832   6.914  12.048
11230W        W84298  33.014  35.489   3.864
11231W        W84299   2.473  33.030  12.619
11232W        W84300  14.592  35.977   0.816
11233W        W84301  38.574  29.393  11.579
11234W        W84302  35.050  15.121   0.012
11235W        W84303  31.367  21.952   0.300
11236W        W84304   5.287   2.148  13.312
11237W        W84305  19.656  19.772   1.009
11238W        W84306  29.651  26.075   4.619
11239W        W84307  30.683  24.945   4.247
11240W        W84308  38.064   0.519  11.498
11241W        W84309  43.054   2.741  14.712
11242W        W84310   3.631  39.533   0.899
11243W        W84311  24.153  29.718   2.985
11244W        W84312   4.500  12.673   1.776
11245W        W84313   8.756   9.957   3.347
11246W        W84314  21.833  17.629   3.368
11247W        W84315   6.156   0.851   3.942
11248W        W84316  25.802  42.836  14.839
11249W        W84317  18.189  25.217   2.918
11250W        W84318  29.570  16.133  11.064
11251W        W84319   9.295  21.194  11.579
11252W        W84320  29.516  32.625  14.912
11253W        W84321  29.900  26.630  12.490
11254W        W84322  34.476  19.306  13.996
11255W        W84323  26.144  38.982   0.526
11256W        W84324   2.816   6.943  10.604
11257W        W84325  36.469   2.139  13.732
11258W        W84326  34.077  31.363   1.814
11259W        W84327  37.394  41.932   0.465
11260W        W84328  39.556  11.295   0.341
11261W        W84329  23.734  39.468   0.449
11262W        W84330  25.710  19.738  13.633
11263W        W84331  42.916  15.985   0.818
11264W        W84332  35.471  27.101   4.929
11265W        W84333   1.845  21.337   5.110
11266W        W84334  41.909  35.916   5.009
11267W        W84335  36.426  11.306   3.411
11268W        W84336  38.619  11.615   4.028
11269W        W84337  12.192  37.863   3.259
11270W        W84338  24.255  23.336  12.489
11271W        W84339  30.578  37.168   1.982
11272W        W84340  38.086   3.889   1.853
11273W        W84341  40.138   9.270   4.513
11274W        W84342  33.405   3.724   3.231
11275W        W84343  23.935  30.768  13.466
11276W        W84344  22.482  10.743  13.419
11277W        W84345  34.740  32.120  10.665
11278W        W84346  41.491  11.905  14.410
11279W        W84347  11.681  29.384  11.149
11280W        W84348  29.067  29.134  11.401
11281W        W84349  18.727  40.897  12.909
11282W        W84350   0.063  24.127  10.670
11283W        W84351   9.649   8.239  11.903
11284W        W84352   3.930  41.854  14.643
11285W        W84353  35.913  25.156   0.696
11286W        W84354  25.004   6.369  12.292
11287W        W84355  12.086   7.425  13.915
11288W        W84356   8.740  21.242  10.742
11289W        W84357  19.471  37.898   2.319
11290W        W84358   4.753  39.881   3.697
11291W        W84359   7.853  22.326   4.865
11292W        W84360  23.436  23.473  11.682
11293W        W84361  15.323  27.479   1.503
11294W        W84362  17.297  36.312   3.804
11295W        W84363   7.953  42.869  13.370
11296W        W84364  12.406  24.232  11.193
11297W        W84365  15.207  18.093  11.210
11298W        W84366  16.529  26.105   0.849
11299W        W84367   0.113  17.711  13.052
11300W        W84368  29.707  42.152  13.209
11301W        W84369  35.424   0.817   0.052
11302W        W84370  25.453  39.658  12.902
11303W        W84371  40.257  17.085  12.401
11304W        W84372  44.566  28.562  13.974
11305W        W84373  16.966  33.516   0.833
11306W        W84374  23.156  29.405   2.820
11307W        W84375   7.792  12.909  13.217
11308W        W84376  21.147  16.225  11.363
11309W        W84377   6.910  35.149  14.865
11310W        W84378  18.907   3.670   1.034
11311W        W84379  17.337  37.472   1.789
11312W        W84380  42.406  42.424  13.403
11313W        W84381  14.129  26.074   3.760
11314W        W84382   3.512  28.525  11.545
11315W        W84383   3.569   1.774   2.422
11316W        W84384  26.824  39.776   4.268
11317W        W84385  20.911  34.946  10.575
11318W        W84386  25.818   8.892  11.264
11319W        W84387  28.585  32.487  12.733
11320W        W84388  37.488   1.267   1.342
11321W        W84389  15.391  36.227   3.831
11322W        W84390  26.543   7.714   0.733
11323W        W84391  38.046  28.443   3.437
11324W        W84392  16.538  37.293   1.371
11325W        W84393   2.784  10.482   2.283
11326W        W84394  14.123  13.911   1.421
11327W        W84395  40.478  26.672  13.392
11328W        W84396  20.719  33.577  14.910
11329W        W84397  13.198  12.173   1.808
11330W        W84398   4.317  41.026  13.142
11331W        W84399  23.189  28.418  12.481
11332W        W84400  21.077   7.862   4.315
11333W        W84401  36.818  23.533   2.421
11334W        W84402  35.922  36.569   0.255
11335W        W84403  35.062   4.358   2.549
11336W        W84404  39.359  28.456  13.918
11337W        W84405  23.598  33.286   4.280
11338W        W84406  19.450  40.768   2.863
11339W        W84407   2.938  43.272  14.465
11340W        W84408  19.002  23.268   0.617
11341W        W84409  25.056  33.072  11.105
11342W        W84410  13.759  35.801  13.397
11343W        W84411  35.629  15.597  10.602
11344W        W84412  23.603  22.817  12.990
11345W        W84413   2.845  16.625   4.529
11346W        W84414  40.754  37.783  12.509
11347W        W84415  34.592  22.911  13.001
11348W        W84416  32.555  21.900  13.905
11349W        W84417   2.219  32.020  11.047
11350W        W84418  14.382  30.852  14.414
11351W        W84419  22.618   0.895  12.360
11352W        W84420  12.323  42.434  13.177
11353W        W84421  18.175   6.160   4.625
11354W        W84422   8.897  29.221  11.912
11355W        W84423  16.642   1.498   0.933
11356W        W84424  40.625  35.460  13.416
11357W        W84425  36.328  24.540  13.584
11358W        W84426  26.051  25.684   3.240
11359W        W84427  42.643  29.219  11.938
11360W        W84428   6.015  30.506   3.193
11361W        W84429  32.046  20.899  13.608
11362W        W84430  14.943  10.714  13.892
11363W        W84431  42.694  35.066  12.479
11364W        W84432  40.246  20.738  13.456
11365W        W84433  13.688  22.624  10.617
11366W        W84434  44.230  36.993  14.997
11367W        W84435  43.919  30.903   0.574
11368W        W84436  38.869   9.600   2.427
11369W        W84437   1.148  19.781   0.003
11370W        W84438   5.066  41.015  13.642
11371W        W84439  37.110  30.022  13.939
11372W        W84440   5.717   4.308   4.592
11373W        W84441   3.680  32.067   3.169
11374W        W84442  40.836  38.609   0.819
11375W        W84443  42.295  37.357  11.567
11376W        W84444  24.349  31.955  11.562
11377W        W84445  17.671  26.654   3.254
11378W        W84446  31.542   7.749  13.599
11379W        W84447  25.902  11.657  11.424
11380W        W84448  28.969   6.322  12.941
11381W        W84449  40.478  35.794   3.355
11382W        W84450  44.013  17.881   2.608
11383W        W84451  22.552   0.901  14.821
11384W        W84452  15.745  27.417  11.973
11385W        W84453   6.436  14.267  13.934
11386W        W84454   8.424  28.860   2.465
11387W        W84455   5.312  42.735  12.649
11388W        W84456  18.573   8.290   2.826
11389W        W84457  23.693  36.112  13.008
11390W        W84458  42.334  16.085  12.188
11391W        W84459  22.459  24.567  12.890
11392W        W84460   4.769  44.566  12.148
11393W        W84461  21.704  28.561  11.630
11394W        W84462  38.983  16.481  11.192
11395W        W84463   5.409  13.752  10.753
11396W        W84464   9.868  12.716   0.303
11397W        W84465  16.041  26.659  12.611
11398W        W84466  32.253  42.671   3.228
11399W        W84467  22.289   7.466  11.236
11400W        W84468  43.786  26.695   1.672
11401W        W84469  14.246  21.643   4.155
11402W        W84470  30.682   6.181   2.857
11403W        W84471  43.349   5.063   0.493
11404W        W84472  43.850  22.341  14.338
11405W        W84473  28.713  34.420  12.949
11406W        W84474  40.701  16.048  12.651
11407W        W84475  42.321  16.595  10.976
11408W        W84476   7.074  37.211  10.766
11409W        W84477  36.247  14.876   0.253
11410W        W84478  13.372   7.334   1.163
11411W        W84479  22.298  25.545   3.896
11412W        W84480  29.677  10.145  12.742
11413W        W84481  31.084  42.046   3.710
11414W        W84482  43.489  18.195   1.904
11415W        W84483  13.794  23.688   0.496
11416W        W84484  30.925   3.314   0.240
11417W        W84485  27.178  37.056   4.573
11418W        W84486  15.055  14.632  14.587
11419W        W84487  40.217   0.868   2.077
11420W        W84488  16.179  19.568  12.532
11421W        W84489   9.464  40.179  12.488
11422W        W84490  22.107   7.647   4.308
11423W        W84491   6.824  24.150   4.431
11424W        W84492  18.462   6.315   2.179
11425W        W84493  30.478  14.006  11.156
11426W        W84494  16.878  41.979  14.963
11427W        W84495  23.145  25.592  13.503
11428W        W84496  29.696   9.493   2.268
11429W        W84497  43.768   9.729  10.741
11430W        W84498   6.481   1.440   4.937
11431W        W84499  11.850  15.756   4.870
11432W        W84500  33.288   3.392  13.387
11433W        W84501  26.654  30.164   2.147
11434W        W84502   4.848   4.320  14.450
11435W        W84503   7.371  28.451  13.613
11436W        W84504   3.870  43.017  12.520
11437W        W84505  39.544  21.154   4.610
11438W        W84506  20.652  34.583   1.830
11439W        W84507   9.345  27.175   4.619
11440W        W84508  44.739  17.141   3.676
11441W        W84509  13.183  42.417   1.387
11442W        W84510  41.875  23.925   0.520
11443W        W84511  33.112   7.215   0.021
11444W        W84512  14.260  14.739   4.848
11445W        W84513  44.938   7.795   3.585
11446W        W84514   1.966  33.123  14.570
11447W        W84515   0.942  36.784   2.868
11448W        W84516   2.543  28.362  10.404
11449W        W84517  42.755   9.420   1.793
11450W        W84518  12.987  41.448   4.792
11451W        W84519   7.281  19.211   1.044
11452W        W84520  23.314  42.520  12.103
11453W        W84521  19.720  16.230  13.032
11454W        W84522  23.657   6.843  13.485
11455W        W84523  42.496  43.387   1.241
11456W        W84524  25.540  36.106   0.344
11457W        W84525  30.480  10.086   3.777
11458W        W84526  30.598  11.041  14.434
11459W        W84527  23.240  44.047   1.299
11460W        W84528   1.047  37.903  14.379
11461W        W84529  43.021  41.540   0.541
11462W        W84530  23.222  26.057   4.419
11463W        W84531   2.893  20.554   4.383
11464W        W84532  14.078  37.805   0.852
11465W        W84533  32.116  21.000  14.519
11466W        W84534  16.073  35.366   4.939
11467W        W84535  32.046  27.541  11.016
11468W        W84536  26.409   3.840  13.526
11469W        W84537  15.352  14.193  13.850
11470W        W84538  17.257  26.752   5.049
11471W        W84539  38.233  10.115  11.487
11472W        W84540  38.374  17.096   4.681
11473W        W84541  17.171  25.239  13.824
11474W        W84542  33.874  18.439   4.030
11475W        W84543  10.737  33.620  14.055
11476W        W84544  32.322  36.295  14.921
11477W        W84545  29.584  36.919   1.568
11478W        W84546  33.251  21.531  12.165
11479W        W84547   3.040  26.622   9.892
11480W        W84548  20.223  37.989   0.497
11481W        W84549  22.055  16.782   0.918
11482W        W84550  17.502  17.602   4.946
11483W        W84551  16.222  30.406   1.263
11484W        W84552  39.523  13.259  13.666
11485W        W84553  23.767   3.192  10.288
11486W        W84554  38.473   4.965  14.289
11487W        W84555  35.319   8.868   2.704
11488W        W84556  33.596  18.598  12.443
11489W        W84557  20.692  17.597  14.829
11490W        W84558  43.062  18.476  13.321
11491W        W84559  19.989  13.571   1.482
11492W        W84560  35.626  11.313   0.831
11493W        W84561  30.024  15.561   2.633
11494W        W84562  40.770  21.520  12.917
11495W        W84563  32.221  19.761   1.051
11496W        W84564  15.216  43.840   0.597
11497W        W84565  14.025  22.619   4.544
11498W        W84566  18.261  11.901  13.033
11499W        W84567  24.590  35.875  10.444
11500W        W84568  32.133  24.803   1.123
11501W        W84569  39.904  44.835  10.663
11502W        W84570  26.655   1.874   4.534
11503W        W84571  34.970  20.551   2.731
11504W        W84572  20.102  42.008  10.519
11505W        W84573  25.935   1.422  11.975
11506W        W84574  40.209  43.591   1.550
11507W        W84575  39.840  31.638  11.134
11508W        W84576  16.314  31.218   0.829
11509W        W84577  15.291  23.597   0.292
11510W        W84578  38.333  10.277   2.171
11511W        W84579  11.268   7.125  12.567
11512W        W84580  13.914   3.840   0.293
11513W        W84581  40.642   4.366   1.709
11514W        W84582  39.127  15.787   0.783
11515W        W84583   4.614  32.615  12.159
11516W        W84584   5.736   5.890  13.094
11517W        W84585  37.828  14.758   1.429
11518W        W84586  16.545  20.174  12.002
11519W        W84587  16.335  31.602  12.082
11520W        W84588  13.258  23.741   2.789
11521W        W84589  20.183  10.882   0.800
11522W        W84590  37.473  31.933   1.266
11523W        W84591  40.509  35.673   2.818
11524W        W84592  38.204  37.115   1.767
11525W        W84593   4.255  20.273   0.356
11526W        W84594   2.554   5.893   0.937
11527W        W84595  38.748   6.362  12.779
11528W        W84596  39.320  30.386  12.863
11529W        W84597  25.347  18.084   0.543
11530W        W84598  17.392  11.297  13.020
11531W        W84599  40.566   1.733   2.651
11532W        W84600  35.876  37.263  14.546
11533W        W84601   1.323  16.887  11.198
11534W        W84602  17.309  10.169   2.370
11535W        W84603   7.887  26.941   1.851
11536W        W84604  19.755   4.518  12.138
11537W        W84605  23.239  32.854   3.855
11538W        W84606   3.895  31.561   4.221
11539W        W84607  36.304  31.901  14.198
11540W        W84608   7.928  43.518   0.672
11541W        W84609  17.733   9.796   4.591
11542W        W84610  10.152  27.595   4.174
11543W        W84611   1.293  22.699   2.172
11544W        W84612  26.499  33.276  14.805
11545W        W84613  36.143  37.878  13.434
11546W        W84614  24.053   8.189  10.940
11547W        W84615  42.311  40.862  11.934
11548W        W84616  31.673  24.638   4.507
11549W        W84617  30.392  22.567   0.908
11550W        W84618  16.634  24.706   1.874
11551W        W84619  28.477  36.521  11.925
11552W        W84620  25.053   2.478   0.986
11553W        W84621  15.788   4.830  13.293
11554W        W84622   3.423  33.444  11.448
11555W        W84623  31.068  38.626  13.961
11556W        W84624  33.123  11.872  14.273
11557W        W84625  17.194  31.261   3.177
11558W        W84626  14.682  27.285  11.480
11559W        W84627  39.259  25.663   1.712
11560W        W84628   7.922  23.750  11.067
11561W        W84629  15.182   7.335   3.247
11562W        W84630  26.391  20.306   4.175
11563W        W84631  33.450  18.048   2.174
11564W        W84632  43.274   5.897   3.588
11565W        W84633  25.150  18.995   4.427
11566W        W84634  16.217  38.533   0.256
11567W        W84635   2.571  18.054  11.300
11568W        W84636  25.720   1.201  14.415
11569W        W84637  33.514  24.714   4.273
11570W        W84638  42.775  41.381   2.723
11571W        W84639  12.046  22.165  14.387
11572W        W84640   6.887  26.316   1.775
11573W        W84641  11.571  21.573   1.550
11574W        W84642  21.206  11.333  13.225
11575W        W84643  19.278  42.965   4.570
11576W        W84644  43.821  36.810  13.187
11577W        W84645  35.399  24.102   3.650
11578W        W84646  41.879  35.556  12.887
11579W        W84647  29.096  38.452  11.926
11580W        W84648   1.439   4.172   2.303
11581W        W84649  33.533  25.184   2.163
11582W        W84650   3.918  29.239  11.080
11583W        W84651  17.526  12.840   2.047
11584W        W84652  38.602  39.566  14.521
11585W        W84653  27.293  19.687  11.199
11586W        W84654   0.503  16.862  13.144
11587W        W84655   5.993  37.819   0.829
11588W        W84656  21.069  37.481  12.511
11589W        W84657  31.349  27.535  13.091
11590W        W84658  19.930   3.627   3.669
11591W        W84659  10.787   6.482  12.956
11592W        W84660  22.153  34.645  11.080
11593W        W84661  31.368  28.053  10.990
11594W        W84662  21.215  10.227   1.921
11595W        W84663  27.828  13.837   0.781
11596W        W84664   7.530  43.745  12.925
11597W        W84665   3.775  14.314   4.569
11598W        W84666  20.025  14.288   2.247
11599W        W84667   1.655  20.926   2.149
11600W        W84668   6.203  30.624   4.077
11601W        W84669  32.505  19.705   5.119
11602W        W84670  23.730  23.275  12.040
11603W        W84671  13.787  44.166  11.150
11604W        W84672  19.852  42.585  12.112
11605W        W84673  15.776  24.254  11.917
11606W        W84674  27.383  36.934   3.328
11607W        W84675  32.392  41.045   1.813
11608W        W84676   9.282  25.137  14.830
11609W        W84677  18.202  35.457   1.186
11610W        W84678  27.289  40.541  12.932
11611W        W84679  41.328   4.207  14.853
11612W        W84680  35.575   1.240  12.548
11613W        W84681  30.382  42.181  13.013
11614W        W84682   1.783  15.225   3.910
11615W        W84683   0.883   8.214   3.451
11616W        W84684  35.313  26.538   2.817
11617W        W84685  27.618  28.327   2.422
11618W        W84686  41.892  14.764   1.777
11619W        W84687  41.927  39.668  13.429
11620W        W84688  11.543  10.806   2.414
11621W        W84689  15.844  35.539   0.319
11622W        W84690  27.151   7.328  14.697
11623W        W84691  34.379  35.603   4.070
11624W        W84692   0.214  29.842   2.342
11625W        W84693   9.964   3.186  12.436
11626W        W84694  16.962   6.512  11.560
11627W        W84695   9.333  42.528   4.663
11628W        W84696  32.083  15.779   0.848
11629W        W84697   7.836  21.532   0.461
11630W        W84698  11.170   6.895  12.118
11631W        W84699   3.944  17.298   0.491
11632W        W84700  28.193  32.460  11.445
11633W        W84701  19.820  11.097  12.583
11634W        W84702  18.616  42.511  13.413
11635W        W84703   7.557  20.636  11.546
11636W        W84704  38.036  31.927   3.679
11637W        W84705  33.994   8.301  10.797
11638W        W84706  17.283  18.088  14.985
11639W        W84707  25.362  10.221  14.045
11640W        W84708  23.972  33.352   0.952
11641W        W84709  32.682   9.853  11.133
11642W        W84710  42.532   4.150   3.326
11643W        W84711  19.748  32.910   0.870
11644W        W84712  17.034   3.495  14.129
11645W        W84713  19.250  16.129   4.576
11646W        W84714  35.487  18.276  12.896
11647W        W84715  18.738  28.432  13.589
11648W        W84716  36.423  35.259   4.401
11649W        W84717  27.348  38.856  14.979
11650W        W84718   0.345  28.076   0.701
11651W        W84719  23.373  18.991   4.527
11652W        W84720  11.203   5.734  13.001
11653W        W84721  34.228  17.649  13.773
11654W        W84722  31.606   5.738  13.456
11655W        W84723  22.228  18.097  12.526
11656W        W84724  23.687  43.703   4.121
11657W        W84725  22.004  15.173  11.211
11658W        W84726  35.938  18.403  11.191
11659W        W84727   6.789   0.774   1.038
11660W        W84728   5.841   9.325   0.489
11661W        W84729   7.292  40.772   3.359
11662W        W84730  16.091   8.112   4.100
11663W        W84731  13.833  24.678  12.565
11664W        W84732  26.399   8.385   2.738
11665W        W84733  27.978  16.513  11.489
11666W        W84734   7.617  43.275  14.503
11667W        W84735  44.006  16.609  11.483
11668W        W84736  20.037  44.356   4.962
11669W        W84737   6.279  31.668   3.122
11670W        W84738  19.468  13.260  12.820
11671W        W84739   0.899  23.416   0.553
11672W        W84740  34.918  39.997   1.218
11673W        W84741  32.444  33.718  14.912
11674W        W84742  35.131  20.749  13.425
11675W        W84743  41.600   6.357  13.336
11676W        W84744  44.875  14.661  11.225
11677W        W84745  24.493  13.141   4.292
11678W        W84746  24.137  16.445   3.194
11679W        W84747   5.475  43.888   4.001
11680W        W84748  25.998  24.697   3.063
11681W        W84749  39.525  13.696  11.960
11682W        W84750  33.417  28.133   1.303
11683W        W84751  41.352  13.083   0.020
11684W        W84752  24.596  26.481   1.612
11685W        W84753  39.557  25.004   0.733
11686W        W84754   9.628  44.302  10.611
11687W        W84755   2.378  37.929   0.447
11688W        W84756  36.014  21.895   1.181
11689W        W84757  21.061  34.319   0.965
11690W        W84758  18.040  39.789   1.435
11691W        W84759  30.910  35.292  11.880
11692W        W84760   5.024  41.867   4.288
11693W        W84761  31.286  10.516   0.390
11694W        W84762  34.871   5.710   3.633
11695W        W84763  35.028  12.995   2.630
11696W        W84764  40.818   2.924   1.925
11697W        W84765  38.941  29.492   2.209
11698W        W84766  26.315  10.358  13.874
11699W        W84767  28.179  11.864   1.351
11700W        W84768   5.041  33.725   3.781
11701W        W84769  24.194  15.117   1.650
11702W        W84770   3.402  44.391  13.362
11703W        W84771  25.146  31.942   1.066
11704W        W84772  14.967  16.688   4.042
11705W        W84773  27.002  29.657  13.501
11706W        W84774  14.339  12.580  11.661
11707W        W84775  35.473   4.207   4.105
11708W        W84776  36.879  14.663   4.137
11709W        W84777   1.324  15.597   4.610
11710W        W84778  13.727  29.269  11.281
11711W        W84779  41.006  41.571  14.346
11712W        W84780  32.355  23.577   1.330
11713W        W84781  10.726  29.532  12.996
11714W        W84782  38.819  35.051  10.184
11715W        W84783  30.410  16.546   3.916
11716W        W84784  20.312   1.206   1.504
11717W        W84785  19.638  44.321   2.059
11718W        W84786  14.821  37.916   4.280
11719W        W84787  35.468   4.077  14.363
11720W        W84788  36.080   8.605  11.092
11721W        W84789  30.824  23.593  12.598
11722W        W84790  43.944  14.596  13.998
11723W        W84791  32.462  20.291  12.844
11724W        W84792  19.154  23.530  12.025
11725W        W84793  36.054   2.941  14.118
11726W        W84794  16.739  35.975   1.703
11727W        W84795  22.004   2.351   4.626
11728W        W84796  20.701  13.852   4.173
11729W        W84797   8.622   1.522  11.536
11730W        W84798   1.660   2.206  14.879
11731W        W84799  27.261  10.037   3.229
11732W        W84800  41.461   8.999   0.320
11733W        W84801   7.262  11.272  13.320
11734W        W84802  34.413  40.773   2.662
11735W        W84803  21.470  42.778   5.265
11736W        W84804  26.461  40.835  13.012
11737W        W84805  24.752  24.016   4.545
11738W        W84806  39.922   3.172  12.478
11739W        W84807  32.063   7.849  13.521
11740W        W84808  10.175   1.202  10.700
11741W        W84809   1.681  15.706   2.707
11742W        W84810  17.036  37.481   1.325
11743W        W84811  13.810   0.747   2.420
11744W        W84812   0.213  44.939   2.849
11745W        W84813  30.695  11.778  13.285
11746W        W84814  44.086  12.189   1.021
11747W        W84815   0.509  17.726   1.140
11748W        W84816   5.459  20.782   4.521
11749W        W84817   3.583  29.231   1.427
11750W        W84818   7.260  12.782  12.098
11751W        W84819  21.711  31.085   2.145
11752W        W84820   9.266  41.465  14.750
11753W        W84821  31.475   8.217  13.307
11754W        W84822   4.239  21.662   1.130
11755W        W84823  29.491  28.046   1.891
11756W        W84824  10.731   9.673  12.919
11757W        W84825  28.503   9.093   0.023
11758W        W84826  44.472  25.464  14.544
11759W        W84827   7.788  28.480  12.168
11760W        W84828   2.494  14.457   2.244
11761W        W84829  29.510   8.210   3.100
11762W        W84830  33.078  22.553  10.579
11763W        W84831  41.855  25.106  13.591
11764W        W84832  13.692   4.271   0.516
11765W        W84833  14.690  44.658  14.521
11766W        W84834  28.944  25.493   3.234
11767W        W84835  44.063   6.149  13.512
11768W        W84836  20.103  15.258   3.099
11769W        W84837  24.025  15.467  12.486
11770W        W84838   0.983  11.694   1.620
11771W        W84839  28.712  14.330   3.205
11772W        W84840  25.939  34.590  11.497
11773W        W84841  28.884  13.881   1.904
11774W        W84842  36.529  12.310  14.039
11775W        W84843  29.448  16.262   3.928
11776W        W84844  11.748  40.051   4.467
11777W        W84845  13.757  24.198  14.276
11778W        W84846  29.604  37.537  10.723
11779W        W84847  44.852  31.204  10.615
11780W        W84848  33.094  15.204  14.885
11781W        W84849  29.623  38.043   0.186
11782W        W84850   5.707   1.983   4.351
11783W        W84851   1.517   1.545  11.603
11784W        W84852  10.396  21.186   4.129
11785W        W84853  34.407  39.932   1.133
11786W        W84854  18.770  22.511  14.956
11787W        W84855   9.858   8.940  13.202
11788W        W84856  13.658  22.424   2.842
11789W        W84857  16.803   9.904   0.116
11790W        W84858  16.216  25.340   0.374
11791W        W84859  11.147  19.266   1.865
11792W        W84860  21.543  40.113   0.805
11793W        W84861  35.320  35.059   3.725
11794W        W84862  10.284  42.317   3.638
11795W        W84863  31.122  41.364   2.702
11796W        W84864  14.314  35.503   3.972
11797W        W84865   6.208  31.652  13.088
11798W        W84866   0.138  34.593   3.334
11799W        W84867  22.079   5.239   1.323
11800W        W84868   4.396  17.190  14.418
11801W        W84869  29.064  38.247  14.425
11802W        W84870  30.147  42.837  13.341
11803W        W84871  26.030  21.179  11.865
11804W        W84872  37.871  42.561  14.972
11805W        W84873   6.633  39.027  14.947
11806W        W84874   6.235  43.347   1.828
11807W        W84875  40.213  41.352  11.230
11808W        W84876  24.889  38.477   1.386
11809W        W84877   7.000  11.820  13.531
11810W        W84878  44.222   9.507   4.626
11811W        W84879  11.130  41.251   1.082
11812W        W84880  34.322  11.857   1.869
11813W        W84881  12.004   7.892  13.279
11814W        W84882   1.936  19.011  11.742
11815W        W84883  10.379  32.937   2.851
11816W        W84884  36.406   0.870   2.756
11817W        W84885  40.274  31.086   2.775
11818W        W84886   8.090  14.297  13.287
11819W        W84887  28.415  15.771   0.861
11820W        W84888   9.781  32.841   3.211
11821W        W84889   7.487  30.237   1.586
11822W        W84890  11.693  26.186  11.831
11823W        W84891  27.548  23.133  13.549
11824W        W84892  44.293  43.362   3.323
11825W        W84893   3.387   6.671  10.742
11826W        W84894  10.330   5.890   4.911
11827W        W84895  31.750   1.422  12.142
11828W        W84896   5.443  16.986   3.201
11829W        W84897  18.780  16.766   1.735
11830W        W84898  20.079  42.152  11.939
11831W        W84899  15.507  36.067  12.076
11832W        W84900  25.634  20.299   0.460
11833W        W84901  27.429  24.959  10.830
11834W        W84902  24.063  31.184  12.147
11835W        W84903  26.031  20.217  12.681
11836W        W84904  28.470  10.208  11.711
11837W        W84905  15.617  38.141   4.705
11838W        W84906  10.631   4.762  10.490
11839W        W84907   7.741  22.770   9.814
11840W        W84908  23.457  28.513  10.759
11841W        W84909   9.573  31.592  11.630
11842W        W84910  42.501  12.677   4.237
11843W        W84911   2.255  17.561   0.707
11844W        W84912  10.812  44.498   0.570
11845W        W84913  32.981  24.844  11.673
11846W        W84914  15.267   3.299   0.878
11847W        W84915  11.887  30.534  12.048
11848W        W84916   2.807  12.590   4.873
11849W        W84917   0.181  42.828  13.776
11850W        W84918  12.836  35.630   3.833
11851W        W84919  23.600  32.827   3.198
11852W        W84920  32.449   3.851  10.304
11853W        W84921  39.797  25.585   4.966
11854W        W84922  30.607  20.859   2.880
11855W        W84923  28.051  10.330  10.090
11856W        W84924  36.329  38.332  11.893
11857W        W84925  21.151  26.901   4.197
11858W        W84926  21.001  41.007  14.264
11859W        W84927  10.597   2.823   0.986
11860W        W84928  27.204  31.014  14.786
11861W        W84929   3.013   4.841   4.215
11862W        W84930  13.124  28.221   4.675
11863W        W84931  30.008   5.712   4.382
11864W        W84932  43.337  21.573  11.151
11865W        W84933  25.718  16.320  11.548
11866W        W84934  44.891  42.830   2.862
11867W        W84935  18.717  13.207   4.696
11868W        W84936  40.942  33.454  13.179
11869W        W84937  40.496  26.676  10.660
11870W        W84938  19.148  11.652   2.893
11871W        W84939  29.063  40.523  12.501
11872W        W84940  30.943   2.350  14.383
11873W        W84941  23.103  25.463  12.532
11874W        W84942  32.465  35.390   0.289
11875W        W84943  14.955  29.927  14.896
11876W        W84944   2.049  44.231   1.869
11877W        W84945  24.565  17.036  10.821
11878W        W84946  41.687  30.871  14.268
11879W        W84947  40.052  26.024  13.067
11880W        W84948  18.741  10.374  13.935
11881W        W84949   2.552  44.277   1.802
11882W        W84950  38.095  39.955   2.178
11883W        W84951  21.678   7.803  10.646
11884W        W84952  18.782  39.372   2.350
11885W        W84953  15.038   3.896  13.818
11886W        W84954   4.691  37.453   4.527
11887W        W84955  32.424  38.356   0.955
11888W        W84956   5.800  44.390   3.758
11889W        W84957  33.953  20.291  13.358
11890W        W84958  20.994  14.260  11.755
11891W        W84959  12.552  29.358   5.121
11892W        W84960  12.791   7.882   2.657
11893W        W84961  26.141   8.293   4.696
11894W        W84962  38.330   7.947   5.028
11895W        W84963  14.430  12.538  14.938
11896W        W84964   3.309  44.318   2.562
11897W        W84965  10.091  18.128  11.796
11898W        W84966  11.390  10.685   2.930
11899W        W84967  27.929  38.957  11.563
11900W        W84968  21.169  15.314  13.188
11901W        W84969   0.932  38.540   1.057
11902W        W84970  16.803  36.639  10.753
11903W        W84971  37.855  41.256  11.924
11904W        W84972  17.266  35.449  14.284
11905W        W84973  41.265  17.253   2.893
11906W        W84974   6.940   9.997  12.896
11907W        W84975  18.159  36.024   3.836
11908W        W84976  43.049  16.191   0.320
11909W        W84977  39.522  43.247   0.834
11910W        W84978  10.184   2.864  13.618
11911W        W84979  38.597  33.779   4.760
11912W        W84980  28.365  31.604  14.024
11913W        W84981  10.785  44.345  13.293
11914W        W84982  30.944   6.324  14.389
11915W        W84983  18.818   0.802  10.262
11916W        W84984  10.847  19.581  14.436
11917W        W84985  20.715   8.758  14.961
11918W        W84986   9.666  17.260   3.371
11919W        W84987   7.090  15.152   1.369
11920W        W84988  29.605  16.702  14.420
11921W        W84989  12.673  23.583  13.392
11922W        W84990  18.818  34.434   4.722
11923W        W84991  25.967  18.141   4.736
11924W        W84992  23.912  35.826  13.505
11925W        W84993   3.182  11.334   4.177
11926W        W84994  15.208  18.755   3.028
11927W        W84995  38.988  18.585  13.912
11928W        W84996  23.485  15.823   2.286
11929W        W84997   6.652   5.891  13.551
11930W        W84998  21.251  20.671   4.337
11931W        W84999  28.153  25.709   2.850
11932W        W85000  16.519  33.854   3.554
11933W        W85001  10.575  29.164  11.020
11934W        W85002  20.533  36.441   2.219
11935W        W85003  35.882  37.441  12.599
11936W        W85004  36.318  32.602  12.399
11937W        W85005   0.906  16.527  13.115
11938W        W85006  44.229  31.164   3.228
11939W        W85007   9.402   6.204   1.796
11940W        W85008  11.269  44.272   3.219
11941W        W85009   0.058  13.172   0.297
11942W        W85010   2.454   9.910   2.894
11943W        W85011   6.631  11.864   4.784
11944W        W85012  41.566  42.472   3.756
11945W        W85013   2.728  10.714   4.351
11946W        W85014   4.792  20.274   0.908
11947W        W85015  43.276   9.948  10.656
11948W        W85016  18.694   7.481   1.559
11949W        W85017  29.126  21.643  13.890
11950W        W85018  15.174  40.849  12.913
11951W        W85019   5.164  20.027   1.969
11952W        W85020  10.402   0.205  14.538
11953W        W85021  12.192   8.430  11.534
11954W        W85022  38.825  15.046   4.123
11955W        W85023  29.467  44.771  10.365
11956W        W85024   1.780  11.760  11.695
11957W        W85025  18.055  24.695   0.369
11958W        W85026   7.112  15.669   4.275
11959W        W85027   6.351  40.538   0.934
11960W        W85028  41.038  18.156   3.140
11961W        W85029  34.980  25.120   5.118
11962W        W85030  30.840  16.134   3.927
11963W        W85031   7.563  33.034  10.707
11964W        W85032  32.049  40.451   2.318
11965W        W85033  23.676  34.383   2.385
11966W        W85034  21.583   4.976  14.412
11967W        W85035   5.341  41.472  11.106
11968W        W85036  26.067  39.261   3.943
11969W        W85037  16.762   0.825   3.958
11970W        W85038  44.011  25.016  11.785
11971W        W85039  25.688   7.165  12.955
11972W        W85040  11.329  36.945  10.379
11973W        W85041  44.918  38.848   0.400
11974W        W85042   6.100   4.671   4.550
11975W        W85043  23.548  30.606   2.316
11976W        W85044   0.045  33.798  11.629
11977W        W85045  16.589  12.585   3.125
11978W        W85046  17.125   2.251  13.487
11979W        W85047  10.173  40.124   0.816
11980W        W85048  28.104   1.588  11.001
11981W        W85049   7.156  20.482  10.720
11982W        W85050  27.457  29.513  10.724
11983W        W85051  20.446   2.361  11.141
11984W        W85052  38.934   8.324   2.842
11985W        W85053  16.791  20.593   2.111
11986W        W85054  27.683  35.305   4.536
11987W        W85055  41.970  12.148  12.942
11988W        W85056  31.935  44.765   0.899
11989W        W85057  28.663  39.130   2.519
11990W        W85058  23.693  43.190   4.073
11991W        W85059  43.754  41.968  12.256
11992W        W85060  15.362  20.035   1.869
11993W        W85061  44.036  34.465  12.577
11994W        W85062   2.252   9.908   2.417
11995W        W85063  21.805  43.460  11.498
11996W        W85064  17.110  30.711   1.825
11997W        W85065   1.013   2.398  12.815
11998W        W85066  10.388  43.312   2.422
11999W        W85067   4.252  19.533   3.584
12000W        W85068  36.979  12.901  10.713
12001W        W85069  11.269   4.344   3.648
12002W        W85070  18.422  24.911  10.328
12003W        W85071   8.322  36.449   3.677
12004W        W85072   8.154  44.205   4.622
12005W        W85073  39.490  14.194  12.096
12006W        W85074  37.531  18.813  12.461
12007W        W85075  28.154  18.277  11.531
12008W        W85076  25.351  38.578  10.418
12009W        W85077  25.581  43.514   3.161
12010W        W85078  20.180  41.784  12.321
12011W        W85079  33.802  15.320  14.041
12012W        W85080  10.736  32.083  14.552
12013W        W85081  17.577  22.681   4.294
12014W        W85082   7.283  40.269  12.550
12015W        W85083  44.889  21.605   4.152
12016W        W85084   6.874  42.925   4.194
12017W        W85085  30.104  16.256  10.738
12018W        W85086  44.814   1.953   0.890
12019W        W85087  21.211  38.390   1.892
12020W        W85088  25.433  20.762  12.506
12021W        W85089  34.126  34.788  12.939
12022W        W85090  33.895   1.353   1.138
12023W        W85091  37.678  37.061  10.639
12024W        W85092  34.363  37.444  10.569
12025W        W85093  43.904  28.632  11.469
12026W        W85094   4.457  34.521  12.652
12027W        W85095  41.071  22.236  11.131
12028W        W85096  16.135  21.597  12.970
12029W        W85097  20.678  18.031  11.072
12030W        W85098  14.124  12.641   3.249
12031W        W85099   4.909  26.655   0.822
12032W        W85100  35.001  25.168   0.016
12033W        W85101  15.253  17.347   4.494
12034W        W85102  44.380  13.132   4.879
12035W        W85103  39.011  39.320   1.363
12036W        W85104  18.920  31.376  14.678
12037W        W85105   2.387   5.918  10.722
12038W        W85106  40.961   1.566   4.316
12039W        W85107  42.125  21.972   3.245
12040W        W85108  40.455   9.849   1.667
12041W        W85109  31.370  20.194  11.071
12042W        W85110   1.723  15.302   1.884
12043W        W85111   6.440  29.954   0.397
12044W        W85112  20.087  26.268   3.110
12045W        W85113  42.389  44.397  11.671
12046W        W85114   6.299  34.249  12.561
12047W        W85115  36.626   1.318  12.396
12048W        W85116  37.205  42.923   1.533
12049W        W85117  29.393  27.539  11.568
12050W        W85118  40.483   4.296  12.536
12051W        W85119  10.264  40.523  11.245
12052W        W85120  42.798   2.348   4.650
12053W        W85121  31.929  41.863   1.993
12054W        W85122   8.886  23.142   4.834
12055W        W85123  39.810  13.779  14.777
12056W        W85124   9.355  37.289  11.598
12057W        W85125   0.747   1.563   2.664
12058W        W85126  13.540  41.376  14.963
12059W        W85127  33.600  43.905   2.283
12060W        W85128  36.435  37.448  14.105
12061W        W85129  26.073   3.793  11.576
12062W        W85130  31.197  28.611   1.021
12063W        W85131   6.732  32.385  11.634
12064W        W85132  39.962  25.285  13.736
12065W        W85133  23.104  34.972   1.845
12066W        W85134  42.437  26.749   0.848
12067W        W85135  43.827   8.677   1.734
12068W        W85136  29.081  31.136   4.654
12069W        W85137  37.242   2.429   3.311
12070W        W85138   3.539   3.191   3.664
12071W        W85139  12.235  21.620   0.553
12072W        W85140  32.559  20.604  11.004
12073W        W85141  40.964  43.898  13.405
12074W        W85142   9.805  13.770  14.475
12075W        W85143  12.574   8.230  12.500
12076W        W85144  30.530  14.778   0.683
12077W        W85145  33.352  11.329   0.327
12078W        W85146  32.034  31.998  12.411
12079W        W85147   6.398  39.827   5.091
12080W        W85148  12.367  29.714   1.741
12081W        W85149  31.138  16.063  12.060
12082W        W85150   8.415  44.269  14.465
12083W        W85151   0.533  15.304   1.328
12084W        W85152  18.735  22.670   4.692
12085W        W85153  44.867  32.228   3.342
12086W        W85154  31.561   0.922   0.361
12087W        W85155   1.272  12.820   2.123
12088W        W85156  13.227  18.894   3.253
12089W        W85157  20.142  20.992  14.946
12090W        W85158  17.760   2.455  12.675
12091W        W85159   7.807  17.159  11.131
12092W        W85160  30.148  40.455   3.717
12093W        W85161  34.826  36.391  11.121
12094W        W85162   2.366  34.287  10.133
12095W        W85163  11.928  37.342  12.432
12096W        W85164  27.948  27.761  13.051
12097W        W85165  25.702  23.010   4.048
12098W        W85166  22.195   4.837   3.411
12099W        W85167  41.266  21.945  13.722
12100W        W85168   7.392  39.774   3.023
12101W        W85169  25.173   7.271   4.852
12102W        W85170   4.494   5.214  13.922
12103W        W85171  25.835  10.080   3.248
12104W        W85172   1.539  43.382   4.608
12105W        W85173  30.711  10.343  13.992
12106W        W85174  27.131  11.666   1.963
12107W        W85175   0.540   2.065  14.508
12108W        W85176  23.139  17.198   0.256
12109W        W85177  37.359  12.805   4.292
12110W        W85178  32.403  38.335  13.829
12111W        W85179   3.349  18.844  12.637
12112W        W85180   2.305  33.959  11.649
12113W        W85181  23.838  40.916   3.229
12114W        W85182   3.484  27.007   2.768
12115W        W85183  24.502   4.568   3.545
12116W        W85184  36.347   5.169   1.331
12117W        W85185  40.036   3.173  11.114
12118W        W85186  31.183  13.101   2.372
12119W        W85187  21.099  23.093   3.931
12120W        W85188  15.646  10.928  13.013
12121W        W85189  22.617  23.801  12.507
12122W        W85190  20.741  17.806   2.217
12123W        W85191   0.321  18.784   4.673
12124W        W85192  34.964  35.752  10.059
12125W        W85193  13.647  43.909  11.582
12126W        W85194  28.430  42.368   4.265
12127W        W85195   2.343   7.131  11.991
12128W        W85196  43.340  30.180   4.526
12129W        W85197  37.096  17.026  14.914
12130W        W85198  16.812  41.767  11.118
12131W        W85199  21.329  10.099  14.812
12132W        W85200  42.460  24.614   4.353
12133W        W85201   2.065  40.165  10.724
12134W        W85202  15.766  37.091  10.791
12135W        W85203  23.892  14.571   3.431
12136W        W85204  33.539  30.927   1.828
12137W        W85205  36.939  41.850   4.946
12138W        W85206  44.039  39.341   2.251
12139W        W85207   6.869  14.708   1.644
12140W        W85208   3.374  13.139  13.912
12141W        W85209  38.867  40.324   1.276
12142W        W85210  39.880  44.509   1.891
12143W        W85211  10.279  43.235  10.824
12144W        W85212  44.849   8.265   4.355
12145W        W85213  17.083  19.186   2.842
12146W        W85214  27.244  12.063   1.242
12147W        W85215  44.522  36.576   2.272
12148W        W85216  23.214  24.490   3.754
12149W        W85217  10.233  12.977  14.383
12150W        W85218   3.917  10.628  13.804
12151W        W85219  23.689  19.185   5.434
12152W        W85220  29.620  18.856   0.760
12153W        W85221  32.089  17.286  12.132
12154W        W85222   8.978  13.291  13.849
12155W        W85223   8.710  14.606  11.140
12156W        W85224  16.941  10.784   0.275
12157W        W85225  15.123  37.306   0.056
12158W        W85226  43.530  33.637   0.535
12159W        W85227  36.366   9.262  12.959
12160W        W85228   3.410  11.275  14.113
12161W        W85229   1.803  44.949  12.227
12162W        W85230  35.450  20.102   3.121
12163W        W85231  34.137  10.215   0.582
12164W        W85232   2.871  39.131  11.352
12165W        W85233  15.293  12.866  11.478
12166W        W85234   9.242  16.641  13.093
12167W        W85235  38.337   2.193   2.558
12168W        W85236  11.248  42.985  12.076
12169W        W85237  22.741  11.266  14.540
12170W        W85238  31.703  12.773  14.723
12171W        W85239  24.234  30.636   2.840
12172W        W85240  38.096  37.970  13.553
12173W        W85241  43.958  20.661  13.878
12174W        W85242  14.240  15.104  11.098
12175W        W85243  19.991   9.540   0.804
12176W        W85244  44.990  22.373   2.452
12177W        W85245  41.798  15.776  13.583
12178W        W85246   8.169  44.246  13.983
12179W        W85247   0.708  21.037   4.094
12180W        W85248  25.228  40.759   3.266
12181W        W85249  27.412  29.559  14.589
12182W        W85250   9.933  24.188   4.388
12183W        W85251   4.925   6.885   4.754
12184W        W85252  10.883  34.382  11.966
12185W        W85253  27.922  24.678  12.055
12186W        W85254  43.951   6.279   0.694
12187W        W85255  26.963  37.583   0.480
12188W        W85256  41.815   0.232   0.780
12189W        W85257  24.576   7.603   2.638
12190W        W85258  38.052  34.045   1.789
12191W        W85259  31.017  40.820  10.556
12192W        W85260  29.011  13.144  12.944
12193W        W85261  18.213  40.993  12.817
12194W        W85262  26.933  24.823  11.255
12195W        W85263  19.261  32.852   4.058
12196W        W85264   2.236   4.325  14.345
12197W        W85265  21.176  11.660  12.175
12198W        W85266  30.889   1.888  12.489
12199W        W85267  15.708  41.624  14.693
12200W        W85268  38.945   9.300   0.309
12201W        W85269  24.929  22.556  12.434
12202W        W85270  11.332   1.173   2.641
12203W        W85271  32.566  12.815  14.799
12204W        W85272   6.894   5.834  14.578
12205W        W85273   2.324  43.465   1.404
12206W        W85274  43.970  12.914  10.444
12207W        W85275  27.684   3.982  10.437
12208W        W85276  35.799  14.696   1.175
12209W        W85277  23.379  24.336   0.816
12210W        W85278  43.448  19.423   4.169
12211W        W85279   8.922  20.497   0.824
12212W        W85280  37.230  42.531  13.878
12213W        W85281  10.794  44.055  10.681
12214W        W85282  22.263  25.028   2.322
12215W        W85283   7.153  15.867  13.549
12216W        W85284   3.027  30.614   4.071
12217W        W85285  44.277  29.008   2.415
12218W        W85286  19.168  15.071   0.324
12219W        W85287  31.698  33.908  13.332
12220W        W85288   0.064  23.666  14.779
12221W        W85289  19.587   5.339  14.907
12222W        W85290  25.932  14.091   2.770
12223W        W85291  21.532  10.279   2.845
12224W        W85292  31.490  25.215  11.571
12225W        W85293   3.396  39.570  13.019
12226W        W85294  23.214  16.259  13.101
12227W        W85295   9.047  17.270  10.690
12228W        W85296   0.524  26.453   9.877
12229W        W85297   0.867  11.060   0.213
12230W        W85298  22.937  42.401  11.181
12231W        W85299   5.671  20.314   0.831
12232W        W85300   8.877  21.694  14.274
12233W        W85301  41.066  33.206   4.295
12234W        W85302  19.480  44.377   3.885
12235W        W85303  10.281  12.917  12.423
12236W        W85304   7.809   5.706   0.718
12237W        W85305  29.018  38.042   1.837
12238W        W85306  44.978  39.337  11.145
12239W        W85307  27.736  30.446  14.981
12240W        W85308   3.667  37.544  14.819
12241W        W85309  18.625  33.843  12.461
12242W        W85310  28.528  10.809   4.528
12243W        W85311  35.709  30.083  10.326
12244W        W85312  19.976   4.268  14.898
12245W        W85313  27.741  24.517   0.294
12246W        W85314   8.327  32.324   4.023
12247W        W85315  21.558   8.315   1.683
12248W        W85316  21.729  14.858   3.823
12249W        W85317  41.649  34.746   0.466
12250W        W85318  16.030  42.341   3.178
12251W        W85319   5.497   6.807  12.484
12252W        W85320  26.119  34.143  13.513
12253W        W85321  11.159  12.259   2.815
12254W        W85322   5.493  13.173  13.978
12255W        W85323  18.763  32.645   4.051
12256W        W85324   4.908   6.379  13.067
12257W        W85325  22.742   7.677   2.212
12258W        W85326   3.709  16.563   1.133
12259W        W85327  20.678  24.331  13.005
12260W        W85328  18.025   2.114  12.395
12261W        W85329   5.917  32.199  12.027
12262W        W85330  32.594  38.894   3.715
12263W        W85331   5.762  12.312  13.427
12264W        W85332  26.455  34.941   5.175
12265W        W85333  34.547  15.313  13.580
12266W        W85334  20.010   5.321   2.228
12267W        W85335  11.718   8.721  13.836
12268W        W85336  23.933  10.444   2.669
12269W        W85337  43.851  10.086  11.626
12270W        W85338  34.153   6.131  12.822
12271W        W85339   2.297   1.325   2.546
12272W        W85340  21.719  21.077   1.948
12273W        W85341  12.582  28.919   4.308
12274W        W85342  41.565   5.238   4.294
12275W        W85343  35.633  28.908   1.848
12276W        W85344  25.373   3.667   4.157
12277W        W85345  16.890  37.201   4.172
12278W        W85346   6.754  33.646  10.769
12279W        W85347  23.669  16.987   2.750
12280W        W85348  23.949  32.415  14.433
12281W        W85349  11.148  18.783  12.103
12282W        W85350  24.168   9.890   0.404
12283W        W85351  11.864  17.286   4.639
12284W        W85352  24.718  36.753   0.313
12285W        W85353  40.449  28.774   3.647
12286W        W85354  44.692  12.635  11.984
12287W        W85355  10.972  13.157   3.155
12288W        W85356  29.392  20.564  13.793
12289W        W85357  29.765  36.563  12.313
12290W        W85358   7.648  17.275   1.913
12291W        W85359  39.079   0.787   1.477
12292W        W85360  21.238  12.186  13.042
12293W        W85361   9.171  28.513  14.422
12294W        W85362  11.833  17.985  14.838
12295W        W85363   2.880  20.804   0.554
12296W        W85364  10.583  29.726  14.455
12297W        W85365  20.314  22.951  13.500
12298W        W85366  33.187   6.900   0.420
12299W        W85367   6.387  30.483  12.506
12300W        W85368  38.849  41.390  11.054
12301W        W85369  27.624  34.872  13.300
12302W        W85370   3.312   2.484  12.674
12303W        W85371  11.234  19.552   3.222
12304W        W85372  26.681  12.894  13.361
12305W        W85373  15.604  20.989  14.386
12306W        W85374  24.091  43.854  11.529
12307W        W85375  23.255  18.553   3.260
12308W        W85376  43.417   1.291   4.544
12309W        W85377   3.780  39.365   3.660
12310W        W85378  20.282   3.990   2.315
12311W        W85379  10.847  12.749  12.094
12312W        W85380  36.836  13.604   3.632
12313W        W85381  20.894  23.274  11.981
12314W        W85382   6.796  37.292   1.837
12315W        W85383  16.190  28.028   0.038
12316W        W85384  40.249  36.850   1.765
12317W        W85385   8.287  43.374   3.319
12318W        W85386   4.515  10.839   4.109
12319W        W85387  21.045  20.997  14.394
12320W        W85388  11.189  15.844   2.592
12321W        W85389  16.371   4.368  11.817
12322W        W85390  21.766  26.480   0.772
12323W        W85391  10.640   6.121   0.200
12324W        W85392  10.230   6.899  14.802
12325W        W85393  10.629   6.889  11.401
12326W        W85394   3.707  27.664   1.269
12327W        W85395  19.834  43.866  10.329
12328W        W85396  37.427  41.560   0.895
12329W        W85397  11.130  35.746   3.964
12330W        W85398  11.094  22.098  12.655
12331W        W85399   4.011  11.541   0.806
12332W        W85400  30.637  23.978  11.881
12333W        W85401  44.695  36.915  11.710
12334W        W85402   5.389   1.652   4.143
12335W        W85403  35.347  23.082  10.777
12336W        W85404  42.605  12.966   1.455
12337W        W85405  13.963   6.974   1.765
12338W        W85406  15.743  37.127   1.254
12339W        W85407  20.394  41.112  10.468
12340W        W85408   8.191   2.371  14.792
12341W        W85409  27.230  38.512  12.455
12342W        W85410  38.613   7.925   2.692
12343W        W85411  38.433  31.732   2.573
12344W        W85412  21.470  23.551   3.217
12345W        W85413   0.727   2.192  12.411
12346W        W85414  20.027  16.264  13.530
12347W        W85415  14.742  38.563   0.925
12348W        W85416  34.082  20.085   4.084
12349W        W85417   1.431  39.897  12.611
12350W        W85418  41.778  18.344   1.213
12351W        W85419  26.449  16.308   2.113
12352W        W85420   5.797   0.579   4.230
12353W        W85421   5.659  20.119   2.295
12354W        W85422  22.200   5.173   4.105
12355W        W85423   8.271  10.936  12.014
12356W        W85424  30.035   2.783  14.961
12357W        W85425  37.054  41.841  11.919
12358W        W85426   3.867  31.049   4.510
12359W        W85427   9.723   8.970   1.506
12360W        W85428  16.282  32.541   3.971
12361W        W85429  32.501  39.119   2.248
12362W        W85430   2.887   9.280   1.487
12363W        W85431  25.182  29.030   4.554
12364W        W85432   4.915  21.668  12.362
12365W        W85433   5.308  16.755  13.575
12366W        W85434  22.039  21.504   1.576
12367W        W85435  30.362   6.422  10.693
12368W        W85436   3.298  42.229  12.619
12369W        W85437  12.774  38.858  11.548
12370W        W85438  34.694  14.483   0.060
12371W        W85439  19.766  20.723   4.045
12372W        W85440  35.673  43.935  11.107
12373W        W85441  25.280  42.303  10.552
12374W        W85442   8.713   1.602   4.062
12375W        W85443  26.200  16.015  10.690
12376W        W85444  24.186  43.245   0.953
12377W        W85445  41.373   1.995  11.053
12378W        W85446  38.814  30.044  14.465
12379W        W85447  14.356  24.028   0.151
12380W        W85448  14.653  24.582   3.193
12381W        W85449  37.947  23.475  12.582
12382W        W85450  34.122  42.410   0.366
12383W        W85451  28.360  23.607  11.031
12384W        W85452   2.898   0.979   3.566
12385W        W85453  40.651   2.419   4.482
12386W        W85454  44.011  28.872  12.952
12387W        W85455  41.541   5.211   1.287
12388W        W85456   5.555  12.347  14.676
12389W        W85457  15.682  19.349  12.456
12390W        W85458  39.000  40.472   4.630
12391W        W85459  41.457  25.931   4.630
12392W        W85460   0.250  33.228  10.553
12393W        W85461  29.695   5.963   1.505
12394W        W85462  44.793  37.528  12.038
12395W        W85463  25.186   3.845   0.519
12396W        W85464  13.654   7.933   4.403
12397W        W85465   9.514  30.528   0.359
12398W        W85466  33.481  33.019   2.919
12399W        W85467  18.823   7.411   0.028
12400W        W85468  34.404  30.961   4.151
12401W        W85469  14.323  38.315   0.213
12402W        W85470  26.673  25.458  13.939
12403W        W85471  26.081  17.973   1.063
12404W        W85472  31.466  26.632   3.151
12405W        W85473  40.958   4.269   1.180
12406W        W85474  26.543  33.886  13.359
12407W        W85475   5.907  17.186  13.947
12408W        W85476   8.371  31.875   0.670
12409W        W85477  40.328  37.071  11.905
12410W        W85478   5.441  39.792   2.197
12411W        W85479   7.799  22.960   2.695
12412W        W85480  19.762  39.790   0.780
12413W        W85481   2.767   2.067  10.521
12414W        W85482   1.458  29.225  14.434
12415W        W85483  19.655  11.849   1.301
12416W        W85484  26.734  18.304   4.655
12417W        W85485  14.529  15.945   4.251
12418W        W85486  19.360  36.460   3.118
12419W        W85487  32.357  29.585  11.598
12420W        W85488   3.231  23.727  13.978
12421W        W85489   2.227  12.154  14.832
12422W        W85490   7.231   1.055   0.818
12423W        W85491  11.075  34.007  14.112
12424W        W85492  37.466  36.297  13.973
12425W        W85493  11.086  24.668   1.756
12426W        W85494   8.734  10.206  11.585
12427W        W85495   2.995  44.764   3.695
12428W        W85496  35.372  37.296   4.924
12429W        W85497  34.827  32.110   0.725
12430W        W85498  21.173  16.106   0.809
12431W        W85499   6.343  44.238   1.945
12432W        W85500  30.595   5.653  10.761
12433W        W85501   7.509   2.822   3.139
12434W        W85502  22.162   6.416  10.455
12435W        W85503  37.311  34.310  10.367
12436W        W85504  34.988  15.606  14.824
12437W        W85505  22.802  44.563   2.727
12438W        W85506  41.133  43.030   2.368
12439W        W85507  36.168  40.907   0.732
12440W        W85508   5.599  39.071  11.605
12441W        W85509  30.231  37.852  11.150
12442W        W85510  15.610  26.571  14.406
12443W        W85511  27.702  14.611  12.588
12444W        W85512  21.729  36.010   5.063
12445W        W85513   4.383  14.884   0.977
12446W        W85514   2.959  24.229  13.252
12447W        W85515  25.542  29.370   3.758
12448W        W85516  39.914   8.748  12.050
12449W        W85517  22.887  43.774   3.368
12450W        W85518   0.191   8.777   1.851
12451W        W85519  10.793   7.745   1.624
12452W        W85520  12.355  31.548  10.732
12453W        W85521   0.768  43.884   4.765
12454W        W85522   0.733  29.530   1.717
12455W        W85523   6.780  18.367   4.905
12456W        W85524  32.058  22.285   1.404
12457W        W85525  35.415   7.908   4.500
12458W        W85526  25.884  37.422  10.449
12459W        W85527   7.703   8.898  14.798
12460W        W85528   1.263  19.790   4.830
12461W        W85529  17.818   7.403   0.320
12462W        W85530   7.615  27.092  14.516
12463W        W85531   3.531  27.417   4.176
12464W        W85532  15.804  37.511  11.094
12465W        W85533  10.896  29.201   2.947
12466W        W85534  20.095  25.910   4.061
12467W        W85535  27.689  14.764   3.779
12468W        W85536  29.340   7.213  11.411
12469W        W85537  30.675  12.743  13.237
12470W        W85538  36.995   8.795   1.694
12471W        W85539  17.538  44.295   3.147
12472W        W85540   2.223   7.818   3.728
12473W        W85541  26.475  43.989   4.427
12474W        W85542   4.232  22.106   0.824
12475W        W85543  21.456  26.046   4.358
12476W        W85544   5.928  25.092  13.501
12477W        W85545   6.183  29.340   0.751
12478W        W85546   1.976   7.201  11.595
12479W        W85547  38.618  27.891  12.517
12480W        W85548  17.993  18.691   3.177
12481W        W85549  36.385  40.854   1.178
12482W        W85550  19.250  23.612  14.024
12483W        W85551  36.214  17.768   4.903
12484W        W85552  28.716  32.056   3.869
12485W        W85553   5.968  19.539  14.884
12486W        W85554  21.974   6.352   3.905
12487W        W85555   5.442  35.077  12.911
12488W        W85556   0.506  14.316   3.054
12489W        W85557  36.436  40.007   1.184
12490W        W85558  23.977   4.981   4.569
12491W        W85559  26.006   9.206  14.861
12492W        W85560  13.009   6.262   2.337
12493W        W85561   2.399  36.374  12.165
12494W        W85562  23.616  22.095  12.431
12495W        W85563  18.618   9.860  13.927
12496W        W85564  34.292  22.648  12.494
12497W        W85565  42.031  13.806  14.036
12498W        W85566  10.283   8.953  13.592
12499W        W85567   8.375   5.406  13.247
12500W        W85568   5.738  29.666   0.900
12501W        W85569  11.797  32.423  10.662
12502W        W85570  36.112  24.512  13.118
12503W        W85571  10.602  22.757   0.214
12504W        W85572  27.746  34.851   4.256
12505W        W85573   6.367  27.967  13.865
12506W        W85574  31.191  38.752  12.973
12507W        W85575   1.932  32.489   1.366
12508W        W85576  11.221  16.812  14.033
12509W        W85577   6.861  32.866   1.274
12510W        W85578  40.233   4.985   1.513
12511W        W85579  16.132  15.563  10.304
12512W        W85580  26.643  40.526   3.580
12513W        W85581  19.613  25.274   0.793
12514W        W85582  26.840  28.747  14.835
12515W        W85583   8.284  37.314  14.809
12516W        W85584  15.534   6.671   3.769
12517W        W85585   8.196  40.792   4.266
12518W        W85586  20.281  38.517   1.782
12519W        W85587  38.458   1.528   0.234
12520W        W85588  44.754   2.270   3.195
12521W        W85589  20.505  38.980   1.952
12522W        W85590  27.654  41.377  14.478
12523W        W85591  11.543  22.534   2.397
12524W        W85592  12.311  29.558  11.925
12525W        W85593   0.922   4.703  12.548
12526W        W85594   4.543  15.723   4.906
12527W        W85595   1.541   1.745  14.413
12528W        W85596  23.679   8.088  11.285
12529W        W85597  17.971   9.308  11.999
12530W        W85598  39.657   5.143  10.195
12531W        W85599  33.227  43.805  14.285
12532W        W85600  23.741  24.129  11.307
12533W        W85601  22.197   9.139  10.813
12534W        W85602  11.767  28.623   4.826
12535W        W85603  12.392  30.969  11.490
12536W        W85604  32.074  14.003   0.285
12537W        W85605  17.008  33.842  12.038
12538W        W85606  29.543  32.558  11.352
12539W        W85607  39.472   3.336   4.583
12540W        W85608  16.352  21.497   2.313
12541W        W85609  20.003   8.644  11.538
12542W        W85610  29.491  26.556  13.270
12543W        W85611   6.765  11.435   0.807
12544W        W85612  41.629   0.411  12.541
12545W        W85613   8.771  20.116   4.565
12546W        W85614  16.793  24.224   1.831
12547W        W85615   1.665  44.043  14.324
12548W        W85616  31.712  20.149  12.031
12549W        W85617   3.951  31.248  12.432
12550W        W85618  28.871   6.370  14.461
12551W        W85619  22.535  25.288   2.694
12552W        W85620  31.675   1.925   0.433
12553W        W85621  29.894  19.352  12.544
12554W        W85622  22.188   9.886  12.832
12555W        W85623   0.702  24.194  13.130
12556W        W85624   3.777  38.577   3.138
12557W        W85625  23.280  44.368   2.664
12558W        W85626  16.928  22.628   2.757
12559W        W85627   8.362  41.340   0.558
12560W        W85628  16.329  29.567  14.846
12561W        W85629  39.163  13.697  14.319
12562W        W85630  25.556   0.376  12.977
12563W        W85631  15.332   9.718   4.089
12564W        W85632  43.346  12.370   3.647
12565W        W85633  44.544  43.833  11.050
12566W        W85634   8.674  28.644  14.531
12567W        W85635  23.479  43.277  12.508
12568W        W85636   8.775   1.896   3.197
12569W        W85637  36.306   0.319   0.749
12570W        W85638   0.439  38.393  11.862
12571W        W85639   1.805  18.776   1.843
12572W        W85640  41.299  30.205  12.049
12573W        W85641   6.585  29.963  12.968
12574W        W85642  36.490   3.324  10.584
12575W        W85643   6.938  20.051  10.914
12576W        W85644  36.862  28.039   4.189
12577W        W85645  22.052  33.364   2.550
12578W        W85646   6.240  12.158  11.231
12579W        W85647  44.497  24.197   0.425
12580W        W85648  37.541  28.695   4.475
12581W        W85649   1.758   9.272   0.188
12582W        W85650  44.282  29.337  10.959
12583W        W85651   7.241  42.785   3.343
12584W        W85652  34.530   6.373  13.374
12585W        W85653  28.138   6.788   4.713
12586W        W85654  22.189  32.852  13.872
12587W        W85655  42.782  16.153  14.833
12588W        W85656   9.396  14.657   1.257
12589W        W85657  30.690  36.428  12.608
12590W        W85658   6.258  32.129   2.050
12591W        W85659  22.640  21.757   2.787
12592W        W85660  32.863   7.100   2.751
12593W        W85661  44.596  27.988   0.345
12594W        W85662   2.511  32.020   2.685
12595W        W85663  36.239  44.205  13.955
12596W        W85664  38.079  30.093   2.344
12597W        W85665  14.141  34.629  14.944
12598W        W85666  33.654  27.867   3.793
12599W        W85667  38.054  11.802  10.208
12600W        W85668   1.941  34.828  13.867
12601W        W85669  34.130   5.976  11.078
12602W        W85670   8.793  37.917   3.362
12603W        W85671   4.160  27.597  14.905
12604W        W85672  10.561  16.105  13.100
12605W        W85673  16.802  37.576   4.547
12606W        W85674  29.839  20.718   0.992
12607W        W85675  14.723  39.967   2.667
12608W        W85676  40.821  18.536   0.892
12609W        W85677   3.675   3.628  14.335
12610W        W85678  33.424  18.578   0.422
12611W        W85679  30.119  31.684   2.811
12612W        W85680  37.359  32.588  14.374
12613W        W85681  36.310   1.655   2.114
12614W        W85682  14.311  31.422  12.895
12615W        W85683  15.523  17.744   0.772
12616W        W85684  11.597  39.888   3.159
12617W        W85685  38.815  11.752  10.783
12618W        W85686   4.973  18.224   3.588
12619W        W85687  23.272  37.347   1.697
12620W        W85688  11.709   6.628  12.927
12621W        W85689  31.024   5.811  11.032
12622W        W85690   7.790  38.173  11.079
12623W        W85691  39.567   7.763  11.872
12624W        W85692  40.105  24.411  14.013
12625W        W85693   9.722  27.017  11.337
12626W        W85694  21.933   3.280   0.450
12627W        W85695  35.897  22.777   1.755
12628W        W85696   3.673  43.821  14.405
12629W        W85697  42.714   2.336  11.657
12630W        W85698  10.911  30.654   4.390
12631W        W85699  26.287  33.015  14.406
12632W        W85700  38.762   8.785   3.668
12633W        W85701  24.709  40.824  14.867
12634W        W85702   0.047  43.874  10.943
12635W        W85703  18.628  42.779   2.341
12636W        W85704   9.097   3.894   3.206
12637W        W85705  19.345  38.082  14.902
12638W        W85706  43.815  27.225  11.033
12639W        W85707  37.368  23.579   4.832
12640W        W85708  40.966   4.453  10.695
12641W        W85709  31.566  24.779   0.425
12642W        W85710  12.530  17.069  10.741
12643W        W85711  12.723   7.622   0.207
12644W        W85712  44.793  36.105  10.630
12645W        W85713  19.297  41.944  14.525
12646W        W85714   1.887  31.694   3.319
12647W        W85715   0.648   6.444   2.871
12648W        W85716   8.805  24.954   1.857
12649W        W85717   4.552  12.736  14.722
12650W        W85718  28.110  12.614   2.792
12651W        W85719  18.402  40.813  13.301
12652W        W85720  34.986   1.019  12.317
12653W        W85721   9.139  41.070   5.057
12654W        W85722  38.941  15.240  10.752
12655W        W85723  27.617  28.625  13.089
12656W        W85724  17.522  31.186  13.325
12657W        W85725   6.734  19.827  13.191
12658W        W85726  18.025  20.388   0.972
12659W        W85727   8.983  29.893  13.245
12660W        W85728  23.248  31.606  12.115
12661W        W85729  27.836  23.938   3.881
12662W        W85730   2.297  17.582   3.197
12663W        W85731  33.593   1.343   2.820
12664W        W85732  29.060  31.204  14.112
12665W        W85733  21.544  10.488  13.966
12666W        W85734  29.341  18.694  14.250
12667W        W85735  41.120  30.085  13.877
12668W        W85736   5.552   4.317  13.034
12669W        W85737  18.985  25.486  13.852
12670W        W85738  24.323  13.966  13.189
12671W        W85739  41.730  29.129   1.484
12672W        W85740  31.487   1.778  14.119
12673W        W85741   0.969  34.696  11.611
12674W        W85742  16.645  43.959  13.348
12675W        W85743  36.080  24.354  10.757
12676W        W85744  12.917  27.641   2.681
12677W        W85745  21.557  37.103   1.328
12678W        W85746   8.378  27.623   0.915
12679W        W85747  44.504  34.420  13.876
12680W        W85748   6.135  22.857  14.754
12681W        W85749  40.294  15.838   1.387
12682W        W85750  14.141  20.406  11.142
12683W        W85751  14.376  23.779   1.822
12684W        W85752  40.225  23.605   1.969
12685W        W85753  11.309  34.475   1.338
12686W        W85754   8.463  21.042   3.777
12687W        W85755  36.909  18.427  13.513
12688W        W85756  17.346  13.732   0.779
12689W        W85757  12.344  41.003  12.032
12690W        W85758  12.359   2.308  12.050
12691W        W85759  24.497  41.464  11.625
12692W        W85760  26.551  43.651   1.188
12693W        W85761  28.072  42.905  12.214
12694W        W85762  31.359  27.947  11.502
12695W        W85763   8.565  41.096  14.978
12696W        W85764  44.217  44.382   0.347
12697W        W85765   1.769   3.839  12.083
12698W        W85766  19.077  40.883   4.746
12699W        W85767   9.010   8.301   2.195
12700W        W85768  10.240   4.601   4.153
12701W        W85769   5.151  18.221  14.506
12702W        W85770  38.565  40.691   1.896
12703W        W85771  24.269  23.021   2.796
12704W        W85772   2.358  29.661  12.973
12705W        W85773  41.955  18.098  13.024
12706W        W85774  26.768  44.124  10.166
12707W        W85775   1.785  18.250   0.338
12708W        W85776  19.783  41.766  14.503
12709W        W85777  41.848  42.939   0.854
12710W        W85778  20.780   5.406   0.629
12711W        W85779  30.983   8.332  13.555
12712W        W85780  28.674  21.997  12.479
12713W        W85781  10.039   7.126  13.020
12714W        W85782  22.186  25.649   0.912
12715W        W85783  36.084  38.650   2.240
12716W        W85784   3.897  44.763   1.961
12717W        W85785  22.771  18.065   1.854
12718W        W85786   4.847  28.759   1.741
12719W        W85787  28.482  33.572  11.558
12720W        W85788   4.849  10.879   0.890
12721W        W85789  20.843  29.588   5.070
12722W        W85790  16.336  27.923  12.027
12723W        W85791   2.996  33.469  12.708
12724W        W85792   3.805  31.174   1.790
12725W        W85793   5.686  19.926   4.683
12726W        W85794   5.759  14.610   2.367
12727W        W85795  44.047  20.547   2.195
12728W        W85796  23.774  44.133   1.919
12729W        W85797   8.612   1.961   2.716
12730W        W85798   2.484   1.781  11.403
12731W        W85799  32.371   3.479   1.288
12732W        W85800  36.570   3.606   3.166
12733W        W85801  38.098  23.684  12.083
12734W        W85802  34.786   1.939   2.318
12735W        W85803   0.553  34.414   3.570
12736W        W85804   0.858  16.184  11.160
12737W        W85805  25.472  23.467   1.778
12738W        W85806   5.860   1.471   2.823
12739W        W85807  39.390  21.667  10.903
12740W        W85808  12.355  31.902   3.683
12741W        W85809  10.146   3.942   0.327
12742W        W85810  31.691  15.991  11.053
12743W        W85811   7.389  14.149   2.145
12744W        W85812  25.552  18.717   0.708
12745W        W85813  18.267  42.924  12.113
12746W        W85814  26.559  13.862   4.260
12747W        W85815  42.173  19.366  11.098
12748W        W85816  13.268  15.936  11.171
12749W        W85817  14.183  42.054   3.753
12750W        W85818  13.820  19.097   3.893
12751W        W85819  44.400   5.378  10.474
12752W        W85820  16.728  36.863   3.188
12753W        W85821  23.597  34.942  11.031
12754W        W85822  29.453   3.665  11.190
12755W        W85823  34.000  16.717   0.418
12756W        W85824   7.324  40.161   2.151
12757W        W85825  28.398  23.568   2.781
12758W        W85826  14.128  27.556  10.754
12759W        W85827  27.610  32.100  12.962
12760W        W85828   4.844  22.116   2.732
12761W        W85829  11.631   0.456  12.374
12762W        W85830   9.744  14.128  14.048
12763W        W85831  13.224   0.350   3.191
12764W        W85832   7.286   7.791  14.557
12765W        W85833   7.307  33.656   0.233
12766W        W85834  30.063  13.696  12.975
12767W        W85835  42.448  13.561  14.910
12768W        W85836  38.369  18.681   0.174
12769W        W85837  22.045  35.712  14.090
12770W        W85838   1.306  35.684  10.654
12771W        W85839  43.098  39.873  11.640
12772W        W85840  27.939  22.210   2.762
12773W        W85841  44.331  12.266   4.640
12774W        W85842  30.036   1.015  13.302
12775W        W85843  31.018  18.001  12.420
12776W        W85844  34.975  41.475  13.352
12777W        W85845   8.358  15.573   3.698
12778W        W85846  40.824  25.602   1.644
12779W        W85847   5.914  35.510  13.449
12780W        W85848  39.291   4.500  12.377
12781W        W85849  12.170  39.572   1.901
12782W        W85850  18.049  30.878   0.414
12783W        W85851  37.392  18.160  13.479
12784W        W85852   0.481  30.466   2.108
12785W        W85853   7.201   3.892  13.108
12786W        W85854  27.865  24.512  13.859
12787W        W85855  31.933  40.325   4.114
12788W        W85856   9.012  26.453   0.416
12789W        W85857  35.060  15.286   3.299
12790W        W85858  41.908  18.054   0.385
12791W        W85859  38.713   7.277   0.354
12792W        W85860  30.072   5.959  14.026
12793W        W85861  43.755  17.639  13.358
12794W        W85862  42.382   1.419   2.029
12795W        W85863  11.601  14.710  13.579
12796W        W85864  31.165   4.492  12.496
12797W        W85865  30.250  32.228  12.058
12798W        W85866  29.293  41.379  12.854
12799W        W85867  38.750  39.899   4.557
12800W        W85868  30.429  32.028   3.096
12801W        W85869  40.784  19.038   1.178
12802W        W85870  10.646  29.080  13.250
12803W        W85871  27.968  38.267  13.016
12804W        W85872   4.855   6.189  10.604
12805W        W85873   4.831  17.809  12.934
12806W        W85874  23.738  12.375  12.431
12807W        W85875  35.527  38.036  11.178
12808W        W85876  22.437  39.139   1.746
12809W        W85877  10.221   5.233   0.835
12810W        W85878   9.693  42.261  14.911
12811W        W85879   8.765  43.897  11.737
12812W        W85880  10.374  13.367   0.187
12813W        W85881  40.099  25.076  12.771
12814W        W85882  27.986  12.380  12.028
12815W        W85883  38.126  28.240   1.661
12816W        W85884  38.483  28.934  10.637
12817W        W85885   4.451  42.951  11.574
12818W        W85886  36.517  44.266   4.250
12819W        W85887  12.192  16.228   0.457
12820W        W85888  10.185  19.082  13.345
12821W        W85889  26.956  44.063   0.278
12822W        W85890  38.021  31.888  14.311
12823W        W85891  27.840  30.417   0.862
12824W        W85892  36.923  23.006   4.237
12825W        W85893   5.393  11.502   3.586
12826W        W85894  24.726  15.046  14.778
12827W        W85895  14.296  40.639  12.432
12828W        W85896  23.789  32.909  12.561
12829W        W85897   4.734  36.871   1.263
12830W        W85898  36.299  20.191   3.236
12831W        W85899   4.173  42.184   0.295
12832W        W85900   8.769  18.307  11.628
12833W        W85901  25.499   1.696   2.233
12834W        W85902  10.871   3.350  13.618
12835W        W85903  33.099  35.058   4.561
12836W        W85904  27.161  43.979  13.958
12837W        W85905  35.539  20.772  11.961
12838W        W85906  34.946   7.744   0.191
12839W        W85907  16.377  16.288  13.521
12840W        W85908  28.913  13.816  11.559
12841W        W85909  25.385  13.426   1.021
12842W        W85910  23.272  43.901   4.351
12843W        W85911  43.924  42.050   1.772
12844W        W85912  35.897  30.046   3.307
12845W        W85913  36.195  41.319   0.420
12846W        W85914  12.162  43.106  14.486
12847W        W85915  22.150  41.257   2.876
12848W        W85916  11.291  24.137   4.690
12849W        W85917   5.900  26.237  12.185
12850W        W85918  36.295  27.113   0.023
12851W        W85919  29.035  44.183   0.994
12852W        W85920   3.966  34.489  12.820
12853W        W85921  33.486   6.656  11.165
12854W        W85922  29.687  25.658  13.963
12855W        W85923  23.694  32.807   4.129
12856W        W85924  10.299   0.917   4.148
12857W        W85925  27.595   3.502  10.632
12858W        W85926  31.894  16.380   4.593
12859W        W85927  19.206   0.669  14.416
12860W        W85928  15.648   3.942   4.085
12861W        W85929   0.985  34.161  11.562
12862W        W85930  22.675  17.356  11.112
12863W        W85931  33.480  39.066   0.297
12864W        W85932  27.893   2.750   1.985
12865W        W85933  20.232  18.209   3.479
12866W        W85934   2.283  19.364  14.360
12867W        W85935  32.001  23.460  11.005
12868W        W85936  43.588  33.133   4.049
12869W        W85937  24.950  41.032   2.880
12870W        W85938  39.977   4.662   0.745
12871W        W85939  37.303  15.354   4.013
12872W        W85940  18.703  13.690  13.954
12873W        W85941  21.193  41.331   1.039
12874W        W85942  30.768  30.433   3.648
12875W        W85943  30.540  36.293  14.646
12876W        W85944   2.295  12.916   1.012
12877W        W85945  41.412  12.383   1.701
12878W        W85946  40.563  33.948   4.046
12879W        W85947  43.642   8.411   2.355
12880W        W85948  42.091  34.611   0.240
12881W        W85949  40.316  27.038  14.136
12882W        W85950  12.276  43.794   4.313
12883W        W85951  15.667  44.918  14.522
12884W        W85952  11.430  35.745   0.482
12885W        W85953   4.182  18.672  10.541
12886W        W85954  19.095  44.290  11.041
12887W        W85955  17.457  22.937  11.407
12888W        W85956  18.185  33.042   0.895
12889W        W85957  38.564  30.265   2.158
12890W        W85958   7.113  38.887   3.438
12891W        W85959  17.290  41.617  10.710
12892W        W85960  18.228   1.231  13.966
12893W        W85961  42.019  17.312  11.047
12894W        W85962  42.618  36.243  10.649
12895W        W85963  28.395  41.115   3.721
12896W        W85964  30.922  15.528  10.883
12897W        W85965   4.607  10.403   3.278
12898W        W85966  26.893  29.355   2.741
12899W        W85967  31.963   7.010  12.366
12900W        W85968  17.844  13.561  11.519
12901W        W85969   7.798  17.517   4.057
12902W        W85970  31.062   0.386   3.661
12903W        W85971   3.904  24.975   3.551
12904W        W85972  20.664  18.311   2.152
12905W        W85973   5.874  41.789   0.736
12906W        W85974   3.834  20.603   0.943
12907W        W85975  35.078  31.836   5.030
12908W        W85976  34.501  11.371   2.019
12909W        W85977  38.920   6.481  11.191
12910W        W85978  22.512  28.568  10.583
12911W        W85979   8.770  17.510   4.024
12912W        W85980  20.267   6.494  11.371
12913W        W85981  40.361  35.643  10.699
12914W        W85982  27.477  28.718  12.560
12915W        W85983   0.830  20.562  12.562
12916W        W85984  42.126  13.255   4.845
12917W        W85985   9.178  35.518  14.737
12918W        W85986  35.941  17.634  10.699
12919W        W85987  33.238   5.764  11.183
12920W        W85988  25.688  35.984  13.638
12921W        W85989  41.324  17.037  11.940
12922W        W85990   4.933  37.440  12.361
12923W        W85991  43.817  19.516  14.830
12924W        W85992  34.478   1.219  14.668
12925W        W85993  31.998  25.965  12.676
12926W        W85994  20.316  16.541  11.977
12927W        W85995  38.019   4.319   0.771
12928W        W85996  27.033  41.759  13.532
12929W        W85997  15.511  35.120   3.940
12930W        W85998  30.548  20.264  11.574
12931W        W85999   7.850  38.217   0.323
12932W        W86000  40.760  39.888   2.762
12933W        W86001   0.009  22.775  12.104
12934W        W86002  18.509  15.669  12.204
12935W        W86003  24.981  41.926   2.735
12936W        W86004  31.098  32.098  12.521
12937W        W86005   2.947  17.027   1.354
12938W        W86006   6.262  12.326   0.029
12939W        W86007  36.684  38.302  11.499
12940W        W86008  10.122  11.354   3.805
12941W        W86009  23.944  33.342  14.346
12942W        W86010  36.250  22.776  14.458
12943W        W86011  14.733   9.589   0.980
12944W        W86012  23.207   7.926   2.264
12945W        W86013  17.513  12.411   1.738
12946W        W86014  41.920  15.161   3.593
12947W        W86015  29.428  29.905  13.794
12948W        W86016  38.490  42.037  11.427
12949W        W86017   5.778  39.544  12.489
12950W        W86018  39.939  27.001  13.441
12951W        W86019  35.786  16.647   3.718
12952W        W86020  35.569  43.491   0.243
12953W        W86021  19.993  43.878   5.236
12954W        W86022  43.757   7.487   0.241
12955W        W86023  26.623  17.277  11.886
12956W        W86024  44.283  34.273   1.013
12957W        W86025  10.540  41.389  11.130
12958W        W86026  32.433  25.015   3.362
12959W        W86027  22.130  36.331   2.307
12960W        W86028  26.955  31.796  14.345
12961W        W86029  31.479  25.026  10.771
12962W        W86030  31.002  35.007   4.401
12963W        W86031  43.869   2.720   3.398
12964W        W86032  15.982  19.978  14.314
12965W        W86033  29.814  29.561  14.804
12966W        W86034  24.730  14.569   2.300
12967W        W86035  17.216  28.755   0.974
12968W        W86036  24.707  20.809  11.952
12969W        W86037  27.227  24.326   1.552
12970W        W86038  10.379  15.389  13.068
12971W        W86039   4.868   9.048  12.008
12972W        W86040   2.395  33.507  11.429
12973W        W86041  31.709  21.031   3.644
12974W        W86042  24.565  34.034   4.615
12975W        W86043  42.189  17.677  13.404
12976W        W86044   6.289  42.732  12.437
12977W        W86045   7.967  15.399  13.087
12978W        W86046  34.004  11.733   4.571
12979W        W86047  29.546  41.853   4.727
12980W        W86048  19.108   0.378  13.584
12981W        W86049   6.678  18.486  13.528
12982W        W86050   6.415  18.998   3.305
12983W        W86051  32.286  43.834   0.834
12984W        W86052   4.429  17.144   4.128
12985W        W86053  36.072  13.832   2.858
12986W        W86054   7.720  41.424  13.782
12987W        W86055  17.744  23.739   0.784
12988W        W86056  31.664  15.119   0.908
12989W        W86057  24.753   6.500   1.834
12990W        W86058   2.645  38.878  13.365
12991W        W86059  42.574  14.715   2.299
12992W        W86060  36.343  39.894  10.632
12993W        W86061   9.418   8.784   0.208
12994W        W86062  34.349  11.287   0.105
12995W        W86063  42.263  32.661   2.321
12996W        W86064  21.921   1.810  11.977
12997W        W86065   7.192  32.226   0.248
12998W        W86066   2.917  44.876  11.390
12999W        W86067   0.917  18.845   0.477
13000W        W86068  10.932  30.065  10.778
13001W        W86069  22.185  43.360  11.101
13002W        W86070  19.783  37.369  13.977
13003W        W86071  10.367  38.094   2.843
13004W        W86072  12.310  33.902  13.723
13005W        W86073   2.843  26.459   1.002
13006W        W86074  26.911  10.864  12.022
13007W        W86075  25.010  36.801  11.242
13008W        W86076   1.284  30.661  11.557
13009W        W86077   0.276   4.036  10.467
13010W        W86078  12.220  11.816  13.511
13011W        W86079  24.750   8.156   0.391
13012W        W86080   5.234  15.816  14.332
13013W        W86081   7.875  39.707  11.220
13014W        W86082  44.873   8.271   1.808
13015W        W86083  39.791  25.021   0.109
13016W        W86084  18.474  39.956  11.944
13017W        W86085  40.776   1.991  13.118
13018W        W86086   5.541  40.972  11.207
13019W        W86087   0.939  14.054  13.501
13020W        W86088  13.403   3.800   3.290
13021W        W86089  14.409  19.249  14.991
13022W        W86090  18.538   0.027  12.488
13023W        W86091   5.715  19.970  14.843
13024W        W86092  29.669  34.996   2.107
13025W        W86093  18.687  29.748   2.399
13026W        W86094  21.631   3.025  11.840
13027W        W86095  12.363   8.728  14.251
13028W        W86096  27.877   8.092   2.647
13029W        W86097  44.583   4.199   2.259
13030W        W86098  10.269   4.400  11.768
13031W        W86099  16.666   4.201  11.431
13032W        W86100   7.633  21.136  10.116
13033W        W86101  20.495  28.636   4.108
13034W        W86102  36.791   1.684   1.380
13035W        W86103  44.860  23.639  12.349
13036W        W86104  44.886  42.301   0.424
13037W        W86105   2.986  37.298  10.358
13038W        W86106  40.407  21.987   4.135
13039W        W86107  44.249   1.408  12.667
13040W        W86108  40.270   3.913   2.422
13041W        W86109  12.871  18.168   2.828
13042W        W86110  31.325  25.056   1.539
13043W        W86111  20.047  23.502   4.190
13044W        W86112  12.979  41.019   2.584
13045W        W86113  42.259  23.113  12.822
13046W        W86114  34.932  17.441  11.157
13047W        W86115  25.580  43.690  10.416
13048W        W86116  28.928  19.835   4.318
13049W        W86117  20.031  33.488  14.255
13050W        W86118   8.305  31.007   4.531
13051W        W86119  42.075  25.409   2.802
13052W        W86120  29.662  20.156  11.394
13053W        W86121  21.754  15.102   4.270
13054W        W86122  36.038  29.271  14.667
13055W        W86123  41.095  22.799   1.439
13056W        W86124   6.164  38.076  14.924
13057W        W86125  27.453  23.625  10.858
13058W        W86126  10.817  37.939   4.263
13059W        W86127  13.507   1.218   2.382
13060W        W86128  24.472  28.626  10.783
13061W        W86129  30.945  10.462  12.734
13062W        W86130  26.121   6.066  11.580
13063W        W86131  24.078   8.783   4.353
13064W        W86132   9.592  17.695  10.716
13065W        W86133   3.817  25.144   0.229
13066W        W86134  24.877  37.149   2.176
13067W        W86135  21.662   6.886   0.519
13068W        W86136  28.700  14.252   4.162
13069W        W86137  23.718  44.828   0.368
13070W        W86138  14.330  22.666  13.480
13071W        W86139  15.280   4.526   4.688
13072W        W86140   1.310  43.899  13.166
13073W        W86141  19.301  41.712  11.777
13074W        W86142  43.515  11.868   3.685
13075W        W86143  14.478  44.492  12.228
13076W        W86144  25.186  29.888   4.188
13077W        W86145  30.336  25.033   5.064
13078W        W86146  38.419   0.382   0.940
13079W        W86147  18.208  26.429   4.259
13080W        W86148  36.389  10.028  14.063
13081W        W86149  23.671  16.504  13.241
13082W        W86150  30.874   4.841   1.258
13083W        W86151  36.959   0.927  12.389
13084W        W86152  19.566  28.513  12.216
13085W        W86153  29.654  29.523   2.198
13086W        W86154   0.649  12.159   4.291
13087W        W86155  32.491  26.153   1.810
13088W        W86156  21.782  13.323   1.399
13089W        W86157  24.671  18.514  11.623
13090W        W86158   7.221   7.943   1.406
13091W        W86159  18.225   7.043  13.351
13092W        W86160   2.358  15.823   4.092
13093W        W86161   1.357  16.899  13.967
13094W        W86162   8.362  43.851  12.601
13095W        W86163  22.742  16.598  11.973
13096W        W86164  33.985  15.171   0.379
13097W        W86165  13.269  27.030   4.062
13098W        W86166  12.830  38.076  12.513
13099W        W86167  11.258   3.884   3.904
13100W        W86168  28.175  13.611  14.390
13101W        W86169  15.245   4.772  11.920
13102W        W86170  32.576   1.537  13.346
13103W        W86171  22.521  32.724   1.354
13104W        W86172  38.864  22.326   1.843
13105W        W86173  23.948  21.710   3.591
13106W        W86174   5.997  43.369  11.984
13107W        W86175  23.259  20.785   4.308
13108W        W86176  44.136  25.157   4.192
13109W        W86177  13.817  25.795   2.656
13110W        W86178  11.670  43.004   4.044
13111W        W86179  21.583   1.964  10.622
13112W        W86180  38.868   8.518   0.798
13113W        W86181  11.829  25.933   2.792
13114W        W86182  10.342  35.096  13.420
13115W        W86183  25.918  27.720  11.223
13116W        W86184   0.438  15.112  14.880
13117W        W86185  43.479  33.626   1.075
13118W        W86186  42.094  16.112  10.733
13119W        W86187  22.019   5.907  10.619
13120W        W86188   2.155  25.919  13.542
13121W        W86189  43.029  23.022  13.437
13122W        W86190   9.218  23.545   0.164
13123W        W86191  38.141   0.789   3.717
13124W        W86192  16.539  13.086   2.384
13125W        W86193  29.045  15.110   4.123
13126W        W86194  24.480  42.941  13.889
13127W        W86195  33.452   9.682  10.436
13128W        W86196  17.012  28.830   5.034
13129W        W86197  30.295  44.446  10.717
13130W        W86198   0.421  41.991  14.783
13131W        W86199  43.832   2.768   3.968
13132W        W86200  10.331  19.628  12.186
13133W        W86201  21.080  24.953   4.574
13134W        W86202  36.028  33.972   0.783
13135W        W86203   9.416  43.341   2.410
13136W        W86204   3.242   9.169   4.147
13137W        W86205  11.702   3.679  10.495
13138W        W86206  39.365  14.651  13.532
13139W        W86207  10.486  33.512   2.668
13140W        W86208  29.918   0.766  14.331
13141W        W86209  28.225   2.145  13.904
13142W        W86210  32.607  14.124  13.372
13143W        W86211  38.904  19.159   1.846
13144W        W86212  31.947  20.328  12.910
13145W        W86213  26.243  43.952   2.902
13146W        W86214  41.956  15.624   1.091
13147W        W86215  30.860  19.597  10.665
13148W        W86216  43.097  25.250  12.878
13149W        W86217  39.861   0.769   2.427
13150W        W86218  22.721  14.534  14.422
13151W        W86219  25.557  21.274  12.577
13152W        W86220  33.516  31.166   3.211
13153W        W86221  44.686  32.049   1.570
13154W        W86222   7.790  16.780  13.420
13155W        W86223  42.484  42.395  11.223
13156W        W86224  36.925  24.321   1.850
13157W        W86225  11.392   2.725  12.371
13158W        W86226  34.917  32.632  12.543
13159W        W86227  14.118  43.971  13.355
13160W        W86228  34.809  22.572  12.408
13161W        W86229  22.886  44.081  11.114
13162W        W86230  36.209  39.848  13.373
13163W        W86231  33.528  36.456   0.256
13164W        W86232   8.681  32.382   4.908
13165W        W86233  30.696  39.586   3.263
13166W        W86234   2.317  14.080  12.089
13167W        W86235  13.208  29.081   1.320
13168W        W86236  41.975   8.067  11.201
13169W        W86237  35.408  17.561  14.777
13170W        W86238  29.691  14.289   2.060
13171W        W86239  42.074   5.681   2.027
13172W        W86240  10.443  40.829   3.849
13173W        W86241  36.532  40.537   2.968
13174W        W86242   1.658   3.419  11.503
13175W        W86243  35.454  39.919   4.625
13176W        W86244  21.505  23.556   1.814
13177W        W86245  44.034   9.230   3.279
13178W        W86246  31.286   8.614   2.797
13179W        W86247  23.031  31.529  11.643
13180W        W86248  17.674  32.973   0.921
13181W        W86249   1.305   2.402  11.123
13182W        W86250   5.798  39.045  13.988
13183W        W86251   4.244  18.676  11.971
13184W        W86252  37.080  43.585   0.712
13185W        W86253  25.129  28.856   4.076
13186W        W86254  27.448   7.870   0.870
13187W        W86255  15.769  21.995  10.817
13188W        W86256  44.778   9.405   1.346
13189W        W86257  16.722  42.979   3.099
13190W        W86258  29.568  33.292  13.085
13191W        W86259   0.509   7.005  12.980
13192W        W86260  27.443   7.158  12.941
13193W        W86261   3.893   4.751  14.984
13194W        W86262  24.252  34.343  14.586
13195W        W86263   6.210  21.268   2.688
13196W        W86264  30.082  44.957   4.244
13197W        W86265   6.671  36.034  13.736
13198W        W86266  23.192  16.038  12.628
13199W        W86267  26.924  13.836  10.760
13200W        W86268   1.801  25.024  10.906
13201W        W86269  21.691   3.631   1.741
13202W        W86270   6.629  43.384   4.278
13203W        W86271  21.661   1.433   2.630
13204W        W86272   0.861  32.296   0.271
13205W        W86273  31.551  17.772  13.922
13206W        W86274  41.956  42.170   4.444
13207W        W86275  17.368  41.599   0.751
13208W        W86276  35.991   9.310   3.119
13209W        W86277  28.647  22.778   1.251
13210W        W86278  43.814   2.316   3.727
13211W        W86279  32.529  30.433   2.181
13212W        W86280  18.216  44.926   1.415
13213W        W86281  19.946  32.733   0.426
13214W        W86282  39.273  42.372  12.559
13215W        W86283  14.662   0.615   0.101
13216W        W86284  20.954  21.675  10.609
13217W        W86285  20.943  25.944   4.229
13218W        W86286  24.663  28.069  10.676
13219W        W86287  27.460  13.969   0.220
13220W        W86288  27.439  32.380  11.075
13221W        W86289   8.117  26.784   3.887
13222W        W86290  28.619  18.536   3.304
13223W        W86291  24.982  12.743  12.817
13224W        W86292  38.843  20.994  13.608
13225W        W86293  13.297   7.617  12.540
13226W        W86294  19.788  29.223  12.651
13227W        W86295  39.777  40.854  14.938
13228W        W86296  22.009  13.286   3.139
13229W        W86297   9.490  14.135  12.141
13230W        W86298   1.383  13.620  11.916
13231W        W86299  22.108   0.638   3.751
13232W        W86300  35.843  16.824  11.152
13233W        W86301  25.618   3.209  12.501
13234W        W86302  35.857  26.894   4.622
13235W        W86303  24.285   7.306  10.982
13236W        W86304   9.435   3.201  11.570
13237W        W86305  20.502  33.664   3.582
13238W        W86306   3.404  19.103  13.931
13239W        W86307  12.131  25.928  14.293
13240W        W86308  42.602  25.514   3.221
13241W        W86309   2.714  33.005  13.995
13242W        W86310  10.552  41.418  10.621
13243W        W86311  33.949  12.930  14.755
13244W        W86312  14.065  28.349   3.636
13245W        W86313  38.159  21.460  12.140
13246W        W86314   3.434  13.396   3.274
13247W        W86315   1.341  27.945  13.963
13248W        W86316  31.083  12.124   3.859
13249W        W86317  18.635  20.788   4.333
13250W        W86318  41.893  44.336  14.095
13251W        W86319  41.404  42.339  14.584
13252W        W86320   7.748   9.921  14.902
13253W        W86321  11.008  20.638   0.196
13254W        W86322   2.993  12.628  14.517
13255W        W86323  19.133  37.332  14.523
13256W        W86324   5.753  30.950  11.973
13257W        W86325  41.389   2.841  13.605
13258W        W86326  40.666  31.997   5.071
13259W        W86327  26.581  39.526   4.724
13260W        W86328   1.472   0.832  13.288
13261W        W86329  17.415  34.282  11.935
13262W        W86330  44.992  11.780   1.802
13263W        W86331  21.997  15.121  13.498
13264W        W86332   2.231  24.029   3.664
13265W        W86333  44.027  44.440  10.704
13266W        W86334  28.665  26.949  12.036
13267W        W86335  39.043  12.619  10.557
13268W        W86336  36.223   2.120   3.399
13269W        W86337  24.324  28.418   3.146
13270W        W86338  38.948  38.618  12.206
13271W        W86339  11.184  40.605  10.746
13272W        W86340  31.614  40.872  13.332
13273W        W86341  43.426  21.297  14.806
13274W        W86342  32.729  27.198  11.032
13275W        W86343   7.358   1.908  12.909
13276W        W86344  32.011  23.706   2.635
13277W        W86345  33.179  35.024   4.052
13278W        W86346   2.780  12.890   2.684
13279W        W86347  41.414  41.797  13.007
13280W        W86348  17.810  38.731  10.834
13281W        W86349  19.908  23.108  11.973
13282W        W86350  30.342  38.813   3.132
13283W        W86351  43.773   1.222   1.760
13284W        W86352  29.350  14.144   0.830
13285W        W86353  41.662  10.253  12.062
13286W        W86354   0.476  12.832  10.703
13287W        W86355  42.414   7.797  11.137
13288W        W86356  43.050   6.974  11.090
13289W        W86357   5.877  18.064  13.585
13290W        W86358  30.883  34.513   1.547
13291W        W86359  25.646  29.630   4.168
13292W        W86360  21.355   4.221  12.405
13293W        W86361  20.398  12.796  14.438
13294W        W86362  37.343   6.115   1.765
13295W        W86363   6.717   6.869  14.986
13296W        W86364  14.666  41.007  12.985
13297W        W86365  41.931  38.329   2.090
13298W        W86366  14.545  17.126   1.889
13299W        W86367   3.217   3.808  13.097
13300W        W86368  32.539  27.212  10.531
13301W        W86369  15.597  18.524   3.249
13302W        W86370  15.452  23.621   0.775
13303W        W86371  23.111  12.166   0.370
13304W        W86372  10.079  32.026  11.001
13305W        W86373  18.271   9.527   2.749
13306W        W86374  41.783  43.377  13.929
13307W        W86375  29.547   1.525   4.599
13308W        W86376  36.908  41.470   0.878
13309W        W86377  37.798  28.678  14.606
13310W        W86378   6.310   8.693   0.903
13311W        W86379  31.146  21.206   3.732
13312W        W86380  38.847  12.861  13.954
13313W        W86381  20.241  41.813  10.964
13314W        W86382  17.949  27.617   2.223
13315W        W86383  37.118  12.941  13.878
13316W        W86384  15.756  16.149   4.772
13317W        W86385   0.816  21.954   0.953
13318W        W86386  37.724  22.154  10.595
13319W        W86387  25.242  21.525  12.903
13320W        W86388  21.304  25.277   1.329
13321W        W86389  34.890   4.405   0.851
13322W        W86390   3.827  41.122   0.284
13323W        W86391  14.525  44.437   4.497
13324W        W86392   6.357  18.550   1.844
13325W        W86393  17.702  41.220   0.821
13326W        W86394  22.988  19.088  10.929
13327W        W86395  39.842  42.475   1.274
13328W        W86396  15.830  30.592   2.351
13329W        W86397   9.154   0.957  12.986
13330W        W86398  33.898  24.197   5.115
13331W        W86399  30.689  35.872   4.615
13332W        W86400  35.877  11.268   4.598
13333W        W86401   6.249   5.862  11.968
13334W        W86402  19.139   8.621   1.335
13335W        W86403  39.574  38.267   3.271
13336W        W86404  13.083  32.550   0.894
13337W        W86405  20.980  16.656   5.241
13338W        W86406  26.218  19.148  14.669
13339W        W86407  42.703  31.175   3.286
13340W        W86408  17.671  30.508   4.312
13341W        W86409  30.821  44.950  12.468
13342W        W86410   6.878  20.561   3.760
13343W        W86411  22.468  31.104   4.274
13344W        W86412  44.057  14.011   3.270
13345W        W86413  21.726  29.957   2.946
13346W        W86414   7.776  35.692   1.262
13347W        W86415   6.499  23.979  12.523
13348W        W86416  32.444  38.887  14.986
13349W        W86417  23.709  34.230  11.624
13350W        W86418   5.799  26.193   4.344
13351W        W86419  20.523  23.226   0.958
13352W        W86420  33.170  21.071   3.139
13353W        W86421  34.059  31.547  10.532
13354W        W86422  41.529  33.140  10.708
13355W        W86423  24.415  40.804  12.951
13356W        W86424   3.450  40.951   0.575
13357W        W86425  24.992  34.253   3.314
13358W        W86426   1.191   1.442   3.394
13359W        W86427  25.471   5.374  11.988
13360W        W86428  27.501  40.312   1.874
13361W        W86429   9.653  34.081  11.594
13362W        W86430  18.833  27.029   3.117
13363W        W86431   7.103  36.890  13.775
13364W        W86432  15.465  15.752   3.047
13365W        W86433  39.358  35.093  12.676
13366W        W86434  28.933  17.222   1.484
13367W        W86435  10.316  12.968   0.513
13368W        W86436  26.918   5.387   2.260
13369W        W86437  19.747  21.709   4.939
13370W        W86438  33.958   6.411   3.623
13371W        W86439  38.029  10.178  12.599
13372W        W86440  32.743  34.674   4.087
13373W        W86441  14.568  11.366  11.921
13374W        W86442  14.180  44.804   4.096
13375W        W86443  17.659  23.289  12.305
13376W        W86444  37.932  35.355   2.142
13377W        W86445  10.407   5.257   4.745
13378W        W86446  13.749   5.882   3.121
13379W        W86447   8.173  12.577  13.041
13380W        W86448  39.971  34.586  13.824
13381W        W86449  12.363  29.480   1.262
13382W        W86450  37.892   3.839   3.764
13383W        W86451  27.747  12.126   1.338
13384W        W86452  28.148  35.350   2.761
13385W        W86453  20.323   2.897  11.122
13386W        W86454  31.408  37.864  10.653
13387W        W86455  11.762  42.456  13.946
13388W        W86456  38.348   5.467  14.164
13389W        W86457  30.889  10.213   5.078
13390W        W86458   4.932  17.338  11.635
13391W        W86459  33.496  31.560  11.301
13392W        W86460  29.905  36.946  14.002
13393W        W86461   8.132  30.616   1.833
13394W        W86462  42.257  41.582   1.763
13395W        W86463  12.488  44.139   2.361
13396W        W86464  20.456  18.279   0.268
13397W        W86465  37.372  42.841   0.297
13398W        W86466  30.967   7.628  11.630
13399W        W86467  11.180  41.726   0.840
13400W        W86468   6.664   1.411  12.461
13401W        W86469  35.528  32.105  12.352
13402W        W86470  26.607  31.562  10.697
13403W        W86471  19.999  22.502  14.281
13404W        W86472   3.184  24.643  14.795
13405W        W86473   7.662  36.462   3.344
13406W        W86474   4.204   6.685  14.853
13407W        W86475  28.647  24.759  14.722
13408W        W86476  29.318  38.750   3.340
13409W        W86477  41.234  40.461  11.027
13410W        W86478   2.706   0.734  10.810
13411W        W86479   2.877   0.291  11.719
13412W        W86480   9.417  34.434   5.055
13413W        W86481  40.969  41.801  10.707
13414W        W86482   3.215  32.341  12.349
13415W        W86483  44.005  21.068   1.893
13416W        W86484  14.647  13.243  12.093
13417W        W86485  34.757   4.569  13.778
13418W        W86486  21.270   9.401   2.246
13419W        W86487   6.624   7.351   4.468
13420W        W86488  23.402  40.457  12.322
13421W        W86489   1.046  20.738  11.665
13422W        W86490  35.068  30.036   4.723
13423W        W86491   8.447  11.190  11.261
13424W        W86492  16.029  39.006   4.761
13425W        W86493  13.833  39.941  12.974
13426W        W86494   2.340  28.288   9.838
13427W        W86495   9.252  24.321  11.219
13428W        W86496   7.879  13.315   3.201
13429W        W86497  43.918  34.009  10.899
13430W        W86498  27.459  43.439  12.668
13431W        W86499  17.152  28.559   2.015
13432W        W86500   9.123   5.631   2.506
13433W        W86501  44.469  13.766   1.683
13434W        W86502  28.112  40.928  14.480
13435W        W86503  16.911  31.660   1.670
13436W        W86504  20.401  17.232  14.399
13437W        W86505  12.713  43.967   3.764
13438W        W86506  25.224   2.503  13.324
13439W        W86507   6.763  27.954  10.662
13440W        W86508  29.029  35.347   0.749
13441W        W86509  23.604  17.070  11.046
13442W        W86510  31.990  40.538  14.517
13443W        W86511  35.531   3.165  11.628
13444W        W86512   5.618  42.351  12.478
13445W        W86513  43.446  24.197   0.398
13446W        W86514   6.448   9.717   4.226
13447W        W86515  20.981  18.130   4.366
13448W        W86516  27.860  23.435  13.840
13449W        W86517   7.905  42.983  11.139
13450W        W86518   9.755  41.296   4.762
13451W        W86519  27.943  36.477   0.941
13452W        W86520   6.861  36.475  13.974
13453W        W86521  24.988  25.457  13.505
13454W        W86522   4.413  13.424   3.618
13455W        W86523  26.439  27.371   2.700
13456W        W86524  21.082  37.368  11.076
13457W        W86525  29.960   8.533   1.808
13458W        W86526   0.457   0.189  13.943
13459W        W86527  42.808  26.079   0.426
13460W        W86528  34.888  25.522  14.325
13461W        W86529  36.031  22.838  12.920
13462W        W86530  21.030  17.574  13.220
13463W        W86531  17.206  37.057   3.215
13464W        W86532  12.197  25.987   0.338
13465W        W86533   2.346  33.945  12.138
13466W        W86534  38.171  13.226   1.131
13467W        W86535  18.967  20.130   2.228
13468W        W86536  31.820  28.446   3.419
13469W        W86537   0.076  17.565  11.758
13470W        W86538   4.291  32.486   0.471
13471W        W86539  29.878  29.613  13.932
13472W        W86540  36.050   2.758  14.608
13473W        W86541  34.942   1.461   2.197
13474W        W86542  28.835  11.017   5.521
13475W        W86543  16.330  24.388  13.594
13476W        W86544  14.338  12.824  13.546
13477W        W86545   7.490   5.637  13.443
13478W        W86546   3.806  27.932  10.693
13479W        W86547  11.949  27.496  14.282
13480W        W86548   8.789  14.935   4.255
13481W        W86549  43.152  16.801  12.131
13482W        W86550  44.884  32.149  10.844
13483W        W86551  28.213   1.606   0.891
13484W        W86552  39.523   9.433   1.687
13485W        W86553  21.916  39.324   4.455
13486W        W86554  35.843   8.435   3.276
13487W        W86555  35.614  44.358   4.174
13488W        W86556  15.282  32.638  12.943
13489W        W86557  14.590  37.062   3.872
13490W        W86558   3.010   6.369  12.461
13491W        W86559  37.997  13.129   2.929
13492W        W86560   7.686  21.978   1.788
13493W        W86561  38.827  15.306  13.823
13494W        W86562  39.303  23.623   1.777
13495W        W86563  42.375  44.708  10.266
13496W        W86564   4.461  27.632   1.910
13497W        W86565  22.812   3.887  13.144
13498W        W86566  44.026  31.618   0.031
13499W        W86567  30.522  22.188   0.075
13500W        W86568  22.174  22.213  11.064
13501W        W86569  15.262  16.073  12.968
13502W        W86570  26.056  37.771   4.119
13503W        W86571  22.188  14.555   2.152
13504W        W86572  13.778  30.012   3.759
13505W        W86573   5.977  16.075  12.840
13506W        W86574  39.099   7.170   3.139
13507W        W86575  41.099  18.160   1.611
13508W        W86576  13.740   1.888   4.708
13509W        W86577  44.555  25.706  11.537
13510W        W86578  34.649  43.377  11.588
13511W        W86579  35.427  20.634   2.982
13512W        W86580  44.740  15.176  13.481
13513W        W86581   1.288  20.496   0.985
13514W        W86582  18.809   3.906  13.090
13515W        W86583  40.126   4.256   1.671
13516W        W86584  41.529  23.974   1.884
13517W        W86585  41.357  39.526  10.973
13518W        W86586  25.653   7.235  11.463
13519W        W86587   4.922  20.799   2.201
13520W        W86588  42.474  25.229  12.910
13521W        W86589  15.759  41.907  14.272
13522W        W86590  26.467   5.570   3.718
13523W        W86591  33.656  14.792  14.012
13524W        W86592  25.156  44.942   2.816
13525W        W86593  33.546   1.494   4.281
13526W        W86594  43.498  41.254   1.843
13527W        W86595  11.267   8.791   2.187
13528W        W86596  20.698  15.305   3.756
13529W        W86597  28.200   4.870   3.015
13530W        W86598  37.460  43.521   2.657
13531W        W86599  29.626  44.280  10.266
13532W        W86600   6.423  21.576  10.667
13533W        W86601  41.881  42.515   4.815
13534W        W86602  19.112   0.774  13.916
13535W        W86603  21.172  27.243   2.737
13536W        W86604   7.238  32.157  13.420
13537W        W86605  39.999  26.749   4.216
13538W        W86606  42.133   4.645   0.473
13539W        W86607  44.452  25.168  13.356
13540W        W86608  33.017  16.575   2.810
13541W        W86609  29.634   0.959  12.002
13542W        W86610  31.426  23.803   0.369
13543W        W86611  32.087  38.568  12.862
13544W        W86612  15.035  15.737   0.340
13545W        W86613  27.440  42.452  14.559
13546W        W86614  44.524  28.897  13.025
13547W        W86615  36.056   5.845  13.099
13548W        W86616   9.170  17.299  13.904
13549W        W86617  24.996  37.993  14.817
13550W        W86618  11.840  41.024  11.896
13551W        W86619  32.019  10.200  10.741
13552W        W86620  20.776   3.499   1.723
13553W        W86621  43.396  34.424  12.545
13554W        W86622   8.634   2.381   5.351
13555W        W86623  20.022   4.158   3.722
13556W        W86624  14.574  10.320   4.733
13557W        W86625  42.280   6.997  14.864
13558W        W86626  18.606   2.020   3.928
13559W        W86627   2.323  22.450  11.600
13560W        W86628  30.421  12.275   1.709
13561W        W86629   7.863  36.090   5.135
13562W        W86630   7.472   0.507   4.271
13563W        W86631  14.793   4.405  10.499
13564W        W86632  19.793  24.187   1.632
13565W        W86633  38.932   3.373  11.583
13566W        W86634   4.851  37.048   3.162
13567W        W86635   0.879  28.187  13.905
13568W        W86636  31.565  13.790   1.020
13569W        W86637  20.086   1.469   0.772
13570W        W86638   9.712   1.422  11.845
13571W        W86639   4.750  25.001   3.288
13572W        W86640  44.298  30.533   4.630
13573W        W86641  19.587  33.421   1.623
13574W        W86642  40.099  21.439  14.734
13575W        W86643   7.944  20.310   1.413
13576W        W86644  29.581  30.896   3.516
13577W        W86645  33.429  44.353  11.467
13578W        W86646  22.700   3.902   0.416
13579W        W86647  32.828   1.283  12.962
13580W        W86648  15.191  34.801   3.668
13581W        W86649  11.744   5.222  10.645
13582W        W86650  26.856   1.368   4.596
13583W        W86651  42.009  31.415  13.818
13584W        W86652  11.748  20.045  13.606
13585W        W86653  25.098  40.822   1.203
13586W        W86654  38.864  10.829   4.005
13587W        W86655  38.939  31.577   0.532
13588W        W86656  30.392  23.277  14.464
13589W        W86657  28.297   7.289   2.717
13590W        W86658   8.188  22.301  10.763
13591W        W86659  27.096   0.290   0.910
13592W        W86660  41.705  16.151  13.932
13593W        W86661  22.134  29.538   3.226
13594W        W86662  27.001  20.501   1.731
13595W        W86663  40.155  44.799  13.932
13596W        W86664   3.965  15.570   4.724
13597W        W86665  18.050  24.876   4.224
13598W        W86666  44.700  40.025  13.022
13599W        W86667  21.225   3.726  14.923
13600W        W86668   5.829  42.880  13.449
13601W        W86669  24.191  28.579  11.270
13602W        W86670  42.776  28.618  12.805
13603W        W86671  22.514   1.372  10.961
13604W        W86672  33.358  33.107   2.426
13605W        W86673   4.559  32.153  11.919
13606W        W86674  11.819   6.487  11.063
13607W        W86675  12.557  41.406   0.699
13608W        W86676  25.030  36.927  12.136
13609W        W86677  26.732  25.691   2.538
13610W        W86678  38.004  22.732   2.815
13611W        W86679  22.035  42.511  11.668
13612W        W86680  43.815  38.054  14.447
13613W        W86681   3.768  42.332   1.439
13614W        W86682  16.186   8.595  13.859
13615W        W86683  43.859   3.825   4.352
13616W        W86684  44.456  22.095  11.701
13617W        W86685  25.059  35.949   2.745
13618W        W86686  36.369  23.699   3.172
13619W        W86687   0.676  13.015  13.379
13620W        W86688  34.161   1.806  11.506
13621W        W86689  26.113   5.384   2.770
13622W        W86690   0.910  43.395  12.956
13623W        W86691  15.319   2.890  14.655
13624W        W86692   1.908   9.312   0.713
13625W        W86693  13.631  30.431  14.774
13626W        W86694   8.203  17.080  10.798
13627W        W86695  14.797  31.021   0.869
13628W        W86696  33.595  35.011   4.353
13629W        W86697  10.281  31.980  11.471
13630W        W86698  29.902  24.727   1.736
13631W        W86699  18.576  38.084   2.092
13632W        W86700  36.872   0.864  14.840
13633W        W86701  19.635   3.331  11.492
13634W        W86702  11.389  30.612  12.997
13635W        W86703  15.449  22.094  11.977
13636W        W86704  13.741  43.930   2.172
13637W        W86705   7.009  35.325   4.649
13638W        W86706  44.532  24.754   3.097
13639W        W86707  43.223  37.066  11.617
13640W        W86708  15.762  16.001   3.379
13641W        W86709  18.194  44.003  12.089
13642W        W86710  34.575   8.407  12.602
13643W        W86711  27.467  15.179   0.309
13644W        W86712  41.824  33.216  13.402
13645W        W86713   3.388   4.453   3.309
13646W        W86714  17.301  26.038  14.702
13647W        W86715  32.724  16.856  11.518
13648W        W86716  41.056  17.327   1.792
13649W        W86717  26.177   0.121  13.892
13650W        W86718  38.281  15.316  13.846
13651W        W86719  15.162  27.056   3.957
13652W        W86720   5.486  37.281  11.548
13653W        W86721  38.494  13.639   1.137
13654W        W86722  44.588  22.116   0.427
13655W        W86723  20.673  42.494   4.864
13656W        W86724   0.058  44.220   3.063
13657W        W86725  37.253  12.888  11.164
13658W        W86726  32.077  11.271   1.091
13659W        W86727  10.107  15.635  11.111
13660W        W86728  23.181  18.530   0.376
13661W        W86729  26.659  10.126   2.195
13662W        W86730  12.090   8.484  12.432
13663W        W86731  39.368  18.834  10.386
13664W        W86732  33.495  40.960  12.940
13665W        W86733  35.971  41.764   1.187
13666W        W86734  36.955  40.762   3.743
13667W        W86735   2.526  26.598   4.496
13668W        W86736  24.027  43.474  12.472
13669W        W86737  41.834  16.761  10.189
13670W        W86738  36.842   4.951   1.327
13671W        W86739  10.434  30.355  12.826
13672W        W86740  13.553   2.455  11.721
13673W        W86741  42.286  25.096   3.184
13674W        W86742  17.476  13.755  11.865
13675W        W86743  42.418  32.184  13.267
13676W        W86744  18.091  30.073  14.438
13677W        W86745  41.424  31.784   3.369
13678W        W86746  20.969   8.849  13.276
13679W        W86747   0.702   3.871   1.427
13680W        W86748  30.885   5.754   0.013
13681W        W86749  42.826  31.094   1.597
13682W        W86750  34.021  42.606   5.304
13683W        W86751  15.862  22.709   3.705
13684W        W86752  40.010  23.697  10.766
13685W        W86753  21.980  41.772   3.744
13686W        W86754  40.600  12.710   0.243
13687W        W86755   5.828  15.753   4.333
13688W        W86756  41.283   8.770  14.402
13689W        W86757  24.482  14.800  11.125
13690W        W86758   3.425   3.274  14.826
13691W        W86759  34.997  24.396  13.651
13692W        W86760  42.521  39.529  12.960
13693W        W86761  24.198  21.081  14.502
13694W        W86762   9.636   3.967  12.584
13695W        W86763  40.431  35.832  13.783
13696W        W86764   5.487  14.239   3.179
13697W        W86765  42.570   2.669   3.521
13698W        W86766  28.951  13.157   3.530
13699W        W86767  40.661  14.711  12.886
13700W        W86768  26.132   5.540  12.424
13701W        W86769  15.635  33.077   0.924
13702W        W86770  17.224   9.885  11.102
13703W        W86771  21.225  43.461   1.602
13704W        W86772  41.066   2.651   4.658
13705W        W86773  34.413  43.373   3.072
13706W        W86774  13.320  11.676  11.643
13707W        W86775  35.360  22.725   2.759
13708W        W86776  22.773  22.765   2.865
13709W        W86777  14.089  32.951  11.152
13710W        W86778  39.345   6.185   2.649
13711W        W86779  10.780  44.982  10.932
13712W        W86780   0.312  28.935   2.286
13713W        W86781  43.926   6.037  11.575
13714W        W86782   9.885  32.950  12.568
13715W        W86783  21.480  32.401   2.894
13716W        W86784   8.229  17.361   1.907
13717W        W86785   7.785   7.339   3.774
13718W        W86786  18.485  24.181   1.422
13719W        W86787  11.584  12.725   0.037
13720W        W86788  39.934  26.357   1.410
13721W        W86789  38.806  25.419   0.861
13722W        W86790  36.176   1.845   2.788
13723W        W86791  34.312  32.105   1.381
13724W        W86792  34.108  26.723   3.274
13725W        W86793  43.881   3.338   1.235
13726W        W86794  23.213   3.098  13.314
13727W        W86795  28.003   0.186  13.378
13728W        W86796  11.899   5.939   3.715
13729W        W86797  42.490  33.365  11.497
13730W        W86798  23.562  30.441   0.441
13731W        W86799   9.187  34.563   3.187
13732W        W86800  24.517  40.850  11.101
13733W        W86801  38.477  14.027  13.515
13734W        W86802  41.730  27.469  12.809
13735W        W86803  42.259   6.433  11.227
13736W        W86804  20.690  26.873  10.557
13737W        W86805   2.425  35.922  10.584
13738W        W86806  14.865   1.938   1.717
13739W        W86807  42.046  26.967  10.758
13740W        W86808   9.610  16.890   2.818
13741W        W86809  24.601   6.660  13.935
13742W        W86810  40.811   6.185   2.858
13743W        W86811  18.021  29.662  14.768
13744W        W86812   0.880   8.697   3.282
13745W        W86813   8.318  41.308  14.576
13746W        W86814   9.702  29.943  13.802
13747W        W86815  43.971   5.411  14.409
13748W        W86816  17.040  10.660  10.665
13749W        W86817  12.260   6.911  12.530
13750W        W86818  44.838   5.140  12.371
13751W        W86819   0.630   5.142   3.714
13752W        W86820  25.700   2.437  14.812
13753W        W86821   7.403  22.288   0.832
13754W        W86822  40.166  14.808  12.816
13755W        W86823   9.702   5.616  13.794
13756W        W86824  34.888  31.677  11.106
13757W        W86825  36.359   5.961  14.399
13758W        W86826   0.814  30.421  11.573
13759W        W86827  16.773  18.027   3.756
13760W        W86828  22.073  28.275   1.883
13761W        W86829   9.258  41.280   4.603
13762W        W86830  30.405  43.352   1.256
13763W        W86831  25.665  41.860  10.829
13764W        W86832  39.534  43.736   2.177
13765W        W86833  21.081  37.809   2.285
13766W        W86834   4.857   7.303  13.797
13767W        W86835  32.661  16.160   1.673
13768W        W86836   2.496   8.916   1.326
13769W        W86837  41.871  22.661   4.862
13770W        W86838  11.420  37.310  12.443
13771W        W86839  14.869  33.225  11.507
13772W        W86840  40.345   8.916  11.827
13773W        W86841  22.101   9.927   1.423
13774W        W86842  33.040  24.953   4.083
13775W        W86843  40.809   9.325   4.673
13776W        W86844  37.796  27.614   0.853
13777W        W86845  10.939  33.855   0.510
13778W        W86846  22.686  42.577  10.635
13779W        W86847  12.689  27.220   0.850
13780W        W86848  43.711  13.642  13.572
13781W        W86849  43.081  34.131   4.202
13782W        W86850   5.894  15.692   4.905
13783W        W86851   7.065   3.348   2.521
13784W        W86852  24.833  19.614   1.529
13785W        W86853  21.712  14.416   1.969
13786W        W86854   6.423  29.133  13.818
13787W        W86855   3.841  42.569  10.923
13788W        W86856  31.538  11.408  14.204
13789W        W86857  26.483  16.689   3.630
13790W        W86858   3.838  29.513   1.882
13791W        W86859  15.843   7.638   3.803
13792W        W86860  15.150  28.561   4.883
13793W        W86861  41.908  41.977  12.851
13794W        W86862   5.576  32.333   3.331
13795W        W86863  27.751   1.592  14.398
13796W        W86864   7.948  34.110   1.227
13797W        W86865   0.373   1.304   1.930
13798W        W86866  26.990  22.062   0.343
13799W        W86867   6.338  35.467   0.292
13800W        W86868  22.557  41.102   3.670
13801W        W86869  38.328  41.188   3.796
13802W        W86870   0.240  40.177  13.491
13803W        W86871  22.202   6.418   4.837
13804W        W86872  24.191  31.100   3.556
13805W        W86873  17.837  13.349  12.007
13806W        W86874  20.985  14.526  14.797
13807W        W86875   1.881  23.159  13.602
13808W        W86876   0.428  29.742  12.939
13809W        W86877  35.135  31.426   2.116
13810W        W86878   0.772  13.541   3.181
13811W        W86879  18.134  14.313  13.923
13812W        W86880  25.260   0.059   4.589
13813W        W86881  31.570  19.117  11.562
13814W        W86882   1.456  34.533  13.821
13815W        W86883  41.951  31.172   2.779
13816W        W86884  35.127  30.619  14.739
13817W        W86885  40.484   0.196  12.841
13818W        W86886  17.699  15.472   0.304
13819W        W86887  35.090   0.167  10.671
13820W        W86888  33.885   6.316  10.682
13821W        W86889   8.669  31.159   3.482
13822W        W86890   0.991  30.983   4.803
13823W        W86891  29.846  36.981   0.726
13824W        W86892  11.269  36.015   3.400
13825W        W86893  22.708  41.602  12.181
13826W        W86894   0.303  16.714   4.462
13827W        W86895  15.514   7.858  12.229
13828W        W86896  41.800  32.548  14.988
13829W        W86897  42.237  31.422   3.169
13830W        W86898   4.468  42.851   0.985
13831W        W86899  30.501  13.630   3.622
13832W        W86900   6.713  24.594   0.018
13833W        W86901  41.479   4.236   1.318
13834W        W86902  31.951  41.926   1.472
13835W        W86903  24.412   9.839   1.794
13836W        W86904  33.449  22.088   1.056
13837W        W86905  28.500  11.759  12.752
13838W        W86906  25.819  24.231   2.776
13839W        W86907  40.408   5.344   1.838
13840W        W86908  34.919  13.720  14.941
13841W        W86909  18.588  31.375   4.361
13842W        W86910  27.819  17.048  13.515
13843W        W86911   1.254  27.640   4.188
13844W        W86912  13.899   0.329  12.008
13845W        W86913  36.638  22.174  11.543
13846W        W86914   6.133  23.626  12.444
13847W        W86915  41.510  39.940  13.534
13848W        W86916  30.989   1.746   1.451
13849W        W86917  27.985  29.900  13.895
13850W        W86918   1.430   7.856  11.565
13851W        W86919  35.283  34.030  14.967
13852W        W86920  23.496  41.800  12.510
13853W        W86921   7.390   9.664  11.406
13854W        W86922  18.241  41.829   1.405
13855W        W86923  36.455   8.210   1.983
13856W        W86924  12.805  34.113  14.792
13857W        W86925   5.332  21.087   4.111
13858W        W86926  43.906   4.704   4.285
13859W        W86927  42.409  26.956  12.482
13860W        W86928  20.792  16.642  12.148
13861W        W86929  18.564  29.634  13.031
13862W        W86930  38.083   6.491   4.844
13863W        W86931  29.190  25.427   4.139
13864W        W86932  34.126  42.039   1.715
13865W        W86933  22.500  26.205   1.325
13866W        W86934  30.953  36.555   3.398
13867W        W86935  31.532   3.945   3.307
13868W        W86936  15.279  34.478   1.885
13869W        W86937  43.958  33.536  11.718
13870W        W86938  33.461   1.611   2.392
13871W        W86939   1.479  19.312   4.073
13872W        W86940  39.019  13.575   1.323
13873W        W86941  17.148  20.958  12.157
13874W        W86942   8.388  31.472   3.791
13875W        W86943   6.172  38.778  13.312
13876W        W86944   0.513  24.026  14.451
13877W        W86945   2.733  27.070   3.289
13878W        W86946  11.247   7.470   0.452
13879W        W86947  38.610  37.567  11.484
13880W        W86948   3.004  32.568   4.087
13881W        W86949  41.121  26.685  13.931
13882W        W86950  33.562  39.309  14.764
13883W        W86951  20.588  39.552  14.659
13884W        W86952  25.975   5.248   4.540
13885W        W86953  35.958  36.395   4.744
13886W        W86954  40.437  21.528   1.335
13887W        W86955  16.731  23.088   1.612
13888W        W86956  43.474  37.572   0.274
13889W        W86957  15.110  25.740  11.300
13890W        W86958  39.905   6.435  13.775
13891W        W86959  18.299   7.793   2.861
13892W        W86960  26.603  30.056   2.657
13893W        W86961  38.965  29.641   0.421
13894W        W86962  26.218  34.595  10.704
13895W        W86963  34.143   3.234  11.551
13896W        W86964  22.771  25.118  12.121
13897W        W86965  12.805  18.226   5.055
13898W        W86966   0.895  40.485  14.130
13899W        W86967  29.318  32.205  11.050
13900W        W86968   0.196  36.976   1.355
13901W        W86969   5.437  37.030  14.811
13902W        W86970  17.229  27.255   4.825
13903W        W86971  12.858  14.162   1.350
13904W        W86972  21.923  26.465  11.010
13905W        W86973  22.398  25.235  12.461
13906W        W86974   1.460  20.235   2.820
13907W        W86975  31.580  42.034  14.637
13908W        W86976  28.956   9.788   2.072
13909W        W86977  28.324   1.853   9.772
13910W        W86978  15.112  39.346  13.779
13911W        W86979   1.275  43.722  14.218
13912W        W86980  22.758   9.682  14.951
13913W        W86981  20.357  38.405   4.137
13914W        W86982  26.716   6.897   1.247
13915W        W86983  34.339  23.586  12.542
13916W        W86984  23.437  30.038  12.050
13917W        W86985  20.189   3.943  13.127
13918W        W86986   5.954  22.291   0.563
13919W        W86987   8.805  16.032  12.145
13920W        W86988  20.168  34.470   2.591
13921W        W86989   5.226  30.502   4.623
13922W        W86990  13.704  39.993  11.877
13923W        W86991  16.683  13.553   2.577
13924W        W86992   3.381   6.710   2.688
13925W        W86993  12.116  15.100   4.574
13926W        W86994  43.073  17.055  13.476
13927W        W86995  11.665  18.544   3.370
13928W        W86996   4.745  38.907   0.172
13929W        W86997  37.358   9.272   3.875
13930W        W86998  23.477  37.812   3.730
13931W        W86999  28.625  33.939  13.191
13932W        W87000   5.872  44.482  11.213
13933W        W87001  31.368   9.333   3.640
13934W        W87002  33.100  20.296  12.397
13935W        W87003  35.958  25.035  12.880
13936W        W87004  25.000  38.917  12.417
13937W        W87005   8.265  40.298   3.336
13938W        W87006  13.597   5.146   0.442
13939W        W87007  38.092   8.772  12.831
13940W        W87008  23.001  19.706   2.898
13941W        W87009   1.679  27.979   3.305
13942W        W87010  22.332  29.096   9.961
13943W        W87011  29.413  16.784   4.180
13944W        W87012  19.563  16.826   2.770
13945W        W87013  29.165  17.583   1.122
13946W        W87014  10.089  31.543  11.641
13947W        W87015  33.569  39.971  14.214
13948W        W87016  23.243  11.392   1.938
13949W        W87017  29.442   8.810  12.883
13950W        W87018   6.743  27.558   4.027
13951W        W87019   2.876  27.214   4.514
13952W        W87020  36.596  36.240  10.503
13953W        W87021   7.203   4.958  11.860
13954W        W87022  16.641  27.968   3.390
13955W        W87023   0.422   1.275  14.797
13956W        W87024  30.744  42.507  14.666
13957W        W87025  26.240  34.343  13.990
13958W        W87026   7.713  14.575  11.062
13959W        W87027  32.621  19.893   0.774
13960W        W87028  24.616  16.538   3.040
13961W        W87029  44.915  14.081   3.260
13962W        W87030  20.518  29.134  13.863
13963W        W87031  18.796   6.490   0.649
13964W        W87032  29.003  30.420  14.436
13965W        W87033  43.313  44.955   4.105
13966W        W87034  16.781  10.920   3.204
13967W        W87035  44.409  38.098   3.619
13968W        W87036   7.525  23.063  14.518
13969W        W87037  43.402  24.273  13.334
13970W        W87038  16.206  31.421  13.188
13971W        W87039  13.433  11.540   3.226
13972W        W87040  34.494  10.390   0.240
13973W        W87041   2.893  16.097  13.543
13974W        W87042  19.685  23.744  13.442
13975W        W87043  28.223  34.643  14.517
13976W        W87044  41.371  20.550   0.863
13977W        W87045  33.474   4.902   1.753
13978W        W87046  42.460  42.422   1.180
13979W        W87047  39.826  29.572   4.116
13980W        W87048  33.573  44.438  14.867
13981W        W87049   2.310  24.576  14.298
13982W        W87050  41.563  16.567  12.034
13983W        W87051  22.082  37.407  12.090
13984W        W87052   8.006  32.180  14.985
13985W        W87053   0.322   7.299  10.697
13986W        W87054  30.425  20.366   2.906
13987W        W87055   9.395   0.300   0.480
13988W        W87056   3.426  28.248  10.891
13989W        W87057  31.038   0.391   3.132
13990W        W87058  18.084   9.357  11.131
13991W        W87059  35.071  22.393   3.296
13992W        W87060   4.306  13.318  10.732
13993W        W87061  30.113  42.364  11.282
13994W        W87062  43.291  13.075  12.158
13995W        W87063   4.325  22.137  14.990
13996W        W87064   5.704  31.157  13.874
13997W        W87065  29.521  39.362   0.795
13998W        W87066  23.157   1.189   1.873
13999W        W87067   8.325   3.769  10.457
14000W        W87068  10.821   8.333  12.968
14001W        W87069   0.665  35.604  13.865
14002W        W87070  13.845  43.274  11.070
14003W        W87071  41.412   1.606   0.498
14004W        W87072  31.094  15.822   3.305
14005W        W87073   4.500  28.965   2.916
14006W        W87074  10.217  25.568  12.910
14007W        W87075   8.237  41.509   0.059
14008W        W87076   3.811  25.280  12.103
14009W        W87077   0.920  17.133  13.823
14010W        W87078   8.164  39.294  13.483
14011W        W87079  25.058  38.875   3.209
14012W        W87080  15.680  36.337   5.253
14013W        W87081  36.037   0.936  10.866
14014W        W87082   8.840  18.290  12.510
14015W        W87083  31.405  42.286  12.889
14016W        W87084  41.957  25.080  12.608
14017W        W87085  14.579   5.145  14.450
14018W        W87086  40.697  43.989  11.037
14019W        W87087  11.195  15.844   1.709
14020W        W87088   9.754  32.462  13.438
14021W        W87089   1.883  42.702  13.301
14022W        W87090   3.350  35.954   0.417
14023W        W87091  27.261  39.835   1.296
14024W        W87092  31.893  38.966   1.860
14025W        W87093  23.989   8.396   0.777
14026W        W87094  29.492  40.296  11.053
14027W        W87095   6.866   1.430  13.828
14028W        W87096  33.332   2.545  13.911
14029W        W87097   4.825  34.474  14.408
14030W        W87098   9.694   1.298   3.701
14031W        W87099   7.489  24.104  14.961
14032W        W87100  12.931  22.059  12.474
14033W        W87101  35.254  19.668   3.647
14034W        W87102   8.461  10.281   1.634
14035W        W87103  37.949  33.900  11.156
14036W        W87104  30.062  33.412   4.839
14037W        W87105   7.500  14.808  14.554
14038W        W87106   8.798   5.951  11.535
14039W        W87107  29.423  33.092  11.326
14040W        W87108  18.207  11.853   4.121
14041W        W87109  25.335   7.181   2.205
14042W        W87110  11.223  44.001   2.791
14043W        W87111  36.317  13.786  12.020
14044W        W87112  17.705  11.757   2.309
14045W        W87113  33.841  30.967  12.327
14046W        W87114  20.610  26.368  10.410
14047W        W87115  23.749  12.519  12.916
14048W        W87116   4.681  30.510   2.900
14049W        W87117  34.509   4.747  12.929
14050W        W87118  32.410  36.547   2.274
14051W        W87119  39.737  43.334  12.091
14052W        W87120   7.432  30.793  13.193
14053W        W87121  11.307  41.722  11.564
14054W        W87122  30.082  13.173  14.280
14055W        W87123  39.552  32.495   4.976
14056W        W87124  36.388  34.980  13.424
14057W        W87125  41.272   2.188  13.877
14058W        W87126  20.088  13.569  10.669
14059W        W87127  20.056  21.513  13.830
14060W        W87128  41.873   7.654  12.427
14061W        W87129  32.963  20.890  11.100
14062W        W87130   3.972  38.067   1.740
14063W        W87131  20.480  40.802  12.355
14064W        W87132  19.459  27.315   2.351
14065W        W87133  25.132  17.837  10.624
14066W        W87134  26.231  34.886  11.148
14067W        W87135   7.890  30.543  13.015
14068W        W87136   3.531  30.871   4.854
14069W        W87137  10.314  12.318   4.947
14070W        W87138  22.111  41.415   1.873
14071W        W87139   3.831  40.382   4.620
14072W        W87140   1.679  26.470  13.791
14073W        W87141  34.794   6.840  14.684
14074W        W87142  23.398  10.719  12.981
14075W        W87143  44.478  43.172  13.022
14076W        W87144  25.358  15.132  13.567
14077W        W87145  37.966   8.257  14.315
14078W        W87146  26.183   3.915   2.847
14079W        W87147  24.816  32.017   1.466
14080W        W87148  19.645  42.900   3.264
14081W        W87149  21.640  31.192  12.506
14082W        W87150  42.058  39.214   4.703
14083W        W87151  28.790  41.491  12.936
14084W        W87152  41.899  19.520   2.668
14085W        W87153  24.668  24.677  10.673
14086W        W87154  22.769  40.497   2.640
14087W        W87155   0.236  36.096  12.139
14088W        W87156  14.870   7.071   2.463
14089W        W87157  31.613  29.421  14.324
14090W        W87158  14.219  31.177  12.437
14091W        W87159  35.604   1.080   2.641
14092W        W87160  19.121   7.942  13.462
14093W        W87161  22.611  41.615   0.666
14094W        W87162   1.873   6.353   1.363
14095W        W87163  30.557  10.706   3.247
14096W        W87164  12.699   1.025  13.073
14097W        W87165  37.138   5.216   0.279
14098W        W87166   9.913  44.000   0.624
14099W        W87167  20.281  25.162  14.551
14100W        W87168   0.997  43.803   0.399
14101W        W87169  34.186   8.080   1.769
14102W        W87170  27.924  18.704   4.416
14103W        W87171  26.924  42.398  12.040
14104W        W87172   5.616  32.665   2.452
14105W        W87173   8.606  37.196  12.624
14106W        W87174  21.085  32.069   3.953
14107W        W87175  44.987  24.697   2.487
14108W        W87176  11.141  37.509   0.934
14109W        W87177  13.871  30.580  12.038
14110W        W87178  39.368  28.194  13.463
14111W        W87179  23.952  15.455   1.355
14112W        W87180   3.739  29.471  10.666
14113W        W87181  32.119  18.154   2.425
14114W        W87182  13.437  33.422  12.421
14115W        W87183  34.514  32.684  14.348
14116W        W87184  16.662  35.863  12.527
14117W        W87185  31.454  15.128   4.532
14118W        W87186   9.318  22.940   4.561
14119W        W87187  11.770  12.123  12.866
14120W        W87188  24.660  42.689  12.656
14121W        W87189  38.406  41.127   0.988
14122W        W87190  24.206  43.765   0.978
14123W        W87191  30.605  40.036   0.288
14124W        W87192  25.517  37.825  10.421
14125W        W87193  25.505  38.847   4.700
14126W        W87194   6.833  26.501   0.781
14127W        W87195   6.125  39.936  14.828
14128W        W87196  29.025  34.865  11.962
14129W        W87197  38.040  22.722  13.112
14130W        W87198   0.981  30.339   2.131
14131W        W87199  10.822   9.855  12.057
14132W        W87200  14.384  15.568   2.399
14133W        W87201  15.717  14.648   4.574
14134W        W87202  33.552  23.252   3.296
14135W        W87203  21.545   7.159  14.217
14136W        W87204  33.272  12.762   3.367
14137W        W87205  21.937  26.568   4.022
14138W        W87206   1.991  27.500   3.221
14139W        W87207  28.606   1.910  14.910
14140W        W87208  11.583  41.338   0.871
14141W        W87209  24.163   2.968  13.718
14142W        W87210  42.895  21.529   3.076
14143W        W87211  12.700  35.331   0.234
14144W        W87212  31.151  11.497   2.892
14145W        W87213  41.007  42.234   2.759
14146W        W87214  33.981  15.030  14.415
14147W        W87215   5.287  32.655  10.628
14148W        W87216   3.991  12.821   1.808
14149W        W87217  15.083  43.730  13.221
14150W        W87218   3.221  30.625  12.007
14151W        W87219  28.554  26.985   3.192
14152W        W87220  15.633  18.305  13.140
14153W        W87221  23.763  26.175  13.150
14154W        W87222   7.196  43.305  12.837
14155W        W87223   7.863  41.999   2.194
14156W        W87224  30.485  19.938   2.199
14157W        W87225  35.349   2.470  11.191
14158W        W87226   1.039  20.155   1.777
14159W        W87227  39.282  39.547   3.622
14160W        W87228  30.624   6.948   0.443
14161W        W87229  11.575  10.368   0.948
14162W        W87230   4.925   5.052  13.284
14163W        W87231  34.443  42.999  12.529
14164W        W87232  35.129   0.872   1.379
14165W        W87233  30.402  31.116   4.148
14166W        W87234   0.389  33.864   0.888
14167W        W87235  15.701  18.510  14.089
14168W        W87236  43.885   6.196  13.020
14169W        W87237   4.755   7.222   2.833
14170W        W87238  13.109  11.653  11.176
14171W        W87239   2.038  20.040   1.977
14172W        W87240  17.344  10.691  11.938
14173W        W87241  23.454  43.894   0.596
14174W        W87242  41.858  40.676   1.420
14175W        W87243   4.456  29.856   4.739
14176W        W87244  30.014  34.645   3.624
14177W        W87245  13.623  25.970  10.741
14178W        W87246  22.970  11.420  12.657
14179W        W87247   0.974  33.827  12.399
14180W        W87248   4.662  32.348   2.328
14181W        W87249  36.593  21.577   0.340
14182W        W87250  31.676   2.946  12.935
14183W        W87251  44.850  11.583  11.166
14184W        W87252   7.900  26.467  11.923
14185W        W87253  43.526  38.845  12.460
14186W        W87254  26.642   8.670  12.928
14187W        W87255  27.477  29.580   0.537
14188W        W87256  24.742  29.114   0.528
14189W        W87257  39.906   1.535  13.482
14190W        W87258  36.612  24.539  14.042
14191W        W87259  27.226  25.032   0.904
14192W        W87260  21.852  20.164   1.991
14193W        W87261  22.044  20.639   3.447
14194W        W87262   0.223  22.541   2.903
14195W        W87263  34.560  30.168   4.558
14196W        W87264  31.463   7.669  14.091
14197W        W87265   9.275  25.540   4.208
14198W        W87266   4.288  11.610  13.417
14199W        W87267   3.673   1.517  11.382
14200W        W87268  24.667  33.009   2.356
14201W        W87269  40.636  13.066  14.357
14202W        W87270  28.685  37.377   2.233
14203W        W87271  44.051   2.369  11.111
14204W        W87272  42.356  23.290  13.302
14205W        W87273  38.164  25.483  13.904
14206W        W87274  29.685  32.461  12.239
14207W        W87275   6.443  36.385  11.612
14208W        W87276   8.868   4.369   3.249
14209W        W87277  22.492  38.235   0.370
14210W        W87278  35.243   8.233  12.002
14211W        W87279  42.582  24.515  12.550
14212W        W87280  11.751  28.495  11.531
14213W        W87281   0.248   3.058  10.577
14214W        W87282  33.040   0.939   4.773
14215W        W87283   1.204  32.075  12.541
14216W        W87284  31.668  34.982   5.095
14217W        W87285  24.005  31.826  13.371
14218W        W87286  25.022  27.157   1.752
14219W        W87287   9.319  44.727   2.221
14220W        W87288  28.464  26.153   1.445
14221W        W87289  14.234  18.650  14.371
14222W        W87290   0.279  31.839   2.854
14223W        W87291  11.825  37.035   3.362
14224W        W87292  14.792  24.177  11.533
14225W        W87293  14.360  20.237   3.606
14226W        W87294  16.125   9.758   1.315
14227W        W87295  43.674  30.751   5.223
14228W        W87296  23.819  39.542  12.401
14229W        W87297  34.481  17.614  11.550
14230W        W87298  32.488  17.774   2.375
14231W        W87299  28.988  26.167  13.836
14232W        W87300  44.960  39.102   2.258
14233W        W87301   6.214  27.867   0.406
14234W        W87302  31.271  23.370   2.678
14235W        W87303   7.417  19.278   3.245
14236W        W87304  28.392  42.955   0.241
14237W        W87305  27.306  13.384   2.556
14238W        W87306   2.493  32.139   0.029
14239W        W87307  22.055  31.009  13.336
14240W        W87308   9.131   0.384   0.032
14241W        W87309  41.751  11.167  12.929
14242W        W87310  21.984   4.482   0.925
14243W        W87311  39.249   4.251  11.268
14244W        W87312  31.683   7.670   3.666
14245W        W87313  25.035  33.728   1.437
14246W        W87314   2.703  16.357   1.925
14247W        W87315  30.513   1.776   1.237
14248W        W87316  25.022   6.706   2.248
14249W        W87317  18.556   0.121   1.806
14250W        W87318   3.923  28.452  13.083
14251W        W87319  28.966  33.908  10.460
14252W        W87320  37.170  32.042   4.132
14253W        W87321  35.334   4.715  13.925
14254W        W87322  20.265  21.627   3.292
14255W        W87323  20.803  37.951  13.402
14256W        W87324  15.715  34.897   1.392
14257W        W87325  37.550  40.539  14.205
14258W        W87326  25.461  44.026   0.747
14259W        W87327  22.271  23.658   4.357
14260W        W87328   5.814  37.002   2.669
14261W        W87329  11.377   3.336   2.807
14262W        W87330  16.625  28.719   1.631
14263W        W87331  16.579  32.546   3.379
14264W        W87332  26.075  43.857   4.721
14265W        W87333  24.249  38.606  11.457
14266W        W87334  42.387  42.817  14.479
14267W        W87335  40.906   0.198   1.699
14268W        W87336   4.956  33.702   2.172
14269W        W87337   2.683  25.650  11.041
14270W        W87338  14.078  13.387   1.409
14271W        W87339  37.748  19.739   5.091
14272W        W87340  13.616  42.291   1.129
14273W        W87341  10.914  40.463   3.269
14274W        W87342  19.056  14.759   4.589
14275W        W87343  42.501   2.833   2.192
14276W        W87344   2.922  35.101  10.685
14277W        W87345  42.278  16.602   4.557
14278W        W87346   0.964   3.831   1.867
14279W        W87347  33.396  27.109   3.417
14280W        W87348  32.337   0.105  13.163
14281W        W87349  20.213  13.187   3.648
14282W        W87350  18.222  37.152  14.486
14283W        W87351   6.230  10.226   4.044
14284W        W87352   5.386  40.158  13.792
14285W        W87353  13.856  12.720   2.773
14286W        W87354   9.505  41.036   2.279
14287W        W87355  23.758  35.261  12.901
14288W        W87356  20.319  15.819  13.285
14289W        W87357  14.634  34.903  14.951
14290W        W87358   7.886  40.413  13.065
14291W        W87359  12.788  18.599   3.155
14292W        W87360  18.649  40.906  13.761
14293W        W87361  25.178  30.960  13.423
14294W        W87362  31.115  19.249   5.147
14295W        W87363   5.592   5.154  10.989
14296W        W87364   9.263  28.458  13.899
14297W        W87365  24.991  31.669   2.853
14298W        W87366   7.263  31.677   3.091
14299W        W87367  21.196   3.417   3.800
14300W        W87368  13.359   9.618  11.611
14301W        W87369   3.748  21.197  13.362
14302W        W87370   5.849  21.815   2.266
14303W        W87371  29.445   2.267  14.353
14304W        W87372  13.695  26.483   0.102
14305W        W87373  27.052  34.966  14.995
14306W        W87374  19.293  14.297  14.263
14307W        W87375  19.617  34.010   0.285
14308W        W87376  41.384  38.470   3.206
14309W        W87377  23.052  25.436  11.534
14310W        W87378   3.857  12.784   4.073
14311W        W87379  26.001  38.439   0.493
14312W        W87380  23.211   3.839   0.745
14313W        W87381  36.351   2.669   4.374
14314W        W87382   9.297  42.524   0.916
14315W        W87383  43.839  44.458   2.495
14316W        W87384  14.496   1.975  13.842
14317W        W87385  29.891  27.677  11.607
14318W        W87386  36.925  32.047   4.600
14319W        W87387  34.392  40.734  12.522
14320W        W87388  29.904  30.092  13.742
14321W        W87389   5.366  21.084  13.293
14322W        W87390  17.066  39.966  13.425
14323W        W87391   7.691  33.880   3.350
14324W        W87392  35.592  27.592   1.631
14325W        W87393  37.012  13.289  14.704
14326W        W87394  34.392  42.569   2.416
14327W        W87395  32.034  15.507   0.418
14328W        W87396  21.013   8.890  11.559
14329W        W87397   1.690  12.235   4.249
14330W        W87398  40.710  11.758   0.496
14331W        W87399  12.793  30.448   3.776
14332W        W87400  23.686  35.948   3.501
14333W        W87401  28.373   4.408  12.964
14334W        W87402   3.971  16.538   1.575
14335W        W87403  31.355   6.358  11.612
14336W        W87404  35.394  11.252   4.772
14337W        W87405  11.790   4.320   0.807
14338W        W87406  16.370  43.219  13.373
14339W        W87407  24.970  39.990  14.569
14340W        W87408  38.986  30.993   3.477
14341W        W87409   9.651   1.068   4.607
14342W        W87410   5.884   2.249   1.675
14343W        W87411  24.503  41.803  10.682
14344W        W87412  15.541  19.208   2.712
14345W        W87413  42.178   3.532  14.592
14346W        W87414  36.435   5.929  10.987
14347W        W87415  11.601   5.808   4.148
14348W        W87416  29.945  13.239  12.798
14349W        W87417  20.623  31.673   2.300
14350W        W87418   3.365  44.025   4.408
14351W        W87419  24.929  21.101   0.934
14352W        W87420  31.110  10.893  10.690
14353W        W87421   3.914  39.439   2.729
14354W        W87422  21.298  30.588  12.858
14355W        W87423   7.940  29.566   1.885
14356W        W87424   0.807  18.260  13.064
14357W        W87425  10.451  39.745   5.231
14358W        W87426  18.099  24.784   1.979
14359W        W87427  33.967  24.958   3.622
14360W        W87428  39.864   5.973  11.641
14361W        W87429  28.594  35.369   1.853
14362W        W87430  11.843  36.401  12.438
14363W        W87431   9.825  11.902  14.890
14364W        W87432   8.131  16.151  13.987
14365W        W87433   3.437  15.177  12.469
14366W        W87434  19.987  40.871   1.413
14367W        W87435  38.018  20.178  11.002
14368W        W87436  11.229  19.803  12.145
14369W        W87437  36.313  43.938   2.906
14370W        W87438  41.299  30.641   3.254
14371W        W87439   4.123  21.242  14.694
14372W        W87440  22.548   1.489  12.897
14373W        W87441  14.407  35.325  10.992
14374W        W87442   8.914  42.125  11.669
14375W        W87443  17.516  18.335  13.077
14376W        W87444  44.563  18.464   1.147
14377W        W87445  15.538   4.625   0.904
14378W        W87446   2.796  44.531  14.906
14379W        W87447  18.188  26.898   4.567
14380W        W87448  12.895  13.199   1.967
14381W        W87449   6.267  20.038  11.465
14382W        W87450  42.254  10.666   3.251
14383W        W87451  12.833   0.973   4.188
14384W        W87452  24.198  27.872   2.564
14385W        W87453  16.349  22.421  14.837
14386W        W87454  33.449  15.625  12.577
14387W        W87455  14.185  40.789  14.767
14388W        W87456   5.385  44.326   2.271
14389W        W87457  16.155  33.080   0.977
14390W        W87458  27.442   5.694  11.485
14391W        W87459  36.605  18.103   1.652
14392W        W87460  22.132  17.606   2.133
14393W        W87461  16.571  39.513   4.150
14394W        W87462  27.818   3.505  12.527
14395W        W87463  37.127  40.520   0.992
14396W        W87464   8.432  38.968   2.794
14397W        W87465  10.632  23.882   5.007
14398W        W87466  40.833  36.402   4.379
14399W        W87467  34.066  30.510   4.118
14400W        W87468   4.478  19.363  13.441
14401W        W87469  12.568   3.469   0.433
14402W        W87470   0.174   5.830  10.697
14403W        W87471  10.992   1.948  12.058
14404W        W87472  33.422  44.396  12.939
14405W        W87473  40.591   8.291  13.780
14406W        W87474  41.803  24.525  11.704
14407W        W87475  16.719  19.337  14.339
14408W        W87476  23.507   3.794   4.280
14409W        W87477  41.884  31.518  14.299
14410W        W87478  25.012   4.426  13.830
14411W        W87479   4.339  22.187   3.973
14412W        W87480  42.114   4.836  13.850
14413W        W87481  18.035  17.277  12.016
14414W        W87482  18.027  42.845  11.651
14415W        W87483   2.665  29.853  11.453
14416W        W87484   4.744   6.915   1.143
14417W        W87485  10.765  21.758   0.695
14418W        W87486  24.902  35.731  13.380
14419W        W87487  13.870  42.978   5.203
14420W        W87488   9.214  19.607   3.673
14421W        W87489  37.423  14.893  14.397
14422W        W87490   2.211   3.231  12.430
14423W        W87491  29.564   6.822  13.448
14424W        W87492  19.211  17.657  13.420
14425W        W87493  35.066  22.110   4.760
14426W        W87494  16.183   9.802   4.874
14427W        W87495  16.133  26.458   1.754
14428W        W87496   9.337  42.588   2.903
14429W        W87497   0.659  36.130  10.909
14430W        W87498  12.760  39.555   3.650
14431W        W87499  35.945   1.427  10.674
14432W        W87500   2.000  30.137   0.986
14433W        W87501   3.325  43.869  10.724
14434W        W87502  39.867  29.652  12.955
14435W        W87503  30.111   3.728   1.643
14436W        W87504   9.331  41.490   1.312
14437W        W87505  40.074  20.027  12.543
14438W        W87506  26.417  18.706   2.884
14439W        W87507   1.365  14.997   1.493
14440W        W87508  42.310  24.966  13.394
14441W        W87509  43.543  14.097  13.372
14442W        W87510   9.305   3.309   2.774
14443W        W87511  40.398   1.736  10.671
14444W        W87512  38.354  18.805  12.720
14445W        W87513   9.245  17.816  13.888
14446W        W87514   9.157   4.251  11.080
14447W        W87515   9.759   0.767   4.197
14448W        W87516  15.844  44.325  12.146
14449W        W87517  12.850  34.140   3.950
14450W        W87518  20.789  10.117   0.724
14451W        W87519   4.960   9.683  11.436
14452W        W87520  21.233  18.131  12.013
14453W        W87521   4.977   6.009   2.376
14454W        W87522  27.896  40.452  14.618
14455W        W87523  27.047   9.908   0.434
14456W        W87524  30.955  19.721  13.309
14457W        W87525  20.447   6.679  14.002
14458W        W87526   0.509  37.103  11.852
14459W        W87527  29.202   8.326  10.787
14460W        W87528   4.494   3.349  13.736
14461W        W87529  13.793   6.227   4.122
14462W        W87530  24.029   6.353  10.671
14463W        W87531  26.979  40.756   4.860
14464W        W87532  28.015  19.696  12.590
14465W        W87533  21.751  23.137   0.019
14466W        W87534  22.043   2.569  12.601
14467W        W87535   7.385   8.639  11.553
14468W        W87536  19.527  36.595  14.876
14469W        W87537  19.136  14.337   3.327
14470W        W87538  23.515   1.283  14.294
14471W        W87539   8.860   7.534   3.438
14472W        W87540   8.230   3.676  12.951
14473W        W87541  35.373  42.437  14.007
14474W        W87542  29.679  12.270   3.362
14475W        W87543  44.844  17.011   2.358
14476W        W87544  28.972  39.772   4.124
14477W        W87545  29.428  44.175  12.397
14478W        W87546  16.993  43.830  11.889
14479W        W87547  41.211  26.203  11.599
14480W        W87548   5.349  14.689  12.534
14481W        W87549  42.067  13.137  11.160
14482W        W87550   6.213  10.017   1.820
14483W        W87551  37.534  27.180   1.383
14484W        W87552  40.836   6.892   3.197
14485W        W87553  30.302  21.772   4.709
14486W        W87554   7.677  19.130   4.174
14487W        W87555   5.000  13.058   4.289
14488W        W87556  33.369  14.540   1.429
14489W        W87557  39.386  24.034  10.677
14490W        W87558   4.309  32.528  10.749
14491W        W87559   7.261  17.131  10.410
14492W        W87560  10.953   6.472  11.452
14493W        W87561  25.704  18.980   2.450
14494W        W87562   3.492  32.941  11.591
14495W        W87563  32.120  32.620   2.896
14496W        W87564  19.194  42.303   4.082
14497W        W87565   3.209   2.739   2.171
14498W        W87566  39.766   5.849   1.818
14499W        W87567  29.271  39.314   3.235
14500W        W87568  37.793  39.493  14.759
14501W        W87569   8.411  19.845   0.342
14502W        W87570  26.716  12.008   5.056
14503W        W87571   3.656  22.824  11.871
14504W        W87572   1.499  15.211   2.858
14505W        W87573  40.533   2.270   2.868
14506W        W87574  38.101  38.448  11.763
14507W        W87575  35.815  29.249  12.696
14508W        W87576  20.870  39.089   3.248
14509W        W87577   5.882  25.225   4.721
14510W        W87578  23.163  11.238   4.530
14511W        W87579   7.587  43.811  14.460
14512W        W87580  36.001  34.867  13.756
14513W        W87581  39.413  43.056   0.189
14514W        W87582  41.993   4.305  10.555
14515W        W87583   4.142   8.288   4.609
14516W        W87584  12.140  36.839   2.338
14517W        W87585  14.801   9.449   3.216
14518W        W87586  25.119   8.692  10.784
14519W        W87587  11.339  28.373   4.131
14520W        W87588   2.698  21.227   0.815
14521W        W87589  38.579  31.005  10.573
14522W        W87590  11.185   4.548  11.629
14523W        W87591   9.397  13.264   0.470
14524W        W87592  39.012   9.333  13.623
14525W        W87593  25.626  22.047  11.110
14526W        W87594  34.801  14.409  12.936
14527W        W87595  11.148  15.380   2.800
14528W        W87596   4.766  34.641   0.379
14529W        W87597  42.696  10.585  11.099
14530W        W87598   3.208  34.592   0.982
14531W        W87599   4.534  19.165   4.376
14532W        W87600  32.594  29.983   0.466
14533W        W87601  29.027  30.141   1.759
14534W        W87602  11.204  14.856   2.682
14535W        W87603  26.242  39.233  10.985
14536W        W87604  34.092   5.071   0.458
14537W        W87605  23.706  29.892   4.725
14538W        W87606  15.189  26.102  13.878
14539W        W87607   3.250   6.309   0.952
14540W        W87608  12.027   0.446   1.989
14541W        W87609  31.954  43.298   1.883
14542W        W87610   0.511  12.733   4.244
14543W        W87611   6.211  30.543  14.150
14544W        W87612  44.683  16.197   3.509
14545W        W87613  36.271  39.597   4.582
14546W        W87614   0.489  33.621  10.771
14547W        W87615  30.882  10.353  11.456
14548W        W87616  10.359   9.836   1.443
14549W        W87617  41.957   1.792  14.391
14550W        W87618  36.826  37.062   0.344
14551W        W87619   6.456  11.764   2.334
14552W        W87620  40.600   8.259   3.201
14553W        W87621  14.968   7.655   1.122
14554W        W87622  15.394  21.534   1.348
14555W        W87623  43.730  20.605   2.606
14556W        W87624  24.201   3.257  14.441
14557W        W87625   0.534  28.214  14.347
14558W        W87626  12.126  17.061  12.917
14559W        W87627  43.544  17.054   2.284
14560W        W87628  40.869  19.656   1.716
14561W        W87629  39.314   5.202  11.137
14562W        W87630  43.449   2.128  10.582
14563W        W87631  13.360  19.584   0.863
14564W        W87632  21.662   9.711  14.819
14565W        W87633  24.185  24.136  11.973
14566W        W87634  31.071  23.279  14.911
14567W        W87635  19.746  31.406   1.910
14568W        W87636  25.270   8.869  12.927
14569W        W87637  15.098  25.957  11.750
14570W        W87638   6.639  23.511  14.342
14571W        W87639  44.851  21.430  14.926
14572W        W87640  27.016   8.954   2.088
14573W        W87641  17.218  42.336  12.735
14574W        W87642  11.876  26.778   0.313
14575W        W87643  31.973  43.899   0.423
14576W        W87644   7.375   1.394  12.957
14577W        W87645  19.265   7.177   2.165
14578W        W87646   4.007   4.002   4.284
14579W        W87647  29.841  41.810   0.400
14580W        W87648  26.236   0.717   4.069
14581W        W87649  29.981  31.336  10.790
14582W        W87650  14.773  23.560  14.419
14583W        W87651  35.557  11.929   1.659
14584W        W87652  26.505  21.954  13.416
14585W        W87653  42.634  33.083  14.830
14586W        W87654   4.568  26.794   3.235
14587W        W87655  36.577  11.355  10.702
14588W        W87656  35.940  16.044   1.180
14589W        W87657  24.159   3.021   2.285
14590W        W87658  24.684  32.643  11.956
14591W        W87659  39.461  43.438  11.093
14592W        W87660   8.346  22.635   4.388
14593W        W87661  28.917  30.633   1.913
14594W        W87662  28.696  16.529   0.490
14595W        W87663  38.613  27.558   3.167
14596W        W87664  19.987   7.431   3.257
14597W        W87665   9.291  39.410  11.153
14598W        W87666  32.167  22.456  10.982
14599W        W87667   0.459   3.538  12.360
14600W        W87668  11.797   2.750   1.717
14601W        W87669  39.539  22.559  14.396
14602W        W87670  17.119  15.117   2.375
14603W        W87671  26.608   4.035  12.916
14604W        W87672  23.764  17.694  12.092
14605W        W87673  31.953   5.311  11.992
14606W        W87674  11.053  16.783   0.945
14607W        W87675   2.621  40.495   2.633
14608W        W87676  10.161  10.226  12.476
14609W        W87677  41.411  24.706   0.772
14610W        W87678   5.002  36.433   1.142
14611W        W87679  14.121  31.873  11.554
14612W        W87680   3.246  16.899  11.585
14613W        W87681   1.822  38.829  12.833
14614W        W87682  18.325   1.795  11.085
14615W        W87683   3.314   2.957  10.097
14616W        W87684   3.460  22.238  13.302
14617W        W87685   3.926  37.510  13.455
14618W        W87686  38.401  39.465  10.681
14619W        W87687  27.565   8.159   3.088
14620W        W87688  16.885  42.711   0.402
14621W        W87689  26.226  30.939  14.325
14622W        W87690  38.623  44.349   0.282
14623W        W87691  13.236  11.966  12.055
14624W        W87692  25.918  34.926   2.395
14625W        W87693  22.092  12.840   4.712
14626W        W87694   4.001  32.136   1.831
14627W        W87695  39.512  10.882  13.517
14628W        W87696   4.182  19.081   0.830
14629W        W87697  22.297  23.181   2.178
14630W        W87698   1.494  22.936   1.651
14631W        W87699  25.655   0.051  14.843
14632W        W87700  36.200  41.767   1.647
14633W        W87701  16.646  44.102  14.381
14634W        W87702  13.161   5.264   2.180
14635W        W87703  12.505   8.266   1.432
14636W        W87704   5.842  38.880  12.042
14637W        W87705  28.168   2.026   3.829
14638W        W87706  16.028  37.318   2.378
14639W        W87707  28.124  42.539  11.404
14640W        W87708  13.693   2.367   0.318
14641W        W87709  14.141  19.632   2.297
14642W        W87710  16.379   8.799   1.182
14643W        W87711  38.604  36.966   4.487
14644W        W87712  26.621  27.996   0.950
14645W        W87713  44.765  41.049   2.791
14646W        W87714  40.332  16.865   1.239
14647W        W87715   0.181   6.748   2.448
14648W        W87716  24.563  37.003  11.036
14649W        W87717  21.222  34.852  13.836
14650W        W87718   3.706  11.158  10.430
14651W        W87719  13.461  18.653  10.203
14652W        W87720  31.412  36.975  10.626
14653W        W87721  31.394   3.213  14.958
14654W        W87722  14.600  25.638   1.856
14655W        W87723  44.043   3.854   4.845
14656W        W87724  22.489  35.595   4.572
14657W        W87725   8.141  20.569  13.918
14658W        W87726  21.853  44.388   0.189
14659W        W87727  35.470  28.188  13.349
14660W        W87728   1.915  27.625   0.543
14661W        W87729  33.151  13.787  12.508
14662W        W87730  28.540  31.095  13.995
14663W        W87731  23.134  38.369  13.081
14664W        W87732  21.136  11.011  12.832
14665W        W87733  22.564  21.460  14.105
14666W        W87734  36.969  42.843   2.434
14667W        W87735   3.337  32.069   0.029
14668W        W87736  33.519   8.624   2.190
14669W        W87737   6.772  40.443  14.853
14670W        W87738  23.010  18.659  13.419
14671W        W87739   8.961  24.025   1.726
14672W        W87740  25.657  10.641  13.386
14673W        W87741   9.045  34.639   0.331
14674W        W87742  21.695  41.640  13.442
14675W        W87743  15.041  13.613   0.537
14676W        W87744   2.259   6.171   2.706
14677W        W87745  30.976  26.872   1.746
14678W        W87746  10.225  27.265  11.987
14679W        W87747  20.670  25.030   3.773
14680W        W87748   8.164  24.248  12.897
14681W        W87749  42.286  41.510   0.972
14682W        W87750  23.692  29.692  11.559
14683W        W87751   2.055  25.511  11.628
14684W        W87752  32.586   2.721  14.283
14685W        W87753  31.449  26.764   3.781
14686W        W87754  23.164  15.619   4.651
14687W        W87755  30.886   8.917   1.762
14688W        W87756   6.455  24.969  10.701
14689W        W87757  16.802   4.614  10.548
14690W        W87758  30.789  43.928  11.107
14691W        W87759   4.731  24.455  13.715
14692W        W87760  23.552  40.473   3.368
14693W        W87761  11.808  40.931   0.604
14694W        W87762  21.128  41.152   1.531
14695W        W87763  32.326  11.703   3.332
14696W        W87764  24.713   5.442  12.422
14697W        W87765   4.187  14.281   3.093
14698W        W87766  15.947  33.969  11.105
14699W        W87767   5.939  35.093  13.122
14700W        W87768  36.425  41.986   2.906
14701W        W87769   9.329  32.061  10.489
14702W        W87770   6.110   5.911  14.926
14703W        W87771  22.941  38.931  12.560
14704W        W87772   2.808  20.689   0.047
14705W        W87773  21.028  29.529  12.055
14706W        W87774   7.478  12.739   4.256
14707W        W87775   9.589  17.731   3.122
14708W        W87776  29.110  16.261   3.136
14709W        W87777   3.204  41.491  11.956
14710W        W87778  36.988  38.275  12.674
14711W        W87779  15.513  30.005  11.540
14712W        W87780   0.073  29.964   4.856
14713W        W87781   4.240   0.248  11.156
14714W        W87782  10.339  39.527   2.786
14715W        W87783  27.283  35.620  13.356
14716W        W87784  37.747  28.413   0.033
14717W        W87785  16.149   4.317   2.930
14718W        W87786   7.172  26.059   0.160
14719W        W87787  24.601   4.649  13.508
14720W        W87788  29.375  41.560   1.487
14721W        W87789  32.745  20.204   3.819
14722W        W87790  29.077  40.494   4.621
14723W        W87791  14.843  28.211   4.576
14724W        W87792   9.258  35.538  13.236
14725W        W87793   2.140  36.811  13.291
14726W        W87794  30.578  33.449  11.670
14727W        W87795  29.023  17.324   0.149
14728W        W87796   8.894  12.625   0.679
14729W        W87797  34.267  37.956  11.188
14730W        W87798  27.001  23.892  13.599
14731W        W87799  21.695  34.044   1.285
14732W        W87800  35.803  37.285   4.595
14733W        W87801   8.891   1.107   4.162
14734W        W87802  35.605  43.353  14.321
14735W        W87803  40.257  16.508   2.182
14736W        W87804   3.378  38.941  12.178
14737W        W87805  35.831  42.600  14.182
14738W        W87806  26.236  41.930   0.588
14739W        W87807  22.824   7.992  14.368
14740W        W87808   9.085  26.129   3.534
14741W        W87809   9.643  31.676   0.721
14742W        W87810  13.808  44.547  14.492
14743W        W87811   1.393   9.865   2.232
14744W        W87812  17.365  10.792   4.601
14745W        W87813  18.938  38.788   2.729
14746W        W87814  25.461  11.659  14.301
14747W        W87815  22.046  28.723   2.823
14748W        W87816   2.542  23.931  13.396
14749W        W87817  11.090  38.777  14.804
14750W        W87818  30.594  29.406   3.111
14751W        W87819  33.548  39.075  11.027
14752W        W87820  10.996  36.191   3.790
14753W        W87821   9.394   4.331   4.549
14754W        W87822  28.509  32.488  14.133
14755W        W87823  22.618  28.947   0.731
14756W        W87824  12.721  29.154   1.520
14757W        W87825  31.645  37.857   2.902
14758W        W87826  21.919   9.083  12.172
14759W        W87827  44.379  37.802   1.219
14760W        W87828  11.721  24.679   4.335
14761W        W87829  36.691  30.362   1.420
14762W        W87830  12.270  20.421  12.591
14763W        W87831  27.617  38.089   0.926
14764W        W87832  31.195  41.030  12.422
14765W        W87833  33.123  29.075  12.873
14766W        W87834  17.615  25.625  14.322
14767W        W87835  44.260  34.096   3.397
14768W        W87836  29.438  16.097  14.864
14769W        W87837  33.642  17.592   1.348
14770W        W87838  21.140  43.786  14.834
14771W        W87839  44.831  39.565   4.561
14772W        W87840   0.487  12.770   2.403
14773W        W87841  39.917  12.105   0.847
14774W        W87842  20.287  36.374   0.388
14775W        W87843  22.222  24.569  14.560
14776W        W87844   8.362  20.631  12.910
14777W        W87845   5.811  19.526  13.549
14778W        W87846   7.839  15.566  14.819
14779W        W87847  19.492  11.305   0.645
14780W        W87848  39.562  16.640   2.723
14781W        W87849  28.058  13.407   1.042
14782W        W87850  12.234  23.944   2.611
14783W        W87851  31.539  11.790  13.073
14784W        W87852  32.601   4.672   2.243
14785W        W87853  25.033   2.436   3.251
14786W        W87854  23.107   5.750  13.370
14787W        W87855  23.700   2.552  13.790
14788W        W87856  41.520  33.925   3.217
14789W        W87857  22.474  35.437  10.532
14790W        W87858  15.594   4.883   1.348
14791W        W87859  34.777  31.954   3.252
14792W        W87860  14.615  26.228   0.413
14793W        W87861  12.959  16.056   0.023
14794W        W87862  38.019  25.511  11.518
14795W        W87863  38.532  21.126   0.438
14796W        W87864  36.292  19.341  11.939
14797W        W87865  12.159  44.170   4.712
14798W        W87866  41.502  38.252  14.415
14799W        W87867  27.113  12.133   1.737
14800W        W87868  17.252  15.730  13.485
14801W        W87869  12.318  44.717  14.799
14802W        W87870   2.335  38.455   0.354
14803W        W87871  26.120  29.686  13.508
14804W        W87872  34.880  17.058   0.813
14805W        W87873  36.322  41.417  11.994
14806W        W87874  24.721   1.742   4.375
14807W        W87875  40.089  25.456   2.129
14808W        W87876  44.903  35.384  14.522
14809W        W87877  20.033  37.700  12.722
14810W        W87878   0.306  13.619   3.717
14811W        W87879   0.468  29.096   3.634
14812W        W87880   1.858  44.283   4.138
14813W        W87881  44.024  42.561   1.720
14814W        W87882  36.461  34.650  12.006
14815W        W87883  41.353  23.168   0.721
14816W        W87884  36.391   0.304   5.096
14817W        W87885  13.256  13.410   4.193
14818W        W87886  40.049  42.781  14.521
14819W        W87887  14.491   6.228   2.782
14820W        W87888  28.443  18.856  12.028
14821W        W87889  20.411  13.316  11.585
14822W        W87890  23.621  38.393  12.827
14823W        W87891   4.786   4.768  10.500
14824W        W87892  29.583   9.385   0.905
14825W        W87893   1.433  16.856  11.709
14826W        W87894  15.728  28.501   0.843
14827W        W87895   4.833  21.743  12.874
14828W        W87896  15.041  15.672  12.310
14829W        W87897   7.369  12.216  10.879
14830W        W87898  20.212  27.730   4.641
14831W        W87899  35.398  38.091   3.621
14832W        W87900  24.969  10.726  11.072
14833W        W87901  28.071  10.969   3.711
14834W        W87902  20.001   0.462  12.013
14835W        W87903  36.888  10.756   2.747
14836W        W87904   9.184  29.427  10.247
14837W        W87905  24.095  33.850   3.741
14838W        W87906  43.489  27.479   2.187
14839W        W87907  34.895  12.234  13.432
14840W        W87908  40.527  14.157   2.788
14841W        W87909  42.720  37.918   4.628
14842W        W87910  13.906  31.005   4.278
14843W        W87911  18.742  24.595  14.193
14844W        W87912  25.422  24.723  14.851
14845W        W87913  20.081   4.436   4.194
14846W        W87914  41.723  14.163  11.127
14847W        W87915  17.257  14.308   5.042
14848W        W87916   9.622  24.192  11.592
14849W        W87917   9.556  41.461  13.433
14850W        W87918  35.872   7.768   1.335
14851W        W87919  14.152  11.863   1.548
14852W        W87920  11.229   3.935   4.940
14853W        W87921  31.819  43.839   1.733
14854W        W87922  36.016   8.695   2.825
14855W        W87923  34.839  41.428   2.647
14856W        W87924   1.808  39.990   3.053
14857W        W87925  29.110  30.707   4.342
14858W        W87926   5.638  23.038  13.788
14859W        W87927  26.200  28.436  13.860
14860W        W87928  15.956   0.697   0.875
14861W        W87929  38.957  36.350  13.007
14862W        W87930  13.350  17.588  11.674
14863W        W87931  39.349   4.833   4.712
14864W        W87932  37.102  26.522  13.487
14865W        W87933   4.186  31.681  14.842
14866W        W87934  35.839  11.091  14.857
14867W        W87935  18.252  23.180   3.367
14868W        W87936   7.729  13.046  11.919
14869W        W87937   3.049  19.711   0.476
14870W        W87938  30.062   8.340   0.376
14871W        W87939  15.266  21.111  10.487
14872W        W87940  36.468  14.426   5.119
14873W        W87941  12.066   9.841   0.811
14874W        W87942   0.470  20.789  11.013
14875W        W87943  25.395  17.574   0.381
14876W        W87944  12.009  34.987  10.605
14877W        W87945  37.774  33.702   1.486
14878W        W87946   7.924   8.273   4.753
14879W        W87947   5.453   6.295  12.873
14880W        W87948   0.951  25.641  12.728
14881W        W87949   4.371  42.603   2.064
14882W        W87950  38.912   0.794  14.039
14883W        W87951  23.733  32.209   0.459
14884W        W87952  31.656  22.562   3.805
14885W        W87953  28.637   0.888   0.284
14886W        W87954  20.780  24.497  14.790
14887W        W87955  33.295   9.264  14.344
14888W        W87956  37.529  10.980   1.888
14889W        W87957  20.654  21.151   0.020
14890W        W87958  17.147  30.922   1.359
14891W        W87959  21.010  32.432   4.647
14892W        W87960  19.996  35.066   1.980
14893W        W87961  22.621  23.785   2.743
14894W        W87962  15.649   2.529   2.112
14895W        W87963  35.345  15.205  10.750
14896W        W87964  29.598  24.412  10.852
14897W        W87965  32.891  38.461  13.930
14898W        W87966  16.268  20.008   3.189
14899W        W87967  25.151   3.197   4.085
14900W        W87968  21.418  40.683  11.513
14901W        W87969   4.751  34.072   2.468
14902W        W87970  24.009   6.983  12.420
14903W        W87971  11.382  22.721   3.746
14904W        W87972  35.139  41.507  12.830
14905W        W87973   4.241  37.469  12.195
14906W        W87974  22.600  14.996   3.291
14907W        W87975  20.154   1.243  13.041
14908W        W87976  42.843  20.998  10.727
14909W        W87977  41.989  11.642  14.475
14910W        W87978  39.365  21.150   5.110
14911W        W87979   4.179   2.594  13.406
14912W        W87980  34.626   7.179   1.938
14913W        W87981  24.584  34.612  14.241
14914W        W87982   5.488  33.243   4.416
14915W        W87983  20.866  38.331   4.100
14916W        W87984  22.575  26.205   3.606
14917W        W87985  24.147  24.019   1.047
14918W        W87986  27.971   8.930  12.793
14919W        W87987  14.113  15.166  14.507
14920W        W87988  22.662   3.681   2.390
14921W        W87989  41.503  34.359  11.869
14922W        W87990  24.852  14.530  14.657
14923W        W87991  19.318  11.519  11.590
14924W        W87992  21.082  20.684   3.360
14925W        W87993  36.542  39.551   2.592
14926W        W87994   1.435  11.000   3.159
14927W        W87995  17.703   4.275  14.585
14928W        W87996  40.143   8.258   9.797
14929W        W87997  17.717   1.392  14.040
14930W        W87998  10.802  15.469   0.767
14931W        W87999  16.227  17.235   4.587
14932W        W88000  44.299  19.763   0.127
14933W        W88001   9.182  18.046   4.573
14934W        W88002  26.000  34.759  12.432
14935W        W88003  28.542  30.036  11.973
14936W        W88004  29.439  43.296   0.279
14937W        W88005  32.038  22.025  11.833
14938W        W88006  15.620  31.649   0.671
14939W        W88007  34.596  44.804   2.770
14940W        W88008  32.067  43.794  14.918
14941W        W88009  35.431  21.029   2.022
14942W        W88010  17.663  35.128   4.712
14943W        W88011  44.903   6.278   2.338
14944W        W88012  33.862  29.473  11.988
14945W        W88013   1.943  37.629   1.498
14946W        W88014  39.535   8.597   4.089
14947W        W88015   2.942  19.867   2.922
14948W        W88016   1.354  25.002   3.845
14949W        W88017   9.387  19.716  13.496
14950W        W88018  29.696   1.995   2.379
14951W        W88019   1.484   2.497   1.854
14952W        W88020   0.537  19.917  12.430
14953W        W88021  35.983  44.857   0.263
14954W        W88022  10.844  13.075   0.885
14955W        W88023   0.891   8.270  14.085
14956W        W88024   4.848  31.595   2.063
14957W        W88025  33.553  30.375   1.759
14958W        W88026  33.901  37.322  12.654
14959W        W88027  28.176  39.044  11.108
14960W        W88028  24.687  21.308   3.075
14961W        W88029  17.532  21.347   3.697
14962W        W88030  42.341  14.029   0.291
14963W        W88031  24.766   3.721  13.004
14964W        W88032  11.262  34.444   3.645
14965W        W88033   3.918  23.041   3.134
14966W        W88034   5.951  20.558   4.339
14967W        W88035  19.659  15.040   3.279
14968W        W88036  39.913  24.545   2.586
14969W        W88037  44.752  28.051   2.216
14970W        W88038  10.374  16.924  10.796
14971W        W88039  36.640  37.058  13.823
14972W        W88040   8.706  20.743  12.548
14973W        W88041  11.240  44.385   0.333
14974W        W88042  43.717  22.209   2.380
14975W        W88043  22.167  42.006  13.901
14976W        W88044  43.878  34.830  11.552
14977W        W88045  29.772  43.505   2.786
14978W        W88046  37.035   0.635  10.545
14979W        W88047  30.018  19.212   0.806
14980W        W88048  31.361  24.599  12.220
14981W        W88049  36.078  38.002   4.779
14982W        W88050  39.073  34.619  13.679
14983W        W88051  24.466  32.472   3.762
14984W        W88052  25.407  35.415  12.521
14985W        W88053  22.318  40.607  14.247
14986W        W88054   5.021  30.505  10.774
14987W        W88055   0.891   6.219  11.580
14988W        W88056  19.059  16.720  14.389
14989W        W88057  14.879   3.978   0.526
14990W        W88058  25.571   0.323   4.960
14991W        W88059  44.481  32.009  11.129
14992W        W88060  22.575   2.672  14.861
14993W        W88061  26.725   5.130  11.668
14994W        W88062  24.222  39.888   1.746
14995W        W88063  38.922  20.598  13.969
14996W        W88064  33.114   0.977   3.476
14997W        W88065   8.333   5.409  11.063
14998W        W88066   8.371  36.943  12.239
14999W        W88067  34.552  31.654   1.451
15000W        W88068  10.926  34.829   1.354
15001W        W88069   5.471  37.209  13.738
15002W        W88070  43.444  12.125   1.225
15003W        W88071  14.869  34.734   4.132
15004W        W88072   2.990  36.846   4.390
15005W        W88073  37.970  37.784  14.536
15006W        W88074  22.634  27.638  12.712
15007W        W88075  26.855  34.706  11.918
15008W        W88076  35.874  10.639   3.428
15009W        W88077  22.023  18.770  11.142
15010W        W88078  41.258  30.173   2.698
15011W        W88079  23.704   8.635   2.150
15012W        W88080  36.131  22.290   0.854
15013W        W88081  44.981  30.614   4.051
15014W        W88082  22.164  42.072   3.231
15015W        W88083  29.725  10.226  13.776
15016W        W88084  18.153  33.867   2.608
15017W        W88085   5.773  12.245   4.662
15018W        W88086   3.294  41.969  12.157
15019W        W88087  42.853   2.691   0.266
15020W        W88088  26.531  11.630  10.639
15021W        W88089   6.238  31.443  11.164
15022W        W88090  32.933  26.785  14.431
15023W        W88091   5.402  13.924  11.609
15024W        W88092   4.863  31.290  11.029
15025W        W88093  17.287   3.336   1.440
15026W        W88094  39.267  35.422   2.467
15027W        W88095  22.480   7.143   2.763
15028W        W88096  31.478  23.156  11.027
15029W        W88097  40.974  36.812  12.651
15030W        W88098  32.982  26.768  10.890
15031W        W88099  29.957  37.479   2.808
15032W        W88100  32.508  13.307  13.836
15033W        W88101   5.278  20.953   3.248
15034W        W88102  40.439  28.563   4.724
15035W        W88103  33.421   6.802  13.327
15036W        W88104  32.264  15.785  14.560
15037W        W88105  20.581  15.836  10.633
15038W        W88106  33.124   6.530   4.980
15039W        W88107  18.508   7.791   3.343
15040W        W88108   3.189  42.306   3.637
15041W        W88109  25.809  21.156   2.783
15042W        W88110  19.500  17.104   4.129
15043W        W88111  34.854  18.154   3.841
15044W        W88112  42.535  40.042   3.728
15045W        W88113   9.178  27.625  14.747
15046W        W88114  20.148  20.934   3.325
15047W        W88115  26.689  13.785   3.692
15048W        W88116  33.518  42.040  13.862
15049W        W88117  40.361  43.519  13.931
15050W        W88118  30.128  36.457  13.970
15051W        W88119  13.791  14.583  11.562
15052W        W88120  19.097   8.142  14.141
15053W        W88121  36.157  43.024  10.710
15054W        W88122  15.566  21.965  11.494
15055W        W88123   9.200  17.193  12.927
15056W        W88124  11.737  41.273  14.600
15057W        W88125  41.777  42.431  12.584
15058W        W88126  27.966   0.489   2.865
15059W        W88127  18.959  42.287   3.616
15060W        W88128  37.882  36.139   4.139
15061W        W88129  20.202   6.501  10.870
15062W        W88130   9.126  23.263   4.178
15063W        W88131  42.413  13.062   0.553
15064W        W88132  12.895  31.096   1.003
15065W        W88133  22.840  33.715   2.901
15066W        W88134  42.994   0.370  13.796
15067W        W88135  36.172  24.973  12.406
15068W        W88136  15.163  20.731  14.238
15069W        W88137  34.931   0.411   1.142
15070W        W88138  23.211   7.415   2.157
15071W        W88139  31.490  25.418   3.307
15072W        W88140  34.918  43.789   3.837
15073W        W88141  12.618  20.054  12.720
15074W        W88142  38.066  25.098  14.274
15075W        W88143   0.477   2.351   4.896
15076W        W88144  17.268  12.893  11.085
15077W        W88145  38.075  36.463  13.050
15078W        W88146   4.165  43.391  12.369
15079W        W88147  18.613   5.847   0.463
15080W        W88148  44.858  14.344   3.710
15081W        W88149   4.204  40.563  12.067
15082W        W88150  36.851   8.754   3.834
15083W        W88151  34.550  42.288  13.048
15084W        W88152  25.032  43.514   2.834
15085W        W88153   5.352  25.894   4.766
15086W        W88154  24.467  29.925   0.965
15087W        W88155  10.985   3.028   2.324
15088W        W88156   0.826  28.681  13.990
15089W        W88157   6.850  31.892  11.836
15090W        W88158   6.730  12.607  12.043
15091W        W88159   9.189  23.234   1.762
15092W        W88160  36.812  40.963  13.882
15093W        W88161   2.195  11.827  12.577
15094W        W88162  29.788  30.927   1.106
15095W        W88163  17.643   4.328   1.977
15096W        W88164  27.868   7.262   4.583
15097W        W88165   6.484  32.424  11.193
15098W        W88166  30.823   1.670  12.009
15099W        W88167   7.746  31.668   3.262
15100W        W88168   1.065  31.956   4.645
15101W        W88169  23.303  31.068  11.445
15102W        W88170  21.568  36.588   1.366
15103W        W88171  23.247  19.134  14.491
15104W        W88172   6.879   7.472   3.666
15105W        W88173  18.226  13.422  14.489
15106W        W88174  43.308  27.766   2.667
15107W        W88175  13.115  38.897   4.993
15108W        W88176  31.488  18.715   0.858
15109W        W88177  35.185  34.154  11.209
15110W        W88178   9.818   6.811   0.478
15111W        W88179   8.337  33.356   2.388
15112W        W88180  27.606   1.027   3.304
15113W        W88181  16.861  42.614  14.478
15114W        W88182  38.078  32.418  12.140
15115W        W88183  14.230   0.970  13.331
15116W        W88184   5.293  32.542   2.978
15117W        W88185  20.469  24.806  12.967
15118W        W88186  26.270  12.937  12.934
15119W        W88187  24.538  13.619  13.957
15120W        W88188  19.253  22.726  14.931
15121W        W88189  10.034  33.497  12.675
15122W        W88190  33.445  17.816  13.324
15123W        W88191  15.771  28.175   1.897
15124W        W88192  14.697  16.199  11.591
15125W        W88193  19.670   7.387   4.619
15126W        W88194   0.920  19.154   3.135
15127W        W88195  20.521  38.890  12.793
15128W        W88196  41.854   9.418   3.738
15129W        W88197  20.694  18.245  14.800
15130W        W88198  24.021  18.216  11.581
15131W        W88199  30.044  22.268  12.565
15132W        W88200  18.848  30.499   4.081
15133W        W88201  36.177   0.393   1.966
15134W        W88202   3.756   9.219  12.439
15135W        W88203  33.540  41.503  13.874
15136W        W88204  19.815   8.483   3.797
15137W        W88205  43.147   2.857  13.847
15138W        W88206   1.892  33.585  14.794
15139W        W88207  44.783  14.129   1.419
15140W        W88208   4.946  34.023  10.538
15141W        W88209  26.238   3.806  12.036
15142W        W88210  25.235  16.692   4.294
15143W        W88211   5.253  35.419   1.858
15144W        W88212  42.739  43.956   4.701
15145W        W88213   4.228  42.299   4.858
15146W        W88214  10.636   6.899   4.114
15147W        W88215  18.654   9.186   1.819
15148W        W88216  26.056  26.142  11.589
15149W        W88217  13.031  33.440  12.730
15150W        W88218   4.198  24.686   0.870
15151W        W88219  33.045   4.708  13.820
15152W        W88220   6.004  18.784  11.153
15153W        W88221  27.448  34.927   2.604
15154W        W88222   6.279   0.000   2.436
15155W        W88223  35.603  26.594   4.172
15156W        W88224   0.732  37.698   0.952
15157W        W88225  31.076  35.149   2.555
15158W        W88226  23.776  18.226  14.499
15159W        W88227   3.088   6.977  12.909
15160W        W88228  12.221  10.654  11.208
15161W        W88229  36.846  13.157   0.169
15162W        W88230  22.107  21.793  12.318
15163W        W88231  13.337  44.512  12.989
15164W        W88232   5.223  14.778   0.386
15165W        W88233  25.190  42.522  11.977
15166W        W88234  26.655   5.849  12.916
15167W        W88235   8.380  33.971   1.449
15168W        W88236  12.887  20.470   4.013
15169W        W88237  42.526  13.548   0.827
15170W        W88238   7.936  30.499   0.377
15171W        W88239  32.121   7.389  13.315
15172W        W88240  25.037  12.677   0.711
15173W        W88241  36.852  42.849   4.593
15174W        W88242   3.463  42.763   3.689
15175W        W88243  17.947  10.271  10.695
15176W        W88244   4.868  25.603   1.160
15177W        W88245   8.877  11.343  10.340
15178W        W88246  27.807   0.799   0.052
15179W        W88247  33.590  38.806  14.861
15180W        W88248   5.499  40.435   1.286
15181W        W88249  21.272  39.270   2.408
15182W        W88250   1.756  17.556  13.286
15183W        W88251  13.226  22.609  10.176
15184W        W88252  40.813  24.592   3.854
15185W        W88253  17.245  33.989   3.137
15186W        W88254  11.755  23.230   2.629
15187W        W88255   8.987   4.122   1.682
15188W        W88256  35.951  19.576  12.654
15189W        W88257  13.040  29.109   4.991
15190W        W88258  32.277  14.731  14.961
15191W        W88259  33.453  44.348  14.338
15192W        W88260  32.814  23.558  14.536
15193W        W88261  16.110   5.267   1.041
15194W        W88262  39.007  13.295  13.695
15195W        W88263  38.730   8.841   4.643
15196W        W88264  19.625   8.247  12.207
15197W        W88265  44.954  44.666  10.771
15198W        W88266  25.062  36.499   4.681
15199W        W88267  40.839  33.659   3.219
15200W        W88268   3.885  35.637  14.789
15201W        W88269  29.370  21.012  11.603
15202W        W88270  10.240   4.798   1.169
15203W        W88271  41.476   5.369  13.265
15204W        W88272  32.224   6.661  12.063
15205W        W88273  18.805  44.072  12.532
15206W        W88274  18.214   1.145   0.705
15207W        W88275  37.881  23.240  13.067
15208W        W88276  42.771  40.152  11.363
15209W        W88277  11.339   7.783   2.790
15210W        W88278  43.531  26.150  12.865
15211W        W88279  30.341  15.430  11.207
15212W        W88280  11.384  31.181   1.256
15213W        W88281  42.574  17.062  13.391
15214W        W88282  20.254  18.957   3.133
15215W        W88283   1.464  18.901   0.039
15216W        W88284  29.560  23.555   2.327
15217W        W88285   7.995  29.932  12.421
15218W        W88286  25.733  39.385  13.671
15219W        W88287  36.186  34.321  13.794
15220W        W88288   7.757  13.949  13.064
15221W        W88289  37.012   6.139   0.167
15222W        W88290  25.893   1.940   0.765
15223W        W88291  11.392  11.742  14.350
15224W        W88292  22.285   3.269  12.144
15225W        W88293  18.099  20.061   3.657
15226W        W88294  17.604  32.583   1.540
15227W        W88295  32.540   5.854  12.433
15228W        W88296  29.970  43.113   2.412
15229W        W88297  24.484  42.918   1.208
15230W        W88298  17.170  10.605   1.275
15231W        W88299  27.837   6.785   1.876
15232W        W88300  33.827   8.372  14.580
15233W        W88301  22.456   2.294  12.385
15234W        W88302  14.476   9.189  12.050
15235W        W88303  39.775  21.784  12.857
15236W        W88304  41.947  31.943   0.518
15237W        W88305  35.415  16.474  12.177
15238W        W88306  19.381  26.210   1.702
15239W        W88307  18.732  22.038  14.767
15240W        W88308  39.278  31.280   2.738
15241W        W88309  44.601  26.247  11.501
15242W        W88310   6.316  16.883  11.122
15243W        W88311  42.339  11.323   0.007
15244W        W88312  24.990  18.215  10.928
15245W        W88313  30.439  10.482  12.614
15246W        W88314  18.279  38.978  11.005
15247W        W88315  30.399  26.701   0.281
15248W        W88316  35.498  21.858   2.800
15249W        W88317  11.385  30.676   1.354
15250W        W88318  18.091  37.910   1.970
15251W        W88319  28.662   3.666  12.423
15252W        W88320  33.548   4.644   0.672
15253W        W88321  19.614  34.185  10.813
15254W        W88322  42.700   6.752  13.982
15255W        W88323  14.758   1.765   2.737
15256W        W88324  39.278  37.463   4.096
15257W        W88325  19.548   2.083   1.155
15258W        W88326  11.627  31.504   0.922
15259W        W88327   9.715  35.924  10.657
15260W        W88328  31.650  13.822  14.971
15261W        W88329  21.434   3.250  13.932
15262W        W88330  10.090   8.605   1.364
15263W        W88331  12.162   9.286  14.242
15264W        W88332  23.838  13.707  11.178
15265W        W88333  41.052   3.291   2.203
15266W        W88334   5.198   1.237  12.453
15267W        W88335  11.164  23.576   0.465
15268W        W88336   3.970  17.413   3.383
15269W        W88337  17.808   6.827   4.862
15270W        W88338  38.565  36.015   2.306
15271W        W88339   1.005  22.701   3.596
15272W        W88340  15.541   4.765  12.815
15273W        W88341  12.276  26.654  14.713
15274W        W88342  27.084  35.120   0.533
15275W        W88343  24.899  41.811   1.100
15276W        W88344   4.881  41.650   2.693
15277W        W88345   8.998  35.033  11.979
15278W        W88346  27.954  34.880   3.726
15279W        W88347   1.395  40.247  14.205
15280W        W88348  40.860  26.137   2.897
15281W        W88349  19.560  15.658  13.723
15282W        W88350  12.110  11.387  13.255
15283W        W88351  10.344  16.124  11.118
15284W        W88352  21.693  43.510  13.352
15285W        W88353   7.590   9.186  10.707
15286W        W88354  37.606   1.859  10.568
15287W        W88355  17.096  39.883   3.548
15288W        W88356   8.115  29.301  11.103
15289W        W88357  30.761  31.891  14.595
15290W        W88358  14.010  22.644   1.461
15291W        W88359  24.234  30.053  12.947
15292W        W88360  15.749  24.591   1.766
15293W        W88361  15.627  31.003   3.154
15294W        W88362  20.516  11.211   2.924
15295W        W88363  18.044  32.316   2.810
15296W        W88364  37.556  16.248  11.878
15297W        W88365   4.374  27.728   2.413
15298W        W88366  40.262  36.760   3.198
15299W        W88367   3.238  20.512   3.653
15300W        W88368  44.235   0.306   1.199
15301W        W88369  42.991  35.531   0.493
15302W        W88370  33.033  37.299  11.176
15303W        W88371  26.020  29.643  10.955
15304W        W88372  25.746  11.871   3.584
15305W        W88373  20.212  10.757  14.899
15306W        W88374  37.300  34.641  12.080
15307W        W88375  44.028   7.233  14.798
15308W        W88376  40.512  25.019  11.244
15309W        W88377  29.044  23.963  14.275
15310W        W88378  14.540  27.663  14.983
15311W        W88379  16.867   9.584   2.753
15312W        W88380  17.281   1.637  13.985
15313W        W88381  19.021  41.323  11.998
15314W        W88382  22.493  44.326   2.311
15315W        W88383   2.438   6.294  14.993
15316W        W88384  44.584   8.739  13.178
15317W        W88385  19.704  31.078   3.251
15318W        W88386  35.138  17.770   4.608
15319W        W88387  42.473   1.843   3.115
15320W        W88388  20.107  36.845   3.170
15321W        W88389  43.928  22.667  14.763
15322W        W88390  20.991   0.304  10.524
15323W        W88391   8.255  36.793  14.913
15324W        W88392  12.401  28.394  11.245
15325W        W88393  37.943  42.866  14.330
15326W        W88394  29.878  32.403  11.722
15327W        W88395  27.207  30.891   0.490
15328W        W88396   0.983  38.923   4.984
15329W        W88397  33.075   2.030   0.261
15330W        W88398  33.014  40.810  11.646
15331W        W88399   1.634  25.885   4.135
15332W        W88400  12.109  32.388   0.913
15333W        W88401  34.476  43.017  13.945
15334W        W88402  19.996   3.642  11.658
15335W        W88403  29.528  17.792   0.343
15336W        W88404  27.020   0.812   0.998
15337W        W88405  17.461   5.871   3.158
15338W        W88406  22.763  18.560   4.630
15339W        W88407  25.653  24.035  10.751
15340W        W88408  18.977  30.775  13.620
15341W        W88409  24.001  32.303  13.615
15342W        W88410  27.497  32.868  11.357
15343W        W88411  40.416  36.761  14.294
15344W        W88412  19.900  11.661   5.000
15345W        W88413  24.611  31.802  14.415
15346W        W88414  27.244  20.769  10.975
15347W        W88415  33.784   3.789  10.505
15348W        W88416  13.059  44.765   3.767
15349W        W88417  36.000  41.717   0.168
15350W        W88418  30.458  27.069  10.743
15351W        W88419  38.984  14.728   2.055
15352W        W88420  10.617  31.020  11.149
15353W        W88421  14.718  39.955  10.964
15354W        W88422  33.422  18.585   1.315
15355W        W88423  35.433   7.399  12.906
15356W        W88424  24.169   8.762  12.397
15357W        W88425   6.689  44.748  11.523
15358W        W88426  29.644  30.646   4.169
15359W        W88427  14.176   8.804  14.951
15360W        W88428  24.774  40.413  14.320
15361W        W88429  31.709  18.178  13.125
15362W        W88430   0.495   1.478  14.011
15363W        W88431  13.265  29.951   1.884
15364W        W88432  36.947  29.431  14.278
15365W        W88433  42.139  36.740   4.468
15366W        W88434  26.030  29.406  10.497
15367W        W88435  28.574  18.567  11.627
15368W        W88436  12.626  13.647  12.808
15369W        W88437  13.053  44.470   3.058
15370W        W88438  10.750   3.793  10.818
15371W        W88439  10.963   0.175  12.946
15372W        W88440  40.639  16.113   3.749
15373W        W88441  41.801  26.936  12.908
15374W        W88442   8.277  14.917   0.249
15375W        W88443  23.018   7.733   4.260
15376W        W88444  39.433  35.443   0.918
15377W        W88445  24.249  44.849   4.635
15378W        W88446   9.969  34.540  12.404
15379W        W88447  30.447  17.969   0.331
15380W        W88448  16.260  35.438   2.896
15381W        W88449   9.802  15.941  12.262
15382W        W88450  30.808  34.599   4.139
15383W        W88451  41.878  23.815   4.665
15384W        W88452  29.002  42.918   1.848
15385W        W88453  28.162   0.241   1.885
15386W        W88454  25.246  23.155  11.702
15387W        W88455  29.199  21.100  10.293
15388W        W88456   3.231   1.466  12.661
15389W        W88457  20.639  18.679  14.479
15390W        W88458  20.678   3.813  12.563
15391W        W88459   2.828  14.728   0.393
15392W        W88460  12.016   7.673  12.811
15393W        W88461  36.929  31.380  11.612
15394W        W88462  34.928   2.534   1.216
15395W        W88463   4.968  14.898   3.704
15396W        W88464  29.461  43.250   2.364
15397W        W88465  26.182  41.614   1.623
15398W        W88466  22.334  39.263   4.840
15399W        W88467  44.229  21.494  11.063
15400W        W88468  19.611  40.991   2.402
15401W        W88469  39.862  16.781  10.500
15402W        W88470  37.826  24.649   1.030
15403W        W88471   0.982   7.328   1.524
15404W        W88472  37.027  32.401   9.927
15405W        W88473  13.404  38.475   1.410
15406W        W88474  39.397  21.785  11.411
15407W        W88475  14.818  40.817  12.514
15408W        W88476  18.034  32.388  13.371
15409W        W88477  13.404  19.614  11.167
15410W        W88478  27.540  28.113  13.175
15411W        W88479  24.623  39.967  11.328
15412W        W88480  11.727  16.844  11.537
15413W        W88481   0.592  29.505  10.778
15414W        W88482  15.903  11.043   3.123
15415W        W88483  12.752  30.065   1.821
15416W        W88484   9.333   2.498  13.478
15417W        W88485   6.461  38.094   0.887
15418W        W88486  15.315  10.739  12.149
15419W        W88487  21.244  10.590   3.687
15420W        W88488   2.804  28.832   3.357
15421W        W88489   0.539  18.134  11.214
15422W        W88490  14.386  41.204   1.495
15423W        W88491  26.674  23.003   4.545
15424W        W88492  19.501  36.676  13.311
15425W        W88493  17.010  15.818  12.638
15426W        W88494  27.971   6.506  13.928
15427W        W88495   7.678  15.394   0.769
15428W        W88496  23.117  17.783   5.167
15429W        W88497  27.574  36.250   4.668
15430W        W88498   1.801   9.932   2.684
15431W        W88499  25.750  40.391   9.711
15432W        W88500   2.314  17.190  14.861
15433W        W88501  26.252  17.628  12.057
15434W        W88502  22.216  12.872  14.953
15435W        W88503  24.520  43.575  11.602
15436W        W88504   6.240  25.038   3.419
15437W        W88505  41.236  26.914  11.066
15438W        W88506  32.008  40.748   0.697
15439W        W88507  10.851  31.840   1.079
15440W        W88508   8.379  17.115   3.363
15441W        W88509  40.987  40.855   1.904
15442W        W88510  12.141  16.707   0.226
15443W        W88511  37.503  44.918  13.552
15444W        W88512  24.282   4.869  12.943
15445W        W88513  44.920  11.895  14.843
15446W        W88514  44.160  24.561   2.724
15447W        W88515   3.518  41.769  12.628
15448W        W88516  15.326  38.051   4.295
15449W        W88517  40.395  44.992   0.357
15450W        W88518  23.503  38.048   1.398
15451W        W88519  44.826  32.508   1.903
15452W        W88520  30.803  37.120   2.842
15453W        W88521  12.179  11.544  11.225
15454W        W88522  23.971  36.460   0.653
15455W        W88523   1.280  43.365   0.537
15456W        W88524  42.912   6.281   0.047
15457W        W88525  38.141   6.791  10.363
15458W        W88526  26.013  11.854   1.326
15459W        W88527  10.580  38.523   2.216
15460W        W88528  12.237  25.438  14.437
15461W        W88529  36.892   4.641  14.722
15462W        W88530  25.075   7.400   4.317
15463W        W88531  37.038  36.430  13.044
15464W        W88532  32.451  23.033  10.673
15465W        W88533  19.795  41.523   4.135
15466W        W88534  19.012  19.862  12.463
15467W        W88535  27.051   4.112   2.858
15468W        W88536  13.137  19.174  12.031
15469W        W88537  44.334  12.121   1.472
15470W        W88538   2.260  40.621   1.500
15471W        W88539  28.344  36.922   4.121
15472W        W88540   6.858  26.113   3.994
15473W        W88541  23.072   2.325  14.373
15474W        W88542  38.553  16.098   2.771
15475W        W88543  40.517   7.850  12.958
15476W        W88544  13.620   5.618   2.192
15477W        W88545  34.868   0.260  14.426
15478W        W88546  41.093  12.546   2.095
15479W        W88547  39.063  12.812  13.494
15480W        W88548   7.991   6.347   1.725
15481W        W88549  41.086  31.931  12.960
15482W        W88550  43.978  10.646   0.896
15483W        W88551  14.260  43.285   4.166
15484W        W88552  21.942  43.237  12.542
15485W        W88553  24.516   9.421  11.018
15486W        W88554  12.610  36.328  12.961
15487W        W88555  32.383   8.732  10.798
15488W        W88556   6.860  14.768  13.526
15489W        W88557  42.539   9.368  14.392
15490W        W88558   4.923   6.021   4.671
15491W        W88559  11.702  23.538  12.440
15492W        W88560  12.583  21.557  11.623
15493W        W88561   8.495  28.444   2.184
15494W        W88562  24.473   5.331  12.868
15495W        W88563  11.605   1.788   4.065
15496W        W88564  41.708   9.527  13.544
15497W        W88565   8.696   6.467   4.156
15498W        W88566  13.752  24.606   4.190
15499W        W88567  29.115  41.773  11.885
15500W        W88568  31.089  10.383  10.568
15501W        W88569  33.288   2.887   4.851
15502W        W88570  25.232  18.064   1.844
15503W        W88571  35.802  13.336   0.476
15504W        W88572   3.933  17.979  11.007
15505W        W88573  22.241  25.464  11.552
15506W        W88574  12.848  43.417   0.396
15507W        W88575  33.395  44.847  14.594
15508W        W88576   8.346  42.845   2.163
15509W        W88577  22.525  25.073  11.680
15510W        W88578  39.028  28.564  11.676
15511W        W88579  10.350  27.006   4.805
15512W        W88580  19.649   1.931  11.692
15513W        W88581  42.771  12.187  11.420
15514W        W88582  17.195  43.885  10.662
15515W        W88583  18.146  30.974   1.270
15516W        W88584  19.242   9.269   3.089
15517W        W88585   9.150  30.964  11.868
15518W        W88586  23.585  22.618   3.824
15519W        W88587  12.790   6.779   2.251
15520W        W88588  40.838  22.945   2.800
15521W        W88589   4.787  27.675  11.754
15522W        W88590  16.660  33.616  13.916
15523W        W88591  24.177  33.984  11.657
15524W        W88592  25.591  30.476   0.195
15525W        W88593  19.258   4.201   0.381
15526W        W88594  25.049  41.634   5.083
15527W        W88595  24.711  22.408  11.207
15528W        W88596   0.426  16.177   2.760
15529W        W88597  17.014  22.505   2.249
15530W        W88598  43.988  27.675   3.228
15531W        W88599  26.954  12.297  11.181
15532W        W88600  37.837  32.029  10.084
15533W        W88601   2.741   0.288   1.342
15534W        W88602   3.209  26.080  12.165
15535W        W88603   7.160  15.366   3.594
15536W        W88604   2.775  25.318   4.869
15537W        W88605  24.570  20.776   0.739
15538W        W88606  39.298  33.571   3.426
15539W        W88607  18.590  25.729  10.930
15540W        W88608   8.872  17.995  13.574
15541W        W88609  22.123  41.478  11.791
15542W        W88610   7.704  29.019  12.370
15543W        W88611   0.897  43.856   4.096
15544W        W88612  37.576  26.011   4.614
15545W        W88613  32.242  19.090   3.088
15546W        W88614  11.522  41.409  11.171
15547W        W88615  25.505  44.228  11.624
15548W        W88616  27.524  11.828   4.466
15549W        W88617  33.520  33.517  12.011
15550W        W88618  41.977  34.818   4.030
15551W        W88619  17.088   4.354  13.076
15552W        W88620   3.404   2.107   0.242
15553W        W88621  44.270  16.881  13.348
15554W        W88622  43.530  22.502   3.630
15555W        W88623  33.689  31.676  11.752
15556W        W88624   9.521   7.873  10.935
15557W        W88625  26.256  42.597  14.891
15558W        W88626   0.232  16.506  10.515
15559W        W88627  11.546  43.668   0.133
15560W        W88628  32.955   2.960  11.058
15561W        W88629  43.865  14.459   0.347
15562W        W88630  14.832  31.965   1.744
15563W        W88631  27.232  34.352   2.608
15564W        W88632   2.544  21.372  12.557
15565W        W88633   7.953   4.623  10.455
15566W        W88634  13.083  38.869   3.166
15567W        W88635  21.917  18.178  10.561
15568W        W88636  34.692   3.877   1.237
15569W        W88637  23.914  12.288  13.932
15570W        W88638  35.070  27.153   1.264
15571W        W88639  23.961  31.483   2.851
15572W        W88640   2.429  18.621   1.837
15573W        W88641  20.920  39.668   0.134
15574W        W88642  38.260  36.845   0.676
15575W        W88643  35.964   4.759   1.171
15576W        W88644  24.016  30.966  14.337
15577W        W88645  17.051   2.870   3.619
15578W        W88646  21.777  20.191   2.498
15579W        W88647  34.041  16.019  14.353
15580W        W88648  39.966  24.723   2.084
15581W        W88649  41.995   4.096   2.574
15582W        W88650  15.317  17.880   4.506
15583W        W88651  43.719   1.608   2.623
15584W        W88652  29.273  11.547  11.122
15585W        W88653   3.068  10.642   0.885
15586W        W88654  14.274  30.000   5.082
15587W        W88655  21.406  30.029  14.771
15588W        W88656  19.296  27.819   2.199
15589W        W88657  23.280  36.631  12.040
15590W        W88658   8.623  31.459  14.000
15591W        W88659   8.915  19.812  10.727
15592W        W88660   6.961   2.337   3.693
15593W        W88661  33.113  40.828   4.959
15594W        W88662  21.127  18.257   1.381
15595W        W88663  43.688  31.996  13.470
15596W        W88664  13.741   9.204  12.867
15597W        W88665  25.272  37.127   9.871
15598W        W88666  39.025  44.440  14.331
15599W        W88667  34.852  28.133   0.192
15600W        W88668  44.910   3.959  13.540
15601W        W88669  26.134   2.290   4.631
15602W        W88670  22.962  16.100  14.343
15603W        W88671  14.770   7.758  13.394
15604W        W88672  18.864  15.807   2.756
15605W        W88673  24.669   3.722   3.338
15606W        W88674  15.896   3.819   4.506
15607W        W88675  14.806  19.068   3.842
15608W        W88676  16.159  38.023   0.684
15609W        W88677   3.878  44.980   4.150
15610W        W88678   3.787  29.935   4.082
15611W        W88679  32.656   1.030  13.382
15612W        W88680  32.569  21.528   2.883
15613W        W88681   0.942   6.183  14.407
15614W        W88682  18.973  24.137  14.760
15615W        W88683  11.884  39.126  10.602
15616W        W88684   3.662  20.969  10.498
15617W        W88685  37.063  43.369  12.378
15618W        W88686   2.201  40.229   2.774
15619W        W88687   7.732  21.018   0.370
15620W        W88688  31.174   1.374  14.397
15621W        W88689   9.995  19.143  14.720
15622W        W88690   7.831  16.542   4.411
15623W        W88691  15.193  11.138  14.985
15624W        W88692   6.058  30.943   2.883
15625W        W88693  37.586  37.442  11.437
15626W        W88694  18.905   4.148   3.128
15627W        W88695   1.327  39.327  10.982
15628W        W88696  26.192  26.645   3.648
15629W        W88697  19.531  44.762  12.905
15630W        W88698  39.945  37.006  14.316
15631W        W88699  37.011  42.451  10.740
15632W        W88700  10.818  23.547   1.687
15633W        W88701  39.098  31.547  13.996
15634W        W88702  40.555   5.371  12.467
15635W        W88703  29.944  43.520  10.668
15636W        W88704  17.335  32.721  14.683
15637W        W88705  15.818  16.245  12.037
15638W        W88706   5.803  17.340   0.252
15639W        W88707  11.880   8.119   4.116
15640W        W88708  22.109  13.856  13.065
15641W        W88709  24.679  13.616  13.020
15642W        W88710  40.603   0.566  12.492
15643W        W88711  19.772  41.953  11.112
15644W        W88712  15.039   8.392  11.045
15645W        W88713   8.923   8.442   3.601
15646W        W88714  35.657  16.162   3.338
15647W        W88715  24.213   6.669  14.775
15648W        W88716  33.628   9.215   1.374
15649W        W88717  19.530  24.217   3.153
15650W        W88718   2.001   0.323  11.423
15651W        W88719   0.122  26.231  11.582
15652W        W88720  26.656  39.047  12.079
15653W        W88721  33.876   5.957  14.281
15654W        W88722  12.931  15.475  13.523
15655W        W88723  41.713   7.099   0.440
15656W        W88724   9.409  37.341   4.552
15657W        W88725  26.614  37.150  12.940
15658W        W88726  32.418  35.977   2.727
15659W        W88727   5.854   7.613   0.494
15660W        W88728  29.476  26.230   0.846
15661W        W88729  23.168  35.062  12.107
15662W        W88730  25.641  30.687   3.143
15663W        W88731  41.747   6.311   4.605
15664W        W88732  23.053  32.137  11.157
15665W        W88733  13.239   9.576  14.262
15666W        W88734   3.745  18.525  11.949
15667W        W88735  33.413   4.434  10.601
15668W        W88736   7.629   6.260  12.417
15669W        W88737   6.585  40.143  11.581
15670W        W88738  25.062  22.063  12.259
15671W        W88739  34.133  16.121  13.437
15672W        W88740  44.011  41.959   2.792
15673W        W88741  26.315   3.133  11.075
15674W        W88742  26.926  24.799   4.188
15675W        W88743   6.678  22.102   1.861
15676W        W88744  16.061  13.320   0.606
15677W        W88745  14.683   2.685  14.979
15678W        W88746  12.386  10.678  11.812
15679W        W88747  13.233  15.334  12.482
15680W        W88748   3.151  12.143  13.301
15681W        W88749   3.209  41.942  13.058
15682W        W88750   9.163  14.052  10.424
15683W        W88751  38.752  16.757   4.612
15684W        W88752  37.093   1.302  13.389
15685W        W88753  12.437   0.479  12.897
15686W        W88754  21.898   8.125  13.937
15687W        W88755  24.031  38.489   4.210
15688W        W88756   0.190  11.395  13.019
15689W        W88757  34.357  29.893   0.895
15690W        W88758  25.416  20.619  13.372
15691W        W88759  32.426  34.864   3.717
15692W        W88760  18.738   2.370   4.394
15693W        W88761  33.380  21.240   4.119
15694W        W88762  29.535   1.379  14.803
15695W        W88763  25.684  30.454  12.113
15696W        W88764  44.221  14.208  12.125
15697W        W88765  44.338  27.628   2.243
15698W        W88766   5.290  32.403   3.829
15699W        W88767  20.208  11.168   4.414
15700W        W88768  21.690  36.903   1.775
15701W        W88769  14.584  13.932   4.713
15702W        W88770  29.245   6.764  13.038
15703W        W88771   8.258  10.688  14.820
15704W        W88772  44.108  11.357   1.475
15705W        W88773  30.064  43.503  13.863
15706W        W88774  38.419  29.050   2.967
15707W        W88775  10.798  30.606  14.723
15708W        W88776  39.405  31.455   1.898
15709W        W88777  30.836  38.933   4.077
15710W        W88778  35.142  34.383  13.849
15711W        W88779   2.220   2.579  11.165
15712W        W88780  23.186  17.654  14.965
15713W        W88781  40.765  23.442   2.880
15714W        W88782   6.861  15.166  12.450
15715W        W88783  30.095  29.550  13.035
15716W        W88784  35.335  24.598   2.215
15717W        W88785  32.901  16.791  14.527
15718W        W88786  22.334  23.628  13.838
15719W        W88787  13.179   7.220   4.697
15720W        W88788  20.735  18.345  11.529
15721W        W88789  28.451  34.476  14.975
15722W        W88790  42.280  30.444   0.961
15723W        W88791  24.446   4.799   0.822
15724W        W88792  35.835  14.105  12.064
15725W        W88793  27.210  39.083  14.261
15726W        W88794  33.120  15.203  13.484
15727W        W88795  43.456  28.433  10.729
15728W        W88796  33.544  44.966   1.422
15729W        W88797  29.977   0.355  13.986
15730W        W88798  24.904  26.481  12.325
15731W        W88799  21.298  12.765  10.731
15732W        W88800  20.487   9.242  13.363
15733W        W88801  27.000  29.497  14.027
15734W        W88802  21.147   1.425   1.859
15735W        W88803  38.973   8.714  10.581
15736W        W88804  43.016   5.911  14.126
15737W        W88805  20.517   9.832  11.558
15738W        W88806   3.409  39.646   2.569
15739W        W88807  27.688   1.829   3.813
15740W        W88808  30.120  31.007  14.892
15741W        W88809   9.400   4.440  14.751
15742W        W88810  35.984  11.757  13.502
15743W        W88811  14.246   9.136   4.346
15744W        W88812  14.634   2.392  14.261
15745W        W88813  14.590  26.339  13.351
15746W        W88814  33.743   9.954  13.983
15747W        W88815  39.482   0.232  13.467
15748W        W88816  33.688   5.399   0.439
15749W        W88817  15.685   6.223  11.576
15750W        W88818   4.079   6.189   1.277
15751W        W88819  30.431   5.724   0.797
15752W        W88820  15.485  17.121  11.279
15753W        W88821  19.243  28.062  11.729
15754W        W88822  29.224   0.313   1.972
15755W        W88823   2.248  34.161   2.322
15756W        W88824  26.707  13.564   2.772
15757W        W88825  33.501  36.843  14.322
15758W        W88826   6.307  40.507  13.049
15759W        W88827  13.580  34.826  12.401
15760W        W88828  37.055  18.357   4.113
15761W        W88829  36.351  14.229  13.034
15762W        W88830  21.526  38.117   2.199
15763W        W88831  43.774  32.579  12.177
15764W        W88832   7.637   2.887  13.035
15765W        W88833  41.986  22.280  14.468
15766W        W88834  20.001  40.790  12.070
15767W        W88835   5.748   1.021  12.424
15768W        W88836  37.636  30.036   3.160
15769W        W88837  31.991  39.141  14.258
15770W        W88838  41.628   3.396  11.288
15771W        W88839  20.304  37.193  12.633
15772W        W88840  44.491  32.655  14.401
15773W        W88841   9.243   7.696   0.888
15774W        W88842  41.455   1.755  11.525
15775W        W88843   9.412  10.092  11.089
15776W        W88844   5.706  23.051   1.786
15777W        W88845  33.380  42.969  14.519
15778W        W88846   1.945   5.687  10.586
15779W        W88847  44.222  44.333   2.166
15780W        W88848  28.881   4.918  14.528
15781W        W88849  13.879  26.361  11.633
15782W        W88850  11.652  25.454   4.746
15783W        W88851  24.528  35.372  13.282
15784W        W88852  21.290   4.998   4.470
15785W        W88853  34.140   4.414   4.614
15786W        W88854   8.018  13.300  14.012
15787W        W88855  32.864  34.109  10.635
15788W        W88856  42.981   2.573  14.232
15789W        W88857   9.214  28.613   3.318
15790W        W88858  24.587  25.126   2.386
15791W        W88859  17.245  17.112   0.576
15792W        W88860  31.975  14.392   4.242
15793W        W88861   4.938  29.426  10.692
15794W        W88862  29.312   8.042   2.628
15795W        W88863  43.147  40.986  13.824
15796W        W88864   8.350  25.655   1.899
15797W        W88865  26.060  27.889  10.768
15798W        W88866  38.021  25.160   2.338
15799W        W88867   1.713  24.062   3.680
15800W        W88868   1.279   1.685  12.021
15801W        W88869  42.747  31.479   2.571
15802W        W88870  22.545  20.431  11.595
15803W        W88871  32.092  29.948  10.791
15804W        W88872  22.676  23.448   4.102
15805W        W88873  26.683   9.588   2.293
15806W        W88874  43.526   5.725  14.307
15807W        W88875  33.875  29.150   0.253
15808W        W88876   6.627  19.633   5.017
15809W        W88877   7.235   0.553  12.873
15810W        W88878  30.722  17.432  13.288
15811W        W88879  20.096  25.577   2.708
15812W        W88880   0.732  12.691   3.760
15813W        W88881  44.501  17.558  13.869
15814W        W88882  13.599  43.686   0.031
15815W        W88883   3.017  41.004   3.897
15816W        W88884  33.363   8.762   1.330
15817W        W88885   5.912  29.465  11.951
15818W        W88886   6.360  21.198   0.451
15819W        W88887  10.138  32.123  12.343
15820W        W88888  27.579   9.788   0.365
15821W        W88889  20.767  39.797  12.389
15822W        W88890  21.881  16.619  10.241
15823W        W88891  12.673  32.511  12.363
15824W        W88892  30.385  42.887  11.150
15825W        W88893   4.779  10.846  13.995
15826W        W88894  18.106   6.404   1.785
15827W        W88895  25.051  37.089  10.813
15828W        W88896  10.346  26.667  13.548
15829W        W88897  22.962  12.712   1.143
15830W        W88898  44.989  16.328  14.140
15831W        W88899  25.990  31.191  10.953
15832W        W88900  21.731  43.500   1.445
15833W        W88901   6.814  36.224  12.442
15834W        W88902  36.857  33.810  14.469
15835W        W88903   6.576  40.233   2.717
15836W        W88904  36.845  35.434   3.233
15837W        W88905  39.599   7.752  10.529
15838W        W88906  13.439  27.403  13.749
15839W        W88907   1.562  23.681  12.006
15840W        W88908  42.239  38.340  11.634
15841W        W88909   9.705   6.080   1.385
15842W        W88910  19.889  24.954  13.066
15843W        W88911   7.320   2.791   3.664
15844W        W88912  37.964  41.232  14.077
15845W        W88913  29.466  17.409  11.576
15846W        W88914  34.800  30.399  14.255
15847W        W88915  16.230   3.305   3.323
15848W        W88916  35.526  17.576   2.870
15849W        W88917   4.219  14.234   4.101
15850W        W88918  31.901   0.477   3.428
15851W        W88919  34.531  36.148  12.022
15852W        W88920   5.859  26.687  11.097
15853W        W88921  30.988  32.866   1.925
15854W        W88922  38.522   2.345   1.703
15855W        W88923  18.176   4.448  14.511
15856W        W88924  42.071  14.671  14.498
15857W        W88925  22.584  42.027   2.094
15858W        W88926  23.804  15.667   2.655
15859W        W88927  21.061   7.164   3.554
15860W        W88928  10.808  18.470  13.414
15861W        W88929   7.849   5.214  14.548
15862W        W88930   1.711  11.571   3.706
15863W        W88931  15.302  38.483  14.350
15864W        W88932   6.914  14.060  13.689
15865W        W88933   3.925  32.110  14.272
15866W        W88934   6.951   3.422  13.070
15867W        W88935  11.367  21.036  11.645
15868W        W88936  24.715  36.337   2.051
15869W        W88937  30.979  41.580  14.571
15870W        W88938  21.119  31.145   1.346
15871W        W88939  41.379  23.338  12.545
15872W        W88940   3.637  15.082   3.915
15873W        W88941  27.557   9.824   0.883
15874W        W88942  14.643  14.586  14.889
15875W        W88943  44.699   7.419  13.417
15876W        W88944   2.959  32.222  12.988
15877W        W88945   2.947   1.055   1.699
15878W        W88946  18.170  20.817  14.083
15879W        W88947  17.981  18.658  10.936
15880W        W88948  18.031  30.569  14.236
15881W        W88949  29.472  27.365  13.284
15882W        W88950  36.328  16.480   2.878
15883W        W88951  23.993  43.018   0.459
15884W        W88952  36.033  19.995   3.842
15885W        W88953   7.329  35.736   0.622
15886W        W88954  31.938  25.001   2.334
15887W        W88955  32.126  42.330  12.369
15888W        W88956   6.850  12.384  14.413
15889W        W88957   3.952  24.252  12.051
15890W        W88958  34.995  12.561  12.042
15891W        W88959  40.882  44.902  10.734
15892W        W88960   7.226   7.413  13.590
15893W        W88961   3.716  41.471  11.912
15894W        W88962  35.765   5.438   4.111
15895W        W88963  42.975   0.301  14.757
15896W        W88964  34.335   2.268  13.898
15897W        W88965  36.141   9.919  13.440
15898W        W88966  37.094  30.677  13.000
15899W        W88967  24.498  43.676  12.501
15900W        W88968  36.404  40.970  12.663
15901W        W88969  41.398  43.758  13.955
15902W        W88970   2.741  26.293  14.397
15903W        W88971  19.333  32.090   0.828
15904W        W88972  34.881  41.904  12.986
15905W        W88973   6.789  42.533  12.525
15906W        W88974   6.302  44.040   1.446
15907W        W88975  13.699  28.128   2.454
15908W        W88976  30.530  20.499  12.957
15909W        W88977  28.558   4.884   4.690
15910W        W88978  25.164  42.993   2.308
15911W        W88979  33.702  29.178   2.220
15912W        W88980  11.872   8.926  10.735
15913W        W88981   6.052  21.770  13.912
15914W        W88982  24.200  10.296  13.130
15915W        W88983  24.212  39.078   1.324
15916W        W88984  15.379  22.983   4.625
15917W        W88985   9.292  30.863   4.430
15918W        W88986  38.291   3.376   3.644
15919W        W88987  36.021  14.093  14.817
15920W        W88988  17.575  40.487   3.403
15921W        W88989  27.901   6.985  12.622
15922W        W88990  18.565  39.063  11.554
15923W        W88991  28.345  17.818  11.061
15924W        W88992  29.944  23.577   3.653
15925W        W88993  44.830  27.112  13.865
15926W        W88994  31.896  26.865  13.678
15927W        W88995  21.700  15.728   1.374
15928W        W88996  27.567  27.271   3.721
15929W        W88997  30.582   3.990   4.663
15930W        W88998  31.409   5.592  14.899
15931W        W88999  29.495  21.643   4.411
15932W        W89000  20.759  24.019   1.384
15933W        W89001  37.969   0.575   4.918
15934W        W89002  38.488  33.826  14.838
15935W        W89003  25.922   0.657  12.634
15936W        W89004  12.243  43.418   2.700
15937W        W89005   1.961   7.151  10.743
15938W        W89006  13.554  37.653  12.132
15939W        W89007  23.290  17.819  10.652
15940W        W89008  12.827  28.104   0.072
15941W        W89009   0.712  41.600  11.153
15942W        W89010  18.652  33.202  11.953
15943W        W89011  14.932   9.681  10.737
15944W        W89012  28.340  28.354   3.894
15945W        W89013  40.052   5.800   3.839
15946W        W89014  26.960  41.942  13.044
15947W        W89015  18.786   4.703   1.881
15948W        W89016  28.558  28.249  13.498
15949W        W89017  20.573  35.984   1.958
15950W        W89018  27.122   8.338   2.285
15951W        W89019  23.880  31.041  13.018
15952W        W89020   5.439  17.035   0.004
15953W        W89021  19.462  14.820   0.724
15954W        W89022   1.915  25.110  12.391
15955W        W89023  38.886  36.146  12.117
15956W        W89024  16.057  12.360  11.463
15957W        W89025  12.174  17.707   0.121
15958W        W89026  10.369  16.211   1.678
15959W        W89027   0.264  18.061  12.542
15960W        W89028   0.190   4.875   0.323
15961W        W89029  19.085  20.262  13.926
15962W        W89030  39.645  17.666  11.626
15963W        W89031   3.311   2.919  12.416
15964W        W89032  32.976  21.524   3.215
15965W        W89033  12.536  12.314   4.611
15966W        W89034  24.975  24.730  12.920
15967W        W89035   1.049  22.067   1.804
15968W        W89036   7.224  42.256   3.385
15969W        W89037  37.182  38.791  14.199
15970W        W89038  23.730  11.327   0.678
15971W        W89039  44.505  21.419  12.882
15972W        W89040  33.104  23.998  14.437
15973W        W89041  41.255  25.724   0.809
15974W        W89042   2.930  22.504   4.870
15975W        W89043  43.210  18.698  13.824
15976W        W89044  42.577  39.756   0.524
15977W        W89045  25.471  14.627  12.809
15978W        W89046  30.331  36.131   2.576
15979W        W89047  42.846   3.380   1.181
15980W        W89048  35.438  35.629  14.843
15981W        W89049  37.221   8.357  12.494
15982W        W89050  39.910  35.538   4.711
15983W        W89051  28.393  13.669  10.688
15984W        W89052  29.589  31.597  14.241
15985W        W89053   4.215  10.262   1.366
15986W        W89054  36.886  16.042   5.035
15987W        W89055  32.696  13.298  11.200
15988W        W89056  35.542  37.566   0.867
15989W        W89057  16.056  12.577   3.340
15990W        W89058  36.937  37.293  10.151
15991W        W89059  29.860  18.191   0.236
15992W        W89060  28.386  15.226   3.296
15993W        W89061   7.546   4.731  12.542
15994W        W89062  21.444  20.066  14.452
15995W        W89063  37.435   1.676  11.529
15996W        W89064  29.659  19.026  14.033
15997W        W89065  15.811  15.414   1.683
15998W        W89066   1.958  12.686  13.986
15999W        W89067   0.234  38.022  12.156
16000W        W89068  21.915  29.651  10.696
16001W        W89069  44.773  16.551  10.765
16002W        W89070  26.670   8.205   0.521
16003W        W89071   7.174  43.103   3.728
16004W        W89072  22.047  39.260   2.673
16005W        W89073  18.871   7.186   4.098
16006W        W89074   9.794  12.884   2.084
16007W        W89075  33.133  35.401   2.020
16008W        W89076  24.825  33.071   0.277
16009W        W89077  16.772   5.109  14.288
16010W        W89078  44.393  21.581  14.713
16011W        W89079  39.893  29.584   1.757
16012W        W89080  38.260  41.273  14.566
16013W        W89081  16.101  44.855  12.836
16014W        W89082   4.117  21.435   0.677
16015W        W89083  13.257  15.364   0.072
16016W        W89084  34.693  13.447   1.439
16017W        W89085  39.896  23.320  14.932
16018W        W89086  23.607  43.800  14.541
16019W        W89087  41.261   8.457   0.950
16020W        W89088  17.715  42.983   0.678
16021W        W89089  30.076   5.701  14.502
16022W        W89090  41.351  17.979  11.519
16023W        W89091   3.254  40.019  11.974
16024W        W89092  27.738  19.650  14.010
16025W        W89093  37.884  40.580  12.536
16026W        W89094  37.984  17.302   4.960
16027W        W89095  13.290  24.145   4.199
16028W        W89096   2.721  13.220   0.910
16029W        W89097  37.998  14.395  11.509
16030W        W89098  26.677  38.341   3.086
16031W        W89099  35.654  12.174   1.213
16032W        W89100  18.298  21.981   0.527
16033W        W89101  19.054  44.322   2.763
16034W        W89102  35.527  18.537  10.746
16035W        W89103   3.404  41.407   1.624
16036W        W89104  17.680  16.347  11.826
16037W        W89105  24.537  39.549   0.496
16038W        W89106  36.618  36.567   1.779
16039W        W89107  43.766  20.286  12.105
16040W        W89108   1.702  31.033   1.712
16041W        W89109   2.392   9.092   0.725
16042W        W89110  19.687  21.202  11.541
16043W        W89111  20.684  15.845  12.472
16044W        W89112   2.526  36.527   2.983
16045W        W89113  41.516  19.080   3.351
16046W        W89114  22.130  44.996  11.500
16047W        W89115  12.913  44.431   2.201
16048W        W89116  30.691  36.014   1.454
16049W        W89117   4.475  17.271  10.501
16050W        W89118  11.543   5.464  12.465
16051W        W89119  37.213  36.403  12.563
16052W        W89120   1.320  32.666   2.198
16053W        W89121  20.542  44.417  14.951
16054W        W89122   2.074  19.239   1.899
16055W        W89123   7.078   3.142  14.294
16056W        W89124  17.776  32.597  10.500
16057W        W89125  11.802   4.834   0.279
16058W        W89126  32.154  12.587  10.818
16059W        W89127  34.931  18.230  13.552
16060W        W89128   1.379  12.102   4.826
16061W        W89129  31.176  11.705  14.424
16062W        W89130  12.813  44.560  14.816
16063W        W89131  28.040  10.931   2.240
16064W        W89132  43.953  13.855  13.173
16065W        W89133  36.339  28.630  12.984
16066W        W89134  27.668  44.737  12.010
16067W        W89135  44.165  26.567   2.759
16068W        W89136  35.383  11.339  14.806
16069W        W89137  23.878  29.007  12.819
16070W        W89138   2.380   7.519   1.536
16071W        W89139  41.554   0.985  14.262
16072W        W89140   1.541   5.234  12.151
16073W        W89141   5.214  37.553  11.935
16074W        W89142  44.771  20.113   4.656
16075W        W89143  20.037  34.793   0.363
16076W        W89144  31.277  30.871   4.734
16077W        W89145   7.441  27.490   3.585
16078W        W89146  28.930  32.520   3.863
16079W        W89147  18.348   4.694   0.017
16080W        W89148  43.500  42.893  10.796
16081W        W89149  27.979  26.119   2.168
16082W        W89150  34.127  31.885  11.537
16083W        W89151  18.106  29.930   1.235
16084W        W89152  37.680   0.218   3.129
16085W        W89153   7.737   7.870   4.105
16086W        W89154  37.414  17.121   2.759
16087W        W89155   4.121   3.498   0.381
16088W        W89156  13.895   8.790  14.069
16089W        W89157  35.872  29.171   4.185
16090W        W89158   7.637  42.390   1.948
16091W        W89159  41.046  16.324   4.021
16092W        W89160  40.589   4.311   2.583
16093W        W89161   3.540  15.124   2.581
16094W        W89162  26.744   1.430   2.870
16095W        W89163  28.678   3.731   2.772
16096W        W89164  24.257  13.906   4.160
16097W        W89165   4.696  27.041   0.448
16098W        W89166  12.876  31.653  10.816
16099W        W89167  42.636   0.361  12.626
16100W        W89168  38.861  27.535  13.908
16101W        W89169  26.526  32.135  14.410
16102W        W89170  11.636  41.295   3.161
16103W        W89171  25.767  13.467  11.382
16104W        W89172   6.981  24.200  12.489
16105W        W89173  35.726  13.048   1.373
16106W        W89174  30.878  41.381   2.253
16107W        W89175  26.400  26.047  11.954
16108W        W89176   9.923  30.953   3.587
16109W        W89177  43.392  15.835  12.880
16110W        W89178   2.994   1.007   0.859
16111W        W89179   8.811  22.484  11.019
16112W        W89180  12.066   4.115  12.085
16113W        W89181  11.698  41.603  10.735
16114W        W89182  33.392  22.724  11.505
16115W        W89183   0.718  23.513  11.613
16116W        W89184  29.833  39.545   3.585
16117W        W89185  37.965  18.271   1.663
16118W        W89186  11.983  31.840   4.486
16119W        W89187  17.889  10.335   3.710
16120W        W89188  43.536  15.183  10.357
16121W        W89189   6.797  26.312  13.929
16122W        W89190  20.662  43.919   0.760
16123W        W89191  23.894  42.081  13.745
16124W        W89192  23.651   7.874  12.474
16125W        W89193  21.112  44.858  14.008
16126W        W89194  22.497   6.312   1.695
16127W        W89195  33.893   4.973   1.423
16128W        W89196  26.854  41.347  12.004
16129W        W89197  12.595   6.786  14.056
16130W        W89198   8.643  11.262  12.103
16131W        W89199   3.524  24.198   4.127
16132W        W89200  30.935  42.019   1.852
16133W        W89201  22.740  41.323   9.976
16134W        W89202   0.252  23.097   3.664
16135W        W89203  29.120  23.635  13.068
16136W        W89204   8.899  19.615  14.447
16137W        W89205  23.017  22.750  10.784
16138W        W89206   5.753  15.679  11.611
16139W        W89207  28.493  17.306   0.805
16140W        W89208  18.725   4.732  14.676
16141W        W89209  15.557   3.914   1.382
16142W        W89210  16.535  34.589  11.099
16143W        W89211  19.112  36.368  14.543
16144W        W89212  13.857  34.841  11.582
16145W        W89213  31.861  14.794  11.260
16146W        W89214   2.408  36.956   3.673
16147W        W89215   4.924  24.867  10.669
16148W        W89216   5.306  23.118  14.303
16149W        W89217  38.385  32.862   4.678
16150W        W89218   9.465  31.444   2.900
16151W        W89219  31.615  11.674  11.612
16152W        W89220  39.500  40.858   3.795
16153W        W89221  25.709  44.039   5.040
16154W        W89222  27.462  27.524   4.509
16155W        W89223  23.544  10.249   1.499
16156W        W89224  42.182  10.415  12.316
16157W        W89225  29.776  29.886  11.456
16158W        W89226  29.139  37.591   0.791
16159W        W89227   7.234   3.280   3.881
16160W        W89228  40.730  39.950   1.879
16161W        W89229  33.261  21.749  14.437
16162W        W89230   1.972  25.172   3.072
16163W        W89231   7.854  18.095  12.576
16164W        W89232  26.429  13.789  13.840
16165W        W89233  15.289  30.558   2.280
16166W        W89234  21.619  26.506  13.381
16167W        W89235  23.246   4.827  12.053
16168W        W89236  35.013  22.418  13.653
16169W        W89237  40.628   7.780   2.900
16170W        W89238  13.135  41.414  12.363
16171W        W89239  20.486  20.350   1.833
16172W        W89240  39.402  26.165  14.026
16173W        W89241   3.735  12.892   0.911
16174W        W89242  13.154  28.566   1.354
16175W        W89243   9.683   3.732  12.077
16176W        W89244   2.281  15.174  13.335
16177W        W89245   7.893  34.382   2.714
16178W        W89246  12.887  12.195   2.228
16179W        W89247   8.701  19.881  14.027
16180W        W89248  33.610  26.483  10.755
16181W        W89249  17.283  41.944  13.500
16182W        W89250  12.896   3.586   3.263
16183W        W89251   3.709  26.439  14.787
16184W        W89252  20.817  42.869  12.186
16185W        W89253  12.256  26.476  12.467
16186W        W89254  40.258  10.472   2.345
16187W        W89255  44.204   4.933  14.451
16188W        W89256   5.858  40.106  14.006
16189W        W89257  34.436  16.306   0.484
16190W        W89258  31.288  38.690  12.465
16191W        W89259  28.130  41.444   2.667
16192W        W89260  12.156   1.327   1.710
16193W        W89261  22.814   8.260   4.563
16194W        W89262   3.996  43.833  14.829
16195W        W89263  17.928  32.134  10.695
16196W        W89264  10.636  26.817  14.853
16197W        W89265  20.555  27.519  10.422
16198W        W89266   3.456  24.542   4.555
16199W        W89267  34.931   0.703  11.917
16200W        W89268  17.613  10.301   4.598
16201W        W89269  43.930  12.362  13.914
16202W        W89270  12.273  40.721  11.580
16203W        W89271   3.239  19.174   0.909
16204W        W89272  11.159  41.410   3.873
16205W        W89273  27.576  44.350   0.153
16206W        W89274  33.419   1.850   2.857
16207W        W89275  27.038  25.689   4.521
16208W        W89276   9.293  34.679  12.610
16209W        W89277  36.967  16.672   1.168
16210W        W89278  22.228  37.449   0.156
16211W        W89279  26.702  16.761  13.926
16212W        W89280  28.581  21.166  12.049
16213W        W89281  26.855  11.707  12.458
16214W        W89282   2.391  23.802   4.758
16215W        W89283   8.368  20.089  12.159
16216W        W89284  14.055   5.237  11.724
16217W        W89285   2.732  27.732   2.700
16218W        W89286  17.676   6.225   3.572
16219W        W89287  11.225  23.692  12.344
16220W        W89288  36.035   0.902  12.963
16221W        W89289  24.767  38.586  11.580
16222W        W89290  14.282  20.829   1.316
16223W        W89291  41.360  17.606   1.476
16224W        W89292  11.116  22.835   0.027
16225W        W89293  27.650  24.495  10.738
16226W        W89294  44.169   3.313   0.797
16227W        W89295  39.783  16.441   1.153
16228W        W89296  44.499  38.531  14.763
16229W        W89297  25.602  43.545   0.788
16230W        W89298  17.275  34.473  12.909
16231W        W89299   8.563  28.012  12.333
16232W        W89300   1.364   3.369   4.412
16233W        W89301  33.498  15.313   1.936
16234W        W89302  32.420  15.083  13.560
16235W        W89303  23.738   5.373   3.275
16236W        W89304   2.784  24.588   0.146
16237W        W89305  28.581  43.330  11.620
16238W        W89306   5.329  23.000   0.914
16239W        W89307  14.727   5.451  13.483
16240W        W89308  33.019  24.905   4.598
16241W        W89309  41.995  19.957  13.312
16242W        W89310  25.144  29.347  13.396
16243W        W89311  31.033  33.322  14.990
16244W        W89312   3.539   4.844   1.928
16245W        W89313   0.842  10.862  14.343
16246W        W89314  33.870   9.365  11.918
16247W        W89315   3.843  25.986   0.952
16248W        W89316  43.595  32.663  12.911
16249W        W89317  40.821   4.684   2.870
16250W        W89318  35.187  42.925   4.167
16251W        W89319  11.904  30.548   4.810
16252W        W89320  41.392  39.055  10.700
16253W        W89321  29.038  13.097   2.169
16254W        W89322  19.859  18.746  13.905
16255W        W89323  28.330  32.882  11.095
16256W        W89324  35.462  19.596   3.171
16257W        W89325  16.202   6.754   1.457
16258W        W89326  43.441  42.964  12.680
16259W        W89327  26.995  20.726   3.094
16260W        W89328   0.501   5.420  12.835
16261W        W89329  40.037  41.895  12.522
16262W        W89330  29.334  42.046  11.478
16263W        W89331  23.915  42.479  13.337
16264W        W89332  44.384  32.631  13.027
16265W        W89333  42.014  26.525  11.052
16266W        W89334  31.623  14.266  11.996
16267W        W89335  20.282   0.854  10.761
16268W        W89336   1.770  29.519   0.040
16269W        W89337  14.308  40.921  11.031
16270W        W89338  26.383  32.576  11.993
16271W        W89339   9.672  35.517  12.466
16272W        W89340   9.221  32.475  13.023
16273W        W89341  24.599   8.119   3.902
16274W        W89342  22.445   6.669  12.542
16275W        W89343  41.964   9.730  11.630
16276W        W89344   3.362  41.325  14.317
16277W        W89345   4.417  17.194   3.173
16278W        W89346  32.680  13.254   4.758
16279W        W89347  38.860   2.784   4.183
16280W        W89348  13.605   3.236   5.044
16281W        W89349  13.383  41.865  12.414
16282W        W89350  23.668  42.257  10.655
16283W        W89351  30.427   8.649   3.295
16284W        W89352  19.631  43.395   4.019
16285W        W89353  35.686   9.844  12.667
16286W        W89354  17.131  32.480  11.649
16287W        W89355  42.847   4.769   4.373
16288W        W89356  43.027  29.448   4.447
16289W        W89357  11.609  26.516   0.659
16290W        W89358  23.620  39.992  12.584
16291W        W89359  15.082  18.225   4.137
16292W        W89360   7.905  29.516   3.445
16293W        W89361   1.218  32.577  12.292
16294W        W89362  17.792   9.984   2.318
16295W        W89363  29.650  22.949   4.637
16296W        W89364   2.958   9.626  12.302
16297W        W89365  44.728   5.467   2.926
16298W        W89366  23.755  41.267   4.890
16299W        W89367  22.541  30.021   2.718
16300W        W89368  12.369  26.509   0.336
16301W        W89369  17.037  34.615   4.660
16302W        W89370  28.405   1.507   4.227
16303W        W89371  33.718  31.682   3.178
16304W        W89372  15.911   8.471  14.856
16305W        W89373  26.835  29.163  13.496
16306W        W89374  19.453  29.202  11.024
16307W        W89375   5.253  30.957  12.606
16308W        W89376  15.254  15.557   2.238
16309W        W89377  32.276   4.764  11.927
16310W        W89378  44.981  29.020   0.304
16311W        W89379   7.352  23.472   3.585
16312W        W89380   2.262  24.680  14.964
16313W        W89381  17.861  17.082  14.971
16314W        W89382  40.280  44.387  13.116
16315W        W89383  26.616  34.416  12.266
16316W        W89384  10.816   1.996   2.367
16317W        W89385   3.739   1.649  12.595
16318W        W89386  31.611  10.886  11.046
16319W        W89387  24.139  38.482   5.241
16320W        W89388   0.985   7.299  13.955
16321W        W89389  26.554  43.984   4.940
16322W        W89390  22.512  22.979  13.394
16323W        W89391  12.578   4.811  13.524
16324W        W89392  22.063  27.277  10.654
16325W        W89393  26.199  38.337  12.623
16326W        W89394  12.894  18.555   4.143
16327W        W89395   3.763   2.316   1.758
16328W        W89396  36.281  34.830   4.165
16329W        W89397   2.092   4.383   0.421
16330W        W89398  37.771  43.717  13.943
16331W        W89399  26.206  37.280  10.921
16332W        W89400  36.408  23.070   1.008
16333W        W89401   0.228  36.997  14.929
16334W        W89402  23.659  20.306   2.370
16335W        W89403   3.238  36.991  10.704
16336W        W89404   0.975  24.548   2.189
16337W        W89405  44.270  35.202   2.685
16338W        W89406  28.080  37.937   5.105
16339W        W89407  33.149  37.010   1.857
16340W        W89408   5.466  36.317   4.249
16341W        W89409  22.032  39.459   1.750
16342W        W89410  43.535  38.520  12.950
16343W        W89411  29.010   3.220   0.504
16344W        W89412   3.721  41.327   4.206
16345W        W89413  20.785   3.846   0.246
16346W        W89414  17.574  20.584   0.254
16347W        W89415  28.367  21.188  11.545
16348W        W89416  18.045  27.541  12.509
16349W        W89417  22.497  39.445   1.317
16350W        W89418   9.337  34.420  11.203
16351W        W89419   7.745  31.935  14.044
16352W        W89420  22.670   9.722   2.236
16353W        W89421  32.473  23.084   2.927
16354W        W89422  20.812  14.110  14.025
16355W        W89423   1.119  17.010   2.623
16356W        W89424   8.122  23.557   1.140
16357W        W89425  11.515  20.592   0.276
16358W        W89426  31.155  24.531  13.437
16359W        W89427  17.538  25.001   0.097
16360W        W89428  23.812   3.187   4.625
16361W        W89429  29.628  44.354   3.204
16362W        W89430  11.914  33.010  10.446
16363W        W89431  26.931  11.201   1.765
16364W        W89432  35.304   1.684   1.798
16365W        W89433  28.623  18.812  14.750
16366W        W89434  16.235  42.612  10.774
16367W        W89435  38.274  33.628   1.241
16368W        W89436  31.004  24.566  11.639
16369W        W89437  26.411  27.034   1.804
16370W        W89438   2.685   5.891  14.215
16371W        W89439  13.662   5.791   0.313
16372W        W89440  15.789  35.499   2.666
16373W        W89441  36.565   6.998   4.537
16374W        W89442  27.167   2.318   4.762
16375W        W89443  30.584  28.655  14.381
16376W        W89444  32.072  39.029   4.548
16377W        W89445  21.195  33.992   2.931
16378W        W89446  15.815  19.356  12.967
16379W        W89447  24.647  10.327   3.914
16380W        W89448  22.283   9.037   2.674
16381W        W89449  42.365  40.919  11.410
16382W        W89450  30.417  31.635  12.958
16383W        W89451  34.457  16.769  11.925
16384W        W89452  29.080  35.344  11.777
16385W        W89453  22.323  24.667   3.666
16386W        W89454  17.572  26.195   3.577
16387W        W89455  10.891  36.925  14.619
16388W        W89456  37.835  25.483   3.226
16389W        W89457  15.641  33.061   4.587
16390W        W89458  39.184   0.415  10.315
16391W        W89459  27.638  14.848   2.839
16392W        W89460  24.217  15.444   3.570
16393W        W89461   8.706  40.776  11.088
16394W        W89462  44.491   1.166   2.421
16395W        W89463  37.926  30.127  11.499
16396W        W89464  40.050  37.585  13.148
16397W        W89465  39.842   1.812  13.046
16398W        W89466  25.732  21.652   2.202
16399W        W89467   3.779   3.564   4.475
16400W        W89468  11.547  22.073   3.354
16401W        W89469  31.125  18.963   4.162
16402W        W89470   4.990  41.954   2.246
16403W        W89471  22.664  40.374  14.926
16404W        W89472  12.047  24.406  12.671
16405W        W89473  24.781  44.770   4.657
16406W        W89474   3.742  24.054  10.784
16407W        W89475  28.527  16.470  12.999
16408W        W89476  33.409  34.626   5.302
16409W        W89477  33.361  24.668   3.785
16410W        W89478  43.170  24.974   1.555
16411W        W89479  19.306  36.747  11.214
16412W        W89480  36.627  21.019  10.741
16413W        W89481  13.778  25.861  11.618
16414W        W89482   0.861   4.018  12.282
16415W        W89483   6.797  40.398  12.389
16416W        W89484  43.098  37.051  13.537
16417W        W89485  40.576  13.983   5.324
16418W        W89486  39.489  26.204   0.015
16419W        W89487   3.268  21.189   2.400
16420W        W89488  41.894  37.882   0.826
16421W        W89489   4.233  31.798  13.982
16422W        W89490  16.480  17.266  11.042
16423W        W89491  15.968   0.516   0.137
16424W        W89492  38.502   4.526  12.941
16425W        W89493  36.221   4.832   3.949
16426W        W89494   9.865  41.948  14.529
16427W        W89495  14.133  44.899   2.567
16428W        W89496   7.888  20.744  14.362
16429W        W89497  14.179   5.710   0.436
16430W        W89498   7.300  31.621   1.320
16431W        W89499  19.175   7.778   3.701
16432W        W89500  36.743  39.974   2.093
16433W        W89501  33.034   2.395  10.584
16434W        W89502   3.636  34.173  12.505
16435W        W89503   7.135  22.535  11.534
16436W        W89504  28.131  31.168   1.879
16437W        W89505  19.577  25.639   4.040
16438W        W89506  23.740   4.677  11.199
16439W        W89507   6.363  18.006  14.128
16440W        W89508   8.942  44.020   4.921
16441W        W89509  12.641   2.814  10.831
16442W        W89510  20.022   7.330  10.883
16443W        W89511  28.437   2.014   4.289
16444W        W89512  35.154  44.129   4.167
16445W        W89513  17.776  10.650   3.143
16446W        W89514  39.018  31.158   5.013
16447W        W89515  13.126  34.093   3.221
16448W        W89516   8.103  11.259   3.711
16449W        W89517  25.071   6.740  10.637
16450W        W89518  43.796  35.349   2.855
16451W        W89519   2.800  15.212  13.372
16452W        W89520   0.980  31.286   0.071
16453W        W89521   7.729  44.292   3.685
16454W        W89522  35.806  40.042   2.208
16455W        W89523  39.726   9.303   0.812
16456W        W89524   4.090  10.720  11.102
16457W        W89525  20.008  10.529   1.156
16458W        W89526  11.361  11.792  12.892
16459W        W89527  22.686  16.595   1.797
16460W        W89528  21.517  35.339   0.429
16461W        W89529  37.356   6.868  14.481
16462W        W89530  32.610   3.717   3.705
16463W        W89531   4.168   5.269   0.431
16464W        W89532  36.556  23.417   0.233
16465W        W89533   6.198  19.239  10.023
16466W        W89534   5.813  44.306   2.599
16467W        W89535  35.817  17.450   5.034
16468W        W89536  28.421  28.128   2.670
16469W        W89537  26.944  12.403   0.966
16470W        W89538  14.803  43.363  11.197
16471W        W89539  17.832  18.664   0.246
16472W        W89540   5.256  41.064  10.786
16473W        W89541  31.121   9.662  13.320
16474W        W89542  44.322  33.621  13.434
16475W        W89543  37.196  26.677   1.735
16476W        W89544  40.893  16.704  10.688
16477W        W89545   9.931  23.992  11.962
16478W        W89546   0.484  41.676   3.706
16479W        W89547  30.461   9.131   1.291
16480W        W89548  29.571  28.064  13.869
16481W        W89549  34.181   6.662   0.460
16482W        W89550  29.011  20.627  13.380
16483W        W89551  24.256  27.992   1.730
16484W        W89552  28.200  41.796   2.269
16485W        W89553  29.428  24.588  12.817
16486W        W89554  33.330  15.676  14.863
16487W        W89555  42.449  24.969   3.651
16488W        W89556  34.853  27.359   0.836
16489W        W89557  19.798  33.312  13.791
16490W        W89558  42.412  27.922  13.272
16491W        W89559  21.230  12.642  13.467
16492W        W89560  11.382  30.603   4.815
16493W        W89561   2.602  25.069   4.154
16494W        W89562  25.879  26.191   2.808
16495W        W89563  41.050  41.711   2.798
16496W        W89564  36.298  32.187   4.520
16497W        W89565  23.255  34.168   2.151
16498W        W89566  36.007  35.866   0.824
16499W        W89567  13.332  42.931  11.535
16500W        W89568  42.060  43.440   0.960
16501W        W89569  13.356  41.122   1.751
16502W        W89570  11.283  27.683  11.415
16503W        W89571   7.174  15.521   0.860
16504W        W89572  37.615  44.899   3.619
16505W        W89573  44.757  43.507   4.280
16506W        W89574  31.221  31.385   0.537
16507W        W89575  43.847  35.452   1.369
16508W        W89576   2.861  18.144   1.754
16509W        W89577   5.845   7.427   3.165
16510W        W89578  20.655  33.155   3.582
16511W        W89579  31.594  20.081   4.849
16512W        W89580  13.071   6.726   0.293
16513W        W89581  25.363  18.085   3.349
16514W        W89582  41.089   0.690  11.959
16515W        W89583  11.441  40.303   4.851
16516W        W89584   9.682  37.435  14.922
16517W        W89585  14.419   1.459  14.964
16518W        W89586  21.183  39.313   3.912
16519W        W89587   3.317   8.602   0.414
16520W        W89588  32.162   8.999   3.654
16521W        W89589  41.958  44.998   3.177
16522W        W89590  20.066  41.955   0.780
16523W        W89591  37.461  17.578   1.785
16524W        W89592  16.159  33.462  13.909
16525W        W89593   1.460   3.944  12.472
16526W        W89594  27.127  18.445  12.390
16527W        W89595   1.011  24.990  12.084
16528W        W89596   3.500  14.157  14.376
16529W        W89597  16.713  22.160   2.838
16530W        W89598  24.588  25.592   4.371
16531W        W89599  32.965  41.414   3.027
16532W        W89600  18.149  21.042   1.476
16533W        W89601  15.659  14.000  14.333
16534W        W89602  14.865   7.976  10.775
16535W        W89603   4.930   7.091  14.277
16536W        W89604  27.999  24.502   0.750
16537W        W89605   5.160  44.983   3.783
16538W        W89606   2.500  36.986   1.758
16539W        W89607  40.176   6.178   5.357
16540W        W89608   9.158  10.623  14.125
16541W        W89609  43.805   7.113   1.196
16542W        W89610   9.421  25.518  13.608
16543W        W89611  11.289   5.390  14.889
16544W        W89612  41.340  33.015   2.727
16545W        W89613  22.832  32.890  11.592
16546W        W89614  18.862   4.650   3.285
16547W        W89615  26.597   7.575   4.893
16548W        W89616  25.775  38.891  14.307
16549W        W89617  22.895   6.862  11.143
16550W        W89618  39.437   7.099  13.414
16551W        W89619  16.947   5.343   2.415
16552W        W89620   2.720  25.032  12.918
16553W        W89621   2.440  10.318  14.390
16554W        W89622  13.013  14.259   3.191
16555W        W89623  13.364  27.682   1.791
16556W        W89624  38.157   0.721   1.653
16557W        W89625   2.017  22.118  12.996
16558W        W89626  29.052  13.325  12.442
16559W        W89627  34.334  36.886  13.020
16560W        W89628   6.707   1.020   1.488
16561W        W89629  12.613  42.910   3.806
16562W        W89630  27.464  39.440  11.679
16563W        W89631  40.894   9.589  12.036
16564W        W89632  26.556  34.205  10.762
16565W        W89633  11.085   7.038  11.198
16566W        W89634  17.113   1.714  11.643
16567W        W89635  18.967  16.761  11.635
16568W        W89636  38.464  16.146   4.547
16569W        W89637   3.332  14.463  11.933
16570W        W89638  39.018  26.727  13.324
16571W        W89639  17.504   6.101  10.985
16572W        W89640  42.041   8.396   3.812
16573W        W89641  10.270  31.923   5.138
16574W        W89642  27.469  11.244  11.131
16575W        W89643  24.149  21.143   3.230
16576W        W89644   1.972  29.906   1.449
16577W        W89645  15.294  26.524  10.785
16578W        W89646  28.385  38.920   3.439
16579W        W89647   4.490  40.938   3.278
16580W        W89648   6.822  27.565  11.618
16581W        W89649  39.000  40.660   4.153
16582W        W89650  28.183  40.791   2.175
16583W        W89651  26.055   4.927  11.134
16584W        W89652  32.411  17.580  13.391
16585W        W89653  37.411  26.237   1.935
16586W        W89654  42.076  31.463   4.099
16587W        W89655  23.304  10.105  13.816
16588W        W89656   2.960  41.379   2.147
16589W        W89657  38.371  39.808   0.807
16590W        W89658  39.634   4.827   3.312
16591W        W89659  26.455   3.118  14.498
16592W        W89660  21.628   5.291   1.018
16593W        W89661  38.962  25.671   0.302
16594W        W89662   0.475  39.268  11.122
16595W        W89663   7.489  10.812   4.050
16596W        W89664  22.558  16.261   3.820
16597W        W89665   7.954  20.052  10.983
16598W        W89666  33.526  36.031  11.494
16599W        W89667  15.744   6.743  14.227
16600W        W89668  25.939   7.008  14.299
16601W        W89669  42.583  24.108  11.418
16602W        W89670  31.618  36.790  11.081
16603W        W89671  40.499  11.779  11.921
16604W        W89672  36.413  35.164   3.741
16605W        W89673  10.782  35.472  11.693
16606W        W89674  41.391   4.343  12.381
16607W        W89675  26.591   0.089  14.760
16608W        W89676  24.477  21.391   2.329
16609W        W89677  30.543  20.970  12.167
16610W        W89678  38.073   8.576  12.355
16611W        W89679  13.086  22.630  13.078
16612W        W89680  31.127  40.002   0.334
16613W        W89681  26.967  28.673  13.339
16614W        W89682  24.011  12.547   4.537
16615W        W89683  43.089   7.843   0.903
16616W        W89684   3.956  21.992   0.394
16617W        W89685  39.604  33.016  11.665
16618W        W89686  27.170   1.030  12.141
16619W        W89687   7.211  36.764   0.758
16620W        W89688  14.998  35.709   3.137
16621W        W89689  27.034  26.267  11.744
16622W        W89690  11.929  36.930  14.506
16623W        W89691  25.278   0.591  11.471
16624W        W89692   7.940  43.993   2.828
16625W        W89693  22.469   6.169  12.070
16626W        W89694   2.873  15.717   4.187
16627W        W89695   9.930   5.270  13.460
16628W        W89696  30.782  11.912   4.226
16629W        W89697  42.283  13.250   3.821
16630W        W89698  10.763  14.596   2.740
16631W        W89699  15.223  12.708  12.345
16632W        W89700  33.806  29.600   4.421
16633W        W89701  16.147  20.526  14.974
16634W        W89702  18.815   8.214   3.311
16635W        W89703  19.802  42.375   1.813
16636W        W89704  41.254  23.999  11.081
16637W        W89705  28.207  40.306  12.959
16638W        W89706  37.693  16.586  11.117
16639W        W89707  21.402   5.745  12.492
16640W        W89708  29.888  38.977  10.673
16641W        W89709   6.191  31.152  12.974
16642W        W89710  41.339   0.330  13.568
16643W        W89711  40.353  20.630  10.969
16644W        W89712  34.898  12.267  12.522
16645W        W89713  16.858  18.260   5.055
16646W        W89714  14.755  44.824  14.022
16647W        W89715   3.411   6.132   3.583
16648W        W89716  38.246  29.518   0.015
16649W        W89717  16.620  28.414  10.640
16650W        W89718   5.744  28.697   3.838
16651W        W89719  35.587  10.693  12.124
16652W        W89720  26.935   5.688  13.380
16653W        W89721  14.813  21.168   0.726
16654W        W89722  41.325  15.918  13.481
16655W        W89723  11.559   2.788  13.617
16656W        W89724  44.441  44.934   0.309
16657W        W89725   7.815  15.634   3.049
16658W        W89726  25.451  25.574  14.780
16659W        W89727  12.192   7.825   3.241
16660W        W89728  35.650  35.478   0.768
16661W        W89729  36.675   9.130  12.576
16662W        W89730  42.448  11.349  11.240
16663W        W89731   1.471  38.973   3.834
16664W        W89732  38.130  18.687   3.762
16665W        W89733  31.003  31.892  13.587
16666W        W89734  18.893  12.145   2.840
16667W        W89735   2.762  36.871   2.204
16668W        W89736  42.824   3.896   1.108
16669W        W89737  33.533  11.698  14.992
16670W        W89738  15.087  29.685   1.817
16671W        W89739  34.560  43.094   1.708
16672W        W89740  19.280  32.536  12.828
16673W        W89741  18.069  23.935  14.331
16674W        W89742   1.943  23.164  13.054
16675W        W89743  24.603  19.237  10.477
16676W        W89744   2.518  35.762   0.968
16677W        W89745  32.141  17.536  12.944
16678W        W89746   3.778  44.788  11.590
16679W        W89747  31.840  34.751   0.776
16680W        W89748  32.021  12.635   0.503
16681W        W89749  18.569  11.834   1.739
16682W        W89750   5.237   4.632   1.280
16683W        W89751  29.567  20.190  13.420
16684W        W89752  29.332  17.788  11.232
16685W        W89753  14.570  14.264   3.344
16686W        W89754  37.399  21.784  13.464
16687W        W89755  43.487  24.617  14.743
16688W        W89756  13.275   2.975   3.937
16689W        W89757  28.793  33.859   0.871
16690W        W89758  22.144   6.248  12.485
16691W        W89759  37.266  21.184  12.358
16692W        W89760  22.491  23.028   0.824
16693W        W89761  26.103  40.492   0.884
16694W        W89762  29.218  41.990   2.304
16695W        W89763   8.559   9.526  12.051
16696W        W89764   2.140   3.832  11.153
16697W        W89765  28.355  43.720   0.840
16698W        W89766  26.923   6.747  14.278
16699W        W89767  26.697   1.459  11.609
16700W        W89768  18.252  16.393  11.138
16701W        W89769  35.769   5.692  13.541
16702W        W89770  19.799  15.151  12.007
16703W        W89771  42.223  40.391  11.197
16704W        W89772   6.244  30.276   0.022
16705W        W89773  42.805   8.445  11.673
16706W        W89774  43.032  23.976   2.681
16707W        W89775  33.839  31.056   1.432
16708W        W89776   9.588   1.792  10.033
16709W        W89777  24.994  24.395  13.986
16710W        W89778   2.318  30.833   0.454
16711W        W89779  15.345  40.014   4.593
16712W        W89780  20.607   2.825   4.021
16713W        W89781   4.291  16.050   0.656
16714W        W89782  21.093  29.194   4.605
16715W        W89783  28.843  18.569  10.750
16716W        W89784  38.871  23.502  12.508
16717W        W89785   9.169   6.100   2.252
16718W        W89786  14.624   6.269  10.261
16719W        W89787  18.412  26.955  13.070
16720W        W89788  37.213  39.018   0.211
16721W        W89789  21.089  44.465  12.758
16722W        W89790  27.082  10.937  11.070
16723W        W89791  20.297   7.574   2.838
16724W        W89792  35.986   2.760   0.819
16725W        W89793  40.889  36.957   2.687
16726W        W89794   3.265  14.751  10.641
16727W        W89795   5.375  41.795   0.504
16728W        W89796   6.839   9.394  13.442
16729W        W89797  21.148  22.521  12.816
16730W        W89798  42.054  21.703  11.247
16731W        W89799  32.292  19.959   0.391
16732W        W89800  11.148  17.141   1.303
16733W        W89801  30.937   1.970   0.954
16734W        W89802  27.042  28.955  12.893
16735W        W89803  43.071   9.849   3.827
16736W        W89804   3.162  14.071  13.907
16737W        W89805  39.829  31.449   0.534
16738W        W89806  23.743  22.321  12.901
16739W        W89807  28.865  25.923  14.457
16740W        W89808  31.656  39.505   3.713
16741W        W89809  16.624  32.446  13.379
16742W        W89810  38.907   6.407   2.546
16743W        W89811  28.127  14.218   9.991
16744W        W89812  43.457  11.817  11.143
16745W        W89813   7.835  21.841  13.428
16746W        W89814  14.519  24.452  14.886
16747W        W89815   6.361  41.612   2.170
16748W        W89816  40.774   4.195  13.017
16749W        W89817  18.256  15.030   0.549
16750W        W89818   7.125  34.339   2.524
16751W        W89819  41.946  17.530   0.289
16752W        W89820  16.558  11.800   3.733
16753W        W89821  11.659   9.524   4.199
16754W        W89822  44.554  17.274  14.531
16755W        W89823  25.600  13.845   4.314
16756W        W89824  27.865  11.075   1.735
16757W        W89825   9.102  34.058  11.549
16758W        W89826  35.146   3.506   2.956
16759W        W89827  12.277  18.937  10.873
16760W        W89828   0.186  27.383   1.866
16761W        W89829  17.963  31.472  14.731
16762W        W89830   5.500   2.801  10.767
16763W        W89831  30.047  34.484  14.992
16764W        W89832  43.512  14.603  13.350
16765W        W89833  13.665  10.858  14.480
16766W        W89834   4.727   0.561   3.748
16767W        W89835  38.387  13.117  13.998
16768W        W89836  15.541  35.564  10.903
16769W        W89837  43.437  15.854   0.743
16770W        W89838  42.965  36.136  14.217
16771W        W89839  20.266  36.985   2.167
16772W        W89840  34.022  44.313   3.631
16773W        W89841   0.965  32.545   1.750
16774W        W89842   4.816  34.039  13.012
16775W        W89843  17.458  21.120   2.269
16776W        W89844  17.241  30.223   3.237
16777W        W89845  11.120  38.627   1.288
16778W        W89846  38.363  17.331  13.838
16779W        W89847  30.412  29.090   2.173
16780W        W89848  14.352  28.338   4.067
16781W        W89849  35.412  31.834   3.720
16782W        W89850  37.587  42.375  14.340
16783W        W89851  33.480  11.343  12.060
16784W        W89852  21.591  27.572   2.816
16785W        W89853  41.756  35.881   0.784
16786W        W89854   6.677  38.820   0.425
16787W        W89855  12.917  11.424   3.213
16788W        W89856  10.238  16.392  14.859
16789W        W89857  43.512  29.014   0.085
16790W        W89858  40.014   1.055   3.810
16791W        W89859  15.924  25.455   3.835
16792W        W89860  37.110  22.944   3.386
16793W        W89861  15.437  17.584  13.878
16794W        W89862  22.956   7.339  12.672
16795W        W89863  19.976   5.393  11.970
16796W        W89864   7.730  14.375   1.458
16797W        W89865   6.836  39.296   2.245
16798W        W89866  17.272  41.939  12.140
16799W        W89867  17.263  27.578   1.480
16800W        W89868  18.205   7.873   3.774
16801W        W89869  23.686   2.314   1.716
16802W        W89870  27.862  43.486  14.448
16803W        W89871  29.395   1.429   3.732
16804W        W89872  29.922  28.304  10.819
16805W        W89873  27.037  23.287  10.914
16806W        W89874  32.440  36.461  14.400
16807W        W89875  20.746   2.461   2.745
16808W        W89876  39.431   5.391   0.953
16809W        W89877  16.608  25.010  10.753
16810W        W89878  39.423  33.153  13.129
16811W        W89879  39.120  39.053   3.318
16812W        W89880   9.226  14.056   2.688
16813W        W89881   2.742  44.750   0.376
16814W        W89882   9.277  30.080   4.919
16815W        W89883  13.838  15.582   2.326
16816W        W89884  23.728  30.368  14.926
16817W        W89885   0.854  31.969   0.719
16818W        W89886   3.408  42.896   0.910
16819W        W89887   8.503  15.237   2.865
16820W        W89888  34.846  31.004  12.302
16821W        W89889  30.455  13.235   0.073
16822W        W89890  14.616  43.305  11.698
16823W        W89891  20.745  15.091  12.917
16824W        W89892  33.340  31.586   2.241
16825W        W89893   0.437   9.628   4.142
16826W        W89894  27.912  18.182   0.803
16827W        W89895  11.832  20.425   2.319
16828W        W89896  34.558  12.431   0.322
16829W        W89897   7.324   4.764   4.336
16830W        W89898  30.209  14.026   0.288
16831W        W89899  25.018   1.292   4.268
16832W        W89900   1.706  17.272   4.649
16833W        W89901  19.295  20.879   1.841
16834W        W89902  17.002  29.044  12.622
16835W        W89903   6.436  13.884  12.636
16836W        W89904  41.152  35.116   2.906
16837W        W89905   4.848  25.899  10.550
16838W        W89906  33.737  36.570  11.869
16839W        W89907  10.236  25.902  13.303
16840W        W89908  37.955  35.972  13.123
16841W        W89909  18.262  40.939  10.550
16842W        W89910  23.965  37.908  14.869
16843W        W89911  15.083  30.483  13.513
16844W        W89912   9.140  11.303  10.777
16845W        W89913   0.967  35.335  12.511
16846W        W89914  10.848  31.612  11.975
16847W        W89915  11.214  37.278  13.825
16848W        W89916  36.203  22.572  10.702
16849W        W89917  22.680  37.853   2.865
16850W        W89918  17.315  29.446   0.467
16851W        W89919  39.027  23.989  12.480
16852W        W89920  23.787  31.914  13.873
16853W        W89921  14.966  20.540   2.829
16854W        W89922  21.782   0.578   0.810
16855W        W89923   6.934   9.898   0.968
16856W        W89924  38.915  40.482   3.678
16857W        W89925  18.775   2.521   3.875
16858W        W89926  35.989  41.216  14.293
16859W        W89927  14.420  18.846   0.298
16860W        W89928  31.429   6.254   1.180
16861W        W89929  32.536  32.124  14.480
16862W        W89930  24.192   5.756   2.098
16863W        W89931   9.052  39.958   3.710
16864W        W89932  15.344  16.625  10.718
16865W        W89933  20.031   5.772  13.886
16866W        W89934  30.216   2.895  10.664
16867W        W89935  21.273   3.296  10.393
16868W        W89936   4.040  35.616  10.896
16869W        W89937  14.269  39.805   1.314
16870W        W89938  36.548  32.265   1.311
16871W        W89939  33.461  19.640   0.786
16872W        W89940  21.054  12.447   1.773
16873W        W89941  41.405   0.918   1.745
16874W        W89942  18.596  43.055  14.421
16875W        W89943  29.899  29.741  12.612
16876W        W89944  35.418   9.878  10.791
16877W        W89945   6.975  37.021  12.159
16878W        W89946   4.429  41.415  11.691
16879W        W89947  16.420  14.650  14.370
16880W        W89948  30.748  26.114   1.439
16881W        W89949  30.126   8.272   1.283
16882W        W89950  42.186  18.592  11.612
16883W        W89951  34.762  42.945   4.985
16884W        W89952  11.294  43.412   0.512
16885W        W89953  24.032  17.982  12.535
16886W        W89954  21.472  17.671   3.720
16887W        W89955   1.280  16.706  10.698
16888W        W89956   5.441  25.110  14.895
16889W        W89957   9.263   6.449  13.913
16890W        W89958  39.600  44.960  13.019
16891W        W89959  18.073   8.245   2.986
16892W        W89960   9.017  27.464   0.428
16893W        W89961  35.518  33.464   2.249
16894W        W89962  17.477  37.762   0.418
16895W        W89963  17.209  16.124   4.560
16896W        W89964  26.528  10.691  14.480
16897W        W89965  27.501  10.773   4.573
16898W        W89966  39.808  43.009   3.771
16899W        W89967   0.377  34.433   0.189
16900W        W89968  10.993  24.386   1.312
16901W        W89969  21.649   8.377  11.937
16902W        W89970  37.181  34.586   4.380
16903W        W89971  40.457  28.458   4.202
16904W        W89972  19.218   8.284  12.507
16905W        W89973  27.059  16.233  12.039
16906W        W89974  29.615  24.579   2.787
16907W        W89975  32.913  21.451   4.060
16908W        W89976  20.754  28.124  14.011
16909W        W89977  35.927  44.845  12.849
16910W        W89978  37.567  35.886   0.776
16911W        W89979   9.040   5.166   2.859
16912W        W89980  34.020  11.285   2.778
16913W        W89981   9.684  24.442  12.601
16914W        W89982  33.903  33.024  13.382
16915W        W89983  43.741  31.428  12.618
16916W        W89984  23.731  27.465   3.151
16917W        W89985  31.536  34.665  12.127
16918W        W89986  32.478  34.067  14.016
16919W        W89987   5.857  34.131  12.817
16920W        W89988  35.973  22.744   0.260
16921W        W89989   6.484  26.261  13.429
16922W        W89990  22.204   4.179   0.457
16923W        W89991  32.757  43.482   1.797
16924W        W89992   5.918   5.166   2.882
16925W        W89993  44.130  32.497   4.539
16926W        W89994  32.553  43.888  12.873
16927W        W89995  26.462  29.485  12.359
16928W        W89996  42.910  36.184   2.749
16929W        W89997  32.675  11.103   3.975
16930W        W89998  18.979  32.999   2.267
16931W        W89999  12.542   7.301   1.371
16932W        W90000  21.546  24.708   4.380
16933W        W90001  11.778  31.904  11.781
16934W        W90002  19.793  14.233   3.609
16935W        W90003  23.264  35.627  11.053
16936W        W90004   9.913  17.384   0.801
16937W        W90005  36.056   8.381  12.186
16938W        W90006  43.062  25.873   0.854
16939W        W90007  11.738  32.526   3.908
16940W        W90008  30.721  37.651  11.991
16941W        W90009  16.265  44.238  11.474
16942W        W90010  14.837  14.060   0.745
16943W        W90011  32.958   7.229   4.873
16944W        W90012  26.578  21.978  11.151
16945W        W90013  16.212   4.375  10.260
16946W        W90014  37.111  14.655  14.026
16947W        W90015   1.001  42.662  14.716
16948W        W90016   9.075  15.070  11.860
16949W        W90017  28.683  28.366  11.940
16950W        W90018  17.584  17.300   2.819
16951W        W90019  22.808  31.940  10.718
16952W        W90020   6.773  43.113   4.688
16953W        W90021  32.155  19.351  12.904
16954W        W90022  27.617   3.888   1.735
16955W        W90023  42.080  10.399   2.142
16956W        W90024  22.318  15.763   2.912
16957W        W90025  11.230  29.663   1.408
16958W        W90026  19.144   9.102   1.129
16959W        W90027   4.304   5.731  11.172
16960W        W90028  29.942  34.297   1.366
16961W        W90029  44.399  44.308  11.481
16962W        W90030  44.719   4.455   2.711
16963W        W90031  21.515   1.780  14.834
16964W        W90032  23.660   0.532   2.298
16965W        W90033   9.526   8.149   2.433
16966W        W90034   6.687  29.595  12.588
16967W        W90035   5.687  27.698   4.356
16968W        W90036  33.645  11.253   2.065
16969W        W90037  37.440  16.229   4.326
16970W        W90038  20.731   8.068   3.709
16971W        W90039  38.508   4.793  14.789
16972W        W90040   8.736   7.968  10.544
16973W        W90041   5.699   6.841  13.490
16974W        W90042   1.910  36.966   4.875
16975W        W90043  32.045  33.881   2.030
16976W        W90044  43.270  24.193  11.975
16977W        W90045  41.574  32.142  12.138
16978W        W90046  36.051  28.842   0.013
16979W        W90047  17.029  16.212  11.060
16980W        W90048  43.389  19.355  11.959
16981W        W90049   6.342  10.296   2.688
16982W        W90050  39.614  23.194  11.065
16983W        W90051  36.469  21.784   1.415
16984W        W90052   0.007  26.859  12.862
16985W        W90053  16.743  26.500   1.373
16986W        W90054  15.548   3.434  13.978
16987W        W90055   6.698  14.632   2.629
16988W        W90056  44.434  31.832   2.547
16989W        W90057  37.957   9.743   0.541
16990W        W90058  32.310  18.664   2.352
16991W        W90059   5.435   0.847  10.355
16992W        W90060   1.376  43.980   3.125
16993W        W90061   0.517  11.873  10.601
16994W        W90062  17.544  23.221  11.823
16995W        W90063   7.805  12.599   2.840
16996W        W90064  35.914  23.166  13.827
16997W        W90065   8.841  13.645   3.152
16998W        W90066   1.861  14.747   3.715
16999W        W90067  17.671  19.435   4.630
17000W        W90068   0.752  18.161   3.602
17001W        W90069  24.792   1.631   3.550
17002W        W90070  17.326  18.131  11.971
17003W        W90071  13.478   4.084  13.892
17004W        W90072  38.947  28.082  11.461
17005W        W90073  32.898  35.970  10.310
17006W        W90074  32.898   6.173  12.630
17007W        W90075  32.375   5.943   1.922
17008W        W90076  14.653  32.568   4.372
17009W        W90077  17.127  27.256   1.048
17010W        W90078  23.994   0.908   2.434
17011W        W90079  34.376  34.817  13.571
17012W        W90080   4.448  37.508  10.582
17013W        W90081  11.892  19.528  14.502
17014W        W90082  24.273   7.606   4.643
17015W        W90083  25.475  11.342  10.155
17016W        W90084   7.396  13.219   1.686
17017W        W90085   2.815   2.018  14.074
17018W        W90086   0.808  28.656   1.969
17019W        W90087   5.606  23.721   3.218
17020W        W90088   0.033  33.917  12.989
17021W        W90089   9.598  38.111  11.929
17022W        W90090  16.166  36.569  11.868
17023W        W90091  23.581  21.104  13.265
17024W        W90092  38.414  26.819  11.588
17025W        W90093   1.075  25.071   0.812
17026W        W90094  17.767  36.260   4.102
17027W        W90095   3.902  32.473  11.122
17028W        W90096  11.823  10.091   1.326
17029W        W90097  14.635  34.147  10.915
17030W        W90098  29.493  10.203  10.949
17031W        W90099  38.674  23.878  11.139
17032W        W90100  30.395  40.081  11.486
17033W        W90101  17.338  24.000   0.972
17034W        W90102  35.665  39.063   3.829
17035W        W90103   4.384   3.047   0.296
17036W        W90104  25.235  40.823  12.556
17037W        W90105  20.953  35.619  13.559
17038W        W90106  21.473  26.758   2.277
17039W        W90107  13.195  35.218   4.015
17040W        W90108  13.868  24.477   2.733
17041W        W90109  13.168  30.494   3.412
17042W        W90110  19.926   3.267  12.268
17043W        W90111  11.760  33.901  13.468
17044W        W90112  11.832  21.471   0.909
17045W        W90113  11.277  37.076   4.380
17046W        W90114  22.384  44.360   4.789
17047W        W90115  11.990  33.643   4.201
17048W        W90116  38.461  38.751  12.003
17049W        W90117  19.782  17.743   0.010
17050W        W90118  10.381  44.308   1.492
17051W        W90119  36.580  21.080   0.486
17052W        W90120  27.787  22.029  11.575
17053W        W90121  40.047  32.338  13.688
17054W        W90122  15.564  10.252   4.712
17055W        W90123   7.234  36.395   3.801
17056W        W90124  24.516  12.034  12.074
17057W        W90125  24.915  19.218   2.747
17058W        W90126  41.478  20.472   1.807
17059W        W90127  28.789  36.763   3.429
17060W        W90128  10.762  36.069   2.231
17061W        W90129  33.604  30.617   3.178
17062W        W90130  34.395  29.375  12.870
17063W        W90131  30.849  21.498  10.791
17064W        W90132   5.381  12.419  14.216
17065W        W90133  29.962   9.532   1.801
17066W        W90134  17.201  41.263  11.485
17067W        W90135   8.103  21.033   1.830
17068W        W90136  31.233  33.669  13.445
17069W        W90137   3.340  34.108   2.163
17070W        W90138   4.696  29.420  14.384
17071W        W90139  25.005  44.355  11.575
17072W        W90140  23.756   5.755  11.868
17073W        W90141  35.951  26.097  13.866
17074W        W90142  41.384   2.095   2.241
17075W        W90143   8.277  15.724  11.580
17076W        W90144  28.990   7.276  12.047
17077W        W90145  37.309  24.131  11.197
17078W        W90146  29.535   9.167   3.436
17079W        W90147  25.253  22.072   1.832
17080W        W90148   1.267  19.589   1.204
17081W        W90149   5.025  12.211  14.558
17082W        W90150  43.490  11.686  10.242
17083W        W90151  35.413  30.082   2.502
17084W        W90152   4.070  44.019   2.811
17085W        W90153  39.281   0.710  14.387
17086W        W90154  40.792  14.396  13.868
17087W        W90155  32.192  36.349  11.617
17088W        W90156  42.726  44.509   1.359
17089W        W90157  29.789   6.319  12.322
17090W        W90158   9.382   1.299  12.656
17091W        W90159  33.645  31.392   2.725
17092W        W90160   0.786   0.747   3.346
17093W        W90161   9.395  21.966   2.376
17094W        W90162  42.343  17.250   1.425
17095W        W90163  33.273  35.776   1.635
17096W        W90164  17.619  20.614   1.703
17097W        W90165  11.793  30.222   3.142
17098W        W90166  29.945  26.699   4.256
17099W        W90167   8.884   6.170   3.748
17100W        W90168  44.926  43.590  14.376
17101W        W90169  14.137   3.734   4.518
17102W        W90170  33.797   8.097   1.216
17103W        W90171   7.861  43.869  12.497
17104W        W90172  40.370  21.220   0.732
17105W        W90173  15.694  30.352   3.802
17106W        W90174  28.484  28.042  14.505
17107W        W90175   9.080  21.422   3.268
17108W        W90176  27.948  43.609  13.509
17109W        W90177  12.672  29.180   3.395
17110W        W90178   5.267  31.750   1.736
17111W        W90179  37.000  33.905   0.845
17112W        W90180  43.512  41.800   1.292
17113W        W90181  39.077  12.924  11.495
17114W        W90182  12.750  33.524   3.774
17115W        W90183   8.891  36.905  12.135
17116W        W90184  37.993  30.423   2.797
17117W        W90185   2.879  15.172   4.407
17118W        W90186  14.286  28.434  10.840
17119W        W90187  39.904  29.374   0.779
17120W        W90188  30.694  41.379  11.191
17121W        W90189  37.031  28.393   4.548
17122W        W90190   8.800  24.702  14.982
17123W        W90191  30.416   4.038   0.028
17124W        W90192   8.933  12.548   1.203
17125W        W90193  23.561   5.634  14.227
17126W        W90194  17.000  41.717  11.607
17127W        W90195  24.621  35.184  14.338
17128W        W90196   0.325   0.947   4.935
17129W        W90197  23.087  30.665   3.710
17130W        W90198   0.958   5.291  12.990
17131W        W90199  34.507   1.199  12.360
17132W        W90200  41.300  23.542  14.897
17133W        W90201  43.846   1.730  14.584
17134W        W90202  36.815  18.823  14.503
17135W        W90203  38.318  41.822   0.385
17136W        W90204  44.456  28.429  12.518
17137W        W90205  36.249  28.704   2.691
17138W        W90206  13.785  39.765  11.370
17139W        W90207  31.895  28.075   2.219
17140W        W90208  43.488  11.324  14.228
17141W        W90209  17.276  26.014   4.478
17142W        W90210  25.482  33.010   4.620
17143W        W90211  22.496  28.613  13.843
17144W        W90212  35.083  15.627   4.029
17145W        W90213  17.109  32.033   1.960
17146W        W90214  21.150  13.280   1.198
17147W        W90215  19.210  10.592  11.225
17148W        W90216   3.247  37.616  11.682
17149W        W90217   1.654  41.080  14.523
17150W        W90218  24.587  43.538   4.566
17151W        W90219  39.526  29.154   4.146
17152W        W90220  18.259  30.660  11.755
17153W        W90221   7.732  26.358   4.998
17154W        W90222  14.453  22.017   1.654
17155W        W90223  37.626  15.370  11.363
17156W        W90224  40.771  16.325   9.808
17157W        W90225  10.647  35.420   3.299
17158W        W90226  39.774  11.355  11.381
17159W        W90227  39.976  13.726   2.347
17160W        W90228  14.517  28.539   1.487
17161W        W90229   4.153  38.355  12.325
17162W        W90230   0.915   6.036   0.344
17163W        W90231   1.074  29.093   2.798
17164W        W90232  17.578   9.083   0.923
17165W        W90233  32.704  15.520  13.398
17166W        W90234  17.726  30.467  12.974
17167W        W90235  15.305  32.201   3.754
17168W        W90236  22.759  41.965  12.998
17169W        W90237  16.577  39.410   2.738
17170W        W90238   4.147  16.069   1.635
17171W        W90239  41.545  13.771   3.326
17172W        W90240  35.628   2.237  14.058
17173W        W90241  18.166  37.884  12.000
17174W        W90242   5.622  36.566   2.189
17175W        W90243  29.199  30.458  12.345
17176W        W90244  44.294   8.880   1.661
17177W        W90245  17.062   2.245  14.793
17178W        W90246  14.763  12.338   0.302
17179W        W90247  31.827  11.810   4.126
17180W        W90248   6.415  41.904  12.956
17181W        W90249  18.055  37.036  11.971
17182W        W90250   5.406   3.757   2.162
17183W        W90251  14.543  21.264   4.316
17184W        W90252  30.579  11.793  13.793
17185W        W90253  41.621   6.957   3.859
17186W        W90254  18.732  31.985  11.191
17187W        W90255  14.571  31.612   3.396
17188W        W90256  18.818  14.207  13.301
17189W        W90257  19.301  31.133  13.407
17190W        W90258  12.923  42.232   3.971
17191W        W90259  21.163   5.623   0.287
17192W        W90260  38.132  37.235   1.271
17193W        W90261   4.982  33.084  14.236
17194W        W90262  21.982  36.804  13.298
17195W        W90263  38.465  12.079   0.224
17196W        W90264  23.601  14.875  13.034
17197W        W90265  37.791  36.605  13.465
17198W        W90266  16.900   8.355  14.893
17199W        W90267  18.295  42.410  11.535
17200W        W90268  26.040  20.774   3.089
17201W        W90269  12.609   4.723  14.950
17202W        W90270  40.810  33.473   3.888
17203W        W90271  21.808  11.777   1.741
17204W        W90272  30.378   9.253  14.823
17205W        W90273  38.072  19.187   4.399
17206W        W90274  23.042   0.639  11.462
17207W        W90275  19.903  36.506   4.533
17208W        W90276  31.465  13.263  14.936
17209W        W90277  34.396   0.531  11.582
17210W        W90278  21.153   3.098   0.938
17211W        W90279  39.022  24.656   0.262
17212W        W90280   8.848  18.548   0.006
17213W        W90281  29.255  31.219  11.884
17214W        W90282  42.424   4.653  10.524
17215W        W90283  37.433  18.512   0.348
17216W        W90284  14.221  23.311   3.331
17217W        W90285  44.798   2.708  11.624
17218W        W90286  22.482  11.645  13.765
17219W        W90287  39.060  35.898   2.300
17220W        W90288  30.872  19.292  11.097
17221W        W90289  39.656  20.000   0.502
17222W        W90290   1.209  32.549  11.123
17223W        W90291   9.765  34.930   4.159
17224W        W90292  44.985  38.613  13.959
17225W        W90293   0.482  15.131  12.828
17226W        W90294  34.692  31.456  10.298
17227W        W90295  41.499  24.672   4.744
17228W        W90296  15.100  10.756   3.166
17229W        W90297  35.516  28.067   1.427
17230W        W90298  29.458  25.690  11.340
17231W        W90299  35.076  43.955  12.665
17232W        W90300   4.890   3.624  11.642
17233W        W90301  31.092  11.800  13.932
17234W        W90302  33.407  12.215   2.248
17235W        W90303  22.057  32.030   2.562
17236W        W90304  15.344  14.722  12.474
17237W        W90305  26.022  19.801  11.121
17238W        W90306  41.538  37.847   3.663
17239W        W90307   5.349  30.153  14.515
17240W        W90308  35.520  27.030   2.841
17241W        W90309   5.761  26.148   2.411
17242W        W90310  31.923   7.322  11.395
17243W        W90311  31.439   4.901  11.781
17244W        W90312   2.923  29.752  12.630
17245W        W90313  20.703  23.442   0.528
17246W        W90314   0.939  32.488   4.757
17247W        W90315  14.585  14.764  12.977
17248W        W90316  31.884   1.875  14.416
17249W        W90317  41.786   4.267  11.030
17250W        W90318  40.926  23.287   2.385
17251W        W90319   0.485  42.471  13.984
17252W        W90320  36.731   9.682   0.000
17253W        W90321  11.613   0.060  13.231
17254W        W90322  33.944  40.030   1.842
17255W        W90323  41.059  24.010   0.049
17256W        W90324  15.723  25.108   1.908
17257W        W90325  14.941   7.567   2.276
17258W        W90326  35.117  33.902  12.900
17259W        W90327   6.702  15.578   0.677
17260W        W90328  30.955  34.344   1.063
17261W        W90329  25.034  29.918   0.464
17262W        W90330   2.200  13.097   4.124
17263W        W90331  44.407  20.464   4.528
17264W        W90332  20.743  25.526   1.943
17265W        W90333  20.799  14.857   4.055
17266W        W90334  31.120  16.599  12.358
17267W        W90335   0.890  14.538  11.151
17268W        W90336   7.565  25.396   4.203
17269W        W90337  18.294  28.967   3.831
17270W        W90338  23.065  18.249   1.243
17271W        W90339  22.558  35.129  12.958
17272W        W90340  23.241  26.546  13.315
17273W        W90341  36.388  44.053   3.805
17274W        W90342  25.059  20.100  13.156
17275W        W90343  40.334  36.157  10.692
17276W        W90344  33.178   5.250  12.546
17277W        W90345  39.401  29.674  11.029
17278W        W90346  43.892  30.995  11.339
17279W        W90347   2.894  30.203  13.538
17280W        W90348  31.334   9.022   1.471
17281W        W90349  26.034  13.870  11.244
17282W        W90350   8.003  31.429  13.418
17283W        W90351  21.013  10.259   2.723
17284W        W90352   7.651  30.536   0.823
17285W        W90353  13.291  15.779  14.754
17286W        W90354  22.554  19.325  10.772
17287W        W90355   1.417  22.177  13.567
17288W        W90356  23.305  22.061  12.856
17289W        W90357  25.373  27.634  14.466
17290W        W90358  25.890   6.981   3.878
17291W        W90359  44.592  25.957   4.290
17292W        W90360  41.024  23.016  13.923
17293W        W90361   2.451  39.828   3.687
17294W        W90362  24.198   7.639   0.911
17295W        W90363  37.157  28.852   1.441
17296W        W90364   6.813   2.794   1.372
17297W        W90365  33.492   6.891   4.931
17298W        W90366   9.078  26.876  12.983
17299W        W90367  41.896  13.542  10.731
17300W        W90368  30.015  42.338   1.304
17301W        W90369  30.106  14.536   0.373
17302W        W90370  35.354  31.819   4.598
17303W        W90371  26.061  20.092   0.265
17304W        W90372  44.448  13.016  12.382
17305W        W90373   4.926   5.645   0.513
17306W        W90374  23.674  24.097   1.714
17307W        W90375  28.086   3.985   0.686
17308W        W90376   7.789  27.092   1.363
17309W        W90377  11.867   8.382  14.271
17310W        W90378  43.817  16.663  13.450
17311W        W90379  31.506  22.696  14.252
17312W        W90380   5.326  11.363  14.328
17313W        W90381  10.873  34.344  11.161
17314W        W90382  13.216  33.919   2.749
17315W        W90383   7.865  13.382   4.184
17316W        W90384  10.623   4.663  14.893
17317W        W90385  41.024   9.889  11.622
17318W        W90386  28.718   8.468  10.634
17319W        W90387  41.847  37.571   3.350
17320W        W90388  18.507  30.388  10.645
17321W        W90389  40.429  37.533  13.913
17322W        W90390  41.946  16.272  10.284
17323W        W90391   3.498  36.363  14.814
17324W        W90392  38.637  29.002  13.017
17325W        W90393  43.096  24.841  10.249
17326W        W90394  19.343  31.591  11.605
17327W        W90395  37.954   2.663  14.153
17328W        W90396   9.768  41.545  12.952
17329W        W90397   8.258  42.047  11.883
17330W        W90398   9.188  24.583  12.576
17331W        W90399  37.045  11.371  10.989
17332W        W90400  21.044  15.047   2.397
17333W        W90401  12.940  14.709   4.186
17334W        W90402  13.886   7.323   3.606
17335W        W90403  11.493  10.304  13.990
17336W        W90404  18.236  44.046  11.199
17337W        W90405   0.777   1.901  14.075
17338W        W90406  10.661  40.327   1.059
17339W        W90407  43.054   5.964   1.376
17340W        W90408  29.569  34.118   3.233
17341W        W90409  17.267  23.233  13.965
17342W        W90410  19.542  42.588   0.209
17343W        W90411  24.761  40.365   1.159
17344W        W90412  35.010   3.281  13.127
17345W        W90413  13.726  29.554  13.063
17346W        W90414  26.234  34.370   4.090
17347W        W90415   8.513   5.782  12.885
17348W        W90416  25.241  40.975   9.842
17349W        W90417   5.889   5.505  12.085
17350W        W90418  42.359  32.052  14.242
17351W        W90419   7.778  25.654  13.019
17352W        W90420  44.127  11.603   0.274
17353W        W90421  30.186   6.702  11.109
17354W        W90422  36.028  11.876   4.095
17355W        W90423  24.533   6.714   2.389
17356W        W90424  42.052   6.103   4.242
17357W        W90425  37.916  30.345  13.256
17358W        W90426  28.009  25.483   1.266
17359W        W90427  16.624   0.680   4.442
17360W        W90428  37.999   6.973   4.957
17361W        W90429  12.620   0.201   4.214
17362W        W90430  11.070  40.827  11.865
17363W        W90431  29.548  27.424   0.292
17364W        W90432  33.960  25.117  11.648
17365W        W90433  44.433  39.397  14.235
17366W        W90434  25.651  19.795  10.728
17367W        W90435  23.060  17.199  12.938
17368W        W90436  30.738  23.541   2.611
17369W        W90437  31.362  22.973   3.738
17370W        W90438   8.368  12.767  12.596
17371W        W90439  42.145   8.488  14.751
17372W        W90440  40.286  35.355   0.660
17373W        W90441   9.709   7.799  14.998
17374W        W90442  17.112  15.637   2.352
17375W        W90443  20.027  26.375   1.301
17376W        W90444   6.998  39.022   0.774
17377W        W90445   4.766  30.669  13.355
17378W        W90446  25.223  19.139  11.103
17379W        W90447  25.455  15.876  11.400
17380W        W90448  34.008  16.050   1.772
17381W        W90449   5.328  15.262   3.724
17382W        W90450  39.415  22.323   4.053
17383W        W90451  11.903   7.658   4.367
17384W        W90452  24.557  35.435   0.879
17385W        W90453   6.663  25.193   2.707
17386W        W90454   1.134  18.813   4.030
17387W        W90455  19.563  17.813  12.050
17388W        W90456   3.246   3.419  12.436
17389W        W90457  33.122  11.188  11.724
17390W        W90458  19.799  17.096  11.558
17391W        W90459  22.626   4.556   4.910
17392W        W90460  39.936  38.772   4.446
17393W        W90461   6.263   3.331  12.473
17394W        W90462  11.596  40.076   0.292
17395W        W90463  20.318   7.918  12.025
17396W        W90464  44.753  23.007   3.621
17397W        W90465  25.610  44.838  11.187
17398W        W90466  18.092  13.662   1.699
17399W        W90467  22.097  13.762  12.567
17400W        W90468  11.716  34.342   1.687
17401W        W90469  16.423   4.815   1.678
17402W        W90470  32.880  34.995  11.862
17403W        W90471  28.785  14.287  13.672
17404W        W90472  32.652   4.791   1.423
17405W        W90473   3.430  30.965  13.530
17406W        W90474  10.867  25.069   0.220
17407W        W90475   5.684  32.340  11.543
17408W        W90476  15.582  44.355   4.987
17409W        W90477  23.459  27.565   3.642
17410W        W90478  44.812  27.278   3.742
17411W        W90479  17.179   1.455   0.906
17412W        W90480  30.997  17.776   1.742
17413W        W90481  44.261  23.882  14.839
17414W        W90482  21.649   2.385   4.239
17415W        W90483  24.534  33.958  14.769
17416W        W90484   5.674  13.260  13.476
17417W        W90485  21.257  24.651   0.947
17418W        W90486   3.955  30.019   0.861
17419W        W90487  17.326  22.356   4.622
17420W        W90488  20.972  43.844   3.747
17421W        W90489  17.850  12.602   4.843
17422W        W90490  12.517   0.266   2.100
17423W        W90491  20.553  22.367   0.824
17424W        W90492  36.960   2.338  13.787
17425W        W90493   7.718  20.705   1.696
17426W        W90494  32.776  38.611   3.320
17427W        W90495  26.315  33.498   4.632
17428W        W90496  20.262  29.429   2.636
17429W        W90497  30.800  32.148  12.076
17430W        W90498  19.814   6.395  11.624
17431W        W90499  32.581  34.071   3.240
17432W        W90500  18.319   0.642   3.636
17433W        W90501   5.731  29.987   3.166
17434W        W90502   1.971  30.227  12.098
17435W        W90503  14.808  15.257  12.105
17436W        W90504  42.302  37.109   0.853
17437W        W90505  13.287  18.777  12.493
17438W        W90506  38.645  18.813  14.194
17439W        W90507  29.006  17.805  13.838
17440W        W90508  23.243  33.592  10.946
17441W        W90509  40.253  25.473   0.791
17442W        W90510  31.572  19.170   2.872
17443W        W90511   0.656  14.132   4.517
17444W        W90512   9.606   2.974   1.345
17445W        W90513  29.115  21.286  14.855
17446W        W90514  22.684  27.336   3.226
17447W        W90515   4.907  40.762  14.839
17448W        W90516  19.540  39.633  12.857
17449W        W90517   4.473  34.577   0.807
17450W        W90518  37.723   6.141   4.966
17451W        W90519   6.893  37.814  11.634
17452W        W90520  40.809  25.634   3.600
17453W        W90521  34.395   5.523   2.733
17454W        W90522  21.793  44.945   4.025
17455W        W90523   0.553  23.520  12.113
17456W        W90524  44.976  26.789   4.589
17457W        W90525  32.209   0.896   2.382
17458W        W90526  43.072  31.896   2.714
17459W        W90527  10.869   0.247   1.435
17460W        W90528  36.350  44.430   2.327
17461W        W90529  16.897  38.102  11.478
17462W        W90530  28.914  39.367  12.048
17463W        W90531   9.753  24.103   1.071
17464W        W90532  11.637  14.127   1.334
17465W        W90533  20.056  25.592  12.039
17466W        W90534   8.934  25.491  11.000
17467W        W90535   9.185   4.225  14.340
17468W        W90536   5.516  15.364  14.198
17469W        W90537   5.224  28.052   0.393
17470W        W90538   5.673   0.960  10.789
17471W        W90539   2.780  27.469  13.794
17472W        W90540  29.441   2.267   0.397
17473W        W90541  29.404  39.572   3.903
17474W        W90542  11.854  19.882   5.059
17475W        W90543  39.964  21.127   2.262
17476W        W90544  32.372  35.297  11.012
17477W        W90545  42.497   6.262   0.472
17478W        W90546   3.723  17.079   3.683
17479W        W90547  11.582  23.230   1.685
17480W        W90548   2.166  14.741  12.439
17481W        W90549   3.372  43.097   4.047
17482W        W90550  10.072  17.271  13.881
17483W        W90551  38.611  24.462  13.817
17484W        W90552  15.924  39.319   1.657
17485W        W90553  15.341  43.606   2.415
17486W        W90554  20.823  35.053   1.649
17487W        W90555  27.598  40.328   2.742
17488W        W90556  13.085   9.211   2.824
17489W        W90557  39.018  13.701   3.221
17490W        W90558  28.479   8.432  14.354
17491W        W90559  39.358  43.262  13.328
17492W        W90560  23.703  44.767  11.408
17493W        W90561  34.160  13.832   4.208
17494W        W90562  21.087  44.577   0.618
17495W        W90563  38.446  27.113  12.057
17496W        W90564  34.853  20.965  11.082
17497W        W90565  39.983   4.372   2.605
17498W        W90566  38.541  20.907   2.313
17499W        W90567  17.262  24.062   2.717
17500W        W90568  11.909  19.356   4.448
17501W        W90569  34.476  20.735  14.894
17502W        W90570  34.018   3.914   2.420
17503W        W90571  26.665  19.033  14.399
17504W        W90572   3.972  36.222   3.775
17505W        W90573   9.512  31.593  10.713
17506W        W90574  28.058  15.645  14.086
17507W        W90575  32.649  39.076  14.536
17508W        W90576  34.379  34.539  10.718
17509W        W90577  39.925   9.136  14.121
17510W        W90578  10.835  17.665  14.001
17511W        W90579  15.628  22.552  13.964
17512W        W90580  32.627  18.324   4.618
17513W        W90581   7.143   1.341  14.387
17514W        W90582   8.753  15.294  14.847
17515W        W90583   3.410  26.122   4.576
17516W        W90584  29.156   0.768   1.731
17517W        W90585   0.002  36.856  14.470
17518W        W90586   3.909  24.699   1.535
17519W        W90587  38.155  19.497   1.508
17520W        W90588   3.720  35.785   3.855
17521W        W90589  23.673  40.763   4.723
17522W        W90590  20.889  36.468  11.624
17523W        W90591   4.109   0.288   5.126
17524W        W90592  24.651  39.282   3.682
17525W        W90593  10.070  14.797   4.662
17526W        W90594  26.014  20.321   3.418
17527W        W90595  18.630  36.564   4.354
17528W        W90596  15.804  17.190   1.535
17529W        W90597  39.999  40.909  10.496
17530W        W90598  29.405  35.953  14.147
17531W        W90599  15.568  29.084  11.526
17532W        W90600   5.488  23.580   0.682
17533W        W90601  40.374  36.351   1.870
17534W        W90602  37.389   6.290  11.075
17535W        W90603  26.684  33.418   1.754
17536W        W90604  13.823  27.005  11.657
17537W        W90605  43.858  28.253   2.443
17538W        W90606  20.814  41.485  14.196
17539W        W90607  35.970  17.010  12.970
17540W        W90608  33.517  41.332   0.165
17541W        W90609  15.824  40.841  12.197
17542W        W90610  25.202  44.561  13.448
17543W        W90611  25.285  31.850  11.170
17544W        W90612  12.672   7.047   1.807
17545W        W90613  28.420  18.672   3.792
17546W        W90614  16.850  20.507  13.929
17547W        W90615  16.044   6.401   2.765
17548W        W90616  40.290  13.124   0.333
17549W        W90617  17.383  21.178   5.040
17550W        W90618  41.905  34.825   3.495
17551W        W90619  41.661  34.969  14.111
17552W        W90620   0.036   7.841   0.444
17553W        W90621  38.326  23.259   3.722
17554W        W90622  37.568  16.135  13.108
17555W        W90623  39.406  14.576  14.564
17556W        W90624  21.510   5.930   3.293
17557W        W90625   7.748  15.435   2.568
17558W        W90626   8.042  34.139  13.958
17559W        W90627   8.762  15.369  14.334
17560W        W90628  32.568  30.161   3.621
17561W        W90629  36.312   8.921   4.874
17562W        W90630  10.155  14.052   4.273
17563W        W90631  20.930   2.230  11.015
17564W        W90632  34.918  40.166  13.979
17565W        W90633  26.661  14.187  14.939
17566W        W90634  31.548   4.406   4.532
17567W        W90635  24.094  26.434   1.850
17568W        W90636  20.559  18.193   4.711
17569W        W90637  24.733  32.102  10.540
17570W        W90638  13.818  41.568  11.598
17571W        W90639  24.116  44.650   5.108
17572W        W90640  12.495   9.119   0.416
17573W        W90641  12.348  13.044   3.783
17574W        W90642   4.816  23.833  14.438
17575W        W90643  15.748  15.553   3.653
17576W        W90644  36.949  31.727   1.763
17577W        W90645  43.765  21.616  13.887
17578W        W90646  17.351   6.208   2.173
17579W        W90647   6.807  17.605  13.839
17580W        W90648  10.295  37.902   0.520
17581W        W90649  27.031  17.273   4.274
17582W        W90650  40.816  21.024  11.581
17583W        W90651   5.687  16.087   3.204
17584W        W90652  16.488  13.587  12.158
17585W        W90653  23.524  44.035   0.026
17586W        W90654  36.988  26.249   3.406
17587W        W90655  17.260  24.670  11.967
17588W        W90656  36.168  39.767  14.295
17589W        W90657  16.357  17.206   2.396
17590W        W90658  21.628  40.778   1.694
17591W        W90659   8.113  42.834  12.468
17592W        W90660   8.264  20.679   4.074
17593W        W90661  12.424  24.083   4.478
17594W        W90662   5.831  33.463   2.849
17595W        W90663  20.558  14.895   4.507
17596W        W90664  18.093  41.227   3.566
17597W        W90665  13.581  10.859  11.506
17598W        W90666  16.257  25.496  11.175
17599W        W90667  24.017   4.985   3.088
17600W        W90668   2.432  37.407   0.316
17601W        W90669  16.401  18.301   0.915
17602W        W90670  33.862  23.676   3.345
17603W        W90671   2.229  38.078  13.053
17604W        W90672  37.010  44.718   2.797
17605W        W90673  42.570  27.099  11.530
17606W        W90674   9.238   0.009   9.920
17607W        W90675  34.029  20.673  12.078
17608W        W90676  13.401  35.698   4.063
17609W        W90677  24.152  44.441  12.599
17610W        W90678  34.030   8.429  12.698
17611W        W90679   0.141   6.365   2.804
17612W        W90680  20.620  14.427   3.850
17613W        W90681  27.623  26.651   0.493
17614W        W90682  41.403  22.861   4.647
17615W        W90683  10.644  32.744  12.867
17616W        W90684  37.412   9.302  13.087
17617W        W90685   6.636  31.998  10.966
17618W        W90686   6.253  26.370   1.405
17619W        W90687  27.052  19.674   4.337
17620W        W90688  12.105   1.293   0.855
17621W        W90689   5.397   5.223  13.070
17622W        W90690  11.714  40.571   0.215
17623W        W90691   2.296  19.029  14.764
17624W        W90692   1.042  29.116   1.855
17625W        W90693  42.413  21.718   3.843
17626W        W90694   4.755  29.331   0.904
17627W        W90695  38.558  37.994  14.901
17628W        W90696  14.083  36.975   1.536
17629W        W90697   9.653  37.173   4.131
17630W        W90698  41.311  36.527  14.925
17631W        W90699  30.664  30.398   1.426
17632W        W90700   0.525  35.643  12.539
17633W        W90701  13.172  24.541  14.808
17634W        W90702  25.160  34.059  11.524
17635W        W90703  35.546  25.151   1.751
17636W        W90704  21.202  17.491  14.729
17637W        W90705  13.661  22.716   0.978
17638W        W90706  42.948  15.263   4.757
17639W        W90707   4.388  28.187  13.120
17640W        W90708  43.314  39.925   4.894
17641W        W90709  40.112  35.107   4.916
17642W        W90710  21.415  36.538  11.642
17643W        W90711  22.755   5.359  12.427
17644W        W90712   6.411  16.263   0.458
17645W        W90713  18.756  12.623   0.480
17646W        W90714  17.023  29.999  12.513
17647W        W90715  30.458  11.108  11.664
17648W        W90716  37.555  24.522  10.535
17649W        W90717  13.795  26.705  11.241
17650W        W90718  37.019   8.318   4.782
17651W        W90719   0.879   9.735   2.254
17652W        W90720   3.813  13.491  10.788
17653W        W90721  41.223  41.786   0.042
17654W        W90722  40.477  13.201   0.831
17655W        W90723  30.592  27.590  10.744
17656W        W90724  36.461   3.092   3.144
17657W        W90725  18.726  10.289   1.704
17658W        W90726  19.338  17.681   0.924
17659W        W90727  38.116  37.941   2.755
17660W        W90728  16.367  17.801  13.445
17661W        W90729  42.525   9.626   1.345
17662W        W90730  43.923  35.870   0.821
17663W        W90731  43.966  28.831   4.638
17664W        W90732  10.954  16.934   3.827
17665W        W90733   0.749   0.717   2.334
17666W        W90734  22.233   1.144   0.988
17667W        W90735   8.723  21.149   4.994
17668W        W90736  40.984  35.883  11.190
17669W        W90737  33.339  29.047   1.439
17670W        W90738  40.489  44.415  12.057
17671W        W90739  36.184  14.238   3.716
17672W        W90740  24.570   4.011  12.438
17673W        W90741  38.273   5.332  10.963
17674W        W90742  18.720  12.866  11.317
17675W        W90743  28.809  18.208   0.546
17676W        W90744  36.658  26.148   2.676
17677W        W90745  23.554   1.167   1.283
17678W        W90746  24.214  15.611  14.925
17679W        W90747  29.929  10.741  13.936
17680W        W90748  30.342  16.092   0.172
17681W        W90749  23.305  31.572  14.458
17682W        W90750  34.417   3.720   4.606
17683W        W90751  13.962  27.559  11.642
17684W        W90752  17.127   0.843   2.640
17685W        W90753  14.758  13.159   2.144
17686W        W90754  22.224  18.509   4.695
17687W        W90755   1.939  18.558  12.516
17688W        W90756  33.723  10.362  10.693
17689W        W90757  36.462   3.173   0.112
17690W        W90758   7.881  44.268  14.457
17691W        W90759  36.911  34.542  10.779
17692W        W90760  36.044   2.979  11.560
17693W        W90761  10.319   3.950  11.087
17694W        W90762  22.207  18.576  13.889
17695W        W90763   1.184   2.435   3.317
17696W        W90764  34.953  20.288   4.073
17697W        W90765  29.647   2.941   1.307
17698W        W90766  40.556  37.053  12.390
17699W        W90767  18.372  14.458  14.382
17700W        W90768   7.919   2.549  10.831
17701W        W90769   9.226  14.145  14.242
17702W        W90770  37.813   9.209   2.711
17703W        W90771   6.830  36.161   3.243
17704W        W90772  39.105   1.681  14.439
17705W        W90773   5.783  27.597  12.432
17706W        W90774  38.527  22.779   1.075
17707W        W90775  41.299   7.697   2.205
17708W        W90776   9.752  28.061   3.434
17709W        W90777   9.276  17.155  11.888
17710W        W90778  13.622  27.970  14.971
17711W        W90779  11.244  22.600  12.601
17712W        W90780   9.630  28.048  13.841
17713W        W90781  13.299  34.154  13.900
17714W        W90782  18.809  38.609  11.759
17715W        W90783  32.002   0.666   1.960
17716W        W90784  33.671   3.171   2.605
17717W        W90785   9.331  38.018  11.078
17718W        W90786   1.697  12.150   0.294
17719W        W90787  17.145  14.611  11.997
17720W        W90788  37.989  10.334   3.718
17721W        W90789  20.400  23.193  12.036
17722W        W90790  13.160   8.799  12.138
17723W        W90791  12.627  19.173   1.825
17724W        W90792  32.347   0.509   3.166
17725W        W90793   4.963  43.075  13.900
17726W        W90794  29.485  22.158   0.782
17727W        W90795  43.978  27.598  11.718
17728W        W90796  31.524  43.298  13.889
17729W        W90797   5.392  37.963   4.114
17730W        W90798  18.311  44.187   4.166
17731W        W90799  31.911   6.448  10.928
17732W        W90800  13.498  36.605  14.405
17733W        W90801  28.079   9.304   4.933
17734W        W90802  16.321  35.652  12.178
17735W        W90803  42.268   3.986  14.840
17736W        W90804  13.780   1.678  12.061
17737W        W90805  31.647  31.047  12.157
17738W        W90806  11.620  38.680  10.701
17739W        W90807  41.888  31.569  11.391
17740W        W90808  20.181  33.996  13.575
17741W        W90809  19.569  40.566   4.116
17742W        W90810  16.031   4.754  12.620
17743W        W90811   6.173   7.327   9.900
17744W        W90812   9.184  39.969  11.166
17745W        W90813  10.165   5.466   1.834
17746W        W90814  24.946  35.977  12.915
17747W        W90815  36.016   8.496   1.853
17748W        W90816  24.226  42.468   3.202
17749W        W90817  37.402   3.768   3.557
17750W        W90818  13.646  21.533  11.530
17751W        W90819  44.572  20.950   4.653
17752W        W90820  19.278  21.577   1.391
17753W        W90821   6.488  16.012  14.571
17754W        W90822   4.426  15.309  12.600
17755W        W90823   7.812  36.398   3.843
17756W        W90824  27.505  38.314   3.335
17757W        W90825  31.607  30.382  12.377
17758W        W90826  27.227   4.015   0.411
17759W        W90827  35.434  17.741   3.348
17760W        W90828  17.352  17.021   1.517
17761W        W90829   5.943  22.170  10.355
17762W        W90830  18.549  27.244   0.963
17763W        W90831  42.382  41.381  11.664
17764W        W90832  11.145  42.047   3.148
17765W        W90833  41.542  17.254   5.079
17766W        W90834   7.578  16.690   9.849
17767W        W90835  31.457  36.766  13.843
17768W        W90836  32.609  40.355   0.479
17769W        W90837  39.079  32.390   0.074
17770W        W90838  16.804  32.690   4.233
17771W        W90839  13.070  37.294  12.102
17772W        W90840  43.703  41.555   2.888
17773W        W90841  28.560  18.411  13.858
17774W        W90842  37.374  42.935   2.027
17775W        W90843  17.655  39.552   1.213
17776W        W90844  34.343   9.424   1.872
17777W        W90845  35.317  27.159   1.741
17778W        W90846  17.514  31.507  12.906
17779W        W90847   6.324  11.739  11.527
17780W        W90848  42.404  37.896  10.888
17781W        W90849  36.121  29.333  11.082
17782W        W90850  23.475   0.493   0.576
17783W        W90851  22.473   5.262   2.676
17784W        W90852   1.183  36.879  12.988
17785W        W90853  31.129  12.689   2.689
17786W        W90854  29.981  24.220   2.907
17787W        W90855  44.919  10.482   3.678
17788W        W90856  15.808  15.109  13.970
17789W        W90857   7.795   2.453   1.965
17790W        W90858  10.891  25.112  14.332
17791W        W90859   0.201  40.689   3.669
17792W        W90860   7.182  13.707   2.411
17793W        W90861  28.717  11.435   4.029
17794W        W90862  20.242  39.468   2.704
17795W        W90863  20.016  37.021  12.005
17796W        W90864  14.242  21.124   0.779
17797W        W90865   1.152   4.804   4.992
17798W        W90866  33.302  41.792  14.288
17799W        W90867  14.958  44.546   2.232
17800W        W90868  26.084  10.788  13.662
17801W        W90869  11.148  42.198  11.375
17802W        W90870  18.751  20.458  13.385
17803W        W90871  23.542   8.931  11.598
17804W        W90872  28.626  31.401  13.349
17805W        W90873  23.795   2.930   3.723
17806W        W90874  37.820  34.425   3.695
17807W        W90875  15.024  42.655  12.108
17808W        W90876  26.931  29.199  11.523
17809W        W90877   8.423  44.968  10.640
17810W        W90878   7.262  18.338   1.153
17811W        W90879   1.043  44.535   0.952
17812W        W90880  19.450   0.246   1.965
17813W        W90881   6.327  19.553   3.633
17814W        W90882  31.753  23.596  14.563
17815W        W90883   8.950   7.944   3.806
17816W        W90884  36.129   1.309   1.739
17817W        W90885   0.742   1.807   0.826
17818W        W90886  26.729  44.760  11.987
17819W        W90887  23.598  42.125   2.349
17820W        W90888  32.398  42.967   4.182
17821W        W90889  31.832  25.465   0.318
17822W        W90890  25.980   6.722   0.220
17823W        W90891   9.147  17.228   1.209
17824W        W90892  41.913  28.730  14.886
17825W        W90893  28.016   6.272  11.485
17826W        W90894  27.689  33.596   1.723
17827W        W90895  13.628  18.803  12.063
17828W        W90896   7.234  12.045  14.308
17829W        W90897   7.325   5.301   3.123
17830W        W90898  38.074  35.219   0.759
17831W        W90899   7.379  33.333   2.319
17832W        W90900  32.043  22.793   2.795
17833W        W90901  42.468  40.977   2.759
17834W        W90902   9.994  16.127   3.849
17835W        W90903  13.082  23.068  10.386
17836W        W90904  20.778  39.851  10.667
17837W        W90905  44.907  19.219   3.356
17838W        W90906  16.020  30.000  12.524
17839W        W90907  29.899  44.375  12.509
17840W        W90908  39.271  33.022   4.613
17841W        W90909  13.195  21.666   0.710
17842W        W90910  23.895   3.901  13.340
17843W        W90911  11.245  33.457  11.098
17844W        W90912  31.720   3.650  11.552
17845W        W90913  29.642  16.989  10.683
17846W        W90914   6.268  11.559   0.901
17847W        W90915  19.501  42.936  12.573
17848W        W90916  38.062   4.874  11.074
17849W        W90917   8.894  42.794   3.587
17850W        W90918  15.678   9.176  10.736
17851W        W90919  30.764   0.817   5.114
17852W        W90920   5.288  40.093  11.574
17853W        W90921  40.812  14.199  12.528
17854W        W90922   1.479  19.766  12.597
17855W        W90923  42.886  21.294  12.984
17856W        W90924  28.850  39.618   0.923
17857W        W90925   4.411  43.325  13.920
17858W        W90926  39.916  20.639  10.690
17859W        W90927  44.762  33.942  12.014
17860W        W90928   5.665  42.614   3.800
17861W        W90929  19.754  31.965  10.811
17862W        W90930  25.519  10.342  11.024
17863W        W90931  37.978  30.578  12.419
17864W        W90932  19.596  24.715   4.590
17865W        W90933   8.838  20.575  13.356
17866W        W90934  10.829  17.415  12.116
17867W        W90935   9.928  42.612  11.519
17868W        W90936  38.941   5.240   3.186
17869W        W90937  20.218  15.790   3.168
17870W        W90938  41.849  44.806  12.875
17871W        W90939  42.991   0.016   1.308
17872W        W90940  26.471  28.003   3.781
17873W        W90941  12.748  33.471   2.770
17874W        W90942  25.056  18.555   2.027
17875W        W90943   3.996  37.958  11.352
17876W        W90944  22.303   1.917   1.618
17877W        W90945   7.259  16.825   3.239
17878W        W90946  23.173  16.551  12.534
17879W        W90947  25.749   0.846  11.251
17880W        W90948   6.233  21.609  13.442
17881W        W90949   7.102  19.699   0.486
17882W        W90950  42.954  43.334  11.443
17883W        W90951  27.513  19.320  13.702
17884W        W90952  37.950  17.497  14.816
17885W        W90953  24.018  16.949   3.211
17886W        W90954  21.800  38.661  11.085
17887W        W90955  35.853  43.443  14.804
17888W        W90956   3.276  32.580  12.789
17889W        W90957  29.134  10.327   2.342
17890W        W90958  27.007  27.176  12.494
17891W        W90959   9.085  20.516   3.425
17892W        W90960   6.907  39.440   4.538
17893W        W90961   5.385  39.965   0.754
17894W        W90962   4.977  10.611   2.371
17895W        W90963  37.866  33.248   3.214
17896W        W90964  34.761   1.964  13.959
17897W        W90965   0.927   7.839   3.092
17898W        W90966  42.736  32.865  11.415
17899W        W90967  32.870  17.343   2.327
17900W        W90968   9.938  38.034  11.539
17901W        W90969  42.401  33.412  10.589
17902W        W90970  14.631  36.971   1.420
17903W        W90971   5.337  28.635   1.578
17904W        W90972  15.041  38.420  12.404
17905W        W90973  26.161   2.111   3.733
17906W        W90974  33.152  15.861   2.398
17907W        W90975  41.421  44.724   2.674
17908W        W90976  36.425  32.511   3.439
17909W        W90977  36.941  36.981  10.944
17910W        W90978  22.631  38.478  13.333
17911W        W90979  19.996  16.291   0.395
17912W        W90980  29.424  24.876  13.666
17913W        W90981  20.764  31.265  14.417
17914W        W90982   1.635   4.303  11.895
17915W        W90983   6.462   5.995   0.487
17916W        W90984  31.461  26.916  13.917
17917W        W90985  20.038  22.050  13.949
17918W        W90986  14.882   8.823   4.595
17919W        W90987  28.074   2.538   3.806
17920W        W90988   0.491  13.693   1.844
17921W        W90989  10.104  15.827  13.027
17922W        W90990   5.978  23.503   1.732
17923W        W90991  40.825  41.266   0.824
17924W        W90992  43.741  19.161   2.175
17925W        W90993  16.752  22.757  13.287
17926W        W90994  44.066  28.459  10.230
17927W        W90995   1.881   6.287   0.510
17928W        W90996  41.894  43.516  14.840
17929W        W90997  17.612  26.903  12.442
17930W        W90998  40.401   4.186  14.446
17931W        W90999   1.959   2.733   0.989
17932W        W91000  35.177  14.799  12.977
17933W        W91001  22.503   4.483  14.263
17934W        W91002  12.860   6.222  10.527
17935W        W91003   8.622  17.033  10.500
17936W        W91004  23.000  40.211   4.977
17937W        W91005  15.035  29.078  11.551
17938W        W91006  38.239  21.523   2.285
17939W        W91007  38.595  37.368  12.381
17940W        W91008  27.212  44.374   3.849
17941W        W91009   7.349  38.522   2.601
17942W        W91010  38.548  11.121   0.281
17943W        W91011  19.900  17.217   0.351
17944W        W91012  22.082  17.299   0.788
17945W        W91013  33.229  43.761  12.970
17946W        W91014  10.382  40.942   0.506
17947W        W91015  14.377   1.358  12.392
17948W        W91016  43.280  35.598  13.779
17949W        W91017  18.689  32.174  12.028
17950W        W91018   2.757  30.098   2.298
17951W        W91019  13.454   5.668   1.700
17952W        W91020  38.476  29.746   2.346
17953W        W91021  11.124  29.617  12.586
17954W        W91022  16.834  11.354   1.910
17955W        W91023  33.079  36.019   4.114
17956W        W91024   1.695  15.703  12.460
17957W        W91025   4.228  42.160   3.931
17958W        W91026   0.281  30.515   3.629
17959W        W91027   4.226  35.105  11.039
17960W        W91028   4.988  17.269   3.118
17961W        W91029  18.257  13.204   0.510
17962W        W91030  29.538   9.579  11.857
17963W        W91031   9.941  25.093   4.249
17964W        W91032  12.794  26.631   5.350
17965W        W91033  11.281  36.607   4.075
17966W        W91034   9.844   5.814   4.536
17967W        W91035  19.817  29.284  13.397
17968W        W91036  22.811   9.401  13.478
17969W        W91037   6.097  16.246  11.606
17970W        W91038  23.962  32.953  10.865
17971W        W91039  10.351   8.792   4.146
17972W        W91040  40.474  35.415  11.632
17973W        W91041  14.754  17.517   4.543
17974W        W91042   3.278  11.226  12.155
17975W        W91043   4.859   8.162  14.019
17976W        W91044  28.194  39.888  11.665
17977W        W91045  14.655  30.159  13.790
17978W        W91046  13.842  25.010   1.960
17979W        W91047   4.299  42.414   4.368
17980W        W91048  40.734   5.167  13.043
17981W        W91049  35.380  22.961  11.609
17982W        W91050  36.539  36.425  11.790
17983W        W91051  16.405  21.319   0.339
17984W        W91052  33.003  39.286   2.727
17985W        W91053  19.984  43.279   5.462
17986W        W91054   7.683  33.701  11.581
17987W        W91055  12.098  29.478   2.113
17988W        W91056  26.018   0.500  11.534
17989W        W91057  22.719  31.410   3.094
17990W        W91058  34.215  21.398   0.878
17991W        W91059  24.752  16.069   2.672
17992W        W91060  42.949  40.868   2.571
17993W        W91061  42.799  25.024   3.196
17994W        W91062   0.714  19.245   0.780
17995W        W91063  20.671  42.780   2.080
17996W        W91064  12.274  18.172  11.514
17997W        W91065   9.872   2.764   3.598
17998W        W91066  26.200  23.714  13.153
17999W        W91067   8.708  14.258  12.506
18000W        W91068  35.307  17.650   1.910
18001W        W91069  16.786   7.158  10.362
18002W        W91070  36.680  10.145  10.824
18003W        W91071  19.183  43.763   0.476
18004W        W91072  29.103  34.297   2.622
18005W        W91073   9.575  39.798   3.805
18006W        W91074   8.210  31.025   2.134
18007W        W91075  41.927  29.177  10.673
18008W        W91076  10.308  18.800   4.942
18009W        W91077  32.139   6.184  14.799
18010W        W91078   3.586   6.902   1.762
18011W        W91079  13.772  16.135  11.920
18012W        W91080  18.233   8.444   1.209
18013W        W91081  29.972  26.555   3.281
18014W        W91082  26.665  36.001   4.284
18015W        W91083  31.106   6.285  11.167
18016W        W91084  20.751  10.560   3.480
18017W        W91085  42.932  27.010  12.454
18018W        W91086  24.036  26.252   3.841
18019W        W91087  20.074  19.640   3.702
18020W        W91088   9.241  39.212   2.168
18021W        W91089   4.897  16.736   4.759
18022W        W91090  18.396   4.911   3.355
18023W        W91091  38.693  37.154  12.829
18024W        W91092  18.208   4.366  11.718
18025W        W91093  21.598  20.610  11.974
18026W        W91094   4.824  42.440   2.261
18027W        W91095  33.082  18.566  12.584
18028W        W91096  30.031   6.280   0.326
18029W        W91097   5.701  15.183  11.774
18030W        W91098   1.140   8.311  12.104
18031W        W91099  31.680  11.711  10.523
18032W        W91100  44.404  41.912  10.817
18033W        W91101   1.348   7.692  13.878
18034W        W91102  16.707   1.836  14.512
18035W        W91103   1.258  18.743  14.569
18036W        W91104  37.922  42.128  14.697
18037W        W91105  41.698   7.162  12.444
18038W        W91106  14.578  19.264  14.490
18039W        W91107   2.591  15.659   0.873
18040W        W91108  28.531   1.264   2.785
18041W        W91109  44.317  34.342  11.218
18042W        W91110   0.755  38.089  14.877
18043W        W91111  25.843  33.608  12.884
18044W        W91112  32.640  29.142   3.948
18045W        W91113  12.376  23.099   1.272
18046W        W91114  13.822   0.301  12.939
18047W        W91115  44.429  39.815  12.445
18048W        W91116  30.540  30.140  11.710
18049W        W91117  35.472  11.815   0.698
18050W        W91118  36.249  17.240  10.796
18051W        W91119  11.586   6.003  11.099
18052W        W91120  28.624  25.970   4.542
18053W        W91121  27.523   0.749   2.846
18054W        W91122  34.945  19.691  13.758
18055W        W91123  38.488  34.346   1.664
18056W        W91124  42.629  17.097   4.845
18057W        W91125  33.393  29.954   9.985
18058W        W91126  10.364  44.233   0.451
18059W        W91127  18.221  22.690  14.973
18060W        W91128  41.462  20.214  12.497
18061W        W91129   8.117  16.873  14.536
18062W        W91130  32.027  13.564  10.709
18063W        W91131  42.411  38.779   1.259
18064W        W91132   5.841  29.643  13.698
18065W        W91133  18.945  36.380  11.476
18066W        W91134   9.515  22.960   2.390
18067W        W91135  22.003  26.102   3.259
18068W        W91136  17.011  22.034   1.249
18069W        W91137  20.405  38.031  12.495
18070W        W91138  30.924  16.158  14.349
18071W        W91139  18.999  32.421   2.952
18072W        W91140   1.703  27.813  13.046
18073W        W91141  41.245   9.591  12.436
18074W        W91142  35.898   1.928  10.525
18075W        W91143  26.022  25.967  10.698
18076W        W91144  33.978  18.040   4.335
18077W        W91145  43.487  28.414   4.350
18078W        W91146  26.517  21.181  12.090
18079W        W91147  11.817   2.315  11.182
18080W        W91148  19.530   2.226   4.299
18081W        W91149  24.075  30.556  10.738
18082W        W91150  27.175  15.699  12.746
18083W        W91151  41.950   6.773   2.644
18084W        W91152  23.725  20.188  14.289
18085W        W91153  12.620  36.988  11.820
18086W        W91154   7.833  20.116  12.004
18087W        W91155  27.075  40.954   0.524
18088W        W91156  22.312  34.515   0.113
18089W        W91157  16.791  22.011  11.533
18090W        W91158  33.539   1.448  10.388
18091W        W91159  11.005  43.692   0.205
18092W        W91160  40.268  32.352   4.261
18093W        W91161  26.759  17.539  13.400
18094W        W91162   2.985  27.782  12.857
18095W        W91163  11.119   4.810   4.316
18096W        W91164  26.908  28.998   1.280
18097W        W91165  24.479  24.251   2.743
18098W        W91166  10.335  44.872   0.980
18099W        W91167  17.762  14.413  12.393
18100W        W91168  44.284  10.827   3.740
18101W        W91169  32.486  33.206  14.874
18102W        W91170  17.327  27.544   3.669
18103W        W91171  39.637  43.092  14.662
18104W        W91172  32.500  23.728   5.046
18105W        W91173   1.175  40.869  11.509
18106W        W91174  21.057  44.302  14.781
18107W        W91175   4.904   1.021  12.002
18108W        W91176  24.043  13.861  13.979
18109W        W91177  32.238  44.337  10.235
18110W        W91178   1.470  12.611  10.958
18111W        W91179  17.109   3.398   9.960
18112W        W91180  38.848  23.995  13.415
18113W        W91181  25.983   7.184   3.426
18114W        W91182  34.885  32.634   1.935
18115W        W91183   5.413   0.909  11.250
18116W        W91184  27.359  38.285  11.970
18117W        W91185  25.060  11.700  12.878
18118W        W91186  27.639  20.997  10.649
18119W        W91187   9.956  20.114   3.245
18120W        W91188  35.938  38.928   1.794
18121W        W91189   1.273  19.516   2.231
18122W        W91190  23.114  25.153   3.345
18123W        W91191  11.610  35.487  12.926
18124W        W91192  36.975   9.129   1.239
18125W        W91193   9.270  41.266  14.278
18126W        W91194  22.550  20.361  10.584
18127W        W91195   5.456  38.518  12.049
18128W        W91196  18.634  20.671  14.905
18129W        W91197  44.020  20.666  12.873
18130W        W91198  35.594  24.555  10.761
18131W        W91199  25.687  34.167  11.704
18132W        W91200  29.512  17.212  11.115
18133W        W91201  31.889  26.966   0.050
18134W        W91202   3.933   3.760  10.696
18135W        W91203  22.248  31.409   0.474
18136W        W91204  44.293  27.906  14.901
18137W        W91205   7.456  25.543   1.432
18138W        W91206  10.381  26.539  11.460
18139W        W91207  17.792   0.908   2.125
18140W        W91208  33.039   8.224  11.383
18141W        W91209  10.152   0.454  13.062
18142W        W91210  32.570  19.228   2.722
18143W        W91211  10.254  22.949   2.821
18144W        W91212  30.175  38.340   2.381
18145W        W91213  37.353  28.129  11.882
18146W        W91214   5.642  29.379  11.154
18147W        W91215  36.854  38.505   4.111
18148W        W91216  40.479  19.740  14.361
18149W        W91217  15.626   6.218   4.019
18150W        W91218  16.361   5.845  13.518
18151W        W91219  25.459  15.298  14.448
18152W        W91220  37.403  40.056  14.042
18153W        W91221  14.553  35.521  12.845
18154W        W91222  34.354  26.159  13.008
18155W        W91223  16.438   2.584   0.932
18156W        W91224  15.553  14.253  12.408
18157W        W91225   2.420   9.042  11.734
18158W        W91226  19.330   2.983  14.835
18159W        W91227  34.868   9.646   4.514
18160W        W91228  30.433   3.727   2.385
18161W        W91229  25.474  11.965  13.013
18162W        W91230  38.080  27.054   0.226
18163W        W91231  37.764  29.151   5.182
18164W        W91232  43.394   7.721   3.538
18165W        W91233  42.510   7.482   2.684
18166W        W91234  15.231   1.060  12.915
18167W        W91235  28.497  42.811   1.631
18168W        W91236  25.309  40.816   4.956
18169W        W91237  42.739   7.005  11.584
18170W        W91238  19.268  41.463  13.452
18171W        W91239  20.877  14.592   2.679
18172W        W91240  20.773  44.287  10.625
18173W        W91241  25.830  42.281  14.883
18174W        W91242  29.008  10.238   0.345
18175W        W91243  31.145  39.453   2.289
18176W        W91244  21.625  10.153   1.247
18177W        W91245  30.559  27.503   4.134
18178W        W91246   7.036  44.713  10.266
18179W        W91247  15.494  42.476  14.795
18180W        W91248   0.733   3.957  10.690
18181W        W91249   5.177  23.539   2.062
18182W        W91250  10.734  39.278   4.140
18183W        W91251  23.876  22.302  13.414
18184W        W91252   4.400  18.528  14.524
18185W        W91253   6.588  28.000  13.387
18186W        W91254  36.445  41.320   1.785
18187W        W91255  42.793  33.387  13.156
18188W        W91256  43.533   6.347  10.795
18189W        W91257  26.910  37.994  11.640
18190W        W91258  37.830  28.491   2.440
18191W        W91259  37.427   1.813   3.706
18192W        W91260  29.152  31.733  12.524
18193W        W91261  30.922  33.600   2.811
18194W        W91262  30.927  23.806   1.242
18195W        W91263  21.823  12.142  13.520
18196W        W91264  28.686  38.240   2.750
18197W        W91265  21.798  11.361  11.647
18198W        W91266   3.289   2.497   3.002
18199W        W91267  33.561   5.899   1.462
18200W        W91268   0.289  25.414   1.845
18201W        W91269  11.198  31.839   4.532
18202W        W91270  39.399  34.762  14.528
18203W        W91271  42.407   3.397  13.608
18204W        W91272  16.673  29.093   2.837
18205W        W91273  24.976  28.557   4.669
18206W        W91274  27.042  28.171  13.339
18207W        W91275   2.987  10.449  14.563
18208W        W91276  16.116  10.895   1.857
18209W        W91277  15.368  25.672   4.632
18210W        W91278  35.998  41.451   4.227
18211W        W91279  20.588  14.117   1.423
18212W        W91280  39.455   8.976  13.313
18213W        W91281  28.700  40.625  11.541
18214W        W91282  37.862   1.151  10.119
18215W        W91283  36.436  15.241   5.068
18216W        W91284  40.099   8.175  13.868
18217W        W91285   6.345   4.256  11.006
18218W        W91286  44.971  44.500   1.757
18219W        W91287  16.310   8.437  12.352
18220W        W91288   4.453  16.050   4.182
18221W        W91289  28.879  29.722  10.714
18222W        W91290  40.339   3.977   3.366
18223W        W91291  13.687  34.319  13.372
18224W        W91292  11.186  38.414  11.523
18225W        W91293  42.460  38.277  14.338
18226W        W91294   6.714  13.088  14.984
18227W        W91295  24.729  10.083   1.474
18228W        W91296   9.387  39.434  10.616
18229W        W91297  36.917  23.730   0.060
18230W        W91298  31.182  13.608  10.992
18231W        W91299   3.723  13.388   1.021
18232W        W91300  21.712  37.480   3.705
18233W        W91301  14.295  41.221  13.988
18234W        W91302  26.962   4.217  14.837
18235W        W91303  32.034  18.567  13.825
18236W        W91304   3.276   2.106   3.381
18237W        W91305  31.108   1.158   0.246
18238W        W91306  19.143   9.891  14.676
18239W        W91307  22.768  40.850  11.527
18240W        W91308  34.535  36.499   2.877
18241W        W91309   2.943  22.477  12.410
18242W        W91310  43.987  22.007   3.403
18243W        W91311  36.068  25.031  14.273
18244W        W91312   4.167  20.858  10.373
18245W        W91313  28.952  15.301   1.397
18246W        W91314  38.839  23.989   5.009
18247W        W91315  13.632  18.697   3.624
18248W        W91316   5.164  24.984   0.352
18249W        W91317  35.581   7.493  10.644
18250W        W91318  35.317  10.769  14.559
18251W        W91319  14.907  26.858   1.150
18252W        W91320  18.177  16.180   0.883
18253W        W91321   0.551   8.731   0.548
18254W        W91322  15.042  28.813  10.683
18255W        W91323   2.865  38.791  12.389
18256W        W91324  23.455  42.241   4.102
18257W        W91325  21.234  15.733   3.636
18258W        W91326  37.401  21.602   2.666
18259W        W91327   8.167  13.173  10.847
18260W        W91328  27.715  21.609  13.829
18261W        W91329  11.590   8.431  12.492
18262W        W91330  14.845  12.932  13.447
18263W        W91331  15.212  22.211   2.407
18264W        W91332  16.852   6.283   0.535
18265W        W91333  43.950  43.390   4.675
18266W        W91334  13.080  34.858   3.664
18267W        W91335  34.395  33.519  14.819
18268W        W91336  36.431  22.349  11.111
18269W        W91337  41.792  10.151  14.383
18270W        W91338  33.270  31.377   3.675
18271W        W91339  41.433  44.844   3.183
18272W        W91340  31.907  13.454   5.020
18273W        W91341   8.819  27.251   1.356
18274W        W91342  41.402   4.967   4.728
18275W        W91343  16.176   7.623   4.198
18276W        W91344  26.437  39.123   5.043
18277W        W91345  15.569  37.441  11.525
18278W        W91346   5.410  23.971   1.000
18279W        W91347  38.440   3.770   2.762
18280W        W91348   3.235  11.646  14.567
18281W        W91349  37.974  15.210  10.543
18282W        W91350   0.512  30.539   3.150
18283W        W91351  39.977   2.554  13.460
18284W        W91352  18.739  44.638   0.483
18285W        W91353   8.919   4.413  14.928
18286W        W91354   5.689  19.627  14.454
18287W        W91355  19.473  38.417   3.203
18288W        W91356  33.402  25.995   1.902
18289W        W91357  43.730  15.912  14.663
18290W        W91358  28.124  14.696   4.839
18291W        W91359  16.729  42.139  14.505
18292W        W91360  27.817  11.179   2.634
18293W        W91361  40.793   2.517  11.634
18294W        W91362  10.285  20.228   1.806
18295W        W91363  15.319   3.815  13.086
18296W        W91364  42.743  38.504   0.920
18297W        W91365  20.847  12.574  13.123
18298W        W91366   1.002  41.289   2.318
18299W        W91367   1.779  29.332  10.653
18300W        W91368  14.578  30.115   1.257
18301W        W91369  36.882   6.700  10.735
18302W        W91370  10.230   2.750  12.507
18303W        W91371  22.265   9.469  14.957
18304W        W91372  42.860  21.930   0.269
18305W        W91373  39.591   7.897  14.910
18306W        W91374   2.861  10.190  12.947
18307W        W91375  23.081  20.495   0.324
18308W        W91376  24.008  20.232  13.840
18309W        W91377   8.950  37.293  13.832
18310W        W91378  43.212  31.866   3.721
18311W        W91379  25.626  27.217   1.279
18312W        W91380  36.962   1.564   3.010
18313W        W91381  37.774  40.417   0.208
18314W        W91382  42.419  38.353   2.255
18315W        W91383  28.059  35.528   0.453
18316W        W91384  29.490   6.751  11.617
18317W        W91385  12.957  40.448  12.369
18318W        W91386  27.187   4.872   0.156
18319W        W91387   2.533   1.588  11.899
18320W        W91388   3.374  34.702  11.421
18321W        W91389  30.543  24.367   0.458
18322W        W91390  22.586  34.897   0.372
18323W        W91391  16.894  38.482   4.571
18324W        W91392  14.001  16.360  11.518
18325W        W91393  38.879  32.906  13.502
18326W        W91394  40.582  12.491  13.152
18327W        W91395  32.059  26.503  13.366
18328W        W91396  28.243  25.661   3.796
18329W        W91397  33.998  24.497   1.291
18330W        W91398   6.130  44.832   3.756
18331W        W91399  27.189  25.090   3.237
18332W        W91400  42.445  28.037   4.815
18333W        W91401  17.999  14.522   3.659
18334W        W91402  15.905  32.891   1.428
18335W        W91403  14.549   8.462   1.843
18336W        W91404  25.577  19.051   4.746
18337W        W91405  25.150  39.055   3.698
18338W        W91406  39.593   2.921   4.945
18339W        W91407   0.827   9.143   3.637
18340W        W91408  20.141  16.534   1.812
18341W        W91409  42.810  15.645  10.648
18342W        W91410  43.818  25.098   4.628
18343W        W91411  35.775  39.582   4.359
18344W        W91412  19.249  41.462  14.772
18345W        W91413  17.375   9.157  14.456
18346W        W91414   1.775  36.615   0.709
18347W        W91415  35.075   9.832  14.319
18348W        W91416  15.490  43.277   3.315
18349W        W91417  18.189  38.361   4.707
18350W        W91418  33.021  17.320   3.236
18351W        W91419  25.097  10.620   3.098
18352W        W91420   7.337  44.673   0.408
18353W        W91421  17.711   5.441   2.877
18354W        W91422  28.843  36.409   0.277
18355W        W91423  37.065   4.422  14.293
18356W        W91424   0.691  30.137   4.282
18357W        W91425  22.147  43.977  11.563
18358W        W91426  14.379  28.124   4.810
18359W        W91427  28.933   7.800  12.069
18360W        W91428   2.598  30.719  14.274
18361W        W91429  12.020  43.460  10.621
18362W        W91430  39.737  36.596   0.971
18363W        W91431  37.882  38.504   3.783
18364W        W91432  35.011   8.748  14.851
18365W        W91433   1.247  16.232   1.621
18366W        W91434  20.189  17.052  13.953
18367W        W91435   6.272   2.383  10.870
18368W        W91436  37.334  17.172  11.589
18369W        W91437  25.997   6.505   1.581
18370W        W91438   3.218  19.216   3.308
18371W        W91439  33.259  38.435   3.174
18372W        W91440  15.574  43.637  11.453
18373W        W91441  34.434   1.543   2.374
18374W        W91442  26.588   4.275   3.218
18375W        W91443   8.326  23.444   3.122
18376W        W91444  35.162   4.201  13.913
18377W        W91445  32.892  43.189   2.260
18378W        W91446   7.378  15.262  12.318
18379W        W91447  19.928   1.922   4.117
18380W        W91448  13.201  36.113   0.123
18381W        W91449  42.491  41.637   2.319
18382W        W91450  10.235  33.329  10.797
18383W        W91451  39.321  17.569   0.876
18384W        W91452  24.452  19.434   2.801
18385W        W91453   4.237  33.960   4.322
18386W        W91454  21.053  12.140   3.863
18387W        W91455  37.489  44.375  12.137
18388W        W91456   0.311  35.491  14.222
18389W        W91457   8.771   5.604   1.660
18390W        W91458  25.058  14.006  11.119
18391W        W91459  17.563  28.475  14.729
18392W        W91460  23.089  27.052  13.343
18393W        W91461  13.362  20.069  14.313
18394W        W91462  29.186  32.116  12.888
18395W        W91463  36.998  30.449   2.843
18396W        W91464   4.219  39.287   4.055
18397W        W91465  26.424  21.357   4.140
18398W        W91466   8.322   7.887  13.399
18399W        W91467  42.120  43.489  13.488
18400W        W91468  41.196  39.947  13.078
18401W        W91469  14.080  14.695   2.938
18402W        W91470  34.682  26.996  12.359
18403W        W91471  19.162  18.410  11.278
18404W        W91472  24.676  30.939  11.060
18405W        W91473  23.714  33.518  13.036
18406W        W91474  40.390  29.498   3.296
18407W        W91475  34.043  32.209   3.643
18408W        W91476  10.828  26.445   0.304
18409W        W91477   9.963  43.009   3.180
18410W        W91478  30.213  20.051   3.793
18411W        W91479   8.486  24.184  14.289
18412W        W91480  25.621  23.204  12.067
18413W        W91481  15.151  37.347  10.523
18414W        W91482  26.895   1.779  14.828
18415W        W91483   0.992  22.737   4.697
18416W        W91484  43.896  40.727   4.031
18417W        W91485   0.006  17.711   1.214
18418W        W91486  10.235  11.606  14.906
18419W        W91487  38.816  14.568   1.233
18420W        W91488  14.532  38.495  12.506
18421W        W91489  28.025  13.902  11.966
18422W        W91490  42.797   4.326   2.921
18423W        W91491  32.584  22.336  14.899
18424W        W91492   2.489  28.904  12.665
18425W        W91493   2.531  36.453  14.159
18426W        W91494   4.375   4.477   2.629
18427W        W91495  13.805  13.270  12.135
18428W        W91496  15.099  35.047  12.042
18429W        W91497   9.414  31.538   1.869
18430W        W91498   4.125  12.429  11.257
18431W        W91499  13.572  40.933  14.418
18432W        W91500  10.705  13.177  12.368
18433W        W91501  22.838  30.730   4.173
18434W        W91502  37.110  33.102  12.621
18435W        W91503  43.747   6.196  12.486
18436W        W91504  10.741  32.869   3.206
18437W        W91505  41.767  29.085  12.116
18438W        W91506  38.917  21.523  13.866
18439W        W91507  40.309  13.871  14.838
18440W        W91508   6.919   6.908   1.410
18441W        W91509  18.358  44.381  12.518
18442W        W91510  37.502  29.367   0.731
18443W        W91511   0.753  14.154  13.016
18444W        W91512   3.849  26.902  10.674
18445W        W91513  41.484  12.701  14.701
18446W        W91514  14.329  29.238  14.847
18447W        W91515  44.266  33.768   1.065
18448W        W91516  17.636   5.216  14.919
18449W        W91517  34.564  41.803   2.853
18450W        W91518  26.161  12.067  14.518
18451W        W91519  10.879  24.437  11.946
18452W        W91520   2.708   5.915  12.390
18453W        W91521  41.359  24.256  11.545
18454W        W91522  32.170  27.839  12.107
18455W        W91523  32.624   6.384  14.545
18456W        W91524   6.725   5.866  12.156
18457W        W91525  31.788  29.235   2.824
18458W        W91526  18.248  20.860   1.948
18459W        W91527  37.389  39.736  12.572
18460W        W91528  13.073  21.638   1.752
18461W        W91529  17.796  34.071  11.665
18462W        W91530  42.916  40.956   3.064
18463W        W91531  40.454  37.270  14.356
18464W        W91532  43.322  25.655   2.168
18465W        W91533  16.211  43.214   1.836
18466W        W91534  44.440   4.510  11.599
18467W        W91535  11.470  11.452   1.944
18468W        W91536  33.498  12.630  14.494
18469W        W91537  31.510  38.159   1.442
18470W        W91538  14.664   2.418   3.886
18471W        W91539  23.903   1.895   0.906
18472W        W91540  18.673  10.142   2.200
18473W        W91541  34.893   6.171   1.371
18474W        W91542  14.206   3.197   1.942
18475W        W91543  31.455  33.167   3.591
18476W        W91544  32.127  22.193  12.663
18477W        W91545  20.494  42.837  14.288
18478W        W91546  34.221  14.742   3.542
18479W        W91547  27.677  23.073   2.925
18480W        W91548  41.295  19.572   3.396
18481W        W91549  40.464  41.100  14.864
18482W        W91550  34.980  32.592  10.685
18483W        W91551  10.578  35.569   0.805
18484W        W91552  28.586   2.367   1.467
18485W        W91553  28.420   0.746  12.427
18486W        W91554  21.557  35.269   1.832
18487W        W91555   0.880  34.467   4.324
18488W        W91556  19.500  37.549  13.565
18489W        W91557   8.721  15.184   3.781
18490W        W91558  28.172  40.499   4.097
18491W        W91559  18.539  39.527  10.868
18492W        W91560  41.866   2.275  14.110
18493W        W91561   2.165  19.565   4.617
18494W        W91562  43.945  23.598  11.822
18495W        W91563  11.632   3.111   1.339
18496W        W91564   6.760  26.377  14.874
18497W        W91565  29.641  13.191  12.329
18498W        W91566  35.296  32.574   3.927
18499W        W91567  29.891  17.086  11.433
18500W        W91568   6.676  19.281   1.857
18501W        W91569  13.734  36.994  13.995
18502W        W91570  16.356  33.475   4.387
18503W        W91571  27.740  35.358  10.358
18504W        W91572  38.100   8.529   3.205
18505W        W91573  37.057   9.732  13.098
18506W        W91574  28.498  20.948   0.659
18507W        W91575  17.681  36.081  10.658
18508W        W91576   5.485   8.448  11.488
18509W        W91577   6.299  41.850   0.415
18510W        W91578  36.804   9.262   3.638
18511W        W91579  43.965  21.566  12.844
18512W        W91580  12.105  27.195  12.966
18513W        W91581   0.499   9.891  10.872
18514W        W91582  14.578  37.311  10.426
18515W        W91583   7.452  34.171   2.915
18516W        W91584  22.213  19.193   3.530
18517W        W91585  18.619  35.441  10.597
18518W        W91586  24.273  40.422   1.346
18519W        W91587  12.207  39.120  13.102
18520W        W91588   5.374  12.466   3.786
18521W        W91589   0.014   9.608  14.375
18522W        W91590   1.410  26.438   0.882
18523W        W91591  43.297  43.364  12.984
18524W        W91592  23.769  19.713  12.588
18525W        W91593  12.686   4.653   0.915
18526W        W91594  44.997  13.728   2.875
18527W        W91595  44.737   8.332   0.500
18528W        W91596  28.143  35.605   0.980
18529W        W91597  25.655  15.883   2.325
18530W        W91598   0.826  42.500   2.710
18531W        W91599  30.991  31.364  10.614
18532W        W91600  16.200  43.249  12.881
18533W        W91601  29.855  28.628   3.024
18534W        W91602  10.619  24.176   1.032
18535W        W91603   1.402  14.665   4.549
18536W        W91604  27.880  32.019  12.537
18537W        W91605  11.681  15.888  10.657
18538W        W91606  32.115   2.992   3.568
18539W        W91607  27.949  12.909  11.998
18540W        W91608  32.623  16.815   1.470
18541W        W91609  21.440  13.813  10.666
18542W        W91610  22.506  19.159  12.187
18543W        W91611  43.551  24.100  10.686
18544W        W91612  40.826  38.444  11.170
18545W        W91613  37.988   9.640  11.533
18546W        W91614  22.445  40.159  14.482
18547W        W91615  17.774  27.732  11.945
18548W        W91616  30.284   8.347   2.712
18549W        W91617  42.288   7.809  11.643
18550W        W91618  14.830  41.002  11.131
18551W        W91619  28.142  15.297   1.957
18552W        W91620   6.275  37.058   1.110
18553W        W91621  16.832   3.997   1.662
18554W        W91622   3.213  15.526   2.766
18555W        W91623   9.779   2.724  13.304
18556W        W91624  43.510  10.613  13.917
18557W        W91625  43.861  40.065   1.525
18558W        W91626   4.333  43.278   3.686
18559W        W91627  17.073  37.616  11.517
18560W        W91628  34.112  33.477   0.324
18561W        W91629  43.382  29.807   0.725
18562W        W91630  33.719  10.767  12.613
18563W        W91631  24.769  24.272  12.974
18564W        W91632   2.240  18.744   3.219
18565W        W91633  13.456  18.004  10.346
18566W        W91634   5.051  42.612   3.267
18567W        W91635  12.899  24.949   1.717
18568W        W91636   6.800   6.399   3.616
18569W        W91637   4.194  15.218   1.924
18570W        W91638  12.192  25.966  11.049
18571W        W91639   6.061   8.914   0.268
18572W        W91640  27.520   6.213  11.599
18573W        W91641  25.171  11.224  10.579
18574W        W91642  32.416  13.328  12.921
18575W        W91643  12.084   5.319  12.540
18576W        W91644  35.801  28.744   2.910
18577W        W91645  43.985  40.256  14.408
18578W        W91646  18.441   5.881   3.211
18579W        W91647  33.909  24.842   0.809
18580W        W91648  32.609  20.468   1.557
18581W        W91649   0.572  14.137   4.004
18582W        W91650  44.438  33.398  12.608
18583W        W91651   4.377  19.032   2.653
18584W        W91652  37.918  19.509  14.801
18585W        W91653  36.410   7.225   0.271
18586W        W91654  11.866  29.528   1.572
18587W        W91655  39.004  17.792   4.785
18588W        W91656   7.406   6.320  14.254
18589W        W91657  19.053  32.823   0.453
18590W        W91658  29.865  17.558   4.573
18591W        W91659  11.175  43.791   2.323
18592W        W91660  43.000   1.427  12.112
18593W        W91661   7.381  42.280   4.674
18594W        W91662   1.852  38.426   1.844
18595W        W91663  24.757   0.828  11.576
18596W        W91664  26.283  43.088  13.273
18597W        W91665  21.502  12.184   0.932
18598W        W91666  35.320  43.577  12.409
18599W        W91667  24.599  34.647  12.028
18600W        W91668   9.846  25.048  11.208
18601W        W91669  39.982  36.888   2.211
18602W        W91670  39.559  30.630   3.626
18603W        W91671  30.225  27.732  14.319
18604W        W91672   3.188  26.019  14.479
18605W        W91673  26.115  12.967  14.966
18606W        W91674  12.394  19.189  12.992
18607W        W91675  13.225  28.999   0.768
18608W        W91676  15.604  21.749  12.813
18609W        W91677  40.109  20.048   4.927
18610W        W91678  13.689  32.967  13.551
18611W        W91679   8.939  23.719  13.529
18612W        W91680  32.411  23.553  10.690
18613W        W91681  26.635  16.797  14.839
18614W        W91682  33.976  13.338   4.318
18615W        W91683   2.914  34.641   1.419
18616W        W91684  32.087  44.797  11.832
18617W        W91685  10.696  12.231  10.359
18618W        W91686  14.558  31.642  12.495
18619W        W91687  39.283  44.758  11.478
18620W        W91688  31.067  10.245  12.261
18621W        W91689  20.597  42.068  10.678
18622W        W91690   2.905   1.934  11.672
18623W        W91691  29.396   2.259   3.341
18624W        W91692  20.669  38.142  10.705
18625W        W91693  31.633  42.082  13.336
18626W        W91694  11.025  19.740   2.064
18627W        W91695  26.757   8.356  10.629
18628W        W91696  12.490  22.193   1.706
18629W        W91697  21.981  41.467  10.782
18630W        W91698  29.138  31.920   0.056
18631W        W91699  38.230  33.469   0.747
18632W        W91700  38.417  26.856  14.466
18633W        W91701  17.420  13.858  13.516
18634W        W91702  42.210  32.400   1.652
18635W        W91703  23.813  13.293  10.665
18636W        W91704  25.065  38.912  11.884
18637W        W91705   0.543  20.510   0.141
18638W        W91706  24.658  29.181  11.650
18639W        W91707  10.819  16.113  10.909
18640W        W91708   4.736  44.523   3.778
18641W        W91709  21.554  14.874   0.821
18642W        W91710  40.048  38.995  11.082
18643W        W91711  32.491   1.271  11.664
18644W        W91712  28.389   0.818  11.406
18645W        W91713  15.222  24.921   4.138
18646W        W91714  33.264   5.847   0.008
18647W        W91715  19.779  24.389   2.748
18648W        W91716  31.645   8.840   0.260
18649W        W91717  17.495  42.923   1.647
18650W        W91718  30.081   3.915   1.150
18651W        W91719  21.207  23.571  12.450
18652W        W91720  31.262   0.191   0.434
18653W        W91721  39.316  10.425  10.723
18654W        W91722   2.091  44.949  10.804
18655W        W91723   2.973  15.051  14.399
18656W        W91724  23.270  23.269  14.235
18657W        W91725  33.091  11.123   3.309
18658W        W91726  26.460   1.745  11.083
18659W        W91727  22.086   2.669   4.235
18660W        W91728  11.722  44.370   2.789
18661W        W91729  39.441  19.543  13.264
18662W        W91730  13.630  13.696   1.438
18663W        W91731  41.770  32.844   2.160
18664W        W91732  30.611  42.503  13.374
18665W        W91733  35.530  24.979   3.717
18666W        W91734  35.975  27.785  14.733
18667W        W91735  16.072  14.175  12.441
18668W        W91736  16.956  43.936  14.819
18669W        W91737  35.366  31.114   4.075
18670W        W91738   9.284   4.326  12.357
18671W        W91739  18.258  25.936  11.840
18672W        W91740   5.683  41.843   3.653
18673W        W91741  38.510  10.883   0.735
18674W        W91742  23.076  44.330   4.135
18675W        W91743  39.363  26.494   3.735
18676W        W91744  20.138  41.129  11.697
18677W        W91745  18.931   2.202   5.237
18678W        W91746  16.128  36.986   1.567
18679W        W91747  40.529  39.328  10.337
18680W        W91748   5.726  16.592   0.932
18681W        W91749  25.723  43.428  11.269
18682W        W91750  17.483  27.071   3.513
18683W        W91751  35.108   4.378  12.843
18684W        W91752  28.462  39.950   0.095
18685W        W91753  44.366   2.066  14.222
18686W        W91754  23.681  29.204   2.131
18687W        W91755   4.815   9.195  11.520
18688W        W91756  11.244  39.913   4.335
18689W        W91757  19.281   8.677   2.830
18690W        W91758   8.208  17.705   0.993
18691W        W91759  34.009  27.593  10.684
18692W        W91760  29.743   7.271  11.747
18693W        W91761  37.726  35.741   4.687
18694W        W91762   0.045   5.331  11.947
18695W        W91763  18.485  22.702   4.214
18696W        W91764  39.366  32.821   0.885
18697W        W91765  38.268  24.149   0.113
18698W        W91766   7.287   4.162   1.320
18699W        W91767   6.274  27.183   3.173
18700W        W91768  31.216  21.263  12.556
18701W        W91769  32.887   8.325   0.392
18702W        W91770  18.102  18.805  11.918
18703W        W91771  12.929  30.441   2.842
18704W        W91772  17.359  32.080   3.235
18705W        W91773   5.871  41.312  13.342
18706W        W91774  44.900   1.184   0.212
18707W        W91775  16.918  34.362  12.042
18708W        W91776   7.662  16.504   2.914
18709W        W91777  36.869   8.941   0.760
18710W        W91778  37.385  31.264  12.598
18711W        W91779  21.158  36.954   1.746
18712W        W91780  18.995  18.717  11.660
18713W        W91781  40.102  42.702  12.128
18714W        W91782  13.151  38.977  13.416
18715W        W91783  25.891  23.402  11.184
18716W        W91784  30.519  21.283  11.764
18717W        W91785   7.326  40.567  12.138
18718W        W91786  34.089  31.486   1.288
18719W        W91787  15.619   7.244  12.423
18720W        W91788  43.724   3.422  14.816
18721W        W91789  32.020  14.282  14.309
18722W        W91790  40.537  40.979  11.136
18723W        W91791   9.109  15.915  10.966
18724W        W91792  44.395  39.972  13.445
18725W        W91793  44.904  13.582   3.367
18726W        W91794  33.448  23.509  12.916
18727W        W91795  25.647  21.062   3.737
18728W        W91796  34.530  19.914   1.815
18729W        W91797  32.190  40.577   4.537
18730W        W91798  41.357  10.544   2.374
18731W        W91799  20.708  12.714   5.079
18732W        W91800  43.890  16.841   1.971
18733W        W91801   8.955  19.801   0.429
18734W        W91802  44.203  13.262  14.348
18735W        W91803  15.183   2.300   1.406
18736W        W91804   9.679  19.296   3.745
18737W        W91805  16.500  34.469   4.922
18738W        W91806  40.082   8.616  12.947
18739W        W91807  27.756  12.167   0.527
18740W        W91808  11.321  24.194  14.744
18741W        W91809  42.877  21.781  11.151
18742W        W91810  18.768  11.359   1.581
18743W        W91811  21.526  28.037  10.398
18744W        W91812  24.037  28.822   3.288
18745W        W91813  34.270   4.908   4.539
18746W        W91814   5.466  42.259   2.281
18747W        W91815  41.916  29.010  12.630
18748W        W91816  27.960  18.299   0.278
18749W        W91817   8.937   4.297  10.622
18750W        W91818  19.645   4.162  11.136
18751W        W91819   5.332   7.541  13.047
18752W        W91820  37.864   7.404  12.898
18753W        W91821  18.794  26.878   4.277
18754W        W91822  12.366  34.306  11.082
18755W        W91823  38.960  18.188   1.803
18756W        W91824   2.237  29.963   0.565
18757W        W91825  38.839  27.452   3.773
18758W        W91826  31.454  11.671   0.545
18759W        W91827  15.907  10.187   5.126
18760W        W91828  41.315  14.191   2.254
18761W        W91829   8.109   6.340  12.559
18762W        W91830  11.805  42.762  14.340
18763W        W91831  29.014   3.901   3.717
18764W        W91832   4.330  18.540  12.468
18765W        W91833  37.175   5.788  10.260
18766W        W91834   6.630  25.299   3.678
18767W        W91835  16.045   8.783  13.077
18768W        W91836  34.335   2.080   2.501
18769W        W91837   2.356  17.805   2.707
18770W        W91838   2.913  42.938   0.773
18771W        W91839  24.056  44.512  11.683
18772W        W91840  41.268   2.112   0.510
18773W        W91841  14.593  19.543  12.538
18774W        W91842  26.162  13.606   2.747
18775W        W91843  26.700   9.191  12.835
18776W        W91844  31.122  17.815   3.164
18777W        W91845  30.306  14.402  12.949
18778W        W91846  40.524  36.402   0.473
18779W        W91847  33.740  15.820   4.522
18780W        W91848   8.104  27.007  14.658
18781W        W91849  34.971  15.050  13.423
18782W        W91850  29.674   4.384   1.353
18783W        W91851  34.326  14.873   3.057
18784W        W91852  16.842  20.649  10.703
18785W        W91853   4.419  11.864  12.966
18786W        W91854  35.329   5.775   0.338
18787W        W91855  39.372   5.771   0.276
18788W        W91856  42.759  23.967  14.839
18789W        W91857  14.776  21.320  12.924
18790W        W91858  26.478   1.748   2.555
18791W        W91859   6.337  41.204   1.833
18792W        W91860  26.717  22.145  10.224
18793W        W91861   4.966  36.524   4.199
18794W        W91862  40.786  27.629  11.557
18795W        W91863  15.047   8.709   3.676
18796W        W91864  20.276  31.988   0.758
18797W        W91865  21.137  24.255  14.492
18798W        W91866  20.961  29.807  14.964
18799W        W91867   5.366  28.163   3.300
18800W        W91868   1.813  44.639   0.771
18801W        W91869  18.660   1.947   2.316
18802W        W91870   1.202  32.013   0.007
18803W        W91871   8.070   5.929   2.851
18804W        W91872  37.508  24.044  13.152
18805W        W91873  18.745  26.972  12.414
18806W        W91874  11.440  20.074   2.763
18807W        W91875   4.685  19.787  11.153
18808W        W91876  43.423  25.229   3.700
18809W        W91877   1.902   0.084   2.858
18810W        W91878  19.163  10.128   1.919
18811W        W91879   5.270   9.058   0.021
18812W        W91880  28.983  30.902  12.156
18813W        W91881  35.101  31.595  14.865
18814W        W91882  12.597   4.407   0.450
18815W        W91883  41.050  26.567  11.940
18816W        W91884  22.270  42.475  12.477
18817W        W91885   7.499  26.662  13.047
18818W        W91886  16.257  38.269  12.837
18819W        W91887  18.827  17.587  11.185
18820W        W91888  38.393   5.905   5.368
18821W        W91889  30.533  17.071  14.396
18822W        W91890  38.335  11.114   1.170
18823W        W91891  35.642  12.852   3.600
18824W        W91892  40.283  30.425  13.895
18825W        W91893  42.734  15.780   0.238
18826W        W91894  10.051  19.979  11.453
18827W        W91895  17.099  25.046  13.342
18828W        W91896  18.514  25.615   0.324
18829W        W91897  44.983  20.777   1.336
18830W        W91898  27.421  17.812   3.640
18831W        W91899  34.937  34.666   3.207
18832W        W91900   3.287  15.775  13.322
18833W        W91901  23.362   2.733  14.239
18834W        W91902  17.918  33.471  13.336
18835W        W91903   7.637  18.776   2.400
18836W        W91904  40.840   7.962   4.110
18837W        W91905  29.633  39.213  13.249
18838W        W91906  30.012  13.290  14.783
18839W        W91907  21.960  25.017  11.617
18840W        W91908   0.128   7.052   1.223
18841W        W91909  10.436   8.754   0.534
18842W        W91910  37.983   4.377  12.909
18843W        W91911   0.003  24.176  14.515
18844W        W91912  22.486  10.737   1.231
18845W        W91913  39.517  39.344   1.272
18846W        W91914   0.791  40.891  14.416
18847W        W91915  18.206  19.789  14.372
18848W        W91916  11.281  26.250  11.042
18849W        W91917  16.766   6.737  13.138
18850W        W91918   1.857  38.934  10.965
18851W        W91919  29.370  31.736  11.203
18852W        W91920   9.419   9.907   1.725
18853W        W91921  28.782   2.390   1.967
18854W        W91922  22.202  21.718   1.128
18855W        W91923   8.135  36.755   4.055
18856W        W91924  19.797  35.920  12.960
18857W        W91925   9.367  37.781   1.823
18858W        W91926   1.779  25.770   3.660
18859W        W91927  43.026  35.922  12.484
18860W        W91928  41.883  21.224  12.086
18861W        W91929  44.352  16.221  12.891
18862W        W91930   7.340   8.363   2.862
18863W        W91931  43.025  37.915  13.131
18864W        W91932  33.956  41.508   0.411
18865W        W91933   9.825  33.878   1.424
18866W        W91934   0.290  28.126  12.407
18867W        W91935  37.607  20.383  11.218
18868W        W91936  40.607   8.772  13.962
18869W        W91937  37.374  31.086  13.466
18870W        W91938   5.227  23.257   3.333
18871W        W91939  37.442  37.284   4.071
18872W        W91940  14.529  40.992  12.028
18873W        W91941  11.812   3.392  11.511
18874W        W91942   9.856  38.388   1.903
18875W        W91943  32.459  39.627  12.344
18876W        W91944  16.067   7.466   1.805
18877W        W91945  44.961   3.936  14.385
18878W        W91946  37.506  13.086   3.832
18879W        W91947  29.238   2.184   2.189
18880W        W91948  34.894  39.918   1.734
18881W        W91949  20.814  17.358  11.594
18882W        W91950  18.003  20.609   2.927
18883W        W91951  26.106  39.785  12.007
18884W        W91952  14.555   0.694  11.635
18885W        W91953   3.437  12.108   4.699
18886W        W91954  23.994  33.347   2.824
18887W        W91955  14.207  21.468  10.698
18888W        W91956   6.520  25.043  12.023
18889W        W91957  13.197  23.570  11.149
18890W        W91958  17.807  13.513  14.823
18891W        W91959  35.664  30.408   1.457
18892W        W91960  34.002   8.266   2.244
18893W        W91961  17.630  31.844  12.235
18894W        W91962  27.350  17.237  13.476
18895W        W91963  33.002   2.172   2.850
18896W        W91964  31.239  24.138   0.938
18897W        W91965   9.848   6.909   1.776
18898W        W91966  43.691  35.418   1.868
18899W        W91967  11.650  13.236   4.058
18900W        W91968  36.163  29.143  10.577
18901W        W91969  11.191   8.008   1.435
18902W        W91970  33.017  20.043  13.917
18903W        W91971  24.531  19.949   1.158
18904W        W91972  29.604  42.829   4.722
18905W        W91973  35.519  34.854   4.178
18906W        W91974  29.073  14.853  12.343
18907W        W91975  20.155  34.855  11.046
18908W        W91976  24.504  43.018  13.002
18909W        W91977  13.177   8.379   0.287
18910W        W91978  33.584  17.311   0.742
18911W        W91979  41.412   6.367  11.420
18912W        W91980  31.159  39.122  13.827
18913W        W91981  29.076  19.608  11.049
18914W        W91982  33.553  25.986  10.533
18915W        W91983   6.380  15.252   3.375
18916W        W91984  42.873  32.645  10.183
18917W        W91985   4.866  30.603  13.866
18918W        W91986  16.589  21.598   3.613
18919W        W91987  20.787  23.060   1.366
18920W        W91988  23.029   1.203  13.038
18921W        W91989  18.361  31.153   0.786
18922W        W91990  36.803  31.435   4.585
18923W        W91991  16.126   2.915   2.125
18924W        W91992  13.257  19.292  12.517
18925W        W91993  11.821   3.749   0.885
18926W        W91994  24.502  15.620   1.270
18927W        W91995   2.802  23.603  11.263
18928W        W91996  36.069  32.084  12.382
18929W        W91997  38.774  44.339   3.261
18930W        W91998  35.089   0.786  12.808
18931W        W91999   3.414  12.245   1.284
18932W        W92000   8.952  23.960  14.362
18933W        W92001  34.564  17.224  12.881
18934W        W92002  41.560  14.758  12.239
18935W        W92003  11.277  25.679  14.767
18936W        W92004  34.395  38.870  13.789
18937W        W92005  28.027   8.791  10.332
18938W        W92006  11.426  42.707   0.933
18939W        W92007  43.911   5.052  13.601
18940W        W92008  12.171   4.374  11.614
18941W        W92009   0.197   4.681   1.265
18942W        W92010  28.895   1.885  13.499
18943W        W92011  28.998  44.869   1.756
18944W        W92012  44.510  36.007   1.860
18945W        W92013  11.355   7.130  13.334
18946W        W92014  10.409   1.907  13.860
18947W        W92015  36.261  21.305   1.438
18948W        W92016  20.714  16.777   1.211
18949W        W92017  42.290  23.069   3.836
18950W        W92018   4.880  28.348  12.975
18951W        W92019  12.195  23.222  10.939
18952W        W92020  35.360   1.467   4.039
18953W        W92021  42.421   8.207  11.940
18954W        W92022  12.611  17.154   2.298
18955W        W92023   0.540  34.136  14.578
18956W        W92024   6.099   6.939   1.846
18957W        W92025  19.131  42.529   2.339
18958W        W92026   4.154   1.046  10.778
18959W        W92027  38.058  43.199  13.846
18960W        W92028  36.330  16.886   0.282
18961W        W92029  17.216  12.713   0.142
18962W        W92030  26.588   6.697  12.920
18963W        W92031  42.927   1.655  12.865
18964W        W92032  43.757  16.290  13.794
18965W        W92033   3.274  23.384   3.801
18966W        W92034  29.172  29.005  11.876
18967W        W92035   0.693   6.757   2.402
18968W        W92036  10.872  27.489  10.875
18969W        W92037  41.069   9.321   2.255
18970W        W92038  34.364  27.175   3.096
18971W        W92039  30.061  40.520   0.901
18972W        W92040  43.882  24.926   5.137
18973W        W92041  44.479  28.183   0.815
18974W        W92042  24.169  14.207   3.702
18975W        W92043  19.258  42.388  14.821
18976W        W92044  21.758  33.479  11.996
18977W        W92045   6.396  16.007   2.803
18978W        W92046  30.052  19.552   3.823
18979W        W92047   4.724  32.230   5.095
18980W        W92048  26.090  29.382   3.214
18981W        W92049  33.520  18.193   0.068
18982W        W92050  36.057  15.637   4.389
18983W        W92051  32.354  44.470   1.176
18984W        W92052  39.508   0.202  11.650
18985W        W92053  19.851  43.283  14.905
18986W        W92054  22.785  37.357  13.426
18987W        W92055  12.296  43.528   0.449
18988W        W92056  44.553  41.962   1.181
18989W        W92057  11.187  18.149  12.842
18990W        W92058  23.405  23.278   4.903
18991W        W92059  11.839  13.079   3.588
18992W        W92060  41.743   3.248  13.010
18993W        W92061  33.911   3.172  13.827
18994W        W92062   1.540  16.131  10.635
18995W        W92063  31.992  14.799  14.485
18996W        W92064  15.081   1.039  14.375
18997W        W92065  37.970  41.478   1.857
18998W        W92066  31.473   0.221   3.335
18999W        W92067  13.165  14.308   4.596
19000W        W92068  16.542  33.587  12.060
19001W        W92069  34.905   9.667   3.655
19002W        W92070  21.693  36.677  12.512
19003W        W92071  21.086  15.090  11.489
19004W        W92072  38.427  37.538  13.871
19005W        W92073  42.766  16.082  13.068
19006W        W92074  44.000   1.471   0.038
19007W        W92075  29.908  28.176  12.524
19008W        W92076   7.586  18.083  13.010
19009W        W92077  15.360  16.323  13.443
19010W        W92078  38.433   4.151   2.363
19011W        W92079  17.268  38.844   4.585
19012W        W92080   3.778   2.942  13.361
19013W        W92081  36.060  31.494   1.206
19014W        W92082  40.359  29.779   1.893
19015W        W92083   4.426  14.281   1.744
19016W        W92084  32.683  20.446  14.935
19017W        W92085  39.804  17.402   0.781
19018W        W92086   4.029  36.004   4.246
19019W        W92087  33.657  42.071  11.130
19020W        W92088   3.177   4.346  11.062
19021W        W92089  10.584  10.402   2.815
19022W        W92090  41.279  24.126   2.919
19023W        W92091  25.118  21.005   0.466
19024W        W92092  42.229  41.440  13.748
19025W        W92093  19.399   5.325  12.012
19026W        W92094  28.903  33.105   4.543
19027W        W92095  16.087   8.951   2.542
19028W        W92096  32.891  40.392  12.544
19029W        W92097   6.993  17.692  10.432
19030W        W92098  44.206  21.639  14.199
19031W        W92099  14.252  36.833  11.568
19032W        W92100  20.012  19.001   0.022
19033W        W92101  25.837  39.312   3.444
19034W        W92102  29.403  39.283  13.736
19035W        W92103  25.838  20.199  11.899
19036W        W92104  26.837  10.413   0.289
19037W        W92105  41.311   9.782   1.808
19038W        W92106  35.513  25.210  14.762
19039W        W92107  32.587   3.208   3.676
19040W        W92108  22.209  30.559  10.464
19041W        W92109  33.469  12.282   1.713
19042W        W92110  14.161   7.553  11.857
19043W        W92111  31.794  12.853  14.156
19044W        W92112  17.173  21.335   4.575
19045W        W92113  16.451  35.522   2.348
19046W        W92114  12.694   0.413  11.444
19047W        W92115  15.855  38.058  14.083
19048W        W92116  20.719  43.532   4.160
19049W        W92117  27.829   9.929   9.790
19050W        W92118  33.626  23.323  12.077
19051W        W92119  25.037  44.743   1.008
19052W        W92120  39.846   2.470   2.838
19053W        W92121   5.355  27.484  11.462
19054W        W92122  18.458  24.677   1.198
19055W        W92123  20.100  25.699   4.735
19056W        W92124  32.567  14.167  14.289
19057W        W92125  36.982  16.232   0.322
19058W        W92126  22.085  44.243   4.369
19059W        W92127   7.359  14.320  13.029
19060W        W92128   8.197  25.962   2.291
19061W        W92129   4.879   4.138   1.887
19062W        W92130  12.169  24.027   1.704
19063W        W92131  21.468   3.263  12.506
19064W        W92132  16.145  10.104   2.263
19065W        W92133  15.989  17.580  13.796
19066W        W92134   5.950  36.538   1.297
19067W        W92135  34.021  44.205   0.750
19068W        W92136  40.951   9.693   1.416
19069W        W92137  25.782   1.478   5.066
19070W        W92138  39.863  11.730  12.626
19071W        W92139  36.512  34.176  11.813
19072W        W92140  22.959  21.761   0.570
19073W        W92141  31.041   7.861  13.785
19074W        W92142  16.684  14.227  14.509
19075W        W92143  37.626  15.393  11.927
19076W        W92144  25.134   9.408  13.550
19077W        W92145  35.424  31.161  13.419
19078W        W92146   1.902   7.701   4.129
19079W        W92147  21.707  20.477   0.653
19080W        W92148  19.069  27.398   0.896
19081W        W92149  19.778  27.914   2.745
19082W        W92150  24.274  24.551   2.352
19083W        W92151   1.728  43.801   4.898
19084W        W92152  21.695  25.583   1.143
19085W        W92153  13.774   0.912   0.537
19086W        W92154  26.654  14.114   1.497
19087W        W92155  31.408  28.260  13.314
19088W        W92156   6.447  35.614   0.775
19089W        W92157  39.442   3.787   2.444
19090W        W92158  16.221  17.785   4.564
19091W        W92159  28.950  33.347   0.921
19092W        W92160  28.433  20.056  10.625
19093W        W92161  17.186  30.539  11.993
19094W        W92162  17.639  34.572  11.564
19095W        W92163  17.504  31.363  11.553
19096W        W92164  38.946  21.540  12.519
19097W        W92165  32.435  30.424  11.101
19098W        W92166  11.284  31.898  11.969
19099W        W92167   3.726  10.314  13.410
19100W        W92168   9.353  39.653  12.470
19101W        W92169  23.388  30.432  14.537
19102W        W92170  13.833  36.033   1.481
19103W        W92171  14.555  35.047   1.371
19104W        W92172  14.322  40.410  11.179
19105W        W92173  30.177  40.338  12.811
19106W        W92174   1.403  21.294   4.822
19107W        W92175  15.050  22.069  13.436
19108W        W92176  33.449  43.543   1.514
19109W        W92177  35.537  20.244  13.486
19110W        W92178  44.988  25.970  12.443
19111W        W92179  37.039  23.701  14.021
19112W        W92180  11.280  10.925   1.953
19113W        W92181   0.012  13.192   3.667
19114W        W92182  35.602  41.440  12.636
19115W        W92183  29.120   8.610   4.652
19116W        W92184  40.041  44.218   4.074
19117W        W92185  15.860  21.134  13.942
19118W        W92186  37.221   2.972   4.204
19119W        W92187  13.147  27.885   3.153
19120W        W92188  27.539  13.613  14.829
19121W        W92189  16.868   8.852   2.313
19122W        W92190  30.359  10.261   2.789
19123W        W92191   1.796  38.460  14.302
19124W        W92192  27.737  23.657   0.195
19125W        W92193  33.081  14.116   4.918
19126W        W92194  38.775  36.454  12.518
19127W        W92195  31.695  31.705   4.854
19128W        W92196   2.791  37.948  13.091
19129W        W92197  32.980   3.244  10.409
19130W        W92198  14.557  25.866  12.435
19131W        W92199  39.815  36.630  11.102
19132W        W92200  37.747  12.703  11.113
19133W        W92201  38.566   4.877   1.679
19134W        W92202  19.351  33.168   3.165
19135W        W92203  42.822   5.660   3.343
19136W        W92204  44.726   2.471  14.551
19137W        W92205  21.789  23.213  14.499
19138W        W92206  20.104  40.574   1.008
19139W        W92207  14.492  35.047   2.756
19140W        W92208   3.694  14.918   3.413
19141W        W92209  36.269   2.247   0.443
19142W        W92210  42.964  11.610  11.059
19143W        W92211  35.950  32.409   3.245
19144W        W92212  11.241  12.945  11.497
19145W        W92213  19.132  27.888   0.773
19146W        W92214   4.896  40.590  12.651
19147W        W92215  30.384   0.699  14.055
19148W        W92216  23.624  25.425   0.425
19149W        W92217  11.594  39.331   4.117
19150W        W92218   7.107  41.585   1.832
19151W        W92219  28.936  42.979   3.950
19152W        W92220  14.551   4.339   2.184
19153W        W92221  35.090  26.483  14.893
19154W        W92222   4.634   8.436  13.323
19155W        W92223  40.428  12.601  11.963
19156W        W92224  23.255   6.835   3.788
19157W        W92225  13.526  21.187   5.051
19158W        W92226  30.284   6.832  12.942
19159W        W92227   1.861  28.698   3.654
19160W        W92228  19.067  22.826   1.859
19161W        W92229   1.233  14.313   0.236
19162W        W92230   3.301   2.457   1.010
19163W        W92231  11.876   1.230   0.394
19164W        W92232  39.727   6.458   5.473
19165W        W92233   7.751  42.736  12.026
19166W        W92234  16.274  25.663  14.971
19167W        W92235  34.963  14.301   1.410
19168W        W92236  25.456  22.524  13.629
19169W        W92237  23.176  40.299   0.082
19170W        W92238   4.999  43.668   0.075
19171W        W92239  14.302  18.282  10.851
19172W        W92240  14.071  42.543   2.857
19173W        W92241   7.717  31.835   1.532
19174W        W92242  16.098  38.737  13.102
19175W        W92243  33.057   9.983   5.012
19176W        W92244   7.630  41.589   4.213
19177W        W92245   3.628  25.864  13.486
19178W        W92246  31.901  13.527  11.620
19179W        W92247   1.304   4.920   4.499
19180W        W92248  28.752  43.307   2.715
19181W        W92249  17.227  18.105  14.449
19182W        W92250  24.519  25.698  14.781
19183W        W92251  27.872  43.756   3.923
19184W        W92252  22.209  40.006   3.259
19185W        W92253  27.140  40.834  14.997
19186W        W92254  25.636  12.584  12.169
19187W        W92255  23.369  26.546   4.247
19188W        W92256  26.019  42.418   0.374
19189W        W92257  28.235  17.599   3.149
19190W        W92258   0.797  11.262  14.710
19191W        W92259  31.405   5.693  11.352
19192W        W92260  41.019  20.253  14.253
19193W        W92261   0.941  28.513  11.841
19194W        W92262   8.587   1.266   2.361
19195W        W92263  24.465  39.287  14.994
19196W        W92264  10.135  23.967   4.867
19197W        W92265  31.174  39.556  14.964
19198W        W92266  23.055  11.286   0.440
19199W        W92267  21.514  36.139   3.075
19200W        W92268  29.566  10.841  12.118
19201W        W92269   8.627  16.303   2.963
19202W        W92270  44.375  41.220   1.064
19203W        W92271   4.441  30.584  14.712
19204W        W92272  23.204   1.814  11.620
19205W        W92273   2.253  13.290  14.306
19206W        W92274  44.736  24.957  11.097
19207W        W92275  12.711  42.483  14.713
19208W        W92276  31.845  22.748  14.868
19209W        W92277  15.864  43.380  14.444
19210W        W92278   3.674  11.970   1.653
19211W        W92279  17.222   5.716   4.585
19212W        W92280  40.966  37.830   1.352
19213W        W92281  32.059   6.335   0.289
19214W        W92282   6.711  35.487  12.863
19215W        W92283  19.085  17.292   2.827
19216W        W92284  26.501  29.264   0.429
19217W        W92285  28.400  29.407   2.753
19218W        W92286  40.421  23.022   4.093
19219W        W92287  30.596  14.448   4.001
19220W        W92288  27.839  33.646  14.280
19221W        W92289  15.758   4.679   4.871
19222W        W92290  27.541  30.596   2.715
19223W        W92291  19.209  13.089   1.481
19224W        W92292  16.074  44.099   1.908
19225W        W92293  20.654  11.402   3.758
19226W        W92294  11.915   3.501   2.280
19227W        W92295  42.379  10.034   4.995
19228W        W92296  21.468   6.896  14.988
19229W        W92297  32.103  42.800   1.814
19230W        W92298  13.780  16.349  12.876
19231W        W92299  20.699  36.364   0.034
19232W        W92300  30.016  14.260   4.762
19233W        W92301   6.505   8.846   2.664
19234W        W92302  18.750  30.124  12.949
19235W        W92303  23.656   8.162  12.895
19236W        W92304  24.523  35.371  13.810
19237W        W92305  40.505  34.494   2.353
19238W        W92306   5.619  26.021   2.904
19239W        W92307  35.825  43.894   2.709
19240W        W92308  39.937   9.096  13.092
19241W        W92309  42.450  12.343  11.058
19242W        W92310  15.798  31.665  11.172
19243W        W92311  36.014  31.686   2.649
19244W        W92312  23.526  43.166  11.591
19245W        W92313  34.811  43.774   0.349
19246W        W92314  16.240   4.463   4.868
19247W        W92315  43.953   8.769   0.401
19248W        W92316   2.992  31.904   2.784
19249W        W92317  42.303  34.436   4.175
19250W        W92318  21.158  22.477   4.634
19251W        W92319  25.977   3.030  14.252
19252W        W92320   8.212  40.900   4.791
19253W        W92321   3.786  42.386   3.827
19254W        W92322  26.556   4.227   2.698
19255W        W92323  24.496  44.392   4.424
19256W        W92324  26.983  38.531   3.481
19257W        W92325  24.721  25.235  11.942
19258W        W92326  43.185   1.487  11.185
19259W        W92327   4.329  15.086   4.134
19260W        W92328  37.428  19.550  11.560
19261W        W92329  20.653  27.847  11.392
19262W        W92330  23.227   7.874   0.056
19263W        W92331  33.730   6.402   0.618
19264W        W92332  31.885  23.277   2.876
19265W        W92333  29.197  44.397   1.921
19266W        W92334  20.362  14.092   4.870
19267W        W92335  12.482   6.953  11.126
19268W        W92336  20.294  34.306   4.573
19269W        W92337   4.948  27.516  10.769
19270W        W92338  17.578  23.523   2.212
19271W        W92339  11.166  12.342   3.731
19272W        W92340  24.405  25.207   3.784
19273W        W92341  17.102  43.007   0.770
19274W        W92342  16.647   3.129  14.502
19275W        W92343  43.692  42.922   1.960
19276W        W92344  17.258  38.435   2.839
19277W        W92345  34.712  34.657   0.539
19278W        W92346   1.794  34.411   0.902
19279W        W92347  19.593   2.683   4.536
19280W        W92348   3.925  38.864   3.674
19281W        W92349  20.939   6.192   3.741
19282W        W92350   5.831  29.746   2.343
19283W        W92351   3.166  43.383   0.815
19284W        W92352   6.402   7.373   1.768
19285W        W92353  16.108  14.517  12.009
19286W        W92354  21.267  34.836   3.114
19287W        W92355   6.951  19.113   2.247
19288W        W92356  25.913  31.601  14.945
19289W        W92357   8.700  12.106   1.359
19290W        W92358   7.960  10.229  12.700
19291W        W92359  38.811  18.257   0.319
19292W        W92360  13.238  36.231   4.943
19293W        W92361  22.690  32.923  11.116
19294W        W92362  36.950  31.260   3.184
19295W        W92363  13.661  17.923   1.453
19296W        W92364  39.465  36.162   0.204
19297W        W92365  15.138   6.928  13.410
19298W        W92366  37.543  12.290  14.938
19299W        W92367   4.459  40.434  14.544
19300W        W92368  11.603  31.736  12.347
19301W        W92369   0.298  20.763   4.300
19302W        W92370  31.400  18.658  10.703
19303W        W92371   1.459  12.406   3.779
19304W        W92372   5.727   4.005   1.814
19305W        W92373  24.560  37.074  12.016
19306W        W92374  12.087   0.557  13.690
19307W        W92375  17.644  37.359   3.177
19308W        W92376  37.985  18.309  11.910
19309W        W92377  16.591  42.796  13.639
19310W        W92378   3.365  42.844   0.380
19311W        W92379  19.952  31.020   2.776
19312W        W92380  24.985  35.043   1.003
19313W        W92381  29.443  18.579  14.742
19314W        W92382  17.686  38.594   2.361
19315W        W92383  33.868  37.986   1.979
19316W        W92384  34.586  38.630   1.209
19317W        W92385   4.218  12.916  13.759
19318W        W92386  33.221  42.310  14.377
19319W        W92387   2.055   8.346   2.698
19320W        W92388  16.611  42.069   3.591
19321W        W92389  10.391  37.061   0.379
19322W        W92390  30.944  39.079  14.834
19323W        W92391  43.861  37.206  11.133
19324W        W92392  30.179  22.234   4.908
19325W        W92393  25.510   9.108  11.619
19326W        W92394  43.862  33.436   3.223
19327W        W92395   0.889  23.750  12.438
19328W        W92396  20.155  25.058  13.919
19329W        W92397  36.724  19.072  12.101
19330W        W92398  39.546  44.204   2.785
19331W        W92399  11.166  23.698   2.610
19332W        W92400   4.282  43.687  10.919
19333W        W92401  44.228  13.397   0.763
19334W        W92402  35.374  36.765  14.013
19335W        W92403  11.798  26.726   3.027
19336W        W92404  22.507   6.491  11.173
19337W        W92405   5.455  23.261   2.395
19338W        W92406   4.852  19.636   3.175
19339W        W92407  22.429  29.586  10.645
19340W        W92408  20.782   4.348   3.259
19341W        W92409  27.500  34.877   0.725
19342W        W92410   2.675  38.758  10.422
19343W        W92411   6.322  11.837   4.380
19344W        W92412  41.784   2.971  11.034
19345W        W92413   7.947  40.473   4.571
19346W        W92414  40.987  42.049   4.670
19347W        W92415  30.990  11.685   1.132
19348W        W92416  38.449  11.639  13.857
19349W        W92417  27.819  23.139   2.223
19350W        W92418  15.188   0.784   1.926
19351W        W92419   5.352  24.671  11.857
19352W        W92420  40.810  22.416   2.837
19353W        W92421  19.669  34.562  12.160
19354W        W92422  26.201  35.707   2.797
19355W        W92423  32.064   5.040   2.935
19356W        W92424  28.653  12.269  13.436
19357W        W92425  25.438   5.836   0.865
19358W        W92426  44.222  21.923   0.078
19359W        W92427  43.693   8.679   0.853
19360W        W92428  31.711   9.652   1.920
19361W        W92429  22.915  13.537   4.873
19362W        W92430  34.995  10.234   4.996
19363W        W92431  11.162   2.035   4.096
19364W        W92432  14.122   1.768  12.563
19365W        W92433  39.096  39.998   3.730
19366W        W92434  17.037  42.073  10.762
19367W        W92435  18.375  25.124  13.070
19368W        W92436  41.578  41.946  10.640
19369W        W92437   2.687  11.230   4.242
19370W        W92438  19.388  25.052  12.991
19371W        W92439  33.515  35.724   2.217
19372W        W92440   0.491  15.876  14.651
19373W        W92441   9.106  22.495   3.219
19374W        W92442  12.017   7.679  11.963
19375W        W92443  13.641  10.713   0.287
19376W        W92444  36.937   9.934  13.574
19377W        W92445  18.477  27.644  11.556
19378W        W92446   8.921  34.192   1.263
19379W        W92447   7.799   5.961   3.843
19380W        W92448  20.566   6.695   0.895
19381W        W92449  13.072  23.044  14.331
19382W        W92450  44.242  10.142  11.125
19383W        W92451  20.568   0.995  12.498
19384W        W92452   3.121  10.331   3.280
19385W        W92453   5.707  11.383  14.760
19386W        W92454  35.853  32.526  11.518
19387W        W92455  29.154  41.928   0.030
19388W        W92456  20.639   2.582   1.363
19389W        W92457  31.959  27.958  12.568
19390W        W92458  10.865  15.788   4.589
19391W        W92459  30.836  20.649   0.993
19392W        W92460  23.211  15.738  10.907
19393W        W92461  16.540   3.292   2.043
19394W        W92462  43.006  27.701   2.227
19395W        W92463  34.450   1.307   3.949
19396W        W92464  31.216  42.457   4.293
19397W        W92465   7.931  37.897  14.438
19398W        W92466   9.472  26.067  11.597
19399W        W92467  16.765  25.875  14.803
19400W        W92468  35.421   5.473   1.180
19401W        W92469  21.643  22.001  10.894
19402W        W92470  27.540  24.912   3.637
19403W        W92471  44.246   5.797  13.175
19404W        W92472  11.367   1.394   0.403
19405W        W92473  25.672  24.133   4.716
19406W        W92474   5.946  37.394  13.054
19407W        W92475   4.320  26.476   4.634
19408W        W92476  27.028  44.893   3.779
19409W        W92477  10.488  11.590  14.261
19410W        W92478  13.756  13.781  12.081
19411W        W92479  28.583  10.626   9.721
19412W        W92480  37.356  39.833  14.931
19413W        W92481  40.147  17.795   0.621
19414W        W92482  21.581  29.786  14.348
19415W        W92483  40.821  15.566  11.430
19416W        W92484  41.881  38.583   3.314
19417W        W92485   9.127  12.625   3.247
19418W        W92486  29.255  43.270   3.652
19419W        W92487   4.365  35.578  14.991
19420W        W92488  24.566  12.644  10.962
19421W        W92489  43.674  33.580   4.817
19422W        W92490  33.122  44.083   1.568
19423W        W92491  38.814   6.207   0.754
19424W        W92492  18.686  20.646   2.404
19425W        W92493  36.379  34.492   5.661
19426W        W92494  39.485  17.020   2.284
19427W        W92495   1.566  27.055  14.937
19428W        W92496  35.982  11.788   1.389
19429W        W92497  42.008   2.878   0.709
19430W        W92498   5.803   9.392  12.263
19431W        W92499   2.854  17.954  13.966
19432W        W92500   3.005  23.504   0.298
19433W        W92501  23.437   5.684   1.111
19434W        W92502  31.446  21.780   3.285
19435W        W92503  28.747  11.978  11.384
19436W        W92504  25.576  10.630   5.156
19437W        W92505  28.055  44.459   3.189
19438W        W92506  16.759  22.780   0.678
19439W        W92507  40.009  44.851  12.529
19440W        W92508  17.713  40.798   1.958
19441W        W92509  40.107  10.240   3.611
19442W        W92510  38.477  41.435   1.704
19443W        W92511  27.045  17.382  14.299
19444W        W92512  15.003  18.942   0.783
19445W        W92513  32.596   0.281   3.709
19446W        W92514   3.229  33.902   3.901
19447W        W92515  28.480  36.081  14.655
19448W        W92516  29.097  29.072  14.798
19449W        W92517  13.878  14.304   1.168
19450W        W92518  16.557   1.873   4.062
19451W        W92519  38.897  44.881   4.073
19452W        W92520   7.339  19.677   5.302
19453W        W92521  14.274  29.138  12.016
19454W        W92522   4.669  23.578   1.107
19455W        W92523   3.295  16.850   4.839
19456W        W92524  19.905   1.128  10.523
19457W        W92525  22.671   5.811   1.853
19458W        W92526   0.640   5.467   3.254
19459W        W92527   5.261  17.253  13.375
19460W        W92528   4.430  16.172  13.009
19461W        W92529  17.762  42.193  14.857
19462W        W92530  18.706  42.115   4.093
19463W        W92531   4.313  24.763  13.606
19464W        W92532  39.270  15.238   0.715
19465W        W92533  19.191   3.779   4.554
19466W        W92534  43.304  14.324   4.451
19467W        W92535  26.080  28.759  11.503
19468W        W92536  23.733  39.468   4.096
19469W        W92537  36.177  22.683   2.286
19470W        W92538  28.469  18.470  14.375
19471W        W92539  39.029   9.293   5.487
19472W        W92540  30.131  13.886   3.947
19473W        W92541  35.309  33.381  12.948
19474W        W92542  20.348  16.275  10.750
19475W        W92543  25.459  44.537   0.756
19476W        W92544  15.604   1.244  13.317
19477W        W92545  27.212  29.942  14.278
19478W        W92546  24.700  44.046   1.757
19479W        W92547   7.877   6.602  11.536
19480W        W92548  43.803  34.865   4.037
19481W        W92549   8.367  23.106   4.091
19482W        W92550  12.648  27.485  11.909
19483W        W92551  18.161  37.444  11.680
19484W        W92552  17.565   6.639  14.811
19485W        W92553  23.126  35.130  11.012
19486W        W92554  23.989   4.297  13.979
19487W        W92555  43.324   3.390   5.008
19488W        W92556   2.900   9.964  11.015
19489W        W92557  35.152  21.821  11.120
19490W        W92558  13.601  31.637   2.141
19491W        W92559  13.592  40.104  11.022
19492W        W92560  36.552  30.807  10.258
19493W        W92561   0.052  16.764  12.923
19494W        W92562  26.424  12.792   0.937
19495W        W92563  22.408   9.804  14.586
19496W        W92564  20.124  44.539   3.649
19497W        W92565  31.565  12.639   0.234
19498W        W92566  30.118   5.353   1.442
19499W        W92567  42.445  25.105  11.232
19500W        W92568   6.898  32.938   3.098
19501W        W92569   7.272   9.722   2.848
19502W        W92570  35.837  36.905  12.931
19503W        W92571  22.191   2.231   2.768
19504W        W92572  18.723   0.674  13.430
19505W        W92573  10.971  39.913   1.066
19506W        W92574  31.866   1.797   3.310
19507W        W92575  32.202  10.204   3.096
19508W        W92576  42.599  35.425  14.688
19509W        W92577  12.697  43.409  13.050
19510W        W92578  37.664  16.612  14.768
19511W        W92579   7.204  39.496  11.956
19512W        W92580  20.644  31.602  12.110
19513W        W92581  29.569  10.299  13.252
19514W        W92582   3.207  10.326   1.394
19515W        W92583  12.395  27.613   2.655
19516W        W92584  30.105  31.947   1.880
19517W        W92585  37.576   7.623   3.220
19518W        W92586  39.999   7.717  13.694
19519W        W92587  11.811  39.973   2.211
19520W        W92588  17.733   3.996   0.342
19521W        W92589  21.556  37.636  12.500
19522W        W92590   6.875  11.060  11.108
19523W        W92591  32.517  20.698   4.171
19524W        W92592  26.597  33.364  13.352
19525W        W92593   5.751  24.689  11.169
19526W        W92594  18.185  14.718  13.082
19527W        W92595  13.042   4.764  14.210
19528W        W92596  11.406  11.699   4.757
19529W        W92597   8.635  13.617  11.568
19530W        W92598  24.657   1.894   1.879
19531W        W92599  11.695   0.439  14.012
19532W        W92600  27.365  33.224   2.019
19533W        W92601  33.975   3.507   0.211
19534W        W92602  12.978  25.652   4.197
19535W        W92603  17.711  38.678   1.456
19536W        W92604  17.081  27.721   3.239
19537W        W92605  19.289  32.875   1.848
19538W        W92606  43.789  15.763   2.792
19539W        W92607  40.277   4.168  13.000
19540W        W92608   0.453   8.430   3.208
19541W        W92609  37.037  37.893   0.894
19542W        W92610  36.926  40.389   4.902
19543W        W92611   8.741  43.486   0.965
19544W        W92612   1.561   8.832   4.608
19545W        W92613  16.581  34.886  11.603
19546W        W92614  25.549  10.280   4.201
19547W        W92615  17.859  12.138   2.668
19548W        W92616  11.441  44.770   4.614
19549W        W92617  41.796  44.272  12.482
19550W        W92618  29.317  36.991   3.280
19551W        W92619  26.220  21.213  14.340
19552W        W92620  34.855  18.605   4.114
19553W        W92621   1.011   1.987   2.780
19554W        W92622  22.124   5.067  10.134
19555W        W92623  15.102   9.442   0.643
19556W        W92624   7.289  34.986   4.941
19557W        W92625   6.321  11.702  14.376
19558W        W92626  25.693   6.793  11.726
19559W        W92627  42.309  20.974  11.934
19560W        W92628   5.493  10.253  12.947
19561W        W92629  28.991   2.838  14.913
19562W        W92630  18.286  31.489  12.310
19563W        W92631  36.400  26.548  14.628
19564W        W92632  27.489  28.272   3.772
19565W        W92633  27.908  35.946  12.430
19566W        W92634  17.284  27.680  12.153
19567W        W92635  19.199  36.663  12.889
19568W        W92636  12.600  36.392   1.718
19569W        W92637  32.058  27.501  13.029
19570W        W92638  40.200   0.752  14.293
19571W        W92639  23.752  44.787  13.438
19572W        W92640   2.922  17.188   4.133
19573W        W92641  34.562  41.822  10.782
19574W        W92642   8.263  17.059  11.314
19575W        W92643  30.906  34.120  12.423
19576W        W92644   3.369  30.053  13.375
19577W        W92645  31.831  35.819  13.837
19578W        W92646  28.455   0.408  14.514
19579W        W92647  43.815   5.070  11.448
19580W        W92648  14.641  13.834  11.206
19581W        W92649   7.355  14.159   3.631
19582W        W92650   1.236  33.481  13.422
19583W        W92651  15.009   9.472  14.446
19584W        W92652  31.404  20.553  12.028
19585W        W92653  37.984  29.146   1.256
19586W        W92654   4.392  37.936  14.069
19587W        W92655  40.283  32.097   2.263
19588W        W92656  34.648  32.500  14.809
19589W        W92657   2.646   2.536  14.129
19590W        W92658   8.805  25.218   0.018
19591W        W92659  43.865   6.624   3.289
19592W        W92660  19.275  15.216   2.460
19593W        W92661  21.207  34.925  10.997
19594W        W92662  25.539  34.484  12.370
19595W        W92663  31.902   9.270   0.186
19596W        W92664  13.306  12.888  11.594
19597W        W92665  16.510  36.730   4.136
19598W        W92666  12.434  35.457   4.171
19599W        W92667   1.830  18.323  12.038
19600W        W92668  43.898  29.635  10.762
19601W        W92669  29.064  36.069  12.365
19602W        W92670  25.139  17.620   3.816
19603W        W92671  23.574  17.425   3.612
19604W        W92672  40.496  22.496   4.097
19605W        W92673   2.676  37.528   4.822
19606W        W92674  15.772  25.618   2.609
19607W        W92675   9.053   2.368   3.923
19608W        W92676  21.477  28.128  11.460
19609W        W92677  15.617  31.868   0.192
19610W        W92678  23.420  32.499  14.382
19611W        W92679   1.687  28.554  13.292
19612W        W92680   8.603   8.446   1.159
19613W        W92681  10.105  38.733   2.208
19614W        W92682  27.417  16.060  14.409
19615W        W92683   8.782  20.949  13.012
19616W        W92684  23.206  20.993   0.247
19617W        W92685   0.493  41.494   4.782
19618W        W92686  24.920  17.285  13.466
19619W        W92687  36.459  41.331  10.483
19620W        W92688  28.475  33.140   4.215
19621W        W92689  34.676  44.266  14.337
19622W        W92690  17.060  43.498  14.021
19623W        W92691  29.019  26.570  12.109
19624W        W92692   9.211  23.526  11.578
19625W        W92693  34.705  30.731   2.436
19626W        W92694  26.538  23.729   2.449
19627W        W92695  17.052   6.918  13.855
19628W        W92696  36.940  36.984   4.301
19629W        W92697  37.972   2.633   4.712
19630W        W92698  17.841   2.417   0.008
19631W        W92699   1.246  33.096  14.244
19632W        W92700  37.330  15.535   1.928
19633W        W92701   9.419  42.447  11.539
19634W        W92702  39.154  35.912  13.949
19635W        W92703  32.881  43.656  11.621
19636W        W92704  21.537   4.487   2.745
19637W        W92705  23.687  23.026  12.489
19638W        W92706  33.566  30.755  11.705
19639W        W92707  40.060  39.728   0.425
19640W        W92708  13.583  17.792  10.793
19641W        W92709  18.428   1.221  14.687
19642W        W92710  44.310  36.731   1.279
19643W        W92711  40.530  22.277   3.272
19644W        W92712  16.003  13.462  14.365
19645W        W92713  17.289  30.746  13.139
19646W        W92714  40.900  41.347   1.784
19647W        W92715  31.531  26.263   0.585
19648W        W92716  17.969  19.146  10.768
19649W        W92717  19.072  11.749  13.457
19650W        W92718  13.191  22.093   0.377
19651W        W92719   2.391  36.444   2.439
19652W        W92720  24.554  20.818   3.044
19653W        W92721   4.230  34.075   3.379
19654W        W92722   6.690  12.392   3.312
19655W        W92723  25.080  10.682  14.126
19656W        W92724   0.138  25.981  14.963
19657W        W92725  26.203  30.128  11.630
19658W        W92726   1.270  30.143  14.385
19659W        W92727  18.368   0.276  11.493
19660W        W92728  13.256  19.243  13.041
19661W        W92729  32.155  29.097  11.589
19662W        W92730  43.301  14.217  10.818
19663W        W92731  11.853  31.973   0.702
19664W        W92732  41.360  16.673  11.007
19665W        W92733  18.578  37.047  11.959
19666W        W92734  42.393  42.328   4.706
19667W        W92735  29.008   8.489   5.157
19668W        W92736  27.571  11.865   1.772
19669W        W92737  44.237  37.964  10.509
19670W        W92738  12.589  39.003   3.153
19671W        W92739  11.775  25.576   1.438
19672W        W92740  19.221  26.707   4.555
19673W        W92741  10.746  13.638  12.612
19674W        W92742   5.210   8.313  12.785
19675W        W92743  39.960   2.287   9.903
19676W        W92744  11.553  43.230   0.909
19677W        W92745  13.722  28.459   1.547
19678W        W92746  42.130  23.649  12.994
19679W        W92747  28.401  21.199  12.882
19680W        W92748  27.678  44.228  12.016
19681W        W92749  35.049  26.119  12.405
19682W        W92750  41.289   6.049   5.499
19683W        W92751  17.009  17.573  11.127
19684W        W92752  17.105  18.550  10.978
19685W        W92753  29.577  32.476  10.313
19686W        W92754  21.474   5.496   3.028
19687W        W92755  37.622  26.780   3.332
19688W        W92756  13.205   3.853  12.079
19689W        W92757  14.402  22.269  12.799
19690W        W92758  42.003  27.970  14.220
19691W        W92759  22.635  17.849  11.225
19692W        W92760  19.442   5.240  12.902
19693W        W92761  40.106   5.680   1.435
19694W        W92762  23.978  35.525  11.505
19695W        W92763  36.812  42.196   3.676
19696W        W92764   3.468  25.608  10.642
19697W        W92765  43.803  13.426  12.911
19698W        W92766  13.075  36.418  11.091
19699W        W92767  16.246  17.468  14.424
19700W        W92768  23.386  28.091  13.576
19701W        W92769  12.595   9.318  10.598
19702W        W92770  36.788   8.424   2.844
19703W        W92771  20.260   0.596   4.783
19704W        W92772  30.159   2.262   4.564
19705W        W92773  35.568   9.964   1.874
19706W        W92774  41.391   4.701  11.088
19707W        W92775  44.885  32.976   1.633
19708W        W92776  42.530   5.298  14.427
19709W        W92777  26.684  43.758   2.167
19710W        W92778   2.993   3.353   1.280
19711W        W92779  37.427  43.453  11.084
19712W        W92780  17.336  35.860   1.268
19713W        W92781   3.275  15.456  12.876
19714W        W92782  31.594  37.251  12.524
19715W        W92783   6.373  39.480   2.986
19716W        W92784  38.909  17.315   0.630
19717W        W92785   4.773  35.308  12.500
19718W        W92786  18.199   4.774   2.549
19719W        W92787  16.098  40.080   0.820
19720W        W92788  29.925  13.520   4.276
19721W        W92789  18.961   2.538  14.338
19722W        W92790  13.793  30.690  11.550
19723W        W92791   5.806  17.510  11.688
19724W        W92792   9.082  35.851   1.833
19725W        W92793   0.159  22.943  14.209
19726W        W92794  41.699  19.337   0.387
19727W        W92795  41.738  30.664   1.774
19728W        W92796   9.120  33.722   4.178
19729W        W92797  29.976  24.264   1.956
19730W        W92798   2.767  35.631  13.901
19731W        W92799  31.044  44.787  14.842
19732W        W92800  39.601  39.511  13.027
19733W        W92801  42.127  29.239  13.911
19734W        W92802  22.579  13.509   4.262
19735W        W92803  40.585  29.201   2.750
19736W        W92804  40.388  24.153   3.096
19737W        W92805  36.102  44.847   0.767
19738W        W92806   3.184   8.282   3.952
19739W        W92807  38.909   2.451   4.566
19740W        W92808  38.081  29.730   1.964
19741W        W92809   7.772   2.239   0.541
19742W        W92810  16.926  10.429   3.695
19743W        W92811  43.341  13.352   3.276
19744W        W92812   0.911  38.623   0.530
19745W        W92813  34.936  42.429  14.930
19746W        W92814  12.704   7.724  12.561
19747W        W92815   9.548   2.396   0.184
19748W        W92816  14.138  30.358  10.676
19749W        W92817  26.020  28.180  14.737
19750W        W92818   5.916  16.684  10.786
19751W        W92819  13.360  38.982   3.586
19752W        W92820  20.710  23.725  10.517
19753W        W92821   3.958  14.670   1.892
19754W        W92822  32.417  30.500   5.003
19755W        W92823  17.034  44.786  14.937
19756W        W92824  17.849  43.024   0.188
19757W        W92825   2.295   5.731  12.905
19758W        W92826  30.446   4.228   0.929
19759W        W92827  12.137  44.055  14.285
19760W        W92828   7.438  10.676  14.357
19761W        W92829  31.507  43.802  11.505
19762W        W92830  41.855  17.343   1.280
19763W        W92831  37.753  24.982   3.347
19764W        W92832  37.951  25.085   1.777
19765W        W92833  18.336  28.225  13.868
19766W        W92834   2.077  29.366   3.209
19767W        W92835   1.971  27.633  13.443
19768W        W92836  23.648  21.084  14.320
19769W        W92837  41.034  37.270  13.609
19770W        W92838  13.132  22.299   1.440
19771W        W92839   0.642   6.365   0.641
19772W        W92840   6.729   9.203  11.158
19773W        W92841  18.666  20.309   1.801
19774W        W92842  19.963  33.624  12.458
19775W        W92843  19.941  25.060  10.747
19776W        W92844  15.183  44.883   2.746
19777W        W92845   0.466  33.345  14.967
19778W        W92846  25.519  30.458  12.599
19779W        W92847  31.841  22.762   4.304
19780W        W92848  22.949   2.914   2.652
19781W        W92849  20.471  29.485  10.661
19782W        W92850  20.562  25.061  12.519
19783W        W92851  16.662  27.429  11.029
19784W        W92852  30.412  37.827   0.781
19785W        W92853  15.336   2.186  13.863
19786W        W92854  29.015  16.617   0.919
19787W        W92855  13.265   7.722   4.676
19788W        W92856   8.662  40.616   4.113
19789W        W92857  22.235   9.434   1.341
19790W        W92858   1.665  16.384   3.807
19791W        W92859  33.970  29.801  11.599
19792W        W92860  44.249  28.410  11.161
19793W        W92861  23.304   7.205  11.407
19794W        W92862  12.574  34.898  13.853
19795W        W92863  42.391  42.057  13.046
19796W        W92864  38.395   4.637   2.102
19797W        W92865  40.946   8.282   0.513
19798W        W92866  41.419  11.492   0.889
19799W        W92867  15.293   8.281   4.464
19800W        W92868  18.286   9.361   4.498
19801W        W92869  14.381  36.565   2.952
19802W        W92870  19.861   6.239  11.160
19803W        W92871  29.621   7.448  12.670
19804W        W92872  17.142  11.761  14.757
19805W        W92873  44.455  20.483  13.828
19806W        W92874  14.602  21.172   2.190
19807W        W92875   8.919  37.631   2.703
19808W        W92876  34.081  32.710  12.037
19809W        W92877   1.702   1.823   2.294
19810W        W92878  30.647   6.869  10.698
19811W        W92879  40.807  26.177  10.669
19812W        W92880  33.279  38.099  14.392
19813W        W92881   3.954  18.564   1.805
19814W        W92882   6.253   6.155   4.654
19815W        W92883  22.025  11.712   3.408
19816W        W92884   0.137  34.022   0.437
19817W        W92885   3.649  14.060   0.416
19818W        W92886  21.268   1.034  11.033
19819W        W92887  42.040  36.048  14.354
19820W        W92888  25.968   9.187  12.536
19821W        W92889  15.792  16.097   2.873
19822W        W92890  44.422  22.955  14.790
19823W        W92891  34.008   1.975  13.259
19824W        W92892  13.943  44.673   4.534
19825W        W92893  44.712  16.287   0.422
19826W        W92894  15.574  13.304  12.290
19827W        W92895  31.711  40.359  10.667
19828W        W92896   4.920  18.855  12.894
19829W        W92897  27.483   8.633  11.919
19830W        W92898  38.856  21.808   1.924
19831W        W92899  26.240  39.533  10.138
19832W        W92900  38.468  27.130   1.015
19833W        W92901  11.412  40.401   3.199
19834W        W92902  19.557   3.504   1.488
19835W        W92903  12.032  44.909   3.669
19836W        W92904  14.436  16.668  12.222
19837W        W92905   4.542  32.878   0.239
19838W        W92906  27.289  25.657  10.759
19839W        W92907   2.794  26.883  11.655
19840W        W92908   8.691  23.971   1.249
19841W        W92909   3.165  27.703   0.893
19842W        W92910   8.253   3.162  12.989
19843W        W92911  33.577  16.344   1.749
19844W        W92912  21.310   8.496  12.317
19845W        W92913  33.556   0.483   0.073
19846W        W92914   3.747  33.643  14.562
19847W        W92915  40.992  34.982   4.380
19848W        W92916  36.959   7.751   2.828
19849W        W92917  21.549  22.481  10.771
19850W        W92918  44.920  14.911  13.018
19851W        W92919  23.466  15.325   3.493
19852W        W92920  19.285  31.528  12.533
19853W        W92921  36.973  42.849   1.077
19854W        W92922  25.590  10.806   4.289
19855W        W92923  15.574  36.635  13.456
19856W        W92924  12.195  36.876   4.710
19857W        W92925   3.939  30.917  13.408
19858W        W92926  24.427  29.525   3.737
19859W        W92927  16.790  28.585   4.639
19860W        W92928  39.124  34.096   1.379
19861W        W92929  10.352  42.877   2.849
19862W        W92930  39.496  20.143   4.324
19863W        W92931  16.755  43.360   2.736
19864W        W92932  25.258  13.576  11.479
19865W        W92933  23.912  39.259  14.967
19866W        W92934  21.750  21.442   3.818
19867W        W92935   2.350  21.833  12.692
19868W        W92936   6.935  37.174   4.502
19869W        W92937   2.397  15.133  10.626
19870W        W92938  12.338   8.140  14.993
19871W        W92939   3.346   8.249   2.193
19872W        W92940  36.050  38.267  12.832
19873W        W92941  13.137   4.360   0.491
19874W        W92942   0.954   4.333   1.378
19875W        W92943  40.905  26.857  14.379
19876W        W92944  18.364  15.128  11.351
19877W        W92945   3.833  18.853  13.734
19878W        W92946   1.913  34.663   3.267
19879W        W92947  22.206   4.873  10.650
19880W        W92948   0.193   1.420  13.425
19881W        W92949  13.867  40.446  14.295
19882W        W92950  32.877  36.012  10.829
19883W        W92951  28.632   7.907   1.857
19884W        W92952  43.482  44.281  10.610
19885W        W92953  44.166  23.472   0.814
19886W        W92954  21.228   3.875  11.117
19887W        W92955   9.619   7.904  14.495
19888W        W92956  36.410  28.151   1.974
19889W        W92957  18.739  42.346  14.894
19890W        W92958  41.759  40.931   3.101
19891W        W92959  19.558  31.114   1.395
19892W        W92960   3.859  40.017   1.876
19893W        W92961  16.037  37.427   4.479
19894W        W92962  30.073  23.285  12.395
19895W        W92963  27.147   8.290   0.267
19896W        W92964  19.290  20.659   3.809
19897W        W92965   0.450   5.740   1.785
19898W        W92966  32.578   8.496   3.789
19899W        W92967  25.693  13.196   1.367
19900W        W92968  44.959  37.778  11.496
19901W        W92969  16.561  38.582   3.256
19902W        W92970  24.154  19.520   2.382
19903W        W92971  28.703   7.438   1.242
19904W        W92972  16.307  21.893  14.939
19905W        W92973   8.340  38.538   1.013
19906W        W92974  41.433   1.921   3.152
19907W        W92975  24.022  17.879   1.469
19908W        W92976  21.201  33.509  10.985
19909W        W92977   1.923   7.688  13.303
19910W        W92978  44.367  10.376   1.126
19911W        W92979  38.716  19.734  14.921
19912W        W92980  18.998  11.873  12.527
19913W        W92981   3.246  23.108  13.352
19914W        W92982   6.665  14.290  14.388
19915W        W92983  41.320   0.782   3.005
19916W        W92984  39.128  37.993  10.917
19917W        W92985  33.151  38.968   1.253
19918W        W92986  44.843  44.218  13.247
19919W        W92987  40.347   9.703   3.432
19920W        W92988  32.063  40.051   4.582
19921W        W92989   0.363  37.937  13.093
19922W        W92990  19.012  22.042  11.997
19923W        W92991  38.579   5.780  10.192
19924W        W92992  40.415  25.884  10.982
19925W        W92993   1.279  34.917   1.679
19926W        W92994  32.455   9.956   3.676
19927W        W92995  36.101   5.409   0.430
19928W        W92996  21.751   3.793  11.237
19929W        W92997   8.275  44.458  10.842
19930W        W92998   8.243  14.278  11.811
19931W        W92999  28.971   7.363  11.066
19932W        W93000   1.490   1.470   1.949
19933W        W93001  43.582   0.398   4.894
19934W        W93002  18.266  29.460  11.663
19935W        W93003  19.418  21.045  12.553
19936W        W93004  43.789   5.568  11.492
19937W        W93005  31.904   8.838   3.221
19938W        W93006  38.500  33.512  11.132
19939W        W93007   2.009  42.845   4.183
19940W        W93008  39.372  20.681  11.435
19941W        W93009  23.133  31.581   4.324
19942W        W93010  38.640   1.399  12.411
19943W        W93011  28.171  20.973   4.642
19944W        W93012  44.755  21.650   3.663
19945W        W93013   4.163  37.934  10.680
19946W        W93014  35.935   2.194   3.836
19947W        W93015   1.025  28.558   1.009
19948W        W93016  27.962   1.798   4.250
19949W        W93017   9.411  16.061  14.815
19950W        W93018  14.839  44.749   4.768
19951W        W93019  21.586  31.502   2.422
19952W        W93020  30.395  41.526   2.258
19953W        W93021   5.860   8.101   0.656
19954W        W93022  39.038  32.458  11.052
19955W        W93023  23.944  24.749   3.244
19956W        W93024  36.612  22.303  14.445
19957W        W93025  43.042   9.152  14.454
19958W        W93026  10.830  10.248   2.352
19959W        W93027  19.568  34.098  12.350
19960W        W93028  34.627  42.315   2.792
19961W        W93029   3.424  42.801  11.398
19962W        W93030  10.320   8.929  12.078
19963W        W93031  28.519  33.576   2.756
19964W        W93032   4.161  42.453   1.140
19965W        W93033  40.839  15.650   0.340
19966W        W93034   5.845   3.484   4.334
19967W        W93035  24.489  25.983   4.682
19968W        W93036  38.467  20.825  11.618
19969W        W93037   7.656   1.944  12.005
19970W        W93038  10.665  15.659   2.677
19971W        W93039  29.222  38.436   1.263
19972W        W93040  11.414  16.602  11.926
19973W        W93041  35.966  14.220   1.363
19974W        W93042  20.262   8.252   3.642
19975W        W93043   0.357  38.055   2.590
19976W        W93044  19.035  16.241  13.496
19977W        W93045  14.836   8.098   2.147
19978W        W93046  41.954   0.344  14.388
19979W        W93047   7.761  25.448  10.463
19980W        W93048   9.620  36.558  10.499
19981W        W93049  21.125  37.584   2.766
19982W        W93050  37.729   8.941   4.290
19983W        W93051  23.193  39.673   2.400
19984W        W93052  28.869  28.662   1.360
19985W        W93053   1.525   8.184  14.484
19986W        W93054   6.289  21.339  14.825
19987W        W93055  17.124  41.000   4.213
19988W        W93056   5.804  25.520  10.593
19989W        W93057   5.009  16.516   0.038
19990W        W93058  39.862  12.310   4.579
19991W        W93059  18.134  15.184   1.026
19992W        W93060  11.696   1.929  12.518
19993W        W93061  18.611  18.204  13.997
19994W        W93062  28.059  34.172  11.037
19995W        W93063  11.215  42.830   3.854
19996W        W93064  39.527  14.813   0.564
19997W        W93065  23.011   7.010  10.621
19998W        W93066  23.088  37.899  12.807
19999W        W93067  40.566   5.878  11.162
20000W        W93068   3.319   7.703  14.746
20001W        W93069  18.139  40.914   4.283
20002W        W93070   4.404  20.824  13.222
20003W        W93071  42.984  37.458  13.844
20004W        W93072  33.942  41.742  14.738
20005W        W93073   2.931   2.259  13.427
20006W        W93074  18.008  29.426   3.751
20007W        W93075  26.856  16.944  12.637
20008W        W93076  35.294  41.349   3.547
20009W        W93077  20.700  11.648  12.041
20010W        W93078   5.399  21.008   2.188
20011W        W93079  39.627  40.326   1.704
20012W        W93080   7.040  14.705   4.634
20013W        W93081   0.797   3.420  11.203
20014W        W93082  42.245  37.337  14.577
20015W        W93083   9.938   0.791   3.713
20016W        W93084  40.410   3.395  12.443
20017W        W93085  39.547  42.871   2.294
20018W        W93086  26.742  25.812   4.117
20019W        W93087   9.152  25.934  12.952
20020W        W93088  13.390  34.122   4.085
20021W        W93089  35.599  30.690  14.438
20022W        W93090  35.292  10.628   4.536
20023W        W93091   1.444  26.978  11.971
20024W        W93092  13.590  18.627   5.039
20025W        W93093  17.370  42.835   0.270
20026W        W93094  23.045  15.562   2.276
20027W        W93095  25.183  23.760   3.396
20028W        W93096  36.997  26.553  14.012
20029W        W93097  23.820   6.679  11.915
20030W        W93098  22.678  44.232  14.010
20031W        W93099  26.231  44.838  14.341
20032W        W93100  25.640   0.656   3.178
20033W        W93101  33.434  41.377  10.548
20034W        W93102  21.599  16.050  10.680
20035W        W93103  19.694  41.854  13.031
20036W        W93104  30.832  12.626  11.073
20037W        W93105  21.974  11.650  13.432
20038W        W93106  36.989   3.185  13.446
20039W        W93107  26.590  20.047  13.489
20040W        W93108   8.370  26.342  13.534
20041W        W93109   8.232   2.373   1.693
20042W        W93110  40.357  27.634   1.335
20043W        W93111  30.245  35.837   2.163
20044W        W93112  37.782  38.442  14.946
20045W        W93113  31.570  15.332  11.833
20046W        W93114  25.575   8.072  12.521
20047W        W93115  36.828  44.393   1.121
20048W        W93116  16.530   6.583   0.851
20049W        W93117  35.390  42.664   4.562
20050W        W93118  43.790  17.199  11.621
20051W        W93119  34.035  18.622   0.817
20052W        W93120   0.924  16.785   2.172
20053W        W93121   0.424   9.226  13.413
20054W        W93122  14.835  31.546  10.963
20055W        W93123  20.362  12.393   3.169
20056W        W93124   3.944  34.974   1.876
20057W        W93125   1.196  31.703  11.153
20058W        W93126  24.478  32.197   1.840
20059W        W93127  22.113  13.791  11.189
20060W        W93128  16.548   0.957  12.597
20061W        W93129  37.920  29.072   0.723
20062W        W93130  40.914  27.188   4.238
20063W        W93131  23.300  31.206  13.892
20064W        W93132   1.335  32.906   1.715
20065W        W93133  31.090  12.528  13.493
20066W        W93134   3.267  12.678   1.001
20067W        W93135  23.206  11.607   4.134
20068W        W93136  41.056  41.006   1.391
20069W        W93137  23.238  41.490  14.398
20070W        W93138  17.306  25.445   3.918
20071W        W93139   2.784  35.480  12.928
20072W        W93140   2.631  25.816  13.295
20073W        W93141  39.542  35.879   1.181
20074W        W93142  19.134   3.914  11.835
20075W        W93143   3.948   8.644   3.734
20076W        W93144   8.661  15.199  10.458
20077W        W93145   1.337   6.345  13.409
20078W        W93146   0.054  29.294  13.522
20079W        W93147  25.504  11.407  12.076
20080W        W93148   0.926  43.228   3.229
20081W        W93149  34.947  39.101  12.428
20082W        W93150  24.544  37.240   3.766
20083W        W93151  13.180  38.450  13.528
20084W        W93152  31.164  10.625  11.919
20085W        W93153  29.051  26.324  12.568
20086W        W93154  20.255  38.814   3.840
20087W        W93155  42.250   5.335  13.966
20088W        W93156  32.166   0.359  11.087
20089W        W93157  33.518  36.958  13.476
20090W        W93158  36.428   0.874  11.181
20091W        W93159  33.661  36.022  13.026
20092W        W93160  43.038  16.425   1.813
20093W        W93161  40.529  40.803  13.441
20094W        W93162  30.188  28.541   1.611
20095W        W93163   4.122   3.897   3.789
20096W        W93164   2.930  17.160  13.328
20097W        W93165  35.182   2.780  11.984
20098W        W93166  15.450  18.194  13.612
20099W        W93167   0.422   2.354  11.219
20100W        W93168  20.462   3.134   4.470
20101W        W93169  35.893   1.928  12.977
20102W        W93170  25.984   7.964  14.405
20103W        W93171  22.181   8.849   2.200
20104W        W93172  15.431  43.474   1.692
20105W        W93173  37.359  42.501   2.296
20106W        W93174  39.993  35.464  14.773
20107W        W93175   2.685  41.389   0.694
20108W        W93176   8.749   7.089   2.325
20109W        W93177  44.911  10.409  14.001
20110W        W93178  34.169  33.085  12.381
20111W        W93179  18.778   1.170   0.966
20112W        W93180  33.714  42.826  13.017
20113W        W93181  37.896  21.603   4.165
20114W        W93182  25.191  24.596  10.648
20115W        W93183  30.513   7.438   2.762
20116W        W93184   0.201   4.344   1.664
20117W        W93185  25.714   4.855  12.839
20118W        W93186  13.797  14.037  12.580
20119W        W93187  44.826  19.726  14.188
20120W        W93188  36.795   9.289   2.683
20121W        W93189  39.881  21.251   3.596
20122W        W93190  28.769  35.841   1.757
20123W        W93191  44.576  26.987   4.260
20124W        W93192  15.447  11.796   4.583
20125W        W93193  19.308  22.798  11.718
20126W        W93194  23.742  37.053  13.460
20127W        W93195  19.103   4.813  14.266
20128W        W93196  24.644  39.580  11.737
20129W        W93197   5.381  10.762  11.969
20130W        W93198  38.753  13.730   2.729
20131W        W93199  29.244  28.788   4.197
20132W        W93200  19.781   7.568   2.807
20133W        W93201  40.290  39.355  14.362
20134W        W93202  18.299  31.864  10.470
20135W        W93203  27.523  17.746  11.417
20136W        W93204  17.098   2.031   3.282
20137W        W93205  28.502  14.634  13.978
20138W        W93206  41.577  30.441  14.554
20139W        W93207  38.970  30.601   4.321
20140W        W93208  38.789  19.311   0.268
20141W        W93209  34.607  31.467   3.197
20142W        W93210  32.469   4.105  14.744
20143W        W93211  33.461  15.758   4.977
20144W        W93212  16.732  20.492   1.200
20145W        W93213   6.172  43.569  14.547
20146W        W93214  13.772  43.844   3.241
20147W        W93215  30.899   7.170   4.216
20148W        W93216  31.074  20.112   4.969
20149W        W93217  20.371   0.322   3.862
20150W        W93218  22.774  29.072  14.899
20151W        W93219  14.109  17.748  13.525
20152W        W93220  38.246  31.122  11.722
20153W        W93221  12.881   5.445   0.795
20154W        W93222   7.698  43.905   0.985
20155W        W93223   0.419  43.534  13.128
20156W        W93224  18.799  39.818  14.373
20157W        W93225  19.197  26.074   4.163
20158W        W93226  21.770  30.178   4.067
20159W        W93227  43.550  39.777  11.437
20160W        W93228   4.804  34.802  12.384
20161W        W93229  39.126  31.051  13.833
20162W        W93230  41.320  33.405  11.590
20163W        W93231  37.482  22.994  11.979
20164W        W93232  28.078   8.906   4.102
20165W        W93233  41.756  44.298   1.999
20166W        W93234  15.601  26.062  11.872
20167W        W93235  41.456   1.476  11.079
20168W        W93236  16.801   5.356  14.758
20169W        W93237   8.404  14.670   4.024
20170W        W93238  43.459  15.811  11.395
20171W        W93239   8.073  41.699   2.807
20172W        W93240  29.677  41.341  11.078
20173W        W93241   7.849  35.390   1.680
20174W        W93242  28.565  36.955   1.411
20175W        W93243  12.220  14.815  14.330
20176W        W93244  27.808   7.510   0.951
20177W        W93245   8.240  12.790   1.933
20178W        W93246  17.304  31.841  14.139
20179W        W93247  17.085  17.111   5.084
20180W        W93248  35.360  14.331  12.131
20181W        W93249   5.697  15.787   0.486
20182W        W93250  40.706  42.054  13.544
20183W        W93251  36.687  34.652   4.486
20184W        W93252  28.421  44.829   4.648
20185W        W93253  10.357  17.275  11.211
20186W        W93254  17.111   3.798   1.284
20187W        W93255   9.846  27.758   0.715
20188W        W93256   4.704  33.495   1.747
20189W        W93257   1.855  24.061   4.569
20190W        W93258   2.789  37.580   1.713
20191W        W93259  25.765  18.127   1.811
20192W        W93260  37.535   6.774   2.174
20193W        W93261  18.751  35.989  14.656
20194W        W93262  12.366   2.369  14.939
20195W        W93263  28.777  10.201  12.148
20196W        W93264  30.075   9.773   4.044
20197W        W93265  41.912  34.630  13.787
20198W        W93266  41.552  29.497  13.289
20199W        W93267  19.389  17.166   2.412
20200W        W93268  27.503   7.589   0.423
20201W        W93269  39.903  16.723  12.412
20202W        W93270  25.117  21.137  11.817
20203W        W93271  41.539   4.676  13.960
20204W        W93272  26.031   8.417   2.340
20205W        W93273  42.541  38.802   0.311
20206W        W93274  13.895  17.432  11.891
20207W        W93275   2.933  22.196   3.727
20208W        W93276  16.156  28.550   1.780
20209W        W93277  21.156  41.849   0.948
20210W        W93278   6.320  42.710   2.675
20211W        W93279   3.612  40.493   2.762
20212W        W93280   4.914  27.633   3.292
20213W        W93281  19.090   1.470  10.654
20214W        W93282  29.592   4.329  13.616
20215W        W93283  43.352   1.293   0.837
20216W        W93284  34.972  28.430   9.941
20217W        W93285  35.552  15.318   2.305
20218W        W93286  43.189  44.005  13.906
20219W        W93287  10.261  25.636  13.765
20220W        W93288  14.669  35.617  10.658
20221W        W93289  23.212  13.746  13.089
20222W        W93290  19.479  36.943  13.948
20223W        W93291  26.582  15.764  14.746
20224W        W93292   8.680   2.411   2.455
20225W        W93293  24.609   2.745   2.364
20226W        W93294  16.971  37.341  14.529
20227W        W93295   7.918   1.355   1.402
20228W        W93296  20.219  26.647  10.704
20229W        W93297  22.035  19.457  12.549
20230W        W93298  33.501  13.052  10.817
20231W        W93299  18.887  39.393  12.356
20232W        W93300  31.166  28.332   1.645
20233W        W93301  14.650  13.121  13.879
20234W        W93302  37.404  35.348  11.156
20235W        W93303  11.737  12.146  14.417
20236W        W93304  12.875  36.827   1.624
20237W        W93305   1.741  13.708  11.509
20238W        W93306  38.488   1.964  13.987
20239W        W93307  39.798   6.713  13.339
20240W        W93308  42.660  44.030  13.967
20241W        W93309  42.516   4.350   4.672
20242W        W93310  20.298  36.547   4.880
20243W        W93311   1.421  40.951   0.991
20244W        W93312  12.516  25.689  10.710
20245W        W93313  30.917  22.952  11.901
20246W        W93314   6.848   7.873  14.842
20247W        W93315  40.377  10.684  12.573
20248W        W93316   6.724  38.090  12.060
20249W        W93317   2.308  26.112   2.375
20250W        W93318  25.041  13.542  14.458
20251W        W93319  14.345   5.915   0.920
20252W        W93320  12.659   8.597  11.046
20253W        W93321  25.967  23.794   3.008
20254W        W93322  14.060  33.393   4.168
20255W        W93323  13.185  43.538   1.812
20256W        W93324   4.424   6.849   1.530
20257W        W93325   1.175  31.620   2.834
20258W        W93326  28.598  25.676   0.657
20259W        W93327  31.663   1.852  13.103
20260W        W93328  11.647  13.075  14.282
20261W        W93329   1.084  25.176  10.281
20262W        W93330  20.169  42.736   4.231
20263W        W93331   2.129  42.610  12.827
20264W        W93332  19.949   5.363  12.970
20265W        W93333  24.167   9.734  14.890
20266W        W93334   3.056  19.473  13.806
20267W        W93335   1.423  44.282   4.980
20268W        W93336  30.310  24.263   4.708
20269W        W93337  14.101  38.848   1.465
20270W        W93338  33.256   4.281   3.248
20271W        W93339  20.307   3.187   3.782
20272W        W93340   0.227  31.505   2.479
20273W        W93341  39.627   7.398   0.996
20274W        W93342  20.071  20.144   0.326
20275W        W93343  11.530  19.795   1.794
20276W        W93344  39.281  43.006   3.658
20277W        W93345  19.299   1.661  11.996
20278W        W93346   6.794  38.093   1.337
20279W        W93347   9.863  22.229   1.680
20280W        W93348  20.277  43.567  14.904
20281W        W93349  33.970  15.280   2.205
20282W        W93350   0.305  39.764  11.150
20283W        W93351  20.354  36.588  11.996
20284W        W93352  26.202  24.312  11.337
20285W        W93353  17.717  25.770   4.312
20286W        W93354  31.610  43.281   0.885
20287W        W93355  28.461  39.600   2.670
20288W        W93356  25.856  28.238  12.872
20289W        W93357  22.781  23.461   1.311
20290W        W93358  11.522  14.316  10.691
20291W        W93359   6.603   6.732  13.582
20292W        W93360  25.980  39.569  11.555
20293W        W93361  43.840  12.222   3.865
20294W        W93362   2.026  33.548  10.491
20295W        W93363  37.286   9.787  14.449
20296W        W93364   1.515  41.005   0.400
20297W        W93365  11.183   0.470  13.895
20298W        W93366  38.539  40.814  10.699
20299W        W93367  22.068  12.355   2.762
20300W        W93368   0.714  10.741  13.408
20301W        W93369   4.349  21.517   3.207
20302W        W93370  33.501   3.237   3.069
20303W        W93371  31.952   7.933  14.037
20304W        W93372  23.184   0.718   0.962
20305W        W93373  35.321  12.315  14.833
20306W        W93374  25.471  23.232  12.928
20307W        W93375  37.927  26.613   1.254
20308W        W93376  39.067  42.027  14.401
20309W        W93377  39.009  38.806   3.762
20310W        W93378  16.908   6.667   3.689
20311W        W93379  36.939   3.358  11.226
20312W        W93380  36.112   6.793   1.499
20313W        W93381  29.545  18.079   3.073
20314W        W93382  39.351  44.040   0.500
20315W        W93383  11.641  21.405  12.023
20316W        W93384  10.254  29.275  12.904
20317W        W93385  41.072   6.452   0.017
20318W        W93386  18.206  28.497   2.373
20319W        W93387  24.226   5.780   0.684
20320W        W93388  35.016   0.880   3.367
20321W        W93389  12.960   6.394   3.883
20322W        W93390   0.948  31.303   3.186
20323W        W93391   0.027  37.608  14.008
20324W        W93392  30.174  25.513  13.837
20325W        W93393   0.206   3.880   0.286
20326W        W93394  27.889  37.509   0.208
20327W        W93395  16.828   4.182   3.626
20328W        W93396  42.457   1.828  11.543
20329W        W93397  18.549  29.062  10.775
20330W        W93398  38.985  15.828   1.789
20331W        W93399  35.338  25.240  11.994
20332W        W93400  20.809  31.897  13.845
20333W        W93401  13.240   8.198  14.788
20334W        W93402   7.200  17.802   0.458
20335W        W93403  40.199   9.862   0.333
20336W        W93404   9.439   0.782  13.894
20337W        W93405  35.138   5.969  12.891
20338W        W93406  18.178   2.037  11.510
20339W        W93407  21.282  23.840  11.553
20340W        W93408   3.306  37.939   3.383
20341W        W93409  21.767  38.203   4.199
20342W        W93410   2.847   8.892   4.359
20343W        W93411  39.833  39.232  14.592
20344W        W93412  27.190  31.929   2.866
20345W        W93413  14.246   9.393  12.908
20346W        W93414  22.078  43.328   4.742
20347W        W93415  35.115  31.484   3.140
20348W        W93416  17.699  10.485   2.226
20349W        W93417   2.877  20.194   0.304
20350W        W93418   6.337   7.385   0.430
20351W        W93419  16.184  16.967   3.233
20352W        W93420  13.207  22.615  14.063
20353W        W93421  33.566  43.742  12.128
20354W        W93422  23.211  15.225  14.341
20355W        W93423  35.665  24.610   1.797
20356W        W93424  29.375  11.853  12.114
20357W        W93425   7.507  16.806   1.757
20358W        W93426  15.728  38.646   2.839
20359W        W93427  42.098  38.596  10.970
20360W        W93428  15.619  36.095   4.793
20361W        W93429   9.606  40.239  13.503
20362W        W93430   5.685  33.812   4.659
20363W        W93431  10.830   8.376   0.614
20364W        W93432  39.458  34.442   4.892
20365W        W93433  40.379  38.779  13.441
20366W        W93434  22.289  34.315  11.501
20367W        W93435   6.437  30.070   1.799
20368W        W93436   1.763  29.309   4.097
20369W        W93437  26.262  21.643   2.206
20370W        W93438  37.948   1.127   4.939
20371W        W93439  40.390   8.266   4.586
20372W        W93440  26.555  17.508  14.359
20373W        W93441  18.544  38.462  14.343
20374W        W93442  33.813   1.769  11.886
20375W        W93443  18.238  12.684   1.320
20376W        W93444  21.385  12.665   2.502
20377W        W93445  16.128  13.351  14.885
20378W        W93446   4.636   1.250  12.406
20379W        W93447  23.924  32.833   2.778
20380W        W93448  11.175  20.567   3.633
20381W        W93449  17.062  38.036   0.282
20382W        W93450   5.333  37.064  11.073
20383W        W93451  21.016  36.966   4.141
20384W        W93452  44.508  11.305  13.340
20385W        W93453   7.986  27.478   0.430
20386W        W93454  44.148  10.960  11.301
20387W        W93455  23.324  26.008   1.267
20388W        W93456  31.251  40.987  10.990
20389W        W93457   5.200  30.166   2.257
20390W        W93458  32.304   6.170   3.298
20391W        W93459  21.150  15.126  10.572
20392W        W93460  28.222  41.563  12.671
20393W        W93461   7.120   5.931  11.527
20394W        W93462  27.450  31.005  13.358
20395W        W93463  32.923  30.891   1.320
20396W        W93464   6.484   0.214  11.457
20397W        W93465   7.616  28.443  14.474
20398W        W93466   2.953  20.080   3.788
20399W        W93467  34.333  37.445  11.908
20400W        W93468  38.264  22.380   3.096
20401W        W93469   0.877  38.989   4.025
20402W        W93470  43.865  34.984   4.555
20403W        W93471   0.574  10.823   3.237
20404W        W93472   8.271  43.594  12.136
20405W        W93473   2.675  31.623   0.333
20406W        W93474   9.336  28.140   3.149
20407W        W93475   2.342  23.656  11.990
20408W        W93476  39.497   2.614  13.670
20409W        W93477  11.390  17.238  11.571
20410W        W93478   3.346  15.364   4.273
20411W        W93479   8.077   3.909   3.354
20412W        W93480  29.104  12.019  13.395
20413W        W93481  13.905  42.008   3.231
20414W        W93482  30.651   3.937  12.359
20415W        W93483  33.614  26.149   0.357
20416W        W93484  16.622  36.416   1.959
20417W        W93485  29.217  26.656   3.632
20418W        W93486  38.906  20.201   3.798
20419W        W93487   5.796   3.742  13.838
20420W        W93488  19.867   4.318  10.701
20421W        W93489  28.612  44.002   3.278
20422W        W93490  33.481  26.562   4.125
20423W        W93491  12.850  31.907   0.482
20424W        W93492  14.552  11.358  14.344
20425W        W93493  44.533  42.481   0.785
20426W        W93494  25.397  26.937   3.493
20427W        W93495   7.809  17.506   0.173
20428W        W93496  13.609  20.816   0.373
20429W        W93497  23.131   9.070   3.742
20430W        W93498   1.927  34.366   3.709
20431W        W93499  22.175  15.311   3.112
20432W        W93500  31.739   5.788  12.097
20433W        W93501  37.474  32.063   0.744
20434W        W93502  41.265  16.570   1.467
20435W        W93503  17.132  33.224   3.708
20436W        W93504  11.436   5.385   4.948
20437W        W93505  11.100  41.484  10.694
20438W        W93506  23.989   5.211  14.034
20439W        W93507  31.857  17.615  11.655
20440W        W93508  12.842   0.704  12.688
20441W        W93509  24.673  30.753   1.750
20442W        W93510   0.264   0.535   4.595
20443W        W93511  34.796   3.928   3.703
20444W        W93512  15.056  29.917  13.555
20445W        W93513  40.059  11.575   3.971
20446W        W93514   9.614  32.294  14.303
20447W        W93515  22.873  26.262  12.999
20448W        W93516  30.722  18.085   2.274
20449W        W93517   0.439  22.123  13.901
20450W        W93518   5.244  29.084  14.512
20451W        W93519  36.501  41.724  13.505
20452W        W93520  26.468  14.680  13.851
20453W        W93521  14.338  14.139  13.999
20454W        W93522  29.944   3.997  14.290
20455W        W93523  40.581  41.196   2.246
20456W        W93524  20.593  33.200  12.873
20457W        W93525  20.178  21.598   1.171
20458W        W93526  16.059  28.390   2.800
20459W        W93527  41.052   5.093  11.285
20460W        W93528  12.374  27.451   3.591
20461W        W93529  28.944   2.994   4.689
20462W        W93530  29.694   2.977  10.631
20463W        W93531  33.894  12.140   1.965
20464W        W93532  37.480   2.657   0.337
20465W        W93533  11.218  28.613   4.657
20466W        W93534  39.381  33.002  13.615
20467W        W93535   4.692   5.202   0.400
20468W        W93536  41.870  17.028  12.966
20469W        W93537  26.713  26.880   3.632
20470W        W93538   1.396  10.889   2.144
20471W        W93539   9.190  19.742  13.977
20472W        W93540  29.490  19.604  10.252
20473W        W93541  22.525  34.688   2.826
20474W        W93542   9.505  41.371   3.275
20475W        W93543  17.242   5.569  14.955
20476W        W93544  23.669  31.041   2.850
20477W        W93545  10.163  27.726   2.757
20478W        W93546   8.452  23.923   3.433
20479W        W93547  43.315  12.304   2.602
20480W        W93548  10.224  10.695  11.758
20481W        W93549  17.550  39.067  13.506
20482W        W93550  13.143  25.070  10.169
20483W        W93551  26.496  29.120  13.949
20484W        W93552  21.199  38.302  11.605
20485W        W93553  22.920  23.198   3.477
20486W        W93554  24.511  29.352   4.436
20487W        W93555  31.323  27.123   0.430
20488W        W93556  10.464  42.389   2.189
20489W        W93557   3.719  11.079  11.906
20490W        W93558  15.326  12.214   5.271
20491W        W93559  10.890  20.739  12.462
20492W        W93560  39.902  38.259   4.569
20493W        W93561  21.110  32.568   0.686
20494W        W93562   2.429  34.961  10.781
20495W        W93563   3.984  18.617   0.875
20496W        W93564   1.397  13.877   0.003
20497W        W93565  20.539  33.820  11.106
20498W        W93566   7.804   8.759   4.806
20499W        W93567   9.461  34.590  10.700
20500W        W93568   7.389  41.879   0.319
20501W        W93569  11.300  42.939  12.606
20502W        W93570  23.581  22.548   1.726
20503W        W93571   5.820  33.454   4.087
20504W        W93572   9.279  12.616  14.673
20505W        W93573  43.962  34.700   0.282
20506W        W93574  25.053  30.549   0.924
20507W        W93575  30.384   7.117  13.836
20508W        W93576  17.952   5.952   3.139
20509W        W93577  20.293   2.928  14.109
20510W        W93578  26.261   4.343   3.635
20511W        W93579   0.340  39.054   4.124
20512W        W93580   0.897  21.234   0.523
20513W        W93581   7.773   6.941   2.747
20514W        W93582  11.102  16.041  12.686
20515W        W93583  35.090   8.903  10.251
20516W        W93584  26.494  43.343  14.447
20517W        W93585  23.727  27.948  12.130
20518W        W93586  31.659  40.170  14.424
20519W        W93587  30.181  20.079  14.976
20520W        W93588  17.341  17.651  13.789
20521W        W93589  23.889  24.412   0.839
20522W        W93590  37.349   8.716   0.839
20523W        W93591  11.658  15.328  10.776
20524W        W93592   5.863  37.060   4.364
20525W        W93593  13.247  29.406  12.920
20526W        W93594   9.348  16.602   2.480
20527W        W93595  15.312  35.374   2.893
20528W        W93596   8.212  25.857  11.137
20529W        W93597   7.799  35.322   3.155
20530W        W93598  13.664  17.551  14.374
20531W        W93599   6.636  29.932   1.304
20532W        W93600  24.923   2.008   0.769
20533W        W93601  20.125  44.444  12.939
20534W        W93602  34.105  18.811  14.771
20535W        W93603  34.830   2.462   0.150
20536W        W93604  21.717  36.391  12.093
20537W        W93605  43.916  37.939  11.626
20538W        W93606  43.494  37.876   2.762
20539W        W93607  29.102  21.143   1.317
20540W        W93608  29.178   0.720  14.981
20541W        W93609  16.234  30.209  14.454
20542W        W93610   3.565  38.602  11.479
20543W        W93611  23.656  27.936   3.333
20544W        W93612  31.328  11.788   4.239
20545W        W93613  39.905  24.033   0.843
20546W        W93614  19.058  17.146   1.540
20547W        W93615  26.633  23.639   0.364
20548W        W93616  23.153  12.605   4.411
20549W        W93617  14.647  27.638  10.682
20550W        W93618  36.618  35.587  12.596
20551W        W93619  30.315  12.685  11.154
20552W        W93620  25.969  25.686   3.790
20553W        W93621  23.731   4.635   2.828
20554W        W93622  10.208  12.563   2.817
20555W        W93623  23.471   6.106   0.326
20556W        W93624  23.400  40.841  13.165
20557W        W93625  17.002  37.523   0.413
20558W        W93626  44.478  32.135  12.974
20559W        W93627  41.952  41.976   0.455
20560W        W93628  13.855  38.019  14.357
20561W        W93629   0.121   3.170  12.457
20562W        W93630  16.432  15.711   4.404
20563W        W93631   5.634  10.931  11.536
20564W        W93632  39.398  21.325  11.620
20565W        W93633  40.955  29.996   3.707
20566W        W93634   5.350  39.572  10.708
20567W        W93635  17.945   0.810   3.329
20568W        W93636  14.639   4.342  12.794
20569W        W93637  25.955  33.290   1.322
20570W        W93638  36.502   8.322  11.384
20571W        W93639   4.670  41.437   3.495
20572W        W93640  44.712  26.660   2.720
20573W        W93641  44.910  10.881  14.997
20574W        W93642  30.423  25.649  11.216
20575W        W93643   4.844  24.993   4.371
20576W        W93644  16.075  29.109  12.581
20577W        W93645  42.765   3.426  12.234
20578W        W93646  40.353  20.537   0.367
20579W        W93647  35.563  11.109   3.403
20580W        W93648  41.920  19.341   3.563
20581W        W93649  17.904   3.813   4.718
20582W        W93650   8.098   1.718  10.643
20583W        W93651  30.786  33.352   5.079
20584W        W93652  25.909  22.586  14.977
20585W        W93653  42.519  15.631   2.260
20586W        W93654  24.221   4.179   0.357
20587W        W93655  17.059  40.224  10.850
20588W        W93656  40.992  22.563  12.535
20589W        W93657  31.348  34.584  14.989
20590W        W93658  28.770  13.312   3.989
20591W        W93659  13.737  14.561  14.898
20592W        W93660  29.190  41.497   3.654
20593W        W93661  34.314   4.349   1.831
20594W        W93662   5.075   0.027  14.070
20595W        W93663  41.774  25.533  11.586
20596W        W93664  29.186  27.121   3.816
20597W        W93665  10.363  25.177   0.224
20598W        W93666   3.863  16.405   3.298
20599W        W93667  19.135   7.707   1.416
20600W        W93668  30.404   8.810   1.973
20601W        W93669  17.439  34.125   1.981
20602W        W93670  15.147  21.772   4.736
20603W        W93671  22.239   3.678   0.434
20604W        W93672  24.155  44.265   3.175
20605W        W93673  31.852   9.155  14.306
20606W        W93674   4.905  36.212   2.537
20607W        W93675  18.572  28.209  12.141
20608W        W93676  25.977  12.326  13.829
20609W        W93677   1.288  37.871  10.898
20610W        W93678  19.410   0.683   4.108
20611W        W93679  38.822   4.963  12.041
20612W        W93680  31.055  38.284  12.803
20613W        W93681  37.391  10.860   3.136
20614W        W93682   2.522  15.543   4.534
20615W        W93683  17.260  20.103  13.650
20616W        W93684  43.997   5.939  14.399
20617W        W93685   0.410   2.796  14.962
20618W        W93686  38.945  43.259  10.678
20619W        W93687  19.928  21.470  11.133
20620W        W93688  24.540  31.407   4.667
20621W        W93689   7.206   9.750  13.271
20622W        W93690   9.885  25.471  12.101
20623W        W93691  34.415  15.756   1.883
20624W        W93692   1.333  33.249   3.148
20625W        W93693   3.288  25.041  13.552
20626W        W93694  37.696  15.818  11.630
20627W        W93695   5.488  42.386  10.848
20628W        W93696  20.749  35.329  10.965
20629W        W93697  31.993  43.771   4.202
20630W        W93698   3.242  34.897   4.851
20631W        W93699  41.980  21.449  13.504
20632W        W93700  16.354  12.547  11.077
20633W        W93701   5.611  44.899  14.986
20634W        W93702  12.223  12.589  12.416
20635W        W93703  12.691  23.850  13.828
20636W        W93704  27.509  12.926   2.617
20637W        W93705  41.919  15.670   5.128
20638W        W93706  14.805  33.511   3.041
20639W        W93707  15.410   9.149   2.235
20640W        W93708  36.618   5.254  12.588
20641W        W93709  44.810  23.292  13.976
20642W        W93710  13.004  36.501   4.049
20643W        W93711  37.436   7.399  11.199
20644W        W93712  15.668  11.905  13.018
20645W        W93713  38.526  43.926   1.017
20646W        W93714  15.683  27.905  11.078
20647W        W93715   8.163  38.036  11.832
20648W        W93716   8.758  10.097  10.330
20649W        W93717  27.615  25.960  12.452
20650W        W93718  32.058   2.087   4.638
20651W        W93719  39.467  38.495  13.815
20652W        W93720   2.374  13.463   4.539
20653W        W93721  35.428  35.638  11.767
20654W        W93722  10.209  41.371   1.745
20655W        W93723  33.082  21.570  14.889
20656W        W93724  28.392  20.789  13.735
20657W        W93725  11.728  42.710  12.476
20658W        W93726  42.437   8.006   2.628
20659W        W93727  33.917  14.588  13.583
20660W        W93728  28.485   8.345  12.419
20661W        W93729  38.616  32.357  13.535
20662W        W93730   7.896  19.429   2.706
20663W        W93731  34.841  31.582   9.822
20664W        W93732  23.473  28.946  12.026
20665W        W93733  38.779  22.056  10.613
20666W        W93734  21.279  43.259  10.569
20667W        W93735  28.061  43.888  12.035
20668W        W93736  11.739   3.868   1.922
20669W        W93737  35.520  14.717  10.902
20670W        W93738  23.746  25.638   3.344
20671W        W93739   9.823  10.229  14.716
20672W        W93740  26.909  32.673  12.000
20673W        W93741   8.453  18.703   4.996
20674W        W93742  42.417  18.454  14.945
20675W        W93743  30.178  30.620  12.363
20676W        W93744  29.001  32.780  14.914
20677W        W93745  16.118   4.373  14.431
20678W        W93746  16.292  13.660  13.504
20679W        W93747  26.477  13.636  10.584
20680W        W93748  16.579  21.524  10.772
20681W        W93749  10.868  18.902  14.866
20682W        W93750  32.130  21.002   3.245
20683W        W93751  12.569  36.943  13.830
20684W        W93752  44.911   2.420  14.077
20685W        W93753  23.212  28.600   0.319
20686W        W93754  41.350   2.430   0.908
20687W        W93755  17.559  36.320   3.265
20688W        W93756   1.807  10.799  10.830
20689W        W93757   2.450   3.937  14.596
20690W        W93758  34.051  35.320  11.463
20691W        W93759   9.835  27.593  12.093
20692W        W93760  39.938  26.639   4.717
20693W        W93761  20.489  30.417  12.856
20694W        W93762  28.520  22.031   3.186
20695W        W93763   8.671  20.319   2.095
20696W        W93764  32.546  36.820  11.177
20697W        W93765  44.790  12.779  10.703
20698W        W93766  28.849  37.665  12.949
20699W        W93767  21.681  24.764  14.928
20700W        W93768  18.169  26.234  13.858
20701W        W93769   6.875  17.108   2.368
20702W        W93770  28.887  28.607  14.987
20703W        W93771  21.591  30.920  12.021
20704W        W93772  11.189  25.497   0.298
20705W        W93773   5.193  27.522  14.824
20706W        W93774  23.424  14.108   1.889
20707W        W93775  29.065   3.458   0.957
20708W        W93776  26.207  44.875  13.439
20709W        W93777  33.106  30.854  12.885
20710W        W93778  31.500  15.085  12.879
20711W        W93779  43.324  30.524  12.480
20712W        W93780  31.267   1.779   2.445
20713W        W93781  22.932   2.409  11.504
20714W        W93782  34.854   5.119   0.018
20715W        W93783  10.691  42.474   2.738
20716W        W93784   2.127  12.784   1.886
20717W        W93785  13.773   2.636  14.861
20718W        W93786  38.816   2.029   2.301
20719W        W93787   9.967  33.537  14.887
20720W        W93788  27.548  43.736  11.943
20721W        W93789  25.149  38.208  10.702
20722W        W93790  27.529  17.717  10.911
20723W        W93791  33.081  39.495   4.229
20724W        W93792  34.662  44.782  14.361
20725W        W93793  37.999  39.790  14.003
20726W        W93794  15.674  21.735  14.824
20727W        W93795  27.261  17.766   2.193
20728W        W93796  17.439  28.114  11.921
20729W        W93797  14.212  27.111   2.574
20730W        W93798   1.156   8.903  11.405
20731W        W93799   9.856  35.482  10.425
20732W        W93800  10.154  19.053  14.236
20733W        W93801  18.578  36.610  11.152
20734W        W93802  29.577  16.383   0.404
20735W        W93803  14.615   7.752   4.165
20736W        W93804  36.301  29.613  14.988
20737W        W93805  19.116  18.570   1.020
20738W        W93806  44.793  17.020   0.958
20739W        W93807  37.985  39.013   2.692
20740W        W93808  24.633  36.816   1.846
20741W        W93809   8.353  12.214   0.779
20742W        W93810  25.218  10.350  14.531
20743W        W93811   2.647  11.184  14.634
20744W        W93812  18.383  36.145  13.320
20745W        W93813  39.420   9.349   5.029
20746W        W93814  31.650  15.929   4.481
20747W        W93815  38.967  26.026   3.730
20748W        W93816   5.186  42.045   3.575
20749W        W93817   8.214  38.492   2.868
20750W        W93818  11.851   4.366  14.284
20751W        W93819   6.308  39.473   0.031
20752W        W93820  18.604  30.517   4.550
20753W        W93821  39.111   0.093   4.489
20754W        W93822   2.759  23.697   2.203
20755W        W93823  10.407  14.025   0.133
20756W        W93824   8.254   5.166  14.193
20757W        W93825   2.616  20.420   2.356
20758W        W93826  26.364  41.577  11.970
20759W        W93827  31.599  32.862   3.187
20760W        W93828  35.525  13.506  12.525
20761W        W93829  27.158  17.011  10.859
20762W        W93830  16.767  21.522  13.898
20763W        W93831  21.091   6.934   0.886
20764W        W93832  39.880  40.408   0.311
20765W        W93833  36.362  35.203  13.971
20766W        W93834  43.393  40.015  13.752
20767W        W93835  18.763  42.355  13.908
20768W        W93836  32.611  32.502  12.027
20769W        W93837  22.515  12.402  12.199
20770W        W93838   6.904  19.585  11.647
20771W        W93839  11.430  33.485  14.820
20772W        W93840  21.652  31.219   0.841
20773W        W93841  36.476  31.381   2.976
20774W        W93842  21.639  22.517   4.434
20775W        W93843  40.087  28.490   0.817
20776W        W93844  20.840  29.431   2.491
20777W        W93845  26.169  14.237  13.956
20778W        W93846   5.258   3.840  10.928
20779W        W93847  14.083  11.118   4.574
20780W        W93848  22.539  28.217   9.742
20781W        W93849  40.040   5.369   4.709
20782W        W93850   0.463  33.908   3.577
20783W        W93851  35.049  42.508  14.424
20784W        W93852  16.790  12.910   3.829
20785W        W93853  32.998  31.672   0.464
20786W        W93854  35.093   7.990   1.706
20787W        W93855   6.575  36.611   3.192
20788W        W93856  27.161  32.424   2.028
20789W        W93857  21.432  15.559  10.622
20790W        W93858  11.709   9.230   3.711
20791W        W93859  41.371  19.089   2.393
20792W        W93860   4.789  34.481  10.723
20793W        W93861  34.107  22.070   2.681
20794W        W93862  42.897  41.597   3.691
20795W        W93863   8.966  28.887  13.800
20796W        W93864  26.119  41.832   2.476
20797W        W93865   3.626  28.223   2.159
20798W        W93866  28.091  37.835  12.044
20799W        W93867  21.586  18.546   5.485
20800W        W93868  44.900  20.130  12.980
20801W        W93869   2.809   7.158   4.011
20802W        W93870  17.249   8.777   0.312
20803W        W93871   5.290  20.259   4.568
20804W        W93872  13.726  26.861  13.314
20805W        W93873  23.778  31.617  12.033
20806W        W93874  39.986  21.068  12.593
20807W        W93875  12.931  21.843   4.168
20808W        W93876  43.602  29.670  11.171
20809W        W93877  20.263  44.719  13.359
20810W        W93878  38.107   3.689   0.837
20811W        W93879  17.866   1.491   2.750
20812W        W93880   6.753  21.146  10.472
20813W        W93881  20.542  31.060  12.892
20814W        W93882  23.646  38.211   2.808
20815W        W93883   2.479  14.978  14.554
20816W        W93884   2.849   3.751  14.879
20817W        W93885  41.932   6.188  14.944
20818W        W93886  14.641   4.904   1.858
20819W        W93887  37.815  37.543  10.969
20820W        W93888  11.228   4.473  13.847
20821W        W93889  34.084  10.173  14.331
20822W        W93890  39.882   4.003  14.349
20823W        W93891  24.364  14.683   3.298
20824W        W93892  28.407  38.005  11.610
20825W        W93893  12.359  30.892  13.195
20826W        W93894   0.501  13.555  11.213
20827W        W93895   8.165   9.592   4.035
20828W        W93896  36.590  22.037   0.885
20829W        W93897   5.830  11.877  11.618
20830W        W93898  25.602  17.788  12.027
20831W        W93899  28.565  18.021  11.668
20832W        W93900  43.020  39.794   3.991
20833W        W93901  26.214  21.779   0.825
20834W        W93902  24.322  31.082   0.285
20835W        W93903   9.359  28.514   2.288
20836W        W93904  35.870  42.249   3.767
20837W        W93905   6.621  40.677   3.763
20838W        W93906   8.830   9.373   5.087
20839W        W93907  36.731  32.735  13.383
20840W        W93908  39.901  17.718   1.452
20841W        W93909   4.212  40.038  14.347
20842W        W93910  14.113   0.348   2.247
20843W        W93911  24.272  44.807  13.484
20844W        W93912  30.912  34.654   2.860
20845W        W93913   7.081   5.754   3.130
20846W        W93914  14.201  44.824  10.847
20847W        W93915  32.879  16.661  10.675
20848W        W93916   6.930  42.845   1.503
20849W        W93917  15.832   8.587  13.495
20850W        W93918  26.677  25.043   3.205
20851W        W93919  30.059  38.326   0.206
20852W        W93920  42.261  27.300  14.046
20853W        W93921  32.167  38.571  14.663
20854W        W93922  38.568   3.913   0.740
20855W        W93923  28.209  25.552   4.310
20856W        W93924  43.175  11.882  13.422
20857W        W93925  21.028  28.988   0.615
20858W        W93926  32.461  42.889  14.434
20859W        W93927  26.473  16.834  11.619
20860W        W93928  41.193  40.428   1.662
20861W        W93929  15.785   6.712   4.762
20862W        W93930  11.857   4.980   2.210
20863W        W93931  38.924  22.721  13.294
20864W        W93932   3.659  28.185  10.249
20865W        W93933  33.565  11.872   3.701
20866W        W93934   0.276  13.147  12.647
20867W        W93935   1.949  42.379  12.045
20868W        W93936   8.379  17.911   4.325
20869W        W93937  32.237   3.271   4.506
20870W        W93938  18.639  24.713   0.231
20871W        W93939   2.907   7.945  14.560
20872W        W93940  24.175   2.578   1.557
20873W        W93941   1.333  17.088  12.644
20874W        W93942  20.580   3.656   1.293
20875W        W93943   2.894  10.322   2.783
20876W        W93944  32.999  41.905  12.087
20877W        W93945  32.853  12.294   3.923
20878W        W93946  16.009  40.567   1.540
20879W        W93947  26.112  32.595   1.827
20880W        W93948   6.666  16.274  10.400
20881W        W93949  35.902  30.438  11.827
20882W        W93950  22.955  36.962  11.105
20883W        W93951  39.407  27.146   2.493
20884W        W93952   5.709  27.465  14.758
20885W        W93953  12.097   2.250   2.658
20886W        W93954  31.164  23.476  10.043
20887W        W93955  39.359   4.252   4.160
20888W        W93956  29.481   4.225   0.878
20889W        W93957  29.136   2.204  10.770
20890W        W93958  41.406  33.674   5.039
20891W        W93959   9.639  43.014  11.440
20892W        W93960   3.963  36.122  12.810
20893W        W93961  13.734   9.020   0.088
20894W        W93962  44.958  31.972   2.459
20895W        W93963  29.542  34.923   3.713
20896W        W93964   2.473  39.115  12.281
20897W        W93965  28.989  14.220   2.754
20898W        W93966  11.638  30.645  11.608
20899W        W93967  27.521   3.934  10.920
20900W        W93968  35.383  24.308   3.175
20901W        W93969  31.719  20.607  14.483
20902W        W93970  25.664  10.126  13.408
20903W        W93971  34.047  35.523   0.989
20904W        W93972  20.942  12.527   2.278
20905W        W93973  26.333  19.963   2.016
20906W        W93974   9.213   6.378   1.168
20907W        W93975   3.940   3.443  13.428
20908W        W93976  28.730  24.279   1.284
20909W        W93977  41.748  25.797  12.151
20910W        W93978  29.041  31.555   1.662
20911W        W93979  35.099  44.048  14.543
20912W        W93980   2.012  28.211   3.640
20913W        W93981  35.588  41.779  14.527
20914W        W93982  18.876  36.899  11.476
20915W        W93983  31.681  27.908   3.668
20916W        W93984  15.350   0.929  11.925
20917W        W93985  21.589  15.337   3.244
20918W        W93986   5.003   3.845   2.741
20919W        W93987  17.427   5.739   1.725
20920W        W93988  20.072  36.430   4.058
20921W        W93989  13.833  35.280  12.377
20922W        W93990  12.076  40.262  12.487
20923W        W93991  23.721  11.246   2.161
20924W        W93992   6.269  15.515   1.396
20925W        W93993  18.708  44.752  12.065
20926W        W93994  17.402  14.404  11.444
20927W        W93995  37.516  35.104  12.006
20928W        W93996  33.658  34.957  11.407
20929W        W93997  44.279   7.437   0.226
20930W        W93998   6.150  29.379  11.099
20931W        W93999  23.705   4.184   3.061
20932W        W94000  42.846   3.193  11.805
20933W        W94001  21.565  37.576   4.243
20934W        W94002  29.585  22.503  11.540
20935W        W94003  15.054  44.390  11.031
20936W        W94004  38.695  17.048   5.074
20937W        W94005  43.436  14.343  11.683
20938W        W94006  43.391   9.339   1.358
20939W        W94007  33.706   3.031  11.896
20940W        W94008  36.366  18.645  10.447
20941W        W94009  16.521   3.388  14.053
20942W        W94010  27.673  41.047   3.309
20943W        W94011  34.088  40.886  11.608
20944W        W94012  26.579   0.377   4.886
20945W        W94013  25.985  15.515   3.724
20946W        W94014   3.357  25.472  13.290
20947W        W94015   7.596  40.296   1.733
20948W        W94016  36.335  13.874   4.206
20949W        W94017   9.541   3.329   2.011
20950W        W94018  18.785  44.229   1.915
20951W        W94019  13.552  19.799   3.651
20952W        W94020  20.333  23.182   1.988
20953W        W94021  36.540   7.117  12.527
20954W        W94022   1.031  12.681   4.197
20955W        W94023  43.367  43.230   1.326
20956W        W94024  28.612  26.614  14.882
20957W        W94025  18.569  38.522   3.382
20958W        W94026  32.539  23.109  12.557
20959W        W94027  35.108  22.998  12.373
20960W        W94028  23.581   7.051   2.068
20961W        W94029  14.292  43.870   3.264
20962W        W94030  25.086   4.375  14.735
20963W        W94031  13.564  24.000  14.740
20964W        W94032   3.904   5.752  13.442
20965W        W94033  38.832  13.353   0.888
20966W        W94034  26.166  19.279  13.679
20967W        W94035  28.105   9.920  10.949
20968W        W94036   2.843  22.042   4.233
20969W        W94037  10.747  26.800  12.893
20970W        W94038  15.791   3.779  14.301
20971W        W94039   4.712   1.013  13.941
20972W        W94040   5.159   7.305   3.155
20973W        W94041  33.668   6.893  11.606
20974W        W94042   9.372  24.976  14.317
20975W        W94043   4.024  44.323  10.245
20976W        W94044  20.735  35.547  11.434
20977W        W94045   7.263   5.744   4.518
20978W        W94046  43.558  25.289   2.947
20979W        W94047  28.282  14.172  13.800
20980W        W94048  31.132   8.790   0.361
20981W        W94049  37.815  10.280  13.067
20982W        W94050  18.365  26.085   2.327
20983W        W94051  10.981   2.447  12.242
20984W        W94052  18.644  38.216  12.437
20985W        W94053  10.809  35.927   4.708
20986W        W94054  37.190  30.261   3.311
20987W        W94055   9.691  41.726  14.976
20988W        W94056  23.352  15.517  11.758
20989W        W94057  15.104  16.720   1.327
20990W        W94058  22.441  26.543  13.058
20991W        W94059  26.580  14.272  12.519
20992W        W94060   7.299  35.795  14.341
20993W        W94061   9.781   0.772   1.420
20994W        W94062  29.449  38.262   4.837
20995W        W94063  26.721  25.636   2.019
20996W        W94064   6.901  10.798   3.213
20997W        W94065  32.480  13.326   2.824
20998W        W94066   1.027  37.551  10.207
20999W        W94067  35.562  27.675   3.680
21000W        W94068   7.191   5.431  11.631
21001W        W94069   4.172  16.997   1.674
21002W        W94070   3.586  36.739  12.080
21003W        W94071  39.485  11.930   3.668
21004W        W94072  23.050   1.462   1.413
21005W        W94073  41.944  23.812  12.031
21006W        W94074   2.331  26.398  13.016
21007W        W94075  35.907  30.509   4.643
21008W        W94076  32.151  19.712  11.215
21009W        W94077  34.928   2.946   0.874
21010W        W94078  24.408   5.502  10.741
21011W        W94079  25.187  42.418   4.749
21012W        W94080  23.621  25.944   0.368
21013W        W94081  22.235  31.148   4.727
21014W        W94082  31.925  31.873   9.907
21015W        W94083  44.522   4.237   4.717
21016W        W94084  19.133   9.544   0.721
21017W        W94085  38.044  28.488   4.647
21018W        W94086  41.098  10.930  11.974
21019W        W94087  32.499  41.153   1.311
21020W        W94088  22.982  38.349  12.588
21021W        W94089  38.281  33.367   4.827
21022W        W94090  15.713  29.390   2.286
21023W        W94091  14.423   4.278  13.254
21024W        W94092  26.025  32.602  13.292
21025W        W94093   9.524   3.876   1.481
21026W        W94094  28.922  26.193  11.549
21027W        W94095   9.694   4.094  14.045
21028W        W94096  31.005  13.252  12.886
21029W        W94097  34.649   6.603  11.566
21030W        W94098   7.271  15.411  13.768
21031W        W94099  22.455  42.061   0.448
21032W        W94100  41.087  31.051  10.780
21033W        W94101  24.958  10.822  14.626
21034W        W94102  31.530  22.703  13.256
21035W        W94103  18.348   6.889  10.457
21036W        W94104   2.826  22.569   2.775
21037W        W94105   0.035  26.487  13.242
21038W        W94106  18.119  16.520  13.064
21039W        W94107  40.917  35.119   1.600
21040W        W94108  24.185  34.580  10.410
21041W        W94109  37.902  19.146  12.444
21042W        W94110  18.123  19.639  10.679
21043W        W94111  22.542   0.409  12.192
21044W        W94112  25.786  25.714   2.112
21045W        W94113   2.325   3.001  14.487
21046W        W94114   6.432  33.710   2.267
21047W        W94115   8.879  11.714  12.771
21048W        W94116  37.716  10.076  11.283
21049W        W94117  34.129  22.216  12.728
21050W        W94118  18.482  34.057  12.943
21051W        W94119  30.179  42.835  12.503
21052W        W94120   3.735   1.985   4.585
21053W        W94121  40.823  13.886   4.605
21054W        W94122  40.867  21.247   1.471
21055W        W94123  36.878  32.499   0.718
21056W        W94124  43.275  21.772   1.728
21057W        W94125   1.720   0.072  14.431
21058W        W94126   4.951   0.431  13.769
21059W        W94127  38.052  25.766   4.707
21060W        W94128   2.381   0.937  11.153
21061W        W94129  26.630   9.364   1.292
21062W        W94130  19.571  41.822  14.969
21063W        W94131  27.591  21.932  10.512
21064W        W94132  32.906  14.534   4.094
21065W        W94133  38.753  40.981   2.373
21066W        W94134  40.350  25.631  11.411
21067W        W94135  24.606  22.538   0.490
21068W        W94136  21.251  17.567  10.668
21069W        W94137  14.855   5.900   0.819
21070W        W94138  10.169  30.008   0.102
21071W        W94139  38.666  35.449  12.406
21072W        W94140  14.389  18.198  11.865
21073W        W94141  14.804   2.391   3.376
21074W        W94142  20.792  41.610   1.264
21075W        W94143  22.097  40.302   2.163
21076W        W94144   2.693  21.747   2.435
21077W        W94145  21.811  42.416   1.844
21078W        W94146   1.546  18.699  14.130
21079W        W94147  39.045  15.708   1.284
21080W        W94148  41.084  31.029   0.978
21081W        W94149  10.191  36.810  10.543
21082W        W94150  39.427  29.863   1.785
21083W        W94151  18.333   8.685   3.107
21084W        W94152   7.825  14.828  10.635
21085W        W94153  36.230   0.270  13.463
21086W        W94154  24.802  13.024  10.653
21087W        W94155  34.433  31.382  11.143
21088W        W94156  36.051  43.012  12.052
21089W        W94157   5.263  30.714  13.073
21090W        W94158  16.136  12.489  14.482
21091W        W94159  42.983  10.956  12.037
21092W        W94160  10.919   0.297   2.801
21093W        W94161  23.993  11.756   0.886
21094W        W94162  17.348  21.150  12.633
21095W        W94163  14.713  21.090  11.929
21096W        W94164   1.452   1.971  13.473
21097W        W94165  13.360  28.610   2.903
21098W        W94166   8.201  32.357   0.720
21099W        W94167  42.425   2.172  12.526
21100W        W94168   4.366   2.812  14.248
21101W        W94169  21.593  29.587   1.818
21102W        W94170  37.015   3.871  12.934
21103W        W94171  12.566  39.140  11.916
21104W        W94172  22.967   2.484  12.404
21105W        W94173  22.241   2.908   3.404
21106W        W94174  34.985  44.409   1.495
21107W        W94175  21.646  42.365   2.371
21108W        W94176  37.829   6.912   0.354
21109W        W94177   2.821  38.480   2.188
21110W        W94178   6.000   1.872  12.586
21111W        W94179  12.475  32.911  12.121
21112W        W94180  41.864  16.695  14.876
21113W        W94181  16.162  28.149  10.632
21114W        W94182  42.759  32.023   0.876
21115W        W94183  27.079  43.796  11.098
21116W        W94184   5.667  38.534  11.571
21117W        W94185  16.090  17.466   4.146
21118W        W94186  16.805  27.635   3.761
21119W        W94187  20.140   2.680   1.511
21120W        W94188  37.908  35.012   0.304
21121W        W94189   1.421  21.680  12.348
21122W        W94190  20.522  26.572  13.985
21123W        W94191  41.882  37.053  12.310
21124W        W94192   7.304  42.475   1.346
21125W        W94193   5.260  22.987  11.182
21126W        W94194  42.801  35.791  10.827
21127W        W94195  25.105   2.040   0.258
21128W        W94196  42.267  36.400   0.243
21129W        W94197  39.035  32.037   1.433
21130W        W94198   3.942   8.875   0.770
21131W        W94199   0.969  24.981   4.183
21132W        W94200   2.373   2.231   3.893
21133W        W94201   6.229   4.993  12.258
21134W        W94202  32.245   8.922  14.918
21135W        W94203  29.234  27.172  14.932
21136W        W94204  34.653  44.874   4.575
21137W        W94205  29.073  40.561   3.658
21138W        W94206  38.381  39.819   2.598
21139W        W94207  19.654  42.235  14.298
21140W        W94208   7.954  15.481   4.042
21141W        W94209  27.310  32.527  14.822
21142W        W94210  20.272  25.009  13.408
21143W        W94211  16.108   5.389  13.577
21144W        W94212  26.911  32.056   2.372
21145W        W94213  28.624  31.686  12.499
21146W        W94214  32.556  39.604  11.792
21147W        W94215  42.480  25.654   0.316
21148W        W94216   6.280   6.447   4.222
21149W        W94217  13.534  44.568   3.689
21150W        W94218  25.077  39.597   3.642
21151W        W94219   0.686  14.830   0.517
21152W        W94220   6.631  42.862  14.826
21153W        W94221  17.341  43.461  14.451
21154W        W94222  27.522  13.412   1.733
21155W        W94223  38.136  26.145  14.902
21156W        W94224  12.296  41.045   1.875
21157W        W94225  11.696  44.913  10.721
21158W        W94226  20.814  14.339   3.265
21159W        W94227  40.409  16.149  13.609
21160W        W94228   7.132  38.932  12.642
21161W        W94229  23.206  44.323  12.867
21162W        W94230  17.016  17.012   4.215
21163W        W94231  22.262  29.626  13.828
21164W        W94232  31.634  42.895  14.793
21165W        W94233  25.967  40.962  14.281
21166W        W94234  17.498   3.767   3.705
21167W        W94235  29.642  15.112  14.951
21168W        W94236  36.708  21.815  11.928
21169W        W94237  24.164   4.955   3.574
21170W        W94238  13.806  39.351  12.317
21171W        W94239  43.257  16.130   2.328
21172W        W94240   4.985   0.124  11.918
21173W        W94241  17.315   1.963  12.983
21174W        W94242  11.221  40.789  14.838
21175W        W94243  20.666   3.324   0.919
21176W        W94244   5.308  40.347  12.436
21177W        W94245  14.169  33.633   3.732
21178W        W94246   3.230  36.217   2.796
21179W        W94247  22.438  31.729   2.790
21180W        W94248  34.749  33.400   2.901
21181W        W94249  26.449   2.170   4.167
21182W        W94250   1.547   5.375   2.231
21183W        W94251  44.243   9.647  12.969
21184W        W94252   5.195  17.496   0.898
21185W        W94253  12.140  25.423   4.631
21186W        W94254  31.071  33.602  12.561
21187W        W94255   6.376  13.165  11.538
21188W        W94256  20.776  42.345   2.399
21189W        W94257  40.471  18.019   2.196
21190W        W94258  10.288  41.857   3.347
21191W        W94259  19.537  19.191   0.162
21192W        W94260  32.077  18.090   4.297
21193W        W94261  41.607  20.020  14.988
21194W        W94262  19.042  24.135  14.237
21195W        W94263  29.685   7.090  14.828
21196W        W94264  14.679  18.599  10.682
21197W        W94265  36.643  15.282  11.995
21198W        W94266  11.312  39.540   1.788
21199W        W94267  38.019  36.683  10.737
21200W        W94268  29.919  39.883   4.429
21201W        W94269  30.284   0.761  11.447
21202W        W94270  25.171   5.904  13.921
21203W        W94271  38.230  13.363  10.770
21204W        W94272  35.111  19.182   0.320
21205W        W94273  15.315   8.734  14.056
21206W        W94274  11.630  44.292   4.746
21207W        W94275  43.540  25.680   0.669
21208W        W94276   5.688  10.129   1.820
21209W        W94277  39.400  33.038   0.391
21210W        W94278  32.883  39.586   1.804
21211W        W94279  10.822  25.805   4.634
21212W        W94280  42.205  26.699   0.316
21213W        W94281   1.191  14.455  13.816
21214W        W94282  22.989   2.839  12.847
21215W        W94283  24.041  41.567  13.312
21216W        W94284  10.842  10.941  13.474
21217W        W94285  25.341  39.425  13.341
21218W        W94286  28.788  39.339  10.686
21219W        W94287   4.281  25.580   2.163
21220W        W94288  23.256  17.661  13.849
21221W        W94289  42.058  20.291   1.334
21222W        W94290  26.058  43.295   0.743
21223W        W94291  38.497  15.230  10.457
21224W        W94292  13.390   6.116   3.834
21225W        W94293  40.356  10.207  13.011
21226W        W94294   2.870  10.048  14.256
21227W        W94295  37.525  13.305  14.856
21228W        W94296   9.275  20.195  12.409
21229W        W94297  11.440  27.164  13.494
21230W        W94298  16.718  18.557   3.774
21231W        W94299  22.796  18.821  12.433
21232W        W94300  28.995  23.463  13.534
21233W        W94301   4.245   9.591   2.815
21234W        W94302  41.403  13.918  14.385
21235W        W94303  37.470  27.232  13.938
21236W        W94304  21.321   7.375   4.357
21237W        W94305  22.781  13.198  13.680
21238W        W94306  36.510  12.410   1.454
21239W        W94307  32.441  36.082  10.559
21240W        W94308   1.466  28.251  11.452
21241W        W94309   4.037   3.621  12.510
21242W        W94310   8.203  15.161  12.260
21243W        W94311  19.057  25.582   4.287
21244W        W94312  26.568  31.072   2.625
21245W        W94313   4.349  10.371   0.317
21246W        W94314  36.999  15.277  13.089
21247W        W94315  13.526   4.045  11.673
21248W        W94316  39.730  16.430   3.660
21249W        W94317  25.892  42.064   2.896
21250W        W94318  39.526  22.792  11.512
21251W        W94319  18.160  15.999  13.977
21252W        W94320  18.515  25.707  13.853
21253W        W94321  26.715  43.604  10.149
21254W        W94322  20.286  42.859   4.729
21255W        W94323   6.111  37.075  13.771
21256W        W94324  22.547  21.927   4.472
21257W        W94325  16.832   3.560   0.864
21258W        W94326  24.215  38.048   4.020
21259W        W94327  13.652  11.724  12.238
21260W        W94328  30.339  14.308   0.828
21261W        W94329  21.134  25.667  12.928
21262W        W94330  28.239  33.148  10.261
21263W        W94331   5.084  44.453   2.677
21264W        W94332  32.915   2.817  14.682
21265W        W94333  27.170  34.360  14.562
21266W        W94334  36.932  25.577   4.598
21267W        W94335  29.642   4.867  12.893
21268W        W94336  37.839  38.329   0.926
21269W        W94337  40.718  18.678  12.950
21270W        W94338  13.607   2.121  13.460
21271W        W94339  19.032  37.341   5.039
21272W        W94340  21.844  18.039   3.701
21273W        W94341  15.792  33.208   2.302
21274W        W94342  34.928  18.668   0.299
21275W        W94343  29.469  21.275  12.014
21276W        W94344  25.411  43.881   3.988
21277W        W94345  40.659   2.174   2.372
21278W        W94346  37.578  19.750  13.554
21279W        W94347  24.761  13.706   4.104
21280W        W94348  16.271  24.636  10.707
21281W        W94349   3.970  22.203  13.053
21282W        W94350  11.593  11.133   2.815
21283W        W94351  38.493  10.363   0.785
21284W        W94352  16.291  33.370  14.752
21285W        W94353   9.303  23.445   4.682
21286W        W94354   3.428  27.179   1.225
21287W        W94355  15.308  35.143  11.185
21288W        W94356  12.136   4.403  13.828
21289W        W94357   5.655  40.581   4.024
21290W        W94358  42.965  17.070   5.219
21291W        W94359  32.975   3.201   3.118
21292W        W94360   5.344  32.773   3.463
21293W        W94361  17.154  32.723   2.704
21294W        W94362   2.483   4.884   4.145
21295W        W94363  42.804  41.861   4.143
21296W        W94364  26.009  11.907   2.297
21297W        W94365   1.770  44.431   2.270
21298W        W94366  22.124  20.702  14.055
21299W        W94367  19.267  38.570  13.487
21300W        W94368  28.451   2.827  10.608
21301W        W94369   0.117  28.746  11.048
21302W        W94370  22.525  10.926   1.881
21303W        W94371  21.999  34.049   4.140
21304W        W94372  10.715  19.174   5.084
21305W        W94373  23.523  28.452   0.822
21306W        W94374  13.403  28.649  14.825
21307W        W94375   8.210   8.685   3.125
21308W        W94376  27.156   1.801   4.680
21309W        W94377  35.811   1.747   1.663
21310W        W94378  28.163  44.797   1.384
21311W        W94379  17.017  22.207  12.125
21312W        W94380  30.045  23.122   3.403
21313W        W94381  20.247   9.266   3.498
21314W        W94382  43.469  14.307   4.955
21315W        W94383  39.033  24.668   1.623
21316W        W94384  23.589  43.767   1.595
21317W        W94385  34.438  38.334   2.738
21318W        W94386  37.776  21.697  14.463
21319W        W94387   3.488   4.268  13.263
21320W        W94388  38.304  16.055  10.619
21321W        W94389  26.650  16.982   4.047
21322W        W94390  29.532   7.944   0.092
21323W        W94391  35.873  24.910   4.779
21324W        W94392   5.242   3.222  11.751
21325W        W94393  34.981   8.454  11.630
21326W        W94394   9.146   0.812  12.048
21327W        W94395  17.534  14.835   4.421
21328W        W94396  41.358  21.488  12.884
21329W        W94397   0.556  41.507   2.429
21330W        W94398  11.592  34.532   0.727
21331W        W94399   7.866  40.023   5.012
21332W        W94400  27.875  23.165   9.870
21333W        W94401  30.706  37.621   0.003
21334W        W94402   3.831  15.823   0.288
21335W        W94403  27.975   4.009  11.226
21336W        W94404  39.852  34.564  12.255
21337W        W94405   4.424  41.602   2.459
21338W        W94406  26.446  44.017  13.302
21339W        W94407  20.670  32.823   2.564
21340W        W94408   6.714  10.702  13.813
21341W        W94409  11.893  35.084  14.801
21342W        W94410  32.587  12.860   2.613
21343W        W94411  19.609  14.955  13.710
21344W        W94412  17.033   1.732  13.505
21345W        W94413  39.267  26.278  12.834
21346W        W94414  34.983  16.589  13.373
21347W        W94415  25.914   0.564   1.131
21348W        W94416   4.443   5.390  14.990
21349W        W94417   1.453   7.201  10.845
21350W        W94418   5.919  44.525  14.278
21351W        W94419  31.644   3.698   2.320
21352W        W94420  27.633  40.392  10.607
21353W        W94421  19.640  24.249   2.124
21354W        W94422  29.161   1.206  12.402
21355W        W94423  34.962   7.836  14.676
21356W        W94424  16.294  10.645  11.088
21357W        W94425  21.646  35.840   2.663
21358W        W94426  36.347   2.581   2.269
21359W        W94427  14.403  32.880   3.321
21360W        W94428  22.907  32.557  14.364
21361W        W94429  16.728  18.914   0.399
21362W        W94430   7.683  27.406  11.849
21363W        W94431  28.048  39.768   0.909
21364W        W94432  43.296   7.736   2.531
21365W        W94433   7.881   8.657   1.535
21366W        W94434  38.578  23.002   2.402
21367W        W94435  16.605   0.712   3.481
21368W        W94436   4.843  33.801   4.263
21369W        W94437   2.870  44.532   2.728
21370W        W94438  11.151  24.054   3.712
21371W        W94439  19.519  36.955  12.089
21372W        W94440  22.107   6.249   1.367
21373W        W94441   6.431  21.674   1.708
21374W        W94442  27.656   7.683   3.467
21375W        W94443  42.783  28.485  14.046
21376W        W94444  37.392  41.559   2.717
21377W        W94445   5.277  39.650   3.345
21378W        W94446   2.450  30.876   3.279
21379W        W94447  17.589   1.920   2.665
21380W        W94448  34.573   7.264  14.065
21381W        W94449   1.219   4.303   1.832
21382W        W94450  43.069  11.853   2.503
21383W        W94451  38.437  25.298   0.530
21384W        W94452  37.894  38.979   1.209
21385W        W94453  20.691  25.271   4.263
21386W        W94454  42.385  31.280   3.711
21387W        W94455  12.790  44.772  14.323
21388W        W94456  21.050  10.962   5.124
21389W        W94457  33.199  36.208  13.832
21390W        W94458  31.362  41.779  14.227
21391W        W94459  28.232  41.960   4.043
21392W        W94460   0.858  18.535  11.186
21393W        W94461  38.373   7.477   3.577
21394W        W94462  16.175   2.061   0.329
21395W        W94463  37.618  19.078   4.581
21396W        W94464  42.544  14.200  13.513
21397W        W94465  19.439  21.192  11.089
21398W        W94466   0.419  23.217   1.427
21399W        W94467  19.061  30.909  14.373
21400W        W94468   4.826  17.783   2.447
21401W        W94469  35.887  33.397   4.848
21402W        W94470  20.605  31.745  14.298
21403W        W94471  19.673  40.398  14.444
21404W        W94472  27.003  25.396   0.265
21405W        W94473  16.813  16.807   0.768
21406W        W94474  15.510  15.957   1.110
21407W        W94475  22.579   8.221  12.810
21408W        W94476  37.823   6.293   3.124
21409W        W94477  25.001  36.098   1.235
21410W        W94478   7.596  39.241  13.421
21411W        W94479  37.093  21.472  14.853
21412W        W94480  33.056  13.010  12.087
21413W        W94481  44.062  25.567  11.565
21414W        W94482   0.064   2.700  12.955
21415W        W94483  11.258  14.868  11.941
21416W        W94484   5.310   6.621  13.262
21417W        W94485  14.049  44.313   3.227
21418W        W94486  28.768  36.497  12.353
21419W        W94487  23.706  23.867   0.387
21420W        W94488  21.205   0.748   3.807
21421W        W94489  15.062  34.632  14.549
21422W        W94490  33.858   9.708  12.595
21423W        W94491  37.015  25.571   0.407
21424W        W94492   9.177  34.986   1.912
21425W        W94493  23.002  10.859  13.373
21426W        W94494  36.534   3.230  12.630
21427W        W94495  37.098  34.450   3.029
21428W        W94496   2.812  35.581  12.375
21429W        W94497  31.563  28.902  10.694
21430W        W94498  25.808   2.960   4.518
21431W        W94499  18.674  16.072  14.759
21432W        W94500  37.714  12.809  10.425
21433W        W94501   3.522  43.818  12.954
21434W        W94502  21.682  30.541  11.643
21435W        W94503  23.654   3.708   4.773
21436W        W94504  14.580  33.288   0.958
21437W        W94505   9.822  41.044  11.577
21438W        W94506  18.455  43.487   0.712
21439W        W94507  32.459  28.039  12.518
21440W        W94508  31.127   2.101  13.935
21441W        W94509  40.486  10.107   4.986
21442W        W94510  26.700  26.456  14.797
21443W        W94511  32.078  16.124   4.193
21444W        W94512  23.766  14.407  12.938
21445W        W94513  16.419   2.916  13.875
21446W        W94514  24.959  39.010  13.864
21447W        W94515  30.856  40.841   3.959
21448W        W94516  19.678  15.468  11.575
21449W        W94517  21.589  39.996   4.635
21450W        W94518  19.757  35.321  14.959
21451W        W94519  12.310  34.316  14.532
21452W        W94520  19.201   5.359   0.894
21453W        W94521   1.775  29.532  12.108
21454W        W94522   2.872  35.284  14.832
21455W        W94523   2.671   8.104   3.757
21456W        W94524   3.207  17.072   3.693
21457W        W94525   4.630  23.641   1.623
21458W        W94526  36.408  24.253  12.140
21459W        W94527  19.116  42.021   1.056
21460W        W94528  40.407  21.297  12.425
21461W        W94529  27.533  43.381   3.771
21462W        W94530  16.843  40.628  14.446
21463W        W94531  20.786   9.138   2.291
21464W        W94532  17.322  12.232   3.845
21465W        W94533   2.885  14.333   0.054
21466W        W94534  37.597  43.218  11.531
21467W        W94535  34.137  10.253  11.479
21468W        W94536  28.681  21.588  11.673
21469W        W94537  32.747  24.928   5.059
21470W        W94538  13.379  14.444   2.600
21471W        W94539  18.961  29.428   2.657
21472W        W94540  31.924  13.596   2.629
21473W        W94541  42.996  42.171  13.538
21474W        W94542   1.319  23.229   2.936
21475W        W94543  21.085  13.118   0.710
21476W        W94544  22.198  36.588   0.773
21477W        W94545  41.499  19.031  14.835
21478W        W94546  15.221  13.780  11.681
21479W        W94547  15.228  36.855   0.373
21480W        W94548  19.066  22.039   1.502
21481W        W94549  17.577  38.898  10.268
21482W        W94550  37.957  10.416  10.545
21483W        W94551  19.605  37.837   3.710
21484W        W94552  26.374  41.039   2.754
21485W        W94553  36.533  25.579   1.252
21486W        W94554   0.020  34.402  14.435
21487W        W94555  42.956   2.261   1.835
21488W        W94556  13.558  42.459  10.753
21489W        W94557  11.992  11.645   0.276
21490W        W94558  37.288  11.405   1.535
21491W        W94559  36.855   6.896   4.124
21492W        W94560  36.000  32.358  14.044
21493W        W94561  10.668  27.685   1.535
21494W        W94562  20.064   2.730   3.705
21495W        W94563  42.802   7.651   0.477
21496W        W94564  18.686  18.712   0.766
21497W        W94565  36.549  42.735   4.129
21498W        W94566   3.777  23.682  12.873
21499W        W94567  38.124   3.327  11.228
21500W        W94568  28.136  36.459  14.515
21501W        W94569  12.740  15.815   4.702
21502W        W94570   7.240  13.397   4.800
21503W        W94571  12.699  32.994  11.137
21504W        W94572  11.065  17.666  13.509
21505W        W94573   8.655  19.729   3.231
21506W        W94574  16.125   2.995   0.209
21507W        W94575  30.727  43.005  10.779
21508W        W94576  19.974  16.331  12.573
21509W        W94577  33.464  15.721  13.927
21510W        W94578  13.201  18.134  13.843
21511W        W94579  37.364  17.790  12.544
21512W        W94580  22.778  10.078   0.715
21513W        W94581  42.056  40.288   1.718
21514W        W94582  44.763  41.271  11.978
21515W        W94583  27.576  25.746   2.344
21516W        W94584  16.632  43.504   2.249
21517W        W94585  15.269  17.368  11.736
21518W        W94586   8.654  23.246   3.455
21519W        W94587  28.411   2.424  12.936
21520W        W94588  12.744  14.360   4.885
21521W        W94589  34.168  37.108  14.953
21522W        W94590  15.521   6.080  13.395
21523W        W94591  17.675   4.910   2.765
21524W        W94592  34.696  18.780  11.015
21525W        W94593  35.007   3.069   2.715
21526W        W94594  40.037  24.638   0.468
21527W        W94595  38.617  42.946   2.792
21528W        W94596  30.616   5.301   1.244
21529W        W94597  39.440  27.566  14.039
21530W        W94598  27.939  31.464  11.818
21531W        W94599   7.052  33.471  14.222
21532W        W94600  41.250  28.666  12.939
21533W        W94601   9.800  15.020  13.405
21534W        W94602   2.963  14.613   4.670
21535W        W94603  27.662  32.281   1.518
21536W        W94604  20.243  44.524  13.846
21537W        W94605  42.881  44.554  11.439
21538W        W94606  16.741  17.513   3.753
21539W        W94607  27.122  24.940   2.360
21540W        W94608  23.676   3.397  14.546
21541W        W94609  20.499   9.324  10.744
21542W        W94610  29.214  39.586   4.895
21543W        W94611  14.812  40.484  11.116
21544W        W94612   1.163   2.951  13.391
21545W        W94613  24.751  17.525   2.693
21546W        W94614  25.077  30.958  11.674
21547W        W94615  11.609  39.875   0.784
21548W        W94616  34.125  21.314  10.767
21549W        W94617  17.018  24.030   0.002
21550W        W94618  25.677  13.728   1.391
21551W        W94619  41.589  42.808  11.907
21552W        W94620  17.052  30.924  14.493
21553W        W94621  19.755  37.641   1.971
21554W        W94622  14.193  43.813   4.141
21555W        W94623   3.747   0.994   4.829
21556W        W94624   2.800  32.608  11.562
21557W        W94625  24.604   7.267  11.911
21558W        W94626  42.562  28.663  11.117
21559W        W94627   3.057  29.090   1.219
21560W        W94628  24.804  32.064  12.561
21561W        W94629  21.150  44.576   2.378
21562W        W94630   6.988   5.510  13.603
21563W        W94631   0.251  28.927   3.202
21564W        W94632  37.325  30.639  10.879
21565W        W94633   1.369   2.918   2.652
21566W        W94634  43.717  28.971   4.208
21567W        W94635  41.336  35.416   1.763
21568W        W94636   9.163  11.623  14.999
21569W        W94637   8.188   9.752   0.534
21570W        W94638  27.224  33.382  14.368
21571W        W94639  41.424  41.517   4.264
21572W        W94640  28.048  35.519  10.746
21573W        W94641  42.270  43.033   4.556
21574W        W94642  15.711  23.994   2.696
21575W        W94643  34.416   3.352  13.351
21576W        W94644   7.472  40.762  10.760
21577W        W94645  40.476  27.798  14.844
21578W        W94646   1.009  23.994  14.293
21579W        W94647  15.357  44.404  11.984
21580W        W94648   1.018  41.507   0.163
21581W        W94649  43.439  18.133  11.079
21582W        W94650  35.702  21.714  13.327
21583W        W94651   2.533  32.769   3.216
21584W        W94652  18.788  31.729   2.400
21585W        W94653  19.723  30.937   3.775
21586W        W94654   5.073  41.233  14.344
21587W        W94655  36.019  32.555  10.063
21588W        W94656  36.185  44.918   2.205
21589W        W94657  40.036  20.557   4.859
21590W        W94658  12.543  11.883  11.361
21591W        W94659   8.592   5.953   4.111
21592W        W94660   9.965  22.219   0.739
21593W        W94661  30.143  25.003  11.929
21594W        W94662  17.503  41.016  11.134
21595W        W94663  19.514  34.674   4.212
21596W        W94664  36.280  29.150  12.455
21597W        W94665  17.612  24.515   4.534
21598W        W94666  31.416  30.935   4.219
21599W        W94667  28.937   5.439  11.112
21600W        W94668  32.667  42.049   0.841
21601W        W94669  40.725   2.911   2.427
21602W        W94670   1.016  43.478   3.710
21603W        W94671   5.104  25.556   3.399
21604W        W94672  30.015  36.089  12.999
21605W        W94673  16.556  37.452  14.245
21606W        W94674  44.803   2.751   2.967
21607W        W94675  23.018  18.617  11.127
21608W        W94676  33.044  27.747   4.685
21609W        W94677  44.925  23.682   1.259
21610W        W94678  10.338  10.884   3.722
21611W        W94679  35.422  17.364   1.464
21612W        W94680  32.092  34.037  13.666
21613W        W94681  41.321  40.940   0.337
21614W        W94682  19.585   3.358  13.035
21615W        W94683  26.970   3.283   0.716
21616W        W94684   6.379  30.650   4.587
21617W        W94685  20.217   6.240  13.838
21618W        W94686  27.601  34.583   1.274
21619W        W94687  24.265  41.401   2.658
21620W        W94688  16.887  16.820   3.244
21621W        W94689   2.494   6.791  11.019
21622W        W94690  29.552  16.207   3.427
21623W        W94691  36.311  25.712   1.705
21624W        W94692   2.898  22.846  13.882
21625W        W94693  19.350  27.480   1.360
21626W        W94694  18.981  27.884  13.107
21627W        W94695  41.328  38.404   4.620
21628W        W94696  41.360  41.564   1.517
21629W        W94697   4.752  16.862  14.199
21630W        W94698  21.066   0.720   1.348
21631W        W94699   0.893  35.489  12.017
21632W        W94700  35.948   9.639   3.947
21633W        W94701  30.942   0.157  12.943
21634W        W94702   3.688   2.262   0.734
21635W        W94703  14.564  40.936  14.376
21636W        W94704   5.861  14.701  11.861
21637W        W94705   3.375  34.508   3.474
21638W        W94706  32.665   2.767  10.693
21639W        W94707  43.974  10.803  14.777
21640W        W94708   1.812  21.122  14.383
21641W        W94709  10.798   4.332   3.339
21642W        W94710  19.892  27.371   1.344
21643W        W94711  17.434  35.222  11.480
21644W        W94712   0.205   0.840   0.898
21645W        W94713  28.100   8.094  14.539
21646W        W94714  25.193  44.618  11.984
21647W        W94715  24.674  15.630  13.307
21648W        W94716   8.990  36.898   1.394
21649W        W94717  10.263  27.413   2.331
21650W        W94718  40.954   2.962  14.299
21651W        W94719  38.955  27.901   2.822
21652W        W94720  32.977  41.478  13.400
21653W        W94721  43.836  24.984  14.008
21654W        W94722  29.895  18.753  10.565
21655W        W94723  32.367   1.177   0.882
21656W        W94724  34.000  33.878   1.366
21657W        W94725  15.770   9.186  11.913
21658W        W94726  19.084  44.301   4.647
21659W        W94727  22.137  20.295  10.883
21660W        W94728  37.276  19.881  10.362
21661W        W94729  11.664  12.708  11.587
21662W        W94730  41.568  36.519   1.827
21663W        W94731   5.982  26.982   2.779
21664W        W94732  19.251   2.018   2.814
21665W        W94733  41.242  21.252  10.745
21666W        W94734  30.429   7.368   4.106
21667W        W94735  29.171   2.338  13.498
21668W        W94736  28.632   2.985   4.228
21669W        W94737  28.007   0.945  10.095
21670W        W94738  16.317  30.783  11.619
21671W        W94739  22.480   1.556   0.341
21672W        W94740   0.698  13.338  12.391
21673W        W94741  38.786  23.814  13.904
21674W        W94742  10.293   8.255   0.461
21675W        W94743  38.159  41.794  14.387
21676W        W94744  34.050  28.725  12.676
21677W        W94745  33.493   1.323   3.771
21678W        W94746   5.143  19.106   3.611
21679W        W94747  21.217  42.521   2.635
21680W        W94748  37.846  33.511   5.058
21681W        W94749   1.506  22.941   2.571
21682W        W94750  41.570  40.914  12.924
21683W        W94751  23.704  10.273  13.017
21684W        W94752  19.507  25.069   1.682
21685W        W94753  24.083  28.150   4.126
21686W        W94754  43.533   2.390  11.042
21687W        W94755  17.542  38.438  10.511
21688W        W94756   9.464  43.089   5.003
21689W        W94757  17.786  20.053  13.791
21690W        W94758  16.138   6.932   0.942
21691W        W94759   1.419  38.392   0.587
21692W        W94760  11.576  27.829  12.718
21693W        W94761   7.347  42.503  14.569
21694W        W94762  15.958  31.538   1.043
21695W        W94763  44.669  35.318   2.236
21696W        W94764   7.162  43.738   3.229
21697W        W94765  38.244  27.845   0.945
21698W        W94766  40.303  39.154   3.629
21699W        W94767   1.697   6.674  10.773
21700W        W94768  13.750  32.057  12.506
21701W        W94769   6.680  10.100   0.485
21702W        W94770   2.417  41.510  13.421
21703W        W94771   0.869  20.612   3.845
21704W        W94772  10.123  28.985  14.715
21705W        W94773  44.624  12.840   2.136
21706W        W94774  17.589  20.439   4.515
21707W        W94775  41.047  14.118   3.638
21708W        W94776  41.982  18.511   1.706
21709W        W94777  34.569  34.109   0.692
21710W        W94778  32.740  26.429   0.885
21711W        W94779  25.020   0.825   3.259
21712W        W94780  34.976  18.496  11.940
21713W        W94781  44.661  11.551  12.905
21714W        W94782  43.437  35.877  13.325
21715W        W94783   3.908   4.844  13.318
21716W        W94784  15.338  18.306   0.090
21717W        W94785   4.225  43.859  11.442
21718W        W94786   1.577  17.540  14.525
21719W        W94787  24.449  41.014   4.310
21720W        W94788   8.934  19.251  12.418
21721W        W94789  28.972  17.286  12.901
21722W        W94790  22.594  24.293   2.739
21723W        W94791   0.444  16.267   2.239
21724W        W94792  25.670  16.602  14.938
21725W        W94793  29.963  14.629  11.509
21726W        W94794   6.163  41.354  14.298
21727W        W94795  24.597   7.233   4.462
21728W        W94796  14.058  40.659   2.763
21729W        W94797  27.073  12.631  11.638
21730W        W94798  20.779   3.530   4.605
21731W        W94799  33.929  33.197  10.518
21732W        W94800  31.451  44.792   4.685
21733W        W94801   3.118  25.601  14.814
21734W        W94802   1.872  20.128   3.750
21735W        W94803  22.592  12.251   2.769
21736W        W94804   6.283  36.331   0.346
21737W        W94805  33.094  38.571   1.708
21738W        W94806  12.696  18.583  14.385
21739W        W94807   9.285  10.102   0.838
21740W        W94808  21.898  17.160   4.428
21741W        W94809  13.790  17.765  11.268
21742W        W94810   6.170   5.637   4.609
21743W        W94811  13.564  32.944   0.344
21744W        W94812  36.596  41.949  14.419
21745W        W94813  26.675  39.261  14.340
21746W        W94814  28.138   5.031   4.444
21747W        W94815  10.858  19.973   0.209
21748W        W94816  21.766  36.874   2.692
21749W        W94817  16.669   2.788   2.014
21750W        W94818  23.989  32.391   3.926
21751W        W94819   8.238  39.739  10.159
21752W        W94820   7.691  10.325   1.310
21753W        W94821   5.928   4.756   0.925
21754W        W94822  31.218  37.882  12.046
21755W        W94823  25.000  43.812  12.517
21756W        W94824  13.397   5.652  12.380
21757W        W94825  34.699   6.755   0.390
21758W        W94826   0.196  41.005  10.745
21759W        W94827   9.261  15.764  11.467
21760W        W94828  32.554   2.024  13.208
21761W        W94829  26.146  26.048   2.275
21762W        W94830  32.895  42.401  11.028
21763W        W94831  29.883  27.125  12.356
21764W        W94832  34.325  13.161   4.680
21765W        W94833  42.508  40.273   0.662
21766W        W94834   6.666  16.452  14.944
21767W        W94835  19.847  40.024  13.611
21768W        W94836  16.524  13.224  10.855
21769W        W94837  12.266  35.900   3.652
21770W        W94838  11.397  27.527  10.927
21771W        W94839  21.613  11.007  10.470
21772W        W94840  17.063  18.099  12.986
21773W        W94841  11.792  14.126   4.578
21774W        W94842  33.134   1.187   2.575
21775W        W94843  29.066  20.962  12.140
21776W        W94844   5.689  13.299   2.893
21777W        W94845  20.306  23.671   4.624
21778W        W94846   8.531  13.837   5.229
21779W        W94847  21.469   1.523   0.765
21780W        W94848  24.697  28.649   1.213
21781W        W94849   5.141  29.357  11.156
21782W        W94850  19.817  35.504   1.239
21783W        W94851  16.510   4.463   3.323
21784W        W94852  12.568  28.914   4.816
21785W        W94853  30.286  33.431  11.241
21786W        W94854  38.513  33.965  13.935
21787W        W94855  33.212  11.455  13.119
21788W        W94856  32.910  36.554  14.577
21789W        W94857  29.066  21.328  10.769
21790W        W94858  37.068  39.909  13.137
21791W        W94859  22.069  31.400  12.350
21792W        W94860  26.631  28.945  12.110
21793W        W94861   8.096  37.395   3.088
21794W        W94862  32.527  32.898   2.695
21795W        W94863   2.562   6.189  13.018
21796W        W94864  22.154  18.720   9.806
21797W        W94865   3.077  26.724   0.468
21798W        W94866   7.438   0.318   1.337
21799W        W94867  23.843   2.407  12.932
21800W        W94868  40.878  30.676  11.658
21801W        W94869  34.496  44.610  12.237
21802W        W94870  36.561  12.117   0.724
21803W        W94871  33.438  35.441  11.114
21804W        W94872  24.915  30.596  14.329
21805W        W94873   7.490  13.291  14.900
21806W        W94874  11.628  13.593   3.651
21807W        W94875  43.870   2.105   2.223
21808W        W94876  37.790   5.392   3.612
21809W        W94877  12.049  31.348  14.949
21810W        W94878  39.056  30.111   4.152
21811W        W94879  40.019   1.200   4.676
21812W        W94880  22.467   9.909  11.608
21813W        W94881  35.769   2.402  12.101
21814W        W94882  20.754  11.247  13.476
21815W        W94883  20.601  18.267   3.137
21816W        W94884  17.262  33.853  11.118
21817W        W94885  12.893  23.198   0.176
21818W        W94886   1.225  36.022   2.847
21819W        W94887  10.416  16.897  14.923
21820W        W94888  38.128   2.457   2.014
21821W        W94889   0.889  35.263  13.553
21822W        W94890  38.992  35.812   3.166
21823W        W94891  38.916  10.439  13.851
21824W        W94892  27.596   7.305  10.647
21825W        W94893  37.129  38.532  12.188
21826W        W94894  37.652   0.727  11.855
21827W        W94895  11.603  42.812   1.663
21828W        W94896  24.981   4.411  12.334
21829W        W94897  23.504   5.240  10.588
21830W        W94898  17.653  21.445   2.609
21831W        W94899  11.234   9.892   1.654
21832W        W94900  13.480  15.117  10.903
21833W        W94901  15.594  12.271   4.794
21834W        W94902  18.707  24.256   0.489
21835W        W94903  27.957  40.562   1.779
21836W        W94904  27.861   3.476  13.475
21837W        W94905   2.655  25.633   0.070
21838W        W94906  42.387   3.453   4.678
21839W        W94907  28.285  35.996   1.773
21840W        W94908  14.275  13.544   5.068
21841W        W94909  18.142  20.722  13.077
21842W        W94910  30.569  15.186  13.597
21843W        W94911  33.171  31.598   4.511
21844W        W94912  39.813  17.086   4.439
21845W        W94913  30.939  19.613  11.914
21846W        W94914  20.640  12.208   4.194
21847W        W94915  20.533  16.250  13.481
21848W        W94916  40.416  41.313   0.464
21849W        W94917  21.329  38.320  14.096
21850W        W94918  17.483  12.274   0.222
21851W        W94919  20.373  40.301   2.170
21852W        W94920   1.959   0.721   3.732
21853W        W94921  39.592  39.820   1.493
21854W        W94922  26.750   6.905  14.768
21855W        W94923  11.485   1.617   2.812
21856W        W94924  33.075  34.606   3.231
21857W        W94925   1.402  35.140   1.237
21858W        W94926  17.654  17.347  11.524
21859W        W94927  34.601   8.146  11.439
21860W        W94928  17.576  18.786  12.612
21861W        W94929   1.793   9.455  12.787
21862W        W94930  25.751  37.800  14.423
21863W        W94931   6.846  22.282   3.298
21864W        W94932  35.807  16.611   2.749
21865W        W94933  21.977  39.491   3.555
21866W        W94934   0.416  11.817   2.389
21867W        W94935   2.700  38.013   0.871
21868W        W94936   3.340  34.910   3.936
21869W        W94937  24.006  14.667   1.865
21870W        W94938  38.275  19.658   4.897
21871W        W94939  41.479  26.959   4.240
21872W        W94940  17.112  29.203  14.349
21873W        W94941  41.220  11.207   1.295
21874W        W94942  40.542   7.670   3.774
21875W        W94943   4.484   5.439   0.808
21876W        W94944   4.128  32.042  12.796
21877W        W94945   3.941  17.627  14.295
21878W        W94946  30.993  38.050  14.915
21879W        W94947  15.621   7.673  11.250
21880W        W94948  39.840  31.984  13.363
21881W        W94949  34.094  32.159  13.251
21882W        W94950  39.552  25.387   2.746
21883W        W94951  16.084   4.230  11.402
21884W        W94952  12.257   4.124  11.162
21885W        W94953  41.275   6.821  10.734
21886W        W94954  37.875  12.787   4.034
21887W        W94955  38.904   5.531  11.574
21888W        W94956   1.064  38.847  14.316
21889W        W94957  28.460  15.598  10.315
21890W        W94958   2.938  17.844  12.794
21891W        W94959   7.682  13.640   3.740
21892W        W94960  40.478  30.331  11.527
21893W        W94961  37.385  34.587   0.303
21894W        W94962  10.770  23.566  10.594
21895W        W94963  44.249  28.985  13.862
21896W        W94964  38.389  36.077  13.976
21897W        W94965  28.989  41.048  14.819
21898W        W94966  34.758  10.743  11.851
21899W        W94967  27.621   5.464   3.680
21900W        W94968  44.975  41.565  11.615
21901W        W94969   9.168  34.232   4.067
21902W        W94970  21.148   7.452   1.777
21903W        W94971  38.587  22.481   2.454
21904W        W94972  35.927  37.127   1.248
21905W        W94973   3.203  39.750  13.460
21906W        W94974  26.109   2.720  12.907
21907W        W94975  32.674  24.995  12.098
21908W        W94976   8.968  25.030   3.201
21909W        W94977  16.155   4.392   0.892
21910W        W94978  35.004  38.355   4.602
21911W        W94979   5.769   4.712   4.933
21912W        W94980   0.835  15.010  13.174
21913W        W94981  35.335  16.639  11.201
21914W        W94982   8.002   2.985   4.214
21915W        W94983   5.152   8.113   3.879
21916W        W94984  12.310  43.246   4.121
21917W        W94985   0.948   2.787   0.780
21918W        W94986   2.796  39.977  12.506
21919W        W94987  19.090  27.718   1.736
21920W        W94988   9.213  41.580   3.650
21921W        W94989  14.068  23.106  11.033
21922W        W94990  35.596   7.484   2.872
21923W        W94991  33.449  37.391  12.970
21924W        W94992  35.656  29.668  12.422
21925W        W94993   9.851  33.105   3.646
21926W        W94994  42.462  14.949   0.051
21927W        W94995  33.476  29.506   1.244
21928W        W94996  32.873  31.860   2.359
21929W        W94997  29.231   8.645  11.486
21930W        W94998  39.011  12.655   0.450
21931W        W94999  26.474  42.842  10.807
21932W        W95000  13.286  19.264   1.276
21933W        W95001  17.025  39.513  13.041
21934W        W95002  17.819   0.089   2.746
21935W        W95003  29.909  20.005   2.887
21936W        W95004   6.215  33.607  10.707
21937W        W95005  23.355   3.990  11.761
21938W        W95006  16.327  42.407  13.401
21939W        W95007  38.806  40.465   2.291
21940W        W95008  19.022   6.749   2.768
21941W        W95009  35.899  21.961  11.857
21942W        W95010  15.604  40.449   4.550
21943W        W95011  44.838  20.720   0.453
21944W        W95012  14.358  23.026   1.343
21945W        W95013  18.666  37.964  13.062
21946W        W95014  32.672  30.695  14.381
21947W        W95015   3.897  19.677  10.349
21948W        W95016  36.518   8.872   1.148
21949W        W95017  38.942  36.605  13.640
21950W        W95018  32.303   3.119  14.464
21951W        W95019   6.946  43.833   2.751
21952W        W95020  41.009  34.993   4.893
21953W        W95021   3.871  27.447  12.107
21954W        W95022   2.360  14.492   4.446
21955W        W95023  14.330   0.239   0.295
21956W        W95024  37.602  43.198  10.673
21957W        W95025  18.726  27.443  13.263
21958W        W95026  21.330  40.260  14.883
21959W        W95027  21.075  22.176  14.015
21960W        W95028   3.416   7.631   2.724
21961W        W95029  41.015  38.346   2.770
21962W        W95030   8.639  23.304  13.619
21963W        W95031  12.220  23.214  11.475
21964W        W95032  31.970  36.079   0.858
21965W        W95033  15.215  14.198  12.819
21966W        W95034   7.995  33.150  10.963
21967W        W95035  29.030   0.414   0.949
21968W        W95036   3.893  24.857   2.543
21969W        W95037  39.806   3.504   0.226
21970W        W95038   9.265  39.457   2.799
21971W        W95039  43.922  31.420   1.464
21972W        W95040  32.426  21.229   1.871
21973W        W95041  18.810   1.741   2.770
21974W        W95042  27.964  34.521   3.343
21975W        W95043  14.439   8.630   4.398
21976W        W95044   0.070  41.476  12.514
21977W        W95045  34.923  24.309  11.217
21978W        W95046  21.051  40.742   1.244
21979W        W95047  18.101   9.816  14.025
21980W        W95048  39.520   4.565   2.862
21981W        W95049  34.640  44.936   3.661
21982W        W95050  16.551   6.294   4.376
21983W        W95051  35.755  22.602  14.565
21984W        W95052  36.557  10.203   0.653
21985W        W95053   1.436  26.492  13.170
21986W        W95054   8.371   1.410  14.500
21987W        W95055  28.123  40.581  12.519
21988W        W95056  19.711  41.978  12.496
21989W        W95057  32.058   2.872   0.122
21990W        W95058  25.489  12.286   3.424
21991W        W95059  31.016  17.805   4.747
21992W        W95060   5.751  35.534  14.618
21993W        W95061  10.638   8.626  13.804
21994W        W95062   2.495   0.790   4.250
21995W        W95063  43.240  40.448   2.403
21996W        W95064   6.129  19.089   3.755
21997W        W95065   7.087   9.927  11.762
21998W        W95066  19.907   0.340  14.988
21999W        W95067  35.715  22.028   0.702
22000W        W95068  43.880   0.654   3.821
22001W        W95069  20.556  15.310  14.833
22002W        W95070  17.169  39.930   1.730
22003W        W95071  27.509  18.228   2.308
22004W        W95072  35.800  40.223   3.344
22005W        W95073  22.709   6.468  14.344
22006W        W95074   1.030  16.664   3.764
22007W        W95075  35.640  30.382   0.416
22008W        W95076   8.213  19.035   2.965
22009W        W95077   4.115   5.980  11.598
22010W        W95078   6.713  40.555  10.680
22011W        W95079  33.934  12.363   4.785
22012W        W95080  24.608  23.038  13.780
22013W        W95081   1.804  13.092   0.814
22014W        W95082  29.556  35.236  12.063
22015W        W95083   7.873  24.615   2.244
22016W        W95084  25.830  11.438   2.115
22017W        W95085  29.574  30.030   3.364
22018W        W95086   1.671  32.490  12.059
22019W        W95087  24.148   1.217  10.458
22020W        W95088  41.968  31.970  14.998
22021W        W95089  35.112   0.257  13.317
22022W        W95090   4.816  18.277   2.210
22023W        W95091  15.120  37.897  10.694
22024W        W95092  10.738  43.526   3.594
22025W        W95093   8.689  35.240   1.298
22026W        W95094  10.407  30.628   4.271
22027W        W95095  30.530  12.066  11.847
22028W        W95096  27.050  25.255  11.004
22029W        W95097  28.306  12.757   0.427
22030W        W95098  23.147  22.142   2.741
22031W        W95099  13.660  23.693  14.240
22032W        W95100  20.574  21.866   3.634
22033W        W95101  39.499  23.827   2.646
22034W        W95102  35.044  14.514   0.925
22035W        W95103  30.100   6.530  11.946
22036W        W95104  35.492  37.399   1.370
22037W        W95105  14.065  24.607  13.757
22038W        W95106  25.971   4.101   3.279
22039W        W95107   8.929  20.714   2.337
22040W        W95108  11.342  43.389   1.366
22041W        W95109   1.656  29.990   0.637
22042W        W95110  42.938  27.007   0.978
22043W        W95111  11.167  19.541  12.596
22044W        W95112  40.487  43.371  14.793
22045W        W95113  38.527  34.922  11.095
22046W        W95114  42.707  30.819  13.075
22047W        W95115  22.928   4.061   3.596
22048W        W95116   3.087   6.918   1.668
22049W        W95117  43.189  31.550   3.257
22050W        W95118  40.991  42.945   1.441
22051W        W95119  40.458  27.602   2.375
22052W        W95120  29.382  25.201   2.308
22053W        W95121  34.687   6.717  12.066
22054W        W95122  20.120  25.780  12.936
22055W        W95123  21.784  28.670   0.225
22056W        W95124  12.367  31.674   2.811
22057W        W95125  37.494  23.644   1.706
22058W        W95126  12.719  26.630   2.449
22059W        W95127   3.899   4.238  14.840
22060W        W95128   7.882   3.167   0.582
22061W        W95129  26.216  13.601  11.654
22062W        W95130  17.531  17.794   1.656
22063W        W95131  38.910  43.429   2.785
22064W        W95132  24.524  35.692  12.881
22065W        W95133  20.836  25.588   0.799
22066W        W95134   5.387   5.337  11.561
22067W        W95135  19.105  33.379   1.836
22068W        W95136  17.552   6.449  10.610
22069W        W95137   1.306   3.850   4.681
22070W        W95138  34.087  36.953  12.320
22071W        W95139  17.192  21.221   2.718
22072W        W95140  28.381  29.397   1.835
22073W        W95141   6.512   3.601   3.783
22074W        W95142  35.672  38.337   3.264
22075W        W95143  36.550  30.689  13.804
22076W        W95144   1.505   3.514  10.656
22077W        W95145  11.791  25.192  12.613
22078W        W95146  42.938  30.240   4.200
22079W        W95147   2.332  34.038   0.106
22080W        W95148   3.588  32.827   4.927
22081W        W95149  12.743  20.272  11.289
22082W        W95150  32.281  22.709  11.949
22083W        W95151  43.673  31.005   4.141
22084W        W95152  43.968  22.041  13.402
22085W        W95153  29.791  19.502  14.813
22086W        W95154   9.672  17.079   1.930
22087W        W95155   5.415  17.738   4.709
22088W        W95156  28.000  38.525   3.222
22089W        W95157  33.471  10.747  11.276
22090W        W95158  33.898   7.728   3.165
22091W        W95159   9.309  12.421  10.754
22092W        W95160  37.324  37.100   0.227
22093W        W95161  15.797  32.380   3.849
22094W        W95162  11.161  21.585   0.327
22095W        W95163  36.244  10.786   2.171
22096W        W95164  32.111   3.426   2.605
22097W        W95165  44.862   6.358   4.480
22098W        W95166   5.947  24.434  14.504
22099W        W95167  24.052  29.068  11.120
22100W        W95168  33.012  30.014  10.830
22101W        W95169  17.091   6.446  11.044
22102W        W95170  35.450  26.299   0.894
22103W        W95171   5.604   3.685   5.035
22104W        W95172  25.678  40.057   4.446
22105W        W95173  19.024   1.812   3.240
22106W        W95174  13.142  40.540   2.630
22107W        W95175  30.237  26.950   1.379
22108W        W95176  39.531  32.693  10.344
22109W        W95177  44.445  27.820  11.831
22110W        W95178   2.646  26.566  13.989
22111W        W95179  11.393  11.827  10.639
22112W        W95180   0.076  31.097  13.523
22113W        W95181   8.784   5.766   2.147
22114W        W95182  35.603   8.621  11.997
22115W        W95183  12.274  22.773  10.660
22116W        W95184  21.722  39.457   2.170
22117W        W95185   6.824  32.859   1.791
22118W        W95186  33.487  24.782  13.356
22119W        W95187  38.916  23.408   0.980
22120W        W95188  28.534   7.800   0.397
22121W        W95189  39.689  10.846  12.598
22122W        W95190  23.510  36.695   2.981
22123W        W95191  42.312  25.606  12.322
22124W        W95192  27.589   4.030  11.905
22125W        W95193  44.834  26.565  12.349
22126W        W95194  28.673  28.525  14.418
22127W        W95195  12.324  13.548   0.815
22128W        W95196  41.518  41.671   3.749
22129W        W95197  35.261  39.894  10.840
22130W        W95198  25.484  28.858  14.854
22131W        W95199   4.913   9.694  10.596
22132W        W95200  41.897  28.484  10.453
22133W        W95201  12.560  25.638  13.525
22134W        W95202  36.670  41.444   3.219
22135W        W95203   9.745   0.982  10.487
22136W        W95204  27.464  44.793  12.866
22137W        W95205  28.548  30.591  11.591
22138W        W95206  30.913  31.885  14.104
22139W        W95207  30.604   9.375   4.187
22140W        W95208   2.229  28.074  13.990
22141W        W95209  14.189   8.584   1.473
22142W        W95210  21.754  15.846   3.752
22143W        W95211  28.456  12.175   4.474
22144W        W95212  22.026   6.194  13.007
22145W        W95213  36.552   6.069  12.357
22146W        W95214  36.955  43.336  10.924
22147W        W95215  25.293  44.545  10.255
22148W        W95216  16.210  24.892  13.442
22149W        W95217  13.638   5.949  13.796
22150W        W95218  38.514  23.670   4.575
22151W        W95219  21.989   6.262  13.915
22152W        W95220   9.576  21.269   5.014
22153W        W95221   3.820  18.213   2.259
22154W        W95222   6.905  28.251   3.378
22155W        W95223  14.495   2.069   4.235
22156W        W95224  36.600  38.146   0.723
22157W        W95225  37.209  21.230   1.650
22158W        W95226   6.740  36.105  13.236
22159W        W95227  10.724  38.582  13.085
22160W        W95228   6.355  31.186  10.718
22161W        W95229  25.857  40.218  13.099
22162W        W95230  33.442   0.302   1.845
22163W        W95231   7.848  21.467  11.920
22164W        W95232   8.892  18.851   1.622
22165W        W95233   5.807   2.403  10.615
22166W        W95234  43.969  34.646   2.201
22167W        W95235  28.534   8.708   0.947
22168W        W95236  42.817  13.140   2.382
22169W        W95237   2.619  30.632  11.970
22170W        W95238  22.744  15.855   1.965
22171W        W95239   2.733  18.867   4.092
22172W        W95240  37.422  15.198  13.380
22173W        W95241  34.416  33.104  10.689
22174W        W95242  33.133  24.473  11.338
22175W        W95243  11.188  42.530   1.811
22176W        W95244  38.839  29.663   4.321
22177W        W95245  13.892  19.794  11.867
22178W        W95246  10.204  28.254   2.692
22179W        W95247   4.950  20.644   4.690
22180W        W95248   8.426  33.414  12.534
22181W        W95249  24.496  11.721  14.274
22182W        W95250  25.587  12.156   1.358
22183W        W95251  32.414  28.979  13.356
22184W        W95252  12.346   5.386  11.553
22185W        W95253  18.232  28.658  14.420
22186W        W95254  11.430   5.687  10.715
22187W        W95255  40.390  16.183   4.674
22188W        W95256  42.281  17.109  10.253
22189W        W95257  21.290  28.140  12.408
22190W        W95258  24.642  43.399   4.074
22191W        W95259  38.868  43.197  12.047
22192W        W95260   0.356  34.903  12.836
22193W        W95261  10.616  40.564  10.597
22194W        W95262  22.323  28.641  11.467
22195W        W95263  18.960  13.139  12.907
22196W        W95264   2.923  13.016  12.578
22197W        W95265   3.497  13.419  10.390
22198W        W95266  27.682  27.728  12.436
22199W        W95267   4.142   5.272  13.535
22200W        W95268  36.251  37.896   0.389
22201W        W95269  28.916  33.124   1.917
22202W        W95270   2.728  34.363   0.995
22203W        W95271  10.877  35.408  11.169
22204W        W95272  31.567  24.207  13.960
22205W        W95273  30.598  34.643  13.701
22206W        W95274   6.363  34.440  10.676
22207W        W95275  35.009  29.933   2.797
22208W        W95276   6.709  43.021  11.053
22209W        W95277  31.643  11.133  12.454
22210W        W95278   8.341  24.341   0.860
22211W        W95279  30.570  18.240  12.492
22212W        W95280  30.610  39.754   1.691
22213W        W95281  30.919  17.812  14.105
22214W        W95282  33.063  38.781   0.416
22215W        W95283   5.792  23.216  14.869
22216W        W95284  19.883   0.883   3.201
22217W        W95285   0.243   9.481  13.008
22218W        W95286  33.324   0.721  11.562
22219W        W95287  12.404   1.839   2.562
22220W        W95288   6.853   3.911   2.197
22221W        W95289   1.922  24.615  12.984
22222W        W95290  42.783   2.851   1.242
22223W        W95291  14.796  16.526  10.587
22224W        W95292  34.551  23.192  13.470
22225W        W95293  36.346  27.742   2.327
22226W        W95294  10.529   3.321   3.773
22227W        W95295  21.512   2.547  13.419
22228W        W95296  20.984  43.496   0.729
22229W        W95297  34.523  42.561   1.903
22230W        W95298  25.418  19.316  12.077
22231W        W95299  38.557  26.929  10.574
22232W        W95300  12.085  12.016  11.543
22233W        W95301  20.599   4.823  14.397
22234W        W95302  40.621  10.779  14.550
22235W        W95303  19.187   2.464  14.808
22236W        W95304  24.500  33.839  10.737
22237W        W95305  13.256  12.750   2.836
22238W        W95306  36.813  25.749   1.804
22239W        W95307  23.740  26.659  13.340
22240W        W95308   9.256   6.700   3.952
22241W        W95309   7.190  24.070  14.008
22242W        W95310  16.241   6.206   3.191
22243W        W95311   0.358  37.948   2.072
22244W        W95312  20.683  12.056   2.926
22245W        W95313  33.879  40.629   0.861
22246W        W95314  10.592  44.710  14.602
22247W        W95315  33.431  21.117  12.483
22248W        W95316   8.831  40.837   0.330
22249W        W95317  19.566  42.424  11.136
22250W        W95318  40.903  34.526   1.560
22251W        W95319  44.062  13.225   4.023
22252W        W95320   1.374   8.927  11.887
22253W        W95321   1.859   9.899  10.992
22254W        W95322  12.528  10.817   2.147
22255W        W95323  34.334   9.258  14.273
22256W        W95324  22.536   6.905   4.913
22257W        W95325  31.743  39.584   2.429
22258W        W95326  43.506  39.892   3.702
22259W        W95327  24.144  37.453  14.140
22260W        W95328  26.365  33.438   4.089
22261W        W95329   1.495  10.608  13.380
22262W        W95330  28.447  10.592   3.698
22263W        W95331  35.198  15.238   0.476
22264W        W95332  18.076  18.071  12.562
22265W        W95333  40.381  30.587   0.268
22266W        W95334  25.989  29.115   3.650
22267W        W95335  23.250  16.188  13.929
22268W        W95336   2.053   4.862  14.996
22269W        W95337  43.776  11.976   0.258
22270W        W95338   4.605  28.394  14.404
22271W        W95339  18.105  20.617  12.578
22272W        W95340  15.285   8.765  11.315
22273W        W95341   3.945  38.370  10.487
22274W        W95342  20.551  26.384  14.821
22275W        W95343  29.866  13.125   1.685
22276W        W95344  20.185  28.507   2.142
22277W        W95345   9.232  23.288   2.694
22278W        W95346  34.100  43.557  14.331
22279W        W95347  34.511  18.311  12.088
22280W        W95348  27.458  38.657   3.734
22281W        W95349  37.436   0.244   3.991
22282W        W95350  13.401  10.437  10.013
22283W        W95351   3.053  24.162   0.824
22284W        W95352   3.610  30.191  11.120
22285W        W95353  19.400   1.837  13.091
22286W        W95354  42.527   7.390   1.714
22287W        W95355   0.919   4.702   3.612
22288W        W95356   0.032  11.201   0.437
22289W        W95357  21.692   6.341   1.645
22290W        W95358  32.523  24.897   3.857
22291W        W95359  43.292  35.455   1.158
22292W        W95360  18.802   0.351   2.873
22293W        W95361   8.448  41.938   9.835
22294W        W95362   6.684  35.165  13.658
22295W        W95363  29.108  13.508  11.190
22296W        W95364  32.173  13.828  14.077
22297W        W95365  26.428  12.327   4.733
22298W        W95366  20.263  22.029  12.479
22299W        W95367  40.038  22.939   2.740
22300W        W95368  30.063  38.414  11.896
22301W        W95369  28.391  27.451   3.383
22302W        W95370  21.775  34.626  10.676
22303W        W95371   2.944  15.866   1.889
22304W        W95372   8.457  34.530  13.156
22305W        W95373  18.099  16.973  14.159
22306W        W95374   6.897  26.151  11.016
22307W        W95375  13.360  40.446  12.722
22308W        W95376  39.567  31.168  14.855
22309W        W95377  11.357  29.188   3.702
22310W        W95378  30.144  40.818  14.423
22311W        W95379  21.174  28.542   4.190
22312W        W95380  44.735  16.516   2.178
22313W        W95381  29.108  40.497  13.541
22314W        W95382  26.230  22.533  12.069
22315W        W95383  18.785  15.175   3.329
22316W        W95384   3.773   7.273  12.165
22317W        W95385  42.515  24.052   2.641
22318W        W95386   6.023  14.992   2.171
22319W        W95387  18.453  36.112  11.129
22320W        W95388  27.412  11.132  14.950
22321W        W95389  32.077  24.723  11.587
22322W        W95390   0.439  16.532   3.145
22323W        W95391  37.394  37.409   2.065
22324W        W95392  10.227  41.864  14.907
22325W        W95393  38.789  26.442   2.870
22326W        W95394  38.493  35.205  12.832
22327W        W95395  32.808   0.817   0.889
22328W        W95396  18.926  25.979   2.399
22329W        W95397  37.152   6.403  14.288
22330W        W95398  39.607  33.629  10.642
22331W        W95399   7.822  16.387   1.754
22332W        W95400   9.663  11.344   4.569
22333W        W95401  19.293  10.386  13.457
22334W        W95402  43.480   2.017  14.818
22335W        W95403  44.735  23.215  13.008
22336W        W95404   8.406  29.724   3.403
22337W        W95405  21.049   9.988   0.238
22338W        W95406  10.703  25.601   0.912
22339W        W95407  25.132  16.165  14.473
22340W        W95408   6.789  28.656  12.656
22341W        W95409  18.454  42.798  13.859
22342W        W95410  37.596  28.503   3.229
22343W        W95411  28.015   8.763   1.682
22344W        W95412  22.440  15.284  11.438
22345W        W95413   2.457  10.878  11.902
22346W        W95414   6.950  40.381   3.514
22347W        W95415   3.284  10.061  13.486
22348W        W95416  34.314  40.729  13.420
22349W        W95417   8.199   7.004  11.431
22350W        W95418   4.928  14.231   5.048
22351W        W95419   6.968  30.169  13.869
22352W        W95420  24.239  33.543  14.915
22353W        W95421  12.360   4.412  12.406
22354W        W95422  39.901  28.702   1.997
22355W        W95423  21.722  26.135  11.698
22356W        W95424  40.767  38.998   4.325
22357W        W95425  28.594  11.773   4.776
22358W        W95426  44.398   6.524  13.419
22359W        W95427   3.763  28.295   4.009
22360W        W95428  10.217   0.399   2.320
22361W        W95429  42.310   9.451   2.735
22362W        W95430  37.111  10.812  11.155
22363W        W95431  11.182  38.053   0.907
22364W        W95432  15.768  14.151  11.944
22365W        W95433  38.776  32.216  10.644
22366W        W95434  21.566  35.630  11.551
22367W        W95435  16.301   1.540   4.377
22368W        W95436  35.045  32.172   1.670
22369W        W95437  44.792  43.080   1.677
22370W        W95438  33.978  32.895  11.534
22371W        W95439   4.768   7.194  10.399
22372W        W95440  29.189   6.857   1.311
22373W        W95441   7.216  27.097  12.394
22374W        W95442  29.526   7.467  10.945
22375W        W95443  21.231  17.043   3.278
22376W        W95444  20.100  13.979   0.019
22377W        W95445  26.008  26.195   1.794
22378W        W95446  11.925  30.345  10.939
22379W        W95447  41.974   7.489  14.903
22380W        W95448  20.839  29.132  13.248
22381W        W95449   5.149  26.004   3.771
22382W        W95450  17.528  22.646  12.851
22383W        W95451  13.654  33.617  14.218
22384W        W95452  17.130   5.229   4.375
22385W        W95453  29.072  32.787  11.540
22386W        W95454  38.423  21.020   1.770
22387W        W95455  18.649  27.165  11.548
22388W        W95456  41.354   4.422   0.846
22389W        W95457  36.377  18.090  11.182
22390W        W95458   9.071  27.084   0.806
22391W        W95459  22.279  10.646  10.682
22392W        W95460  38.987  43.845  13.983
22393W        W95461  35.062  37.817   2.684
22394W        W95462  16.575  34.989   2.843
22395W        W95463   8.266   1.192  14.038
22396W        W95464  10.472  34.158  12.970
22397W        W95465  39.442  25.699  14.936
22398W        W95466  19.699  42.899   0.863
22399W        W95467  31.439  27.556  14.844
22400W        W95468  12.142  18.663  12.075
22401W        W95469   7.061   0.954  10.981
22402W        W95470  27.587  13.502  11.615
22403W        W95471  16.342  44.650   4.115
22404W        W95472  17.826  22.325  14.893
22405W        W95473  20.243  10.724   3.591
22406W        W95474  20.650  15.306  12.423
22407W        W95475  37.648  42.357   4.745
22408W        W95476  12.006  27.425   1.393
22409W        W95477   1.433  11.681   0.695
22410W        W95478  11.015  39.103   0.628
22411W        W95479  10.381   6.166  13.072
22412W        W95480   5.276  14.053  13.018
22413W        W95481  11.972  20.820   1.918
22414W        W95482  24.107  30.992   4.052
22415W        W95483  42.300  29.964  11.192
22416W        W95484  38.160   2.217  14.303
22417W        W95485   9.062  31.873  10.871
22418W        W95486  25.687  18.057  14.286
22419W        W95487   7.708  20.496   0.311
22420W        W95488   8.908  14.625  11.618
22421W        W95489  31.780  22.822   2.329
22422W        W95490   5.938  44.434   1.603
22423W        W95491  17.280  34.277  14.818
22424W        W95492  23.736  33.168   0.509
22425W        W95493  21.689  14.831   3.320
22426W        W95494  21.665   6.476   4.877
22427W        W95495  44.569  10.977   0.390
22428W        W95496   9.509  17.059   4.607
22429W        W95497  20.261   8.120   2.776
22430W        W95498  18.801  12.817   4.122
22431W        W95499   6.263   6.619  13.165
22432W        W95500   8.897  21.185  13.969
22433W        W95501  13.905  23.715   1.990
22434W        W95502  23.168   1.252   0.936
22435W        W95503   8.376   9.213   4.837
22436W        W95504  29.166  14.726   0.335
22437W        W95505   9.704  29.545  10.977
22438W        W95506  35.097  12.747  10.362
22439W        W95507   1.224  20.185  10.593
22440W        W95508  19.570   3.426  13.539
22441W        W95509  16.783  10.793  11.936
22442W        W95510  20.616  19.757  14.858
22443W        W95511  19.732  16.857   4.557
22444W        W95512  38.183  14.118  11.970
22445W        W95513  37.058  20.287   1.777
22446W        W95514  41.073  27.158   1.811
22447W        W95515  36.332  30.127   1.734
22448W        W95516   8.090  38.421   1.461
22449W        W95517  17.153  22.030   2.142
22450W        W95518   2.635   0.916   3.071
22451W        W95519  31.056  28.971   4.316
22452W        W95520  27.235  14.153  13.895
22453W        W95521  22.657  30.954  14.710
22454W        W95522  41.008  23.302   4.254
22455W        W95523   3.766  23.079  13.557
22456W        W95524  43.743  42.028   4.633
22457W        W95525  19.227  33.501   0.258
22458W        W95526  20.205  12.092   2.751
22459W        W95527  43.597  24.734  13.372
22460W        W95528   3.548   5.703   2.729
22461W        W95529  34.529   2.314   2.069
22462W        W95530  36.596  33.572  13.050
22463W        W95531   2.462  17.215   1.387
22464W        W95532   7.172  30.066  11.546
22465W        W95533  26.710  13.560  14.711
22466W        W95534  20.215  23.989  11.085
22467W        W95535  12.114  10.408  13.396
22468W        W95536  38.540   8.156   2.251
22469W        W95537  12.680  41.649  13.617
22470W        W95538  25.455  18.282   5.162
22471W        W95539  33.259   8.665  10.059
22472W        W95540   7.146  16.341  13.774
22473W        W95541   1.756  16.244   1.852
22474W        W95542  25.158  29.523  11.003
22475W        W95543  34.512  38.767   3.285
22476W        W95544  24.024  32.125  12.950
22477W        W95545  42.989  30.480  13.861
22478W        W95546  28.036  29.216   0.163
22479W        W95547  41.857  11.661  13.051
22480W        W95548  17.645  39.039  12.119
22481W        W95549  17.370   8.634  13.264
22482W        W95550  24.110  39.387   4.971
22483W        W95551  40.094   0.664  11.127
22484W        W95552  40.415   1.458  12.547
22485W        W95553   2.119  26.919   0.213
22486W        W95554  35.368   5.581   1.682
22487W        W95555   1.350  26.851  12.443
22488W        W95556  23.200  14.815  11.614
22489W        W95557  35.806  26.583   2.914
22490W        W95558  25.312  24.052  11.650
22491W        W95559   2.526  33.692   4.072
22492W        W95560  21.564   6.356   0.635
22493W        W95561  44.326   1.759  11.903
22494W        W95562  17.754  33.821  11.215
22495W        W95563  24.744  12.090  11.590
22496W        W95564  16.773  32.872   1.896
22497W        W95565  40.115   7.330   4.757
22498W        W95566  16.793   1.712   4.504
22499W        W95567  37.666  18.479   3.723
22500W        W95568   0.981  26.877   2.273
22501W        W95569  35.054   2.002  11.067
22502W        W95570  10.781  21.294   2.763
22503W        W95571  13.916  36.383   2.308
22504W        W95572  31.933  15.406   4.490
22505W        W95573  39.530  11.321  12.728
22506W        W95574  39.361  15.806   4.262
22507W        W95575   2.912  41.336  10.644
22508W        W95576  11.672  30.972   4.573
22509W        W95577  34.900  36.368  12.432
22510W        W95578   9.394  24.058   0.001
22511W        W95579   7.767   6.875   4.365
22512W        W95580  37.878  32.211   1.872
22513W        W95581   8.439  23.584   1.567
22514W        W95582  21.383  36.793  12.092
22515W        W95583  10.374  30.183   1.300
22516W        W95584  20.334  27.430  13.359
22517W        W95585  20.566   4.980   1.913
22518W        W95586  18.770   5.900  10.466
22519W        W95587  21.790  16.061   2.715
22520W        W95588   1.516  14.225  11.598
22521W        W95589  40.465  27.498  12.353
22522W        W95590   3.455  15.778   1.797
22523W        W95591  35.618  13.101  14.425
22524W        W95592  21.203  16.370  10.836
22525W        W95593   2.184   3.255   5.040
22526W        W95594  19.799  26.554   1.831
22527W        W95595   0.910  22.330   2.261
22528W        W95596   4.447  20.253  11.006
22529W        W95597  43.451   5.086   1.009
22530W        W95598  14.290  35.673  13.272
22531W        W95599  18.698  12.534   2.233
22532W        W95600  19.215  22.024  12.916
22533W        W95601   9.366  44.024  14.977
22534W        W95602  27.985  13.377   3.770
22535W        W95603  28.558  29.032   3.198
22536W        W95604  38.464  24.463   4.431
22537W        W95605   1.451  11.394  13.781
22538W        W95606  31.391   3.130  13.380
22539W        W95607   3.277   4.387   1.865
22540W        W95608  31.997   8.082   0.888
22541W        W95609  19.555   5.708   1.058
22542W        W95610  27.223  12.574   0.544
22543W        W95611   2.920  29.194   3.705
22544W        W95612  15.277  11.208  11.246
22545W        W95613  23.274  34.097  12.484
22546W        W95614   8.176   1.984  11.990
22547W        W95615  40.488  32.601  11.956
22548W        W95616   0.355  17.826  14.870
22549W        W95617  29.195  10.360   0.809
22550W        W95618  22.222  18.609   1.204
22551W        W95619  39.830  40.469   3.571
22552W        W95620   0.464  12.787  12.954
22553W        W95621  40.287  26.584  12.914
22554W        W95622  26.298  31.023   1.670
22555W        W95623  38.532  31.294   2.282
22556W        W95624  31.384  38.886  10.629
22557W        W95625  38.402  44.885   2.144
22558W        W95626   0.639  42.321   2.256
22559W        W95627  43.521  16.764  13.902
22560W        W95628  27.325  39.838  13.398
22561W        W95629  16.347   4.261  10.746
22562W        W95630  43.972  29.446   3.102
22563W        W95631  37.228  43.253   4.618
22564W        W95632   8.035  24.115   3.702
22565W        W95633  16.859  19.670   2.270
22566W        W95634   7.433  29.755   1.747
22567W        W95635  30.861  34.662   0.066
22568W        W95636  14.629  14.651   2.914
22569W        W95637  14.386  32.093   2.669
22570W        W95638   4.406  11.814   1.224
22571W        W95639  26.194  39.140   2.230
22572W        W95640   7.881  25.429  12.548
22573W        W95641  36.829  12.546  12.436
22574W        W95642   0.069  38.802  12.612
22575W        W95643   1.720  43.623   2.890
22576W        W95644  16.673  44.994  14.284
22577W        W95645   0.256  17.976   2.271
22578W        W95646   2.291  35.417  13.126
22579W        W95647  12.216  29.979   2.924
22580W        W95648   2.450  34.795   3.343
22581W        W95649   1.793  28.919   3.194
22582W        W95650  26.798  31.953  13.500
22583W        W95651  41.798   9.176   4.235
22584W        W95652  27.425   8.629  11.115
22585W        W95653  36.026   9.106  11.195
22586W        W95654  28.241  38.497  12.451
22587W        W95655  24.658  10.706   2.800
22588W        W95656  12.697  21.504   0.743
22589W        W95657  35.062  11.386   2.105
22590W        W95658  10.285  16.804  13.887
22591W        W95659   4.842  21.740   1.916
22592W        W95660  33.539  42.608  12.333
22593W        W95661  15.324  16.071   2.278
22594W        W95662   7.929  40.519  10.699
22595W        W95663  42.563  35.876   1.191
22596W        W95664  22.739  18.784   0.330
22597W        W95665   0.558  14.837  13.595
22598W        W95666  44.537  17.918   2.605
22599W        W95667   8.366  34.647   3.600
22600W        W95668   8.880  30.021  11.164
22601W        W95669  38.850  40.098  13.275
22602W        W95670  37.822  31.766  13.449
22603W        W95671  31.516   8.158  12.340
22604W        W95672   9.892   2.936   4.648
22605W        W95673  34.428  12.883  12.136
22606W        W95674  35.101  35.393   1.923
22607W        W95675   1.827  36.532  11.467
22608W        W95676  38.299   9.365   2.815
22609W        W95677   4.765   0.411   2.717
22610W        W95678  40.981  26.974   1.339
22611W        W95679  38.016  26.519  13.980
22612W        W95680  27.434  37.105   2.355
22613W        W95681  27.143  15.667  11.083
22614W        W95682   9.205  28.347  10.761
22615W        W95683  42.693  18.992   3.172
22616W        W95684  27.555   7.246   4.166
22617W        W95685  27.237  32.678   4.853
22618W        W95686  40.950  33.484   0.257
22619W        W95687  14.746   7.603  11.632
22620W        W95688  37.110  33.931  13.895
22621W        W95689  12.248   2.532   0.410
22622W        W95690  27.112  33.226   0.772
22623W        W95691  41.348   8.919   1.192
22624W        W95692  16.077  26.784  14.518
22625W        W95693  29.209  17.188  14.694
22626W        W95694  20.205  41.589   2.811
22627W        W95695  39.230   6.451  12.111
22628W        W95696   7.745  35.674  14.727
22629W        W95697  20.265   6.352  12.886
22630W        W95698  31.457  27.914  14.046
22631W        W95699   8.233   2.751   2.466
22632W        W95700  27.721   1.586  11.655
22633W        W95701  33.545  29.371   2.704
22634W        W95702  13.851  31.829   3.880
22635W        W95703  36.505   3.546  11.918
22636W        W95704  17.716   7.685   3.696
22637W        W95705  13.304  24.602   1.237
22638W        W95706  15.033  28.950  13.354
22639W        W95707  25.164  16.665  14.872
22640W        W95708  30.573  12.134   2.206
22641W        W95709  33.685  40.462  14.396
22642W        W95710  22.548  11.519  12.083
22643W        W95711  40.742  25.564  13.209
22644W        W95712   1.258  13.678  10.596
22645W        W95713   2.279  33.601  13.464
22646W        W95714   0.685  14.425   0.182
22647W        W95715   2.419  30.712  11.390
22648W        W95716  19.824   7.735  11.116
22649W        W95717   9.282  41.425  12.965
22650W        W95718  33.826  12.280   1.199
22651W        W95719   1.227   3.907   1.429
22652W        W95720   4.339  41.825  14.984
22653W        W95721  24.072  25.933  11.526
22654W        W95722  24.181  29.792   0.557
22655W        W95723  41.141  14.140  11.042
22656W        W95724   3.904  17.793  12.946
22657W        W95725  42.990  17.309  11.183
22658W        W95726  17.425  22.062   3.235
22659W        W95727   2.356   2.753  12.624
22660W        W95728  10.722  42.982   2.147
22661W        W95729  19.649  26.133   3.793
22662W        W95730   7.601  21.640   0.959
22663W        W95731  34.001  31.067   0.560
22664W        W95732  28.789  41.782   0.897
22665W        W95733  17.544  28.060  11.422
22666W        W95734  24.659   2.650  14.866
22667W        W95735  36.397  26.031  11.188
22668W        W95736  43.279  30.145  11.172
22669W        W95737  35.422   7.798  14.947
22670W        W95738  20.479  39.804  12.835
22671W        W95739   0.872  11.375  14.196
22672W        W95740  17.778  34.986   2.248
22673W        W95741  17.736  20.700   2.205
22674W        W95742  23.612   2.173   1.223
22675W        W95743  17.398  33.309  14.757
22676W        W95744  42.247   9.324   1.866
22677W        W95745  31.107   2.302   4.628
22678W        W95746   6.467  21.981   3.544
22679W        W95747  10.053  11.193   1.622
22680W        W95748   0.731  18.328  11.648
22681W        W95749   8.561  16.786   2.812
22682W        W95750   8.971   9.317  12.990
22683W        W95751  23.621   7.603  11.494
22684W        W95752  18.122  42.755  13.404
22685W        W95753  43.423  23.641  13.032
22686W        W95754  27.494  12.903   1.713
22687W        W95755  23.037  30.916   1.123
22688W        W95756   1.489   5.417   4.463
22689W        W95757  33.469  38.836  13.350
22690W        W95758  34.505  19.520  13.048
22691W        W95759  11.711  43.977  11.165
22692W        W95760  38.962  27.150   4.201
22693W        W95761  14.760   0.830   4.824
22694W        W95762   2.014   2.016   2.834
22695W        W95763  12.951  16.096   3.343
22696W        W95764  14.542  26.421  12.447
22697W        W95765  28.704  38.304  13.605
22698W        W95766  19.352  39.328   3.687
22699W        W95767  32.922  12.247  10.979
22700W        W95768  14.289  41.347   4.313
22701W        W95769  20.341  12.536  13.567
22702W        W95770  38.207   9.109   4.161
22703W        W95771  12.840  36.307  10.649
22704W        W95772  35.900  17.670   0.587
22705W        W95773  26.684  31.984   2.848
22706W        W95774  13.120   6.823   3.631
22707W        W95775  19.051   6.726   4.607
22708W        W95776  22.034  21.305  10.647
22709W        W95777  21.764  18.940  12.916
22710W        W95778  11.158  35.133  11.574
22711W        W95779  16.794  37.496   1.786
22712W        W95780  41.687  37.058   3.272
22713W        W95781   7.705  17.977   2.857
22714W        W95782  22.977   8.483   3.208
22715W        W95783   8.805  24.267  12.782
22716W        W95784  20.952   3.425  13.059
22717W        W95785  19.717  21.533  14.200
22718W        W95786   5.073  27.968   3.662
22719W        W95787  32.059  44.830  10.616
22720W        W95788   8.669  28.529   2.787
22721W        W95789  10.799  43.016   3.577
22722W        W95790  26.220  16.550  10.745
22723W        W95791  11.847  28.512  13.968
22724W        W95792  30.104  26.874  11.943
22725W        W95793  41.246  16.041   1.385
22726W        W95794  13.163  40.876   3.384
22727W        W95795  30.898  18.306   3.645
22728W        W95796  38.759  10.123  11.616
22729W        W95797  28.517  36.969   4.599
22730W        W95798  40.335  13.918   1.827
22731W        W95799  44.248  12.559   2.684
22732W        W95800  28.024  16.632   2.149
22733W        W95801   2.386   5.345   4.438
22734W        W95802   1.800  39.500   2.821
22735W        W95803  15.577  25.617  12.611
22736W        W95804  18.729  19.772   0.007
22737W        W95805  37.972  22.639   4.553
22738W        W95806  30.084  13.760   0.729
22739W        W95807  39.967  34.965   2.414
22740W        W95808   4.011  19.234  11.039
22741W        W95809  27.223  29.087   0.828
22742W        W95810   4.250  40.367   1.940
22743W        W95811  24.681  30.403   1.290
22744W        W95812  19.586  13.950  14.539
22745W        W95813  32.309  10.679  14.479
22746W        W95814  12.351   7.104   0.938
22747W        W95815  43.182  32.072   1.818
22748W        W95816  34.096  28.542   0.951
22749W        W95817   4.885  41.844  12.497
22750W        W95818   0.706   3.846   3.891
22751W        W95819   3.365  22.450   2.714
22752W        W95820   9.392   6.627   0.217
22753W        W95821  33.519  33.692  12.502
22754W        W95822   4.747  30.719   1.712
22755W        W95823  43.227  38.811  12.021
22756W        W95824  23.308   8.888  12.918
22757W        W95825  18.050  28.229  10.504
22758W        W95826  44.810  40.359  11.855
22759W        W95827  31.682  36.122   4.832
22760W        W95828   2.244   6.146  14.086
22761W        W95829  10.031  18.117  12.350
22762W        W95830  41.001   2.013   3.416
22763W        W95831  11.374  30.168   2.361
22764W        W95832   6.196  28.910  13.388
22765W        W95833  36.826  13.902  10.392
22766W        W95834   6.238  30.746  12.034
22767W        W95835  11.627  41.293   4.150
22768W        W95836  34.814  39.912   0.721
22769W        W95837  17.006  40.546  10.436
22770W        W95838  35.371  20.787  11.068
22771W        W95839  25.131  43.344   0.759
22772W        W95840   7.636  19.774  14.750
22773W        W95841  20.045  24.111  10.618
22774W        W95842  20.068  22.660   5.169
22775W        W95843  30.520  40.317  14.267
22776W        W95844  30.155  22.340   1.322
22777W        W95845  11.738  36.027  10.219
22778W        W95846  35.531  35.887   1.583
22779W        W95847  24.470  38.631  10.709
22780W        W95848  44.063   5.120   2.213
22781W        W95849  11.329  31.015   0.727
22782W        W95850   6.413  34.531   4.740
22783W        W95851  28.932   8.144  14.867
22784W        W95852  26.469  12.462  12.857
22785W        W95853  16.369  39.353   4.602
22786W        W95854  42.977  37.469  10.728
22787W        W95855   6.965  26.081  13.449
22788W        W95856  36.168   6.193   4.567
22789W        W95857  31.220  36.394   1.341
22790W        W95858  17.188   5.901  10.176
22791W        W95859  12.912  21.646   1.190
22792W        W95860  36.028  34.582   1.567
22793W        W95861  18.096  17.017  12.864
22794W        W95862   5.264  10.825  14.352
22795W        W95863  29.088  35.846  11.435
22796W        W95864   5.379  37.782  11.510
22797W        W95865  26.351  25.012   4.191
22798W        W95866  31.939   8.888  13.847
22799W        W95867  19.102   9.165  12.805
22800W        W95868  28.550  40.012   2.392
22801W        W95869  34.104  39.318   1.450
22802W        W95870  14.113  25.580  12.543
22803W        W95871  38.444  26.486   1.347
22804W        W95872   8.139  37.437  14.295
22805W        W95873   1.026  23.204   3.354
22806W        W95874  35.412  18.081   2.910
22807W        W95875  40.441  42.438  14.407
22808W        W95876   6.676  24.664   2.648
22809W        W95877  33.689   4.822  14.751
22810W        W95878  18.012  31.367  12.973
22811W        W95879  22.120  14.201   4.536
22812W        W95880  25.485  17.589   4.721
22813W        W95881   6.715  13.773   2.655
22814W        W95882  38.568  38.912   0.272
22815W        W95883   9.942  28.784   2.225
22816W        W95884  28.954  19.736  14.029
22817W        W95885  16.380  43.042  10.535
22818W        W95886  30.913   4.273  11.590
22819W        W95887   7.358   6.694   2.878
22820W        W95888  29.376  30.064   1.382
22821W        W95889  39.354  38.508   0.883
22822W        W95890  37.898  13.888   2.409
22823W        W95891  33.699   9.299   4.163
22824W        W95892  41.591  26.108  12.588
22825W        W95893  22.293  13.341  13.939
22826W        W95894  27.250  11.237   3.709
22827W        W95895  22.123  27.587   3.296
22828W        W95896  11.270  16.215  10.683
22829W        W95897  25.821   1.551   2.883
22830W        W95898  26.997  10.620   0.732
22831W        W95899  34.205  12.823   2.178
22832W        W95900  44.579  30.591  11.183
22833W        W95901  35.530  33.809  11.411
22834W        W95902  30.677   1.431  12.705
22835W        W95903  37.877  13.149   3.454
22836W        W95904   7.060  11.943   4.474
22837W        W95905  40.985  12.223  11.188
22838W        W95906  14.654  39.417  14.034
22839W        W95907  33.057  33.424  14.336
22840W        W95908   1.686  26.673  10.719
22841W        W95909  27.460  25.069   0.448
22842W        W95910  23.433   2.451  11.562
22843W        W95911  23.567   1.047   2.168
22844W        W95912  38.103  43.488  11.478
22845W        W95913   7.859   4.420   4.578
22846W        W95914  36.796  31.962   2.405
22847W        W95915  41.025  38.138  14.644
22848W        W95916   5.798   2.344  12.549
22849W        W95917  22.983  18.775   2.886
22850W        W95918  37.044   2.989   1.645
22851W        W95919  32.449  42.282  13.798
22852W        W95920  16.328  12.865  11.464
22853W        W95921  39.849  32.001   4.419
22854W        W95922  15.647  35.570  11.402
22855W        W95923  26.859  27.397  13.836
22856W        W95924  41.509  24.939   1.237
22857W        W95925  37.874   8.494  11.079
22858W        W95926   1.505   2.828   3.134
22859W        W95927  11.450   6.303   4.171
22860W        W95928  14.864  24.116  12.020
22861W        W95929  18.334  31.652   1.804
22862W        W95930  30.017  43.319  14.444
22863W        W95931   1.242  26.141   3.343
22864W        W95932  16.842  38.930  12.863
22865W        W95933  41.560  11.476   5.015
22866W        W95934  34.732  29.688   3.164
22867W        W95935  24.431  36.314   0.794
22868W        W95936   4.255   9.655   4.050
22869W        W95937  37.272   1.512   2.624
22870W        W95938  10.153  21.589   3.935
22871W        W95939  27.675  27.955  11.071
22872W        W95940  26.948  27.592   3.619
22873W        W95941  23.432   0.344   2.752
22874W        W95942   4.782   2.256  14.380
22875W        W95943  24.278   0.024  14.370
22876W        W95944  23.162  43.435  13.611
22877W        W95945  28.694   3.699  13.405
22878W        W95946  20.288  11.225  12.372
22879W        W95947  18.615   6.932  11.619
22880W        W95948  15.256  16.811   3.633
22881W        W95949   0.532  44.280   3.891
22882W        W95950  15.747  31.086  13.907
22883W        W95951  37.074  18.752   2.386
22884W        W95952   5.146  12.712   4.679
22885W        W95953   7.303   9.672  12.738
22886W        W95954  18.531  27.029  13.556
22887W        W95955  23.197  31.588   4.827
22888W        W95956  12.128  12.548  11.609
22889W        W95957  26.706   3.739   2.683
22890W        W95958  34.628   3.469  14.339
22891W        W95959  25.070  10.340   0.038
22892W        W95960   3.830  40.783  13.506
22893W        W95961  11.163   7.037  13.814
22894W        W95962  43.404   2.246   0.985
22895W        W95963   0.129  29.738  10.958
22896W        W95964  30.926  15.243   4.584
22897W        W95965   9.722  23.459   0.293
22898W        W95966  40.797  33.636   4.383
22899W        W95967  43.742  17.123   0.002
22900W        W95968  29.388  22.700  10.132
22901W        W95969  16.579  11.397   2.382
22902W        W95970  44.820  38.118  11.859
22903W        W95971  26.483  15.662   3.631
22904W        W95972  40.975   1.919  14.557
22905W        W95973  11.593   4.827   1.769
22906W        W95974  15.609   5.751   0.428
22907W        W95975  11.783  21.022   5.244
22908W        W95976   8.001  11.156  12.605
22909W        W95977  20.951   8.588  14.026
22910W        W95978   3.119  25.189   4.032
22911W        W95979  43.960  13.300   2.488
22912W        W95980  37.118  44.619   1.891
22913W        W95981  42.283  31.544  13.388
22914W        W95982   7.697  24.656  10.712
22915W        W95983  29.493  35.952   4.694
22916W        W95984  33.340  20.770   2.207
22917W        W95985  25.588   7.406   4.562
22918W        W95986  36.389  20.258   4.137
22919W        W95987   8.259  17.524   2.395
22920W        W95988  29.617  34.666   3.269
22921W        W95989  13.731   8.858   1.369
22922W        W95990  35.978  44.266  12.456
22923W        W95991   7.340   5.909   0.495
22924W        W95992  17.754  22.832  14.802
22925W        W95993  27.438  44.845   1.698
22926W        W95994  33.653  11.739  13.046
22927W        W95995  22.244  14.212  12.166
22928W        W95996  41.813   4.074   3.138
22929W        W95997  40.085  44.852   3.308
22930W        W95998  39.317  39.066   2.838
22931W        W95999   6.383  13.297   3.665
22932W        W96000  30.862  20.005   2.574
22933W        W96001  24.660  41.442   3.398
22934W        W96002  35.654  28.253   5.149
22935W        W96003  39.819  32.877  12.880
22936W        W96004  28.530  38.069  14.472
22937W        W96005   7.288   2.271   1.657
22938W        W96006  26.714  18.876   2.463
22939W        W96007  30.286  34.371   2.216
22940W        W96008  33.141  44.629   1.468
22941W        W96009  44.232  39.885  11.965
22942W        W96010  30.550  35.549  13.621
22943W        W96011   4.683  44.378   4.302
22944W        W96012  12.861  33.025  13.051
22945W        W96013  18.892   8.378  14.843
22946W        W96014  42.630  25.993  12.551
22947W        W96015  19.272   1.762   1.471
22948W        W96016  31.348  11.331  12.860
22949W        W96017  22.089  23.742  12.358
22950W        W96018  36.083  30.141  10.704
22951W        W96019  28.144  18.215   3.671
22952W        W96020   4.725   9.797   2.713
22953W        W96021  44.098   3.405   4.559
22954W        W96022  36.905  23.302  13.686
22955W        W96023  36.687   6.375  11.981
22956W        W96024   8.428  16.856   0.862
22957W        W96025  14.882   4.116  12.397
22958W        W96026  33.477  34.459  10.612
22959W        W96027   6.010  23.157   1.355
22960W        W96028  27.014   2.557  12.418
22961W        W96029  34.816   0.525   3.044
22962W        W96030   5.992  26.643  12.836
22963W        W96031  23.228  27.921   4.018
22964W        W96032  25.421  42.061   4.423
22965W        W96033   8.704  13.680   1.886
22966W        W96034  43.066  14.259  13.529
22967W        W96035  33.666   6.018   3.915
22968W        W96036  38.332  10.215  13.028
22969W        W96037  25.650  19.136   4.239
22970W        W96038  44.502  15.268  14.971
22971W        W96039  42.443  13.850  10.840
22972W        W96040  11.804  19.824  10.054
22973W        W96041  10.353  39.805  12.053
22974W        W96042  12.256  16.947  11.528
22975W        W96043   6.631   8.514  13.988
22976W        W96044  29.426  17.540  12.940
22977W        W96045   1.779  41.768   3.173
22978W        W96046  31.055   0.814  14.782
22979W        W96047  21.860  16.632  13.545
22980W        W96048   7.174  24.206   0.419
22981W        W96049  34.608  20.723   1.459
22982W        W96050   5.305  17.228   0.464
22983W        W96051   8.122  11.376   0.510
22984W        W96052  21.647  37.376  14.457
22985W        W96053   6.449  12.538  10.940
22986W        W96054  40.978  21.717  14.788
22987W        W96055  29.003  13.080  14.885
22988W        W96056  34.869  30.157  12.516
22989W        W96057  18.547  44.621   1.671
22990W        W96058   4.260  37.573  13.078
22991W        W96059   7.507  37.534  12.445
22992W        W96060  33.024  18.058   2.835
22993W        W96061   6.185  30.494   2.058
22994W        W96062  20.309  19.564  12.125
22995W        W96063   8.060   8.005  12.532
22996W        W96064  36.016  26.657  14.114
22997W        W96065  43.370  28.192  13.651
22998W        W96066  41.529   7.635   4.583
22999W        W96067  25.668  25.290  11.126
23000W        W96068   6.216  43.372  13.131
23001W        W96069  30.754  25.197   4.763
23002W        W96070  19.084  34.363   1.308
23003W        W96071  23.099  37.900  13.363
23004W        W96072  43.302  28.205  14.149
23005W        W96073  35.370  40.921   1.269
23006W        W96074   8.493  33.056  10.749
23007W        W96075  28.155  30.304  12.884
23008W        W96076  14.313  39.430  13.595
23009W        W96077  26.411   5.789   2.826
23010W        W96078  25.416  30.196   3.142
23011W        W96079  31.414  32.868  12.298
23012W        W96080  29.111  27.598  11.985
23013W        W96081   0.306  42.584  13.060
23014W        W96082  35.809  30.415  11.051
23015W        W96083   0.429  42.675  12.569
23016W        W96084  32.176  39.559  13.048
23017W        W96085  19.029  11.244  13.705
23018W        W96086   5.546  38.467   4.619
23019W        W96087  30.871  35.558  12.715
23020W        W96088  44.320  22.536  13.949
23021W        W96089  33.392  24.009   4.952
23022W        W96090  18.143  16.223  12.577
23023W        W96091   4.206  33.034  12.484
23024W        W96092  21.735  25.113   3.230
23025W        W96093  24.157   2.833  12.017
23026W        W96094   2.740  43.061   2.125
23027W        W96095  41.551   7.446   2.618
23028W        W96096   0.469   4.506   4.446
23029W        W96097  14.157  16.848   4.604
23030W        W96098  38.310  36.767   1.196
23031W        W96099  14.839  32.455   1.486
23032W        W96100  34.295  22.893   1.780
23033W        W96101  12.702  42.335  12.851
23034W        W96102  15.879  14.651  12.448
23035W        W96103   2.483  28.131  12.335
23036W        W96104  37.496  34.033  11.406
23037W        W96105  30.735  27.602   4.606
23038W        W96106  10.203  12.466  10.721
23039W        W96107  42.935  13.929   4.321
23040W        W96108  17.912  39.524   3.870
23041W        W96109  32.918   2.865  13.927
23042W        W96110  12.786  44.006  13.519
23043W        W96111  25.878  23.675   4.476
23044W        W96112  35.965  22.629  12.448
23045W        W96113  25.273  37.981  14.400
23046W        W96114  28.805   2.207   2.474
23047W        W96115  42.594   8.251   4.355
23048W        W96116  41.170  27.144   2.629
23049W        W96117  32.994  12.581   1.638
23050W        W96118   9.148  44.577  12.957
23051W        W96119  11.556  31.006   1.727
23052W        W96120  30.360  32.983   1.300
23053W        W96121  36.279   1.863  14.737
23054W        W96122  11.478  13.777   0.756
23055W        W96123  14.342  33.031  12.784
23056W        W96124   9.600  39.122   0.455
23057W        W96125  41.631   5.723   1.228
23058W        W96126  43.465   4.137  11.429
23059W        W96127  35.436  34.344  14.275
23060W        W96128  11.706  14.678   1.821
23061W        W96129  17.322  17.585  12.323
23062W        W96130  11.009  18.152   3.382
23063W        W96131  44.446  44.465  10.374
23064W        W96132  32.089   1.437   4.626
23065W        W96133  14.163   4.928  14.914
23066W        W96134  22.863  40.846   1.245
23067W        W96135  43.824  14.267  10.776
23068W        W96136  31.705  14.861  12.049
23069W        W96137   9.598   4.888   3.270
23070W        W96138  12.551  17.252  11.217
23071W        W96139   8.440  13.267  14.791
23072W        W96140  42.070  13.631   4.167
23073W        W96141   5.962  31.864  14.392
23074W        W96142  11.353  15.085  13.856
23075W        W96143  16.583  28.363  12.029
23076W        W96144   5.849  12.088  12.974
23077W        W96145  25.204   1.084  11.576
23078W        W96146  19.600  15.643  14.789
23079W        W96147  25.465  24.123  13.980
23080W        W96148  30.463   3.270  13.510
23081W        W96149  15.401  14.140  10.983
23082W        W96150  27.681   0.294  11.176
23083W        W96151  12.343  22.982  12.022
23084W        W96152  11.624  26.670   3.522
23085W        W96153  38.335  27.502   3.639
23086W        W96154  28.123  40.744   3.286
23087W        W96155   2.307   2.026   1.432
23088W        W96156  16.538  30.118   2.806
23089W        W96157  38.407  11.108   3.326
23090W        W96158  23.461  26.925   0.526
23091W        W96159  29.717  38.050   2.663
23092W        W96160  14.357  11.775  12.613
23093W        W96161  31.953  25.583  14.829
23094W        W96162   0.536  19.562  12.016
23095W        W96163   1.222  30.721   0.836
23096W        W96164  23.715  43.053   0.901
23097W        W96165  12.563  12.756  14.449
23098W        W96166   0.358   3.254   3.271
23099W        W96167  10.644  44.415  14.161
23100W        W96168   2.730  34.108  12.897
23101W        W96169  21.318  37.890   5.043
23102W        W96170  41.289   1.431  13.507
23103W        W96171  19.297  30.318  14.796
23104W        W96172   4.469   2.401  12.067
23105W        W96173   5.612  27.106  11.245
23106W        W96174  35.887  42.857   0.893
23107W        W96175  31.463  39.264  14.423
23108W        W96176   8.894   6.491   0.387
23109W        W96177   1.389   2.829  14.392
23110W        W96178   3.922   9.173   3.682
23111W        W96179  13.658  16.114  12.417
23112W        W96180  38.398  15.097   2.535
23113W        W96181  25.471  14.636  13.782
23114W        W96182  19.679   8.112  10.757
23115W        W96183  39.441  35.560  12.937
23116W        W96184  37.547  30.931  12.961
23117W        W96185  24.547   2.663   3.259
23118W        W96186  16.138  12.238   4.037
23119W        W96187  41.826  43.473  13.078
23120W        W96188  27.416  31.405  11.857
23121W        W96189  33.888  20.445  13.840
23122W        W96190  38.736  17.698   2.166
23123W        W96191  17.202  20.699   1.054
23124W        W96192  11.760  21.893  12.055
23125W        W96193   2.663   0.032  14.935
23126W        W96194  16.144  10.883   4.016
23127W        W96195  14.185  39.482  12.660
23128W        W96196   5.236  39.327   2.093
23129W        W96197  34.515  37.788   4.401
23130W        W96198  18.109  19.686   4.299
23131W        W96199  20.670  25.625   4.818
23132W        W96200   1.732  32.606   1.854
23133W        W96201  14.656  36.394  11.342
23134W        W96202  42.897  21.456   0.444
23135W        W96203  14.541  14.835   0.368
23136W        W96204  41.392  30.601  11.689
23137W        W96205  10.860  39.214  12.464
23138W        W96206  18.789   8.376   0.982
23139W        W96207  12.568  12.174  12.485
23140W        W96208   2.701  30.574   1.237
23141W        W96209  18.010   4.380  13.463
23142W        W96210  15.860  27.966  10.221
23143W        W96211  38.398  23.322  12.341
23144W        W96212   8.466  39.298  10.320
23145W        W96213  13.503   8.911  11.754
23146W        W96214  35.613  44.913   5.079
23147W        W96215  38.346  33.796   2.649
23148W        W96216  26.123   7.476   3.050
23149W        W96217  24.001  24.619  13.152
23150W        W96218   0.975  11.529   0.497
23151W        W96219  34.872   1.715  10.086
23152W        W96220  23.781   7.672  14.655
23153W        W96221  25.982   4.666  11.561
23154W        W96222  28.195  40.782   1.331
23155W        W96223  22.689   3.279  14.345
23156W        W96224  33.348  36.151  14.842
23157W        W96225  28.558   0.794   4.749
23158W        W96226  21.516  37.881  11.559
23159W        W96227   5.156  26.939  11.487
23160W        W96228  33.963  14.302   2.269
23161W        W96229  37.136  42.955  10.621
23162W        W96230  30.744  26.758   3.688
23163W        W96231  43.952   6.414   1.198
23164W        W96232  28.063  20.688   3.743
23165W        W96233  24.151  14.117  11.237
23166W        W96234   4.907  40.802   1.623
23167W        W96235  12.131   4.809   1.753
23168W        W96236  37.431  31.716   2.810
23169W        W96237  27.440  31.927   0.821
23170W        W96238  35.655  40.469   1.403
23171W        W96239   2.862  31.044   3.003
23172W        W96240  43.881  35.357   3.920
23173W        W96241  12.596  12.130   0.942
23174W        W96242  17.587  44.115   3.634
23175W        W96243   7.241  12.221  13.296
23176W        W96244  19.326   5.831   1.658
23177W        W96245  19.712   2.998  11.876
23178W        W96246  32.940  37.573  14.628
23179W        W96247  16.678   7.619   0.564
23180W        W96248   4.415  18.022   2.730
23181W        W96249  24.685  13.537   2.352
23182W        W96250  32.337  22.500   5.180
23183W        W96251   0.490   1.996   0.398
23184W        W96252  16.324  23.245   4.208
23185W        W96253  43.468  29.146   4.638
23186W        W96254   9.865   1.923   1.922
23187W        W96255   4.638  32.117   4.588
23188W        W96256  41.112   2.375  13.422
23189W        W96257   0.313   6.756  12.139
23190W        W96258  26.820   6.167  13.555
23191W        W96259  22.973   8.373  10.754
23192W        W96260  19.128  24.999  11.586
23193W        W96261  17.209  43.546   4.306
23194W        W96262  39.924  27.243  14.456
23195W        W96263  40.630  12.058   2.857
23196W        W96264  37.802  25.996  13.398
23197W        W96265  37.087  25.959   2.237
23198W        W96266  21.053  18.174   4.887
23199W        W96267  27.033   7.098  13.309
23200W        W96268  43.621  36.698   0.687
23201W        W96269  43.744  32.435   4.154
23202W        W96270   1.457   7.302  14.197
23203W        W96271  11.935  17.796   1.970
23204W        W96272  26.600  22.432  14.487
23205W        W96273   1.922  11.230   1.661
23206W        W96274  37.132   7.581   5.170
23207W        W96275  23.096  20.506  11.123
23208W        W96276   5.774  19.341   2.790
23209W        W96277   0.127  32.360  12.228
23210W        W96278  28.115  16.507  14.703
23211W        W96279  43.801  24.509  11.805
23212W        W96280  23.441   3.941  12.520
23213W        W96281  43.452   9.509   4.078
23214W        W96282  35.107   3.898   3.271
23215W        W96283  13.392  36.491   1.168
23216W        W96284  16.250  12.841  12.802
23217W        W96285  24.121  35.225  14.474
23218W        W96286  17.281  27.652  13.551
23219W        W96287  14.558  33.984   3.663
23220W        W96288  37.281  29.215   0.247
23221W        W96289  36.967  18.484  14.062
23222W        W96290  22.697  44.945   4.180
23223W        W96291  31.813  13.740  12.073
23224W        W96292  12.223  42.257  14.957
23225W        W96293  36.087  36.447  12.722
23226W        W96294  37.418  33.056   3.062
23227W        W96295   6.302  42.448   3.153
23228W        W96296  34.165   4.727  14.599
23229W        W96297  29.183  24.068  10.664
23230W        W96298  11.398  26.737  12.044
23231W        W96299  19.567  33.161  14.223
23232W        W96300  11.798   3.996   0.405
23233W        W96301   0.780  31.815  12.437
23234W        W96302  17.966  15.548   5.025
23235W        W96303   1.258  42.044   0.993
23236W        W96304  22.249  12.516   2.276
23237W        W96305  28.217   4.944  13.909
23238W        W96306  28.997  16.751  12.864
23239W        W96307   4.279   7.294   1.781
23240W        W96308  43.737  29.998   4.226
23241W        W96309  40.560  26.027  12.915
23242W        W96310  14.295  17.576   1.242
23243W        W96311  10.173  24.729  14.954
23244W        W96312   7.897  38.443  13.551
23245W        W96313   8.290   8.417  13.456
23246W        W96314  25.491  19.321  12.817
23247W        W96315  19.518  24.644  11.586
23248W        W96316  24.639  11.723  10.953
23249W        W96317   9.159   5.232   1.655
23250W        W96318   8.673  22.929  13.052
23251W        W96319  12.320   3.292  11.590
23252W        W96320  22.179  24.961  14.890
23253W        W96321  44.465  38.997   3.207
23254W        W96322  20.706   7.660   1.600
23255W        W96323  13.954   9.313  13.320
23256W        W96324  16.347  40.066  10.549
23257W        W96325  36.064   6.576   0.133
23258W        W96326  34.491  11.955  12.456
23259W        W96327  13.976   2.767   2.834
23260W        W96328  43.903  20.652   4.032
23261W        W96329   5.573  21.096   3.659
23262W        W96330  27.113  34.085   3.084
23263W        W96331  32.807  36.911  11.969
23264W        W96332  15.729  31.954   1.610
23265W        W96333  24.038  29.159   4.197
23266W        W96334  34.557  20.016   4.279
23267W        W96335  44.877   8.583  11.077
23268W        W96336  19.495  19.978  11.177
23269W        W96337  38.988  20.183  12.852
23270W        W96338   6.355  11.786   1.410
23271W        W96339  41.885  13.854   0.528
23272W        W96340   4.425  18.324  13.527
23273W        W96341  29.140   5.649   3.639
23274W        W96342  36.460  18.587   5.028
23275W        W96343  20.564  30.322   0.443
23276W        W96344  11.392  16.665  10.424
23277W        W96345   2.975  18.690   0.922
23278W        W96346  14.323  44.442   2.764
23279W        W96347   8.870  19.222   1.967
23280W        W96348  34.418  23.630  14.736
23281W        W96349  29.952   4.775   4.960
23282W        W96350  34.764  12.029  11.048
23283W        W96351   1.315  43.445   1.546
23284W        W96352  32.439  35.823  13.411
23285W        W96353  15.239   4.597  14.377
23286W        W96354  26.656  44.464   4.392
23287W        W96355  23.129   2.272   0.978
23288W        W96356  31.962  31.053  10.788
23289W        W96357  14.300   5.678   4.725
23290W        W96358  26.666  34.471   1.766
23291W        W96359  40.874  32.895   3.868
23292W        W96360  16.334  40.513  14.348
23293W        W96361  15.421  38.175   1.248
23294W        W96362  19.522  18.649  11.522
23295W        W96363  10.657  26.424  13.925
23296W        W96364   6.680  42.996   2.389
23297W        W96365   8.214  21.514   3.116
23298W        W96366  18.199  14.424   4.915
23299W        W96367  33.605  39.283  10.525
23300W        W96368   8.890  15.180   4.699
23301W        W96369   4.761  20.920  11.496
23302W        W96370  44.282  10.945   4.243
23303W        W96371  13.550  29.147   0.196
23304W        W96372  14.639  11.567  13.877
23305W        W96373  20.497  30.373  11.758
23306W        W96374  19.830  36.491   2.918
23307W        W96375  41.276  29.102   3.373
23308W        W96376  18.447  17.701   4.495
23309W        W96377  18.759  22.811   1.253
23310W        W96378  34.119   0.530  13.336
23311W        W96379  30.932  30.401   3.142
23312W        W96380   8.223  42.516   5.805
23313W        W96381   8.865   8.925  13.971
23314W        W96382  17.641   4.531   3.396
23315W        W96383  34.960  19.172  13.879
23316W        W96384  14.575   8.164  11.179
23317W        W96385  29.243  19.310  13.148
23318W        W96386  41.369  22.992  14.290
23319W        W96387  15.748  34.928  12.594
23320W        W96388   9.925  38.811   0.683
23321W        W96389   1.334  41.805  11.471
23322W        W96390  44.460  26.723   4.706
23323W        W96391  24.334  28.123   5.050
23324W        W96392  18.834  30.962   0.744
23325W        W96393  22.246  33.642   1.325
23326W        W96394  21.021   0.353  13.819
23327W        W96395   1.555  25.558  13.841
23328W        W96396  13.815   0.196   4.510
23329W        W96397   7.934  10.179  12.184
23330W        W96398   8.234  28.102  10.422
23331W        W96399   5.926  12.732   4.062
23332W        W96400  39.845  21.081  13.502
23333W        W96401  26.155  33.910   2.904
23334W        W96402  17.753   4.357  11.957
23335W        W96403  19.861  44.740   1.288
23336W        W96404  33.504  29.574   5.019
23337W        W96405   8.499  31.662  11.739
23338W        W96406   3.923   6.187   3.581
23339W        W96407  20.613  28.073   1.600
23340W        W96408  20.098  22.154   1.013
23341W        W96409   2.238  35.040   4.250
23342W        W96410   1.535  35.489   0.879
23343W        W96411  19.321  11.041  12.724
23344W        W96412  20.914  42.074   1.437
23345W        W96413  20.556   2.898   0.407
23346W        W96414  36.872  35.533  13.047
23347W        W96415  23.061  10.368   2.739
23348W        W96416  28.021  36.332   0.011
23349W        W96417  32.275  27.005  11.909
23350W        W96418  32.310  36.960   3.801
23351W        W96419  16.311  14.060   4.356
23352W        W96420  13.987  35.043   2.801
23353W        W96421  28.097  21.558  12.458
23354W        W96422  10.893  24.059   4.171
23355W        W96423  44.456  31.490   1.819
23356W        W96424  34.753  26.495   3.882
23357W        W96425  15.609  43.918  12.379
23358W        W96426   5.194  24.630  14.810
23359W        W96427   8.757  37.133   2.717
23360W        W96428  31.428  17.129  11.666
23361W        W96429  23.717  15.827  11.996
23362W        W96430  22.175  23.661   3.848
23363W        W96431   5.040  44.508  10.280
23364W        W96432  42.313  10.854  13.476
23365W        W96433  17.682  21.103  12.021
23366W        W96434  22.727  21.476   2.357
23367W        W96435  26.233  11.116  10.664
23368W        W96436  33.520  41.582  11.136
23369W        W96437  31.628  18.167   0.826
23370W        W96438  26.026  36.879  12.212
23371W        W96439  44.413   1.253  13.934
23372W        W96440   0.007   8.659   2.349
23373W        W96441  20.631  29.665   2.916
23374W        W96442  20.233  12.563   0.383
23375W        W96443   4.581   2.493   2.345
23376W        W96444  11.196  33.502   2.512
23377W        W96445  19.284  21.508  11.556
23378W        W96446   5.175  43.658   1.789
23379W        W96447  44.289  20.705   3.532
23380W        W96448   8.321  33.499  14.982
23381W        W96449   8.255  21.003  12.567
23382W        W96450  27.190  34.454  11.605
23383W        W96451   4.498   3.943   4.147
23384W        W96452   3.451   8.138  14.501
23385W        W96453  12.669   7.682  11.238
23386W        W96454  39.059  29.461  11.780
23387W        W96455  43.782  18.601   1.690
23388W        W96456  24.677   9.983  13.738
23389W        W96457  24.793   8.136  11.607
23390W        W96458  39.211  16.273   2.859
23391W        W96459  15.207  26.442  11.781
23392W        W96460  11.712   6.441   2.682
23393W        W96461  34.392   9.690  12.615
23394W        W96462  38.779  28.207   4.194
23395W        W96463  27.910   0.558   3.369
23396W        W96464   9.412  37.480  11.127
23397W        W96465   6.598  22.764  11.814
23398W        W96466  32.362  25.063   0.727
23399W        W96467   8.282  40.568  10.316
23400W        W96468  19.613  36.139  11.071
23401W        W96469   6.822  18.655   3.901
23402W        W96470  10.341   1.846   3.547
23403W        W96471  15.302  39.965   1.320
23404W        W96472  30.846  34.176  14.854
23405W        W96473   2.876  16.169   1.008
23406W        W96474  30.429   8.423  13.631
23407W        W96475  34.145  14.272   3.700
23408W        W96476  27.183  18.747   0.846
23409W        W96477  11.913  40.869   4.231
23410W        W96478  41.426  42.003   0.481
23411W        W96479  10.543  10.413   3.658
23412W        W96480  18.943  31.418   3.614
23413W        W96481   1.806  38.333  12.306
23414W        W96482  23.492  13.619   2.891
23415W        W96483  34.646  38.980   0.055
23416W        W96484  39.552  25.267  11.429
23417W        W96485   8.572  31.057  12.793
23418W        W96486  42.498  30.683  14.007
23419W        W96487  44.477  14.692   0.747
23420W        W96488  41.195   1.185   1.331
23421W        W96489  39.056  19.343  12.052
23422W        W96490  27.981  30.039  14.781
23423W        W96491  20.533  14.796  12.538
23424W        W96492  17.439  40.633   0.061
23425W        W96493   7.759   1.753  11.546
23426W        W96494  24.109  20.089  12.461
23427W        W96495  15.227  23.717   1.228
23428W        W96496   4.724  44.670   3.061
23429W        W96497  39.934   6.175  14.222
23430W        W96498  37.820  20.465   1.434
23431W        W96499   8.632  22.010   2.837
23432W        W96500  19.960   0.936   1.764
23433W        W96501  41.912  12.441  13.906
23434W        W96502  33.941  27.913  12.555
23435W        W96503  23.764  26.185  11.194
23436W        W96504   7.746  35.880  11.250
23437W        W96505  27.503  18.503   4.169
23438W        W96506  17.693  32.562   4.824
23439W        W96507  26.928  41.419  14.855
23440W        W96508  31.603  25.042  14.389
23441W        W96509  40.513  11.291   0.544
23442W        W96510  22.956  26.189   2.245
23443W        W96511  30.045  20.542  13.173
23444W        W96512  13.146  36.043   3.740
23445W        W96513  40.429   8.140   0.243
23446W        W96514  16.542  41.488  11.455
23447W        W96515  35.035  41.878   4.069
23448W        W96516   9.136  40.336   2.776
23449W        W96517   8.843  23.971  11.113
23450W        W96518  15.307  23.134   0.549
23451W        W96519  26.668  12.783  11.916
23452W        W96520  40.282  26.048   5.160
23453W        W96521  33.423  18.687  11.556
23454W        W96522  16.648   9.695  11.832
23455W        W96523  37.546  23.589   2.243
23456W        W96524  28.124  24.616   2.873
23457W        W96525  15.486  32.755   4.978
23458W        W96526  40.097   6.656  11.192
23459W        W96527  15.548  14.123  11.462
23460W        W96528  10.249  24.864   3.728
23461W        W96529   5.657  13.272   0.853
23462W        W96530  24.723  16.363  12.887
23463W        W96531  42.062  23.122   1.450
23464W        W96532  15.734  36.827   0.261
23465W        W96533  27.447  21.190  14.020
23466W        W96534  34.037  30.846   1.897
23467W        W96535   7.837  24.256  11.456
23468W        W96536   3.407  11.248   1.821
23469W        W96537   4.221  23.608   3.214
23470W        W96538  18.161  20.606   3.410
23471W        W96539  15.836  27.792   0.391
23472W        W96540  28.004  41.002  10.794
23473W        W96541   4.319   9.281  11.658
23474W        W96542  28.923  24.931   4.115
23475W        W96543  38.829  12.486   3.072
23476W        W96544  38.508   9.324   4.754
23477W        W96545  11.198  24.232  11.034
23478W        W96546  44.482  25.723   0.477
23479W        W96547   6.796  13.985  11.779
23480W        W96548  23.208   4.386  11.428
23481W        W96549  29.619  38.895  10.227
23482W        W96550  20.666  40.363   1.759
23483W        W96551   3.191  33.773  11.102
23484W        W96552  25.176  39.492  11.936
23485W        W96553  14.606  33.942  10.422
23486W        W96554  12.982  29.530   2.803
23487W        W96555   4.812  31.818   1.074
23488W        W96556  21.987  16.895   5.574
23489W        W96557  37.009  22.879  12.875
23490W        W96558  12.811  24.207   0.296
23491W        W96559  14.792   6.118  14.528
23492W        W96560  11.964  14.521   1.395
23493W        W96561  34.435  41.322  10.706
23494W        W96562   4.081  34.639  14.923
23495W        W96563  30.116  20.674  14.495
23496W        W96564  41.876   7.707  14.361
23497W        W96565  42.958  18.327  11.187
23498W        W96566  38.025  39.865  12.039
23499W        W96567  15.330  19.261   3.848
23500W        W96568  18.084  23.433   2.247
23501W        W96569  38.031  10.962  14.776
23502W        W96570  22.226  33.122  13.407
23503W        W96571  42.906  35.267  12.968
23504W        W96572   5.681  16.721   3.701
23505W        W96573  24.472  40.160   3.017
23506W        W96574  10.186  14.926  12.940
23507W        W96575  17.074  12.203   0.951
23508W        W96576  40.437  14.033   0.493
23509W        W96577  38.920  36.235   0.796
23510W        W96578  42.509  31.862  10.590
23511W        W96579   7.047   9.181  14.412
23512W        W96580  27.092   8.426  13.017
23513W        W96581  10.780  40.895  13.748
23514W        W96582  33.299  17.047   2.201
23515W        W96583  18.262  24.266  13.435
23516W        W96584   4.656  38.478  12.354
23517W        W96585  32.091   1.265   1.350
23518W        W96586  22.663   1.382   0.788
23519W        W96587   5.449  34.339  12.636
23520W        W96588   4.708  34.385   1.641
23521W        W96589   9.250  16.359   0.206
23522W        W96590  12.394  38.327  14.223
23523W        W96591  24.890  43.795   3.263
23524W        W96592  18.554  40.759  11.410
23525W        W96593  14.319   5.466  12.702
23526W        W96594  28.653  37.123   0.003
23527W        W96595   7.251  36.400  13.579
23528W        W96596  33.606  16.664  10.432
23529W        W96597  20.721  40.989   4.663
23530W        W96598  36.462  36.609  14.016
23531W        W96599  22.046  39.048  14.922
23532W        W96600  44.508  21.552   4.549
23533W        W96601   7.807   0.617  13.076
23534W        W96602  14.701  21.809  12.707
23535W        W96603  13.621   2.161  12.137
23536W        W96604  38.029  41.764   3.629
23537W        W96605   3.957  26.547  12.162
23538W        W96606   6.160  25.282   2.954
23539W        W96607  29.910  31.028  12.512
23540W        W96608  41.986  38.047  14.444
23541W        W96609  21.871  40.511   0.576
23542W        W96610  33.876   5.854   0.633
23543W        W96611  35.859  34.984   0.772
23544W        W96612  21.639  10.116   0.226
23545W        W96613   4.289  19.031  14.467
23546W        W96614  14.584  44.903  10.482
23547W        W96615  22.813  31.001  13.813
23548W        W96616  28.107  25.478  11.350
23549W        W96617  33.615  34.635  12.993
23550W        W96618  24.439  20.238  14.882
23551W        W96619  22.295  24.143   0.481
23552W        W96620  20.330  28.731   0.274
23553W        W96621   6.723   1.371  14.725
23554W        W96622  24.265   4.295  14.416
23555W        W96623  11.601  24.511  14.405
23556W        W96624  40.305  36.725   5.091
23557W        W96625  29.363   7.611  11.878
23558W        W96626  21.058  19.052  11.924
23559W        W96627   9.115   9.176  11.648
23560W        W96628   7.968  26.547  14.439
23561W        W96629  21.153  35.324   3.273
23562W        W96630  27.139  44.870   1.237
23563W        W96631   0.710   6.856   3.307
23564W        W96632  31.501   6.474   4.222
23565W        W96633   3.300  24.529   0.294
23566W        W96634  33.281   5.712  11.972
23567W        W96635  33.905  13.246  13.018
23568W        W96636  23.470  39.992  14.409
23569W        W96637   9.687   1.894  12.620
23570W        W96638  16.237  37.872  12.484
23571W        W96639  24.620  37.959  13.099
23572W        W96640  40.019   6.429  14.679
23573W        W96641  37.642  40.443  11.371
23574W        W96642   5.895  33.104   0.146
23575W        W96643  10.220  42.845   2.354
23576W        W96644   1.987   5.066   2.321
23577W        W96645   4.193  17.603  14.750
23578W        W96646  19.051   3.374   1.466
23579W        W96647   3.197  20.817  10.264
23580W        W96648  32.049   2.712  12.420
23581W        W96649  23.561  29.421  12.813
23582W        W96650  19.185   0.305   0.539
23583W        W96651  31.435  42.940   3.217
23584W        W96652  41.901  36.814   2.717
23585W        W96653  11.534  14.658  14.096
23586W        W96654  14.694  12.735   3.284
23587W        W96655   1.891   6.181  11.677
23588W        W96656  14.172   3.197  11.646
23589W        W96657  29.694  18.878  13.192
23590W        W96658  28.992   9.382   2.805
23591W        W96659  12.186  12.319  11.109
23592W        W96660  39.372  32.639  12.322
23593W        W96661   6.974  40.310  14.372
23594W        W96662  16.154  12.968  14.281
23595W        W96663  22.477   4.327  13.782
23596W        W96664  21.094  15.389   0.071
23597W        W96665   6.816   2.755  14.037
23598W        W96666   5.250  41.549   3.733
23599W        W96667  37.429  21.194  10.513
23600W        W96668  18.358   7.271   4.155
23601W        W96669  20.836  36.275  12.909
23602W        W96670  31.251  34.072  13.111
23603W        W96671  10.369   1.260   0.272
23604W        W96672  14.665  42.665   3.158
23605W        W96673  14.030   0.290   4.046
23606W        W96674  36.810  39.122   0.910
23607W        W96675   5.709  23.022  12.019
23608W        W96676   6.403   4.327   2.703
23609W        W96677  22.047  25.816  11.955
23610W        W96678  41.233  25.656  13.016
23611W        W96679  37.295  15.240   4.518
23612W        W96680  23.273  44.829   2.901
23613W        W96681  30.514  15.310   2.684
23614W        W96682   1.182   4.763  11.050
23615W        W96683  18.367  32.096   1.015
23616W        W96684  43.937  34.326   3.728
23617W        W96685  32.893  10.711  12.568
23618W        W96686  18.196  43.036   2.213
23619W        W96687  18.106  40.301  14.038
23620W        W96688  25.432  14.144   3.865
23621W        W96689   0.018  15.800  14.284
23622W        W96690   6.643  31.169   2.240
23623W        W96691  31.643  13.608   1.967
23624W        W96692   8.128  39.515   3.695
23625W        W96693   5.844   3.756   0.738
23626W        W96694  12.116  42.907  13.275
23627W        W96695  43.976  10.299   0.509
23628W        W96696  17.119  14.092  10.544
23629W        W96697  30.839   6.245   3.695
23630W        W96698  44.458   0.431  11.525
23631W        W96699   5.351  38.955  14.869
23632W        W96700  31.386   5.280  11.020
23633W        W96701  13.743   5.234   0.920
23634W        W96702   8.211  10.331  14.426
23635W        W96703  26.173   5.781   0.354
23636W        W96704  18.643  32.107  10.152
23637W        W96705  29.458  24.119   0.038
23638W        W96706   5.757  28.971   3.294
23639W        W96707   1.936  29.426  14.564
23640W        W96708  35.998  27.182  11.485
23641W        W96709  28.701  31.571   4.024
23642W        W96710   4.286   0.732  12.494
23643W        W96711  35.024  20.594  11.409
23644W        W96712   3.203  42.209   5.210
23645W        W96713   6.004  15.330  14.041
23646W        W96714  10.643  24.524  12.422
23647W        W96715  32.321  34.961   0.936
23648W        W96716  36.982  31.332   5.470
23649W        W96717  23.569  15.367   2.996
23650W        W96718  12.658  30.615   0.947
23651W        W96719  15.715  44.799   2.752
23652W        W96720  15.098  10.289   1.860
23653W        W96721  22.587   1.847  11.289
23654W        W96722  36.826   0.862  11.515
23655W        W96723  19.726  20.723   3.545
23656W        W96724  12.444  29.372   4.598
23657W        W96725  13.383   2.055   2.890
23658W        W96726  43.975  25.238   1.061
23659W        W96727   7.880  43.506  14.869
23660W        W96728  44.725  31.420   4.471
23661W        W96729  13.391  27.890   0.710
23662W        W96730  18.868   4.355   1.340
23663W        W96731  19.691   3.868  12.937
23664W        W96732   4.545  19.456  14.309
23665W        W96733  13.585  28.749   1.136
23666W        W96734  22.448   9.260   4.274
23667W        W96735   1.910  16.269  14.016
23668W        W96736  10.008   6.465   5.020
23669W        W96737   1.985   6.869  11.166
23670W        W96738  19.708  20.174   0.706
23671W        W96739   8.131  41.980   5.059
23672W        W96740   5.329  36.821  14.337
23673W        W96741  19.596  21.698   4.423
23674W        W96742  25.430  15.423   2.136
23675W        W96743  16.455   0.296   4.118
23676W        W96744  37.636  26.914   0.945
23677W        W96745  21.548  18.128   0.811
23678W        W96746  37.311   6.198  14.752
23679W        W96747  31.977   4.038   3.636
23680W        W96748  11.068  31.743  12.415
23681W        W96749  17.437  30.508  10.163
23682W        W96750  27.642  30.155   3.286
23683W        W96751   5.807   5.261   0.824
23684W        W96752  27.155  44.047   2.910
23685W        W96753  43.059  42.898  13.016
23686W        W96754  37.506  23.949  14.160
23687W        W96755  41.431  16.182  11.098
23688W        W96756   8.405  19.798  14.447
23689W        W96757  19.037  18.577   4.598
23690W        W96758   5.823  15.679  13.609
23691W        W96759  11.841  32.479   0.490
23692W        W96760  43.219  12.221   2.093
23693W        W96761  36.254  26.122  13.414
23694W        W96762  33.256  26.621  12.554
23695W        W96763   2.555  27.185   0.304
23696W        W96764  29.410  40.997   2.786
23697W        W96765   7.814  41.797  12.084
23698W        W96766  42.447  29.512   2.164
23699W        W96767  43.020   0.754  14.485
23700W        W96768   6.699  28.497  10.751
23701W        W96769  31.613  10.873  10.539
23702W        W96770  43.526   8.665   2.829
23703W        W96771  41.006  32.420  10.938
23704W        W96772  31.652   3.173   2.311
23705W        W96773  42.157  21.088   4.560
23706W        W96774  21.048   0.670  10.059
23707W        W96775   1.217   8.865  10.530
23708W        W96776  25.254  11.786   4.321
23709W        W96777  21.682  15.628   4.221
23710W        W96778  13.844  29.200   1.280
23711W        W96779  33.910  38.974  13.597
23712W        W96780  16.734  40.963  10.664
23713W        W96781  39.613  37.387   1.307
23714W        W96782  10.191  29.001   1.105
23715W        W96783  23.270  22.336  12.081
23716W        W96784   3.329  10.059   4.196
23717W        W96785   5.457  10.709   3.285
23718W        W96786  40.795  36.050  12.178
23719W        W96787  29.423   9.921   2.276
23720W        W96788  16.691  12.253  10.432
23721W        W96789  44.026  16.355   1.865
23722W        W96790  14.224  42.257  12.070
23723W        W96791  29.263  14.758  14.457
23724W        W96792  35.865  35.594   1.249
23725W        W96793   2.770  31.635  14.459
23726W        W96794   4.894   6.861  11.272
23727W        W96795  35.429  20.299   4.274
23728W        W96796  41.948  12.133  14.305
23729W        W96797  35.391  39.260   1.701
23730W        W96798   9.836  44.557  11.466
23731W        W96799   0.643  11.155  10.893
23732W        W96800   1.964  35.763  12.862
23733W        W96801  14.792  27.630  14.399
23734W        W96802   6.785  39.527   4.041
23735W        W96803  43.970  26.044   2.787
23736W        W96804  40.975  10.299   2.637
23737W        W96805  16.914  39.436   3.773
23738W        W96806  22.277  30.991   3.665
23739W        W96807   3.032  28.476  14.982
23740W        W96808  44.717  18.690   3.550
23741W        W96809  24.074   8.357   5.283
23742W        W96810  33.152  33.991  14.839
23743W        W96811  17.656  34.756   0.367
23744W        W96812  39.407   1.009   2.408
23745W        W96813  37.674   7.922   2.757
23746W        W96814  25.217  24.976   1.260
23747W        W96815   6.588  39.518  14.034
23748W        W96816  27.149  11.257   3.202
23749W        W96817  42.979  31.012   2.876
23750W        W96818  37.340  20.499  12.935
23751W        W96819  20.732   7.544   2.101
23752W        W96820  34.118  19.268  12.801
23753W        W96821  27.195  24.210  12.102
23754W        W96822  35.227  15.104  12.512
23755W        W96823  25.292  16.218   4.106
23756W        W96824  25.545  26.202  13.568
23757W        W96825  18.407  22.608  11.514
23758W        W96826  42.813  24.712  12.043
23759W        W96827  34.390   6.607  14.974
23760W        W96828  19.607  16.564  14.576
23761W        W96829  12.512  43.512  10.783
23762W        W96830  22.965  10.917  14.842
23763W        W96831  41.137  42.198  13.865
23764W        W96832  43.844  28.640   1.194
23765W        W96833  26.629  32.090  12.956
23766W        W96834  26.170  32.826   1.358
23767W        W96835  38.291  28.803  14.385
23768W        W96836  36.123   4.474  12.994
23769W        W96837  25.515  18.771  10.645
23770W        W96838  20.302  33.013   1.746
23771W        W96839   2.082  26.832  12.142
23772W        W96840  39.001   5.968  14.947
23773W        W96841  44.844  39.624   3.133
23774W        W96842  39.956  24.535  11.408
23775W        W96843  36.971   1.896  11.590
23776W        W96844  35.582  24.526   0.407
23777W        W96845  14.611   9.792  14.971
23778W        W96846   6.868  40.809  12.069
23779W        W96847  43.575  38.395   2.196
23780W        W96848  40.292  34.871   0.853
23781W        W96849   1.972  11.686  14.962
23782W        W96850  24.852  14.720   3.152
23783W        W96851  22.886  31.652  11.163
23784W        W96852   4.923  39.754  11.632
23785W        W96853  13.747  33.603   1.051
23786W        W96854  17.839   3.392   0.184
23787W        W96855  35.403  24.580  11.249
23788W        W96856   2.896   8.172  11.886
23789W        W96857  30.979  24.601   0.254
23790W        W96858   7.850  19.315  14.896
23791W        W96859   2.235   3.889   1.299
23792W        W96860  31.495   8.469   2.345
23793W        W96861  38.001  29.614  12.795
23794W        W96862  18.786  10.813   2.814
23795W        W96863  31.120  34.933   0.423
23796W        W96864  39.554  11.739  13.532
23797W        W96865  34.751  11.185  12.457
23798W        W96866  17.412  11.434   2.000
23799W        W96867  20.812   8.439   4.974
23800W        W96868  15.891   4.428  10.887
23801W        W96869  12.202  40.976   1.381
23802W        W96870  16.947  39.019   1.187
23803W        W96871  11.748   1.788  11.059
23804W        W96872   8.079  17.569  10.591
23805W        W96873  24.939  22.280   5.042
23806W        W96874  33.394   3.124   1.219
23807W        W96875   5.306  44.508   3.654
23808W        W96876  36.627   0.217   2.178
23809W        W96877   7.412  43.270   3.296
23810W        W96878  25.719  20.699   0.098
23811W        W96879   1.406  26.967  12.941
23812W        W96880  36.066  28.033  13.801
23813W        W96881   6.382   1.564   0.931
23814W        W96882   8.751  22.649   2.294
23815W        W96883  26.389  34.045   3.370
23816W        W96884  20.027  28.451  11.853
23817W        W96885  44.784  37.459  12.588
23818W        W96886  18.130  31.937  13.073
23819W        W96887  20.167  19.806   1.191
23820W        W96888  25.028  31.206  14.910
23821W        W96889  22.341   0.187   3.672
23822W        W96890  29.600  44.834  13.384
23823W        W96891  18.763  29.916  13.435
23824W        W96892  41.855  16.839  11.133
23825W        W96893   8.858  41.016  14.565
23826W        W96894  35.909  20.263  10.624
23827W        W96895   6.628  23.302  13.538
23828W        W96896   4.385  17.999  12.558
23829W        W96897  43.753   6.700  12.561
23830W        W96898  10.159  10.670   4.158
23831W        W96899  11.103  24.618  14.525
23832W        W96900  10.713  40.615  11.535
23833W        W96901  18.278  14.268  13.340
23834W        W96902  39.827  40.422   2.179
23835W        W96903  39.327   6.255   5.756
23836W        W96904   8.779   7.471  10.755
23837W        W96905  16.566   3.307  12.992
23838W        W96906  35.436  29.611  10.476
23839W        W96907  23.095  21.031  11.156
23840W        W96908  25.098  34.925  13.060
23841W        W96909   1.479  30.553  12.494
23842W        W96910  35.512  27.884   4.809
23843W        W96911  40.267  14.288   2.188
23844W        W96912  14.208  30.259   3.732
23845W        W96913  41.065  14.409  12.929
23846W        W96914  26.989  24.674  10.773
23847W        W96915   9.401  32.139   3.502
23848W        W96916  44.356  11.863  11.590
23849W        W96917   9.242   3.777  13.798
23850W        W96918  17.893  15.866  10.963
23851W        W96919  26.934  22.628  14.857
23852W        W96920  21.659  40.048  11.053
23853W        W96921  36.286  24.023  13.100
23854W        W96922  10.733   1.859  14.757
23855W        W96923  12.299  39.890  10.650
23856W        W96924  40.785  24.440   2.857
23857W        W96925  13.118  31.150  12.053
23858W        W96926  18.778  40.281   1.231
23859W        W96927  22.291  44.257   3.728
23860W        W96928  43.207  13.395  11.385
23861W        W96929  18.992  29.701  10.276
23862W        W96930   9.902   1.258   4.177
23863W        W96931  27.493  30.455   1.794
23864W        W96932   3.708  14.640  12.304
23865W        W96933  34.964  14.295   3.207
23866W        W96934   6.485  14.365   5.208
23867W        W96935  14.117  22.014  14.456
23868W        W96936  14.002  43.107   3.757
23869W        W96937  33.126  14.732  13.986
23870W        W96938  36.669   1.717   2.608
23871W        W96939  26.067  39.585  10.641
23872W        W96940  36.603  19.132   2.953
23873W        W96941  29.658  32.115   0.743
23874W        W96942  12.373  35.980   1.070
23875W        W96943   5.900  32.911   0.657
23876W        W96944  18.090  14.715  13.594
23877W        W96945   3.476  38.070   1.874
23878W        W96946  26.432  13.202  12.065
23879W        W96947  20.429   8.116   1.613
23880W        W96948   0.694  15.625   2.969
23881W        W96949  14.313  40.315  12.979
23882W        W96950  27.422  34.096  11.912
23883W        W96951  11.207  44.699   2.190
23884W        W96952  30.606  13.957  14.807
23885W        W96953  20.570  14.263   2.381
23886W        W96954  32.289  28.347  12.103
23887W        W96955   7.715   8.006  10.824
23888W        W96956  36.043  18.366   4.129
23889W        W96957   1.501  13.318   3.629
23890W        W96958  37.522   9.674  10.457
23891W        W96959  12.845  33.946   0.747
23892W        W96960  12.957  15.206  11.597
23893W        W96961  20.194  24.703   2.846
23894W        W96962  41.926   0.724  14.023
23895W        W96963  32.038  30.477   3.665
23896W        W96964   4.186  34.373   1.707
23897W        W96965  15.760  13.617   2.416
23898W        W96966  36.881  41.957   4.410
23899W        W96967  17.060  44.287  13.385
23900W        W96968  10.421  19.140   0.065
23901W        W96969  11.155  38.220  13.107
23902W        W96970  25.225  42.926   4.943
23903W        W96971  43.251  29.027   3.317
23904W        W96972  44.792  42.263  12.155
23905W        W96973  33.107  11.783   1.352
23906W        W96974   7.775  16.294  11.089
23907W        W96975   7.353  22.333  14.817
23908W        W96976  34.274   7.360  11.132
23909W        W96977  31.203  31.022  11.251
23910W        W96978  35.810   2.441  12.929
23911W        W96979   0.308  30.871   2.788
23912W        W96980  14.855  23.519  13.525
23913W        W96981  31.057  29.088   0.223
23914W        W96982  38.891   1.777   5.132
23915W        W96983   3.236  32.487   1.649
23916W        W96984  25.757  35.143  11.102
23917W        W96985   5.774  13.171  14.854
23918W        W96986  40.621  22.523   5.023
23919W        W96987  15.817  27.077   2.169
23920W        W96988  13.557  31.113   0.347
23921W        W96989  21.140   5.670   1.666
23922W        W96990  24.259  10.271  13.622
23923W        W96991  24.673   6.911  14.777
23924W        W96992  42.939  34.465  13.880
23925W        W96993  27.014  35.977   0.354
23926W        W96994  38.871  15.096  12.908
23927W        W96995  23.634  14.009  14.291
23928W        W96996  28.276   4.117   4.485
23929W        W96997   7.793  42.002   3.546
23930W        W96998  22.592  19.497  12.606
23931W        W96999  40.352  24.293  13.528
23932W        W97000  33.825   8.793  12.388
23933W        W97001  21.233  35.767   2.294
23934W        W97002  21.252  42.302   0.177
23935W        W97003  22.345  44.165   0.232
23936W        W97004  39.899  31.035  13.285
23937W        W97005  15.494  15.934  14.291
23938W        W97006  36.993   0.026  13.674
23939W        W97007   2.335  33.106  13.608
23940W        W97008  41.992  10.228   3.108
23941W        W97009  14.214  27.128   0.010
23942W        W97010  38.198  17.795   4.205
23943W        W97011  17.112  33.815   1.709
23944W        W97012  24.789  33.555   4.683
23945W        W97013   1.389  36.370  11.739
23946W        W97014   2.340  25.501   4.074
23947W        W97015   4.213  23.476   3.775
23948W        W97016  18.140   6.838  14.112
23949W        W97017  34.536   6.250   0.428
23950W        W97018  20.149  25.403  12.491
23951W        W97019  23.563  11.629  14.729
23952W        W97020  22.570   8.747  10.757
23953W        W97021  27.659  29.105  14.798
23954W        W97022  42.321   3.700   1.290
23955W        W97023  43.109  36.969   2.392
23956W        W97024  44.191  37.519   0.814
23957W        W97025  27.727  31.344  10.995
23958W        W97026   9.821  33.051   2.706
23959W        W97027  44.881   1.759  10.730
23960W        W97028  33.603  30.446  13.422
23961W        W97029  31.464  24.277   4.181
23962W        W97030   4.736  30.048  11.479
23963W        W97031  10.712   1.455  13.834
23964W        W97032   5.913  21.277   0.180
23965W        W97033   5.493  21.471   2.410
23966W        W97034  22.512  32.951  11.999
23967W        W97035  17.054   0.025  12.516
23968W        W97036  40.604  24.557  13.886
23969W        W97037   1.776  22.727   2.017
23970W        W97038  21.918  18.201  14.785
23971W        W97039  37.339  26.150  12.259
23972W        W97040   4.952  33.092  10.602
23973W        W97041  44.213   7.833   2.927
23974W        W97042  33.930  31.548   0.282
23975W        W97043  14.595  18.634  12.098
23976W        W97044  30.766  42.991  14.362
23977W        W97045  15.626  14.635   2.356
23978W        W97046  13.348   7.933  11.779
23979W        W97047  15.534  24.055   0.274
23980W        W97048  20.166  33.967  11.591
23981W        W97049  36.539  13.533   2.812
23982W        W97050  43.506  17.729   1.654
23983W        W97051  43.866  27.751   2.439
23984W        W97052  11.672   7.143  13.734
23985W        W97053  24.595  26.044  13.552
23986W        W97054  12.194  17.026   5.445
23987W        W97055   5.951   7.687  11.107
23988W        W97056  15.618  39.549   1.301
23989W        W97057  29.530  38.898  14.535
23990W        W97058  43.753  21.503   1.740
23991W        W97059  17.131  31.401  14.907
23992W        W97060  33.896  16.199  13.893
23993W        W97061   4.976  26.596  12.942
23994W        W97062  11.360  42.023  12.549
23995W        W97063   8.361  35.264   4.234
23996W        W97064  21.254   0.625  13.306
23997W        W97065  16.574  29.853   3.679
23998W        W97066  22.967  19.592   1.909
23999W        W97067  38.328  35.953   2.758
24000W        W97068  31.428  14.306   1.190
24001W        W97069  27.544  13.308  13.007
24002W        W97070  42.005   9.749  13.087
24003W        W97071  22.219   0.150   4.179
24004W        W97072  33.611  27.676   2.315
24005W        W97073   0.365  36.616  13.272
24006W        W97074  11.821  36.961   1.947
24007W        W97075  12.351  10.603  14.310
24008W        W97076  36.429  22.315  12.492
24009W        W97077  28.590  33.071  11.516
24010W        W97078  39.037  17.820  10.129
24011W        W97079  13.814  18.208  10.999
24012W        W97080  29.647   5.982   4.652
24013W        W97081  22.667  19.485  14.070
24014W        W97082  41.049  22.239   0.428
24015W        W97083  27.550  22.857  11.533
24016W        W97084  35.109  28.971   4.713
24017W        W97085  17.015  17.140  12.010
24018W        W97086  18.789  21.681  12.609
24019W        W97087  10.603  31.566  11.530
24020W        W97088  38.958  24.000  10.331
24021W        W97089   0.988   2.892  12.899
24022W        W97090  22.632   3.382   0.315
24023W        W97091  41.201  13.904   0.938
24024W        W97092  21.858  35.522   0.004
24025W        W97093   5.917  21.064   4.616
24026W        W97094  42.875  13.769  11.136
24027W        W97095  10.202  17.718   5.095
24028W        W97096  17.556  10.355   0.463
24029W        W97097  43.950  32.993  14.042
24030W        W97098  20.780  36.925   2.114
24031W        W97099  31.815  26.872   0.549
24032W        W97100  19.528  30.598   3.392
24033W        W97101  23.978  43.254  10.737
24034W        W97102   9.332  30.925   2.743
24035W        W97103  28.852   2.797  11.143
24036W        W97104  38.369  36.583   3.590
24037W        W97105  24.646  13.132   0.367
24038W        W97106  22.706  10.334  10.712
24039W        W97107   9.885   2.208  14.797
24040W        W97108  27.313  42.571  10.766
24041W        W97109  17.524   2.553  11.274
24042W        W97110  28.578  30.067   3.186
24043W        W97111  21.046  38.806   2.246
24044W        W97112   1.244  20.018   2.291
24045W        W97113   2.304   5.257  12.702
24046W        W97114  41.820  25.382   9.894
24047W        W97115  29.123   4.052  14.293
24048W        W97116  39.402  24.744  12.505
24049W        W97117  15.115  43.915  11.567
24050W        W97118  36.546  35.651  11.187
24051W        W97119  26.088  37.939  14.060
24052W        W97120   2.040   3.547  12.802
24053W        W97121  14.782  31.057   3.780
24054W        W97122  41.560  33.415  11.146
24055W        W97123  24.997  17.268   2.219
24056W        W97124   4.285  14.091  12.397
24057W        W97125  21.862  12.621   4.275
24058W        W97126  33.486  24.168  14.780
24059W        W97127  19.285   1.360  13.225
24060W        W97128  41.512  26.707  13.294
24061W        W97129  16.264  40.925  10.907
24062W        W97130  29.927  20.990  11.008
24063W        W97131   6.091   0.248   0.292
24064W        W97132  38.106  28.121   0.292
24065W        W97133   8.086  10.712   3.983
24066W        W97134  42.729  43.340  12.227
24067W        W97135  22.010  19.253   9.709
24068W        W97136  29.537  22.597  11.042
24069W        W97137   8.392  22.236  11.652
24070W        W97138  15.259  26.809  13.082
24071W        W97139   2.987  37.057  12.098
24072W        W97140   7.075  31.985   2.715
24073W        W97141   4.512   7.796   0.865
24074W        W97142   2.306  19.195   2.941
24075W        W97143  20.019  39.339   0.467
24076W        W97144   9.143  32.357  14.008
24077W        W97145  35.407  18.293   1.300
24078W        W97146  21.287   1.118  13.388
24079W        W97147  11.202  39.482  13.085
24080W        W97148  40.964  28.973  10.938
24081W        W97149  18.512  40.424   1.674
24082W        W97150  24.434  18.231   1.470
24083W        W97151  42.130   3.900   4.705
24084W        W97152   0.189  10.800  13.398
24085W        W97153  14.158  14.859   3.876
24086W        W97154  19.116  15.262  13.406
24087W        W97155  25.250   0.072   3.774
24088W        W97156  30.775  26.797  11.122
24089W        W97157  23.250  12.731   0.728
24090W        W97158  36.735   2.621   1.416
24091W        W97159  33.898   4.300  14.750
24092W        W97160  34.460  25.549   0.760
24093W        W97161  36.894  10.941   0.548
24094W        W97162  44.703  22.640   1.480
24095W        W97163  31.969   0.105   0.434
24096W        W97164  10.291  15.161  12.121
24097W        W97165  32.531  42.791  11.173
24098W        W97166  18.036  11.890  11.872
24099W        W97167  19.670  20.609  14.322
24100W        W97168  32.177  27.496  12.518
24101W        W97169  34.058  29.486   0.997
24102W        W97170  32.003  24.222   4.455
24103W        W97171   0.751   5.184  12.427
24104W        W97172  24.478  29.624  14.270
24105W        W97173   1.908  36.005  10.587
24106W        W97174  33.874  28.520  11.136
24107W        W97175  17.226   7.889  13.853
24108W        W97176  22.895  27.889  13.588
24109W        W97177  44.533  16.838   3.272
24110W        W97178  32.913  25.076   2.147
24111W        W97179  17.021  37.016   0.429
24112W        W97180  15.350  27.913   0.594
24113W        W97181  41.337  25.895   1.294
24114W        W97182  29.711  16.745   2.713
24115W        W97183  44.900  43.234  13.985
24116W        W97184  41.849  12.074   3.136
24117W        W97185  18.275  19.592  14.840
24118W        W97186   0.015  19.025   4.302
24119W        W97187  31.185  37.386  13.296
24120W        W97188  42.705   0.826   2.275
24121W        W97189   1.270   8.794   4.196
24122W        W97190  30.685  13.212   4.568
24123W        W97191  32.364  23.496   4.615
24124W        W97192  16.953  31.701   0.287
24125W        W97193  28.992  43.957  12.182
24126W        W97194  23.694  39.564   0.959
24127W        W97195  41.122  12.719  11.180
24128W        W97196  10.135  42.630   4.253
24129W        W97197  10.211  23.662   0.441
24130W        W97198  38.823  40.334   5.083
24131W        W97199  16.180  28.010  13.607
24132W        W97200  39.927  28.283   4.794
24133W        W97201  43.014  30.438  12.937
24134W        W97202  27.594  24.398  12.485
24135W        W97203  44.883  39.280  14.472
24136W        W97204   9.676  27.730  14.831
24137W        W97205  10.225  29.443   1.368
24138W        W97206  18.273  23.036   2.877
24139W        W97207  16.113   1.165  11.124
24140W        W97208  10.163   4.974   1.677
24141W        W97209  26.585  42.315  14.568
24142W        W97210  28.818  18.965   1.571
24143W        W97211  41.274  18.663  13.568
24144W        W97212  29.948  21.836  11.937
24145W        W97213  25.977  36.030   3.190
24146W        W97214  44.358   0.312  10.630
24147W        W97215  38.344  19.583  14.041
24148W        W97216   5.786   8.760   3.374
24149W        W97217  35.366  13.281   2.878
24150W        W97218  27.115  33.183   3.159
24151W        W97219  34.885  12.942   4.106
24152W        W97220  31.634   2.519   2.871
24153W        W97221   8.517  12.257   2.251
24154W        W97222   6.079  31.059   1.373
24155W        W97223   7.133  31.531   1.832
24156W        W97224   8.278  27.733   1.888
24157W        W97225  15.788  36.331   0.856
24158W        W97226  10.536  42.294   4.157
24159W        W97227  43.810  22.933   0.403
24160W        W97228  26.942  29.937   3.898
24161W        W97229   5.232  41.667  14.552
24162W        W97230  34.602  28.222  14.765
24163W        W97231  42.619   2.564   2.631
24164W        W97232  15.672  12.188  10.551
24165W        W97233  22.058  25.818  13.275
24166W        W97234  37.914  14.064  13.346
24167W        W97235  16.354  44.432   1.225
24168W        W97236  39.296  39.781  13.501
24169W        W97237  25.774  43.859   2.694
24170W        W97238  36.394  23.126  14.070
24171W        W97239  37.118   0.356  14.492
24172W        W97240  36.076   9.869   1.888
24173W        W97241   2.448  24.776   1.407
24174W        W97242  37.008  18.755  12.470
24175W        W97243   3.486  42.031  13.515
24176W        W97244  42.414  35.623  11.155
24177W        W97245  32.180   3.761  11.739
24178W        W97246   3.593  25.995   0.406
24179W        W97247  18.069  28.356  14.784
24180W        W97248  37.099  27.476   1.297
24181W        W97249  40.981  13.275   1.745
24182W        W97250   0.202  24.020   1.910
24183W        W97251  22.900   1.071   3.805
24184W        W97252   2.242  32.650  13.258
24185W        W97253  12.649  38.566   4.662
24186W        W97254  31.521  29.074   0.474
24187W        W97255  19.568  41.331   1.193
24188W        W97256  37.955  15.354   2.613
24189W        W97257  18.631  30.871  12.617
24190W        W97258  20.265  22.777  10.428
24191W        W97259  35.370   4.866   2.302
24192W        W97260  17.556  42.063  13.009
24193W        W97261   7.641   0.404  13.879
24194W        W97262   8.680  41.889  13.958
24195W        W97263   2.868  15.182   2.974
24196W        W97264  44.279  18.082  13.048
24197W        W97265  18.223  17.806  14.358
24198W        W97266  33.978   5.444  14.290
24199W        W97267  19.149  16.542  12.110
24200W        W97268  25.499   4.952   3.222
24201W        W97269  39.490  13.122   1.687
24202W        W97270  32.602  30.990  12.896
24203W        W97271   8.826  12.624  11.525
24204W        W97272   8.277  24.513   3.402
24205W        W97273  12.597  41.215   1.169
24206W        W97274  23.731  44.260   2.874
24207W        W97275  25.842   2.527  11.628
24208W        W97276  36.585  29.083   2.847
24209W        W97277  36.510  32.090  11.126
24210W        W97278  40.008  40.042   3.350
24211W        W97279  31.650   3.924   1.312
24212W        W97280  41.905   3.476   0.034
24213W        W97281   7.449   3.299   2.882
24214W        W97282  16.759   7.478   1.062
24215W        W97283  28.109  31.848  12.113
24216W        W97284  44.528   9.276   2.784
24217W        W97285   9.622  21.659  11.587
24218W        W97286   6.181  42.405   4.475
24219W        W97287  33.013  20.317  14.379
24220W        W97288   7.822  41.987   4.535
24221W        W97289  19.107  29.667   1.515
24222W        W97290   7.934  39.330  10.272
24223W        W97291   4.609  42.315   0.927
24224W        W97292  34.157  10.889  13.887
24225W        W97293  35.615   8.455   4.579
24226W        W97294  38.217  13.117   1.630
24227W        W97295  35.912  30.106  12.509
24228W        W97296  21.983  29.175   0.196
24229W        W97297  27.236  30.432  13.927
24230W        W97298  34.587  37.944   1.340
24231W        W97299  43.487  14.627   0.686
24232W        W97300  17.361  19.675  14.762
24233W        W97301  11.253  30.133  12.805
24234W        W97302   4.314  44.923   2.852
24235W        W97303   3.352   2.756  11.467
24236W        W97304  16.048  20.734  12.942
24237W        W97305  25.412  16.021   0.484
24238W        W97306  28.582   8.216  13.336
24239W        W97307  12.332  11.796   4.301
24240W        W97308   9.072  21.993  12.586
24241W        W97309  27.609   9.617   4.551
24242W        W97310  21.028   7.695   2.829
24243W        W97311  11.587   2.273   1.764
24244W        W97312  22.133  44.338   0.657
24245W        W97313  43.019  26.028   4.073
24246W        W97314   3.703  44.863  12.478
24247W        W97315   6.742   0.363  12.072
24248W        W97316  12.678   3.944  11.410
24249W        W97317  21.028  39.089   1.811
24250W        W97318  28.663  35.523  12.128
24251W        W97319  37.838   5.803  12.683
24252W        W97320  21.515  29.433  12.084
24253W        W97321  39.012  11.070  13.609
24254W        W97322  12.887  44.995   4.622
24255W        W97323  32.621  11.596   1.290
24256W        W97324  18.776  26.883   1.849
24257W        W97325  36.472  20.389  12.151
24258W        W97326   3.005  27.994  11.055
24259W        W97327  44.595   2.873  12.060
24260W        W97328  29.692  21.993  14.837
24261W        W97329  23.548  36.375  14.875
24262W        W97330  42.420  28.949   2.154
24263W        W97331  35.689  44.386  12.884
24264W        W97332  37.913   5.408  13.887
24265W        W97333   5.275  27.643   4.054
24266W        W97334   5.513  30.467   3.264
24267W        W97335   4.278  13.812   2.814
24268W        W97336  37.094   5.709   1.594
24269W        W97337  23.242   1.989  12.469
24270W        W97338  36.385  17.045  11.244
24271W        W97339  42.289  13.527  12.382
24272W        W97340  39.346  36.904   1.324
24273W        W97341  33.989  17.654  11.562
24274W        W97342  22.695  23.283   2.763
24275W        W97343  11.792   6.218   1.137
24276W        W97344  10.190   7.722   2.220
24277W        W97345  12.377  26.682  11.516
24278W        W97346  32.503  27.172   1.952
24279W        W97347  23.963  12.837   3.633
24280W        W97348  29.003  19.286  14.989
24281W        W97349  37.623  39.472  11.884
24282W        W97350  20.035  20.688  10.710
24283W        W97351  39.980  43.493  10.981
24284W        W97352   1.862  44.249   4.650
24285W        W97353  12.341   4.164  14.301
24286W        W97354  39.417   9.281   3.049
24287W        W97355  14.862  44.241   1.335
24288W        W97356   5.930  35.969  11.420
24289W        W97357   5.544  37.094  12.881
24290W        W97358  32.957  31.219  13.600
24291W        W97359   9.782   9.473  13.753
24292W        W97360  14.836   0.341  10.684
24293W        W97361  26.068   4.492   1.142
24294W        W97362  12.845   9.082  12.561
24295W        W97363  11.163  24.164   1.735
24296W        W97364  22.070   5.390   3.638
24297W        W97365  28.417  34.537   3.645
24298W        W97366  27.182  29.452   2.303
24299W        W97367   0.799   8.727  13.815
24300W        W97368  27.968  29.567   3.661
24301W        W97369  16.325  13.676  11.616
24302W        W97370  28.739   0.267   3.829
24303W        W97371  20.075  25.379   1.220
24304W        W97372  24.686  13.325  13.458
24305W        W97373   8.666  11.722   0.989
24306W        W97374  20.727  31.886  11.646
24307W        W97375  20.133   3.201   0.257
24308W        W97376  10.269  27.533   1.272
24309W        W97377  21.938  12.654  14.257
24310W        W97378  33.659  18.691  13.863
24311W        W97379   2.013  44.535  12.001
24312W        W97380  40.965  19.180   2.683
24313W        W97381  32.367  44.522   3.301
24314W        W97382   6.817  30.397  10.748
24315W        W97383   1.991  26.584   3.124
24316W        W97384  26.090  17.964  11.285
24317W        W97385  36.534  39.550   0.681
24318W        W97386  35.443  13.672   3.738
24319W        W97387  32.150  12.221  13.469
24320W        W97388  13.187  37.861  11.262
24321W        W97389   8.430   8.130  13.873
24322W        W97390  33.423  41.237  13.440
24323W        W97391  40.228  18.674  13.071
24324W        W97392  34.918  39.647   2.206
24325W        W97393  18.122  13.712   3.244
24326W        W97394  40.828  23.121   3.812
24327W        W97395  40.613  42.909  12.067
24328W        W97396  30.579  21.111   1.024
24329W        W97397  44.677   5.055   0.292
24330W        W97398  39.549   1.409  10.224
24331W        W97399   9.429  33.884  11.166
24332W        W97400  19.617  16.613   2.298
24333W        W97401   2.814  25.318  13.338
24334W        W97402  30.378   8.765  13.170
24335W        W97403  31.663  23.808   0.842
24336W        W97404   5.783  22.713  13.367
24337W        W97405  10.712  12.232   1.921
24338W        W97406  16.344   3.810  10.523
24339W        W97407  38.616  21.167   3.126
24340W        W97408  34.320  17.720   2.144
24341W        W97409  35.268   4.823  13.060
24342W        W97410  24.200  27.945  11.928
24343W        W97411   2.992  34.595   4.169
24344W        W97412  44.820  14.332  14.010
24345W        W97413  40.307  13.684   0.866
24346W        W97414  20.165  18.551  13.112
24347W        W97415   0.068  27.073   4.148
24348W        W97416   4.206   2.407   2.012
24349W        W97417  25.506  29.921   0.225
24350W        W97418  40.376  38.425  12.049
24351W        W97419  14.724   7.232   0.978
24352W        W97420   3.018  18.676  11.715
24353W        W97421  22.591   7.202  14.838
24354W        W97422  26.222  36.967   4.116
24355W        W97423  39.598  17.257   3.265
24356W        W97424  10.826  13.654   3.272
24357W        W97425  42.770  12.123   3.110
24358W        W97426  16.831  33.818  13.463
24359W        W97427  33.491  25.894   0.834
24360W        W97428  31.577  21.835  11.562
24361W        W97429   6.333   5.938  13.972
24362W        W97430  27.484  24.033  10.542
24363W        W97431  21.500   8.865  12.000
24364W        W97432  18.571  23.849  13.427
24365W        W97433  17.171  14.894  14.791
24366W        W97434  10.249  37.416   0.736
24367W        W97435  32.709  19.175  13.974
24368W        W97436  44.496  24.232  12.477
24369W        W97437  31.210  26.865   4.249
24370W        W97438  34.557  25.684   4.570
24371W        W97439   5.397  28.013  14.827
24372W        W97440  14.802  20.390   0.495
24373W        W97441   1.305   7.562   3.369
24374W        W97442  20.551  10.230   0.270
24375W        W97443  39.849   3.251   1.915
24376W        W97444  37.408   0.830   3.767
24377W        W97445  37.452  33.086  10.948
24378W        W97446  31.122  26.459  11.839
24379W        W97447  15.547  41.809  13.433
24380W        W97448  39.922   6.163   0.855
24381W        W97449   5.592  17.269   4.904
24382W        W97450  24.628   3.702   2.242
24383W        W97451  18.568  23.204  12.170
24384W        W97452  38.439   1.272   2.647
24385W        W97453  38.543  23.560  11.543
24386W        W97454  16.415  10.758   0.025
24387W        W97455  32.136   2.009   2.453
24388W        W97456  38.505   0.458   3.297
24389W        W97457  30.070  43.590   1.927
24390W        W97458   8.159  19.668   3.087
24391W        W97459  36.467   0.497   3.635
24392W        W97460   7.856  12.300  10.704
24393W        W97461   1.484   2.725   0.748
24394W        W97462  22.095   9.156  13.943
24395W        W97463  17.596  38.073  12.713
24396W        W97464  20.709  25.157  11.148
24397W        W97465  35.264  29.583  14.992
24398W        W97466  30.803  19.207   1.937
24399W        W97467  17.747   5.768   0.830
24400W        W97468   2.546  29.187   1.149
24401W        W97469  25.661  27.669  12.532
24402W        W97470   4.936  23.921  12.062
24403W        W97471  18.344  17.109  12.403
24404W        W97472  16.238  21.533   0.787
24405W        W97473   0.353  33.709   4.052
24406W        W97474  38.304   4.438   1.613
24407W        W97475  31.714  40.727   1.108
24408W        W97476  42.021  14.401  11.479
24409W        W97477   0.860  16.703  11.020
24410W        W97478  37.844  28.380  11.984
24411W        W97479  25.984  16.730   1.254
24412W        W97480   0.724  15.801  12.595
24413W        W97481   2.940  37.089   4.836
24414W        W97482  19.794  10.175  14.788
24415W        W97483  26.925  26.647  14.368
24416W        W97484  39.992  15.789  12.424
24417W        W97485  10.321  31.205   0.430
24418W        W97486  19.764  20.239   4.382
24419W        W97487  18.706   7.720  11.095
24420W        W97488  12.611  21.199   3.745
24421W        W97489  26.471  17.463   4.008
24422W        W97490   1.959   0.301  14.014
24423W        W97491  42.879  21.658   4.098
24424W        W97492   9.383  15.315  13.309
24425W        W97493   4.027  32.122  12.093
24426W        W97494  37.479  19.289   4.113
24427W        W97495   6.232  32.453   4.439
24428W        W97496  41.582  35.523  14.855
24429W        W97497   7.316  35.476   1.897
24430W        W97498  17.037  34.826   0.776
24431W        W97499   9.761   1.140   1.820
24432W        W97500  38.796   2.277  11.965
24433W        W97501  20.710  26.671  12.914
24434W        W97502   4.270  12.676   2.380
24435W        W97503   3.167   4.857  12.792
24436W        W97504  18.231  12.826  13.776
24437W        W97505  23.432  41.769  10.653
24438W        W97506  44.887   3.692   3.407
24439W        W97507  26.029  33.433   3.622
24440W        W97508  37.816  20.047   0.075
24441W        W97509  12.507  11.740   3.205
24442W        W97510  20.618   4.558   2.807
24443W        W97511  34.490   9.339   1.341
24444W        W97512  42.329  18.561   4.641
24445W        W97513  35.837  41.853  12.482
24446W        W97514  28.107  29.666  13.444
24447W        W97515  28.049   0.526   0.868
24448W        W97516  41.352  42.638  14.099
24449W        W97517  44.239   5.156  14.001
24450W        W97518   5.786  36.716   3.549
24451W        W97519  43.160   2.086  13.790
24452W        W97520  10.259  37.986  12.525
24453W        W97521  15.850  22.482  13.487
24454W        W97522  26.632   6.118  10.307
24455W        W97523  44.530  22.131   2.651
24456W        W97524   6.349   8.938   3.147
24457W        W97525  30.780  10.593   0.478
24458W        W97526  38.837  37.591   0.888
24459W        W97527  37.948  28.625   1.021
24460W        W97528  14.134  22.080   0.345
24461W        W97529  36.287  12.212  14.487
24462W        W97530  20.728  21.740  14.937
24463W        W97531  15.242   0.830  11.417
24464W        W97532   2.467  11.690   4.087
24465W        W97533  19.968  23.178  10.633
24466W        W97534  34.544  27.394   0.224
24467W        W97535  11.899  35.646  13.911
24468W        W97536  21.444  40.965  11.087
24469W        W97537   1.982   7.218   1.441
24470W        W97538  43.018  12.581   4.234
24471W        W97539   3.752   1.853  10.548
24472W        W97540  23.994  36.634   5.263
24473W        W97541  16.668  33.120   1.013
24474W        W97542   4.438  26.644  13.911
24475W        W97543  36.130  31.169  12.957
24476W        W97544  31.704  25.148  14.927
24477W        W97545  40.486  19.248   2.868
24478W        W97546   6.327  10.692  10.580
24479W        W97547   3.225  16.267   1.728
24480W        W97548  21.541   2.708   2.375
24481W        W97549  43.479  40.832   1.521
24482W        W97550  17.658   6.043   0.394
24483W        W97551  31.043   4.173   1.746
24484W        W97552  28.971  17.502  12.105
24485W        W97553   9.332  18.095   1.928
24486W        W97554  13.852  25.383   0.737
24487W        W97555  32.376  31.145   2.213
24488W        W97556   4.724  24.029   2.937
24489W        W97557  39.872  12.860  14.830
24490W        W97558  18.084  30.169   4.071
24491W        W97559  36.857  16.201   1.319
24492W        W97560  15.784  31.058   0.904
24493W        W97561   2.435   8.765   4.969
24494W        W97562  19.191  44.902  12.330
24495W        W97563   7.551   2.465  12.007
24496W        W97564  33.632  28.294   1.742
24497W        W97565   4.942  34.876  14.945
24498W        W97566  31.194  24.284  14.755
24499W        W97567   8.178  10.078   2.806
24500W        W97568  43.767  15.756   4.544
24501W        W97569   7.851  19.960   2.752
24502W        W97570  13.341  32.928  12.309
24503W        W97571  10.614  29.830   2.234
24504W        W97572   8.764   9.508   0.393
24505W        W97573  40.487  11.166   3.239
24506W        W97574  40.216  30.902  12.859
24507W        W97575  16.287  15.180  10.793
24508W        W97576  33.790  22.633  12.662
24509W        W97577  35.515   0.483  13.529
24510W        W97578  16.350   9.955  13.559
24511W        W97579  18.959  12.779  12.143
24512W        W97580  33.334   4.393   1.866
24513W        W97581   7.368  32.921   3.435
24514W        W97582   0.663   6.701  11.630
24515W        W97583  34.955  43.516   3.115
24516W        W97584   0.727   0.366   1.380
24517W        W97585  15.908   0.318   4.192
24518W        W97586   4.221  18.312  11.259
24519W        W97587  37.295   9.843   4.544
24520W        W97588  42.126  18.597   4.138
24521W        W97589  35.992  36.952  13.435
24522W        W97590  37.221   0.523  10.076
24523W        W97591  36.464  37.180  13.361
24524W        W97592   4.824  10.759   3.698
24525W        W97593  37.394   2.705  11.402
24526W        W97594  21.563  27.543   4.881
24527W        W97595  33.455  27.810   5.006
24528W        W97596  22.731   3.701  14.898
24529W        W97597  31.336  20.622   0.922
24530W        W97598  14.771  33.963   2.786
24531W        W97599   2.458  18.649   0.847
24532W        W97600   1.877  40.990   1.210
24533W        W97601  19.042  39.026  13.401
24534W        W97602  41.016  15.617  12.629
24535W        W97603  29.584  20.070  10.506
24536W        W97604  43.967   9.144  11.262
24537W        W97605   1.324  11.565  11.559
24538W        W97606  32.424   8.075  14.735
24539W        W97607  20.133  11.674   4.560
24540W        W97608  21.514  13.565   4.381
24541W        W97609   5.904  32.100  14.850
24542W        W97610  39.883  25.946  10.741
24543W        W97611  42.296  36.831  11.514
24544W        W97612   6.357  37.883  10.637
24545W        W97613  16.227  25.462  13.464
24546W        W97614  18.604  22.686  14.041
24547W        W97615  38.242  42.746   1.849
24548W        W97616  24.486  37.917  14.858
24549W        W97617  11.524  17.806  10.691
24550W        W97618  15.856   6.834   3.353
24551W        W97619  30.453   7.867  10.608
24552W        W97620  25.633  34.299   1.965
24553W        W97621  30.890  22.078   0.441
24554W        W97622  35.332  32.105   0.807
24555W        W97623  20.521  20.118  12.902
24556W        W97624  32.213  44.844   2.277
24557W        W97625  42.363  22.899  11.891
24558W        W97626  16.202  13.367   2.675
24559W        W97627  24.628  25.289   2.892
24560W        W97628  18.247  32.104  11.118
24561W        W97629   0.097  19.335  13.969
24562W        W97630  33.569  28.098  11.134
24563W        W97631  32.407  32.114   2.351
24564W        W97632  29.452   1.730  12.467
24565W        W97633  16.123  23.128   3.764
24566W        W97634  32.027  27.365  13.550
24567W        W97635  34.451  32.581  10.663
24568W        W97636  42.219  21.618  14.008
24569W        W97637  15.772  25.020  14.965
24570W        W97638   6.338  41.753  12.453
24571W        W97639  43.563  30.973  12.411
24572W        W97640  21.580  37.315   0.861
24573W        W97641   0.264  20.772   2.616
24574W        W97642  13.338  19.308   0.384
24575W        W97643  38.290   3.761   3.255
24576W        W97644   2.003  42.883  11.872
24577W        W97645  19.717  26.026   0.487
24578W        W97646  42.465  40.599   1.751
24579W        W97647  15.717  35.521   4.191
24580W        W97648  40.541   1.010   1.180
24581W        W97649  16.186   3.929  12.040
24582W        W97650  20.734  31.153   2.321
24583W        W97651  33.118  32.164  11.160
24584W        W97652  11.535  42.560  10.670
24585W        W97653  42.786  39.121   1.313
24586W        W97654   6.204   2.842   4.517
24587W        W97655  35.712  32.481  14.918
24588W        W97656   8.268  32.003   4.439
24589W        W97657  26.176  37.227  13.592
24590W        W97658  43.794  25.191  10.814
24591W        W97659  28.123  36.368   2.844
24592W        W97660  31.083  24.764   2.167
24593W        W97661  12.314  27.474  11.079
24594W        W97662  28.341  31.879  11.121
24595W        W97663  42.666  41.165  13.804
24596W        W97664  12.673  43.873   0.550
24597W        W97665  20.057  39.598  14.557
24598W        W97666   1.897  38.345   4.275
24599W        W97667   4.852  43.502  14.610
24600W        W97668  15.118  11.690  12.134
24601W        W97669  10.181   7.323  10.679
24602W        W97670  11.769  40.981   3.765
24603W        W97671  21.838  27.004  14.127
24604W        W97672  11.151  40.578  13.551
24605W        W97673  34.338  34.378   0.335
24606W        W97674  13.110  19.044   0.810
24607W        W97675  33.009  25.263  13.491
24608W        W97676  22.275   5.460   1.765
24609W        W97677  29.535  40.021  12.482
24610W        W97678  24.683   1.827  14.509
24611W        W97679  13.285  44.855   3.313
24612W        W97680  39.463  27.810   4.511
24613W        W97681  32.748   6.925   4.227
24614W        W97682  10.180  14.341  10.733
24615W        W97683  15.691  29.888  14.377
24616W        W97684   7.423  11.112   2.865
24617W        W97685  21.059  13.135   3.338
24618W        W97686  26.956  13.011   1.654
24619W        W97687  17.733  28.653   0.774
24620W        W97688  15.606  16.717   4.011
24621W        W97689  40.273   3.703   0.408
24622W        W97690  32.464  43.479   2.637
24623W        W97691  26.919  38.984  14.720
24624W        W97692  37.758   6.287   4.475
24625W        W97693  32.576  19.238   1.735
24626W        W97694  10.419   3.405   4.659
24627W        W97695   4.777  20.163   3.174
24628W        W97696  18.065  44.501   4.497
24629W        W97697  26.939  44.854  12.972
24630W        W97698   3.775  24.204  12.872
24631W        W97699  43.711  38.555   0.947
24632W        W97700  35.620  18.698   1.569
24633W        W97701  44.765  28.131  12.117
24634W        W97702  44.005  29.932   2.858
24635W        W97703  18.554  29.731  13.897
24636W        W97704  20.755   1.423   2.802
24637W        W97705  43.476  19.580   0.774
24638W        W97706   4.191   7.407   0.712
24639W        W97707  19.677   9.331  13.969
24640W        W97708  44.844   0.278   0.341
24641W        W97709  20.087  32.642  13.540
24642W        W97710   3.189  20.198  14.351
24643W        W97711  37.814  19.294   0.260
24644W        W97712   1.219   5.230   1.830
24645W        W97713  22.101  21.069   3.758
24646W        W97714  18.593  43.017  13.411
24647W        W97715  29.782  32.004  12.039
24648W        W97716  36.627  10.829   4.169
24649W        W97717  12.342  13.907  13.177
24650W        W97718  23.305  27.980  10.768
24651W        W97719  17.110  37.018   1.786
24652W        W97720  31.957   0.425  12.986
24653W        W97721  11.334  18.093  11.867
24654W        W97722  26.079  26.503  11.952
24655W        W97723   4.806  24.352  10.756
24656W        W97724  11.408  44.252   2.319
24657W        W97725  41.871  40.673  13.275
24658W        W97726   7.304  17.348  13.836
24659W        W97727  19.445   9.797   3.263
24660W        W97728  20.475   5.195   4.328
24661W        W97729  29.806  38.071   2.132
24662W        W97730  44.174   9.362  12.391
24663W        W97731  16.924  14.618  13.491
24664W        W97732  36.549   1.780   4.149
24665W        W97733   8.860   1.715   0.266
24666W        W97734  43.268  26.817  13.416
24667W        W97735  30.265  27.013   2.375
24668W        W97736  33.596  25.209  14.691
24669W        W97737   1.935  26.628  14.824
24670W        W97738  26.841   3.390   5.110
24671W        W97739   9.265  10.630  13.117
24672W        W97740  40.188  26.980   1.758
24673W        W97741  16.393   7.604  12.095
24674W        W97742  16.875  39.918  11.565
24675W        W97743  19.765  32.763   4.081
24676W        W97744   1.165   8.053  11.154
24677W        W97745  18.198  32.265   4.170
24678W        W97746  34.407  34.391   2.436
24679W        W97747  29.576  22.760  14.422
24680W        W97748  44.901  27.556   4.157
24681W        W97749  34.406  31.446   0.049
24682W        W97750  28.212   1.783   4.713
24683W        W97751   2.453   4.563  11.779
24684W        W97752  37.671   0.002  10.903
24685W        W97753   2.798  23.647   2.737
24686W        W97754  44.701  13.266   1.663
24687W        W97755  44.388  35.513  14.708
24688W        W97756  37.183  19.608  11.118
24689W        W97757  20.183  39.324   1.190
24690W        W97758  18.198  40.802  13.971
24691W        W97759   6.940  23.498  11.983
24692W        W97760  28.391  19.722   0.271
24693W        W97761   6.612   8.702   1.322
24694W        W97762  19.682   5.205   0.925
24695W        W97763  43.229   4.435  11.802
24696W        W97764   6.962  28.561   4.538
24697W        W97765  16.272  13.833   2.419
24698W        W97766   2.188  11.243   4.198
24699W        W97767  16.815  33.242   0.417
24700W        W97768   8.834   8.804  12.737
24701W        W97769   6.389  30.985  11.581
24702W        W97770  13.354  33.650   1.954
24703W        W97771  39.024  20.630   3.055
24704W        W97772  27.594  34.048  12.398
24705W        W97773  17.547   1.931  12.520
24706W        W97774  38.058  10.766  11.970
24707W        W97775  22.723   6.357  10.276
24708W        W97776  37.878  41.847   2.208
24709W        W97777   3.329  28.422   3.773
24710W        W97778   3.909  28.060   0.817
24711W        W97779   9.780  33.564  10.904
24712W        W97780  37.116  26.645   4.143
24713W        W97781   0.557  12.513   5.127
24714W        W97782  37.852   3.518   3.366
24715W        W97783  41.067  23.889  14.556
24716W        W97784  25.761  26.923   3.853
24717W        W97785  44.630  17.594  10.679
24718W        W97786  13.729  30.274  11.257
24719W        W97787   7.408  24.206  10.703
24720W        W97788  35.068  44.881  12.952
24721W        W97789  13.692  24.517  14.709
24722W        W97790  23.522  39.722  12.017
24723W        W97791   4.823  42.486   0.493
24724W        W97792  26.123  26.226   0.921
24725W        W97793  24.193  12.704  11.640
24726W        W97794  33.453  35.514  11.626
24727W        W97795   5.187   6.895  14.846
24728W        W97796  40.935  38.261  11.641
24729W        W97797   2.820  31.041   0.322
24730W        W97798   3.018   2.320  10.877
24731W        W97799  15.753  31.894   3.677
24732W        W97800  42.743   4.937  13.304
24733W        W97801  12.769  19.498  14.090
24734W        W97802  29.178  23.135  13.887
24735W        W97803  42.745  11.694  11.540
24736W        W97804  39.754   6.854   3.677
24737W        W97805   8.705  41.317  11.063
24738W        W97806   6.884  28.385  12.248
24739W        W97807  35.054  10.379  11.564
24740W        W97808  38.181  32.405  11.237
24741W        W97809   5.517  14.872  11.019
24742W        W97810  32.681  34.170  14.826
24743W        W97811  39.969  27.644  12.215
24744W        W97812  39.086  37.406  11.649
24745W        W97813   2.377  44.948  13.042
24746W        W97814  25.080  33.345  13.127
24747W        W97815   6.195  38.125   0.451
24748W        W97816  11.049  19.322   4.163
24749W        W97817  29.695  25.937  11.795
24750W        W97818  42.910   9.421  12.959
24751W        W97819  32.358  11.443   0.281
24752W        W97820  34.158  40.334  13.125
24753W        W97821  31.717  26.558  14.742
24754W        W97822  16.289   5.287   4.829
24755W        W97823   9.011  12.671   5.083
24756W        W97824  15.091  30.269  12.598
24757W        W97825  27.963   8.005   0.876
24758W        W97826  25.591  14.992   3.373
24759W        W97827  32.619   2.520   2.774
24760W        W97828  30.690  14.179   4.470
24761W        W97829  30.666   5.033   4.820
24762W        W97830  34.163  10.259  10.962
24763W        W97831   7.792  43.876   4.817
24764W        W97832  42.258  15.221  10.239
24765W        W97833  11.015  20.051  13.021
24766W        W97834  38.382  10.360  11.929
24767W        W97835  27.819  10.643  10.550
24768W        W97836  20.715  26.535  13.421
24769W        W97837  43.166  37.549  14.318
24770W        W97838  33.638   4.651  12.997
24771W        W97839   3.748  15.572   2.813
24772W        W97840  12.219  21.116  13.773
24773W        W97841  30.402  29.139  11.196
24774W        W97842  23.966  24.192  13.628
24775W        W97843  25.094  31.599  14.542
24776W        W97844  24.262  39.597  14.105
24777W        W97845   3.544   6.300  12.367
24778W        W97846   0.920  36.542  11.076
24779W        W97847  29.427  41.092  10.693
24780W        W97848  39.902  24.672   4.687
24781W        W97849  29.642  28.051   2.400
24782W        W97850  33.546  42.048  14.862
24783W        W97851  13.466  23.425  12.917
24784W        W97852  19.192  17.080   4.555
24785W        W97853  44.202  21.056  10.759
24786W        W97854   7.348  13.311   3.162
24787W        W97855  13.219  25.101   1.336
24788W        W97856  12.301  43.016  10.687
24789W        W97857  34.895  16.107   2.684
24790W        W97858   6.147  37.538   4.090
24791W        W97859  11.927  30.506   2.723
24792W        W97860  22.746  16.508  13.497
24793W        W97861  33.623  21.254   2.338
24794W        W97862  18.013  18.258   2.364
24795W        W97863  41.704  13.428  11.597
24796W        W97864   7.761  34.420   3.250
24797W        W97865  27.692   7.778   1.803
24798W        W97866   3.731  17.755   0.641
24799W        W97867  34.812  15.312   1.262
24800W        W97868   1.871  26.408  11.499
24801W        W97869  12.252   6.089   0.767
24802W        W97870  27.142   6.724  12.962
24803W        W97871  25.539  31.441   3.626
24804W        W97872  31.168  19.294   1.174
24805W        W97873  10.715  25.493   4.230
24806W        W97874  42.590  11.112   0.412
24807W        W97875  37.417  10.726  14.421
24808W        W97876   0.522  25.199   4.021
24809W        W97877  34.218  23.152   2.316
24810W        W97878  44.826   2.752   1.561
24811W        W97879  23.933  29.973  13.684
24812W        W97880  20.648  28.644  13.928
24813W        W97881  20.521  15.660  11.964
24814W        W97882  39.530  31.680   2.902
24815W        W97883  25.682  34.049  12.598
24816W        W97884  36.318  30.311   5.021
24817W        W97885  11.229  10.699  13.734
24818W        W97886  10.790  34.347   1.186
24819W        W97887  44.746  14.605   2.627
24820W        W97888  35.566  35.852   3.469
24821W        W97889   0.866   6.160  13.488
24822W        W97890  30.534  24.282   3.315
24823W        W97891   8.199  33.636   3.212
24824W        W97892  32.502  23.195   1.631
24825W        W97893  37.577  38.500  10.486
24826W        W97894  34.502  18.510  13.585
24827W        W97895  33.851   3.839  14.303
24828W        W97896  10.890  15.672   2.202
24829W        W97897  23.179  26.741  10.755
24830W        W97898  11.649  29.584  10.675
24831W        W97899  15.776  19.215   0.270
24832W        W97900  21.635   0.538  14.495
24833W        W97901  43.883  20.582   4.551
24834W        W97902  11.216  19.064  10.290
24835W        W97903  40.878  18.609   2.932
24836W        W97904  22.634  40.060  12.551
24837W        W97905  34.707  16.405   4.121
24838W        W97906  42.033  42.152   1.399
24839W        W97907   6.093  20.031   0.756
24840W        W97908   8.467  22.021  11.103
24841W        W97909  33.451  10.833   4.581
24842W        W97910   1.269  43.445  13.407
24843W        W97911  33.891  33.825  13.155
24844W        W97912   7.689   0.772   0.742
24845W        W97913   0.142   6.862  14.410
24846W        W97914  31.445   0.281  13.039
24847W        W97915  15.809  10.789  13.481
24848W        W97916  36.522  21.190   4.269
24849W        W97917  32.640   8.429   1.800
24850W        W97918   4.056  16.405   4.221
24851W        W97919  18.796  38.431  12.882
24852W        W97920  41.858   8.136   1.785
24853W        W97921   2.849  33.537   4.769
24854W        W97922  39.362  36.042  13.081
24855W        W97923  17.389   1.875   3.672
24856W        W97924  42.917  32.299   2.355
24857W        W97925  43.561   6.890  11.740
24858W        W97926  42.994  10.146   0.209
24859W        W97927  18.245  23.134  12.998
24860W        W97928  23.051  10.900   2.633
24861W        W97929  28.285  40.441  14.301
24862W        W97930  33.177  12.486  11.944
24863W        W97931  21.745   5.683  13.481
24864W        W97932  11.596  18.107   4.200
24865W        W97933  33.307  36.337  14.331
24866W        W97934   3.894  19.853   0.373
24867W        W97935  33.126   9.192  10.761
24868W        W97936  18.747  33.531  11.515
24869W        W97937  44.716  17.471  14.989
24870W        W97938  26.646   4.907   2.312
24871W        W97939  16.360  38.021  11.414
24872W        W97940  24.754  34.051   0.255
24873W        W97941  24.503   3.153  14.877
24874W        W97942   3.675  41.945   1.896
24875W        W97943   7.632  38.586  14.003
24876W        W97944   6.338  13.663  14.373
24877W        W97945  43.423  40.792  10.473
24878W        W97946  42.481  44.981   1.341
24879W        W97947  21.060  10.971  11.685
24880W        W97948  34.557  26.152   1.833
24881W        W97949   3.375  35.930  13.968
24882W        W97950  12.875  23.581  10.437
24883W        W97951  22.979  33.992   4.196
24884W        W97952  11.584  27.967   0.744
24885W        W97953  23.903  30.847   1.286
24886W        W97954  40.970  38.403   2.251
24887W        W97955  29.654   0.440   9.825
24888W        W97956  43.285  18.965   4.358
24889W        W97957  32.867  10.846  13.428
24890W        W97958   9.090  19.098  14.349
24891W        W97959   7.867  14.059   2.899
24892W        W97960  10.371  17.762  14.948
24893W        W97961  27.382  39.282   4.614
24894W        W97962  14.883  29.885  12.342
24895W        W97963   6.964  35.366  11.961
24896W        W97964  21.283  25.695  11.583
24897W        W97965   9.909  29.820  13.330
24898W        W97966  11.090  10.258   2.822
24899W        W97967  16.819  43.291  11.114
24900W        W97968  38.128  36.684   0.207
24901W        W97969  33.119  16.312  14.591
24902W        W97970  19.239   7.088  12.020
24903W        W97971  22.754  15.802  12.373
24904W        W97972  30.244   6.866   1.265
24905W        W97973   9.725  21.962   0.252
24906W        W97974  17.345  23.680   0.201
24907W        W97975  35.098  37.632   2.144
24908W        W97976   4.458   6.790   2.852
24909W        W97977  24.717  19.722  10.645
24910W        W97978   8.162   0.683   0.224
24911W        W97979  22.239  43.083  13.422
24912W        W97980  17.761  42.495   0.288
24913W        W97981  32.624  30.539   1.667
24914W        W97982   3.667   9.858  10.981
24915W        W97983   4.404  25.212   4.184
24916W        W97984  21.584  22.687  11.607
24917W        W97985  26.073  32.429   3.346
24918W        W97986  28.627  10.615  13.057
24919W        W97987  22.514  26.978   0.482
24920W        W97988   5.697  36.486   2.695
24921W        W97989   8.335  25.229   2.825
24922W        W97990  44.902  29.970   1.448
24923W        W97991   2.140  42.872  10.696
24924W        W97992  28.050  28.501   2.661
24925W        W97993  40.044  22.095  14.273
24926W        W97994  31.935  25.963   0.410
24927W        W97995  38.954  13.898  11.007
24928W        W97996   3.915   0.800  12.069
24929W        W97997   6.626  31.434  11.704
24930W        W97998  15.080  44.826   3.694
24931W        W97999  37.465  15.968  12.626
24932W        W98000  28.197  12.397   1.338
24933W        W98001  39.269  35.883  11.330
24934W        W98002  30.572  10.642  13.066
24935W        W98003  38.128  33.950   4.925
24936W        W98004  16.753  43.985   2.134
24937W        W98005  22.546  30.541   4.580
24938W        W98006  33.115  24.717   1.184
24939W        W98007  35.413  32.035   0.036
24940W        W98008  40.413  23.052  13.102
24941W        W98009   8.809  22.987   0.828
24942W        W98010  36.689  13.327  13.807
24943W        W98011  11.497   8.086   3.584
24944W        W98012  22.134  21.506  13.353
24945W        W98013  19.619  39.134   4.520
24946W        W98014  28.691  28.377   0.419
24947W        W98015  15.940   5.031  10.974
24948W        W98016  19.453  24.041  11.904
24949W        W98017   4.940  31.455   0.718
24950W        W98018  18.063  33.072   0.018
24951W        W98019   2.816   3.494  10.556
24952W        W98020  12.877   2.198   3.265
24953W        W98021  24.640  30.453  13.043
24954W        W98022  27.571  25.491   0.938
24955W        W98023   7.833  41.366  11.819
24956W        W98024  12.913   5.765  12.266
24957W        W98025  43.853  11.837   1.380
24958W        W98026  23.099   3.572   3.625
24959W        W98027  40.831  40.534   0.315
24960W        W98028   9.940  10.571   3.702
24961W        W98029  44.324  26.940   1.420
24962W        W98030  16.041  33.699   0.943
24963W        W98031   7.268  37.806   1.186
24964W        W98032  10.763  19.670   2.870
24965W        W98033   1.164   3.385   2.708
24966W        W98034  36.109  25.884   3.646
24967W        W98035  32.803  29.471  12.969
24968W        W98036  21.287  43.961  12.883
24969W        W98037  28.212  33.175  12.994
24970W        W98038  26.892   6.285  13.064
24971W        W98039  38.306   5.832  10.646
24972W        W98040  29.899  24.343  14.864
24973W        W98041  22.718  19.996  14.289
24974W        W98042  17.947  17.422   4.164
24975W        W98043  12.986   8.825  11.381
24976W        W98044  21.208   7.904  12.972
24977W        W98045  21.215  33.715   4.504
24978W        W98046  33.072  10.916  10.993
24979W        W98047  18.253  31.966  13.566
24980W        W98048  19.617   2.822  11.405
24981W        W98049  12.669  34.434   0.767
24982W        W98050  19.495  32.103   1.402
24983W        W98051  15.212  41.379   4.401
24984W        W98052   4.936  29.590  11.560
24985W        W98053  30.379  22.508   2.246
24986W        W98054  38.000  33.854   3.140
24987W        W98055  35.533  44.869  10.690
24988W        W98056   1.043  13.185  10.558
24989W        W98057  37.554   0.219   2.209
24990W        W98058  15.754  40.201  11.117
24991W        W98059  34.344  16.797   4.099
24992W        W98060  26.618  40.834   1.702
24993W        W98061  19.780  41.482  12.563
24994W        W98062  18.114  32.670   4.458
24995W        W98063  30.489  11.188   4.455
24996W        W98064  13.717   1.291  12.932
24997W        W98065  10.145  35.662  12.861
24998W        W98066  24.950  35.091  10.832
24999W        W98067  14.112  16.300  13.822
25000W        W98068  13.337  30.614  11.296
25001W        W98069  15.606  10.647   1.244
25002W        W98070  36.533   5.719   9.645
25003W        W98071  18.255  20.453  11.278
25004W        W98072  42.450  29.304   1.682
25005W        W98073  27.626   5.838   4.059
25006W        W98074  27.902   5.415  13.413
25007W        W98075  21.972  37.934   3.806
25008W        W98076   9.929  13.410  11.105
25009W        W98077  31.110   4.702  12.965
25010W        W98078  17.726  31.347  10.568
25011W        W98079  11.330   8.670  14.434
25012W        W98080   5.596  40.510   2.679
25013W        W98081  33.854   4.163   2.865
25014W        W98082   2.037  13.654   2.862
25015W        W98083  21.834  25.800  12.803
25016W        W98084  19.016   2.396   1.809
25017W        W98085  13.889  10.272   2.286
25018W        W98086   6.434  10.516   3.150
25019W        W98087  26.005  42.891  13.978
25020W        W98088  19.284  33.523  14.749
25021W        W98089   9.021  13.807   0.944
25022W        W98090  31.015   0.797  11.565
25023W        W98091  34.100  32.578  13.546
25024W        W98092  31.938  13.690   4.566
25025W        W98093  24.918   0.369  11.786
25026W        W98094   8.297  14.164   3.664
25027W        W98095  33.355  11.034  13.418
25028W        W98096  33.042  39.999  10.547
25029W        W98097  13.530  12.278   4.855
25030W        W98098   5.290   8.892  12.881
25031W        W98099  35.033  31.361   1.228
25032W        W98100  19.747   7.243  13.941
25033W        W98101   2.811  44.346  10.677
25034W        W98102  27.176  12.097  14.240
25035W        W98103  32.494   5.262   4.755
25036W        W98104  41.976  35.997   4.489
25037W        W98105  37.666  38.768  11.555
25038W        W98106  44.342  16.743   0.742
25039W        W98107  35.871  15.355  14.414
25040W        W98108   6.045   9.719   3.315
25041W        W98109  15.396   0.253   0.287
25042W        W98110  28.699  37.868  12.049
25043W        W98111  20.826  33.045  13.874
25044W        W98112   7.902  29.167  14.948
25045W        W98113  37.375  15.195   2.684
25046W        W98114  39.815   3.873  13.855
25047W        W98115   9.053  43.716  10.894
25048W        W98116   7.508  35.057  12.594
25049W        W98117   8.889  24.165   3.611
25050W        W98118  40.603  29.119  14.084
25051W        W98119  10.781  44.162   0.138
25052W        W98120  24.723  21.542  14.328
25053W        W98121  21.067   0.024   4.553
25054W        W98122  25.183  35.890  14.283
25055W        W98123  11.670  17.186   5.119
25056W        W98124  31.441  41.388  10.686
25057W        W98125  15.038  42.799  14.846
25058W        W98126  10.432   4.866  10.985
25059W        W98127   8.872   4.682   3.669
25060W        W98128  16.069  29.452   2.659
25061W        W98129  19.069  43.020   2.534
25062W        W98130   3.956  22.601  11.109
25063W        W98131   4.830  34.503   2.785
25064W        W98132  18.285   7.991   1.545
25065W        W98133  41.868  17.202  11.530
25066W        W98134  25.718  40.213  10.192
25067W        W98135   0.636  17.639   2.153
25068W        W98136   5.411  44.004   2.702
25069W        W98137   9.108  19.072   0.926
25070W        W98138  19.271   4.768   1.699
25071W        W98139  34.517  30.448   0.464
25072W        W98140  44.047  28.090  11.541
25073W        W98141  10.369  34.444   4.606
25074W        W98142  35.943   6.078   2.792
25075W        W98143  44.906   1.188   3.187
25076W        W98144  22.515  21.978   3.265
25077W        W98145  13.781   9.258  11.448
25078W        W98146  33.219  29.025  14.534
25079W        W98147   9.169  16.436  10.831
25080W        W98148  24.594  41.952   4.317
25081W        W98149  23.516   0.892   2.663
25082W        W98150  42.862  34.821   0.819
25083W        W98151   5.721  17.563  12.189
25084W        W98152  23.615  29.744   2.006
25085W        W98153  42.602   0.313   0.142
25086W        W98154  19.407  25.925   2.178
25087W        W98155  19.302  18.342   2.085
25088W        W98156   0.938  32.035   1.796
25089W        W98157  19.256  43.218   5.019
25090W        W98158   4.807  19.963  14.896
25091W        W98159  33.383  37.896  11.178
25092W        W98160   1.371  10.657   4.654
25093W        W98161   2.714  19.213  12.965
25094W        W98162   5.049  14.604  13.412
25095W        W98163  14.612  24.982  12.171
25096W        W98164   4.352  32.059   0.198
25097W        W98165   2.867  41.784  13.446
25098W        W98166  20.300   4.736   0.754
25099W        W98167  31.643  33.357   2.716
25100W        W98168   6.376  43.028  12.032
25101W        W98169  10.757   5.482  13.088
25102W        W98170  41.227  36.982  13.991
25103W        W98171   0.354  16.890  10.832
25104W        W98172   7.989  24.662   1.318
25105W        W98173   0.981   3.490   1.170
25106W        W98174   2.651  39.361   0.794
25107W        W98175  19.491  29.121   4.221
25108W        W98176   4.236  36.027  12.387
25109W        W98177   9.781   2.172  13.441
25110W        W98178  32.779  33.867  14.414
25111W        W98179   2.383  41.173  10.810
25112W        W98180  31.604  32.102   1.959
25113W        W98181  14.314  35.929   4.270
25114W        W98182  38.049   6.387   2.169
25115W        W98183  29.002   0.524  14.543
25116W        W98184   8.276   5.836   3.695
25117W        W98185  18.830   4.994  10.252
25118W        W98186  29.636   6.258  14.010
25119W        W98187  11.155  16.334   1.216
25120W        W98188  24.895  19.653   3.338
25121W        W98189   3.237  18.894   1.345
25122W        W98190   1.178  31.990   1.332
25123W        W98191  33.722  25.137  11.192
25124W        W98192  34.995  42.600  10.486
25125W        W98193  41.314   0.452   1.515
25126W        W98194  40.201  15.129   2.131
25127W        W98195   1.846  19.233   4.876
25128W        W98196  11.717  38.957  13.045
25129W        W98197  30.604  15.091  11.526
25130W        W98198  31.511  17.613   0.879
25131W        W98199  43.848  24.961   2.418
25132W        W98200  38.902  29.095   1.829
25133W        W98201  31.631  18.639  11.964
25134W        W98202  24.527  13.098   3.221
25135W        W98203  32.235  30.877  11.227
25136W        W98204  27.580   4.841  11.419
25137W        W98205  20.795  15.623  11.071
25138W        W98206  20.317  20.413   1.334
25139W        W98207  33.149   8.703  12.061
25140W        W98208  26.630  22.747   2.752
25141W        W98209  24.223  42.068  13.330
25142W        W98210  42.721  32.571   0.926
25143W        W98211  40.842   7.144  13.813
25144W        W98212   7.407  21.228   4.119
25145W        W98213  29.627  21.698  13.701
25146W        W98214  40.142  17.595  12.396
25147W        W98215   9.973  26.170   0.408
25148W        W98216  35.559  34.327  11.527
25149W        W98217   9.966  31.473  12.125
25150W        W98218  25.611  22.570  10.895
25151W        W98219   4.223  36.928   1.228
25152W        W98220  14.404  31.224   4.606
25153W        W98221  27.182  15.061  12.009
25154W        W98222   2.727  17.748   0.358
25155W        W98223  10.402  28.450   2.238
25156W        W98224  15.372  22.402  11.295
25157W        W98225  25.824   6.797  11.240
25158W        W98226  15.890  14.883   3.362
25159W        W98227  18.715  24.109   4.112
25160W        W98228  11.106   1.479  14.808
25161W        W98229  35.416  41.844   2.310
25162W        W98230  29.538   6.727   3.129
25163W        W98231   9.672  31.898  12.433
25164W        W98232  31.663  12.378  14.362
25165W        W98233   3.314  19.272  12.963
25166W        W98234  27.074  22.279  14.318
25167W        W98235  39.979  20.514   1.379
25168W        W98236   9.542  30.682  12.130
25169W        W98237  10.252  16.040  14.465
25170W        W98238   8.652  27.749   1.376
25171W        W98239   6.891   4.663   1.612
25172W        W98240  17.531  25.145   3.113
25173W        W98241  32.336  36.742  12.052
25174W        W98242  39.544  25.515   2.209
25175W        W98243   0.262  27.879  10.719
25176W        W98244  31.966  27.912   4.107
25177W        W98245   9.354  27.860  12.816
25178W        W98246   3.019  35.992   4.109
25179W        W98247  43.957   4.242   4.062
25180W        W98248  23.784  27.934  14.532
25181W        W98249  23.014  25.710   2.086
25182W        W98250  37.869  28.431  13.635
25183W        W98251  33.769  13.984   1.792
25184W        W98252   5.507   2.491  12.981
25185W        W98253  22.974  17.205  13.897
25186W        W98254   3.530   7.687  13.354
25187W        W98255  11.677  19.383   5.422
25188W        W98256   6.212  36.043  14.005
25189W        W98257   4.260  25.792  13.393
25190W        W98258  30.063   0.849   0.372
25191W        W98259  22.695  18.363  12.619
25192W        W98260  43.135  38.510   4.046
25193W        W98261  11.275   5.254  12.089
25194W        W98262  34.983  11.297  12.967
25195W        W98263  20.524  44.856   3.681
25196W        W98264   7.985  35.997  10.369
25197W        W98265  31.631  28.573   4.781
25198W        W98266  12.212  15.309   0.722
25199W        W98267  11.249  33.048  14.470
25200W        W98268  14.320  16.587   2.660
25201W        W98269  21.348  14.819   2.740
25202W        W98270  36.847  23.223  10.363
25203W        W98271  21.446  44.772  11.875
25204W        W98272  14.830  42.456  13.800
25205W        W98273  17.474  42.849   1.127
25206W        W98274   9.574  11.788  11.545
25207W        W98275  28.944  37.100   0.890
25208W        W98276  20.335   8.023  11.184
25209W        W98277  40.818   3.060  12.420
25210W        W98278  11.285  36.610   1.326
25211W        W98279  33.542  32.852   0.361
25212W        W98280  35.737  24.598  11.651
25213W        W98281  40.390  13.362   3.304
25214W        W98282  31.926  12.258  14.782
25215W        W98283   7.159  31.122   2.213
25216W        W98284  17.949   5.187   0.344
25217W        W98285  28.637  17.984  14.163
25218W        W98286  38.913   0.310   2.298
25219W        W98287  13.616  21.627   1.800
25220W        W98288  29.375   8.393   1.001
25221W        W98289  41.327   0.460   2.022
25222W        W98290  17.789   7.828   2.822
25223W        W98291  40.926  30.397   2.347
25224W        W98292  39.276  30.915   1.874
25225W        W98293  22.236  29.907  12.437
25226W        W98294  38.987  33.237   3.712
25227W        W98295   7.670  30.903   3.951
25228W        W98296   7.871  41.507  10.368
25229W        W98297  29.593  26.922  12.892
25230W        W98298  18.792  19.381   4.133
25231W        W98299   0.316  25.011  11.560
25232W        W98300  15.828   3.925   0.189
25233W        W98301  17.263   2.714   4.095
25234W        W98302  17.390  42.942  10.364
25235W        W98303  32.005  10.679   3.409
25236W        W98304  19.973  16.513   2.730
25237W        W98305  43.369   1.933  12.843
25238W        W98306  39.535  33.756   9.757
25239W        W98307  43.373   7.168   4.795
25240W        W98308   5.869  40.267   3.060
25241W        W98309  11.834   7.409  13.313
25242W        W98310   9.565  23.996  13.368
25243W        W98311  30.536  38.094  12.831
25244W        W98312  40.148  36.073  14.165
25245W        W98313  18.125  10.380  10.182
25246W        W98314   8.268   2.880   4.643
25247W        W98315   3.184  14.402   3.238
25248W        W98316   6.292  16.974   9.941
25249W        W98317  38.499   6.534   1.943
25250W        W98318  24.170  33.665  12.183
25251W        W98319  23.901  31.647  11.140
25252W        W98320   7.195  28.685  10.685
25253W        W98321   1.389  32.124  11.351
25254W        W98322  43.586   0.929   4.224
25255W        W98323  19.069  42.149  12.347
25256W        W98324  39.408  44.828   0.031
25257W        W98325  15.261  29.896  11.076
25258W        W98326  43.787  42.068  11.222
25259W        W98327  32.667   9.361  12.470
25260W        W98328  17.510  24.152  14.909
25261W        W98329  39.397   7.713  12.354
25262W        W98330  14.747  37.287   4.323
25263W        W98331   2.024   8.306   3.670
25264W        W98332   1.213  24.310  13.943
25265W        W98333   6.982   6.672   3.220
25266W        W98334  15.739  30.354  14.579
25267W        W98335  39.102   6.776  13.979
25268W        W98336  20.001  38.310  14.686
25269W        W98337  28.451  13.078   1.846
25270W        W98338  29.139  23.452   3.262
25271W        W98339  38.604  27.194   4.609
25272W        W98340  35.982   2.305   2.924
25273W        W98341  21.441  31.144   4.191
25274W        W98342   3.597  11.678   2.059
25275W        W98343   4.620  20.862   1.791
25276W        W98344   3.277   6.158   2.812
25277W        W98345   0.653  27.606   2.783
25278W        W98346  23.021  31.041   1.628
25279W        W98347  16.210  24.191  14.621
25280W        W98348  27.034   6.050  11.459
25281W        W98349  28.855  24.207  13.331
25282W        W98350  24.623  37.912   5.295
25283W        W98351   6.946   9.650   1.421
25284W        W98352  25.912  26.574   0.414
25285W        W98353  21.993  31.031  11.059
25286W        W98354  42.265   1.857   0.386
25287W        W98355  38.891  43.925   2.947
25288W        W98356  10.574  11.714   1.704
25289W        W98357  19.188  38.217  13.116
25290W        W98358  16.005  30.893  10.549
25291W        W98359  34.934   4.541  10.616
25292W        W98360  18.575   7.424  12.487
25293W        W98361  25.013  24.551   4.057
25294W        W98362  44.027  11.782   3.676
25295W        W98363  27.567  37.035   2.860
25296W        W98364  10.244   4.923   0.162
25297W        W98365  42.189  44.713  13.255
25298W        W98366   7.369   5.913   1.002
25299W        W98367  23.924  16.097   2.382
25300W        W98368  11.627  25.706  11.625
25301W        W98369  35.001  19.075  14.393
25302W        W98370   5.282  42.773   1.435
25303W        W98371  35.189  10.146   3.602
25304W        W98372  35.493  43.864  10.625
25305W        W98373  23.811  14.874   1.357
25306W        W98374   4.936  39.924   2.040
25307W        W98375  42.481   2.700   0.780
25308W        W98376  27.274   1.029  11.106
25309W        W98377   7.664  37.354   1.912
25310W        W98378   5.444  19.513  14.000
25311W        W98379  33.783  19.052   4.864
25312W        W98380  15.442  28.633  13.333
25313W        W98381  25.203  39.807   3.169
25314W        W98382  27.225  26.954  12.968
25315W        W98383  18.809  41.693  12.400
25316W        W98384  24.593   4.210   3.170
25317W        W98385   9.618  10.250  10.628
25318W        W98386   7.434  28.283  14.987
25319W        W98387  41.876  22.738   5.368
25320W        W98388  21.109  40.920  11.987
25321W        W98389  12.890  42.884  12.918
25322W        W98390   9.823  13.495   5.044
25323W        W98391  19.761  16.079  14.004
25324W        W98392  40.883  43.689  13.904
25325W        W98393  29.444   5.680   0.758
25326W        W98394   7.338  21.959  13.965
25327W        W98395  15.142  19.816   2.272
25328W        W98396  34.472  21.006  12.563
25329W        W98397  37.908   1.127   4.016
25330W        W98398  32.447  10.670   3.099
25331W        W98399  37.562   7.171  10.748
25332W        W98400  24.109  31.644  14.984
25333W        W98401   1.143  26.211  11.687
25334W        W98402  24.091  31.907  14.527
25335W        W98403  40.820   9.068  11.992
25336W        W98404   9.340  42.052   1.289
25337W        W98405   2.334  24.477   1.827
25338W        W98406  22.882  20.043   1.256
25339W        W98407  20.221   8.297  14.765
25340W        W98408   0.679  38.968   1.811
25341W        W98409  33.872  42.037  13.446
25342W        W98410  40.678  37.023  13.915
25343W        W98411  19.339   0.736   2.143
25344W        W98412  34.057   2.519  14.879
25345W        W98413  27.584   3.900   0.791
25346W        W98414   9.648   0.302   3.238
25347W        W98415  27.062   7.493  11.934
25348W        W98416  21.599  36.502   3.892
25349W        W98417  28.076  19.325   0.458
25350W        W98418  36.935  43.795   1.962
25351W        W98419  20.200  25.690  14.463
25352W        W98420  34.863   1.884  10.610
25353W        W98421  37.951  30.980   4.647
25354W        W98422   8.706  29.485  13.046
25355W        W98423  18.734  24.823  11.284
25356W        W98424   9.793   9.462  13.247
25357W        W98425  38.491  35.888  10.747
25358W        W98426   7.819  35.244   2.633
25359W        W98427  28.656  26.479  12.956
25360W        W98428  40.920  14.082  14.294
25361W        W98429  15.139   6.453   4.474
25362W        W98430  10.872  27.369   3.806
25363W        W98431  26.177  32.544   2.340
25364W        W98432  10.724   8.163   3.766
25365W        W98433  27.377  43.311   2.331
25366W        W98434  21.114  18.221   3.383
25367W        W98435  28.378   1.824  14.404
25368W        W98436   2.573  17.669   1.763
25369W        W98437  17.529  30.948   3.944
25370W        W98438  13.780  17.215   4.199
25371W        W98439  43.796  44.820  13.962
25372W        W98440   4.523  28.139   1.761
25373W        W98441  38.581  35.924   1.000
25374W        W98442  39.479   5.043  13.758
25375W        W98443  12.205  38.856   4.706
25376W        W98444  43.332   7.753  12.217
25377W        W98445  24.285  41.307  10.652
25378W        W98446  13.582  42.838  11.085
25379W        W98447  20.533   5.378   2.347
25380W        W98448  16.689  24.181  11.611
25381W        W98449  12.283   5.722   2.796
25382W        W98450  14.078  42.617  14.746
25383W        W98451  27.027  30.722  13.449
25384W        W98452   9.216   1.516   3.797
25385W        W98453  42.059  43.890   2.124
25386W        W98454  13.905  38.361   4.127
25387W        W98455  44.709   9.827   3.286
25388W        W98456  33.507  15.690  12.045
25389W        W98457  27.542   3.415   4.695
25390W        W98458   5.864   7.640   1.003
25391W        W98459  32.577  37.553  10.615
25392W        W98460  38.225  17.592   2.203
25393W        W98461  44.720   5.593  14.837
25394W        W98462  35.174  38.639   1.416
25395W        W98463   8.914  43.174  13.170
25396W        W98464  17.136   9.491   1.606
25397W        W98465  28.739  43.775  11.378
25398W        W98466  28.868  31.561  12.934
25399W        W98467  13.733  43.568   2.783
25400W        W98468  20.725  16.835   3.149
25401W        W98469  14.808   9.436  12.477
25402W        W98470   4.671  35.896  10.824
25403W        W98471   3.024  29.417  11.599
25404W        W98472  16.786   1.375  14.920
25405W        W98473  13.062  22.576   4.563
25406W        W98474   0.900  33.087  14.836
25407W        W98475   0.559  40.790   3.085
25408W        W98476  19.359  34.379  14.762
25409W        W98477   0.084  42.355  13.478
25410W        W98478  19.706  17.888  13.363
25411W        W98479  41.896  10.237   2.600
25412W        W98480   1.273   7.825  10.708
25413W        W98481  14.845  44.796   4.230
25414W        W98482  29.923  21.054  13.253
25415W        W98483  11.661  38.285  11.620
25416W        W98484  26.005  13.902  13.507
25417W        W98485  21.584  43.270  14.339
25418W        W98486  21.556   7.516  12.891
25419W        W98487  18.886  29.125   0.393
25420W        W98488  42.942  30.656  14.352
25421W        W98489  13.395  26.985  12.912
25422W        W98490  16.734  26.999  13.918
25423W        W98491   9.194  37.762  11.925
25424W        W98492  43.751  35.842  12.847
25425W        W98493   8.944  23.579   1.490
25426W        W98494  11.325  32.896  11.072
25427W        W98495  32.747  17.842  11.924
25428W        W98496  40.744  26.990   3.559
25429W        W98497  16.236  39.599  10.767
25430W        W98498   0.541  18.075   1.843
25431W        W98499  37.502   3.282  12.591
25432W        W98500  28.735  10.462   3.292
25433W        W98501  40.605  20.052   2.380
25434W        W98502  42.475   3.835   4.315
25435W        W98503   0.940  35.325   4.001
25436W        W98504  30.206  32.098  13.003
25437W        W98505  10.118  10.093   3.626
25438W        W98506   1.831   0.764   4.644
25439W        W98507  41.902   1.824   3.930
25440W        W98508  25.749  35.179   0.339
25441W        W98509  37.809   6.221  13.150
25442W        W98510  14.876  17.098   2.748
25443W        W98511  17.032  16.771  14.777
25444W        W98512  19.977  15.730  14.333
25445W        W98513  37.933  19.127   1.805
25446W        W98514  28.188  30.360   1.234
25447W        W98515  37.482  38.448   2.785
25448W        W98516   6.334  44.710  13.356
25449W        W98517  23.802  35.612   0.248
25450W        W98518  31.371  30.086   4.923
25451W        W98519  12.306  25.721   2.640
25452W        W98520  17.494  14.786  14.362
25453W        W98521  33.671   7.247   3.103
25454W        W98522  36.695  42.410  12.461
25455W        W98523   6.194  40.975   3.759
25456W        W98524  35.554   5.680  14.016
25457W        W98525  41.856  24.150  13.676
25458W        W98526  25.436   5.735  14.403
25459W        W98527  42.253  20.131   1.795
25460W        W98528  21.741   4.939   4.197
25461W        W98529  37.633  23.814  12.301
25462W        W98530   9.451  33.838   4.785
25463W        W98531   8.803   2.293   1.008
25464W        W98532  39.831  43.543  13.021
25465W        W98533   6.796  33.912   0.017
25466W        W98534   1.184  34.118   4.102
25467W        W98535  13.815  20.272   2.860
25468W        W98536  33.484  22.765   5.146
25469W        W98537   9.645  28.235  14.322
25470W        W98538   5.836  13.137  10.900
25471W        W98539  38.500  42.817  12.570
25472W        W98540   3.886  25.502   3.406
25473W        W98541   8.854  30.884  11.446
25474W        W98542  38.021  40.791  14.375
25475W        W98543   1.353  21.273  13.255
25476W        W98544  27.742  17.576  13.484
25477W        W98545   8.560  13.704   0.039
25478W        W98546  43.954  10.945  12.008
25479W        W98547   8.687  44.009  10.664
25480W        W98548  14.664  28.202   3.612
25481W        W98549  14.340   1.366   0.462
25482W        W98550  12.749  29.777  11.013
25483W        W98551  37.226   4.630   3.774
25484W        W98552  33.271   1.484  12.842
25485W        W98553  36.579  11.667   4.774
25486W        W98554  42.798   9.852   0.943
25487W        W98555   5.891  12.670  11.130
25488W        W98556  16.238  19.096   0.494
25489W        W98557  19.115  23.696  11.514
25490W        W98558   6.870  14.187   3.427
25491W        W98559  41.611  10.291  14.939
25492W        W98560   1.837  44.087   0.618
25493W        W98561   3.153  21.087  11.379
25494W        W98562  44.977  12.562   3.346
25495W        W98563  10.603   1.354  14.783
25496W        W98564  23.038  42.322   1.211
25497W        W98565  14.243   5.241   1.437
25498W        W98566  41.113  16.347   0.975
25499W        W98567  17.594  22.582   3.368
25500W        W98568   4.845   1.961   3.218
25501W        W98569  14.513  37.996   3.880
25502W        W98570   5.740  28.211   0.407
25503W        W98571  42.255  23.716  10.343
25504W        W98572  25.095   8.191  12.363
25505W        W98573   7.840  22.717  10.613
25506W        W98574  28.915  24.136  12.464
25507W        W98575  29.190  24.587  10.598
25508W        W98576  30.942  10.951   1.847
25509W        W98577  35.411  25.509  14.281
25510W        W98578  38.369  27.207   2.332
25511W        W98579  37.483  42.962  12.922
25512W        W98580   7.215  31.056   4.208
25513W        W98581  13.189   4.934  10.680
25514W        W98582  23.488  19.751  11.454
25515W        W98583  19.065  24.039   2.719
25516W        W98584  40.409  41.517   1.858
25517W        W98585  11.560  13.765  13.538
25518W        W98586  43.101  29.627  11.051
25519W        W98587  26.573  29.953  12.575
25520W        W98588  26.080  44.880   3.915
25521W        W98589  32.631  12.794  11.617
25522W        W98590  20.967  21.113   5.069
25523W        W98591  18.131   8.204   0.271
25524W        W98592  10.101   7.221   2.264
25525W        W98593   3.579  12.018  13.534
25526W        W98594  13.506  29.372  14.472
25527W        W98595  34.556   7.923   0.973
25528W        W98596  24.014  37.295  10.544
25529W        W98597  28.386  15.709  10.817
25530W        W98598  44.068   9.512  13.451
25531W        W98599  29.785   7.735   2.442
25532W        W98600  37.934   9.559   2.369
25533W        W98601   3.109  42.726  12.625
25534W        W98602  19.821  37.111   0.232
25535W        W98603  41.040  18.676   1.451
25536W        W98604  16.968  30.065  13.381
25537W        W98605   1.321  30.183   1.513
25538W        W98606  24.310  40.508   2.697
25539W        W98607  32.471  25.678   2.044
25540W        W98608  21.153  43.206  12.575
25541W        W98609  11.319   7.666  14.556
25542W        W98610  21.213  27.690   0.641
25543W        W98611   4.615  36.966  10.051
25544W        W98612  10.367  14.833   2.445
25545W        W98613   3.243  13.356   4.176
25546W        W98614  34.933   3.527  12.170
25547W        W98615  14.661  30.625   2.876
25548W        W98616  37.133  15.786   1.140
25549W        W98617  34.568  40.265  13.437
25550W        W98618   1.809  26.213  12.896
25551W        W98619  42.429  21.850   1.279
25552W        W98620  35.541  29.940  14.058
25553W        W98621  41.920  16.333  11.173
25554W        W98622  15.168  11.432  12.562
25555W        W98623  21.178  44.325   1.074
25556W        W98624  24.002  18.191   0.545
25557W        W98625  39.027  24.184   3.808
25558W        W98626  40.484  42.959   2.794
25559W        W98627  44.851  14.570   3.125
25560W        W98628  38.165  35.467  12.487
25561W        W98629  15.766  40.938  13.408
25562W        W98630   2.019  23.191   0.768
25563W        W98631   0.969   5.485  10.800
25564W        W98632   0.732  19.039  14.880
25565W        W98633  12.366  12.744   2.617
25566W        W98634  34.022  40.736  13.965
25567W        W98635  35.398   9.157  14.306
25568W        W98636  18.750   7.497   0.523
25569W        W98637  21.855  23.513   4.630
25570W        W98638  42.010  37.923  12.219
25571W        W98639  13.218  26.419  14.922
25572W        W98640  36.013   9.186   1.015
25573W        W98641  10.300  44.060  14.919
25574W        W98642  30.576  43.519   3.139
25575W        W98643  43.069  35.005  13.503
25576W        W98644  14.569  33.224  11.929
25577W        W98645  16.118  27.503  13.524
25578W        W98646   7.723   8.016   0.432
25579W        W98647   7.624  16.246  12.031
25580W        W98648   6.195   8.699  10.235
25581W        W98649   1.672   8.381   4.183
25582W        W98650  14.075  37.665  12.036
25583W        W98651  27.828   7.182   0.319
25584W        W98652  28.954  38.177  12.891
25585W        W98653  23.416   5.651  10.926
25586W        W98654  25.112  13.762  10.643
25587W        W98655  43.985   7.261  11.810
25588W        W98656  34.819  33.833   3.303
25589W        W98657  33.445  41.408   0.657
25590W        W98658  22.118  24.572  14.054
25591W        W98659  17.210  28.129  13.774
25592W        W98660  33.489  10.554  14.818
25593W        W98661   0.950   7.778   0.667
25594W        W98662  15.877  36.300  14.362
25595W        W98663  37.240  43.562  13.965
25596W        W98664   2.441  38.542  13.019
25597W        W98665   0.967  14.410   1.867
25598W        W98666  24.165  15.232   4.684
25599W        W98667   0.450  14.860   0.972
25600W        W98668  35.135   0.212   5.218
25601W        W98669  25.164   2.459  14.944
25602W        W98670  32.338  26.935  13.927
25603W        W98671  43.801  40.132   2.420
25604W        W98672   4.822  40.286  11.623
25605W        W98673  33.367  31.027   4.518
25606W        W98674  30.536  34.334  11.183
25607W        W98675  40.677  44.718  13.020
25608W        W98676   7.926  38.878  13.270
25609W        W98677  13.762  12.770   4.754
25610W        W98678  15.885  42.574   2.702
25611W        W98679   4.260   6.363   2.669
25612W        W98680  15.558  36.100  13.970
25613W        W98681  34.554  21.498  12.390
25614W        W98682   5.901  32.906  13.360
25615W        W98683  35.558  16.861   2.352
25616W        W98684   7.725   2.519   4.328
25617W        W98685  11.608  26.426   5.076
25618W        W98686  27.066   0.427   3.733
25619W        W98687   1.072  28.005  11.725
25620W        W98688  27.537   4.451  13.525
25621W        W98689  17.222  23.105  13.470
25622W        W98690  26.289  41.846   4.925
25623W        W98691  19.088  28.368  14.881
25624W        W98692  44.914  33.854   4.682
25625W        W98693  41.533  22.121  14.145
25626W        W98694  31.069  33.504   0.476
25627W        W98695  42.002  12.121  11.150
25628W        W98696  30.685  25.981  12.503
25629W        W98697  25.086  30.147  14.951
25630W        W98698  20.987  39.303  12.437
25631W        W98699  35.893  43.135   2.327
25632W        W98700   3.358   6.265   5.061
25633W        W98701  42.448   2.384  10.710
25634W        W98702  23.159  42.688  14.873
25635W        W98703  17.830   8.109  14.825
25636W        W98704  19.646  23.759  11.511
25637W        W98705  31.237  44.173  11.102
25638W        W98706  28.579   4.777  10.415
25639W        W98707  18.589  24.547   3.635
25640W        W98708  42.882  18.720  12.096
25641W        W98709  29.665  39.959  14.356
25642W        W98710   0.103   0.624  13.091
25643W        W98711  44.336  32.391  14.832
25644W        W98712  16.158  36.849   3.777
25645W        W98713  23.081   9.717   0.932
25646W        W98714  32.918  44.874   3.872
25647W        W98715   1.193  21.430   1.734
25648W        W98716  42.681   0.751  14.885
25649W        W98717  42.712  30.019  13.030
25650W        W98718  13.862  21.722   3.826
25651W        W98719   9.221   0.160  11.643
25652W        W98720   3.931  18.358  13.858
25653W        W98721  33.968  38.976   1.899
25654W        W98722  16.796  32.402   4.709
25655W        W98723   7.604  42.852  14.855
25656W        W98724  26.158  30.577   2.916
25657W        W98725  19.198  12.931   2.866
25658W        W98726  41.028  37.960  11.236
25659W        W98727  42.838  16.109   3.885
25660W        W98728  26.348  25.716  11.530
25661W        W98729   0.477  35.118   4.679
25662W        W98730  33.738  12.750  13.021
25663W        W98731  38.277  20.028  14.799
25664W        W98732  18.836  11.358  11.466
25665W        W98733  39.343  19.700  10.399
25666W        W98734  13.840  21.698  12.551
25667W        W98735  44.855  25.239  11.591
25668W        W98736   7.665  43.296   0.278
25669W        W98737  30.664  34.016   2.271
25670W        W98738   2.286   9.859  13.979
25671W        W98739   5.930  34.521   0.366
25672W        W98740  34.502   5.153   3.107
25673W        W98741  15.407  30.524  12.205
25674W        W98742  18.232  25.943   0.816
25675W        W98743  38.449  23.412   3.245
25676W        W98744  43.552   3.933  11.877
25677W        W98745  44.475  27.691   3.887
25678W        W98746  14.563  39.774   4.221
25679W        W98747  13.194   3.300   4.647
25680W        W98748  14.655  32.558  10.945
25681W        W98749  33.029  17.117   0.938
25682W        W98750   8.043  27.374  12.473
25683W        W98751  13.144  43.712   3.572
25684W        W98752  41.059   9.438  14.451
25685W        W98753  36.617  22.669   2.621
25686W        W98754  17.748  41.997   1.451
25687W        W98755  26.816  38.051   1.196
25688W        W98756   8.940  11.656   1.483
25689W        W98757   3.241  22.037   9.912
25690W        W98758  14.757  16.031   3.183
25691W        W98759  23.038  14.122   0.012
25692W        W98760  22.497  21.186  10.840
25693W        W98761  29.662   3.619   4.212
25694W        W98762  12.297  18.744  14.860
25695W        W98763   1.230  25.982   3.829
25696W        W98764  10.720  15.290   4.530
25697W        W98765  34.266   1.759  14.006
25698W        W98766  41.486  30.168   3.182
25699W        W98767  42.317  41.831  14.526
25700W        W98768  38.332   8.082  10.754
25701W        W98769  34.855  41.319   0.716
25702W        W98770   3.707  33.067   2.736
25703W        W98771  18.592  39.939  12.464
25704W        W98772   0.816   9.503  10.909
25705W        W98773   0.563  23.546   0.950
25706W        W98774   6.419  27.543  13.518
25707W        W98775   8.969  30.455   0.324
25708W        W98776  13.394  14.691  10.623
25709W        W98777  37.309  34.461   3.765
25710W        W98778  34.667  33.464  13.484
25711W        W98779  36.401   4.973   3.481
25712W        W98780   2.488  19.763   4.973
25713W        W98781  40.571  35.155   1.189
25714W        W98782  38.359  39.934  10.435
25715W        W98783  12.595  23.847  14.974
25716W        W98784  40.090  37.488   2.771
25717W        W98785  34.373  22.927   2.756
25718W        W98786  25.746   7.686   3.319
25719W        W98787  38.144  21.153  13.393
25720W        W98788   3.780  27.973  14.866
25721W        W98789  25.028  40.285   2.031
25722W        W98790  18.399  23.495  13.785
25723W        W98791  42.301  40.830   2.284
25724W        W98792  38.949   7.323   2.183
25725W        W98793  17.576  28.572   2.360
25726W        W98794  37.118  27.997   0.455
25727W        W98795  42.862  24.980  11.514
25728W        W98796  42.331  18.876   1.926
25729W        W98797  10.689   2.822  13.714
25730W        W98798   8.628  34.767   4.997
25731W        W98799  26.684   2.209  12.617
25732W        W98800   8.783  23.557   1.975
25733W        W98801  33.824   3.476   1.258
25734W        W98802   1.822  36.972   2.957
25735W        W98803  33.125  41.750  11.569
25736W        W98804  38.633  18.049  14.439
25737W        W98805   4.436  10.093  12.193
25738W        W98806  34.510  26.574   4.364
25739W        W98807  27.224   1.343   1.878
25740W        W98808  15.852   6.237  12.917
25741W        W98809  24.915  11.271  11.029
25742W        W98810   2.922  23.240   2.391
25743W        W98811   3.265  30.583   1.243
25744W        W98812  38.474   5.256  11.416
25745W        W98813   6.385   8.083  14.834
25746W        W98814  18.797  12.086   4.724
25747W        W98815  32.054  30.093  13.083
25748W        W98816   9.957  24.541   2.285
25749W        W98817  41.465  35.685   3.757
25750W        W98818  15.320  14.374   3.730
25751W        W98819  33.606  12.255   0.716
25752W        W98820  20.321   5.709  14.319
25753W        W98821  41.342  11.514  13.063
25754W        W98822  43.911  25.464   2.585
25755W        W98823   4.331  31.711  10.606
25756W        W98824   7.800  28.416   4.243
25757W        W98825  31.294   7.934  12.812
25758W        W98826  13.667  20.024   2.185
25759W        W98827  28.082  20.231  12.614
25760W        W98828  12.154  25.950  11.966
25761W        W98829  31.142  41.808  13.643
25762W        W98830  25.601   3.494  12.946
25763W        W98831  36.354  41.385   4.667
25764W        W98832   4.899  26.639   4.606
25765W        W98833  35.825  13.566   2.024
25766W        W98834   2.473  33.023  11.582
25767W        W98835  14.327  14.081   0.942
25768W        W98836  26.004  44.173  11.782
25769W        W98837  40.418  43.754   0.945
25770W        W98838  33.007  42.505   4.714
25771W        W98839  40.964  41.171  13.536
25772W        W98840  30.142  35.050  12.981
25773W        W98841  11.073   6.755   1.246
25774W        W98842  33.276  37.255  14.915
25775W        W98843   3.333  42.603  14.792
25776W        W98844  28.540   4.932   3.678
25777W        W98845  33.310  10.179  10.406
25778W        W98846   3.188  36.877  11.595
25779W        W98847  24.168  26.403   4.682
25780W        W98848  29.810   3.456  13.949
25781W        W98849  25.534   2.795   4.113
25782W        W98850   5.698   3.324  11.563
25783W        W98851  43.208  24.562  14.325
25784W        W98852   3.741  33.069  13.956
25785W        W98853  23.019   4.434   2.310
25786W        W98854  27.337  19.324  12.827
25787W        W98855  29.411   7.644   2.073
25788W        W98856   4.763  35.602   4.534
25789W        W98857  38.880  37.887  11.760
25790W        W98858  20.798  30.506  14.950
25791W        W98859  39.461  38.133  12.445
25792W        W98860   5.246  20.021  11.526
25793W        W98861  15.070  13.100   4.938
25794W        W98862  33.198   0.873  14.979
25795W        W98863  44.858  44.500  13.668
25796W        W98864  17.308   4.377  14.274
25797W        W98865   7.808   2.043   5.008
25798W        W98866  12.964   0.590  13.189
25799W        W98867  15.916   4.743   1.745
25800W        W98868  21.698  10.373   0.755
25801W        W98869  21.680  28.463   3.109
25802W        W98870   6.268   5.441   2.548
25803W        W98871  28.133   6.676   1.458
25804W        W98872  33.375  14.269   1.929
25805W        W98873   3.730   1.449   4.523
25806W        W98874   9.939  42.463   2.191
25807W        W98875   8.293  21.613  12.854
25808W        W98876  23.926   6.149   2.321
25809W        W98877  23.026  42.306   4.711
25810W        W98878  37.445  18.772   0.831
25811W        W98879  28.232   6.818  11.187
25812W        W98880  29.496  20.739   3.854
25813W        W98881  19.956  17.571   1.911
25814W        W98882  13.256   8.689   3.654
25815W        W98883  20.790  40.880   1.910
25816W        W98884  16.131  36.821   2.610
25817W        W98885  41.206   7.251   5.585
25818W        W98886  17.053  15.791  11.534
25819W        W98887  27.730  27.658   4.100
25820W        W98888  41.763  41.305  13.937
25821W        W98889   9.842  44.791   2.259
25822W        W98890  38.497  37.549  10.513
25823W        W98891  27.086  18.669  14.292
25824W        W98892  21.268  11.100   2.340
25825W        W98893  25.657  33.930  13.551
25826W        W98894  20.112  26.575  11.708
25827W        W98895  34.452   9.143   2.336
25828W        W98896  14.793  33.908  13.028
25829W        W98897  10.719  26.103  10.708
25830W        W98898   8.297   6.769  10.595
25831W        W98899  41.901  34.505   1.261
25832W        W98900  32.487  30.625   1.165
25833W        W98901  21.584  14.847   4.693
25834W        W98902  37.001  12.242   0.006
25835W        W98903   9.264  40.766   4.645
25836W        W98904  23.487   5.279  13.083
25837W        W98905  28.071  21.735  10.647
25838W        W98906  21.345  43.395   1.098
25839W        W98907  21.738  20.411  10.548
25840W        W98908  26.294  27.940   0.547
25841W        W98909   3.995  16.618   3.735
25842W        W98910   8.347   4.517  13.027
25843W        W98911  44.686  37.181   2.072
25844W        W98912   6.907   0.332  14.559
25845W        W98913  21.368  41.114  12.395
25846W        W98914  17.080  36.470  11.222
25847W        W98915  24.440   2.960   2.854
25848W        W98916  13.275  17.453  10.521
25849W        W98917   9.321  34.316   0.723
25850W        W98918  15.071  35.374   1.904
25851W        W98919  44.578  33.354  14.806
25852W        W98920  10.600  10.076   1.044
25853W        W98921  33.872  36.103  14.863
25854W        W98922  40.767  35.433  11.033
25855W        W98923  31.150  39.590  12.384
25856W        W98924  26.169  25.580  11.999
25857W        W98925   7.235   5.316   2.175
25858W        W98926  31.458  27.068  11.448
25859W        W98927  35.903  31.551   3.797
25860W        W98928  18.121   5.417  14.857
25861W        W98929  44.445   0.376   2.660
25862W        W98930   3.767  10.905   2.751
25863W        W98931  11.608  35.065   2.399
25864W        W98932  22.171  17.143   1.903
25865W        W98933  33.556  30.698   4.159
25866W        W98934  42.306  43.947   3.934
25867W        W98935  24.968  36.764   4.199
25868W        W98936  16.864  10.461   2.415
25869W        W98937  24.960  36.480   1.612
25870W        W98938  11.353  28.215  11.344
25871W        W98939  32.567  12.648   1.312
25872W        W98940  14.703  41.951  11.162
25873W        W98941   9.747  31.644  12.955
25874W        W98942  21.703  32.611  12.117
25875W        W98943  15.899  35.403  10.560
25876W        W98944  37.381   7.213   0.886
25877W        W98945  18.744  29.543  12.554
25878W        W98946  32.007  38.617  14.108
25879W        W98947   9.355  44.377   0.373
25880W        W98948  21.038  40.247   2.837
25881W        W98949  10.855  35.097  13.521
25882W        W98950  15.869  11.607  14.680
25883W        W98951  38.945   4.903  10.615
25884W        W98952  23.399  27.059   4.467
25885W        W98953  27.143  35.904  12.910
25886W        W98954  36.294  42.493   2.332
25887W        W98955   4.986  12.840   0.917
25888W        W98956  13.683  22.952   2.698
25889W        W98957  36.545  31.324   1.153
25890W        W98958  23.754  37.094  12.545
25891W        W98959   8.907  14.057   4.350
25892W        W98960  14.572  38.782  11.632
25893W        W98961  41.795  15.763   4.614
25894W        W98962  44.449  36.093  13.378
25895W        W98963   3.259   5.899   2.330
25896W        W98964  23.947  37.477  14.618
25897W        W98965  13.224  11.923  13.944
25898W        W98966  42.737  22.166  12.503
25899W        W98967  15.146  21.239  14.376
25900W        W98968  32.072  24.653   4.112
25901W        W98969  32.036  41.475   0.700
25902W        W98970  28.176  30.690   4.582
25903W        W98971   6.762   3.297   4.090
25904W        W98972   1.641  14.354   4.905
25905W        W98973  11.492   4.273   2.184
25906W        W98974   9.159  40.547   4.180
25907W        W98975  44.475   3.835  12.121
25908W        W98976   0.984   3.691  14.144
25909W        W98977  16.633  44.731   0.295
25910W        W98978  43.778  35.681  12.006
25911W        W98979  22.099  25.220   1.845
25912W        W98980   9.315  40.972   1.423
25913W        W98981   3.046  34.386  11.770
25914W        W98982  39.455   2.454   4.736
25915W        W98983  43.538   8.302  14.057
25916W        W98984  15.600  11.854   2.960
25917W        W98985   5.474  18.502   0.814
25918W        W98986  44.921  25.143  13.100
25919W        W98987  40.905   9.710   3.901
25920W        W98988  33.616   2.417  14.414
25921W        W98989  37.045  37.471  13.040
25922W        W98990  15.743   1.173   0.811
25923W        W98991   0.513   5.685   0.480
25924W        W98992  42.686  40.448  10.951
25925W        W98993  35.302   2.654   0.320
25926W        W98994  37.859   5.283  11.961
25927W        W98995  38.628   9.182  11.590
25928W        W98996  24.145  42.902   4.150
25929W        W98997  44.189  34.182   2.250
25930W        W98998  16.777  18.120  13.414
25931W        W98999  24.918   4.484   2.249
25932W        W99000  34.048   9.204   1.051
25933W        W99001   9.962  32.288   1.826
25934W        W99002   5.713  19.723   0.332
25935W        W99003  39.860   3.502   3.691
25936W        W99004  15.751  14.260   2.752
25937W        W99005  13.065   9.191  11.727
25938W        W99006  12.323   6.265   4.530
25939W        W99007  16.133  12.512  12.381
25940W        W99008  23.974   5.549  11.156
25941W        W99009  41.266  18.153  13.334
25942W        W99010  12.080   3.641  11.155
25943W        W99011  20.656   1.619  13.033
25944W        W99012  37.395  24.550   0.451
25945W        W99013  35.072   1.183  11.751
25946W        W99014  17.363  10.146  12.000
25947W        W99015  25.172  27.793   1.007
25948W        W99016  33.062  33.933   1.780
25949W        W99017  28.544  12.354   2.629
25950W        W99018  11.541  14.448   2.703
25951W        W99019  17.950   3.339  12.998
25952W        W99020   2.446  37.022  11.058
25953W        W99021   8.719  35.647  14.447
25954W        W99022  38.803   7.212  12.436
25955W        W99023   4.370  29.954  12.594
25956W        W99024   1.841  35.403   1.375
25957W        W99025  18.572   2.914  13.030
25958W        W99026   9.594  31.946   1.191
25959W        W99027  26.371  35.906  11.155
25960W        W99028  10.664  36.131   0.802
25961W        W99029  28.568  23.207  13.153
25962W        W99030  21.486  13.050  11.146
25963W        W99031  40.462  33.146   0.350
25964W        W99032  10.884  14.037  14.954
25965W        W99033  39.851  37.881   1.225
25966W        W99034  34.611  27.185  11.207
25967W        W99035  32.445  44.071   4.228
25968W        W99036  29.660  15.139   1.702
25969W        W99037  19.468  30.483   0.262
25970W        W99038   0.108  14.230   1.874
25971W        W99039  34.532  29.972  14.008
25972W        W99040   5.393  37.514  10.248
25973W        W99041  10.943  24.837   2.469
25974W        W99042  26.089  42.017  12.613
25975W        W99043   2.569  13.226  11.526
25976W        W99044  23.063  10.614   0.244
25977W        W99045   4.717   7.005  12.133
25978W        W99046  30.847   9.592  12.379
25979W        W99047  35.598   4.581  14.356
25980W        W99048  34.887  28.249  11.577
25981W        W99049   4.942   1.935   9.925
25982W        W99050   8.476   7.609  11.350
25983W        W99051  31.417   2.262  12.932
25984W        W99052   4.295  33.091  14.830
25985W        W99053  16.336  20.505  13.321
25986W        W99054  44.436  12.315  10.270
25987W        W99055   4.771  39.483   3.339
25988W        W99056  40.514  11.887  13.232
25989W        W99057  13.346  36.890  13.392
25990W        W99058  28.692  24.778   0.247
25991W        W99059   3.820  23.103  14.062
25992W        W99060  14.795  10.377  11.201
25993W        W99061  30.616  24.208  14.068
25994W        W99062  35.080  26.844   0.813
25995W        W99063  41.198   4.871  14.440
25996W        W99064  44.896  19.806   5.107
25997W        W99065  29.718  14.191  10.828
25998W        W99066   9.906   3.108  14.083
25999W        W99067  34.432   7.942  12.414
26000W        W99068   3.804   3.175   4.123
26001W        W99069  13.178  19.265  14.845
26002W        W99070  32.013  31.336  11.215
26003W        W99071  11.833   3.124   2.695
26004W        W99072   9.725  16.229   2.459
26005W        W99073  36.861   3.901  11.228
26006W        W99074   5.011  24.314   5.059
26007W        W99075  18.269  24.939   0.775
26008W        W99076   6.603   0.260   0.300
26009W        W99077  33.742  37.454  13.782
26010W        W99078  22.412  23.027   3.154
26011W        W99079   8.938  28.609   3.768
26012W        W99080  23.256  25.137   1.230
26013W        W99081  33.611  29.167  14.247
26014W        W99082  11.394  19.022  13.052
26015W        W99083   9.386  21.705  14.351
26016W        W99084   8.959  34.864  13.995
26017W        W99085  21.058  35.477   1.857
26018W        W99086  12.807  10.346  14.269
26019W        W99087  23.321  27.734   1.635
26020W        W99088   5.647  33.497  14.860
26021W        W99089   0.813  17.842   4.026
26022W        W99090   8.200  31.147   1.196
26023W        W99091  42.745  20.610   0.259
26024W        W99092   4.386  30.988  12.588
26025W        W99093  19.084   5.241  14.973
26026W        W99094  43.005   7.248   4.191
26027W        W99095  16.798  19.184   3.280
26028W        W99096  42.243  17.505   1.916
26029W        W99097   2.887  20.623  11.418
26030W        W99098  42.783  12.821  12.144
26031W        W99099  32.369   2.338  14.005
26032W        W99100  27.725  33.288   0.155
26033W        W99101   1.821  24.501   0.720
26034W        W99102  21.097   1.856  10.700
26035W        W99103  44.053  18.011   4.112
26036W        W99104  42.154  14.795   1.328
26037W        W99105   3.696   0.557   0.432
26038W        W99106   3.779   3.353   0.760
26039W        W99107  11.131   1.777  13.502
26040W        W99108   7.253  21.256   2.377
26041W        W99109   1.606   3.830  11.075
26042W        W99110  25.663  34.021   2.912
26043W        W99111  37.448  35.291  13.870
26044W        W99112  39.066   2.155  13.476
26045W        W99113  29.197  37.592  11.598
26046W        W99114  37.956  17.739   4.668
26047W        W99115  38.883  16.814  14.699
26048W        W99116   9.888  34.014  12.638
26049W        W99117  29.515   7.585  14.704
26050W        W99118   5.837  34.349  14.337
26051W        W99119  14.646   1.780  12.566
26052W        W99120   3.766  28.624   4.584
26053W        W99121  32.044  31.029   1.847
26054W        W99122  37.788  21.766   0.482
26055W        W99123  23.218  20.997   2.165
26056W        W99124  27.047  41.444   0.824
26057W        W99125  21.234  40.027  14.438
26058W        W99126  28.276  30.718   0.867
26059W        W99127  15.658  11.815   5.052
26060W        W99128  16.716  36.377  12.664
26061W        W99129  22.182   4.384   3.087
26062W        W99130   7.961  42.849   0.227
26063W        W99131  35.962  17.241  14.825
26064W        W99132  42.887  24.617   2.165
26065W        W99133   0.697   7.126  13.457
26066W        W99134  40.306  11.415   1.425
26067W        W99135  25.793  41.077  13.459
26068W        W99136  28.502  12.353   0.679
26069W        W99137  36.156  44.679  11.666
26070W        W99138   6.306  32.184   1.161
26071W        W99139   4.326  31.585   1.310
26072W        W99140  18.269  36.566   2.636
26073W        W99141  31.584  27.080  12.943
26074W        W99142  26.228  26.711  14.994
26075W        W99143  38.366   1.846   0.994
26076W        W99144  14.513  35.831  12.082
26077W        W99145   2.790  12.481   1.891
26078W        W99146  14.329   6.215   2.290
26079W        W99147  17.066  24.973   1.749
26080W        W99148  19.463   9.494   5.053
26081W        W99149  17.744   4.866  13.492
26082W        W99150  38.830  20.685  13.136
26083W        W99151  33.318  26.275   2.327
26084W        W99152  22.155  28.550   3.291
26085W        W99153  26.697   0.363   1.886
26086W        W99154   4.754  34.835   2.386
26087W        W99155   1.874  38.394  10.962
26088W        W99156  15.476  26.937  11.091
26089W        W99157   9.298  12.354  13.313
26090W        W99158  31.542  24.783   1.947
26091W        W99159   9.778  28.145  12.970
26092W        W99160  41.085  29.864   3.079
26093W        W99161   7.723  34.327   0.806
26094W        W99162  16.688   3.896   2.147
26095W        W99163  28.005  41.070   0.448
26096W        W99164   5.806   4.932   3.868
26097W        W99165  25.511  18.480  13.406
26098W        W99166   8.077  16.686   2.623
26099W        W99167  17.095  30.115   1.476
26100W        W99168  17.525  17.672   4.423
26101W        W99169   8.436  42.583   3.697
26102W        W99170  39.808  35.442   1.321
26103W        W99171  25.114   0.909  13.316
26104W        W99172  44.352  18.607   0.710
26105W        W99173  37.417  43.882   1.734
26106W        W99174  10.871   6.914   2.284
26107W        W99175   9.804  39.380  12.439
26108W        W99176   7.491  11.666  13.558
26109W        W99177  38.016  13.204   4.426
26110W        W99178  10.867  12.218  13.354
26111W        W99179  34.441  26.235   2.729
26112W        W99180  42.437   5.767   2.389
26113W        W99181  37.499  21.768   3.815
26114W        W99182  34.074   9.881   3.217
26115W        W99183  18.052   4.073   2.917
26116W        W99184  27.237  38.794  12.026
26117W        W99185   9.938  21.782  14.282
26118W        W99186  42.254  33.377  12.397
26119W        W99187   6.397  40.472   2.276
26120W        W99188  39.269  22.642   1.692
26121W        W99189  20.298  26.700  14.463
26122W        W99190  27.140   6.563  14.711
26123W        W99191  32.943  43.565  13.357
26124W        W99192   2.485  25.693   3.247
26125W        W99193  14.575  24.761   4.505
26126W        W99194  42.693  31.108  14.422
26127W        W99195  10.356  20.678   0.885
26128W        W99196  28.163  37.559  11.587
26129W        W99197   8.824  12.442  13.506
26130W        W99198  43.185   1.964  10.994
26131W        W99199  38.552  36.488   0.441
26132W        W99200  44.975  34.687  11.197
26133W        W99201  17.218  17.184  14.536
26134W        W99202  32.953   3.751   0.478
26135W        W99203  11.238  25.689  13.265
26136W        W99204  13.359  14.273  13.853
26137W        W99205   7.651  34.464   1.782
26138W        W99206  36.579  24.641   3.709
26139W        W99207  35.048   9.899   2.299
26140W        W99208  30.940  27.753   2.299
26141W        W99209  15.722  28.416  13.928
26142W        W99210  11.487  43.948  13.066
26143W        W99211  27.434  33.371  11.243
26144W        W99212  31.130  28.710   1.991
26145W        W99213  31.623  11.029   1.252
26146W        W99214  17.238  40.033   4.023
26147W        W99215   1.756  16.594  12.567
26148W        W99216  16.098   2.820   2.634
26149W        W99217  13.732  21.308   0.534
26150W        W99218  40.385  27.849   1.906
26151W        W99219  26.742  21.741  12.929
26152W        W99220   3.093  22.477   0.535
26153W        W99221  16.646  15.286   2.146
26154W        W99222  12.342   8.861   5.024
26155W        W99223  24.843  37.005   4.635
26156W        W99224  40.142  38.300   0.345
26157W        W99225   9.761  30.836  13.371
26158W        W99226  26.762  20.993  14.597
26159W        W99227  23.288  17.514  12.018
26160W        W99228  13.107  41.938   4.705
26161W        W99229   3.672  10.807   1.773
26162W        W99230  27.586  21.621  12.339
26163W        W99231  43.795  17.193  14.062
26164W        W99232  11.312   6.600  11.061
26165W        W99233  16.193  27.512   1.820
26166W        W99234  38.552  10.838  13.552
26167W        W99235   1.501  41.754  12.435
26168W        W99236  25.201   3.309  11.448
26169W        W99237  22.976   2.129  13.446
26170W        W99238  25.919  29.237  11.610
26171W        W99239  39.808  34.586   3.152
26172W        W99240  40.580  40.997   3.112
26173W        W99241  31.991  22.005   1.831
26174W        W99242   5.432  15.577   0.932
26175W        W99243  20.651  26.452  10.905
26176W        W99244  40.003  26.821   3.151
26177W        W99245  31.480  39.181  12.372
26178W        W99246  43.773  24.291   0.794
26179W        W99247   2.945  31.149  14.365
26180W        W99248  18.585  44.942   4.202
26181W        W99249  21.010  20.578   5.011
26182W        W99250  26.580  44.004  12.421
26183W        W99251  30.213  25.197   2.546
26184W        W99252  27.562  23.475   1.876
26185W        W99253   1.038  40.529   1.997
26186W        W99254  39.810   5.157  11.943
26187W        W99255  33.724   4.502   3.260
26188W        W99256   2.369   1.239   3.865
26189W        W99257  10.329  24.455  11.436
26190W        W99258  37.038  19.618   1.013
26191W        W99259  21.228  24.729   0.446
26192W        W99260  14.633   4.936   1.257
26193W        W99261  31.171  25.110   4.136
26194W        W99262  31.722  18.647  14.837
26195W        W99263  29.606  29.128  14.972
26196W        W99264  39.036  27.804   1.362
26197W        W99265  25.115   1.916  14.222
26198W        W99266   5.019  26.657   0.294
26199W        W99267  26.548  31.492  13.564
26200W        W99268  36.482  24.668   4.236
26201W        W99269   5.750  10.151   3.833
26202W        W99270  19.204  35.867   4.172
26203W        W99271   9.398  40.492   3.194
26204W        W99272  13.268  23.806  12.602
26205W        W99273  12.779  37.392  13.987
26206W        W99274   1.320  22.860  14.951
26207W        W99275  18.285  41.758   2.792
26208W        W99276  22.545  24.937   1.907
26209W        W99277  11.137  35.130   3.153
26210W        W99278   8.699  41.262  12.013
26211W        W99279  28.112  18.180  12.426
26212W        W99280   0.264  26.893  14.850
26213W        W99281  37.667  31.378  13.803
26214W        W99282   5.408  16.818   4.658
26215W        W99283  43.244  22.959   0.859
26216W        W99284  34.537  25.259   4.899
26217W        W99285  37.476  22.694   4.761
26218W        W99286   9.103  15.636  10.165
26219W        W99287   9.694  23.683  11.515
26220W        W99288  37.410  19.048  11.591
26221W        W99289  31.284  43.661  11.063
26222W        W99290  16.252   3.806   3.106
26223W        W99291  25.304  16.715   1.846
26224W        W99292  16.326  32.900  13.184
26225W        W99293  23.166  14.355   1.326
26226W        W99294  12.162  37.243  12.908
26227W        W99295   5.023  15.280   0.805
26228W        W99296  17.176  27.956   1.886
26229W        W99297  17.707  35.101   1.727
26230W        W99298  18.376  30.424  12.777
26231W        W99299   4.743  22.677  13.247
26232W        W99300  26.715  19.097   0.926
26233W        W99301  20.299  25.802   2.106
26234W        W99302  41.939  42.251   1.958
26235W        W99303   9.636  39.620  14.168
26236W        W99304  28.313  23.582   0.422
26237W        W99305  25.293   4.161   1.983
26238W        W99306  15.849  20.130  14.778
26239W        W99307  29.128  42.095  10.657
26240W        W99308  23.822  41.108   1.415
26241W        W99309  10.205  36.556   3.091
26242W        W99310  32.007  15.852   1.702
26243W        W99311   5.733  22.536   2.677
26244W        W99312  38.535  21.265  14.324
26245W        W99313   2.326  34.787  14.240
26246W        W99314  25.477  36.518   1.674
26247W        W99315  36.174  40.835  11.222
26248W        W99316  44.100  12.830   2.239
26249W        W99317   7.701  39.166   1.286
26250W        W99318  43.389  41.345  12.566
26251W        W99319  12.918  28.733   3.241
26252W        W99320  26.708  32.573   1.202
26253W        W99321   4.835  39.758  12.896
26254W        W99322  10.153  10.329   3.138
26255W        W99323  30.075  30.408   2.773
26256W        W99324  36.473  32.890  10.605
26257W        W99325  10.453  17.289  11.720
26258W        W99326  32.239  18.706  14.669
26259W        W99327  25.427  19.673  13.221
26260W        W99328  28.625  39.779  12.122
26261W        W99329  45.000  34.007   2.668
26262W        W99330  28.608  21.733   2.402
26263W        W99331  22.358  40.337  12.072
26264W        W99332  23.932  24.000   4.689
26265W        W99333  33.859  21.164   2.784
26266W        W99334  19.979  13.098  13.492
26267W        W99335   3.413  40.587  10.403
26268W        W99336   9.625  17.337  12.236
26269W        W99337   6.955  21.122   1.991
26270W        W99338  38.993   7.866  11.395
26271W        W99339  23.723  44.311   0.440
26272W        W99340  11.133  17.271  13.844
26273W        W99341  14.184  11.601   0.401
26274W        W99342   7.309  18.521  11.598
26275W        W99343  31.640  38.508  13.141
26276W        W99344  22.219  31.229   1.257
26277W        W99345  13.729  31.941  13.452
26278W        W99346  12.824  26.647   1.240
26279W        W99347   7.331   5.832   4.014
26280W        W99348  19.018  24.840  13.467
26281W        W99349  21.800  27.483   1.921
26282W        W99350   7.873   1.224   1.909
26283W        W99351  16.771  29.521   1.709
26284W        W99352  39.150  33.521  12.869
26285W        W99353   3.008  26.466  11.038
26286W        W99354  20.006  31.517  10.633
26287W        W99355  39.857   4.883   4.614
26288W        W99356  26.376  19.923   3.440
26289W        W99357  16.054   0.396  13.902
26290W        W99358   4.698   3.235  10.515
26291W        W99359  43.922  11.336  14.571
26292W        W99360  26.059  36.440   2.229
26293W        W99361  41.418  28.054   4.389
26294W        W99362  16.048  41.371  11.099
26295W        W99363  22.569  44.451  12.121
26296W        W99364   0.436  33.790   4.792
26297W        W99365  30.729  34.548   3.630
26298W        W99366   2.970  43.955   2.432
26299W        W99367  25.098  43.227   1.847
26300W        W99368  39.730   0.505  10.316
26301W        W99369  21.671  17.009  13.232
26302W        W99370  21.585   2.828  10.540
26303W        W99371  36.152  14.844   4.912
26304W        W99372  19.840  41.780   1.436
26305W        W99373  25.508   0.339   2.751
26306W        W99374  17.365   8.304  12.776
26307W        W99375  33.460   3.234   2.149
26308W        W99376  31.779  26.452   3.519
26309W        W99377  43.374  30.690   4.443
26310W        W99378  16.053  27.533  14.985
26311W        W99379  42.990   7.324   2.462
26312W        W99380  34.972  26.185   2.595
26313W        W99381  21.924  35.780  12.643
26314W        W99382  31.045  43.277   3.193
26315W        W99383  35.296  30.867   1.294
26316W        W99384  23.992  13.113   0.884
26317W        W99385  32.056  29.529   3.586
26318W        W99386  36.353  38.003   3.900
26319W        W99387  39.281  36.605  11.041
26320W        W99388  11.206   6.771  14.803
26321W        W99389  23.460  27.921  11.274
26322W        W99390   8.190  22.490   3.406
26323W        W99391  39.316  28.864   4.542
26324W        W99392  26.720  13.537  11.466
26325W        W99393  28.388  11.699   4.306
26326W        W99394  10.828  15.080   4.070
26327W        W99395  19.624   2.723   4.028
26328W        W99396  23.742   1.557   2.223
26329W        W99397  10.058  39.424   2.283
26330W        W99398  29.690  38.940  11.988
26331W        W99399  30.200  36.681  14.425
26332W        W99400  30.885   8.786  13.266
26333W        W99401  14.374  17.563   2.081
26334W        W99402  21.036   3.129   0.430
26335W        W99403   6.741  41.611  10.983
26336W        W99404  13.853   7.131   1.267
26337W        W99405  23.505  15.300  13.926
26338W        W99406   8.676  38.873   1.284
26339W        W99407  24.680   6.124  11.292
26340W        W99408  44.679  13.025  14.398
26341W        W99409  34.701  31.939   4.172
26342W        W99410  40.006  29.106  14.933
26343W        W99411  21.762   2.368   1.120
26344W        W99412  27.471  29.948  11.131
26345W        W99413  26.621  25.054  10.801
26346W        W99414  27.026  17.593   1.198
26347W        W99415   6.115  10.950   0.525
26348W        W99416  27.586  26.652  13.252
26349W        W99417  17.152  18.048  11.027
26350W        W99418   0.845  14.608   4.703
26351W        W99419  16.218  12.191  11.931
26352W        W99420  39.343  37.545   0.892
26353W        W99421  24.572  16.827  12.106
26354W        W99422  29.315  42.850   0.544
26355W        W99423  33.876   8.675  11.159
26356W        W99424  41.715  38.437  12.374
26357W        W99425  38.386  23.995  13.613
26358W        W99426  33.189  13.312   2.273
26359W        W99427   5.060  22.319   0.376
26360W        W99428  30.755   7.144  11.744
26361W        W99429   9.290  20.889  13.071
26362W        W99430  36.484  31.466  10.719
26363W        W99431  35.271  42.144   0.740
26364W        W99432  20.676   8.696  10.614
26365W        W99433  10.712  21.102  13.426
26366W        W99434  32.677   7.377  14.322
26367W        W99435  27.414  31.989   2.374
26368W        W99436  35.500   6.273   0.194
26369W        W99437  32.912  40.557  14.541
26370W        W99438   6.695  39.725   2.676
26371W        W99439  34.055   3.007   0.044
26372W        W99440  44.929  26.192   3.951
26373W        W99441  22.223  43.575  13.568
26374W        W99442  15.619  42.032  11.131
26375W        W99443  39.486  25.481   4.036
26376W        W99444  36.303  17.840  13.360
26377W        W99445  10.116  23.052  12.859
26378W        W99446  24.482  26.639  11.080
26379W        W99447  30.616  14.296   2.642
26380W        W99448  14.350  31.194  14.824
26381W        W99449  42.797  44.317  12.429
26382W        W99450  11.071   9.212   4.895
26383W        W99451  24.749  40.979  11.548
26384W        W99452   1.876  10.726   3.148
26385W        W99453  17.217  37.842   2.190
26386W        W99454  26.559  29.077   4.275
26387W        W99455  20.761  43.309   5.014
26388W        W99456  30.810  33.488  12.127
26389W        W99457  43.718  43.385  12.533
26390W        W99458   4.331  25.727   4.167
26391W        W99459  41.052   7.334  13.315
26392W        W99460   1.855  29.015   2.322
26393W        W99461  35.109  23.977  13.326
26394W        W99462  13.968  10.635  14.869
26395W        W99463  20.811  44.227  12.403
26396W        W99464  16.179  33.622   3.910
26397W        W99465  21.224  32.505  12.021
26398W        W99466   4.358   4.646   1.273
26399W        W99467  44.846  23.977   3.304
26400W        W99468  21.382  23.941  13.407
26401W        W99469  19.229   2.743  12.623
26402W        W99470  34.906  38.103  12.892
26403W        W99471   8.568  36.106   3.364
26404W        W99472  21.062  30.942  13.150
26405W        W99473  43.918  29.424  12.104
26406W        W99474   7.664  35.855   1.762
26407W        W99475  15.822  12.743   4.668
26408W        W99476  35.965  30.681   2.821
26409W        W99477  21.265  42.784   4.740
26410W        W99478   1.329  39.945  12.082
26411W        W99479  16.282   8.876   3.044
26412W        W99480  20.698  24.440  14.284
26413W        W99481  36.020  41.785   2.619
26414W        W99482  13.931   8.342  13.409
26415W        W99483  38.895  43.800  12.694
26416W        W99484  10.396  34.949   1.172
26417W        W99485  18.632  24.957   2.819
26418W        W99486  42.635  18.021   0.886
26419W        W99487  17.600  25.254  10.712
26420W        W99488  26.030  15.256   2.435
26421W        W99489   9.521  40.528  10.553
26422W        W99490  11.776  32.981   0.066
26423W        W99491   0.336   9.337  11.650
26424W        W99492  34.481  35.340   3.652
26425W        W99493   4.312  40.369  11.616
26426W        W99494  11.626  11.281  14.571
26427W        W99495  44.282  28.423   0.313
26428W        W99496  15.339   0.427  12.117
26429W        W99497  19.680   5.828  14.590
26430W        W99498  11.199  29.042  11.960
26431W        W99499  17.778  40.809  12.604
26432W        W99500  18.170  30.985   2.123
26433W        W99501  19.077  34.861   1.466
26434W        W99502  33.382  44.160   4.401
26435W        W99503  26.050  19.946   2.458
26436W        W99504  42.152   3.752  13.933
26437W        W99505  15.313  38.360  14.850
26438W        W99506  44.422   1.127  10.844
26439W        W99507  25.548  33.494  13.298
26440W        W99508  29.572  15.629  12.427
26441W        W99509  43.730   3.844   2.421
26442W        W99510  28.493  44.817  11.901
26443W        W99511  21.723  30.500   0.290
26444W        W99512  25.566  36.677  12.441
26445W        W99513  34.393  44.442  12.711
26446W        W99514   3.380  21.443   1.374
26447W        W99515   1.824  23.180   2.906
26448W        W99516   3.807  27.070   0.870
26449W        W99517  37.029  35.975  10.636
26450W        W99518  35.073  30.873  14.304
26451W        W99519  25.920   5.262   0.459
26452W        W99520  40.776  39.069  13.064
26453W        W99521  22.140  22.510   2.773
26454W        W99522  24.199  27.756  10.695
26455W        W99523  22.750  16.978  14.377
26456W        W99524   7.227  17.495   3.930
26457W        W99525  15.825  41.794  12.513
26458W        W99526  12.084  43.543  12.230
26459W        W99527  13.817  37.573  11.103
26460W        W99528  30.466  18.933   2.240
26461W        W99529  37.065  20.332   4.536
26462W        W99530   9.114  10.354  10.703
26463W        W99531  18.377   8.192  14.830
26464W        W99532  17.213   8.116   2.151
26465W        W99533  43.326  26.039  10.734
26466W        W99534  28.067  36.108   3.273
26467W        W99535  15.209  32.943  13.853
26468W        W99536   3.905  18.186  12.557
26469W        W99537  36.145  20.274  14.715
26470W        W99538   2.071  25.180   0.803
26471W        W99539  28.790  19.780  14.889
26472W        W99540  16.117  21.114  12.592
26473W        W99541   0.923  11.509  10.632
26474W        W99542  12.222  22.296  10.874
26475W        W99543  23.222   7.848  12.173
26476W        W99544  38.133  33.100   2.773
26477W        W99545  39.822  10.323  10.746
26478W        W99546  13.509  13.226   0.243
26479W        W99547  19.087   9.793  11.445
26480W        W99548  37.957  20.776   1.848
26481W        W99549  39.438  43.312   2.857
26482W        W99550  32.605   0.334   0.677
26483W        W99551   6.934  27.676   4.498
26484W        W99552  28.155   5.624  12.996
26485W        W99553  24.988  32.205   2.834
26486W        W99554  24.168   2.967   1.178
26487W        W99555   6.350   5.910   2.830
26488W        W99556  39.871  27.433   0.458
26489W        W99557   4.980  19.818  14.010
26490W        W99558   5.270  17.808  12.169
26491W        W99559  17.733  33.527  11.642
26492W        W99560   5.392  30.419  14.965
26493W        W99561  24.211  19.125  13.079
26494W        W99562  16.541  29.440  10.676
26495W        W99563  18.063  18.627   1.959
26496W        W99564  35.561  25.655   2.914
26497W        W99565  13.134  14.257   4.043
26498W        W99566   9.669  21.126  13.503
26499W        W99567  11.284  14.802  12.884
26500W        W99568  23.212  35.922  10.569
26501W        W99569  32.481   7.447   2.882
26502W        W99570  32.685  40.538  13.022
26503W        W99571  17.037  21.292  13.359
26504W        W99572   6.621  38.341   1.802
26505W        W99573  36.587  20.473   1.930
26506W        W99574  32.882  41.954   1.647
26507W        W99575  35.023  39.467  10.693
26508W        W99576   4.887  39.484  12.079
26509W        W99577  36.655  16.065   2.967
26510W        W99578   6.295  14.096  10.292
26511W        W99579  16.122  30.445  14.926
26512W        W99580  17.647  30.181   4.722
26513W        W99581  12.134  22.987   0.819
26514W        W99582  35.966  28.411  11.145
26515W        W99583  24.509  26.485  11.943
26516W        W99584  24.086  17.196   3.690
26517W        W99585  15.700  17.759  11.964
26518W        W99586  37.511  14.639  12.988
26519W        W99587  22.799  28.701   4.038
26520W        W99588  12.384  40.988   4.095
26521W        W99589  13.799  24.569   1.658
26522W        W99590   8.737  13.716  13.580
26523W        W99591  34.729  12.267   1.257
26524W        W99592  28.345  31.652  12.988
26525W        W99593  20.793  16.794   2.244
26526W        W99594   7.197  24.837   4.695
26527W        W99595  25.159   1.056   4.920
26528W        W99596  24.949  38.394  12.078
26529W        W99597  28.194  17.045   2.443
26530W        W99598  22.658  24.546   4.616
26531W        W99599  33.081  32.614   0.391
26532W        W99600  20.310  10.327  13.355
26533W        W99601  38.527  26.885  12.525
26534W        W99602   7.771   0.983  14.046
26535W        W99603  36.563  13.690  14.182
26536W        W99604  12.580  19.542   3.484
26537W        W99605  41.938  42.656   4.258
26538W        W99606  16.821  20.318  13.448
26539W        W99607  19.088  16.140   3.604
26540W        W99608  21.762  42.903   4.810
26541W        W99609  34.524  28.733  14.824
26542W        W99610  22.510  14.148   2.399
26543W        W99611   4.774   8.623  10.241
26544W        W99612  35.061  28.841  13.894
26545W        W99613  33.696  18.068  11.480
26546W        W99614  15.542  15.100   3.771
26547W        W99615  36.986  14.859  12.033
26548W        W99616   9.644   9.167  10.546
26549W        W99617  40.688   4.886  14.314
26550W        W99618  27.964  34.126   3.002
26551W        W99619   4.964  42.949  11.393
26552W        W99620  21.619  34.362   1.676
26553W        W99621  39.508  20.212  14.480
26554W        W99622  24.055  10.970   1.777
26555W        W99623  23.222   9.881  14.827
26556W        W99624  37.720  11.744  13.332
26557W        W99625  14.663   6.361   3.703
26558W        W99626  35.038  42.039  13.454
26559W        W99627  13.319   5.980  11.406
26560W        W99628   0.479   2.548  12.103
26561W        W99629  12.200  14.771  13.400
26562W        W99630  43.211  27.608  12.904
26563W        W99631  36.971  20.903  11.583
26564W        W99632  33.407  33.108  14.883
26565W        W99633  43.433  24.915  11.590
26566W        W99634  20.723  29.156  14.455
26567W        W99635  44.252  24.684   2.212
26568W        W99636  14.793  38.485  14.311
26569W        W99637  38.337  30.679  13.521
26570W        W99638  39.531  37.408  11.916
26571W        W99639  29.199   7.321  14.391
26572W        W99640   2.149  13.627  13.140
26573W        W99641  16.576  11.212   0.828
26574W        W99642   6.979  25.034  14.979
26575W        W99643   3.729   6.318   2.631
26576W        W99644   2.783   9.312   0.984
26577W        W99645   1.435  19.192  14.345
26578W        W99646  42.950  28.175  10.691
26579W        W99647  36.774  37.780  11.551
26580W        W99648  16.019  21.732   0.350
26581W        W99649  41.717  32.928  11.147
26582W        W99650  14.698  40.353  13.768
26583W        W99651  22.242  42.316  12.964
26584W        W99652  12.045  21.925   1.645
26585W        W99653   3.428  34.388   3.975
26586W        W99654   6.930  23.214   2.308
26587W        W99655  33.993  43.189   4.648
26588W        W99656  33.408  41.019   2.922
26589W        W99657  14.059  22.201  13.292
26590W        W99658  12.715  14.667  13.386
26591W        W99659  10.369  15.401  10.680
26592W        W99660  29.537  41.488   2.965
26593W        W99661   2.529  13.725  14.415
26594W        W99662  14.569  44.764   0.451
26595W        W99663  27.796  25.719   4.051
26596W        W99664  28.518  13.813  12.038
26597W        W99665  27.436  14.766  14.920
26598W        W99666  31.972  27.585  14.931
26599W        W99667   0.969   1.023  11.060
26600W        W99668  14.719   7.257  13.530
26601W        W99669   7.211  44.835  14.570
26602W        W99670   9.391  16.870  10.626
26603W        W99671   2.916  18.456  12.698
26604W        W99672   7.814   0.501  14.420
26605W        W99673  22.790  12.671   2.216
26606W        W99674  17.284   5.688   2.642
26607W        W99675   5.364  21.480   3.272
26608W        W99676  35.626   9.881  13.644
26609W        W99677   4.757  33.644   1.252
26610W        W99678  44.522  12.152  11.986
26611W        W99679  25.641  11.735   1.700
26612W        W99680   9.189   0.444  12.984
26613W        W99681   8.450  41.799  14.419
26614W        W99682  26.385  10.394   4.523
26615W        W99683   2.983  20.665  13.532
26616W        W99684  41.072   1.522   3.297
26617W        W99685  28.188  23.281   4.649
26618W        W99686  40.132  44.482   0.424
26619W        W99687  39.250   9.269   2.575
26620W        W99688  43.904   1.370  13.060
26621W        W99689  33.921   1.999   4.638
26622W        W99690  43.410  37.770   1.693
26623W        W99691  37.424  11.346  13.040
26624W        W99692  27.249  15.719   2.787
26625W        W99693   5.906   0.730  13.056
26626W        W99694  42.066  20.693  11.566
26627W        W99695   3.034  33.418  10.765
26628W        W99696  23.776  40.224  10.244
26629W        W99697   3.981  28.939  10.682
26630W        W99698   1.249   4.332   2.783
26631W        W99699  16.586   9.334  14.056
26632W        W99700  36.340  25.179   0.980
26633W        W99701  18.747   2.708  11.578
26634W        W99702  31.413  20.553   4.974
26635W        W99703  30.066  39.485  13.137
26636W        W99704  27.108   5.257   1.445
26637W        W99705  28.589  16.038  13.856
26638W        W99706  37.466  11.466   0.559
26639W        W99707  37.517  22.249  13.253
26640W        W99708  30.948  36.326   5.278
26641W        W99709  39.129  11.837   0.832
26642W        W99710  30.140  36.882  13.527
26643W        W99711  23.270  25.162  12.141
26644W        W99712  30.653   5.873  13.623
26645W        W99713  15.560  34.072   3.141
26646W        W99714  12.846   2.352  13.479
26647W        W99715  27.425   5.191   0.471
26648W        W99716  27.350  25.117   4.070
26649W        W99717  44.845  36.613   1.284
26650W        W99718  33.588  31.990  11.051
26651W        W99719  13.436   9.745   3.671
26652W        W99720  35.282  12.212  11.139
26653W        W99721  36.580  44.534  12.092
26654W        W99722   4.206   6.613   3.531
26655W        W99723   6.447  44.852  11.084
26656W        W99724  34.711  18.294  11.161
26657W        W99725  34.909  42.784   2.393
26658W        W99726  22.271  43.778  12.056
26659W        W99727  24.415  42.447   4.257
26660W        W99728  15.671   2.913   4.350
26661W        W99729   3.779  39.116  14.303
26662W        W99730  20.009  33.440   4.577
26663W        W99731  15.809  38.221  13.614
26664W        W99732  17.112   8.477   2.640
26665W        W99733  42.799  40.723  12.097
26666W        W99734   7.112  40.732  13.436
26667W        W99735  21.789  11.786   0.756
26668W        W99736   1.233  26.446  12.144
26669W        W99737  18.508  10.428   0.255
26670W        W99738  19.237  18.537   4.132
26671W        W99739  16.208  42.523  13.892
26672W        W99740  18.490  11.310   0.570
26673W        W99741  14.119  23.198   2.826
26674W        W99742  29.990  23.633  11.989
26675W        W99743   4.956  30.576  14.763
26676W        W99744  30.974  13.795  12.827
26677W        W99745  17.579  35.297   3.112
26678W        W99746  40.840  43.143   4.687
26679W        W99747   0.428  32.655   4.130
26680W        W99748   8.267  44.467  13.020
26681W        W99749  27.003  42.401   0.963
26682W        W99750   0.413  12.075  12.401
26683W        W99751   9.324   5.370  14.904
26684W        W99752  14.938  35.867   0.233
26685W        W99753  11.247  28.878  13.395
26686W        W99754  31.908  32.977   3.767
26687W        W99755  41.034  22.583  14.228
26688W        W99756   3.397  43.703  13.817
26689W        W99757  43.518  43.246   0.332
26690W        W99758   6.480  39.967   2.268
26691W        W99759  38.021  38.980  12.545
26692W        W99760  34.662  25.510  14.798
26693W        W99761   9.122  24.435   0.333
26694W        W99762  43.384   6.262  12.901
26695W        W99763   5.167  34.851  13.489
26696W        W99764  19.193  30.335   3.716
26697W        W99765   2.792  32.890  13.481
26698W        W99766  15.985  36.933  10.354
26699W        W99767  37.118  19.090   4.493
26700W        W99768  16.203  24.733   1.253
26701W        W99769   3.409  20.667  11.247
26702W        W99770  30.886  20.201  14.006
26703W        W99771  30.067  22.696  11.666
26704W        W99772  12.726   7.468  14.569
26705W        W99773   0.200   0.497   1.299
26706W        W99774  24.179  28.259  10.503
26707W        W99775   9.406  37.810   2.857
26708W        W99776  18.607  43.984   3.795
26709W        W99777  12.757  42.036  14.968
26710W        W99778  11.607   1.409   0.867
26711W        W99779  26.084  13.937  12.987
26712W        W99780  28.131  16.004   0.400
26713W        W99781   5.246  16.695  14.106
26714W        W99782  40.719  11.062   1.212
26715W        W99783  27.545  35.017  12.395
26716W        W99784   5.241  27.907  11.712
26717W        W99785  27.155  20.636  14.682
26718W        W99786  38.476  36.373   4.082
26719W        W99787  13.568   9.763   4.500
26720W        W99788  13.788   4.242  12.496
26721W        W99789  25.059  42.054   3.670
26722W        W99790  13.559  20.122  13.292
26723W        W99791  18.678  43.793  12.104
26724W        W99792  20.920  37.459   3.238
26725W        W99793  20.181  11.178   3.871
26726W        W99794  10.327   9.856  12.127
26727W        W99795   9.752   9.608   2.328
26728W        W99796  36.809   4.075  10.682
26729W        W99797   2.330  25.241   1.238
26730W        W99798   7.481   9.121  14.001
26731W        W99799   3.862   7.172  11.250
26732W        W99800  39.242  18.787   4.611
26733W        W99801   7.627  29.642  14.955
26734W        W99802  33.201   5.069  10.029
26735W        W99803  42.845   5.204   3.709
26736W        W99804  39.336  44.397  14.741
26737W        W99805  26.512  10.874  13.973
26738W        W99806   7.616   8.201   2.433
26739W        W99807   8.056  26.522  12.409
26740W        W99808  25.413  35.907  10.425
26741W        W99809  23.199   9.175   0.470
26742W        W99810  25.785  22.203   2.957
26743W        W99811   8.759  27.171  11.229
26744W        W99812  10.199  25.504   4.057
26745W        W99813   2.694  39.728  13.366
26746W        W99814   6.976  43.410  10.627
26747W        W99815  16.338  18.254   3.610
26748W        W99816   7.444   1.689  13.404
26749W        W99817  11.506  13.820   1.722
26750W        W99818   7.950  38.226   4.596
26751W        W99819  39.155  26.845   2.858
26752W        W99820  34.887  28.866  13.395
26753W        W99821  22.564  31.221  12.500
26754W        W99822  28.044  36.899   1.252
26755W        W99823  37.564  40.444   3.746
26756W        W99824   2.965  22.983   1.958
26757W        W99825  20.017  44.938  12.862
26758W        W99826  23.146  27.135  12.011
26759W        W99827  21.444   3.869   3.693
26760W        W99828  19.372  26.097  12.446
26761W        W99829  11.047   9.314  10.667
26762W        W99830   2.482  23.118   1.029
26763W        W99831  32.419   5.689  11.181
26764W        W99832  10.638  41.804  13.948
26765W        W99833   0.272  17.189   1.837
26766W        W99834  15.818   6.227   0.415
26767W        W99835  14.721  13.593  10.753
26768W        W99836   4.212  26.457  12.590
26769W        W99837  20.469  34.275   3.175
26770W        W99838  31.171  23.650   0.799
26771W        W99839  22.109  10.230  14.558
26772W        W99840   9.722  20.305   2.768
26773W        W99841  24.411  40.040  10.012
26774W        W99842  29.451  13.322  12.774
26775W        W99843  40.415   6.774  14.495
26776W        W99844   4.313  16.679  14.418
26777W        W99845  21.289  13.485  13.123
26778W        W99846  43.933   1.351  11.720
26779W        W99847  42.349  37.432   2.225
26780W        W99848   1.478  15.790   1.735
26781W        W99849  11.803  32.166  14.679
26782W        W99850  33.561  29.424   1.761
26783W        W99851   3.542  40.142   0.266
26784W        W99852  40.345   5.494   0.664
26785W        W99853  34.027  33.996   3.747
26786W        W99854  13.736  14.487   4.777
26787W        W99855   5.323  31.439   2.867
26788W        W99856   3.865  12.789  11.531
26789W        W99857  20.648   1.663  11.674
26790W        W99858  13.104  23.559  12.181
26791W        W99859  37.973  27.390  11.067
26792W        W99860   5.339  11.911  11.460
26793W        W99861  20.395  44.354  14.338
26794W        W99862  39.225   6.794   3.550
26795W        W99863  43.291  38.417  13.404
26796W        W99864  38.955  27.068  13.696
26797W        W99865  44.425  20.566   4.017
26798W        W99866  19.353  22.826  13.055
26799W        W99867   0.929  29.436   0.504
26800W        W99868  18.095  15.301  13.432
26801W        W99869   2.200  43.284   1.874
26802W        W99870  10.106  34.033  14.999
26803W        W99871  35.480  14.337   1.437
26804W        W99872  44.061  14.122   2.759
26805W        W99873   1.390   5.707   2.628
26806W        W99874  37.782  27.446   0.050
26807W        W99875  34.062  34.908  10.060
26808W        W99876  17.595  33.099  13.518
26809W        W99877   2.955  20.023   1.641
26810W        W99878  12.760  39.888   4.618
26811W        W99879  15.310   8.163   0.288
26812W        W99880  12.663  42.508   4.904
26813W        W99881  13.685  13.588  13.962
26814W        W99882  13.157  31.116  11.128
26815W        W99883  32.087  35.287   5.130
26816W        W99884   4.472  23.646  13.464
26817W        W99885   3.637  10.317   3.294
26818W        W99886   7.116  13.808   0.429
26819W        W99887   2.776   3.835   1.349
26820W        W99888  32.511  12.417  11.190
26821W        W99889   4.709  27.030  13.086
26822W        W99890  14.009  23.652   0.020
26823W        W99891  32.806   9.197  14.513
26824W        W99892  40.561   7.438   4.226
26825W        W99893  15.712  17.130  13.950
26826W        W99894   1.469  24.933  11.656
26827W        W99895  19.885  17.901   4.888
26828W        W99896  14.365   0.707   3.989
26829W        W99897   8.297  15.657  10.617
26830W        W99898  17.746  25.038  11.680
26831W        W99899  28.618   4.233  13.409
26832W        W99900  39.602  21.201  12.257
26833W        W99901  13.326  22.087  13.888
26834W        W99902  30.064   0.784   1.754
26835W        W99903  18.457  22.326  13.292
26836W        W99904   0.654  41.043  10.496
26837W        W99905  16.808   2.329  12.810
26838W        W99906   7.875  15.881   0.738
26839W        W99907  11.050  35.982   0.023
26840W        W99908  43.107  40.435   4.184
26841W        W99909  40.181   8.240  13.308
26842W        W99910  12.169  37.962  14.508
26843W        W99911  25.047  25.461   1.334
26844W        W99912  37.044  14.269   0.747
26845W        W99913  14.894  30.436  12.121
26846W        W99914   2.214  19.596  11.122
26847W        W99915   9.796  30.015   2.449
26848W        W99916  36.446  40.606   5.095
26849W        W99917   3.263  32.956   1.394
26850W        W99918  32.225  32.530   3.727
26851W        W99919   2.232  22.087  14.149
26852W        W99920  20.402  24.719   3.331
26853W        W99921  19.739  31.990   2.799
26854W        W99922  34.367  29.679  13.282
26855W        W99923  13.002   4.785  11.608
26856W        W99924  39.724  11.835  10.666
26857W        W99925  31.453  39.105  14.962
26858W        W99926  11.684   2.295  13.883
26859W        W99927  25.249   6.908  13.052
26860W        W99928  32.146  28.105   3.664
26861W        W99929  30.637  11.162  11.151
26862W        W99930  37.927  12.707  14.493
26863W        W99931  41.084  36.537  11.841
26864W        W99932   7.861  20.464   2.648
26865W        W99933  31.653  19.136  10.688
26866W        W99934  41.892  31.181  13.374
26867W        W99935  44.436  20.997   0.993
26868W        W99936  13.695  26.124   4.056
26869W        W99937  29.761  37.971  11.962
26870W        W99938  10.127  25.262  14.765
26871W        W99939  24.185   4.327  13.485
26872W        W99940  17.016  29.975   2.859
26873W        W99941   1.452  36.894  14.939
26874W        W99942  40.353  19.753   3.366
26875W        W99943  32.926  31.703  13.451
26876W        W99944  31.951  10.235  13.498
26877W        W99945  18.827   1.900  11.967
26878W        W99946  18.774  14.146  14.219
26879W        W99947   7.669   0.274  10.771
26880W        W99948  26.481  30.051   1.141
26881W        W99949  30.367   9.380  13.889
26882W        W99950  29.419   1.347   2.417
26883W        W99951  20.784  23.952   3.804
26884W        W99952  38.539  10.448  12.572
26885W        W99953  43.794  38.262   4.773
26886W        W99954   2.803  21.044   4.179
26887W        W99955   5.731  37.720  12.745
26888W        W99956  36.100  19.329   3.211
26889W        W99957  30.671  39.102   2.189
26890W        W99958   2.285  27.379   0.904
26891W        W99959  39.977  43.203   2.864
26892W        W99960   9.585  43.730  13.325
26893W        W99961  39.530  44.012  12.929
26894W        W99962  35.365  37.417   4.401
26895W        W99963   6.086  27.863   3.714
26896W        W99964  18.589  31.635  10.824
26897W        W99965  14.737  15.261  12.982
26898W        W99966  16.793  16.764  14.303
26899W        W99967  24.315   6.274   4.604
26900W        W99968  13.604   7.226  11.680
26901W        W99969  25.243   4.257  11.390
26902W        W99970  44.320  22.820  12.323
26903W        W99971  15.140  17.665   3.248
26904W        W99972  20.689   0.971   0.236
26905W        W99973  11.399  34.552  12.540
26906W        W99974  41.403  21.359  10.250
26907W        W99975  35.238  17.264   3.197
26908W        W99976  15.689  28.290   5.049
26909W        W99977  11.320  37.184   1.310
26910W        W99978  43.734  14.124   3.648
26911W        W99979   1.353  22.561  14.163
26912W        W99980  38.307  14.766  11.711
26913W        W99981  18.436  21.792  14.091
26914W        W99982  14.444  29.480  14.267
26915W        W99983   4.267  18.716   4.331
26916W        W99984  31.056  36.096   4.292
26917W        W99985  17.046   0.935  14.519
26918W        W99986  36.069   5.668  14.011
26919W        W99987  20.814  27.490  10.892
26920W        W99988  11.828  27.541  14.915
26921W        W99989  14.812   8.964   2.695
26922W        W99990   1.045   1.729   5.042
26923W        W99991  30.640  20.341  14.439
26924W        W99992   2.701  22.671   0.260
26925W        W99993  29.919  41.131   3.680
26926W        W99994  32.442   1.657   0.743
26927W        W99995   3.474  17.309  13.384
26928W        W99996   1.478  39.780  14.454
26929W        W99997  42.270  16.630  10.460
26930W        W99998  16.616  41.137  13.095
26931W        W99999   0.825  20.292  12.095
26932W        W    0  24.321  32.597  12.929
26933W        W    1  23.541  14.247  13.836
26934W        W    2  25.452   5.324   3.673
26935W        W    3  17.018  11.743   4.551
26936W        W    4  40.606  44.281   3.536
26937W        W    5  13.858  38.526   0.290
26938W        W    6  43.022  43.869   0.248
26939W        W    7  23.573  25.377  10.962
26940W        W    8  38.036  39.337  14.274
26941W        W    9  29.486  19.094  14.918
26942W        W   10  41.216  42.816  14.571
26943W        W   11  23.963   1.510   1.302
26944W        W   12  17.639  18.064   4.740
26945W        W   13   3.976  18.221   0.442
26946W        W   14  10.246   6.174   1.268
26947W        W   15   2.876  22.180   1.502
26948W        W   16  21.707   2.449   2.794
26949W        W   17   4.437  25.613  10.711
26950W        W   18  43.398  37.112  13.102
26951W        W   19  18.315  11.399  14.192
26952W        W   20  11.152   0.245  10.688
26953W        W   21   1.127  35.955   1.775
26954W        W   22  28.208   4.311  14.379
26955W        W   23  21.714  23.662   0.031
26956W        W   24  13.337  42.256   3.654
26957W        W   25   0.309  42.013  13.821
26958W        W   26  16.086   0.560   1.866
26959W        W   27  19.163  19.286  14.453
26960W        W   28  12.298  13.250   3.280
26961W        W   29  28.574  34.529   1.356
26962W        W   30  18.792  40.420  12.744
26963W        W   31  41.350   0.352  13.027
26964W        W   32  19.752  20.080  12.475
26965W        W   33   8.213  24.625  10.978
26966W        W   34  35.928  30.153  13.450
26967W        W   35  25.656  21.117   1.322
26968W        W   36  29.304  23.383   4.933
26969W        W   37  25.200  16.314  11.549
26970W        W   38  16.098   1.939  12.350
26971W        W   39  29.002  36.113  13.877
26972W        W   40  11.097  34.641   0.849
26973W        W   41   5.252  10.599  13.887
26974W        W   42  31.368  36.518   3.079
26975W        W   43  38.786  23.670   1.736
26976W        W   44  18.660  21.127  10.608
26977W        W   45   4.483  18.010   4.575
26978W        W   46  38.750  42.733   2.331
26979W        W   47  36.086  38.255   4.285
26980W        W   48  40.163  35.346  12.433
26981W        W   49  30.954  43.298  12.989
26982W        W   50  30.638   1.329  13.408
26983W        W   51   6.338  38.003   4.150
26984W        W   52  12.033  14.812   0.534
26985W        W   53  41.960  40.872   3.581
26986W        W   54   5.924  29.996   1.875
26987W        W   55  43.379  15.090  13.335
26988W        W   56  37.997   2.424   0.320
26989W        W   57  26.661  19.231  13.911
26990W        W   58  17.038   0.893  12.483
26991W        W   59  33.541  19.194  13.536
26992W        W   60   4.603  26.758   1.696
26993W        W   61  15.293  35.844  11.667
26994W        W   62  16.835  39.563   1.912
26995W        W   63  26.011  36.817   3.646
26996W        W   64   1.183  12.737  12.261
26997W        W   65  40.419  15.351   0.421
26998W        W   66  26.511  41.223  11.627
26999W        W   67  16.230   5.646   1.426
27000W        W   68  18.542  26.799   3.561
27001W        W   69  28.480  33.484   0.165
27002W        W   70  34.009  34.970   3.440
27003W        W   71  33.173  28.541   3.719
27004W        W   72  41.368  18.035   2.444
27005W        W   73  38.162  35.402   1.581
27006W        W   74  41.598  37.325   3.728
27007W        W   75  36.013  12.250  12.183
27008W        W   76  43.980   0.008  11.580
27009W        W   77  43.527   4.144  10.624
27010W        W   78   3.985  43.018  11.996
27011W        W   79   6.488  35.547  11.916
27012W        W   80  12.688   6.215   3.455
27013W        W   81  11.234  40.320   2.243
27014W        W   82   9.687  18.147  10.053
27015W        W   83  18.009   2.856   1.910
27016W        W   84  38.041  41.895  11.212
27017W        W   85  38.548  12.373  10.713
27018W        W   86  12.103  28.005   0.799
27019W        W   87  11.815   8.633   2.894
27020W        W   88  19.904  16.059  14.929
27021W        W   89  40.968  21.987   3.199
27022W        W   90   7.779  23.819  13.421
27023W        W   91  36.818  23.262  14.799
27024W        W   92  11.836  22.449  11.291
27025W        W   93  32.634  12.342  12.555
27026W        W   94  16.559  15.792   1.226
27027W        W   95  33.045   4.005  11.561
27028W        W   96  36.995  42.495  14.792
27029W        W   97  32.332  28.497   3.351
27030W        W   98   2.744  31.395  13.051
27031W        W   99   0.212  25.582   4.279
27032W        W  100  25.659   3.460   4.523
27033W        W  101  30.002  42.265  14.194
27034W        W  102  20.236  43.932  12.041
27035W        W  103  35.399  28.677   3.595
27036W        W  104  10.796   2.995   4.671
27037W        W  105  15.783  23.350  11.950
27038W        W  106  37.606  21.228   3.507
27039W        W  107  40.284  11.959   3.210
27040W        W  108  24.023  16.602   4.492
27041W        W  109  42.873  20.679   1.824
27042W        W  110   2.262  38.571  11.586
27043W        W  111  12.654   1.763  10.754
27044W        W  112  27.239  38.795  13.340
27045W        W  113  42.851   2.960  13.429
27046W        W  114   6.169  40.809  12.625
27047W        W  115  18.306  29.032   2.454
27048W        W  116   1.222   9.372  11.180
27049W        W  117  12.063  17.870   4.234
27050W        W  118  13.903   7.353  13.094
27051W        W  119  24.519  21.599  10.471
27052W        W  120  24.123  14.954  12.956
27053W        W  121   9.772   1.579   1.523
27054W        W  122  28.455   3.675   4.660
27055W        W  123   8.275   1.820   3.121
27056W        W  124  40.708  43.542   1.353
27057W        W  125  22.777   0.915  10.996
27058W        W  126   0.774  32.342  12.529
27059W        W  127  19.223   3.016  11.681
27060W        W  128  36.060  21.750  12.947
27061W        W  129  14.683  29.690  10.671
27062W        W  130  30.231  36.393  11.018
27063W        W  131  28.126  14.130  13.290
27064W        W  132  25.506  44.696  10.711
27065W        W  133  32.828  16.837   3.235
27066W        W  134  19.170  40.058   2.690
27067W        W  135  39.939   9.422  12.423
27068W        W  136   2.950   1.070   2.692
27069W        W  137  24.815   2.232  13.170
27070W        W  138  14.641  10.965   3.007
27071W        W  139   1.859  21.566   4.576
27072W        W  140  35.963   4.425   4.091
27073W        W  141  27.473  39.731   3.697
27074W        W  142  36.634   6.972  11.148
27075W        W  143  41.946  20.238  10.770
27076W        W  144   0.909  13.095   2.347
27077W        W  145  28.466  23.857  12.445
27078W        W  146   5.517  14.222   2.615
27079W        W  147   5.486  33.129  10.618
27080W        W  148   2.409  41.495  11.765
27081W        W  149  10.529  30.566   4.772
27082W        W  150  18.081  37.678   2.482
27083W        W  151   1.498  17.082   1.213
27084W        W  152  38.094  33.523   1.843
27085W        W  153  26.548  18.990   1.964
27086W        W  154  24.191  21.759   1.019
27087W        W  155  15.315  12.175   3.994
27088W        W  156  35.164  40.908  12.152
27089W        W  157  31.114  15.367   1.840
27090W        W  158  13.655   9.723  14.541
27091W        W  159  25.572  35.640   0.050
27092W        W  160  29.822  34.153  12.876
27093W        W  161   5.741  32.239  12.526
27094W        W  162   6.011   2.776  12.375
27095W        W  163  37.856  41.782   0.658
27096W        W  164   9.436   8.859   2.712
27097W        W  165  41.283   7.821  11.596
27098W        W  166  33.614  43.370  11.732
27099W        W  167  18.090  10.747  10.566
27100W        W  168   7.862  24.243  10.955
27101W        W  169  15.614   5.132  10.577
27102W        W  170  25.215   6.625   1.314
27103W        W  171   6.002   6.694  12.540
27104W        W  172  31.409  40.758   3.281
27105W        W  173   5.883  40.346  10.642
27106W        W  174  41.288  13.258  12.924
27107W        W  175   7.076  17.573  14.629
27108W        W  176  38.215   8.893  11.166
27109W        W  177  31.591  39.373   0.848
27110W        W  178  28.188  11.211  12.522
27111W        W  179  19.660  40.273   2.805
27112W        W  180  32.566   9.981   2.734
27113W        W  181  14.593  10.821   2.537
27114W        W  182  41.663  42.104   0.007
27115W        W  183  31.569   2.148   4.805
27116W        W  184  36.054  13.183  12.600
27117W        W  185  16.719  33.954   3.075
27118W        W  186  24.108  22.938  12.774
27119W        W  187  35.915  31.216  11.555
27120W        W  188  15.880  25.393   4.714
27121W        W  189   6.354  12.219  11.757
27122W        W  190  19.217  22.129   3.979
27123W        W  191  11.688  40.119  11.856
27124W        W  192  14.811   8.910  12.431
27125W        W  193  22.662   3.262   1.301
27126W        W  194  22.165  17.627   1.168
27127W        W  195   3.713  37.093  11.488
27128W        W  196  10.650  30.859  13.829
27129W        W  197  44.808   7.196  10.649
27130W        W  198   8.294  40.457   2.383
27131W        W  199  16.320   7.452   3.726
27132W        W  200   9.200  35.614   3.116
27133W        W  201  23.582   3.387   3.526
27134W        W  202  26.490  10.212   2.681
27135W        W  203  29.452  25.622  12.195
27136W        W  204  27.413  33.767  10.448
27137W        W  205  22.441  30.167   1.862
27138W        W  206   2.881  18.968  13.813
27139W        W  207  30.971  29.328  11.876
27140W        W  208   0.852   3.706  10.261
27141W        W  209  14.121  13.262   0.891
27142W        W  210  22.049  27.223   0.683
27143W        W  211  42.917  41.440  11.696
27144W        W  212  42.708  18.088  11.548
27145W        W  213   3.434  28.361  12.367
27146W        W  214  33.157   1.416  14.378
27147W        W  215  36.052  31.042  14.468
27148W        W  216  40.288  12.810   1.130
27149W        W  217  44.551   7.256  14.783
27150W        W  218  23.644  42.895  14.563
27151W        W  219   9.705   1.223   1.131
27152W        W  220  39.719  32.986  11.154
27153W        W  221  24.819  34.992   3.609
27154W        W  222  30.719   4.351   1.355
27155W        W  223  44.263  39.829   4.621
27156W        W  224  25.439  43.961  12.804
27157W        W  225  38.207  21.184   2.740
27158W        W  226  22.304   2.894   1.160
27159W        W  227  39.246   7.184   0.395
27160W        W  228  15.089  29.450   4.287
27161W        W  229   8.938  12.916  13.321
27162W        W  230  33.747  14.617   4.603
27163W        W  231  36.886   3.357   1.960
27164W        W  232   9.298  35.989   2.282
27165W        W  233  36.107  25.917   4.552
27166W        W  234  32.621   0.892   3.345
27167W        W  235   0.805  25.289   5.083
27168W        W  236  16.541  15.275   4.648
27169W        W  237  21.071  32.573   1.320
27170W        W  238  43.377  30.812   3.742
27171W        W  239   0.126  15.423  12.127
27172W        W  240  22.449  36.033   3.157
27173W        W  241  18.216   3.801   4.299
27174W        W  242  28.635  12.301  14.326
27175W        W  243  41.368  33.808   0.309
27176W        W  244  39.116  30.140   0.447
27177W        W  245  41.784   2.259  14.995
27178W        W  246  31.229   8.939   4.967
27179W        W  247  24.426  36.429   5.003
27180W        W  248  34.118   9.882   1.852
27181W        W  249  31.634   2.203  12.449
27182W        W  250  35.869   2.316   1.468
27183W        W  251   2.532  42.972   1.168
27184W        W  252  31.123  23.575  13.490
27185W        W  253   8.357  24.162   2.989
27186W        W  254  23.154  20.856  13.408
27187W        W  255  14.596  32.138   4.089
27188W        W  256  30.248  18.172  14.863
27189W        W  257  28.981  34.101   4.840
27190W        W  258  33.605  24.706  12.427
27191W        W  259  12.092  39.840  13.495
27192W        W  260  33.004  28.601  14.746
27193W        W  261  23.339  16.532   5.093
27194W        W  262  13.581   2.747   0.938
27195W        W  263  43.031  15.199   1.439
27196W        W  264  33.794  17.412  13.925
27197W        W  265  36.506  23.642  14.253
27198W        W  266  34.070  10.972   3.254
27199W        W  267  19.589  29.053   4.742
27200W        W  268  31.653  18.062  11.471
27201W        W  269   1.172  41.778   2.347
27202W        W  270  18.740  23.663  14.171
27203W        W  271  35.362  43.097  12.196
27204W        W  272  13.216  11.866   4.922
27205W        W  273   4.957  29.875  14.364
27206W        W  274  25.457  21.161  13.947
27207W        W  275  11.200   2.470  13.071
27208W        W  276  30.586  17.185  11.151
27209W        W  277  19.072  31.229   1.250
27210W        W  278  33.876  23.467  11.537
27211W        W  279  26.851   2.699   2.899
27212W        W  280  14.062   8.044   0.288
27213W        W  281  39.274   1.236   1.238
27214W        W  282  35.399  40.031   1.451
27215W        W  283   0.274  15.172   3.585
27216W        W  284   2.022  16.700   0.670
27217W        W  285  11.030  40.723  10.258
27218W        W  286  22.265  29.123  14.750
27219W        W  287  36.156  37.050   2.452
27220W        W  288  22.215  27.783   1.955
27221W        W  289   9.156  40.987  12.059
27222W        W  290  44.091   3.931  12.982
27223W        W  291  15.603  30.984  12.888
27224W        W  292  26.615  43.230   0.723
27225W        W  293  26.085  30.861   3.342
27226W        W  294  31.460  21.958   4.625
27227W        W  295  13.077  32.104  10.644
27228W        W  296  19.233   5.679  10.588
27229W        W  297  43.748  43.964  11.596
27230W        W  298  33.920  44.806  13.851
27231W        W  299  40.787   1.921   0.477
27232W        W  300   9.241  26.201   2.693
27233W        W  301  43.476  41.990   2.726
27234W        W  302  36.970   4.015   2.207
27235W        W  303  29.029   9.675  13.028
27236W        W  304  41.976  42.051  12.336
27237W        W  305  41.006  15.878  14.909
27238W        W  306  26.310   9.098  11.200
27239W        W  307  35.180  35.442  13.544
27240W        W  308  37.597  38.897   3.988
27241W        W  309  30.425  23.245  10.716
27242W        W  310  29.692  24.032   1.577
27243W        W  311  27.668   3.473  13.954
27244W        W  312  30.594  41.531   1.247
27245W        W  313  40.627   4.555   4.764
27246W        W  314  25.419  19.339   2.759
27247W        W  315  16.680  24.585  12.886
27248W        W  316  32.423  18.608  11.530
27249W        W  317  17.520   0.935  12.351
27250W        W  318   4.884  10.819   1.902
27251W        W  319  23.882   6.062  11.070
27252W        W  320   0.753  38.290   2.096
27253W        W  321  21.571  34.009  14.045
27254W        W  322  24.102  32.619   4.381
27255W        W  323  39.456   1.285  12.099
27256W        W  324  25.081  11.023   3.677
27257W        W  325  42.803   4.603  11.444
27258W        W  326  32.915  42.760  11.548
27259W        W  327   0.434   8.913   3.394
27260W        W  328  18.529  21.492   2.686
27261W        W  329  26.353  42.298   2.391
27262W        W  330  26.916  23.647   2.794
27263W        W  331  42.555  10.200  11.938
27264W        W  332   0.813  28.153  12.556
27265W        W  333  22.156  37.109  11.678
27266W        W  334  15.889  25.524   0.749
27267W        W  335  30.232  10.261   4.213
27268W        W  336  44.311  26.416  11.087
27269W        W  337  40.678  15.140   4.697
27270W        W  338  29.605   1.149   1.094
27271W        W  339  22.200  18.272  12.024
27272W        W  340  22.828  21.704   0.081
27273W        W  341  28.389  44.785   2.930
27274W        W  342   6.227  11.994  12.628
27275W        W  343  27.041   2.259   2.105
27276W        W  344  35.192  12.237   1.455
27277W        W  345   3.510  16.357   4.192
27278W        W  346  22.223   1.942   3.681
27279W        W  347  20.081   8.506   0.685
27280W        W  348  36.586   2.350   1.840
27281W        W  349  26.692  44.434   3.856
27282W        W  350  44.877  28.884   4.578
27283W        W  351  27.259   7.117   0.439
27284W        W  352  31.154  30.768   3.774
27285W        W  353  34.571  42.440   3.290
27286W        W  354  36.172  39.674   1.485
27287W        W  355  27.516  26.255   2.362
27288W        W  356  27.595  26.126  13.828
27289W        W  357  34.842  40.512  12.329
27290W        W  358  27.523  17.855  13.874
27291W        W  359  27.471  42.792   3.513
27292W        W  360  20.643  33.432   1.369
27293W        W  361  39.378  26.676   0.287
27294W        W  362  39.895  16.387   1.657
27295W        W  363   9.806   4.843   4.037
27296W        W  364  38.544  40.958  14.259
27297W        W  365  22.171  11.206  12.929
27298W        W  366  37.546  26.400   2.425
27299W        W  367  35.135  43.837  11.008
27300W        W  368  21.969  26.296  13.073
27301W        W  369   8.414  10.071  12.896
27302W        W  370   6.772  37.004   0.962
27303W        W  371  28.076  44.999  13.881
27304W        W  372  43.738   7.085  13.255
27305W        W  373  18.066  44.459   0.197
27306W        W  374  31.302  26.079  10.598
27307W        W  375  16.161  28.158  14.108
27308W        W  376  33.388  32.362  10.759
27309W        W  377  35.572  44.254  14.320
27310W        W  378  22.652  20.714  10.960
27311W        W  379  37.120  34.629  13.463
27312W        W  380  31.809   1.748  14.940
27313W        W  381  21.578  17.350   2.632
27314W        W  382  34.804  42.494  13.473
27315W        W  383  11.133  44.500  10.105
27316W        W  384  33.600  37.490   0.269
27317W        W  385  40.370  38.281   3.321
27318W        W  386  16.421  17.516  12.665
27319W        W  387  12.178  25.048   0.711
27320W        W  388  15.835  41.324   3.176
27321W        W  389  13.841   0.808   3.237
27322W        W  390  40.272  44.359   2.270
27323W        W  391   3.308   8.390  12.664
27324W        W  392   6.801  39.955   4.340
27325W        W  393  33.138  28.041   1.731
27326W        W  394   4.659  44.228   3.347
27327W        W  395   3.229  16.473   1.265
27328W        W  396  23.482  15.450  12.571
27329W        W  397   5.370  31.702  12.169
27330W        W  398  14.800   3.296   1.333
27331W        W  399  13.716  25.265  13.342
27332W        W  400  44.268  15.611  11.802
27333W        W  401  41.690  18.840  14.350
27334W        W  402  30.133  36.030   3.917
27335W        W  403   6.802  34.396   3.067
27336W        W  404   7.671   9.229   0.950
27337W        W  405  18.314   1.939  11.995
27338W        W  406  18.632  43.885  14.780
27339W        W  407  31.851  38.762   3.260
27340W        W  408   7.181  42.201  14.959
27341W        W  409  41.697   9.426  10.794
27342W        W  410  40.732  23.496   1.921
27343W        W  411  44.957   0.324   2.645
27344W        W  412  40.025  28.023   0.554
27345W        W  413  32.581  17.712  12.390
27346W        W  414  28.526  41.920  12.991
27347W        W  415  18.340  43.959   1.818
27348W        W  416   2.632  22.656   0.778
27349W        W  417  19.622  35.576  10.621
27350W        W  418  18.274  37.414   4.484
27351W        W  419  39.077  29.968  10.748
27352W        W  420  30.060  19.490   2.895
27353W        W  421   0.510  13.649  12.030
27354W        W  422   9.156   7.849   0.012
27355W        W  423   4.295  34.785  12.241
27356W        W  424   6.464  26.900  14.974
27357W        W  425  27.606  17.653  12.391
27358W        W  426   8.958   2.813  13.202
27359W        W  427  18.041  44.122  10.728
27360W        W  428   9.845  25.303  13.828
27361W        W  429  29.927  20.581   2.859
27362W        W  430  33.901  23.755   2.125
27363W        W  431  27.729  39.156  12.872
27364W        W  432  15.727  10.147  11.668
27365W        W  433  42.349  40.330   2.162
27366W        W  434  10.655  44.104  13.765
27367W        W  435  36.419  34.637   3.720
27368W        W  436  39.136  30.143   3.242
27369W        W  437  40.758   1.793  14.056
27370W        W  438  37.435  28.186  13.507
27371W        W  439  30.652  25.583  14.041
27372W        W  440  37.841  11.613   3.309
27373W        W  441   3.444  10.886   4.134
27374W        W  442  40.142  40.793   3.295
27375W        W  443   3.928   5.940  12.486
27376W        W  444  44.788  22.169  14.533
27377W        W  445  35.352  21.445   3.572
27378W        W  446  44.913  29.665  13.853
27379W        W  447   0.976  41.366  11.546
27380W        W  448  36.323  23.585   2.227
27381W        W  449  38.351  41.853   1.999
27382W        W  450  41.104  31.460   1.287
27383W        W  451  15.743  36.570  10.656
27384W        W  452  25.457  17.321   0.865
27385W        W  453  15.179  32.104  13.324
27386W        W  454  32.129  38.646   3.694
27387W        W  455  32.313  42.778   0.463
27388W        W  456  41.265  28.882  12.072
27389W        W  457   8.062  10.829  13.367
27390W        W  458  12.277  10.370   1.487
27391W        W  459  17.729  30.007   3.261
27392W        W  460   8.449   2.816   3.324
27393W        W  461  28.511  21.706   4.939
27394W        W  462  26.399  16.074  11.151
27395W        W  463  23.596   3.466  13.311
27396W        W  464   6.081  31.428   1.781
27397W        W  465  25.179  12.743   4.365
27398W        W  466  12.457  26.930   3.714
27399W        W  467  36.062  20.133  11.088
27400W        W  468  40.517  17.954  12.521
27401W        W  469   9.889   0.391   0.411
27402W        W  470  44.878  22.026   4.484
27403W        W  471   5.061  10.912   4.138
27404W        W  472  35.927  27.197  10.480
27405W        W  473   9.367  35.800   4.586
27406W        W  474  36.383  23.128  11.677
27407W        W  475  18.459   0.445   4.162
27408W        W  476  27.911  38.066   0.222
27409W        W  477  38.604   4.984  10.220
27410W        W  478  41.477  11.457  11.241
27411W        W  479  31.935  35.936  14.836
27412W        W  480  35.473  16.009   2.808
27413W        W  481   0.533  18.488  10.359
27414W        W  482  15.084  36.454  13.497
27415W        W  483  23.698  28.369  11.219
27416W        W  484  27.615  21.720  13.338
27417W        W  485  35.658  17.178  13.349
27418W        W  486  26.999  36.891  12.002
27419W        W  487  11.086  16.692   4.614
27420W        W  488  13.447   1.540  11.589
27421W        W  489   0.095   2.921  12.001
27422W        W  490  20.247  14.919  12.985
27423W        W  491  30.624  40.074  11.959
27424W        W  492  38.963  20.104   4.334
27425W        W  493  25.187  27.997  10.657
27426W        W  494   2.253  43.661  14.882
27427W        W  495  14.242  15.542   0.889
27428W        W  496  40.033  42.532   0.805
27429W        W  497  38.534  24.593   1.350
27430W        W  498  39.409  24.729  14.860
27431W        W  499   5.338  29.461   1.205
27432W        W  500   3.265  23.189   4.668
27433W        W  501   0.465  24.696   0.273
27434W        W  502   2.352  17.844  10.895
27435W        W  503  40.726  39.464   0.665
27436W        W  504  41.015   4.211   3.543
27437W        W  505  23.038  28.307   3.730
27438W        W  506  31.125  24.888  14.277
27439W        W  507  14.276  38.351   0.756
27440W        W  508   7.068  28.446   2.140
27441W        W  509  42.389   8.905  14.580
27442W        W  510   7.472  32.111   5.009
27443W        W  511   0.777  30.051   4.808
27444W        W  512  40.398  26.160  13.448
27445W        W  513  32.319   7.603  14.936
27446W        W  514  30.713  44.995  11.910
27447W        W  515  11.302   0.535  14.917
27448W        W  516  30.177  11.378   0.904
27449W        W  517  24.696  35.882   0.602
27450W        W  518  27.742  19.735   1.807
27451W        W  519  40.515  29.151   0.006
27452W        W  520   5.458  10.812   1.220
27453W        W  521  43.081  38.103   3.019
27454W        W  522  30.425  28.014   4.172
27455W        W  523  43.325   5.929   4.103
27456W        W  524  34.356  22.255   0.557
27457W        W  525  24.229  22.037  12.098
27458W        W  526   2.489  39.491  14.895
27459W        W  527  20.294  14.081   1.870
27460W        W  528  19.170   4.289   3.801
27461W        W  529   2.404  10.804  12.392
27462W        W  530  39.802  28.098   3.272
27463W        W  531  36.745   0.270  12.822
27464W        W  532   4.443   8.844   2.383
27465W        W  533   9.962  21.212  14.860
27466W        W  534  34.037  18.388  12.290
27467W        W  535  14.599  23.197  10.914
27468W        W  536  22.983  43.267   0.533
27469W        W  537  21.204  25.240  14.327
27470W        W  538  25.704  25.935   0.824
27471W        W  539  28.919  41.555  14.773
27472W        W  540  16.099  10.685   1.387
27473W        W  541  14.052  28.669  13.619
27474W        W  542  38.886   5.779   0.488
27475W        W  543  11.851  31.116  14.054
27476W        W  544  17.061  25.476  11.548
27477W        W  545  38.871   5.883  12.686
27478W        W  546  41.297  10.245  10.771
27479W        W  547  24.144   9.660   1.384
27480W        W  548  38.951  13.427   4.956
27481W        W  549  13.197   0.191   2.667
27482W        W  550  18.700  15.380   4.115
27483W        W  551  18.670  28.207   0.702
27484W        W  552  41.322  31.856  13.475
27485W        W  553  22.658  25.749  11.593
27486W        W  554  38.998  41.736  10.724
27487W        W  555  30.375  39.600   4.177
27488W        W  556  34.592   5.806  10.359
27489W        W  557  15.557  16.105  12.463
27490W        W  558  19.431  17.316  12.940
27491W        W  559  25.004  35.221  13.475
27492W        W  560  27.730  34.479  12.162
27493W        W  561  26.447  11.535   2.427
27494W        W  562  42.989  11.443  14.347
27495W        W  563  19.143  16.767   3.917
27496W        W  564   5.900  34.858  11.091
27497W        W  565   6.222  18.094   2.682
27498W        W  566  17.715  33.955   3.335
27499W        W  567  30.853  29.532   0.489
27500W        W  568  44.763  29.158  13.925
27501W        W  569  30.145  40.823  12.373
27502W        W  570  39.420  24.541   1.285
27503W        W  571  21.220  30.896  10.609
27504W        W  572  17.375   7.144   2.168
27505W        W  573   3.948  42.361  13.407
27506W        W  574  10.228  35.844   1.069
27507W        W  575  16.025  32.635   0.409
27508W        W  576  12.318   5.700   4.612
27509W        W  577  31.069   1.602  13.385
27510W        W  578  17.080  21.700   0.774
27511W        W  579  43.357  41.293  10.652
27512W        W  580  12.153  28.193  11.636
27513W        W  581  31.193  14.140   4.681
27514W        W  582  37.174  29.485  12.409
27515W        W  583   7.509   0.705   5.272
27516W        W  584  23.663  21.329   3.386
27517W        W  585   8.410   8.655  13.917
27518W        W  586  37.660  20.643   2.295
27519W        W  587   9.707   6.718  13.820
27520W        W  588  24.400  14.642  14.919
27521W        W  589  20.555  20.007  11.999
27522W        W  590  37.271  43.106   0.747
27523W        W  591  16.070  34.683   0.913
27524W        W  592  42.482   3.881  14.347
27525W        W  593  31.553  44.881  13.821
27526W        W  594  36.431   9.467  12.095
27527W        W  595   7.745  15.136  13.925
27528W        W  596  39.104  41.996   4.231
27529W        W  597  21.957  15.692  10.600
27530W        W  598  39.088  27.130  10.439
27531W        W  599  26.070  23.534  14.553
27532W        W  600   5.352   9.314  12.564
27533W        W  601   1.893  28.521   2.209
27534W        W  602   2.861  24.620   1.132
27535W        W  603  35.902   6.660   3.645
27536W        W  604  21.211  12.469   3.320
27537W        W  605  38.321  32.092   3.284
27538W        W  606   7.358  20.210   4.528
27539W        W  607  18.085  37.309   2.117
27540W        W  608  21.782  25.646  11.568
27541W        W  609  40.520  42.384  12.012
27542W        W  610   4.431  42.024  14.395
27543W        W  611  32.583  21.122   3.845
27544W        W  612  31.562  21.078  12.076
27545W        W  613  26.645   7.747  14.225
27546W        W  614  18.369  39.922  11.393
27547W        W  615  27.564  12.608   5.181
27548W        W  616  28.511   1.966   1.144
27549W        W  617  14.752  33.026   2.223
27550W        W  618  36.185  29.620  13.921
27551W        W  619  34.461  38.772  11.143
27552W        W  620  26.993  37.606  12.928
27553W        W  621  32.056  41.973  14.962
27554W        W  622  42.386  13.648  12.869
27555W        W  623   0.578  20.171   1.342
27556W        W  624   5.786  39.255   3.751
27557W        W  625  23.203  10.226  12.879
27558W        W  626   8.316  31.712  14.364
27559W        W  627  34.852  35.030  14.226
27560W        W  628   0.905  39.091   0.244
27561W        W  629  35.142  14.017   0.866
27562W        W  630  24.059  41.366   5.284
27563W        W  631  28.603   1.144   1.024
27564W        W  632  28.066   4.438  13.893
27565W        W  633  41.537  11.159   4.579
27566W        W  634  28.733  21.609  13.555
27567W        W  635  21.173  21.801   2.634
27568W        W  636   4.934  21.312  10.366
27569W        W  637  42.732  41.874   3.257
27570W        W  638  38.184   6.369  10.685
27571W        W  639  12.129  43.472  14.130
27572W        W  640   8.940  36.414   0.601
27573W        W  641  22.535  13.516   3.118
27574W        W  642  30.441   0.333   2.825
27575W        W  643  25.923   2.338  10.637
27576W        W  644   0.872  18.512  13.517
27577W        W  645  12.842  13.813  13.235
27578W        W  646  28.650  11.452   0.301
27579W        W  647  30.333  41.929   0.428
27580W        W  648  35.228  11.133  11.079
27581W        W  649  42.425  42.274  12.218
27582W        W  650   9.621  16.111   1.461
27583W        W  651  13.402  13.923   2.781
27584W        W  652  24.674  31.588  11.144
27585W        W  653   1.476  10.672   3.791
27586W        W  654  18.588  21.684   2.187
27587W        W  655  32.164  11.583   3.814
27588W        W  656  25.105  19.162   1.218
27589W        W  657  24.021  12.825  13.854
27590W        W  658   8.141  28.645  13.336
27591W        W  659  28.602  13.783  14.588
27592W        W  660  10.430  17.790  12.936
27593W        W  661  20.130   7.162   4.530
27594W        W  662   3.937  16.830  11.944
27595W        W  663  21.210  43.825   1.985
27596W        W  664  22.777  32.020   3.837
27597W        W  665  23.494  38.919   9.828
27598W        W  666   0.679  42.680  10.031
27599W        W  667  25.053  19.400   4.095
27600W        W  668  18.159  40.889  12.280
27601W        W  669  17.147  31.119  13.994
27602W        W  670   5.904  10.692  12.008
27603W        W  671   0.942  24.668   4.604
27604W        W  672   1.950  35.984  14.882
27605W        W  673   0.858  39.356  11.626
27606W        W  674   1.821   6.020  12.516
27607W        W  675   3.174  31.603  11.356
27608W        W  676  34.892  31.229  11.323
27609W        W  677   7.423   6.414   0.442
27610W        W  678   9.566  23.064  13.431
27611W        W  679  42.028  33.509   2.113
27612W        W  680   4.718   0.986   4.058
27613W        W  681  33.564  26.080   4.389
27614W        W  682  22.389  44.569  11.145
27615W        W  683  39.789  16.321  11.181
27616W        W  684  23.009  22.158   1.269
27617W        W  685  13.323  42.935  10.657
27618W        W  686   7.385   0.201  11.290
27619W        W  687  26.974  10.196  11.529
27620W        W  688  12.252  24.051  14.112
27621W        W  689  25.583  29.168   3.294
27622W        W  690   5.002  12.761   0.009
27623W        W  691   8.662  11.576   3.981
27624W        W  692  43.887  26.594  13.580
27625W        W  693   2.221   0.083   3.292
27626W        W  694  20.071   6.859   0.892
27627W        W  695  22.706  18.820   1.270
27628W        W  696   4.503  34.908  13.358
27629W        W  697   0.989  19.588  12.346
27630W        W  698  39.774  16.656   4.707
27631W        W  699  29.471  14.734   3.861
27632W        W  700  40.041  35.111   4.418
27633W        W  701  11.244   7.881   1.931
27634W        W  702   2.507  14.209  14.206
27635W        W  703   0.347  27.549   0.773
27636W        W  704   2.454  11.149   0.872
27637W        W  705  18.883  28.966  11.552
27638W        W  706  29.732  44.537  12.963
27639W        W  707  38.062  27.429  11.994
27640W        W  708  26.730  21.682   1.756
27641W        W  709   3.677  11.228   2.314
27642W        W  710  41.633  30.186   0.507
27643W        W  711  10.163  37.062   2.895
27644W        W  712   3.372   0.328   4.528
27645W        W  713  12.118  37.724  12.076
27646W        W  714   4.168  37.544  11.045
27647W        W  715  30.655  43.589   2.637
27648W        W  716  17.112  13.788  13.089
27649W        W  717   1.433  43.486  12.839
27650W        W  718  10.328  27.506   4.673
27651W        W  719  10.461  32.326  11.789
27652W        W  720   0.996   1.030   4.288
27653W        W  721  18.911  38.568  13.871
27654W        W  722   0.075  24.926  10.680
27655W        W  723  43.487  15.968   0.204
27656W        W  724  29.424  23.719   3.618
27657W        W  725  39.526  28.909  12.339
27658W        W  726  37.862   6.612   1.280
27659W        W  727  28.300  18.447  14.887
27660W        W  728   7.605   3.547   4.689
27661W        W  729   7.146  43.494  14.457
27662W        W  730   4.763   8.246  11.902
27663W        W  731   9.202  32.492   2.265
27664W        W  732  43.757  21.288  11.133
27665W        W  733  34.656   0.992  13.540
27666W        W  734  15.560   2.315  13.207
27667W        W  735  16.398  17.293  13.548
27668W        W  736  22.000  25.278   4.595
27669W        W  737  11.491   6.645  13.418
27670W        W  738  34.616  17.724   4.577
27671W        W  739  14.873  22.060  10.810
27672W        W  740  17.038  18.162  13.866
27673W        W  741   6.467  38.596   2.348
27674W        W  742  26.995  30.206  12.426
27675W        W  743  22.634  22.790   4.978
27676W        W  744  27.411   6.259  13.019
27677W        W  745  39.355  11.100  12.296
27678W        W  746  33.530  14.439  12.224
27679W        W  747   5.869   3.984   4.205
27680W        W  748   1.369  41.203   2.699
27681W        W  749   1.542  34.550   4.931
27682W        W  750  11.764   5.630   1.422
27683W        W  751  35.341   6.769  13.345
27684W        W  752  19.654  27.563   1.799
27685W        W  753  15.838  21.182  13.033
27686W        W  754  17.347  10.152  13.617
27687W        W  755  26.192   8.429  13.623
27688W        W  756  10.767  19.984  14.119
27689W        W  757   3.829  38.998  11.659
27690W        W  758  15.890  29.366   4.556
27691W        W  759  33.939  35.091   1.963
27692W        W  760   6.473  22.755  12.325
27693W        W  761  10.495   7.164   3.679
27694W        W  762  35.898   0.327   2.413
27695W        W  763  32.942   5.495   3.622
27696W        W  764   2.148  18.821   4.714
27697W        W  765  13.841  36.159   4.921
27698W        W  766  35.823  24.144  12.857
27699W        W  767   2.454  44.210  13.915
27700W        W  768  29.442  21.188   3.625
27701W        W  769  28.474   5.682  12.503
27702W        W  770  30.943  22.730  14.951
27703W        W  771   8.123  18.567   2.215
27704W        W  772   5.242  25.602   2.035
27705W        W  773   9.689  42.526  10.631
27706W        W  774  35.336   0.382  11.865
27707W        W  775   3.232  25.128  14.040
27708W        W  776  41.469  11.986   2.690
27709W        W  777   6.028  37.098   4.835
27710W        W  778  14.568  19.975   3.220
27711W        W  779  29.448  34.132   2.258
27712W        W  780  44.977  43.374   4.755
27713W        W  781  19.561   9.777   0.949
27714W        W  782   0.352  22.168   4.669
27715W        W  783  23.073   5.238  11.031
27716W        W  784   5.654  33.262  11.545
27717W        W  785   6.706   7.140  11.092
27718W        W  786  22.641  26.440   0.854
27719W        W  787  21.471  30.178  12.538
27720W        W  788  37.028  12.149  11.600
27721W        W  789   7.738   0.284  11.636
27722W        W  790   8.890  18.504  13.535
27723W        W  791  32.615  32.609   3.185
27724W        W  792   4.905  11.144  13.126
27725W        W  793  42.014   1.930   0.854
27726W        W  794   0.414  14.140  14.824
27727W        W  795  18.578  42.964  12.518
27728W        W  796  43.904  30.963  12.847
27729W        W  797  44.910   9.511   2.480
27730W        W  798  12.746  43.424  14.513
27731W        W  799  20.279   4.229  10.408
27732W        W  800  38.864  10.210   0.184
27733W        W  801  36.486  20.215  13.604
27734W        W  802  19.938  39.131   4.115
27735W        W  803  10.425   8.357   0.962
27736W        W  804   3.167  36.991   2.601
27737W        W  805  31.203  27.531  14.373
27738W        W  806  11.113  32.311   4.700
27739W        W  807   4.747   4.419   2.290
27740W        W  808  31.508  17.852   0.428
27741W        W  809  34.269  11.987  11.942
27742W        W  810  15.167   3.793   0.932
27743W        W  811  34.676  22.917   4.649
27744W        W  812  26.719  43.353  12.990
27745W        W  813  32.545  16.353   2.851
27746W        W  814  23.113  42.970  13.350
27747W        W  815  33.654  24.678   2.007
27748W        W  816  42.510  28.391   3.617
27749W        W  817   8.918  10.356   0.129
27750W        W  818  31.516  26.179  12.005
27751W        W  819  15.255  37.054   4.231
27752W        W  820  40.463  15.211   3.431
27753W        W  821   8.695  16.186  10.673
27754W        W  822   1.400   7.450   3.896
27755W        W  823  24.106   0.345   3.190
27756W        W  824  39.546  37.304  14.513
27757W        W  825  22.472   5.436  11.104
27758W        W  826  18.315  44.301  14.757
27759W        W  827   4.919  36.998   4.434
27760W        W  828  26.003  19.681   5.057
27761W        W  829  11.714  37.296  10.245
27762W        W  830  37.328   6.026  13.517
27763W        W  831   2.736  44.050   2.888
27764W        W  832  33.391  26.112  14.891
27765W        W  833  12.670  18.288   1.814
27766W        W  834  24.184  21.977  13.099
27767W        W  835  33.083  43.969  11.277
27768W        W  836  25.408   9.651   1.719
27769W        W  837   7.899  11.838   0.477
27770W        W  838  44.168  18.572  13.675
27771W        W  839  24.540  37.102  14.048
27772W        W  840  13.741  26.338  13.346
27773W        W  841  29.845   0.707   1.233
27774W        W  842  27.430  15.655   3.502
27775W        W  843  23.704  11.346   1.642
27776W        W  844  26.388  24.110   0.225
27777W        W  845  29.607  35.950  10.233
27778W        W  846   2.889   1.670   0.418
27779W        W  847  27.684  31.436   1.707
27780W        W  848   3.821  21.563  11.059
27781W        W  849   1.010  41.797  12.589
27782W        W  850  11.075  25.210   1.746
27783W        W  851  15.563  19.227  10.674
27784W        W  852  13.974  14.081   5.015
27785W        W  853  28.300  16.081  14.326
27786W        W  854  20.252   2.416  10.659
27787W        W  855  23.900   5.717  10.678
27788W        W  856  41.381   1.525  12.090
27789W        W  857   7.377  23.233  14.998
27790W        W  858  31.139  21.093  13.588
27791W        W  859  32.574  34.575  10.371
27792W        W  860  12.284  16.087  13.718
27793W        W  861  40.468  43.407   3.031
27794W        W  862  13.922  40.238   3.793
27795W        W  863  33.966  13.801   3.644
27796W        W  864  43.741  18.270   2.378
27797W        W  865  34.624  37.626  10.983
27798W        W  866  39.735  16.247   3.156
27799W        W  867  18.243  13.418   4.666
27800W        W  868  13.090  21.846  12.021
27801W        W  869   8.606  33.874  14.803
27802W        W  870  41.724  22.564   2.759
27803W        W  871  10.172  11.174  14.092
27804W        W  872  10.426  27.199   3.989
27805W        W  873  31.038  40.898   2.949
27806W        W  874   2.470  13.775  12.576
27807W        W  875  30.119  28.365  12.983
27808W        W  876  25.625  44.751   3.633
27809W        W  877   0.042  43.591   1.060
27810W        W  878  22.685   4.920  11.138
27811W        W  879  38.759  44.294   3.795
27812W        W  880  35.816  41.433   3.596
27813W        W  881  28.348  12.707  14.525
27814W        W  882  15.347  10.151   1.391
27815W        W  883  18.081  23.190  13.492
27816W        W  884  42.025  26.116  14.786
27817W        W  885   4.954  31.901  14.357
27818W        W  886   7.300  30.047   4.608
27819W        W  887  12.431  14.266  13.533
27820W        W  888  41.554  24.662   4.156
27821W        W  889  42.426  33.968   4.340
27822W        W  890  13.150   5.977   0.881
27823W        W  891   2.013  41.782  11.587
27824W        W  892  18.176  39.979   4.434
27825W        W  893  27.995  11.923  11.147
27826W        W  894  43.144  28.691  14.343
27827W        W  895   8.504  24.031   3.944
27828W        W  896  23.442  40.598   0.858
27829W        W  897  28.408   2.048   2.123
27830W        W  898  23.015  12.714  12.024
27831W        W  899   6.482  28.741  12.042
27832W        W  900   2.554  23.611  12.483
27833W        W  901  29.406   1.864  13.575
27834W        W  902  19.118  36.181   3.763
27835W        W  903  35.467  22.749   3.309
27836W        W  904  42.823   5.733  14.899
27837W        W  905  24.445   4.899  11.595
27838W        W  906  15.390  32.879   3.201
27839W        W  907   9.957   9.901  13.454
27840W        W  908   9.569   1.993   0.712
27841W        W  909   9.217   3.495  11.983
27842W        W  910  44.049  16.249  12.433
27843W        W  911  41.642   4.823   0.468
27844W        W  912  21.794  42.479  13.169
27845W        W  913  37.047  27.785  10.902
27846W        W  914  28.134  32.575  12.431
27847W        W  915  11.865  14.113  11.018
27848W        W  916  19.722  42.998   4.319
27849W        W  917  27.501  21.433  10.365
27850W        W  918  32.881  12.450   2.128
27851W        W  919  23.478   4.281  14.904
27852W        W  920  16.556   1.523  13.432
27853W        W  921  11.595  17.416   3.420
27854W        W  922  43.506   3.402   3.309
27855W        W  923  15.393  30.505   3.278
27856W        W  924  27.510  17.248   0.753
27857W        W  925  18.680   9.308   0.869
27858W        W  926  22.471   6.366   0.714
27859W        W  927   3.483  20.929   1.235
27860W        W  928  20.241   0.031  13.774
27861W        W  929  21.126  29.894   1.156
27862W        W  930   9.156  14.598  12.087
27863W        W  931  35.937  16.051   2.113
27864W        W  932   6.167  39.038  12.804
27865W        W  933  19.183   5.932  14.750
27866W        W  934  43.103   9.720  13.335
27867W        W  935  36.470   3.144  13.912
27868W        W  936   4.094  38.465  11.483
27869W        W  937   4.392  43.823  13.957
27870W        W  938  15.278  26.702  13.954
27871W        W  939  23.256  14.558  13.525
27872W        W  940   8.318  37.129  10.984
27873W        W  941  38.811   4.439  12.107
27874W        W  942  39.876  25.274  14.230
27875W        W  943  15.927  22.706  12.609
27876W        W  944  44.066  27.087   4.283
27877W        W  945  12.760  37.332   0.325
27878W        W  946  42.249  33.640  11.963
27879W        W  947  42.113  28.917   1.750
27880W        W  948  24.661  14.841  14.309
27881W        W  949  21.174  23.679   2.325
27882W        W  950  43.881  32.630  14.980
27883W        W  951  24.492   6.409  12.133
27884W        W  952  20.427  28.299  13.617
27885W        W  953  22.753  36.407   4.177
27886W        W  954  20.152   5.501   3.133
27887W        W  955   1.347  11.963  13.753
27888W        W  956  33.279  41.825  10.290
27889W        W  957  16.563   8.373   1.822
27890W        W  958  26.956  13.329   3.625
27891W        W  959   8.757  43.769  12.273
27892W        W  960  10.598   8.705  12.702
27893W        W  961  29.920   7.830   0.425
27894W        W  962  26.656  32.670  11.551
27895W        W  963  38.560  10.670  13.061
27896W        W  964   1.066  41.072   0.659
27897W        W  965  11.161  31.546  14.992
27898W        W  966  36.926  24.302   0.810
27899W        W  967  29.160  28.417   1.740
27900W        W  968   8.904  43.374  12.629
27901W        W  969   3.947   2.306  10.389
27902W        W  970   6.826  38.601   3.931
27903W        W  971  36.418  41.340   0.893
27904W        W  972  30.392  11.591  12.911
27905W        W  973  20.992  35.446   3.741
27906W        W  974  40.447   1.535   0.364
27907W        W  975   2.529  17.497  11.278
27908W        W  976  18.724  22.895  13.058
27909W        W  977  37.629  14.720  14.855
27910W        W  978   6.725  42.422   0.162
27911W        W  979  16.035  19.402  11.431
27912W        W  980  23.720   4.730  14.785
27913W        W  981   6.794   0.385  13.126
27914W        W  982   9.717  18.380   2.163
27915W        W  983  38.119   2.911   3.883
27916W        W  984  38.896  33.974  12.999
27917W        W  985  36.570  15.285   0.387
27918W        W  986  13.525   7.868   1.361
27919W        W  987  16.009   7.932  12.098
27920W        W  988  30.635  29.466  13.407
27921W        W  989  44.929   3.459   4.672
27922W        W  990  24.514   0.785   2.403
27923W        W  991   7.860   7.655   0.782
27924W        W  992   8.402   7.691  12.056
27925W        W  993  30.947  10.588  13.411
27926W        W  994   5.083  27.746  12.179
27927W        W  995  22.871  44.926   0.484
27928W        W  996  24.655  34.083   2.135
27929W        W  997  24.677  16.586   2.533
27930W        W  998   4.045  32.940  12.979
27931W        W  999  34.265  34.345   1.338
27932W        W 1000  33.009  18.062   0.931
27933W        W 1001  14.811  32.531  13.137
27934W        W 1002   5.191  42.292  12.880
27935W        W 1003  23.176  37.953   2.801
27936W        W 1004  13.236  40.724  12.033
27937W        W 1005  27.988   4.374   3.233
27938W        W 1006   3.411   0.021  10.662
27939W        W 1007  30.123  42.325  13.437
27940W        W 1008   6.794  14.221   1.408
27941W        W 1009   0.564   7.247  11.144
27942W        W 1010  13.836  27.215  11.144
27943W        W 1011  12.284  17.799   2.399
27944W        W 1012  42.840  13.628   1.266
27945W        W 1013  28.064  16.972  12.234
27946W        W 1014  20.046  17.434   5.090
27947W        W 1015   0.064  35.938  11.624
27948W        W 1016  34.574  15.679  14.007
27949W        W 1017  12.661   6.441   4.895
27950W        W 1018  13.211  20.307  13.858
27951W        W 1019  37.820  22.635   1.228
27952W        W 1020  37.601  13.854   1.972
27953W        W 1021   6.870  36.649   4.609
27954W        W 1022  30.476  42.059  10.630
27955W        W 1023   9.729  39.333  13.560
27956W        W 1024  23.601  34.011  10.805
27957W        W 1025  39.917  13.149   4.077
27958W        W 1026  41.815  27.465   1.430
27959W        W 1027   2.942  36.530   4.831
27960W        W 1028   9.638  30.718  11.641
27961W        W 1029  15.400  22.595   0.403
27962W        W 1030  29.262  22.066  11.610
27963W        W 1031   0.657   3.400  14.454
27964W        W 1032  13.148   6.778  10.930
27965W        W 1033   3.783  27.191  14.441
27966W        W 1034  16.219  27.126  13.938
27967W        W 1035  19.245   4.935   1.212
27968W        W 1036   1.062  39.902  11.610
27969W        W 1037  11.274  27.482  14.386
27970W        W 1038  34.588  22.718  13.777
27971W        W 1039   9.620  26.554   1.248
27972W        W 1040  15.648  41.410  14.210
27973W        W 1041  43.502   7.839   1.198
27974W        W 1042  28.193  11.410   4.676
27975W        W 1043   7.726  23.719  11.541
27976W        W 1044  36.337  17.620  13.825
27977W        W 1045  38.777  24.380   3.392
27978W        W 1046  35.256  35.546   4.721
27979W        W 1047  17.510  37.804  12.256
27980W        W 1048  17.850   3.782  12.661
27981W        W 1049  25.033   5.983  13.392
27982W        W 1050  38.521  38.904  11.005
27983W        W 1051   8.665  27.172  13.455
27984W        W 1052  15.674  27.600  14.328
27985W        W 1053  44.986   3.907  12.182
27986W        W 1054  34.626   4.245  12.992
27987W        W 1055  26.517  16.760   4.498
27988W        W 1056  22.284  36.088   0.799
27989W        W 1057  16.153  14.563   4.213
27990W        W 1058  20.997  22.144  10.859
27991W        W 1059  43.292  27.173  11.085
27992W        W 1060   7.104   6.135  12.386
27993W        W 1061  30.571  38.273   0.994
27994W        W 1062  19.750  26.680   3.197
27995W        W 1063  18.574   4.906  10.696
27996W        W 1064  31.546   9.467  13.100
27997W        W 1065  12.689  33.292   0.426
27998W        W 1066  38.320   6.489   3.327
27999W        W 1067  31.639  27.246   3.573
28000W        W 1068  38.778  33.840  12.016
28001W        W 1069  19.627   2.321  11.380
28002W        W 1070  33.871  28.805  13.511
28003W        W 1071  34.648  14.146   3.737
28004W        W 1072  17.081  26.022   1.795
28005W        W 1073  14.169   5.311  14.164
28006W        W 1074  31.954  17.737   3.149
28007W        W 1075  30.657  23.839  11.387
28008W        W 1076   0.695   4.567  13.810
28009W        W 1077  24.772  13.372  12.576
28010W        W 1078  18.646   0.254  11.909
28011W        W 1079  41.031  27.673   1.757
28012W        W 1080  39.540  23.474   2.260
28013W        W 1081   5.761  23.251  13.330
28014W        W 1082  32.943  38.506  14.452
28015W        W 1083  20.401  21.475  10.909
28016W        W 1084  23.124  29.718  13.982
28017W        W 1085  14.839  20.710  11.591
28018W        W 1086  25.495   7.860  13.019
28019W        W 1087  16.061  43.861  12.160
28020W        W 1088   9.429  11.166  12.432
28021W        W 1089  31.162   1.866  11.652
28022W        W 1090   1.377   3.928  13.874
28023W        W 1091  35.436  15.114  14.256
28024W        W 1092  40.671  29.056   2.251
28025W        W 1093   1.528  21.533  10.659
28026W        W 1094  11.703  14.972   2.690
28027W        W 1095  24.519   8.931  10.684
28028W        W 1096  37.544   5.408  13.505
28029W        W 1097  41.898   3.103  14.675
28030W        W 1098  39.315  11.728  12.938
28031W        W 1099  15.817  40.338  12.119
28032W        W 1100  37.476  44.241  10.642
28033W        W 1101   9.821  42.802  11.027
28034W        W 1102  44.035  28.999   2.865
28035W        W 1103  23.520  29.679  10.774
28036W        W 1104  41.954  21.757  14.878
28037W        W 1105   9.966   0.724  13.951
28038W        W 1106  37.354   5.273  12.031
28039W        W 1107   8.301  20.675  13.421
28040W        W 1108  43.808  15.358   0.937
28041W        W 1109  42.981   0.541   1.301
28042W        W 1110  30.443  30.917   0.355
28043W        W 1111   3.197   8.754   5.385
28044W        W 1112  41.084  15.155  11.573
28045W        W 1113  29.104  35.441   1.801
28046W        W 1114  33.063  41.271   3.883
28047W        W 1115   9.046   7.163  13.261
28048W        W 1116   4.711   3.903   2.325
28049W        W 1117  19.741   1.449  11.840
28050W        W 1118  30.227   2.775  11.961
28051W        W 1119  15.993  44.939   3.865
28052W        W 1120   2.681   3.300  11.478
28053W        W 1121  29.405  22.649   2.303
28054W        W 1122   2.726   3.520   0.845
28055W        W 1123   7.203  41.693  13.508
28056W        W 1124   4.796  14.583   2.256
28057W        W 1125  29.497   6.654   1.698
28058W        W 1126  40.722  25.089   0.513
28059W        W 1127  44.278  31.724  11.975
28060W        W 1128  36.396  15.796   0.428
28061W        W 1129  25.648   1.587  10.745
28062W        W 1130   0.398  42.769   2.976
28063W        W 1131  18.824  13.183   3.756
28064W        W 1132  35.813  24.064  14.011
28065W        W 1133  17.855  26.476  12.631
28066W        W 1134   8.677  41.978  12.539
28067W        W 1135  13.182  19.518   2.804
28068W        W 1136  23.970  32.630   1.318
28069W        W 1137   2.946   9.721   0.710
28070W        W 1138  27.996   1.502   3.104
28071W        W 1139  35.902  35.080   3.888
28072W        W 1140   3.764  27.104   3.320
28073W        W 1141   5.154  30.609   0.926
28074W        W 1142  39.344  37.853  10.473
28075W        W 1143  39.154  39.516   4.531
28076W        W 1144  12.249  28.426   2.118
28077W        W 1145   4.177  40.070  11.229
28078W        W 1146  13.138   4.911  12.854
28079W        W 1147  40.939  33.846   0.976
28080W        W 1148  19.906  35.144  10.661
28081W        W 1149  27.830  28.259   4.160
28082W        W 1150  15.256  34.167  14.386
28083W        W 1151  21.537  11.330  14.095
28084W        W 1152   7.884   0.777  11.679
28085W        W 1153   8.879   6.121   1.782
28086W        W 1154  31.957  13.052  10.683
28087W        W 1155  25.101  16.237   3.623
28088W        W 1156  36.316  37.536  14.595
28089W        W 1157   9.320  22.769   1.933
28090W        W 1158  32.451  11.352   1.720
28091W        W 1159  18.231  36.645  14.540
28092W        W 1160  22.788   3.473   4.629
28093W        W 1161  15.081  29.970   1.322
28094W        W 1162  40.030  14.270  14.647
28095W        W 1163  37.965   9.265  13.030
28096W        W 1164  44.812  12.323   1.334
28097W        W 1165   6.412  34.224  13.410
28098W        W 1166  22.507   2.223   2.359
28099W        W 1167  22.788  13.352  12.364
28100W        W 1168   4.900  43.052   4.987
28101W        W 1169  22.689   2.532   1.636
28102W        W 1170   7.408   3.258   0.398
28103W        W 1171  25.288  43.981  14.026
28104W        W 1172  28.590  13.669  11.163
28105W        W 1173  44.512  36.507   3.759
28106W        W 1174  24.127   3.668   0.173
28107W        W 1175  18.227   0.163   3.756
28108W        W 1176   5.936  23.231   2.210
28109W        W 1177  27.102  34.173   4.373
28110W        W 1178  33.602  26.785   0.801
28111W        W 1179  22.113  34.399   1.886
28112W        W 1180  34.616  24.040  11.535
28113W        W 1181  33.458  34.914  13.407
28114W        W 1182  40.412  20.281   0.823
28115W        W 1183  29.086  13.189   0.404
28116W        W 1184  17.259  15.584   4.173
28117W        W 1185  37.172  25.701   2.672
28118W        W 1186  35.561  31.767  11.515
28119W        W 1187  18.625   0.816  14.358
28120W        W 1188  43.385  20.781  14.701
28121W        W 1189   7.969  32.126   3.239
28122W        W 1190  26.194  22.464   2.701
28123W        W 1191  44.875  13.829  13.903
28124W        W 1192  26.635  28.602  14.093
28125W        W 1193  12.761  10.315   2.246
28126W        W 1194  26.690  37.499  12.530
28127W        W 1195  28.673  24.805   1.381
28128W        W 1196   1.817  13.660  14.047
28129W        W 1197  30.430  13.613  12.565
28130W        W 1198  33.552   3.847  13.369
28131W        W 1199   7.860  29.290  10.005
28132W        W 1200  42.454  41.864   1.357
28133W        W 1201  33.571  18.322   0.851
28134W        W 1202  22.747  28.919  14.420
28135W        W 1203  30.906   8.953   2.675
28136W        W 1204  42.956  39.772  13.909
28137W        W 1205  32.924  14.002   1.813
28138W        W 1206  32.717  17.874   1.374
28139W        W 1207  15.108  37.822   0.432
28140W        W 1208  12.438  37.344   4.627
28141W        W 1209  41.753  37.835  14.048
28142W        W 1210  13.722  39.871   1.403
28143W        W 1211  25.109  30.670  14.817
28144W        W 1212   5.140  24.184   3.801
28145W        W 1213  33.488  24.507   5.160
28146W        W 1214  21.165  23.732  14.396
28147W        W 1215  29.683   4.209   2.916
28148W        W 1216  42.029   7.035  11.133
28149W        W 1217  35.371  26.155   4.490
28150W        W 1218  27.330   4.336   1.668
28151W        W 1219  19.552  11.681   1.798
28152W        W 1220  33.955  33.729  11.799
28153W        W 1221  11.192  13.053   2.350
28154W        W 1222  43.254  43.833   4.871
28155W        W 1223  39.274  37.336   2.282
28156W        W 1224  20.723  34.094  11.493
28157W        W 1225  34.625  17.735  12.912
28158W        W 1226   7.308  39.484   0.148
28159W        W 1227   3.947  31.534  11.167
28160W        W 1228   1.682  35.008   5.086
28161W        W 1229  41.885  43.902  13.808
28162W        W 1230   5.134  36.894  11.527
28163W        W 1231   8.078  13.762   3.421
28164W        W 1232   6.860   6.884  11.518
28165W        W 1233  42.341   0.867   1.885
28166W        W 1234  13.371  13.840  11.507
28167W        W 1235   7.368  19.494  10.520
28168W        W 1236  39.578  27.535   2.199
28169W        W 1237  11.661  37.779  12.533
28170W        W 1238   3.418  11.801  10.892
28171W        W 1239  42.923  29.471   1.591
28172W        W 1240  26.934  38.403  13.480
28173W        W 1241  39.582  22.329   3.152
28174W        W 1242  28.219  17.737   0.772
28175W        W 1243  21.709   1.503  10.434
28176W        W 1244  29.489  28.858  14.526
28177W        W 1245   6.441  31.440   1.276
28178W        W 1246   0.355  15.609  13.077
28179W        W 1247  38.970   3.986   3.674
28180W        W 1248  11.048  39.796  11.194
28181W        W 1249   1.787  32.828   2.453
28182W        W 1250  14.402  24.950   5.033
28183W        W 1251  15.453  42.066   4.077
28184W        W 1252  21.068  40.966   4.269
28185W        W 1253  44.233  17.023   3.695
28186W        W 1254  44.083  20.222   1.364
28187W        W 1255  10.661  20.581  11.665
28188W        W 1256  29.573  30.599  13.198
28189W        W 1257  25.454   7.268  14.943
28190W        W 1258  23.107   3.514  12.508
28191W        W 1259  41.413   7.838   4.097
28192W        W 1260  38.894   4.166  13.147
28193W        W 1261  39.142  40.809  13.000
28194W        W 1262  44.743  26.138   1.359
28195W        W 1263  42.023  43.951   1.204
28196W        W 1264   7.605  37.748   0.286
28197W        W 1265   6.072  37.624   0.338
28198W        W 1266  32.429   0.343   2.165
28199W        W 1267  30.070  11.148   4.101
28200W        W 1268  32.189  31.341   3.251
28201W        W 1269  23.845  24.118  12.383
28202W        W 1270  38.133   5.456  12.400
28203W        W 1271  19.496   5.337   2.302
28204W        W 1272  33.131   3.907  12.144
28205W        W 1273  44.843  37.963   0.986
28206W        W 1274  33.003  34.146   0.331
28207W        W 1275  14.065   2.946  11.101
28208W        W 1276  28.679  36.385   4.824
28209W        W 1277  29.495  24.696  12.315
28210W        W 1278   5.788  35.621  12.490
28211W        W 1279  16.645  41.830  14.117
28212W        W 1280  21.719  20.991   0.811
28213W        W 1281  29.817  19.834  12.737
28214W        W 1282   2.420   9.710  14.992
28215W        W 1283  11.863   0.937  12.342
28216W        W 1284  30.460  21.751  12.008
28217W        W 1285  29.470  35.403  10.862
28218W        W 1286  38.832   3.121  14.557
28219W        W 1287  11.907  31.100  11.621
28220W        W 1288  12.285  16.464   5.102
28221W        W 1289  34.934  21.881  14.337
28222W        W 1290  27.938  43.995  14.322
28223W        W 1291   1.670   3.371   2.773
28224W        W 1292  36.397  14.291   2.373
28225W        W 1293   5.658  22.115   3.881
28226W        W 1294  15.936  24.707  11.084
28227W        W 1295  32.145  33.403  12.916
28228W        W 1296  22.732  13.721  13.318
28229W        W 1297  33.346   8.969  11.592
28230W        W 1298  39.327  27.043  14.071
28231W        W 1299   6.929  44.338   0.437
28232W        W 1300  22.987  41.526   4.047
28233W        W 1301  41.935  44.560   0.097
28234W        W 1302   2.085  17.232  13.066
28235W        W 1303  11.620  13.548  12.129
28236W        W 1304   4.677   8.249  11.019
28237W        W 1305  40.281  17.293   4.517
28238W        W 1306   1.130  12.847   1.596
28239W        W 1307  20.804   9.654   2.268
28240W        W 1308   1.724  35.046  13.437
28241W        W 1309  27.404   1.930  14.105
28242W        W 1310  20.719   3.787   2.149
28243W        W 1311   0.676  36.265  10.159
28244W        W 1312  14.615  18.567  14.823
28245W        W 1313  17.296  23.697  12.047
28246W        W 1314   2.946  44.992   4.557
28247W        W 1315   8.974  39.036  14.608
28248W        W 1316   4.348  41.523  13.406
28249W        W 1317  22.431   1.837  12.130
28250W        W 1318  17.926  28.396   2.803
28251W        W 1319   4.706   9.416  13.908
28252W        W 1320  17.659   4.449  10.479
28253W        W 1321   4.092  37.259   5.018
28254W        W 1322  44.282  34.311  10.707
28255W        W 1323  32.171   7.598   4.558
28256W        W 1324  23.478  38.573   4.127
28257W        W 1325   6.731  15.464   2.306
28258W        W 1326  22.639  24.405  13.339
28259W        W 1327  43.305   4.159   2.824
28260W        W 1328  17.152  14.871   3.651
28261W        W 1329  30.130   6.171  11.069
28262W        W 1330   2.471   0.279  10.945
28263W        W 1331  23.102   8.869   1.354
28264W        W 1332  37.548   8.277   2.354
28265W        W 1333   9.707  38.925   3.757
28266W        W 1334  15.255  31.128   2.203
28267W        W 1335  10.816  18.001  13.193
28268W        W 1336  31.048   5.728  12.833
28269W        W 1337  17.283  16.192  14.146
28270W        W 1338   5.250   2.499  14.441
28271W        W 1339  35.681  41.570  14.080
28272W        W 1340  17.746  29.439   2.273
28273W        W 1341  31.534  41.979   0.139
28274W        W 1342   9.827  40.523  11.543
28275W        W 1343  26.878  21.693  14.956
28276W        W 1344  18.819  42.922   4.800
28277W        W 1345   1.240  34.513   0.819
28278W        W 1346   1.455  14.308   2.606
28279W        W 1347   7.948  42.567   2.342
28280W        W 1348  12.741   0.250   3.360
28281W        W 1349  17.310  21.915  10.322
28282W        W 1350  12.877  32.413  13.292
28283W        W 1351  10.245   9.651  13.095
28284W        W 1352  40.443  29.617  12.455
28285W        W 1353  22.219  26.088   4.722
28286W        W 1354  36.433  32.345  13.300
28287W        W 1355  13.517  12.580   1.891
28288W        W 1356  15.134  17.797  13.512
28289W        W 1357   4.183   1.944  12.033
28290W        W 1358  20.970  17.607   1.796
28291W        W 1359  34.541  40.769  11.422
28292W        W 1360  34.369  24.205   1.510
28293W        W 1361  40.333  21.657  14.314
28294W        W 1362   6.956  23.754  11.116
28295W        W 1363  11.103  30.199  14.974
28296W        W 1364  14.977  32.136  12.842
28297W        W 1365  28.472   8.162   0.823
28298W        W 1366  12.371  23.888   0.445
28299W        W 1367  38.345   3.178  10.781
28300W        W 1368  32.512  35.089   2.292
28301W        W 1369  23.040  16.731   0.995
28302W        W 1370  41.573  14.642   2.169
28303W        W 1371  10.147  31.668   0.572
28304W        W 1372   6.883   9.193  11.656
28305W        W 1373  34.991   9.419   3.202
28306W        W 1374  29.023  32.567  14.268
28307W        W 1375  38.364   6.112   3.659
28308W        W 1376  28.551   6.126   2.109
28309W        W 1377  23.905  29.069   0.776
28310W        W 1378  17.189  20.860   1.881
28311W        W 1379  26.203  13.834   1.457
28312W        W 1380  42.116  41.305  12.085
28313W        W 1381  31.956  38.459  10.775
28314W        W 1382  15.169  33.406  11.001
28315W        W 1383  30.479  38.874  11.518
28316W        W 1384   3.783  20.245  13.670
28317W        W 1385  27.221  28.528   2.763
28318W        W 1386   9.737  24.050   1.577
28319W        W 1387  38.909  43.729   2.309
28320W        W 1388  33.109  29.602   0.777
28321W        W 1389   1.756   9.278   1.347
28322W        W 1390  25.034  12.230   2.143
28323W        W 1391  32.553  29.622   5.061
28324W        W 1392  29.100   9.852   3.077
28325W        W 1393   9.199   2.119  11.777
28326W        W 1394  43.033  24.550   3.166
28327W        W 1395  20.337  33.451   0.260
28328W        W 1396  10.795  10.176   3.257
28329W        W 1397  25.462  34.428   1.467
28330W        W 1398  13.428  17.282   2.790
28331W        W 1399  44.707  27.574  12.524
28332W        W 1400  23.756  21.802  12.852
28333W        W 1401  37.410  24.124   1.870
28334W        W 1402  44.028   8.528   2.725
28335W        W 1403  25.955  25.698   2.665
28336W        W 1404  24.544  44.929  13.073
28337W        W 1405  26.708  12.218  12.470
28338W        W 1406  16.186  23.705   1.304
28339W        W 1407  11.391  32.167  11.552
28340W        W 1408  19.370  12.673  11.209
28341W        W 1409  19.021   3.817   2.747
28342W        W 1410  20.777  38.048  11.905
28343W        W 1411  31.425  28.036   4.186
28344W        W 1412  27.295   9.622   4.146
28345W        W 1413  35.189  29.094  14.787
28346W        W 1414  12.645  40.453   0.726
28347W        W 1415  21.563  25.646  14.261
28348W        W 1416  36.387  40.743   2.491
28349W        W 1417  21.185  22.996  11.000
28350W        W 1418  38.720  29.472   1.293
28351W        W 1419  14.886  28.528  12.534
28352W        W 1420   1.118  13.198  13.634
28353W        W 1421  40.852  40.322  10.682
28354W        W 1422  35.584  19.805  11.004
28355W        W 1423  40.868   0.907  11.541
28356W        W 1424   9.230  44.494   1.701
28357W        W 1425  13.032  41.427   0.939
28358W        W 1426   4.213  24.027   4.666
28359W        W 1427  24.434  22.706  11.544
28360W        W 1428   5.768   7.357   2.629
28361W        W 1429  36.567  39.562  13.934
28362W        W 1430  23.917  16.852  14.203
28363W        W 1431  28.888   0.643  11.542
28364W        W 1432  16.733  33.231  11.725
28365W        W 1433  28.858  31.104   4.157
28366W        W 1434  28.952  24.527  11.965
28367W        W 1435  36.866  21.586   0.811
28368W        W 1436  28.959   6.400   4.172
28369W        W 1437  38.288  28.587  13.036
28370W        W 1438  18.211  10.367   3.291
28371W        W 1439  43.303  18.614  11.463
28372W        W 1440  41.359  23.480  11.031
28373W        W 1441  32.562   0.332   4.612
28374W        W 1442  26.959  37.394  10.770
28375W        W 1443  27.259  41.947   0.827
28376W        W 1444  37.730  36.480   4.578
28377W        W 1445  26.658  18.606   0.719
28378W        W 1446  18.995  29.463  12.106
28379W        W 1447  27.917   8.372  12.572
28380W        W 1448  19.778  10.907   3.462
28381W        W 1449  39.115  25.272   3.723
28382W        W 1450  32.665   5.788   1.201
28383W        W 1451  39.833  23.507  13.629
28384W        W 1452  17.661  44.819   4.630
28385W        W 1453  33.986  40.277   3.617
28386W        W 1454  43.371  14.546  14.751
28387W        W 1455  32.554  43.523   3.149
28388W        W 1456   3.014  26.001  11.293
28389W        W 1457  11.885  20.503   4.045
28390W        W 1458   8.759  24.574   4.656
28391W        W 1459  33.485   1.749   4.816
28392W        W 1460   9.194  31.708  12.523
28393W        W 1461  17.766  24.253   0.734
28394W        W 1462  30.212   7.738  11.049
28395W        W 1463  25.572  12.226  10.112
28396W        W 1464  33.606   5.842  10.710
28397W        W 1465  24.885  28.054  13.012
28398W        W 1466  27.613  21.499  10.856
28399W        W 1467   8.683  38.081  13.987
28400W        W 1468  23.264  40.875  14.031
28401W        W 1469  18.858  34.419   0.727
28402W        W 1470   1.248  43.208  11.534
28403W        W 1471  12.259   6.426  13.912
28404W        W 1472  37.097  33.526   3.643
28405W        W 1473  12.211   6.769  14.895
28406W        W 1474  15.112   6.539   2.596
28407W        W 1475  31.839  11.320   0.224
28408W        W 1476   5.598  25.605   3.579
28409W        W 1477   4.097   4.226  11.974
28410W        W 1478  42.733   8.308   2.316
28411W        W 1479  12.402  10.988   4.825
28412W        W 1480  38.481   7.053   2.119
28413W        W 1481  31.174  36.973   3.152
28414W        W 1482  14.825   6.318   4.876
28415W        W 1483  43.407  32.869  10.617
28416W        W 1484  42.699   6.414   0.925
28417W        W 1485  31.056  20.517  12.881
28418W        W 1486  20.197  34.461  11.825
28419W        W 1487  44.548  37.042  13.864
28420W        W 1488  40.222  41.508   3.716
28421W        W 1489  23.817  18.819  12.362
28422W        W 1490  22.743  29.944  12.993
28423W        W 1491  35.753  31.844   0.973
28424W        W 1492  26.394   3.932  14.053
28425W        W 1493   7.273  19.647   1.414
28426W        W 1494  31.891   7.815  11.532
28427W        W 1495  40.913   7.882   9.755
28428W        W 1496  23.306  12.734   2.221
28429W        W 1497  38.710  34.066  10.484
28430W        W 1498  25.445  41.812  12.342
28431W        W 1499  31.942  22.490  13.035
28432W        W 1500   4.241  18.508   2.809
28433W        W 1501  25.466   5.779  11.605
28434W        W 1502  27.954   1.325   4.043
28435W        W 1503  20.933  10.250  10.382
28436W        W 1504  16.001  18.046   2.261
28437W        W 1505  17.612  36.596  14.960
28438W        W 1506  12.956  35.103   2.905
28439W        W 1507   9.149  20.248  13.808
28440W        W 1508  16.373  13.808   2.929
28441W        W 1509  19.150  32.878  10.610
28442W        W 1510  41.934  18.382  14.386
28443W        W 1511   9.869   2.918   0.907
28444W        W 1512  13.232  14.121  13.077
28445W        W 1513  38.520  28.076   1.362
28446W        W 1514  10.302  25.522   2.738
28447W        W 1515  19.734  19.021   2.111
28448W        W 1516  11.037  11.258   0.985
28449W        W 1517  17.235  43.348  12.982
28450W        W 1518   9.271  39.077   0.027
28451W        W 1519   1.848  16.296   3.341
28452W        W 1520  35.515  30.778   1.770
28453W        W 1521  22.664  19.051   3.229
28454W        W 1522  41.305  10.711   4.733
28455W        W 1523   0.576  41.342  14.886
28456W        W 1524  26.211  10.925   0.405
28457W        W 1525  14.716  42.287   2.212
28458W        W 1526  37.938  31.229   5.674
28459W        W 1527  34.010  41.340   2.321
28460W        W 1528  39.324  28.163  11.071
28461W        W 1529  37.812  36.340   3.677
28462W        W 1530  21.963  31.028   4.154
28463W        W 1531  21.346   5.031   3.231
28464W        W 1532  39.821   1.838   2.194
28465W        W 1533  29.458  16.986  13.750
28466W        W 1534  30.902  23.304   1.288
28467W        W 1535  40.127  17.035  13.397
28468W        W 1536  15.114  12.191  12.210
28469W        W 1537  13.128   5.925  13.934
28470W        W 1538  13.751  11.853  14.151
28471W        W 1539   9.707  29.788  11.431
28472W        W 1540  18.734   6.294   3.048
28473W        W 1541  13.850   3.633  11.643
28474W        W 1542  43.806  30.369   4.608
28475W        W 1543  34.440  17.289  11.970
28476W        W 1544  29.044   4.739  14.992
28477W        W 1545  42.477  30.348  10.838
28478W        W 1546  27.620  43.143  13.093
28479W        W 1547  40.599   1.995  11.638
28480W        W 1548  32.598  41.627  12.262
28481W        W 1549  13.601  39.040  11.835
28482W        W 1550  27.001  18.554  11.572
28483W        W 1551  41.472   2.485  12.192
28484W        W 1552  13.108  36.192  12.967
28485W        W 1553  36.999   1.388  11.545
28486W        W 1554  40.614  14.208  13.075
28487W        W 1555  41.459  40.086   2.349
28488W        W 1556   8.748   0.500   4.990
28489W        W 1557  35.815  27.918   2.329
28490W        W 1558  32.427  44.768  14.903
28491W        W 1559  17.076  19.482  12.384
28492W        W 1560  21.666  16.949  12.718
28493W        W 1561  28.811  20.035  10.979
28494W        W 1562  22.972  11.759   0.698
28495W        W 1563  30.914  17.157  11.570
28496W        W 1564  12.118   1.841  12.781
28497W        W 1565   1.437  15.062   0.974
28498W        W 1566  31.206  40.512   0.439
28499W        W 1567  16.073  32.663   3.487
28500W        W 1568  14.043  33.088   0.395
28501W        W 1569  41.722  11.376   1.306
28502W        W 1570  31.463  14.897  11.592
28503W        W 1571   6.882  17.029  13.942
28504W        W 1572   7.144  41.951   5.066
28505W        W 1573  12.319  19.115  11.893
28506W        W 1574  10.152  30.084  11.426
28507W        W 1575  14.158  27.454   2.156
28508W        W 1576   4.509  33.030   1.801
28509W        W 1577   7.809  15.113  12.560
28510W        W 1578  16.209  28.461  12.843
28511W        W 1579  11.884  24.318   2.647
28512W        W 1580  13.604  36.342   3.239
28513W        W 1581  33.568  12.698   1.002
28514W        W 1582  41.257   8.241   2.328
28515W        W 1583   7.730  12.862   2.099
28516W        W 1584  17.078  44.929   1.892
28517W        W 1585  27.500   3.921  11.417
28518W        W 1586   3.975  15.080  12.514
28519W        W 1587  15.623  21.610  10.452
28520W        W 1588  38.784  18.934  11.465
28521W        W 1589  28.296  22.148   3.645
28522W        W 1590   1.727   8.679  10.632
28523W        W 1591  15.376   9.893   2.691
28524W        W 1592  34.378   1.853   1.495
28525W        W 1593   3.324  15.981  13.800
28526W        W 1594   0.444  32.398   4.578
28527W        W 1595  38.637  17.730  11.507
28528W        W 1596  44.389  37.516  13.041
28529W        W 1597   8.330  18.248  13.481
28530W        W 1598  20.527   9.905   4.067
28531W        W 1599  18.313  14.894   2.210
28532W        W 1600  36.467   7.985   2.815
28533W        W 1601  40.100  26.584  10.995
28534W        W 1602  18.720  19.951  12.016
28535W        W 1603  38.546  19.974  13.464
28536W        W 1604  41.486  26.880   1.222
28537W        W 1605  24.494  25.995  12.028
28538W        W 1606  12.172  15.359  14.405
28539W        W 1607  32.136  34.974   2.661
28540W        W 1608   4.721  33.512  12.117
28541W        W 1609  39.962  17.702  10.338
28542W        W 1610   0.490   7.391  13.845
28543W        W 1611  25.687  36.482  13.766
28544W        W 1612  37.793   6.620   4.083
28545W        W 1613  23.554  35.067  13.321
28546W        W 1614  10.717  44.475   1.875
28547W        W 1615   6.492  37.265  12.481
28548W        W 1616   8.856  19.274   1.320
28549W        W 1617   0.991   1.395   4.644
28550W        W 1618   2.395  39.113   4.189
28551W        W 1619  22.531  18.494   2.840
28552W        W 1620  37.516  22.000   0.880
28553W        W 1621  13.021   2.386   4.246
28554W        W 1622  22.120  34.677   0.558
28555W        W 1623   5.210  18.510   4.389
28556W        W 1624  38.957  30.402   2.800
28557W        W 1625  31.134  40.857  13.503
28558W        W 1626  28.727  43.846   4.549
28559W        W 1627  38.257  40.631  12.915
28560W        W 1628   7.942  27.450   2.587
28561W        W 1629   7.220   3.846  12.600
28562W        W 1630  13.633  38.276   3.694
28563W        W 1631  39.430   0.562   3.240
28564W        W 1632  24.025  24.428  14.537
28565W        W 1633   4.367  18.237  10.779
28566W        W 1634  44.781  15.895  12.842
28567W        W 1635   4.287   6.326   0.813
28568W        W 1636  41.549  28.835   3.735
28569W        W 1637  36.606  39.965   3.788
28570W        W 1638  30.026  35.154   3.773
28571W        W 1639  12.603  39.322   1.836
28572W        W 1640  15.658   4.158  10.531
28573W        W 1641  16.268  27.708   3.094
28574W        W 1642  44.269  40.448  13.625
28575W        W 1643  11.287  43.466  14.573
28576W        W 1644  17.067  16.074   1.738
28577W        W 1645  28.578  39.801  12.637
28578W        W 1646  41.369   8.850   4.240
28579W        W 1647  34.624   4.314   2.259
28580W        W 1648  37.716  31.500   3.715
28581W        W 1649  12.670   8.321   2.886
28582W        W 1650  12.466   5.588  11.001
28583W        W 1651  12.873  16.855  11.179
28584W        W 1652  30.384  35.515   0.008
28585W        W 1653  42.353  19.001   0.881
28586W        W 1654  43.185  35.950   3.345
28587W        W 1655  44.086  25.949  14.989
28588W        W 1656  13.289  14.945   2.455
28589W        W 1657  33.626  17.545   0.281
28590W        W 1658  27.112  25.207  10.498
28591W        W 1659  17.500  30.703   4.777
28592W        W 1660   9.444  41.753  14.323
28593W        W 1661  13.068  10.352   0.826
28594W        W 1662  41.245  25.246   1.875
28595W        W 1663  27.579   3.418  14.877
28596W        W 1664  31.894  38.943  10.639
28597W        W 1665  19.059  26.544  11.619
28598W        W 1666  16.330  36.584  12.362
28599W        W 1667   7.155  23.479   1.316
28600W        W 1668  10.847  28.338  12.210
28601W        W 1669  12.128  44.322   1.749
28602W        W 1670  25.266  16.134   2.680
28603W        W 1671  25.346   1.459   4.639
28604W        W 1672  30.753  29.539   3.584
28605W        W 1673   3.472  33.421  10.429
28606W        W 1674   1.045  38.894  12.510
28607W        W 1675  29.487   5.431  12.512
28608W        W 1676  43.473   2.459  14.566
28609W        W 1677   2.770  37.052   0.479
28610W        W 1678   3.128   7.643  13.718
28611W        W 1679   6.699   9.899  14.721
28612W        W 1680  15.628  19.958   4.536
28613W        W 1681  27.436  34.031   1.734
28614W        W 1682  10.134  16.888  11.530
28615W        W 1683  27.429  41.334   2.082
28616W        W 1684  39.848  42.077  13.836
28617W        W 1685   4.415  18.663   0.010
28618W        W 1686  36.391  12.683   4.734
28619W        W 1687  28.622   2.301  10.760
28620W        W 1688  15.194   1.985  13.375
28621W        W 1689   5.266   0.472   4.662
28622W        W 1690  43.859  31.953   0.429
28623W        W 1691  15.831   6.050  12.037
28624W        W 1692   7.645  38.823  12.475
28625W        W 1693  35.673  25.111   2.777
28626W        W 1694   9.106  33.451   3.727
28627W        W 1695  24.004  28.614   4.349
28628W        W 1696   8.226  34.262  12.326
28629W        W 1697  25.764  32.660  11.677
28630W        W 1698  37.037  32.026  13.406
28631W        W 1699  42.475   9.436  13.877
28632W        W 1700  42.270  11.639   0.455
28633W        W 1701  11.953   0.928  14.147
28634W        W 1702   5.166  44.508   4.486
28635W        W 1703  41.036   1.064  12.973
28636W        W 1704  25.571  37.452   2.100
28637W        W 1705  41.450  23.966  11.949
28638W        W 1706  44.795  43.932   0.772
28639W        W 1707   8.656  36.678  12.578
28640W        W 1708  13.147  32.857   1.730
28641W        W 1709   9.661  25.946   0.048
28642W        W 1710  27.922  17.478  11.147
28643W        W 1711   9.784  21.021   3.655
28644W        W 1712  40.544   6.087  12.933
28645W        W 1713  36.972  28.377  13.613
28646W        W 1714  42.270   2.212   2.796
28647W        W 1715  26.399  29.417   3.652
28648W        W 1716  12.450  41.871  10.505
28649W        W 1717  12.103  19.241  13.598
28650W        W 1718  29.572  34.426   2.820
28651W        W 1719  37.336   7.120   1.818
28652W        W 1720  21.152  19.202  14.484
28653W        W 1721  24.547  30.221  12.559
28654W        W 1722  22.270  39.690   4.562
28655W        W 1723  40.485  25.802  14.855
28656W        W 1724  26.606  39.728   0.770
28657W        W 1725  16.308  14.743   3.113
28658W        W 1726   4.188  29.197  13.043
28659W        W 1727   8.530  13.240  11.220
28660W        W 1728   8.942   0.831  14.819
28661W        W 1729   0.834  10.141  13.609
28662W        W 1730  25.570   6.684  12.718
28663W        W 1731  28.602  42.881  14.323
28664W        W 1732  20.571  21.231   3.364
28665W        W 1733  32.953   6.608  13.963
28666W        W 1734  40.762  10.818   0.569
28667W        W 1735  36.103  14.608  14.799
28668W        W 1736   7.360  34.058   4.701
28669W        W 1737  13.841  34.027  12.148
28670W        W 1738  29.716   1.629  11.191
28671W        W 1739  42.114  29.586   1.407
28672W        W 1740  43.012  32.429   0.360
28673W        W 1741  12.586  11.226   0.980
28674W        W 1742  40.462  12.050   0.901
28675W        W 1743  40.947  26.825   2.208
28676W        W 1744  18.043   7.267  13.820
28677W        W 1745  25.827  17.544   1.184
28678W        W 1746  34.110  20.618   1.774
28679W        W 1747  38.464  25.216   3.759
28680W        W 1748  38.837   9.797   0.500
28681W        W 1749  28.117   9.732   4.098
28682W        W 1750   0.754  13.838   3.602
28683W        W 1751   4.892  13.726  11.529
28684W        W 1752  41.342  20.642  14.347
28685W        W 1753  21.239  14.343   1.771
28686W        W 1754   9.646  13.751   2.705
28687W        W 1755  29.136   9.817   0.070
28688W        W 1756  38.366  39.358  11.189
28689W        W 1757  43.023  14.621   0.441
28690W        W 1758  26.093  14.465   0.803
28691W        W 1759  16.662   0.873   1.366
28692W        W 1760  14.789  35.452   4.661
28693W        W 1761  31.602  43.197   3.928
28694W        W 1762  17.785  35.821   2.657
28695W        W 1763   7.467   3.952   4.982
28696W        W 1764  26.164  25.222   4.679
28697W        W 1765  36.898  24.991  10.397
28698W        W 1766  12.306   9.887   1.288
28699W        W 1767  28.530  16.418  11.538
28700W        W 1768  22.551  41.455  10.977
28701W        W 1769   5.264   4.605   4.875
28702W        W 1770  14.219  35.855  10.803
28703W        W 1771  32.637  26.675  11.734
28704W        W 1772  39.120  40.863   3.390
28705W        W 1773  19.118  29.051   4.951
28706W        W 1774  36.006  43.645  13.313
28707W        W 1775  42.394  12.688  14.739
28708W        W 1776  11.899  44.384  10.635
28709W        W 1777  31.712  38.809  14.547
28710W        W 1778  43.766  34.984  12.045
28711W        W 1779  31.551  44.466   2.286
28712W        W 1780  23.727  14.103   2.902
28713W        W 1781  17.078  28.037  13.273
28714W        W 1782  14.639  16.851   2.349
28715W        W 1783  22.792  28.971   3.605
28716W        W 1784  33.034  42.721   2.028
28717W        W 1785  19.551  30.998  11.222
28718W        W 1786  39.006  44.466   1.728
28719W        W 1787  31.651   5.361   2.158
28720W        W 1788  36.879  35.411  12.136
28721W        W 1789  43.737  41.964  13.326
28722W        W 1790  34.195  23.131   4.562
28723W        W 1791  34.492  28.519  12.527
28724W        W 1792   0.503  30.992  13.787
28725W        W 1793   3.643  10.234   2.347
28726W        W 1794  10.260   3.279   0.842
28727W        W 1795  34.009  10.736   1.359
28728W        W 1796  40.777  29.130  11.905
28729W        W 1797   6.333  22.091  10.686
28730W        W 1798  25.067  19.773   4.988
28731W        W 1799  35.366  18.344   4.719
28732W        W 1800   7.181  35.228  13.553
28733W        W 1801  24.301  16.189  14.802
28734W        W 1802   4.672  27.520  14.809
28735W        W 1803  44.466  29.660   1.371
28736W        W 1804  41.868  28.118   3.033
28737W        W 1805   8.344  38.984  13.986
28738W        W 1806  29.104  42.844   1.016
28739W        W 1807   4.886  19.244   0.924
28740W        W 1808  38.906  35.641  11.994
28741W        W 1809  44.882   7.655  12.655
28742W        W 1810  21.691  38.878   3.908
28743W        W 1811   7.694  40.612   4.126
28744W        W 1812  36.463  23.107   4.918
28745W        W 1813  32.866   4.251   1.743
28746W        W 1814  33.937  35.795  11.286
28747W        W 1815  17.476  27.435  14.486
28748W        W 1816  29.793  30.193   1.657
28749W        W 1817   3.997  43.893  12.358
28750W        W 1818  41.444  17.511  12.142
28751W        W 1819  42.086   4.467   3.275
28752W        W 1820   5.353   8.442   0.814
28753W        W 1821  28.105  26.214  11.198
28754W        W 1822  16.678  34.820   0.386
28755W        W 1823   2.919  39.185  12.035
28756W        W 1824  18.082  36.820   2.215
28757W        W 1825   6.499  26.426  12.950
28758W        W 1826   8.741  23.078  14.434
28759W        W 1827   8.353  38.694   5.047
28760W        W 1828  38.317  26.668   2.840
28761W        W 1829  29.169  12.750   1.318
28762W        W 1830   3.483  31.267   4.161
28763W        W 1831   6.469  23.370   2.881
28764W        W 1832  19.510  32.549   4.462
28765W        W 1833   8.662   4.914  13.298
28766W        W 1834   7.819  21.176   1.406
28767W        W 1835   3.707  12.542  13.032
28768W        W 1836  38.412  18.514   4.795
28769W        W 1837  28.170   8.820   3.073
28770W        W 1838  18.309   6.701   1.350
28771W        W 1839  40.107  32.866   4.145
28772W        W 1840  18.173  23.921   2.363
28773W        W 1841  32.175  15.093   3.551
28774W        W 1842  31.545  44.381  13.996
28775W        W 1843  35.713  40.505   3.922
28776W        W 1844  15.246  22.036   1.444
28777W        W 1845  18.979  37.109  14.051
28778W        W 1846  25.167  37.490   2.420
28779W        W 1847   5.046  34.941  10.764
28780W        W 1848  43.869  32.602  10.758
28781W        W 1849   1.457   0.756   1.169
28782W        W 1850  35.840   5.443  11.177
28783W        W 1851  18.243  43.522  12.967
28784W        W 1852  40.350   1.079  11.597
28785W        W 1853  39.281  24.472  14.289
28786W        W 1854   1.312   0.044   4.520
28787W        W 1855  14.331  27.956  11.039
28788W        W 1856  21.170  39.582   1.985
28789W        W 1857  37.806   7.139  12.398
28790W        W 1858  41.791  13.704   2.879
28791W        W 1859  42.492  32.176  11.925
28792W        W 1860  35.436  38.765   4.203
28793W        W 1861  41.617   0.066  10.277
28794W        W 1862   3.954  34.582  11.920
28795W        W 1863  11.564  25.305  14.983
28796W        W 1864   0.733  39.799   0.883
28797W        W 1865  39.667  16.188  12.642
28798W        W 1866  30.628  31.199   1.744
28799W        W 1867  35.011  44.714   0.296
28800W        W 1868  34.932  12.633   0.959
28801W        W 1869  22.481  34.053   2.020
28802W        W 1870  17.665  31.369  11.069
28803W        W 1871  41.091  28.298   5.344
28804W        W 1872   3.635  14.749   1.487
28805W        W 1873  44.279  41.272  12.671
28806W        W 1874   8.948  24.225  12.288
28807W        W 1875  35.031  16.072  13.376
28808W        W 1876   6.389  34.006  10.942
28809W        W 1877  27.121  32.057  13.098
28810W        W 1878  18.047  32.595   3.278
28811W        W 1879  21.612  34.994  13.197
28812W        W 1880  20.108  29.409   3.666
28813W        W 1881   9.825   9.877   1.385
28814W        W 1882  35.566  34.864   0.351
28815W        W 1883  20.989  17.634  13.726
28816W        W 1884  14.649  36.908  13.489
28817W        W 1885   3.768  16.221  11.310
28818W        W 1886  16.527  27.018   0.343
28819W        W 1887  37.540  10.072   1.827
28820W        W 1888   9.767  42.808   4.594
28821W        W 1889  33.317  39.814   4.953
28822W        W 1890  37.287  16.283  10.349
28823W        W 1891  37.583   6.171   2.227
28824W        W 1892   8.278  19.134  10.682
28825W        W 1893  11.673   1.675  12.975
28826W        W 1894   9.190   9.132   1.863
28827W        W 1895  12.710  21.508   3.060
28828W        W 1896  42.834   7.409   4.648
28829W        W 1897  22.442  36.274  10.832
28830W        W 1898  14.121   5.087  10.820
28831W        W 1899   7.798  37.852  11.502
28832W        W 1900   2.839   7.454   1.265
28833W        W 1901  38.251  13.581  13.326
28834W        W 1902   3.399  27.869   2.653
28835W        W 1903   7.277   4.423  14.811
28836W        W 1904  17.545  23.278  14.910
28837W        W 1905  29.865  22.395   2.327
28838W        W 1906  36.499  12.113  12.317
28839W        W 1907  41.668   2.219  11.398
28840W        W 1908  22.978  43.838  13.336
28841W        W 1909  11.383  32.763  13.410
28842W        W 1910  38.376  29.665  13.554
28843W        W 1911  31.268  29.921  12.422
28844W        W 1912  19.012  38.923   3.779
28845W        W 1913  22.108  13.786   3.111
28846W        W 1914  12.958  17.105   3.680
28847W        W 1915  42.985  28.258  12.458
28848W        W 1916  13.253   0.619   1.776
28849W        W 1917  39.545   0.284  14.338
28850W        W 1918  35.832  40.033   4.109
28851W        W 1919   2.763   4.371   1.856
28852W        W 1920  36.729   4.776   3.809
28853W        W 1921  44.569   8.551  13.664
28854W        W 1922   1.646  21.728  13.368
28855W        W 1923   6.298  37.709  11.162
28856W        W 1924  44.481  32.393   3.700
28857W        W 1925  43.525  39.808   0.091
28858W        W 1926  41.963  21.697   1.406
28859W        W 1927  36.042  40.780   2.873
28860W        W 1928   6.114  25.775  12.356
28861W        W 1929  11.475  18.124   3.636
28862W        W 1930  21.079   3.054   4.175
28863W        W 1931  23.628  25.471  13.876
28864W        W 1932  39.346   7.791  14.447
28865W        W 1933  39.618  12.064  13.147
28866W        W 1934  13.307  31.205  12.538
28867W        W 1935  35.001  34.754  12.051
28868W        W 1936   0.720  21.143   4.969
28869W        W 1937  37.141  37.350  12.547
28870W        W 1938   8.144  44.713  14.484
28871W        W 1939  41.093   7.318   3.399
28872W        W 1940  36.293   1.320   4.680
28873W        W 1941  35.558  18.561  14.955
28874W        W 1942  28.708  35.159   4.046
28875W        W 1943  21.083   2.954   2.357
28876W        W 1944  17.955  18.514  12.908
28877W        W 1945  15.237  13.330   0.938
28878W        W 1946  23.649   0.675  13.453
28879W        W 1947   6.753  24.157   2.569
28880W        W 1948  12.586   8.562   0.665
28881W        W 1949  28.147  23.908  13.015
28882W        W 1950  35.009   3.469   1.985
28883W        W 1951  10.410  26.481   4.246
28884W        W 1952  13.729  29.647  11.658
28885W        W 1953  12.674  15.306  14.188
28886W        W 1954  30.036  39.312  12.620
28887W        W 1955  21.764   1.674   0.322
28888W        W 1956  33.540  15.717  10.661
28889W        W 1957   7.305  38.962  11.157
28890W        W 1958   7.243  32.015   1.672
28891W        W 1959  26.932  18.217  11.979
28892W        W 1960  20.098  42.228   4.039
28893W        W 1961  29.624  44.562   1.135
28894W        W 1962  29.096  31.587   2.894
28895W        W 1963   7.849  31.002  11.651
28896W        W 1964  41.551  22.727  10.550
28897W        W 1965   9.467  40.964   4.190
28898W        W 1966  33.326   1.928  11.808
28899W        W 1967   0.168  19.533  12.380
28900W        W 1968  22.491  22.709  14.206
28901W        W 1969  40.129  22.926  10.601
28902W        W 1970  16.992  25.040   3.098
28903W        W 1971   5.223   4.308   4.414
28904W        W 1972  23.787   5.275  13.544
28905W        W 1973  37.067   9.746   0.446
28906W        W 1974  25.460  19.421   5.068
28907W        W 1975  25.212  40.143  11.122
28908W        W 1976  15.129  12.235  10.497
28909W        W 1977  30.293  18.586  11.914
28910W        W 1978  14.210  17.073  12.039
28911W        W 1979  17.082  28.500   0.508
28912W        W 1980   9.804  15.163   2.541
28913W        W 1981  14.545  26.077   2.779
28914W        W 1982  14.233  17.117   3.344
28915W        W 1983   1.081  29.596  14.411
28916W        W 1984   9.271  38.472   4.572
28917W        W 1985  22.779  12.231  13.133
28918W        W 1986  30.502  35.176  11.499
28919W        W 1987  18.624  41.445   1.720
28920W        W 1988  15.603  18.427  12.632
28921W        W 1989  22.640  29.702  11.104
28922W        W 1990  38.905  43.200   1.434
28923W        W 1991  42.223  11.483   1.333
28924W        W 1992  14.766  35.799   5.056
28925W        W 1993   7.841  10.425  14.952
28926W        W 1994   3.498  13.078   3.791
28927W        W 1995  14.372  30.255   0.758
28928W        W 1996  12.143  34.045   0.013
28929W        W 1997  37.285  22.633  13.573
28930W        W 1998  34.102  40.322   0.445
28931W        W 1999  22.466   9.699   0.875
28932W        W 2000  12.630  23.098  11.170
28933W        W 2001   1.770   4.803   3.353
28934W        W 2002  22.561   3.046   1.763
28935W        W 2003  32.387  39.878   5.014
28936W        W 2004   0.449  15.868  11.083
28937W        W 2005  40.374  40.533   3.689
28938W        W 2006  44.568  18.241   5.166
28939W        W 2007  13.909   7.121   0.352
28940W        W 2008  11.823   2.968  12.618
28941W        W 2009  22.957  38.920  13.987
28942W        W 2010  31.465  23.009   4.652
28943W        W 2011  26.264  30.904  12.804
28944W        W 2012  43.671  34.726   3.564
28945W        W 2013  30.220  26.804   3.674
28946W        W 2014   6.215  41.884  13.480
28947W        W 2015   9.470  24.232   2.996
28948W        W 2016   2.135  28.044  12.705
28949W        W 2017  21.268  17.029   2.403
28950W        W 2018  20.068   0.834  14.970
28951W        W 2019  12.723   7.078  10.640
28952W        W 2020  21.495   4.723   1.684
28953W        W 2021  23.648   7.596   1.175
28954W        W 2022  10.161  40.343  10.440
28955W        W 2023  17.279   0.405  10.461
28956W        W 2024   5.730   6.645  12.021
28957W        W 2025  15.415  31.563   4.233
28958W        W 2026   5.427   2.743   4.061
28959W        W 2027   4.965  26.471   3.260
28960W        W 2028  39.604   2.514   3.742
28961W        W 2029   1.927  24.914   0.390
28962W        W 2030  24.640  16.656   1.162
28963W        W 2031  23.385  41.198  14.851
28964W        W 2032  28.659  40.006   0.573
28965W        W 2033  14.624  35.008   3.713
28966W        W 2034   5.239   2.648  13.433
28967W        W 2035   3.637  13.956  13.777
28968W        W 2036  43.465  27.189  14.866
28969W        W 2037  41.479  35.125  11.639
28970W        W 2038  17.582  33.607   1.848
28971W        W 2039   7.213   1.757   2.024
28972W        W 2040   6.438  44.524  12.160
28973W        W 2041   1.523  12.435   2.441
28974W        W 2042   8.943  22.462   3.709
28975W        W 2043  11.850  21.656   3.377
28976W        W 2044   5.044  43.479   1.293
28977W        W 2045  17.570  31.792  10.762
28978W        W 2046  21.748  28.706   3.554
28979W        W 2047  15.312  20.153   1.364
28980W        W 2048  30.479   9.344   4.689
28981W        W 2049  17.363  29.450  10.262
28982W        W 2050  11.918  44.348   1.215
28983W        W 2051  22.513   4.600  13.339
28984W        W 2052   5.620  27.008   1.764
28985W        W 2053   6.146  21.000  12.847
28986W        W 2054  19.026  42.779   0.104
28987W        W 2055  14.706  13.435  12.568
28988W        W 2056  29.934  29.102  14.537
28989W        W 2057  40.518  15.570   3.812
28990W        W 2058  37.301   3.468  12.164
28991W        W 2059  13.609  17.171  14.892
28992W        W 2060  40.297  12.101  12.330
28993W        W 2061  14.214  14.059  11.967
28994W        W 2062  25.458  10.269   2.870
28995W        W 2063   4.478  28.556   3.274
28996W        W 2064  16.060   4.252   2.417
28997W        W 2065  31.627  28.579  11.907
28998W        W 2066  34.672  37.328   2.139
28999W        W 2067  27.393   8.235  14.344
29000W        W 2068  31.571  32.381  13.669
29001W        W 2069   1.445  10.179  14.294
29002W        W 2070  24.437  41.882  13.798
29003W        W 2071  38.200  15.170   3.026
29004W        W 2072  32.926  33.655  12.192
29005W        W 2073  31.162  19.486  11.489
29006W        W 2074  38.069  29.810   3.313
29007W        W 2075  11.702  23.141  10.787
29008W        W 2076   2.241  18.636  12.053
29009W        W 2077   2.334  36.963  11.945
29010W        W 2078  18.181  35.127   3.193
29011W        W 2079   8.962  29.142   3.785
29012W        W 2080  38.952  30.673   0.662
29013W        W 2081  15.284  25.697   2.527
29014W        W 2082  40.958  27.534  14.908
29015W        W 2083   4.351  15.201  13.485
29016W        W 2084   0.503   3.308  13.962
29017W        W 2085   3.303  38.891  14.423
29018W        W 2086  27.546  13.381   0.832
29019W        W 2087  25.311  13.067  14.288
29020W        W 2088  33.988  19.019  13.263
29021W        W 2089  22.650  44.542  10.690
29022W        W 2090  39.455  10.450   0.893
29023W        W 2091  30.396   9.967   1.875
29024W        W 2092  18.051  38.506   4.229
29025W        W 2093  10.468  25.092  10.661
29026W        W 2094  34.220  41.810   4.562
29027W        W 2095   9.269  29.366  10.745
29028W        W 2096  13.701   1.207   4.319
29029W        W 2097   3.966  20.281  11.161
29030W        W 2098  34.878  31.342   5.132
29031W        W 2099   4.648   0.891  11.540
29032W        W 2100  10.855  22.145   2.250
29033W        W 2101   2.381  30.046  14.855
29034W        W 2102  10.874   0.473   0.212
29035W        W 2103  41.407  43.830   3.900
29036W        W 2104   8.178  29.440   0.765
29037W        W 2105  10.385  36.430  14.817
29038W        W 2106  27.043  40.045  14.525
29039W        W 2107  43.580  35.356  12.424
29040W        W 2108  11.559   4.915  14.792
29041W        W 2109  28.693   5.989  12.101
29042W        W 2110  13.173  23.642  13.953
29043W        W 2111  14.188  21.668  14.937
29044W        W 2112  34.012  19.518  10.551
29045W        W 2113  32.593  35.425   0.840
29046W        W 2114  19.750  37.087  13.498
29047W        W 2115  42.074  17.164  13.453
29048W        W 2116  41.454  31.856  11.263
29049W        W 2117   8.604  14.054   2.222
29050W        W 2118  29.459  26.347  12.263
29051W        W 2119  10.243  39.967   0.335
29052W        W 2120  17.063  44.156   3.441
29053W        W 2121  35.989  33.737   2.973
29054W        W 2122  22.663  14.636   2.348
29055W        W 2123  41.606  21.256   9.740
29056W        W 2124  29.210   1.413   0.905
29057W        W 2125  32.681  15.391  12.640
29058W        W 2126   6.310  11.227  10.777
29059W        W 2127  33.845  21.623  13.832
29060W        W 2128  37.256  33.399  13.827
29061W        W 2129  40.369  32.154  12.226
29062W        W 2130  25.781  42.335  10.662
29063W        W 2131  38.086  13.137  13.078
29064W        W 2132  18.957  15.645  14.207
29065W        W 2133  12.430  23.925   1.210
29066W        W 2134  21.821  40.513   1.285
29067W        W 2135  33.928  19.257   1.561
29068W        W 2136  19.721  25.453   3.092
29069W        W 2137   7.751   5.950   4.374
29070W        W 2138  15.704  22.449  11.682
29071W        W 2139   9.263  38.397  13.036
29072W        W 2140   5.679  32.072   3.741
29073W        W 2141   3.194  11.023   2.251
29074W        W 2142  44.385   1.881   1.229
29075W        W 2143   1.469   3.865   2.773
29076W        W 2144  23.840  34.405  13.090
29077W        W 2145  24.228  44.251   0.042
29078W        W 2146  21.721  34.401  12.341
29079W        W 2147  20.771  38.119   1.868
29080W        W 2148  12.865   1.452  12.846
29081W        W 2149  16.343  15.075  12.600
29082W        W 2150  32.552  11.924   0.454
29083W        W 2151   7.833  17.234  12.578
29084W        W 2152  24.544  44.605  11.483
29085W        W 2153  14.692  16.293  12.852
29086W        W 2154  38.979  21.023  11.508
29087W        W 2155  20.926  22.385   5.094
29088W        W 2156   4.216  13.577  14.917
29089W        W 2157  27.549  41.990  14.279
29090W        W 2158  15.656  19.112  13.408
29091W        W 2159   7.058  10.482  12.908
29092W        W 2160   7.400  14.102   2.649
29093W        W 2161  15.057  28.984   4.535
29094W        W 2162  27.099   6.774  12.082
29095W        W 2163  44.107  18.182   0.910
29096W        W 2164   7.538  33.602   1.878
29097W        W 2165  17.181  43.399  10.499
29098W        W 2166  34.115  39.235  14.029
29099W        W 2167  29.483  26.407  10.263
29100W        W 2168   8.234   7.237   4.040
29101W        W 2169   2.789   4.884   3.207
29102W        W 2170   1.111  19.277  13.160
29103W        W 2171  30.668  22.578   0.438
29104W        W 2172  14.463   5.232   4.071
29105W        W 2173  31.688  44.979   1.315
29106W        W 2174  35.857  12.699  12.000
29107W        W 2175  14.622  39.494  10.588
29108W        W 2176  29.444  24.975   1.848
29109W        W 2177  26.605  37.018  10.729
29110W        W 2178  10.367  28.960  14.257
29111W        W 2179  29.843  14.272  14.968
29112W        W 2180  30.528   1.799   1.802
29113W        W 2181  39.376  18.818  14.240
29114W        W 2182  19.531  37.211   4.303
29115W        W 2183  31.482  12.859   3.602
29116W        W 2184   2.228   6.625  11.874
29117W        W 2185  43.508  11.840  13.819
29118W        W 2186  38.552  24.166  12.540
29119W        W 2187  25.633  10.743   2.792
29120W        W 2188  39.357  12.865  14.980
29121W        W 2189  41.748  24.362  11.188
29122W        W 2190  16.071  41.853   0.626
29123W        W 2191   6.615   5.498  13.244
29124W        W 2192  15.255   1.311  13.910
29125W        W 2193  10.251  25.263   1.773
29126W        W 2194   7.928  32.390   3.695
29127W        W 2195  40.438  33.652   0.346
29128W        W 2196  27.914  28.950   4.396
29129W        W 2197  12.178  30.007  13.086
29130W        W 2198  16.306   4.513   0.384
29131W        W 2199  34.696  11.066   3.501
29132W        W 2200   4.858  43.468  13.591
29133W        W 2201   9.731   6.815  12.642
29134W        W 2202   4.021   0.412   2.141
29135W        W 2203  23.424  10.710  14.835
29136W        W 2204   6.691  27.102   1.428
29137W        W 2205  43.939  29.347   4.769
29138W        W 2206  40.025  32.337   2.664
29139W        W 2207  27.487  40.658  11.984
29140W        W 2208  43.972  41.926   0.285
29141W        W 2209  25.834  15.660   4.506
29142W        W 2210  16.610  42.972  10.068
29143W        W 2211  32.496  30.605  12.508
29144W        W 2212  39.261  16.034   2.321
29145W        W 2213   2.420  18.372  12.555
29146W        W 2214  27.379   1.004  13.052
29147W        W 2215   0.465  44.054  11.186
29148W        W 2216  37.809   4.400  11.008
29149W        W 2217  25.198   3.919  14.996
29150W        W 2218  41.899   1.248   2.295
29151W        W 2219  24.709  18.604  11.131
29152W        W 2220   1.237  28.725  13.089
29153W        W 2221  44.978  29.908  11.804
29154W        W 2222  29.507  24.706  14.720
29155W        W 2223   9.628  23.859   4.685
29156W        W 2224   8.188  11.442  12.214
29157W        W 2225  16.313  40.460  12.106
29158W        W 2226  15.756  38.281  11.908
29159W        W 2227  41.922  26.500  11.563
29160W        W 2228  24.183  44.439   2.679
29161W        W 2229  14.993  28.670  14.386
29162W        W 2230  16.257  22.955   0.793
29163W        W 2231  35.721  38.049   0.801
29164W        W 2232  32.962  42.776  14.280
29165W        W 2233  10.733   4.452   4.225
29166W        W 2234   7.105   4.768  13.517
29167W        W 2235  23.756  31.290   3.298
29168W        W 2236  19.700   9.337   0.315
29169W        W 2237  33.105   8.294  10.380
29170W        W 2238  25.440  15.445   3.186
29171W        W 2239  19.137  44.956  10.409
29172W        W 2240   9.132  17.062   2.731
29173W        W 2241  32.123  35.617   0.683
29174W        W 2242  34.353  42.475   4.314
29175W        W 2243  20.749   2.544  13.895
29176W        W 2244  29.229  25.705  13.723
29177W        W 2245   0.327  13.719  12.994
29178W        W 2246  18.181   8.612  11.562
29179W        W 2247  26.555   7.326   4.161
29180W        W 2248  30.943  39.999   3.477
29181W        W 2249  22.683  44.437   0.530
29182W        W 2250  19.037   0.878   1.744
29183W        W 2251  21.694  42.125  11.672
29184W        W 2252  32.341  35.882  13.961
29185W        W 2253  39.534  32.513   1.924
29186W        W 2254  43.743  35.686  11.274
29187W        W 2255  20.282  25.286  12.958
29188W        W 2256   7.733  26.188   2.287
29189W        W 2257  19.295  33.478  13.852
29190W        W 2258  11.600  10.283  10.801
29191W        W 2259  38.302  21.719  13.567
29192W        W 2260  33.043  33.917   4.793
29193W        W 2261  34.483  37.973  13.191
29194W        W 2262  28.667  33.838   3.729
29195W        W 2263  13.111  27.713   4.627
29196W        W 2264   6.785  14.100  12.292
29197W        W 2265  18.125  37.069  13.528
29198W        W 2266  13.082   5.501   4.097
29199W        W 2267  32.991  35.889  11.315
29200W        W 2268  33.878  23.913  14.975
29201W        W 2269  40.904  36.968   1.213
29202W        W 2270   0.741  41.541  10.285
29203W        W 2271  22.126  39.772  14.330
29204W        W 2272  32.063  25.287  14.388
29205W        W 2273   4.030  35.485  13.482
29206W        W 2274   8.482   2.913  13.368
29207W        W 2275  19.613  33.953  13.374
29208W        W 2276  22.581  15.328  14.205
29209W        W 2277  13.002  31.989  13.982
29210W        W 2278   8.851   3.867   5.021
29211W        W 2279  21.029   4.180  13.518
29212W        W 2280   7.420   9.670  10.554
29213W        W 2281  15.149  24.402   4.133
29214W        W 2282  32.441  17.042   2.255
29215W        W 2283   8.825  17.700   4.495
29216W        W 2284  25.846   6.351  11.969
29217W        W 2285  35.504  33.372   0.355
29218W        W 2286  16.617   1.284   1.812
29219W        W 2287  28.962  25.686  11.513
29220W        W 2288  15.526  20.444   4.339
29221W        W 2289  22.699  23.971   1.410
29222W        W 2290  11.768  20.325  12.622
29223W        W 2291  12.207  16.813   3.141
29224W        W 2292   2.039  10.378  14.042
29225W        W 2293  18.140  26.115   1.832
29226W        W 2294  32.581  19.175   4.035
29227W        W 2295  35.254  44.046  11.454
29228W        W 2296  27.338  26.418  10.229
29229W        W 2297  23.529  15.299   3.991
29230W        W 2298   3.130  40.848  14.357
29231W        W 2299  18.479   4.657   4.248
29232W        W 2300  19.043  44.348  12.119
29233W        W 2301  12.938  27.252  14.420
29234W        W 2302  42.482  20.179   4.826
29235W        W 2303   4.653  42.272   1.793
29236W        W 2304  16.064  28.684  14.346
29237W        W 2305  22.595   0.672   3.584
29238W        W 2306   4.424  19.534   0.814
29239W        W 2307  36.372   1.728  12.777
29240W        W 2308  14.154  27.464  13.000
29241W        W 2309  42.587  12.897  10.392
29242W        W 2310  17.635  21.720  10.684
29243W        W 2311  44.423  35.004  13.789
29244W        W 2312  28.737  36.082   4.045
29245W        W 2313  18.160  35.435   1.685
29246W        W 2314  38.751   0.967  13.001
29247W        W 2315  41.007  23.678  12.383
29248W        W 2316  20.143  29.088   4.831
29249W        W 2317   4.683  44.638  14.907
29250W        W 2318  26.878   3.779   0.076
29251W        W 2319  27.388  37.990  11.505
29252W        W 2320  10.648  22.449  12.113
29253W        W 2321  25.188  26.683  11.941
29254W        W 2322  17.769  30.457  11.584
29255W        W 2323   8.402  36.956   3.052
29256W        W 2324   0.494  16.226   4.544
29257W        W 2325  25.013  40.429  12.857
29258W        W 2326   0.996  23.608  14.959
29259W        W 2327   5.943  26.704  11.918
29260W        W 2328  12.902   1.221  11.938
29261W        W 2329  25.359  37.350  10.484
29262W        W 2330  18.989  37.760   2.203
29263W        W 2331  38.384  31.640  12.075
29264W        W 2332  38.290  32.583   2.733
29265W        W 2333  31.168  39.292  12.855
29266W        W 2334  15.671   0.834   1.691
29267W        W 2335  37.360  40.574  10.920
29268W        W 2336  10.156  16.568   3.642
29269W        W 2337  31.017   7.051   0.854
29270W        W 2338  38.390   0.968   3.294
29271W        W 2339   4.931   1.339  12.907
29272W        W 2340  12.076  13.748  13.601
29273W        W 2341  36.439  15.194  13.820
29274W        W 2342  12.428  22.172  12.464
29275W        W 2343  22.657  16.041   4.260
29276W        W 2344  26.549  44.758  13.828
29277W        W 2345   6.897  18.836  12.915
29278W        W 2346  28.076  34.093   0.682
29279W        W 2347  41.770  24.029   3.118
29280W        W 2348  18.115  42.024   3.212
29281W        W 2349  39.775  24.603  12.100
29282W        W 2350  28.422   3.068  11.044
29283W        W 2351  41.186  40.298   0.827
29284W        W 2352  37.305  43.236   3.081
29285W        W 2353   7.347  35.429   4.275
29286W        W 2354  38.293   9.784   1.542
29287W        W 2355   3.298  43.248   1.303
29288W        W 2356  39.838  39.865  12.432
29289W        W 2357   7.250   9.764   1.839
29290W        W 2358  41.525  17.266   2.017
29291W        W 2359  24.729  13.842  13.498
29292W        W 2360  40.396   8.736   3.128
29293W        W 2361  12.656   6.924  12.179
29294W        W 2362  26.269   6.124   4.589
29295W        W 2363  37.062  31.021  11.186
29296W        W 2364  13.193   2.439  12.108
29297W        W 2365   0.023  40.233  14.325
29298W        W 2366   7.657  29.949   1.012
29299W        W 2367  40.033  40.917   3.797
29300W        W 2368  22.446  35.524   3.694
29301W        W 2369  33.888  12.029   2.462
29302W        W 2370  10.826  15.907   0.468
29303W        W 2371  42.284  37.360   4.181
29304W        W 2372  27.389  19.659   4.731
29305W        W 2373   8.757  27.928   0.336
29306W        W 2374  22.659  19.643   0.949
29307W        W 2375   4.311   3.926   0.015
29308W        W 2376  44.759  19.002  14.868
29309W        W 2377  39.555   9.632  11.185
29310W        W 2378  31.358  14.697  11.129
29311W        W 2379   1.137  40.313  12.356
29312W        W 2380   0.254   7.434   3.412
29313W        W 2381  20.065  44.485   0.233
29314W        W 2382  38.492  23.994  10.624
29315W        W 2383  22.704  39.071  13.553
29316W        W 2384   5.944   8.903   4.294
29317W        W 2385  31.715  43.830   5.074
29318W        W 2386  20.537  14.850   3.564
29319W        W 2387   0.823  29.513   2.633
29320W        W 2388  12.938   1.947  14.866
29321W        W 2389  20.802   7.606   3.517
29322W        W 2390   5.974  41.972   2.268
29323W        W 2391   3.412   5.902  13.620
29324W        W 2392  44.818  33.950   1.653
29325W        W 2393  13.035  16.591   5.208
29326W        W 2394  28.576  11.578   1.513
29327W        W 2395  10.624  37.709   0.926
29328W        W 2396  15.859  42.735   0.384
29329W        W 2397  37.419  32.945   2.034
29330W        W 2398  36.032   9.620   1.371
29331W        W 2399  27.159  22.500  12.432
29332W        W 2400  19.584   1.707  10.706
29333W        W 2401  41.954  11.772   2.700
29334W        W 2402  32.971   4.812  12.734
29335W        W 2403  37.516  25.523  11.683
29336W        W 2404  30.553   1.707   0.710
29337W        W 2405  40.672   1.638   5.534
29338W        W 2406  29.184  19.718   2.911
29339W        W 2407   0.878  44.842  11.647
29340W        W 2408  31.236   2.670  14.122
29341W        W 2409  17.069  42.496   0.993
29342W        W 2410  38.632  30.802   2.099
29343W        W 2411  20.990  25.206  11.585
29344W        W 2412  32.622   1.211   2.426
29345W        W 2413  10.747  21.019   2.326
29346W        W 2414  33.162  16.577  14.125
29347W        W 2415  26.398  33.886  11.121
29348W        W 2416  10.244  26.741   3.828
29349W        W 2417  20.816   7.178  14.927
29350W        W 2418   3.984  12.926  10.638
29351W        W 2419  41.910  35.893  11.937
29352W        W 2420  17.383  39.783   0.244
29353W        W 2421   0.880  36.051   0.308
29354W        W 2422  32.516  38.070  12.833
29355W        W 2423  18.012  35.967  14.412
29356W        W 2424  24.524  30.403  11.074
29357W        W 2425  20.141   2.308   0.492
29358W        W 2426  39.312   2.824   0.481
29359W        W 2427  16.771  25.285  11.135
29360W        W 2428  38.874  32.841   1.918
29361W        W 2429  16.282  10.905  14.498
29362W        W 2430  15.235  35.844  10.362
29363W        W 2431  42.398   5.667  11.863
29364W        W 2432  33.438  22.139   0.008
29365W        W 2433   7.320  42.460  11.784
29366W        W 2434  17.737  38.447  11.492
29367W        W 2435  20.309  18.675   4.718
29368W        W 2436  37.458  40.825   0.214
29369W        W 2437  37.843  43.473   4.071
29370W        W 2438  28.784   7.283   3.661
29371W        W 2439  35.594   3.723  12.546
29372W        W 2440  33.643   7.723  11.980
29373W        W 2441   1.775  21.842  13.883
29374W        W 2442  16.346  29.179   0.955
29375W        W 2443  21.234  30.767  11.483
29376W        W 2444  19.099  25.551   2.676
29377W        W 2445  42.855  34.431   3.220
29378W        W 2446   6.348  31.050   3.804
29379W        W 2447   2.232  18.224  14.008
29380W        W 2448   5.203  15.451   2.062
29381W        W 2449   8.665  17.082  11.869
29382W        W 2450  41.268  18.649  14.090
29383W        W 2451  20.932  16.234  14.833
29384W        W 2452   8.634  15.471  12.293
29385W        W 2453   3.013  23.728  13.517
29386W        W 2454  16.685  22.337   0.374
29387W        W 2455  36.701  21.144  13.104
29388W        W 2456   7.257   8.419   4.370
29389W        W 2457  43.400   0.829   1.951
29390W        W 2458   7.171  38.966   2.915
29391W        W 2459  22.123  24.154  11.605
29392W        W 2460   0.085  30.856   2.258
29393W        W 2461  22.323  33.010   1.788
29394W        W 2462   4.803  31.027   0.968
29395W        W 2463  23.696  13.651   1.694
29396W        W 2464  21.906  23.911  13.512
29397W        W 2465  38.301  17.483  12.340
29398W        W 2466  25.022  20.215   3.718
29399W        W 2467   0.341  16.790  14.104
29400W        W 2468  26.121  41.221  10.804
29401W        W 2469   9.895  16.797   3.246
29402W        W 2470   1.004  21.111   4.511
29403W        W 2471  11.366  37.431  10.618
29404W        W 2472  43.591  18.533  13.453
29405W        W 2473  26.974   7.776   1.028
29406W        W 2474   6.145  14.300  12.643
29407W        W 2475  32.815  25.842  11.595
29408W        W 2476  16.487  37.651  13.478
29409W        W 2477   9.366  33.056   2.954
29410W        W 2478  12.184  42.742   4.873
29411W        W 2479   0.200  18.986  11.100
29412W        W 2480  21.999  33.015  11.956
29413W        W 2481  34.430  10.811   4.300
29414W        W 2482   9.021  29.731   0.827
29415W        W 2483  25.741  20.750  10.726
29416W        W 2484   1.959  40.619  11.931
29417W        W 2485   0.051   9.834  13.373
29418W        W 2486  17.700  16.926   0.760
29419W        W 2487  15.130   7.734  13.810
29420W        W 2488  14.554  15.720  12.129
29421W        W 2489  30.911   1.354   3.703
29422W        W 2490  25.032  44.708   0.022
29423W        W 2491  18.502  40.571  10.876
29424W        W 2492  24.183  34.036  13.280
29425W        W 2493  19.296  30.844  14.844
29426W        W 2494  18.664  28.684   0.920
29427W        W 2495   8.064  31.188   4.110
29428W        W 2496  18.733  35.863   2.781
29429W        W 2497  35.582   0.329   1.909
29430W        W 2498  37.494  34.060  10.850
29431W        W 2499  27.075  29.918   0.530
29432W        W 2500  30.355   2.402  12.986
29433W        W 2501  13.623  16.142   1.726
29434W        W 2502  26.220  20.595   0.136
29435W        W 2503   6.061  25.949  13.364
29436W        W 2504  34.285   5.940   2.323
29437W        W 2505   9.638  22.533   4.614
29438W        W 2506  38.997  44.272  11.554
29439W        W 2507  34.944  13.180   0.008
29440W        W 2508  22.258  41.305   0.912
29441W        W 2509  20.216  41.024  14.774
29442W        W 2510  43.843   2.516   0.883
29443W        W 2511  16.508  36.150  12.108
29444W        W 2512  26.622  33.393   0.291
29445W        W 2513   6.185   0.532   4.818
29446W        W 2514  24.687  39.976   1.496
29447W        W 2515  29.374  37.140   2.754
29448W        W 2516  44.075  44.328   3.852
29449W        W 2517  17.140   2.360  10.985
29450W        W 2518  16.054   1.939   4.085
29451W        W 2519   4.446  34.003  10.762
29452W        W 2520  37.889  10.337   2.862
29453W        W 2521  16.054   0.204  14.734
29454W        W 2522  40.906  33.518  10.477
29455W        W 2523   8.663   8.962   2.886
29456W        W 2524  34.037  25.551   1.418
29457W        W 2525   5.246  19.618  12.858
29458W        W 2526  23.249   3.930  10.704
29459W        W 2527  23.646   7.597  12.015
29460W        W 2528  19.151  43.854  11.914
29461W        W 2529  30.838  16.744   3.649
29462W        W 2530  13.880  27.486   3.612
29463W        W 2531  31.597  25.597   0.794
29464W        W 2532  17.931  17.930   4.213
29465W        W 2533  24.682  14.088   2.992
29466W        W 2534   9.099  25.184  13.311
29467W        W 2535  11.768  14.182  12.839
29468W        W 2536  22.724   2.155  13.958
29469W        W 2537  40.254  26.604   0.516
29470W        W 2538  24.326  22.177   4.279
29471W        W 2539  27.767   9.421  12.793
29472W        W 2540  29.187  19.006   1.003
29473W        W 2541  34.034   5.277  11.372
29474W        W 2542   9.732  28.514   4.197
29475W        W 2543  15.816   0.202  12.104
29476W        W 2544  28.990  31.881   2.061
29477W        W 2545  25.901  20.851   1.693
29478W        W 2546   8.311   1.724  14.092
29479W        W 2547   5.757  23.286  12.450
29480W        W 2548  17.771   8.160   3.913
29481W        W 2549  41.183  34.709  11.630
29482W        W 2550  15.540  33.196  13.537
29483W        W 2551  27.420  43.742   0.863
29484W        W 2552  13.490   5.126  12.422
29485W        W 2553  18.218  26.499  12.975
29486W        W 2554   6.674  43.864  10.647
29487W        W 2555  28.299   7.648   9.758
29488W        W 2556  36.486  24.460   0.489
29489W        W 2557  28.225   9.793  11.517
29490W        W 2558  34.954   3.836   0.211
29491W        W 2559   6.826  42.774  12.061
29492W        W 2560  43.495  11.707  11.959
29493W        W 2561  13.099  41.310  13.545
29494W        W 2562   1.839   7.329   0.489
29495W        W 2563  40.209  24.182  14.863
29496W        W 2564  37.006  10.773  14.106
29497W        W 2565  27.909  19.627   5.115
29498W        W 2566  38.196  24.720   2.620
29499W        W 2567  28.566  33.550  10.379
29500W        W 2568  17.500  16.276   0.412
29501W        W 2569  23.818  28.945   0.097
29502W        W 2570  28.090   7.342  10.463
29503W        W 2571  25.227  22.980   1.090
29504W        W 2572  12.759  20.413  13.583
29505W        W 2573  11.949  44.373  13.902
29506W        W 2574   7.919  32.763  11.310
29507W        W 2575  32.536   2.696   3.698
29508W        W 2576  39.151  22.656   3.129
29509W        W 2577  10.623  29.598   2.740
29510W        W 2578  43.040  36.571  13.917
29511W        W 2579  15.205  22.486  10.820
29512W        W 2580  39.436  39.924   4.181
29513W        W 2581  21.353  25.598   0.752
29514W        W 2582  15.219  27.945   4.251
29515W        W 2583  17.958  14.697   0.849
29516W        W 2584  44.780  16.490   0.901
29517W        W 2585  24.140  35.995   0.410
29518W        W 2586  17.197   4.581  13.753
29519W        W 2587  41.956  24.712   4.513
29520W        W 2588  21.120   9.278  14.187
29521W        W 2589  17.683  38.584  13.306
29522W        W 2590  39.164  21.966  12.047
29523W        W 2591   3.872  41.413  14.325
29524W        W 2592  10.677  25.259  11.584
29525W        W 2593  44.458  11.674   1.720
29526W        W 2594  11.741   1.008  10.635
29527W        W 2595  12.869  34.712  13.433
29528W        W 2596   7.830  24.036  11.933
29529W        W 2597   5.364  43.471  14.775
29530W        W 2598  20.456   2.405   1.842
29531W        W 2599   9.705   0.412  12.777
29532W        W 2600  23.648  20.642   3.769
29533W        W 2601  21.518  18.238  10.879
29534W        W 2602  36.051   3.674  14.882
29535W        W 2603  14.455   2.648   2.729
29536W        W 2604   7.752  25.357  11.647
29537W        W 2605  38.579  38.413   1.409
29538W        W 2606   5.473  26.592   3.167
29539W        W 2607  33.114  37.728   1.467
29540W        W 2608  14.096  30.009   0.392
29541W        W 2609  42.227  27.291  11.131
29542W        W 2610   0.937   7.776  12.635
29543W        W 2611  36.383  26.235   1.755
29544W        W 2612  40.611  41.345  13.990
29545W        W 2613  28.100  32.539   4.540
29546W        W 2614  11.445   5.230   1.009
29547W        W 2615  12.814   6.332  13.958
29548W        W 2616   4.693  44.809   2.403
29549W        W 2617  14.946  29.371  14.163
29550W        W 2618  22.957  39.014   0.888
29551W        W 2619  27.138  20.037  12.407
29552W        W 2620  17.858   3.459  13.504
29553W        W 2621  40.001  11.971   3.634
29554W        W 2622  30.430  20.720   1.924
29555W        W 2623  25.545  25.465   4.053
29556W        W 2624  14.668   6.424  13.589
29557W        W 2625   4.286   5.028   2.608
29558W        W 2626  23.577   1.836   3.935
29559W        W 2627  34.390  25.858  10.665
29560W        W 2628  36.602  40.431   3.568
29561W        W 2629  17.201   0.007  14.417
29562W        W 2630   6.462  40.384  14.434
29563W        W 2631  30.191  40.125   1.875
29564W        W 2632  36.848  27.012  11.962
29565W        W 2633   3.517   5.484   2.153
29566W        W 2634   0.355  10.376  10.627
29567W        W 2635   5.956  33.015   1.568
29568W        W 2636  31.032  16.029   2.433
29569W        W 2637  20.830  42.318   2.916
29570W        W 2638   7.800  11.251  13.490
29571W        W 2639  20.556  17.341   4.877
29572W        W 2640   0.553   8.194   2.770
29573W        W 2641  43.238  34.509   4.536
29574W        W 2642  19.715  28.067  12.008
29575W        W 2643  35.633  33.490  13.337
29576W        W 2644  25.354  34.782  13.543
29577W        W 2645   1.907  14.748   4.236
29578W        W 2646  19.844  42.584   4.650
29579W        W 2647  32.885  25.466  13.033
29580W        W 2648  24.280  28.173  10.999
29581W        W 2649   9.589   8.126  10.479
29582W        W 2650  23.011   0.984   4.806
29583W        W 2651  16.567  28.929  10.636
29584W        W 2652  15.294  15.049   2.255
29585W        W 2653  21.305   9.330  14.686
29586W        W 2654  15.532  19.322   4.658
29587W        W 2655  18.487  33.570   2.936
29588W        W 2656  11.107  10.592  10.111
29589W        W 2657  41.970  31.148   0.120
29590W        W 2658  41.567  37.660   2.896
29591W        W 2659  31.408  43.350   4.379
29592W        W 2660  42.615  35.358   4.582
29593W        W 2661  28.008   2.388  12.096
29594W        W 2662  11.747   4.779  12.987
29595W        W 2663  14.367  20.221   0.703
29596W        W 2664   4.408  30.949  13.618
29597W        W 2665  11.746  14.766   3.738
29598W        W 2666  37.534   8.590  14.942
29599W        W 2667  18.536  36.309   4.822
29600W        W 2668  12.897   2.458  14.990
29601W        W 2669  10.633   3.173  11.024
29602W        W 2670  38.413  24.918  10.483
29603W        W 2671  33.896  11.168   1.610
29604W        W 2672   2.893  16.069  11.625
29605W        W 2673  32.951  43.508   2.814
29606W        W 2674  19.722  44.063  12.117
29607W        W 2675  15.720  32.281   5.022
29608W        W 2676  10.232  28.099  11.414
29609W        W 2677  28.528  44.845  12.423
29610W        W 2678  10.862   1.085   3.351
29611W        W 2679   7.677  24.289  13.101
29612W        W 2680  29.562   8.821   9.876
29613W        W 2681  30.559  21.296   2.012
29614W        W 2682   6.186  35.395   3.655
29615W        W 2683  30.472  27.266   0.198
29616W        W 2684  32.365  20.679   0.856
29617W        W 2685  39.762  36.655  12.416
29618W        W 2686  22.636  24.213  10.764
29619W        W 2687  18.181  44.232   2.610
29620W        W 2688  15.652  13.973   0.555
29621W        W 2689  37.351  42.227  11.665
29622W        W 2690  32.447  22.530  12.397
29623W        W 2691  11.927  37.373  13.363
29624W        W 2692  26.709   8.392  11.589
29625W        W 2693  43.251  14.888   1.072
29626W        W 2694  24.552  25.674   1.289
29627W        W 2695  18.487  13.926  10.216
29628W        W 2696  31.867  12.179  13.018
29629W        W 2697  26.476   6.338   1.426
29630W        W 2698  16.585  44.415   3.309
29631W        W 2699  21.706  43.026  14.834
29632W        W 2700  22.427  24.783   2.748
29633W        W 2701  15.296  19.515   1.776
29634W        W 2702  25.246  11.834   3.398
29635W        W 2703  18.796   6.618   5.048
29636W        W 2704  20.723   0.488  13.035
29637W        W 2705   3.401  36.353  10.840
29638W        W 2706  17.880  25.500   2.619
29639W        W 2707  10.836   0.005   0.421
29640W        W 2708  34.600  43.804   2.893
29641W        W 2709  30.183  18.971  14.034
29642W        W 2710  12.843   7.334  13.555
29643W        W 2711   2.282   5.289  11.446
29644W        W 2712  23.531   0.815   1.680
29645W        W 2713  16.617  19.942   0.352
29646W        W 2714   3.291  26.380   0.106
29647W        W 2715  42.520  37.933  13.420
29648W        W 2716  33.655  31.713  13.885
29649W        W 2717  18.500  27.982  10.708
29650W        W 2718  32.569  16.777   3.744
29651W        W 2719  22.071  43.373  13.033
29652W        W 2720  28.326   4.426   1.814
29653W        W 2721  18.792  25.601   0.783
29654W        W 2722  29.399  31.638  12.957
29655W        W 2723   8.238  13.574   4.909
29656W        W 2724   9.311  44.941  12.088
29657W        W 2725  26.626  16.264  13.868
29658W        W 2726  15.636   6.744  11.590
29659W        W 2727   4.423  40.590  12.886
29660W        W 2728  17.275  22.661   0.843
29661W        W 2729  15.347  13.787   1.851
29662W        W 2730   8.769  19.535  12.026
29663W        W 2731   7.483  37.772  11.080
29664W        W 2732  37.545  40.854   0.723
29665W        W 2733   0.977   3.428   4.065
29666W        W 2734  24.465   0.346   4.507
29667W        W 2735  10.862  22.455  12.952
29668W        W 2736  14.104  39.205   5.069
29669W        W 2737   7.375   5.811  14.421
29670W        W 2738  17.693  28.957  12.384
29671W        W 2739  22.266   9.347   3.119
29672W        W 2740  24.242  31.474   4.211
29673W        W 2741  22.652   9.447  11.484
29674W        W 2742   2.862  28.861  14.400
29675W        W 2743  10.225  22.137   0.284
29676W        W 2744  11.797  22.742   2.801
29677W        W 2745  41.427   3.742   3.250
29678W        W 2746  14.631  28.557   4.925
29679W        W 2747  18.116   9.137   4.058
29680W        W 2748  35.607  23.698   4.548
29681W        W 2749  43.825  20.322  11.174
29682W        W 2750   8.411   3.194   2.651
29683W        W 2751  22.696  37.444  11.834
29684W        W 2752  27.850  23.680   1.192
29685W        W 2753  44.321   8.345   1.858
29686W        W 2754  33.072   8.778  14.283
29687W        W 2755  34.666  36.987   0.845
29688W        W 2756  14.323  15.299  14.045
29689W        W 2757  33.104  30.164   0.488
29690W        W 2758  13.653  35.093   2.382
29691W        W 2759   5.076  35.816   4.909
29692W        W 2760  13.843  44.432  10.207
29693W        W 2761   6.362  41.007  13.062
29694W        W 2762  34.584   6.228  12.003
29695W        W 2763  25.121  44.340  12.482
29696W        W 2764  38.742  22.992  12.592
29697W        W 2765  29.634  40.534   3.447
29698W        W 2766   9.464  35.426  11.391
29699W        W 2767  22.478  11.829   3.680
29700W        W 2768  38.567  18.206  10.627
29701W        W 2769   5.926   5.205   4.841
29702W        W 2770  16.696  40.777   2.193
29703W        W 2771   3.356  28.154  11.874
29704W        W 2772  31.545  23.091  14.602
29705W        W 2773   1.728  37.606  12.094
29706W        W 2774  15.114  29.870   4.603
29707W        W 2775   3.721  34.892   2.326
29708W        W 2776   7.761  29.942  14.538
29709W        W 2777  10.915  27.031  12.418
29710W        W 2778  36.379   4.397   4.454
29711W        W 2779  21.656  23.011  10.765
29712W        W 2780  14.587  14.215   4.233
29713W        W 2781  13.259  30.134  11.014
29714W        W 2782   8.877   6.251  11.938
29715W        W 2783  37.930  43.662   1.888
29716W        W 2784  19.334  31.022  13.942
29717W        W 2785   5.256  21.810   3.660
29718W        W 2786  32.932  27.549   1.834
29719W        W 2787  23.682  38.412   4.963
29720W        W 2788  11.840  29.934   2.139
29721W        W 2789   5.673  22.956   4.011
29722W        W 2790   9.160  19.692   4.176
29723W        W 2791   9.740   0.279   0.924
29724W        W 2792  26.517  32.385  13.388
29725W        W 2793  17.067   7.591   2.210
29726W        W 2794  28.036  39.747  14.831
29727W        W 2795  19.039  38.237   1.226
29728W        W 2796  22.760   5.270  11.502
29729W        W 2797  39.936   5.210   4.204
29730W        W 2798   9.420   7.781  11.984
29731W        W 2799  35.033  14.294   0.431
29732W        W 2800  33.929  24.474  13.425
29733W        W 2801  40.098  22.477   1.175
29734W        W 2802  32.900   2.265   3.394
29735W        W 2803   1.988  20.769  11.445
29736W        W 2804   2.502  30.933  12.527
29737W        W 2805  21.727  10.793   3.702
29738W        W 2806  17.231  20.634  13.542
29739W        W 2807  29.482  15.110  10.802
29740W        W 2808  22.250  39.289   2.202
29741W        W 2809  33.423  42.092   3.847
29742W        W 2810  31.099  21.992   1.789
29743W        W 2811  34.411  32.612   3.714
29744W        W 2812  11.424   0.851  12.635
29745W        W 2813  38.926  13.581   4.045
29746W        W 2814  31.749  34.403  10.639
29747W        W 2815  44.565  44.933  12.262
29748W        W 2816   1.518   4.805  14.025
29749W        W 2817  11.666   4.429  12.432
29750W        W 2818  39.426  38.886  13.386
29751W        W 2819  42.573  34.987  14.412
29752W        W 2820  23.558  34.007  12.942
29753W        W 2821  28.434   5.401  11.186
29754W        W 2822  16.294   3.869  14.174
29755W        W 2823   5.007  22.202  10.312
29756W        W 2824  17.752  41.048  13.076
29757W        W 2825  43.577  25.402  11.622
29758W        W 2826  19.675  44.879  14.694
29759W        W 2827  40.225   4.681  14.404
29760W        W 2828   9.678   8.939  12.569
29761W        W 2829  42.415  20.023  14.841
29762W        W 2830   1.546  37.747   4.326
29763W        W 2831   4.704  20.694  14.115
29764W        W 2832  26.183  27.028   0.460
29765W        W 2833  33.030   8.676   4.599
29766W        W 2834   8.910  23.685   3.414
29767W        W 2835  16.994   4.153  13.525
29768W        W 2836  30.085  33.068   0.847
29769W        W 2837  36.000  34.156  12.966
29770W        W 2838  34.307  32.012   5.037
29771W        W 2839  21.323  12.161  13.606
29772W        W 2840   9.330   4.303   0.249
29773W        W 2841  16.783   2.295   0.607
29774W        W 2842  37.128  31.438  13.813
29775W        W 2843  13.100  15.200   4.265
29776W        W 2844  20.205  21.951   0.013
29777W        W 2845  28.239  22.688  11.100
29778W        W 2846  12.610  32.396   0.798
29779W        W 2847  15.524  42.401   3.029
29780W        W 2848  13.956  16.587  12.080
29781W        W 2849  29.008  11.604   1.248
29782W        W 2850  18.228   8.465  14.408
29783W        W 2851  28.514  43.779   2.752
29784W        W 2852   3.643  32.922  11.096
29785W        W 2853   6.335  12.840  13.774
29786W        W 2854  24.178  42.165  14.162
29787W        W 2855  24.621  17.562   5.094
29788W        W 2856  33.934  37.605  11.079
29789W        W 2857   9.844  18.237   3.955
29790W        W 2858  37.899  33.057  13.312
29791W        W 2859   6.624  23.715   3.238
29792W        W 2860  41.965  15.660   3.165
29793W        W 2861  33.396  28.147   2.174
29794W        W 2862  44.235   0.685   2.317
29795W        W 2863  28.158  23.513   2.305
29796W        W 2864  24.587  19.252   2.333
29797W        W 2865  27.733  28.525  12.139
29798W        W 2866   1.024  43.962  10.591
29799W        W 2867  23.703  27.967   3.849
29800W        W 2868  27.120  28.931  11.123
29801W        W 2869  32.600  19.546   0.305
29802W        W 2870   4.425  42.644  12.008
29803W        W 2871  41.316  22.505   4.281
29804W        W 2872  29.073  12.523  13.508
29805W        W 2873   5.290   2.978   0.357
29806W        W 2874  30.476  34.064   3.610
29807W        W 2875  38.509  23.591   2.721
29808W        W 2876  18.195  33.001  12.114
29809W        W 2877  11.311  23.017   2.380
29810W        W 2878  12.822  44.206  12.113
29811W        W 2879  33.305  33.927  14.327
29812W        W 2880  14.197  36.152  11.232
29813W        W 2881  10.377  11.583  12.245
29814W        W 2882  41.452  10.056   3.202
29815W        W 2883  41.386  31.356  13.407
29816W        W 2884  17.562  14.294  11.926
29817W        W 2885  21.106  35.350  13.965
29818W        W 2886  41.853  20.470  13.433
29819W        W 2887   9.695  31.378  12.539
29820W        W 2888   3.504  17.849  13.331
29821W        W 2889  30.038  19.774   1.940
29822W        W 2890   6.749  39.091   3.751
29823W        W 2891   6.336  10.185  14.429
29824W        W 2892  25.615  35.199   4.083
29825W        W 2893  29.160   6.318   2.800
29826W        W 2894  11.453  29.947  14.314
29827W        W 2895   7.267  43.702  13.864
29828W        W 2896  17.598  43.751   4.587
29829W        W 2897  21.390   2.144   4.606
29830W        W 2898  40.556  26.636  11.916
29831W        W 2899  26.621  11.690  13.674
29832W        W 2900   6.493  26.750  11.959
29833W        W 2901  11.734  15.003  12.177
29834W        W 2902  23.670  44.398  10.995
29835W        W 2903   2.491  32.405  10.856
29836W        W 2904  10.903  16.333   3.188
29837W        W 2905  32.970  25.937   0.750
29838W        W 2906   1.685   3.448  14.526
29839W        W 2907  12.850  41.778   4.268
29840W        W 2908  42.300  11.251   0.846
29841W        W 2909  42.896   2.353  12.133
29842W        W 2910  32.644  11.871  13.824
29843W        W 2911  21.761  44.365   2.829
29844W        W 2912  34.891  23.510  10.328
29845W        W 2913  44.932  21.260  14.068
29846W        W 2914  43.219   7.180  11.505
29847W        W 2915  28.550   9.095   3.812
29848W        W 2916   7.900  38.732   4.551
29849W        W 2917  39.025  17.776  13.439
29850W        W 2918   4.262  29.876  11.698
29851W        W 2919  28.571  41.567  14.092
29852W        W 2920  16.572  33.366   1.718
29853W        W 2921  10.558  30.137  14.768
29854W        W 2922   1.369  13.138   4.528
29855W        W 2923  24.731  33.501  13.934
29856W        W 2924  17.215  29.755   4.081
29857W        W 2925  13.767  20.724   1.480
29858W        W 2926  37.033  16.766   1.687
29859W        W 2927  30.203  34.536  12.873
29860W        W 2928  40.073   0.841   1.594
29861W        W 2929  33.407  40.682  11.968
29862W        W 2930  24.748  37.037   1.322
29863W        W 2931  38.346  38.578  12.931
29864W        W 2932  29.524  41.443   5.044
29865W        W 2933   1.758  26.335  14.325
29866W        W 2934   6.703   0.864  11.906
29867W        W 2935  37.842  18.319  13.244
29868W        W 2936  41.288  36.287  13.500
29869W        W 2937   5.867  20.808  11.154
29870W        W 2938  36.761  39.412   4.625
29871W        W 2939  11.316  27.205   4.585
29872W        W 2940  21.649  17.697   0.343
29873W        W 2941  15.278  40.552  14.441
29874W        W 2942  27.982  41.824  13.510
29875W        W 2943   2.772  29.651   3.885
29876W        W 2944  39.598  39.691  14.442
29877W        W 2945  42.066   0.362   2.772
29878W        W 2946  40.672  38.229   0.493
29879W        W 2947   7.187  36.306  12.035
29880W        W 2948  27.551   2.415  12.300
29881W        W 2949  13.178  11.663  13.480
29882W        W 2950  36.081  43.611  10.742
29883W        W 2951  14.596  30.101  11.366
29884W        W 2952   6.031  37.650  11.641
29885W        W 2953  25.649  34.998   3.599
29886W        W 2954  10.861  44.575   3.299
29887W        W 2955  21.755  15.261   1.823
29888W        W 2956  14.130  13.976   4.173
29889W        W 2957  44.321  23.164   1.280
29890W        W 2958  19.404  24.922   3.764
29891W        W 2959  35.558  32.413  10.909
29892W        W 2960  15.336  24.409   2.495
29893W        W 2961  25.259  35.265   0.317
29894W        W 2962   3.429  15.738   9.839
29895W        W 2963   4.861  41.450   2.196
29896W        W 2964   9.052  27.499  13.337
29897W        W 2965  24.270  13.674  11.532
29898W        W 2966  14.218  18.594   1.311
29899W        W 2967  23.516  14.257   2.403
29900W        W 2968  43.437  32.282   2.222
29901W        W 2969  16.794  34.465   1.730
29902W        W 2970  10.107   6.953   3.370
29903W        W 2971  30.030  32.918   1.734
29904W        W 2972  41.894  32.544  14.477
29905W        W 2973  30.555  39.938   2.176
29906W        W 2974  43.389  14.765   1.574
29907W        W 2975  26.003   4.938  14.402
29908W        W 2976  24.066   6.751   2.187
29909W        W 2977   0.467  21.190   4.529
29910W        W 2978  34.396  31.402   0.555
29911W        W 2979  12.710   9.106  13.812
29912W        W 2980  42.986   3.848   4.458
29913W        W 2981  18.710   3.774  12.109
29914W        W 2982  12.708  15.621  13.069
29915W        W 2983  23.173  13.288   3.685
29916W        W 2984  20.459  10.389   2.602
29917W        W 2985  16.731   0.444   0.282
29918W        W 2986  32.200  10.550  13.081
29919W        W 2987  27.071  34.434  14.066
29920W        W 2988  24.157  36.524   3.682
29921W        W 2989   1.755  33.912  11.870
29922W        W 2990   6.413  44.293   3.861
29923W        W 2991  24.512  10.631   0.747
29924W        W 2992  35.338  43.867  13.601
29925W        W 2993  12.170  32.502  11.051
29926W        W 2994  43.847  30.585  13.599
29927W        W 2995  20.737  18.597   4.407
29928W        W 2996   7.262  41.710  12.552
29929W        W 2997  24.130  32.571   1.818
29930W        W 2998  19.936  33.389   2.026
29931W        W 2999  18.731  31.484   0.943
29932W        W 3000   2.070  17.651  10.500
29933W        W 3001  40.523   7.825  13.988
29934W        W 3002  37.887  25.274   4.633
29935W        W 3003   3.806  28.389  13.960
29936W        W 3004  32.526  22.754   1.891
29937W        W 3005  35.777   1.766  14.853
29938W        W 3006  15.283  28.648   0.254
29939W        W 3007   2.459  35.892  12.939
29940W        W 3008   0.082  18.717  12.415
29941W        W 3009  37.892  17.262   2.491
29942W        W 3010   6.115  14.677   2.760
29943W        W 3011  43.341  42.478  12.847
29944W        W 3012  18.572  30.679  11.128
29945W        W 3013  12.779  25.442  14.897
29946W        W 3014  25.209  38.929  13.341
29947W        W 3015  34.569  26.277   1.304
29948W        W 3016  35.831   8.869  14.358
29949W        W 3017  29.351  15.036   2.309
29950W        W 3018  11.856  13.749  13.112
29951W        W 3019  37.243  11.249  14.021
29952W        W 3020  17.716  35.937   2.149
29953W        W 3021  36.985   1.213   1.338
29954W        W 3022   6.868  41.955   4.277
29955W        W 3023   0.801   6.126   4.763
29956W        W 3024  10.399  10.598   2.351
29957W        W 3025  10.253  15.004  14.409
29958W        W 3026  18.128  21.490   1.878
29959W        W 3027  16.714   2.494  13.285
29960W        W 3028  31.238  18.475   4.027
29961W        W 3029  12.651  30.659  14.483
29962W        W 3030  31.926  39.720   2.887
29963W        W 3031  32.382  41.726   3.596
29964W        W 3032  32.594  11.604   2.168
29965W        W 3033   1.801  43.429   1.379
29966W        W 3034  39.163  34.487  11.539
29967W        W 3035  12.010  17.794  11.715
29968W        W 3036  25.549  30.121   0.792
29969W        W 3037  14.728   8.118   0.992
29970W        W 3038  38.984  36.234  10.236
29971W        W 3039  28.470  12.678   4.652
29972W        W 3040  17.556  29.182   3.579
29973W        W 3041  13.219  25.138  10.702
29974W        W 3042  28.415   7.599  12.983
29975W        W 3043   1.901   3.259  14.943
29976W        W 3044  35.636  25.655  13.825
29977W        W 3045  12.485  44.541   4.564
29978W        W 3046   5.195  42.892  10.923
29979W        W 3047  16.379  19.705  13.391
29980W        W 3048   6.658   9.858   3.644
29981W        W 3049  38.347  27.731  13.532
29982W        W 3050   9.690  19.546   1.481
29983W        W 3051  42.299  24.586   4.876
29984W        W 3052  13.700  42.169   0.069
29985W        W 3053  37.267  13.436   0.272
29986W        W 3054  12.734   3.448  11.338
29987W        W 3055  28.559  25.508   2.111
29988W        W 3056  33.695  28.164   0.867
29989W        W 3057  34.075  28.073  11.929
29990W        W 3058  28.085  21.750   1.693
29991W        W 3059   7.348  22.288   2.382
29992W        W 3060  36.022  19.488   1.273
29993W        W 3061   8.926   2.359   2.999
29994W        W 3062  22.160   3.944   4.540
29995W        W 3063  35.930  23.948   2.774
29996W        W 3064  41.059  26.709   0.902
29997W        W 3065  12.259  43.971   0.957
29998W        W 3066  16.747  42.480  14.954
29999W        W 3067  33.671  34.115  10.273
30000W        W 3068  16.715  24.706   4.019
30001W        W 3069  30.625   6.951   2.648
30002W        W 3070  41.817  27.763  14.711
30003W        W 3071  21.141  40.046   3.723
30004W        W 3072  41.476  26.379   4.919
30005W        W 3073  30.394  19.122   3.693
30006W        W 3074  10.145   5.343  13.924
30007W        W 3075  10.145  34.007   1.832
30008W        W 3076  23.913  33.170  10.413
30009W        W 3077  38.292  44.542  13.855
30010W        W 3078  12.670   9.599  11.021
30011W        W 3079  33.404  43.829  11.651
30012W        W 3080  36.829   4.434  11.124
30013W        W 3081  40.531  42.926   0.166
30014W        W 3082  23.630   6.813   4.893
30015W        W 3083  10.763  25.764  11.656
30016W        W 3084   6.440  32.820  11.617
30017W        W 3085   2.405  14.628   0.923
30018W        W 3086  24.606  22.596  10.727
30019W        W 3087  29.527  30.972  11.524
30020W        W 3088  22.994   6.577   2.872
30021W        W 3089  35.098   0.464  14.834
30022W        W 3090  31.250  11.633  11.252
30023W        W 3091  31.916  17.624   0.225
30024W        W 3092   8.641   0.438   4.226
30025W        W 3093   1.212  30.444  13.514
30026W        W 3094  14.160  12.117   3.378
30027W        W 3095  24.279   2.020   4.319
30028W        W 3096  16.164  28.921  13.066
30029W        W 3097   0.345  32.875   3.670
30030W        W 3098  22.129  33.678   4.539
30031W        W 3099  26.953  43.342  11.951
30032W        W 3100  42.470   5.183  12.519
30033W        W 3101   1.856  41.465  12.037
30034W        W 3102  26.886   3.059  12.328
30035W        W 3103   9.926  36.780   0.351
30036W        W 3104  31.049  36.613   2.683
30037W        W 3105  11.081  41.465  14.508
30038W        W 3106  24.429  38.817   3.762
30039W        W 3107  33.135  28.120   3.102
30040W        W 3108  39.715  29.358   2.621
30041W        W 3109   0.861  25.235  11.131
30042W        W 3110  44.033  43.953  14.253
30043W        W 3111  26.199  19.082   0.166
30044W        W 3112   8.430  16.779  14.956
30045W        W 3113  31.065  26.895  12.106
30046W        W 3114  19.205  14.189  11.564
30047W        W 3115  18.227  41.900   4.048
30048W        W 3116  17.808  23.045   3.146
30049W        W 3117  38.893  34.531   2.163
30050W        W 3118   8.565  27.141   0.832
30051W        W 3119  13.640   4.357   4.601
30052W        W 3120  20.236   3.335  10.759
30053W        W 3121  37.886   5.346   1.638
30054W        W 3122   8.304  14.321   0.800
30055W        W 3123  11.132  36.583  14.303
30056W        W 3124  36.626  23.684   3.673
30057W        W 3125  14.615  22.133  14.392
30058W        W 3126  18.713  13.514   0.540
30059W        W 3127  24.605  38.767  12.059
30060W        W 3128  25.376  30.038  12.019
30061W        W 3129   1.244   7.713  12.040
30062W        W 3130   3.333  24.037   4.624
30063W        W 3131  42.308  11.827   3.067
30064W        W 3132  36.684  19.043   1.518
30065W        W 3133  39.001  42.518  11.205
30066W        W 3134  39.097  28.064  13.042
30067W        W 3135  28.622  32.257   2.061
30068W        W 3136  19.830  24.002   3.860
30069W        W 3137  41.312  28.170   1.217
30070W        W 3138  14.851  44.386   2.721
30071W        W 3139  32.892   6.064   2.160
30072W        W 3140  25.823  36.915   1.467
30073W        W 3141  33.536  34.029   0.211
30074W        W 3142  21.548  14.580  14.837
30075W        W 3143  28.056  33.088   4.529
30076W        W 3144   2.306  40.387  14.447
30077W        W 3145   7.167   7.618   3.260
30078W        W 3146  24.074  34.687   2.322
30079W        W 3147  29.567  13.656   0.765
30080W        W 3148  21.947  15.267   1.323
30081W        W 3149  19.680  27.556   4.616
30082W        W 3150  41.049  37.571  12.117
30083W        W 3151  19.025  25.545  14.385
30084W        W 3152  33.465  37.875  11.689
30085W        W 3153  42.986  20.970   0.522
30086W        W 3154  39.101  31.317  12.508
30087W        W 3155  25.234   9.774   4.137
30088W        W 3156   3.271  10.791  11.874
30089W        W 3157  24.924  42.080  13.881
30090W        W 3158  15.785  37.273   1.861
30091W        W 3159   8.370   1.422   1.889
30092W        W 3160   2.981  13.482  14.449
30093W        W 3161   2.839  24.117  11.183
30094W        W 3162  36.435  15.828   3.476
30095W        W 3163  34.892  31.010   1.629
30096W        W 3164   3.497   2.380  14.774
30097W        W 3165  13.197   4.540   0.986
30098W        W 3166  39.257  28.922  14.434
30099W        W 3167  25.947   0.663  13.148
30100W        W 3168   5.793  29.562   1.426
30101W        W 3169  22.778  29.641   0.336
30102W        W 3170   9.235  21.168   2.864
30103W        W 3171  33.437  19.519   2.356
30104W        W 3172  24.942   5.430   4.663
30105W        W 3173  29.208  25.159  12.361
30106W        W 3174  28.919   0.732   2.182
30107W        W 3175  22.314  29.247   4.812
30108W        W 3176  11.299  14.242   4.578
30109W        W 3177  10.187  13.054   4.339
30110W        W 3178   9.879  28.315  11.065
30111W        W 3179   8.163   8.197   0.196
30112W        W 3180   0.893  44.021   0.873
30113W        W 3181   3.972  35.191   2.736
30114W        W 3182  12.335  24.994  12.036
30115W        W 3183  16.904  11.750   2.592
30116W        W 3184  11.191  42.414   1.306
30117W        W 3185  13.211  40.042   2.652
30118W        W 3186  11.962  14.280  12.358
30119W        W 3187  28.466   5.169  14.753
30120W        W 3188  24.881  35.888   2.249
30121W        W 3189   2.332  19.617   2.152
30122W        W 3190  44.802  41.218   1.802
30123W        W 3191  39.541   6.157  10.281
30124W        W 3192  24.156   7.726   2.323
30125W        W 3193  33.506  34.443  14.292
30126W        W 3194  24.741  27.922  12.023
30127W        W 3195   6.131  39.021   3.102
30128W        W 3196  29.453  42.797  11.090
30129W        W 3197   5.640  32.024  11.144
30130W        W 3198  34.622   2.309  13.368
30131W        W 3199  12.735  10.405  11.501
30132W        W 3200  43.454  39.496   4.042
30133W        W 3201  13.855  16.536   0.915
30134W        W 3202  36.444   4.123   2.302
30135W        W 3203  12.581  33.641   2.291
30136W        W 3204  32.136  42.839  12.042
30137W        W 3205  11.889  33.168  12.729
30138W        W 3206   8.335  31.889   2.413
30139W        W 3207  32.446  13.215  10.763
30140W        W 3208  20.478  13.343  14.460
30141W        W 3209  18.660  33.806  13.350
30142W        W 3210   0.433  34.552   2.469
30143W        W 3211   3.813  20.159   4.103
30144W        W 3212  30.229  24.249   2.454
30145W        W 3213   9.364  16.803   3.284
30146W        W 3214  24.001  12.458   1.962
30147W        W 3215   3.500  41.454   2.154
30148W        W 3216   9.646  37.202   5.154
30149W        W 3217   6.656  25.198   4.205
30150W        W 3218   0.325   8.719   4.116
30151W        W 3219  20.687  20.218   2.286
30152W        W 3220  20.612  39.996   4.875
30153W        W 3221  13.883  20.083  14.272
30154W        W 3222   6.268   0.723   0.439
30155W        W 3223  34.811  24.263   0.068
30156W        W 3224  35.021  11.121   0.324
30157W        W 3225  38.092  22.234   4.870
30158W        W 3226  24.010  38.566   3.606
30159W        W 3227  31.110  35.621  10.553
30160W        W 3228   0.775  27.377  14.517
30161W        W 3229   8.161  37.195  11.841
30162W        W 3230   2.257   3.268   0.875
30163W        W 3231  24.507   6.878  12.519
30164W        W 3232  42.573  27.207   0.663
30165W        W 3233  40.960  17.339   4.245
30166W        W 3234  40.302   4.695  10.434
30167W        W 3235  36.007  25.715  11.243
30168W        W 3236  11.285  23.599  14.435
30169W        W 3237  38.741  27.989   0.866
30170W        W 3238   5.019  15.612  14.750
30171W        W 3239  20.727  21.536  11.735
30172W        W 3240  12.271  12.770  14.003
30173W        W 3241  19.389   4.810   0.746
30174W        W 3242   1.891  20.934   4.110
30175W        W 3243  10.635   8.734  13.250
30176W        W 3244  37.890  40.899   3.138
30177W        W 3245  41.979  30.127   5.113
30178W        W 3246  32.316  18.149  12.402
30179W        W 3247  27.495   0.245   1.306
30180W        W 3248  24.526  13.100  12.977
30181W        W 3249  35.182   4.338   4.511
30182W        W 3250  21.686   3.283   1.294
30183W        W 3251  14.655  34.500  14.216
30184W        W 3252  37.852  35.046  12.481
30185W        W 3253  22.382   8.169  12.302
30186W        W 3254  36.880  20.523   2.772
30187W        W 3255  40.536  15.163  10.247
30188W        W 3256   4.235  26.506  14.767
30189W        W 3257  30.795  42.360   3.390
30190W        W 3258  12.644  36.484  11.957
30191W        W 3259  33.959  37.422  14.353
30192W        W 3260  34.633  22.644  10.687
30193W        W 3261  42.458  13.311  14.044
30194W        W 3262   1.949   6.584  14.524
30195W        W 3263  20.795  25.247  12.974
30196W        W 3264  24.348  42.706  13.447
30197W        W 3265  33.326  11.727   4.157
30198W        W 3266  38.974  17.082  11.953
30199W        W 3267   7.264  24.630  13.400
30200W        W 3268  34.308  38.914  11.635
30201W        W 3269  28.421   2.689  12.350
30202W        W 3270  31.391  41.915  12.540
30203W        W 3271   7.685   1.944   1.656
30204W        W 3272  39.954  23.681   4.871
30205W        W 3273   4.163  33.082   4.272
30206W        W 3274   8.286  40.321   5.026
30207W        W 3275  23.019  16.616  11.543
30208W        W 3276  22.292  13.557   2.147
30209W        W 3277  13.648  22.269   1.299
30210W        W 3278   4.279   9.829   2.362
30211W        W 3279  22.372  25.740   3.412
30212W        W 3280  25.475  22.706  11.521
30213W        W 3281  11.167  33.127  11.503
30214W        W 3282  11.109  16.378   0.292
30215W        W 3283  29.247  43.504   2.767
30216W        W 3284  17.341  37.262  14.149
30217W        W 3285  17.710  17.204   4.630
30218W        W 3286  19.978  33.336  11.633
30219W        W 3287  30.799  10.675  12.297
30220W        W 3288   7.214  20.071  14.592
30221W        W 3289  13.710  28.402  11.675
30222W        W 3290   6.175   9.250  14.216
30223W        W 3291  26.003   6.990   2.933
30224W        W 3292  31.992  11.739   0.479
30225W        W 3293   6.118  31.087  14.761
30226W        W 3294  32.599  39.018   1.321
30227W        W 3295   9.530  19.816   1.894
30228W        W 3296  35.697  25.171  12.398
30229W        W 3297  27.069  25.633  14.257
30230W        W 3298  25.688  33.410   1.768
30231W        W 3299  42.156   1.475  13.758
30232W        W 3300   0.421  21.098  13.260
30233W        W 3301  20.189  20.582  13.400
30234W        W 3302  27.483   1.992   2.290
30235W        W 3303  31.722  36.025  11.812
30236W        W 3304  27.168  37.478   3.308
30237W        W 3305  18.092  22.337  11.812
30238W        W 3306  32.853  41.595  14.480
30239W        W 3307  30.198  31.428  13.394
30240W        W 3308  10.402  39.895  10.567
30241W        W 3309  42.396  16.771   1.155
30242W        W 3310   1.654   6.756  13.481
30243W        W 3311   1.741  22.484   0.564
30244W        W 3312   4.299  31.239   4.243
30245W        W 3313  25.406  37.109  11.199
30246W        W 3314  27.511  34.698   2.156
30247W        W 3315  43.269   3.289  13.499
30248W        W 3316  11.101  21.335  11.300
30249W        W 3317   2.484  27.500  10.574
30250W        W 3318  38.245  27.635  14.913
30251W        W 3319  35.079   4.223   1.298
30252W        W 3320  26.185   3.746   1.860
30253W        W 3321  36.216   1.722   3.775
30254W        W 3322  23.077  13.123   1.983
30255W        W 3323  41.901  34.105  12.564
30256W        W 3324  18.069  15.139   2.811
30257W        W 3325  37.841   5.538   0.440
30258W        W 3326  27.434  20.027   4.219
30259W        W 3327  21.291  11.472   0.042
30260W        W 3328  42.984   1.439  10.721
30261W        W 3329   8.833  38.489  10.822
30262W        W 3330   9.704   2.480   0.662
30263W        W 3331  17.208  12.967  14.192
30264W        W 3332  27.015  44.798  14.918
30265W        W 3333  36.170  23.769   0.189
30266W        W 3334   1.761  43.260  11.579
30267W        W 3335  25.113  25.936  14.471
30268W        W 3336  31.542   4.963   4.313
30269W        W 3337  30.971   6.689  11.510
30270W        W 3338  15.106  34.804   0.157
30271W        W 3339  34.862   4.833   1.153
30272W        W 3340  44.275  39.089   3.689
30273W        W 3341  16.767  35.346   0.423
30274W        W 3342  30.602  25.666  12.061
30275W        W 3343   9.257   5.786   3.553
30276W        W 3344  28.605   8.978   3.323
30277W        W 3345  18.010   6.586   2.781
30278W        W 3346   0.185  36.813  11.556
30279W        W 3347  43.499   9.760  14.502
30280W        W 3348   3.371  26.518   4.203
30281W        W 3349  39.125   2.437   2.324
30282W        W 3350  32.919  21.686   4.517
30283W        W 3351  20.242  42.432   0.896
30284W        W 3352   8.312  19.750   2.594
30285W        W 3353  17.865  19.069   3.873
30286W        W 3354  11.208  44.417   3.720
30287W        W 3355  11.389   2.406   0.660
30288W        W 3356  14.996  35.302   0.342
30289W        W 3357   8.643  36.134  14.302
30290W        W 3358  10.608  18.758  12.123
30291W        W 3359  38.845  42.841  12.967
30292W        W 3360  23.115  12.321   1.931
30293W        W 3361  28.965  26.487  13.412
30294W        W 3362  11.637  12.264  12.338
30295W        W 3363   9.329  31.103  12.330
30296W        W 3364  29.008  36.800  11.960
30297W        W 3365  40.511   7.178   1.234
30298W        W 3366  12.335   6.704  13.006
30299W        W 3367  26.550  10.703  10.172
30300W        W 3368  28.049  34.079   2.468
30301W        W 3369  11.345  26.394   3.138
30302W        W 3370  22.292  29.892  11.567
30303W        W 3371  44.012  28.647   2.152
30304W        W 3372   8.213  12.904   3.324
30305W        W 3373  10.082  30.385   4.573
30306W        W 3374  27.673   8.401   1.845
30307W        W 3375  40.126  37.389   0.436
30308W        W 3376  19.822  38.026   3.280
30309W        W 3377  30.016   7.787  12.609
30310W        W 3378  36.786  36.309  13.469
30311W        W 3379  26.186  32.118   2.904
30312W        W 3380   5.820  20.782   0.759
30313W        W 3381  18.161  32.634  11.405
30314W        W 3382  20.212   5.022  14.829
30315W        W 3383   7.413  38.871  14.390
30316W        W 3384   8.321  27.214   1.829
30317W        W 3385  34.393   2.787   1.835
30318W        W 3386  41.996   9.193  14.414
30319W        W 3387  22.930  26.509  11.202
30320W        W 3388  23.668  42.022   0.575
30321W        W 3389  32.612   6.923  11.487
30322W        W 3390  24.998  44.445   5.011
30323W        W 3391  16.705  41.044  12.146
30324W        W 3392  37.372  26.242  14.229
30325W        W 3393  37.023   7.770  12.051
30326W        W 3394  17.327  36.431  12.280
30327W        W 3395  13.419  30.435   2.049
30328W        W 3396   4.815  31.169  11.521
30329W        W 3397   6.116  20.768   2.723
30330W        W 3398  13.701  24.547   2.185
30331W        W 3399  26.705  25.581   1.519
30332W        W 3400  22.218  24.650  12.397
30333W        W 3401   5.953  24.514   4.127
30334W        W 3402   7.232  33.581  12.054
30335W        W 3403  40.324  14.335  12.680
30336W        W 3404   8.337  10.702  13.792
30337W        W 3405   8.890   6.006   3.254
30338W        W 3406  21.192   0.863  13.838
30339W        W 3407  40.291  28.421  11.241
30340W        W 3408  31.327  20.246   0.211
30341W        W 3409  14.902   7.780  14.766
30342W        W 3410  31.731  11.352  11.220
30343W        W 3411  32.942   5.610  13.337
30344W        W 3412  33.859  43.830   3.731
30345W        W 3413  12.252  13.129   1.757
30346W        W 3414  17.654  20.576  12.901
30347W        W 3415  22.908  11.726   4.567
30348W        W 3416  15.683  24.359  11.434
30349W        W 3417  24.719  11.545   0.446
30350W        W 3418  14.797  38.863   4.212
30351W        W 3419   9.913  36.871   1.252
30352W        W 3420  31.092   6.834   3.512
30353W        W 3421  25.594  27.914  14.839
30354W        W 3422  43.073  16.597  11.620
30355W        W 3423  42.309  14.699   3.623
30356W        W 3424  32.726   9.291   3.221
30357W        W 3425  41.645  36.615  12.596
30358W        W 3426  15.668  17.280  13.010
30359W        W 3427  44.257  39.081   1.809
30360W        W 3428  20.964  35.097  13.485
30361W        W 3429  13.820   6.172   2.181
30362W        W 3430  34.721   7.867   2.844
30363W        W 3431  34.477  17.779   0.713
30364W        W 3432  22.708  39.858  14.877
30365W        W 3433  38.379  16.804  13.096
30366W        W 3434   0.489  33.545  11.644
30367W        W 3435  22.757  11.848  12.463
30368W        W 3436  40.463  28.027  11.540
30369W        W 3437  37.407  36.758  10.994
30370W        W 3438   0.345  31.969  13.397
30371W        W 3439  30.574  35.979   0.182
30372W        W 3440  22.131   6.716  12.997
30373W        W 3441  17.494   2.616  13.549
30374W        W 3442  16.743  30.869  11.924
30375W        W 3443  18.333  39.836   0.591
30376W        W 3444  43.550  18.006  13.950
30377W        W 3445  27.618   6.394  14.838
30378W        W 3446  12.328   5.197  14.939
30379W        W 3447   4.983  43.362   3.552
30380W        W 3448  35.817   9.226  13.988
30381W        W 3449  25.672  22.709   2.808
30382W        W 3450  33.814  40.268   2.715
30383W        W 3451  16.786   4.913   0.467
30384W        W 3452  10.301  44.068   2.854
30385W        W 3453  13.800  20.323   3.702
30386W        W 3454  10.723  44.869  11.449
30387W        W 3455  12.925   3.154  11.682
30388W        W 3456  25.527   2.138   1.715
30389W        W 3457  28.317   9.808  14.370
30390W        W 3458  41.819  21.922   1.993
30391W        W 3459   2.281   8.235  11.341
30392W        W 3460  27.028  43.324   4.293
30393W        W 3461   0.486  44.277   9.996
30394W        W 3462  32.986  43.311   1.360
30395W        W 3463  42.709  23.634   3.871
30396W        W 3464  10.663  28.154   1.298
30397W        W 3465   1.499  19.311  11.082
30398W        W 3466  35.162  23.582  10.778
30399W        W 3467  42.393   4.489   3.687
30400W        W 3468  18.905  35.374   2.774
30401W        W 3469  32.433  44.903   0.907
30402W        W 3470   5.391   5.346  12.078
30403W        W 3471  20.165  13.171  10.320
30404W        W 3472  34.995   6.436   1.805
30405W        W 3473  41.420  33.503   4.551
30406W        W 3474  40.669   2.122  10.453
30407W        W 3475  34.811   2.365  11.880
30408W        W 3476  23.040   0.676   1.869
30409W        W 3477  14.127  43.828  12.347
30410W        W 3478   4.684  35.114   1.251
30411W        W 3479  15.114   6.984  12.531
30412W        W 3480  41.357  23.061   2.577
30413W        W 3481   6.921  15.181   1.890
30414W        W 3482  41.939  27.697  12.357
30415W        W 3483   6.852  22.278  14.967
30416W        W 3484  31.949  33.834  14.667
30417W        W 3485   4.871  17.916  10.899
30418W        W 3486  28.875  38.883   3.602
30419W        W 3487  23.732  15.334  11.472
30420W        W 3488  41.247  16.832   1.942
30421W        W 3489  39.354  39.330  14.871
30422W        W 3490  43.340  28.280   2.635
30423W        W 3491   9.691  28.462   1.911
30424W        W 3492   8.406  14.703  11.550
30425W        W 3493  42.495   9.776  14.724
30426W        W 3494  33.536  18.747   2.818
30427W        W 3495  32.201   5.419   2.135
30428W        W 3496  19.520   7.935   4.062
30429W        W 3497  17.048  41.861   2.716
30430W        W 3498  38.599  13.189  11.083
30431W        W 3499  14.069  37.255   3.312
30432W        W 3500  17.158  17.670   2.794
30433W        W 3501   7.707  37.215   2.803
30434W        W 3502  17.587   9.321   1.833
30435W        W 3503  36.980   8.806  12.335
30436W        W 3504  41.577   8.847  12.186
30437W        W 3505  24.625  10.863   4.344
30438W        W 3506  38.779   4.930   5.287
30439W        W 3507  35.396  42.942  14.092
30440W        W 3508  30.721  32.056  12.894
30441W        W 3509  11.949  10.331  12.559
30442W        W 3510   4.033  31.946   0.740
30443W        W 3511  25.459  11.117  13.411
30444W        W 3512  35.412  18.866   4.736
30445W        W 3513  13.266  10.105   4.825
30446W        W 3514  42.394  35.798   4.850
30447W        W 3515  33.709  28.343  12.702
30448W        W 3516  40.912  20.763   2.303
30449W        W 3517   1.247  10.369  12.975
30450W        W 3518  13.115   7.771   1.059
30451W        W 3519  24.136   6.018  12.500
30452W        W 3520  13.198  43.755  13.381
30453W        W 3521  16.030   3.365   1.863
30454W        W 3522   6.304  32.272   0.263
30455W        W 3523  11.814   5.345   4.278
30456W        W 3524  10.763  20.361   0.563
30457W        W 3525   3.151  27.020   4.129
30458W        W 3526   9.747  12.303   2.808
30459W        W 3527   5.721  36.513  12.069
30460W        W 3528  10.266  32.172  13.464
30461W        W 3529   9.122  35.611   1.388
30462W        W 3530  40.355  10.720   3.768
30463W        W 3531   2.865  15.255   2.438
30464W        W 3532  26.133  13.280   3.178
30465W        W 3533   4.488  37.412  14.389
30466W        W 3534   3.192   2.798  14.880
30467W        W 3535  31.558  25.170   5.058
30468W        W 3536  44.836   1.979  14.426
30469W        W 3537  35.177   3.204  10.375
30470W        W 3538  35.289  30.413  11.088
30471W        W 3539  40.423   3.215   1.301
30472W        W 3540  22.568  10.211  13.108
30473W        W 3541  28.577   5.640  10.754
30474W        W 3542  41.249  33.624   3.555
30475W        W 3543  32.610  36.037  12.503
30476W        W 3544  22.784  13.052   4.389
30477W        W 3545   4.904  37.909  11.709
30478W        W 3546  22.583  19.218   5.066
30479W        W 3547  22.474  29.640  13.341
30480W        W 3548  22.455   9.926  14.086
30481W        W 3549  18.669  20.025  14.211
30482W        W 3550  13.717  13.167   4.141
30483W        W 3551   0.902  17.370   4.223
30484W        W 3552  27.828  35.130   2.255
30485W        W 3553   3.333  29.034  14.372
30486W        W 3554  22.993  22.225  10.684
30487W        W 3555  10.417   7.778  10.854
30488W        W 3556  20.642  12.083  14.080
30489W        W 3557  11.371  44.292  10.555
30490W        W 3558  10.216  20.274   4.680
30491W        W 3559  39.404   5.185   1.435
30492W        W 3560  40.297  38.946  12.948
30493W        W 3561  19.142  28.945   3.887
30494W        W 3562  13.138  38.392   3.699
30495W        W 3563  23.717  36.631  12.310
30496W        W 3564   2.675  28.647   4.887
30497W        W 3565   6.002  12.338  10.760
30498W        W 3566  17.575  32.383   2.486
30499W        W 3567  35.298  32.297  12.775
30500W        W 3568  32.651  18.030  13.318
30501W        W 3569  15.747   4.836   0.188
30502W        W 3570  13.308  32.985  10.483
30503W        W 3571  31.251  30.684  12.124
30504W        W 3572  16.585  42.534   3.792
30505W        W 3573  22.741   9.269  11.941
30506W        W 3574  43.985  39.378   4.024
30507W        W 3575  31.120  36.020  11.064
30508W        W 3576  42.824  13.149   1.015
30509W        W 3577   6.688   3.636   3.271
30510W        W 3578   8.595  36.915  11.729
30511W        W 3579  18.304   3.200  14.852
30512W        W 3580  29.360   6.496   3.766
30513W        W 3581   2.006  34.881   1.407
30514W        W 3582  15.710  17.119   4.337
30515W        W 3583   8.088  21.805  11.600
30516W        W 3584  35.575   5.265   3.686
30517W        W 3585   5.187  11.079   1.583
30518W        W 3586  25.940   9.212   3.105
30519W        W 3587  19.770   1.764   1.668
30520W        W 3588  13.867  40.341   2.333
30521W        W 3589  37.696  33.335  14.081
30522W        W 3590  17.338  22.496  11.627
30523W        W 3591  27.714  31.056  14.324
30524W        W 3592   3.458   1.056   2.866
30525W        W 3593  12.366  18.854  13.411
30526W        W 3594  29.529  27.610   2.164
30527W        W 3595  42.285  37.118  11.079
30528W        W 3596  30.441  40.885   3.659
30529W        W 3597  33.151  37.932   2.703
30530W        W 3598  29.040  13.808   2.404
30531W        W 3599  16.464   9.942   0.912
30532W        W 3600  26.510   5.809   1.643
30533W        W 3601  19.699  14.809   1.437
30534W        W 3602   2.960  26.299  10.358
30535W        W 3603  26.706  14.648  14.366
30536W        W 3604  26.737  10.370  11.104
30537W        W 3605  11.964  16.304   9.767
30538W        W 3606  34.583  30.482   4.116
30539W        W 3607  12.858   0.956  13.606
30540W        W 3608  43.635  32.634   0.836
30541W        W 3609  34.604  44.976  10.717
30542W        W 3610  23.693  11.810  10.769
30543W        W 3611  33.900  18.507  10.567
30544W        W 3612   3.397   5.040   5.143
30545W        W 3613  21.276   3.079  14.957
30546W        W 3614  31.509  32.985  14.363
30547W        W 3615  37.178   5.556  14.360
30548W        W 3616  38.218  40.873   4.586
30549W        W 3617   0.979  44.797   3.302
30550W        W 3618  28.614   1.901   1.666
30551W        W 3619  33.510  34.569   1.463
30552W        W 3620  21.584  21.741  11.456
30553W        W 3621  31.644   0.028  14.318
30554W        W 3622  11.848  32.378  14.216
30555W        W 3623   9.729  11.025   2.796
30556W        W 3624  33.357  34.614  11.090
30557W        W 3625  31.497  42.382   4.745
30558W        W 3626  44.301   3.322  11.986
30559W        W 3627  33.586  21.303   1.394
30560W        W 3628  27.389   9.829   4.969
30561W        W 3629   2.030  34.351  11.914
30562W        W 3630   5.844   0.255   2.231
30563W        W 3631  26.397  16.720  12.584
30564W        W 3632   1.750  39.837  14.938
30565W        W 3633  38.082  23.067  14.978
30566W        W 3634  13.936  12.248   1.245
30567W        W 3635  12.199   2.936  10.579
30568W        W 3636  13.538  34.095   2.178
30569W        W 3637  26.481  31.459  12.689
30570W        W 3638  27.730  41.492  12.958
30571W        W 3639   3.993   6.385   3.103
30572W        W 3640  36.520  12.661   3.694
30573W        W 3641  26.562  32.132   0.943
30574W        W 3642  42.944  40.592  12.609
30575W        W 3643  26.606  18.228  14.823
30576W        W 3644   1.785   2.356  10.991
30577W        W 3645  40.299  42.239   2.494
30578W        W 3646  23.744  23.186   1.473
30579W        W 3647  31.400  11.096   0.099
30580W        W 3648  12.993  12.282  10.321
30581W        W 3649  32.043  35.141   0.516
30582W        W 3650  36.446  24.964   0.529
30583W        W 3651  34.535  18.044  12.514
30584W        W 3652  11.355   2.674   1.454
30585W        W 3653  39.554  31.148  12.341
30586W        W 3654  31.349  35.366   4.205
30587W        W 3655  30.984   8.944  13.856
30588W        W 3656   3.042  37.968  12.034
30589W        W 3657  29.121  23.652   1.909
30590W        W 3658  19.021  10.427   0.223
30591W        W 3659  11.825   3.683  11.923
30592W        W 3660  25.999  43.964  10.620
30593W        W 3661  28.573  19.218   0.261
30594W        W 3662  24.144  15.553   0.889
30595W        W 3663  32.546  38.270   4.572
30596W        W 3664  43.816   4.514   1.639
30597W        W 3665  24.909   2.710   2.831
30598W        W 3666  39.314  21.968  12.973
30599W        W 3667  32.890   7.118  13.926
30600W        W 3668  21.025  41.244  13.790
30601W        W 3669  19.081   3.897  13.818
30602W        W 3670  44.449   3.781  11.130
30603W        W 3671   5.349  10.083  14.846
30604W        W 3672  11.182  40.308  11.680
30605W        W 3673   7.885   2.929   2.151
30606W        W 3674  13.265  25.893  11.146
30607W        W 3675  39.436  13.704   4.175
30608W        W 3676   5.131   8.205   4.884
30609W        W 3677  13.506  28.169  12.569
30610W        W 3678  33.635  43.583  13.894
30611W        W 3679  13.020  15.716  11.567
30612W        W 3680  44.976  34.382   2.213
30613W        W 3681   4.719  25.689   3.740
30614W        W 3682  22.771  21.006   1.408
30615W        W 3683  37.603   0.733   0.499
30616W        W 3684  40.952  32.979   0.375
30617W        W 3685  28.544  40.283  12.512
30618W        W 3686  38.661   9.802  12.121
30619W        W 3687  19.111  10.205   4.896
30620W        W 3688  36.603  12.511  13.129
30621W        W 3689  39.680   0.986   1.924
30622W        W 3690  33.138  18.643  12.068
30623W        W 3691  11.443   3.789   2.400
30624W        W 3692  17.775  22.296  13.125
30625W        W 3693   8.832   1.326  14.711
30626W        W 3694   9.356   1.461   2.744
30627W        W 3695   8.286  35.263   2.372
30628W        W 3696  29.032  17.259  13.828
30629W        W 3697  28.129  12.799   2.194
30630W        W 3698  19.082  41.262   1.470
30631W        W 3699  13.893  42.814  12.881
30632W        W 3700  30.463  38.004   0.277
30633W        W 3701  24.408   0.429   0.266
30634W        W 3702  41.976  42.225  10.892
30635W        W 3703  33.084  39.276  11.140
30636W        W 3704  15.718   8.689  12.678
30637W        W 3705  43.995   0.230   0.437
30638W        W 3706  27.189  40.776  13.441
30639W        W 3707  34.131   9.066   4.324
30640W        W 3708  35.125  23.207   0.391
30641W        W 3709   2.504  26.387   3.698
30642W        W 3710  10.282  30.066  12.439
30643W        W 3711   2.609  36.890  13.468
30644W        W 3712   6.292   5.363   3.201
30645W        W 3713  14.099  29.151  12.505
30646W        W 3714  17.538  23.366  11.122
30647W        W 3715   2.761  38.632  11.429
30648W        W 3716  27.231  43.452  13.983
30649W        W 3717   8.614  37.451   3.088
30650W        W 3718  15.339  20.078   2.756
30651W        W 3719  38.534  25.301  14.224
30652W        W 3720  20.076  28.895   3.861
30653W        W 3721   8.269   2.410  14.289
30654W        W 3722  10.669  42.841   1.129
30655W        W 3723  10.624  17.898  10.643
30656W        W 3724  36.046  32.882   1.873
30657W        W 3725   4.468  11.791   0.706
30658W        W 3726  22.311  24.574  10.558
30659W        W 3727  18.137   5.120   2.929
30660W        W 3728  41.412  35.675   2.210
30661W        W 3729  11.846  44.284   4.306
30662W        W 3730   4.304  40.923  14.673
30663W        W 3731  14.140   5.726  11.942
30664W        W 3732  28.611  23.133   0.846
30665W        W 3733  33.440  21.742   3.250
30666W        W 3734   1.675  21.648   4.069
30667W        W 3735   2.482  25.216  14.530
30668W        W 3736  31.491  31.644   1.635
30669W        W 3737  29.659  16.098   0.863
30670W        W 3738   4.499  19.320  11.129
30671W        W 3739  17.092  12.716   1.653
30672W        W 3740  42.904  37.745   2.707
30673W        W 3741  12.349  35.954   3.109
30674W        W 3742  14.996  43.055  14.379
30675W        W 3743  32.482  19.660  10.824
30676W        W 3744  33.112  20.296  13.450
30677W        W 3745  25.019  15.268   4.111
30678W        W 3746   0.335  10.788   3.747
30679W        W 3747   8.227  38.537   0.494
30680W        W 3748  38.762  15.130  14.498
30681W        W 3749  36.852  10.207   2.896
30682W        W 3750  22.348  36.264   1.850
30683W        W 3751  38.319  29.159  13.424
30684W        W 3752  22.297  29.386  11.580
30685W        W 3753  44.903  43.475  11.235
30686W        W 3754  29.653  14.076   1.602
30687W        W 3755   6.277  24.925   4.465
30688W        W 3756  28.510  40.867  14.827
30689W        W 3757  15.744   4.533   5.377
30690W        W 3758  22.722  32.503  12.201
30691W        W 3759  12.728  17.540  12.558
30692W        W 3760  24.239  21.160  11.240
30693W        W 3761  38.974  28.390   3.043
30694W        W 3762  15.967  16.156  14.462
30695W        W 3763  31.651   5.168  14.014
30696W        W 3764  43.123   1.394   0.241
30697W        W 3765  14.242  44.376  11.158
30698W        W 3766   1.227   2.916   0.329
30699W        W 3767   9.860  10.742  10.596
30700W        W 3768  39.070  41.417   4.581
30701W        W 3769  19.055  34.869   4.139
30702W        W 3770  36.052  25.366   3.649
30703W        W 3771  34.999  30.409   5.086
30704W        W 3772   4.715  27.220   3.520
30705W        W 3773  32.372  44.646  12.236
30706W        W 3774   3.723   2.511   0.271
30707W        W 3775   4.117  40.347   2.805
30708W        W 3776  43.455  38.533   4.470
30709W        W 3777  22.780   6.736  13.922
30710W        W 3778  38.451  21.290  14.840
30711W        W 3779  41.957  17.495  11.957
30712W        W 3780  32.472   3.314  14.000
30713W        W 3781  39.753   1.361   0.947
30714W        W 3782  13.787  41.352   4.237
30715W        W 3783   1.715  23.458  11.536
30716W        W 3784  16.746  32.360   3.834
30717W        W 3785  21.622  11.291  13.560
30718W        W 3786  10.252  37.995   1.964
30719W        W 3787  11.203  25.696   1.842
30720W        W 3788  44.336   9.337  10.484
30721W        W 3789  32.152  33.844  12.160
30722W        W 3790  10.685  24.781   4.743
30723W        W 3791  19.767  33.030  13.368
30724W        W 3792  42.364  40.715   0.877
30725W        W 3793   6.404  26.113   1.854
30726W        W 3794   7.260  27.008   0.262
30727W        W 3795   7.791   8.811  11.997
30728W        W 3796  40.004  39.073   3.190
30729W        W 3797  15.098  40.774  10.757
30730W        W 3798  19.073   1.695  14.114
30731W        W 3799  27.123  14.756   4.546
30732W        W 3800  39.881   9.986   3.196
30733W        W 3801  22.304  34.931  13.817
30734W        W 3802  39.707  44.918   1.574
30735W        W 3803  38.999  23.415  14.518
30736W        W 3804  26.677  12.609   2.133
30737W        W 3805  33.962  10.662   4.495
30738W        W 3806  14.404  10.217  13.479
30739W        W 3807  18.211  42.396   1.366
30740W        W 3808  20.676  24.197   4.260
30741W        W 3809   5.700  33.597  10.673
30742W        W 3810  25.259  35.758   4.166
30743W        W 3811  33.105  35.465  12.651
30744W        W 3812  26.592  15.619  11.987
30745W        W 3813  17.035  15.625  10.731
30746W        W 3814  27.690  10.982  13.027
30747W        W 3815   3.874  28.187  11.131
30748W        W 3816  16.616  41.498   4.308
30749W        W 3817  11.091  27.154  11.719
30750W        W 3818  24.442  23.609   1.052
30751W        W 3819  24.314  36.570   3.182
30752W        W 3820  23.938   4.034   4.014
30753W        W 3821  30.653  30.328  14.309
30754W        W 3822  43.147   8.065   0.445
30755W        W 3823   7.855   8.453   2.844
30756W        W 3824   6.203  23.512  13.335
30757W        W 3825  10.243  36.115   3.350
30758W        W 3826  32.673  19.691   2.002
30759W        W 3827  30.935  34.626  12.485
30760W        W 3828  15.318  27.368  10.817
30761W        W 3829  36.487   0.347   3.113
30762W        W 3830  37.518  38.039  13.314
30763W        W 3831   9.352  21.747  12.009
30764W        W 3832  28.956  12.697   3.784
30765W        W 3833   7.165  34.901   3.655
30766W        W 3834  17.456  21.650  11.163
30767W        W 3835   2.255  29.535   0.278
30768W        W 3836  18.589  15.210   2.825
30769W        W 3837  19.921  35.797  14.935
30770W        W 3838  10.594  42.324   0.359
30771W        W 3839   0.027  17.079   4.106
30772W        W 3840  39.506   5.901   3.073
30773W        W 3841  11.459  10.954  11.520
30774W        W 3842  28.566  44.578   2.480
30775W        W 3843  40.853   9.734   2.480
30776W        W 3844  23.184  41.312  13.052
30777W        W 3845  26.341   0.634  13.845
30778W        W 3846  14.607   5.729  13.074
30779W        W 3847  23.431   0.193  12.168
30780W        W 3848  18.782  24.117   1.833
30781W        W 3849  10.703  23.404   1.193
30782W        W 3850   2.327  39.876   3.182
30783W        W 3851  40.531  41.780   4.509
30784W        W 3852  25.273  25.150  12.821
30785W        W 3853  39.358   7.017   2.297
30786W        W 3854  21.072  25.469   4.538
30787W        W 3855  35.922   4.000  12.883
30788W        W 3856  30.067  31.939   3.812
30789W        W 3857  30.337  21.451  10.935
30790W        W 3858  15.803  24.719   4.521
30791W        W 3859   6.341   6.886   0.343
30792W        W 3860   2.777  31.321  11.569
30793W        W 3861  20.128   5.212   1.724
30794W        W 3862   3.401  43.398  14.236
30795W        W 3863   8.884  42.527   4.945
30796W        W 3864  13.760  13.070  11.188
30797W        W 3865  10.873  36.912   0.493
30798W        W 3866  20.777  24.934  14.478
30799W        W 3867  28.599   2.066   0.657
30800W        W 3868  19.283  28.569  14.453
30801W        W 3869  20.706  44.878  10.704
30802W        W 3870   0.902  39.653  12.048
30803W        W 3871  18.273   9.950   3.783
30804W        W 3872   0.323   0.520   3.319
30805W        W 3873  34.160  37.401   5.132
30806W        W 3874  39.486  20.646  12.332
30807W        W 3875  20.090  30.454   2.093
30808W        W 3876  27.558  34.433  13.552
30809W        W 3877  25.155  11.353   0.255
30810W        W 3878  29.359  39.098   3.701
30811W        W 3879  17.288  42.539   4.180
30812W        W 3880  25.486  11.912   0.735
30813W        W 3881  41.601   8.169   3.180
30814W        W 3882  33.042   5.869   2.665
30815W        W 3883  39.582   8.307  13.970
30816W        W 3884  18.400  39.507  12.213
30817W        W 3885  12.097  23.816   3.444
30818W        W 3886   2.694  17.050   3.676
30819W        W 3887   0.525  33.586   0.472
30820W        W 3888  10.367  19.239   4.680
30821W        W 3889  27.884  15.064   3.413
30822W        W 3890  26.584  15.416   4.084
30823W        W 3891   9.985  38.734  11.379
30824W        W 3892  36.551   9.888   1.060
30825W        W 3893  12.856  14.082  12.617
30826W        W 3894  34.279  38.815   2.836
30827W        W 3895  44.900   6.962   0.315
30828W        W 3896  30.546  17.692  12.291
30829W        W 3897  13.760  33.152  12.121
30830W        W 3898   9.735  30.110   0.780
30831W        W 3899  31.639  32.385   2.896
30832W        W 3900   2.595   5.765  13.308
30833W        W 3901  34.802  20.788   0.675
30834W        W 3902  27.466   3.291   3.748
30835W        W 3903  24.559  12.589  10.456
30836W        W 3904  26.281  12.531   9.826
30837W        W 3905   8.115   1.027   0.600
30838W        W 3906   5.656   3.867  14.319
30839W        W 3907  34.853  37.406  12.361
30840W        W 3908  25.436  16.071  12.435
30841W        W 3909  43.010  29.321   0.338
30842W        W 3910   4.989  27.209   0.860
30843W        W 3911  33.403  16.235  13.758
30844W        W 3912  44.772  30.950  14.550
30845W        W 3913  28.726  24.069  11.985
30846W        W 3914   3.704  35.617   1.815
30847W        W 3915   8.310   4.661   1.876
30848W        W 3916  44.646  39.010  13.977
30849W        W 3917   7.887   8.711  11.449
30850W        W 3918  13.983  35.318  13.486
30851W        W 3919  29.511  28.408  13.428
30852W        W 3920  17.064   0.920   3.553
30853W        W 3921  33.940  30.943   4.432
30854W        W 3922  18.242  10.461  13.992
30855W        W 3923  32.625  15.128   2.341
30856W        W 3924   9.169  39.451   3.770
30857W        W 3925  34.719  38.295   3.184
30858W        W 3926  34.870  43.336  11.033
30859W        W 3927  43.348  11.733  14.636
30860W        W 3928   2.656   9.378   4.225
30861W        W 3929   1.317  10.119  13.415
30862W        W 3930  16.134  35.112   1.171
30863W        W 3931  26.069  23.059  14.795
30864W        W 3932  36.299  33.791  13.915
30865W        W 3933  25.554  33.213   0.889
30866W        W 3934   0.751  34.049   3.168
30867W        W 3935  33.688  29.649  14.497
30868W        W 3936  25.147  39.994   1.225
30869W        W 3937  40.383  41.684  10.668
30870W        W 3938  36.714  14.156   1.921
30871W        W 3939  27.476  19.304   3.706
30872W        W 3940  11.717  44.170   0.217
30873W        W 3941  28.925  20.292  13.785
30874W        W 3942  10.192  43.189  13.128
30875W        W 3943   1.837   3.062  14.201
30876W        W 3944  40.922   3.158   4.736
30877W        W 3945  35.565  26.950  11.706
30878W        W 3946   6.281   8.503   4.076
30879W        W 3947  12.220  28.404  14.350
30880W        W 3948  37.571  27.698   1.333
30881W        W 3949   4.721   7.852  11.594
30882W        W 3950  35.160   7.633   2.667
30883W        W 3951   6.244   7.076  14.876
30884W        W 3952  31.114  41.503  12.622
30885W        W 3953   2.469  20.726  14.519
30886W        W 3954  33.090  24.470  13.121
30887W        W 3955  12.206  20.486   3.653
30888W        W 3956   9.175   0.489   1.832
30889W        W 3957  32.636  18.741   1.919
30890W        W 3958  15.938  34.567  10.245
30891W        W 3959  30.394  11.737   3.315
30892W        W 3960  20.787  29.505  14.094
30893W        W 3961  29.116   7.271   0.957
30894W        W 3962   4.119  26.336  14.262
30895W        W 3963  13.086  35.744  12.078
30896W        W 3964  40.737   8.470   2.274
30897W        W 3965  36.300   9.429   3.586
30898W        W 3966  24.089  18.507  13.739
30899W        W 3967  43.068  14.755   3.218
30900W        W 3968  19.603  37.880  13.981
30901W        W 3969   5.691  16.079   0.962
30902W        W 3970   0.075  11.757   0.418
30903W        W 3971  25.442  41.012  13.016
30904W        W 3972  14.676  41.995  11.680
30905W        W 3973  25.955  11.244  13.436
30906W        W 3974  35.110  10.837  12.242
30907W        W 3975  13.712  31.967   0.453
30908W        W 3976   7.644  33.821  13.893
30909W        W 3977   9.767   1.773   3.471
30910W        W 3978  27.880  25.640   3.313
30911W        W 3979   7.176  40.572   1.882
30912W        W 3980  16.673  42.414  10.616
30913W        W 3981  23.989   4.299   1.924
30914W        W 3982  34.739  27.461   4.825
30915W        W 3983  12.178  34.152   1.818
30916W        W 3984  17.166  19.941  12.188
30917W        W 3985   6.690  10.032  10.151
30918W        W 3986  28.515  44.342   1.017
30919W        W 3987  12.835  13.543   0.952
30920W        W 3988  37.903   6.362  11.171
30921W        W 3989   6.665  12.187   4.189
30922W        W 3990  37.125  29.728   4.184
30923W        W 3991   4.447  30.138   0.999
30924W        W 3992  35.512  44.246   0.811
30925W        W 3993  21.079  15.776   2.675
30926W        W 3994  37.425  43.796  13.535
30927W        W 3995  18.334  39.484   2.628
30928W        W 3996  14.865  43.718  14.308
30929W        W 3997   9.288  12.603   4.152
30930W        W 3998  37.552  12.233  13.139
30931W        W 3999  10.303  41.492   1.230
30932W        W 4000  30.331  11.401  13.551
30933W        W 4001  28.585  11.132   2.268
30934W        W 4002   8.263  23.722   2.707
30935W        W 4003  11.902  17.327  11.527
30936W        W 4004  34.839  38.916  12.893
30937W        W 4005  30.968  27.716  13.951
30938W        W 4006  37.165  31.832  12.504
30939W        W 4007   5.711  36.750   1.702
30940W        W 4008  13.768  34.850   0.438
30941W        W 4009  19.193   7.206   4.519
30942W        W 4010   1.728  41.820   0.882
30943W        W 4011  37.719  36.817  12.980
30944W        W 4012  41.609  15.347   4.880
30945W        W 4013  25.646  37.965  13.047
30946W        W 4014   5.401  14.453  11.315
30947W        W 4015  43.839  28.632  14.682
30948W        W 4016  18.216   8.708   4.448
30949W        W 4017  23.684  33.057   3.670
30950W        W 4018  21.714   9.190   0.379
30951W        W 4019   5.579  24.810  14.477
30952W        W 4020  40.511  25.235   4.588
30953W        W 4021  26.653   0.919   2.695
30954W        W 4022  12.397  15.012   2.275
30955W        W 4023   0.315   7.528  12.938
30956W        W 4024  35.782  44.513   3.343
30957W        W 4025  17.483  24.189  12.012
30958W        W 4026   6.329  33.896   3.890
30959W        W 4027  17.132  25.740  14.026
30960W        W 4028   5.086  14.400  14.315
30961W        W 4029  37.978  11.478  14.833
30962W        W 4030  42.723  18.643   2.709
30963W        W 4031  43.478   1.148  10.882
30964W        W 4032  35.517  35.270   2.202
30965W        W 4033   5.359  11.544   1.712
30966W        W 4034  39.098   9.954   3.617
30967W        W 4035  36.853  35.478   3.749
30968W        W 4036  12.851  38.618  12.034
30969W        W 4037  35.027  36.944   2.201
30970W        W 4038  21.317  42.470  12.450
30971W        W 4039  33.493  32.640   4.719
30972W        W 4040  28.513   6.708  12.578
30973W        W 4041  42.004  25.258   3.815
30974W        W 4042  24.698  26.722  14.777
30975W        W 4043   7.191  31.616  11.533
30976W        W 4044  23.706  34.091  13.471
30977W        W 4045  28.670  27.892   2.282
30978W        W 4046   5.040  43.541   0.565
30979W        W 4047  27.862  10.744  11.521
30980W        W 4048   5.950  34.112   1.439
30981W        W 4049  33.840  26.938   2.692
30982W        W 4050  30.669  26.681  14.801
30983W        W 4051  14.746  39.111  13.503
30984W        W 4052  33.414  29.397   0.337
30985W        W 4053  18.514   4.222  12.779
30986W        W 4054  44.353  30.499  12.445
30987W        W 4055  29.460  20.753  11.159
30988W        W 4056  25.487  34.707   4.277
30989W        W 4057  40.394  20.750   3.034
30990W        W 4058  41.868  37.564  13.617
30991W        W 4059   3.954  14.269   2.624
30992W        W 4060   0.059  43.735   3.253
30993W        W 4061  31.679   5.305   2.674
30994W        W 4062  38.250  44.410   2.329
30995W        W 4063  34.639  35.475  14.407
30996W        W 4064  37.281  37.818  11.618
30997W        W 4065  42.763  13.402  10.780
30998W        W 4066  31.350  14.301   5.430
30999W        W 4067  25.944   4.778   0.720
31000W        W 4068  33.602  34.948   2.780
31001W        W 4069  15.211  36.494  12.101
31002W        W 4070  13.629  35.597   0.678
31003W        W 4071   7.260  28.949   4.754
31004W        W 4072  11.166  34.062   3.299
31005W        W 4073   5.592  34.946  10.696
31006W        W 4074   5.050  18.991   4.328
31007W        W 4075  33.634   1.348  13.253
31008W        W 4076  31.541  38.609   2.465
31009W        W 4077  30.762  28.753  11.194
31010W        W 4078   9.438  20.606   1.490
31011W        W 4079  37.615  20.900  11.089
31012W        W 4080  44.812  40.124   3.295
31013W        W 4081  28.087  32.800   4.095
31014W        W 4082  35.101   3.312  14.054
31015W        W 4083  19.104  24.500   3.653
31016W        W 4084   8.401  19.082   1.470
31017W        W 4085   2.563   2.207  11.102
31018W        W 4086  33.239   4.130   1.402
31019W        W 4087  17.659   1.871  11.660
31020W        W 4088  40.546  27.447   3.389
31021W        W 4089  39.335  30.119   3.719
31022W        W 4090  39.454  12.288   2.275
31023W        W 4091  15.209   2.281  11.503
31024W        W 4092  43.623  16.771   3.806
31025W        W 4093  20.485  30.009   0.025
31026W        W 4094  33.688   4.377  11.039
31027W        W 4095  25.589  44.352  13.125
31028W        W 4096   9.865  12.923   0.778
31029W        W 4097  27.071  25.492   0.760
31030W        W 4098  40.536   3.006  13.765
31031W        W 4099   2.391  31.129   0.923
31032W        W 4100  38.618   8.176  11.570
31033W        W 4101  37.278   8.775  14.533
31034W        W 4102  36.777  11.388  14.437
31035W        W 4103  28.189  35.194   4.073
31036W        W 4104  31.616  41.236   1.766
31037W        W 4105  22.008  12.783  12.935
31038W        W 4106   6.699  12.630  12.583
31039W        W 4107  41.474  19.099  13.949
31040W        W 4108  15.281  39.767  12.850
31041W        W 4109   0.476  26.187  11.206
31042W        W 4110  37.607  22.878  14.897
31043W        W 4111  30.080  44.483   1.945
31044W        W 4112   2.497  31.446  12.540
31045W        W 4113  33.823  23.421  12.579
31046W        W 4114   6.271   6.120   0.958
31047W        W 4115  30.268  42.298  12.526
31048W        W 4116   3.031  30.128   1.347
31049W        W 4117   9.587  26.550   3.240
31050W        W 4118   6.933  23.169   4.194
31051W        W 4119   7.841  43.810   1.486
31052W        W 4120  35.564  29.842   0.339
31053W        W 4121  20.092  17.015   0.843
31054W        W 4122   2.421  19.732   4.188
31055W        W 4123  27.468   6.563   4.771
31056W        W 4124  19.788   5.952   1.445
31057W        W 4125  39.503  15.744  13.819
31058W        W 4126  10.588  31.359  13.842
31059W        W 4127   7.288  35.123   3.120
31060W        W 4128  34.533  15.212  11.088
31061W        W 4129  16.392  40.861   3.747
31062W        W 4130   7.382  15.256  14.802
31063W        W 4131  40.456  17.023  14.438
31064W        W 4132  14.315  28.929  13.983
31065W        W 4133   4.303   4.741   3.538
31066W        W 4134  23.499  16.235  14.974
31067W        W 4135  26.702  24.547   0.243
31068W        W 4136  30.446   1.616   2.750
31069W        W 4137  15.848  27.602   1.328
31070W        W 4138  13.884   3.806   1.728
31071W        W 4139  15.808  12.602   2.842
31072W        W 4140   2.974  17.391  14.460
31073W        W 4141   1.092   7.430   2.806
31074W        W 4142  10.080  39.904  14.268
31075W        W 4143  34.840  44.855   1.816
31076W        W 4144  28.928  42.241  12.832
31077W        W 4145  43.335   0.802   0.994
31078W        W 4146  35.286  44.794  13.625
31079W        W 4147  44.510  33.576   0.262
31080W        W 4148  29.212  38.835  11.087
31081W        W 4149  38.628  17.051  11.113
31082W        W 4150  10.285  17.201  10.294
31083W        W 4151   7.776  15.357  10.628
31084W        W 4152   2.673   4.281  11.120
31085W        W 4153   9.968  40.338   4.587
31086W        W 4154  41.322  30.433   4.591
31087W        W 4155  36.913  10.686   4.750
31088W        W 4156  26.643  28.597   4.536
31089W        W 4157   0.969  12.693  13.056
31090W        W 4158  12.814  30.417   1.411
31091W        W 4159  15.683  16.566  11.616
31092W        W 4160  40.918   3.892  14.541
31093W        W 4161  40.933  18.723   2.430
31094W        W 4162  36.379  31.752  10.198
31095W        W 4163  14.034  20.040  13.475
31096W        W 4164  12.658  27.687   3.133
31097W        W 4165  30.258   6.128  12.423
31098W        W 4166  30.705  38.442   3.292
31099W        W 4167  22.501  14.174  12.655
31100W        W 4168   3.872  14.768   2.397
31101W        W 4169  14.315  43.025  13.075
31102W        W 4170  15.830  42.200   5.031
31103W        W 4171  38.187   7.819   0.877
31104W        W 4172  30.932  32.993  12.149
31105W        W 4173  23.555   7.810   3.129
31106W        W 4174  16.607  14.095  12.497
31107W        W 4175  41.839  42.955  11.455
31108W        W 4176  25.332   6.255   0.195
31109W        W 4177  34.208  17.096  13.567
31110W        W 4178  15.626  17.482   3.165
31111W        W 4179   5.163  26.410  11.563
31112W        W 4180   2.931  27.153   1.348
31113W        W 4181  26.788   9.169   0.220
31114W        W 4182   9.825  29.346  13.523
31115W        W 4183  41.401  28.962  12.552
31116W        W 4184  37.598  28.110   1.772
31117W        W 4185   5.923  13.705  10.425
31118W        W 4186  24.574  28.202   2.370
31119W        W 4187   4.466  18.428   0.470
31120W        W 4188  17.311   6.395   1.337
31121W        W 4189  20.166  19.895  10.265
31122W        W 4190  41.931  28.471  14.431
31123W        W 4191  38.370  19.790  11.665
31124W        W 4192  37.166   4.381  13.798
31125W        W 4193  39.736  19.731   4.585
31126W        W 4194  28.956  42.039  11.130
31127W        W 4195  22.572  35.917  13.782
31128W        W 4196  14.289  36.923  10.730
31129W        W 4197  40.340   3.961  14.945
31130W        W 4198  14.363  24.993  11.389
31131W        W 4199  24.971  23.472  12.008
31132W        W 4200  19.586  40.522  12.652
31133W        W 4201  42.529  39.528  13.794
31134W        W 4202  10.492  16.081   3.938
31135W        W 4203  27.161  40.036  12.951
31136W        W 4204  23.993  39.105   3.636
31137W        W 4205  18.945  34.544  13.852
31138W        W 4206   6.240  38.392   3.822
31139W        W 4207   4.827  30.940  11.989
31140W        W 4208  41.562  19.174   1.260
31141W        W 4209  35.947   8.536  14.836
31142W        W 4210  38.993   3.166  10.256
31143W        W 4211  16.821  17.061   1.512
31144W        W 4212  34.030   5.762  11.548
31145W        W 4213  33.563  17.288   3.112
31146W        W 4214   1.065  34.402  13.402
31147W        W 4215  26.216   9.665   1.341
31148W        W 4216  30.084  28.590   0.278
31149W        W 4217  32.734   6.134   2.983
31150W        W 4218   8.183   2.832   0.330
31151W        W 4219  24.972  34.032  12.004
31152W        W 4220  33.937  17.010   4.889
31153W        W 4221  31.718   8.283   2.786
31154W        W 4222   3.476  18.675  14.520
31155W        W 4223  25.424  21.006   1.808
31156W        W 4224   0.750  27.176  14.983
31157W        W 4225  26.354  26.557  13.515
31158W        W 4226  36.653  43.365  14.402
31159W        W 4227  33.848  22.848   2.057
31160W        W 4228  13.359  22.735  11.174
31161W        W 4229   4.603  17.198  13.843
31162W        W 4230  33.436  42.811   4.709
31163W        W 4231  15.261  35.868   1.761
31164W        W 4232  16.081  28.214  11.646
31165W        W 4233  44.266  32.668   3.251
31166W        W 4234   8.128  17.684  12.423
31167W        W 4235  44.795   6.797  14.007
31168W        W 4236  12.136  27.912   3.825
31169W        W 4237  16.732  29.061   4.329
31170W        W 4238  24.683   4.663  11.119
31171W        W 4239   6.835  22.916  10.830
31172W        W 4240  38.543  37.964   1.721
31173W        W 4241  32.598  35.863   4.614
31174W        W 4242   6.739  22.541  14.554
31175W        W 4243  36.665   7.778   4.079
31176W        W 4244   4.478  10.650   1.162
31177W        W 4245   2.192  21.826   3.185
31178W        W 4246   0.595  17.815  11.658
31179W        W 4247  21.271  39.420  10.978
31180W        W 4248  11.839  16.323   0.836
31181W        W 4249  37.176   1.421  14.810
31182W        W 4250  39.244  44.040   3.786
31183W        W 4251  19.325  27.968  12.730
31184W        W 4252  22.456  28.061  12.993
31185W        W 4253  33.978  43.207   2.302
31186W        W 4254  33.615   7.491  10.122
31187W        W 4255  19.320   1.977   3.627
31188W        W 4256  18.792  32.678  14.674
31189W        W 4257   4.478  26.065  13.978
31190W        W 4258  24.387   6.376  11.634
31191W        W 4259  24.877  18.849  14.826
31192W        W 4260  12.628  32.531   3.694
31193W        W 4261  13.170  32.453   4.525
31194W        W 4262  33.353  36.787   3.663
31195W        W 4263  30.820   6.193  11.590
31196W        W 4264  21.024  12.013  12.527
31197W        W 4265  15.945   7.803   3.211
31198W        W 4266  44.044  43.101  14.580
31199W        W 4267  18.675  35.759  13.652
31200W        W 4268  37.407  23.663   0.168
31201W        W 4269  34.767  28.505  14.359
31202W        W 4270  36.320  19.266  13.430
31203W        W 4271  25.224  27.388  12.579
31204W        W 4272  18.022  22.146  13.547
31205W        W 4273  39.898  18.991   0.060
31206W        W 4274   8.772  28.911  11.531
31207W        W 4275  33.584   0.978   1.262
31208W        W 4276  22.296   8.534   4.696
31209W        W 4277  43.860  21.357   0.390
31210W        W 4278   6.730  40.534   5.065
31211W        W 4279   4.026  23.784   0.427
31212W        W 4280  33.442  33.299  13.464
31213W        W 4281  23.212  17.246   0.789
31214W        W 4282   3.209   4.401  14.215
31215W        W 4283  25.857  18.499   2.644
31216W        W 4284   7.870   0.761   3.441
31217W        W 4285  11.465  19.531   2.234
31218W        W 4286  27.604   6.868   3.841
31219W        W 4287  26.151  11.878   4.838
31220W        W 4288  25.706  24.534  11.623
31221W        W 4289  15.661  22.720  10.984
31222W        W 4290  24.238  44.858   3.796
31223W        W 4291  22.058   5.133  11.079
31224W        W 4292  28.198  11.236   0.423
31225W        W 4293   9.813  32.441   2.313
31226W        W 4294  13.144  26.418   2.194
31227W        W 4295   6.411  26.212   4.186
31228W        W 4296  19.092  43.659  12.398
31229W        W 4297  12.601  18.038  10.570
31230W        W 4298  42.469   2.549  14.264
31231W        W 4299   7.191  24.006   1.331
31232W        W 4300  27.178   9.271  11.588
31233W        W 4301  42.329  23.510   0.790
31234W        W 4302  14.685  24.709  10.715
31235W        W 4303  22.466  34.833  14.333
31236W        W 4304   7.047  39.505  13.837
31237W        W 4305  39.951  43.863  12.082
31238W        W 4306  21.669  26.385   3.600
31239W        W 4307   5.033   1.865  12.959
31240W        W 4308   6.987  24.958   2.337
31241W        W 4309  38.031  20.607  12.417
31242W        W 4310  36.159  25.441  12.201
31243W        W 4311  15.834  23.156   3.337
31244W        W 4312   0.378  17.935   4.295
31245W        W 4313  13.961  27.263  14.549
31246W        W 4314  14.365  21.285  13.960
31247W        W 4315  21.517   3.225   2.293
31248W        W 4316  21.695   4.887   3.665
31249W        W 4317  13.511  34.490   1.846
31250W        W 4318  37.010   3.465  11.732
31251W        W 4319   3.387  13.667  14.135
31252W        W 4320   6.918  31.051  11.553
31253W        W 4321   6.767   0.284  10.729
31254W        W 4322  28.940  20.671   1.501
31255W        W 4323  19.945  18.566   3.257
31256W        W 4324   6.623   2.968  13.014
31257W        W 4325   9.890  20.651  12.487
31258W        W 4326  38.458  11.787  14.762
31259W        W 4327  42.258  26.051   3.152
31260W        W 4328  36.479   1.781   0.606
31261W        W 4329  20.032  13.614  14.616
31262W        W 4330  35.795  19.248  13.555
31263W        W 4331  30.312   1.504  13.060
31264W        W 4332   0.655  21.528  13.479
31265W        W 4333  43.462  43.430   4.562
31266W        W 4334  36.511   8.237  10.401
31267W        W 4335  15.304  42.844   3.107
31268W        W 4336  27.798  19.252  11.730
31269W        W 4337  17.096  33.710   2.741
31270W        W 4338   0.223  32.341   2.794
31271W        W 4339  18.675  30.150   3.747
31272W        W 4340  39.361   1.944  14.822
31273W        W 4341  41.522   9.127   2.433
31274W        W 4342   5.762  15.114  13.067
31275W        W 4343   2.776  30.559   2.641
31276W        W 4344  39.451  13.371   4.601
31277W        W 4345   5.661  24.965   1.702
31278W        W 4346  40.877  13.236   3.086
31279W        W 4347  35.970  32.093  10.289
31280W        W 4348  43.884   7.601  13.051
31281W        W 4349   8.267  23.196   2.655
31282W        W 4350   2.390  38.470  11.093
31283W        W 4351  36.509  27.055  12.576
31284W        W 4352  10.298  18.028  13.357
31285W        W 4353  23.687   2.982  12.273
31286W        W 4354   6.739  26.077  11.514
31287W        W 4355   4.708  33.059  12.408
31288W        W 4356   4.115   8.335  13.357
31289W        W 4357  33.607  23.966  14.302
31290W        W 4358  34.488  34.583  11.222
31291W        W 4359  19.185  20.381   1.827
31292W        W 4360  17.766   9.842   3.709
31293W        W 4361  42.332   3.662   3.274
31294W        W 4362  42.408   8.670   2.115
31295W        W 4363  14.266  27.661  14.436
31296W        W 4364   7.675   3.826   1.159
31297W        W 4365   1.391  32.094   3.463
31298W        W 4366   9.824  18.627  10.156
31299W        W 4367  26.569  19.197   2.844
31300W        W 4368  12.610  44.525  11.168
31301W        W 4369   0.556  23.806   4.941
31302W        W 4370  43.956  15.753  14.146
31303W        W 4371  34.390  14.378  11.284
31304W        W 4372  14.744  10.493  12.675
31305W        W 4373   9.255  37.896  10.574
31306W        W 4374  15.615   0.791   2.878
31307W        W 4375  18.081  31.864   1.397
31308W        W 4376  14.494  26.264  14.882
31309W        W 4377   9.665  25.794  13.081
31310W        W 4378   9.787  35.959   4.269
31311W        W 4379  30.533  16.522   1.797
31312W        W 4380   1.344  11.185   4.642
31313W        W 4381  29.574   9.318  10.711
31314W        W 4382   1.483  15.478   1.325
31315W        W 4383  26.476   5.221  11.197
31316W        W 4384  25.731  40.970  12.546
31317W        W 4385   5.894   8.806   2.883
31318W        W 4386  26.407   7.853  10.681
31319W        W 4387   3.279  21.250   1.891
31320W        W 4388   3.530   0.268  13.164
31321W        W 4389  30.231  10.331  13.816
31322W        W 4390  44.247  31.805   4.419
31323W        W 4391  23.449  33.639  13.498
31324W        W 4392  42.711   2.693  11.025
31325W        W 4393  11.273  22.063   1.224
31326W        W 4394  21.046  38.951   2.761
31327W        W 4395   6.210  14.528  14.791
31328W        W 4396  14.044  28.075  11.445
31329W        W 4397  22.595  35.550   9.749
31330W        W 4398  18.165  39.389  14.700
31331W        W 4399  34.451  11.608  14.263
31332W        W 4400   3.635  43.544  11.014
31333W        W 4401  11.650  35.480  10.646
31334W        W 4402  13.188  37.142  12.962
31335W        W 4403  43.475  21.286   2.360
31336W        W 4404  37.087  21.123  14.466
31337W        W 4405   3.375  10.135   2.856
31338W        W 4406  36.011  37.290   4.135
31339W        W 4407  20.966   3.453  14.059
31340W        W 4408  44.956  43.102   1.176
31341W        W 4409   6.964  42.532  11.028
31342W        W 4410  35.244  10.833  11.723
31343W        W 4411  16.178   9.877   4.350
31344W        W 4412  34.295  15.882  13.015
31345W        W 4413  31.049  28.472  12.977
31346W        W 4414  27.544   2.863  11.192
31347W        W 4415  27.434  22.972   1.932
31348W        W 4416  44.863   3.511  11.267
31349W        W 4417  12.661  34.863   1.694
31350W        W 4418   1.676  35.383  10.858
31351W        W 4419   7.178   7.950  10.781
31352W        W 4420  26.950  28.027  11.035
31353W        W 4421  21.578   9.404   1.760
31354W        W 4422   4.846   9.050   0.332
31355W        W 4423  25.566  31.389  11.193
31356W        W 4424  14.258  35.814  12.519
31357W        W 4425  19.548  38.097  14.442
31358W        W 4426  34.006   7.270   4.209
31359W        W 4427   9.222  21.108  10.546
31360W        W 4428   5.352   5.485  14.987
31361W        W 4429   2.682  18.173  13.084
31362W        W 4430   7.093   9.557   3.658
31363W        W 4431  40.898  17.781  11.401
31364W        W 4432  29.144  43.857  13.086
31365W        W 4433  15.695  29.954   0.962
31366W        W 4434  44.582  19.179  10.751
31367W        W 4435   1.489  37.048   1.844
31368W        W 4436  42.360  24.504   0.926
31369W        W 4437  22.643  21.610  14.619
31370W        W 4438  38.777  23.229   4.533
31371W        W 4439  23.110  18.165   2.211
31372W        W 4440  19.013  17.661  14.706
31373W        W 4441  38.409  22.248  14.829
31374W        W 4442  44.470  10.224   2.222
31375W        W 4443  33.077   4.864   2.777
31376W        W 4444  13.559  20.582  14.376
31377W        W 4445   6.728  17.346  14.318
31378W        W 4446  40.023  34.380  10.497
31379W        W 4447   8.581   2.442  12.189
31380W        W 4448  35.501  25.638   4.304
31381W        W 4449  14.346  24.256  13.467
31382W        W 4450  22.173  38.176  13.472
31383W        W 4451  31.015  36.103  14.914
31384W        W 4452  31.252  28.420  10.632
31385W        W 4453  29.374  13.659  13.533
31386W        W 4454  28.544  20.612  14.698
31387W        W 4455   7.776  15.839  10.812
31388W        W 4456  25.761  18.188   3.051
31389W        W 4457  18.508  13.243   4.228
31390W        W 4458   4.279  19.576  10.713
31391W        W 4459  13.656   2.504  14.377
31392W        W 4460  37.375  18.538  11.620
31393W        W 4461  37.050  10.201   4.838
31394W        W 4462  41.966  37.195   4.664
31395W        W 4463  10.655  34.896   3.253
31396W        W 4464  19.766  11.392  14.364
31397W        W 4465  42.794  18.004  12.486
31398W        W 4466  29.519  23.719   0.379
31399W        W 4467  32.943  32.401   2.380
31400W        W 4468  35.355   2.987  12.910
31401W        W 4469   8.110  29.640   2.442
31402W        W 4470  14.610  29.003   1.740
31403W        W 4471  15.139   5.363  13.806
31404W        W 4472   3.359  44.665   1.148
31405W        W 4473  38.532  20.392  14.284
31406W        W 4474  29.057  20.129  11.882
31407W        W 4475  15.243   0.810  12.464
31408W        W 4476  39.049  19.992   1.264
31409W        W 4477  38.471  22.020   0.765
31410W        W 4478  42.259   9.735   0.219
31411W        W 4479  20.051   0.867  13.974
31412W        W 4480  20.548  19.656   1.777
31413W        W 4481  14.225  19.926  10.701
31414W        W 4482   2.108  36.085   0.828
31415W        W 4483  43.788   8.062   2.728
31416W        W 4484  30.168   4.743   4.016
31417W        W 4485  26.533  31.715   5.216
31418W        W 4486  11.185   5.858   3.223
31419W        W 4487  34.812  26.056  10.876
31420W        W 4488  25.198  23.332  12.457
31421W        W 4489  32.642  18.924  10.293
31422W        W 4490  15.099   7.942   2.620
31423W        W 4491   3.587  12.351  11.416
31424W        W 4492  35.466   1.492  14.519
31425W        W 4493  25.037   0.940  12.428
31426W        W 4494  40.124  38.085  11.043
31427W        W 4495  32.823  41.360  14.016
31428W        W 4496   2.874  32.502   2.124
31429W        W 4497  19.201   1.785  13.603
31430W        W 4498  24.231  30.111  14.668
31431W        W 4499  33.425  18.976   0.080
31432W        W 4500   9.745  41.579   0.479
31433W        W 4501  38.157  32.731   5.471
31434W        W 4502  30.602  36.802  11.805
31435W        W 4503  42.869  27.990   1.789
31436W        W 4504  19.794  40.839   0.018
31437W        W 4505  22.608  23.993   4.135
31438W        W 4506   6.308   3.765   1.924
31439W        W 4507   3.032  17.346  11.930
31440W        W 4508  14.101  15.804   1.957
31441W        W 4509  43.356  14.816  11.502
31442W        W 4510  23.248  32.570   0.790
31443W        W 4511  30.425  22.282   1.770
31444W        W 4512  35.107  40.231   0.347
31445W        W 4513  33.082  33.258  11.910
31446W        W 4514  30.032  28.000  11.224
31447W        W 4515  31.872   9.697  10.659
31448W        W 4516  10.655  34.367   3.325
31449W        W 4517  12.806  24.295   4.099
31450W        W 4518  18.154   7.763   0.546
31451W        W 4519   8.937  33.035   0.670
31452W        W 4520  21.481  42.647  13.537
31453W        W 4521   0.366  23.468  10.722
31454W        W 4522  27.939  43.094  13.541
31455W        W 4523  30.636  22.041  11.316
31456W        W 4524   9.775   5.996  14.484
31457W        W 4525  39.591  33.155   1.243
31458W        W 4526  13.521  36.606  12.095
31459W        W 4527   4.191  36.069  11.890
31460W        W 4528  14.353  35.012  10.067
31461W        W 4529   0.161   6.382   4.026
31462W        W 4530   7.773  30.962  14.451
31463W        W 4531  30.223   9.275  12.952
31464W        W 4532  19.075  44.884   2.841
31465W        W 4533   5.145   2.270   1.231
31466W        W 4534  42.918  11.232  11.418
31467W        W 4535   7.390  39.917   0.445
31468W        W 4536  38.310   2.046   0.522
31469W        W 4537   2.675   1.340  11.005
31470W        W 4538   8.160   4.593  10.926
31471W        W 4539  39.993  38.556   3.131
31472W        W 4540  37.861  23.086  11.640
31473W        W 4541  43.281  41.782   4.776
31474W        W 4542  44.980  27.137   2.279
31475W        W 4543  44.986  23.357   2.678
31476W        W 4544  13.939  42.745   4.750
31477W        W 4545  29.274  32.090  12.098
31478W        W 4546   5.605   8.898  11.312
31479W        W 4547  17.885   8.047  12.110
31480W        W 4548  44.519  13.796  12.500
31481W        W 4549  21.748  27.174  12.125
31482W        W 4550  28.059  32.679   0.918
31483W        W 4551   4.221  12.423  13.927
31484W        W 4552  24.437  38.339  11.855
31485W        W 4553   8.706   5.936   1.253
31486W        W 4554  27.698   7.143   1.296
31487W        W 4555  38.893  32.858   0.207
31488W        W 4556  38.373  11.756   4.486
31489W        W 4557  39.454  44.366  11.154
31490W        W 4558   0.730  15.881   2.483
31491W        W 4559   3.196   7.323  10.707
31492W        W 4560  44.889  22.238  12.904
31493W        W 4561  38.655  34.331   4.605
31494W        W 4562  10.120   8.298  10.727
31495W        W 4563  37.357  12.384   4.634
31496W        W 4564   9.282   4.314   2.920
31497W        W 4565  20.146  33.972   2.786
31498W        W 4566  11.605  19.730   0.428
31499W        W 4567  29.667  19.998  14.885
31500W        W 4568  30.488  25.046  13.587
31501W        W 4569  25.749   9.274   0.392
31502W        W 4570   4.190   4.783  13.767
31503W        W 4571  21.704  25.760  10.756
31504W        W 4572  38.413  39.304   2.652
31505W        W 4573  16.406  28.958   0.372
31506W        W 4574  13.650  25.536   4.859
31507W        W 4575  25.436  16.611  14.427
31508W        W 4576  14.079  41.274  12.134
31509W        W 4577  33.949  12.654  14.262
31510W        W 4578  29.895  27.151   2.726
31511W        W 4579  12.086  14.676  11.975
31512W        W 4580  33.663  20.219  10.849
31513W        W 4581  38.058   6.831  11.349
31514W        W 4582  11.062  36.314   2.578
31515W        W 4583  20.546  10.722   4.363
31516W        W 4584  11.589  33.135   1.174
31517W        W 4585  16.204   7.290   3.242
31518W        W 4586  38.493   0.658  10.574
31519W        W 4587  14.490   1.067  11.993
31520W        W 4588   3.667   2.062   3.721
31521W        W 4589  12.537  35.921   4.361
31522W        W 4590  34.830  39.131  11.021
31523W        W 4591  11.108  30.470   0.908
31524W        W 4592  11.173  13.078  13.983
31525W        W 4593  43.687  33.116   0.002
31526W        W 4594  37.677  43.023  14.794
31527W        W 4595   1.507  19.330  13.505
31528W        W 4596  27.465  13.634   4.150
31529W        W 4597   6.746   1.221   0.730
31530W        W 4598  23.535  10.862   1.652
31531W        W 4599  42.762  26.010   3.202
31532W        W 4600  32.107  36.498   4.540
31533W        W 4601  11.597   4.180  11.884
31534W        W 4602  32.697  35.824  12.044
31535W        W 4603  42.786  29.612  14.952
31536W        W 4604  35.910  14.738   0.669
31537W        W 4605   7.097  23.686   0.796
31538W        W 4606  44.788  37.987   1.492
31539W        W 4607  10.371  39.785  13.059
31540W        W 4608  34.822   9.108  11.107
31541W        W 4609  32.582   1.485   4.196
31542W        W 4610  35.793  13.613  11.878
31543W        W 4611  17.171   6.175   2.802
31544W        W 4612  22.678  24.964   3.143
31545W        W 4613  38.644  24.709   3.017
31546W        W 4614  40.284  23.039  14.451
31547W        W 4615  15.718  23.457   1.202
31548W        W 4616  40.119   7.889   2.870
31549W        W 4617   8.391   6.316   0.408
31550W        W 4618  14.718  23.406   1.218
31551W        W 4619   9.315  41.598   0.784
31552W        W 4620  28.544  44.955  10.877
31553W        W 4621   6.864  21.112   0.564
31554W        W 4622   3.247  17.849  12.392
31555W        W 4623   8.760  20.047   0.029
31556W        W 4624  36.030  35.957  13.378
31557W        W 4625  18.286  18.209   3.946
31558W        W 4626  17.183   3.760  10.432
31559W        W 4627   1.361  28.471  10.746
31560W        W 4628   2.976  13.383   2.754
31561W        W 4629  16.691  33.048   4.609
31562W        W 4630   1.312  21.508  11.890
31563W        W 4631  13.818  21.987  11.295
31564W        W 4632  40.598  43.486  13.443
31565W        W 4633  25.242  42.718   3.305
31566W        W 4634  21.146  35.398  11.706
31567W        W 4635  37.527  30.050  10.722
31568W        W 4636  35.545  12.670  11.596
31569W        W 4637  13.838   4.778   3.646
31570W        W 4638  37.976   4.121  12.017
31571W        W 4639  23.252  19.672  14.877
31572W        W 4640  22.481  38.297  14.329
31573W        W 4641  29.466   9.258  12.616
31574W        W 4642  31.346  22.501   2.417
31575W        W 4643  34.906   5.926   4.615
31576W        W 4644  30.468  32.501   2.895
31577W        W 4645  10.607  26.142  14.366
31578W        W 4646   9.792  37.877   0.692
31579W        W 4647   9.795  10.404  12.814
31580W        W 4648  42.829  13.729   4.762
31581W        W 4649  22.992   8.244   2.757
31582W        W 4650  34.501   7.134  12.900
31583W        W 4651  13.373   9.835  12.939
31584W        W 4652   7.276  33.110  14.526
31585W        W 4653  11.815  37.812  11.649
31586W        W 4654  33.597   5.374   2.283
31587W        W 4655  33.431   2.042  13.986
31588W        W 4656   6.738  26.569   1.317
31589W        W 4657   4.846  18.263  13.824
31590W        W 4658  42.036  31.924  13.047
31591W        W 4659   2.220  14.859  11.561
31592W        W 4660   7.746  32.105  12.070
31593W        W 4661  13.923  12.287   4.521
31594W        W 4662  14.533  30.267  12.441
31595W        W 4663  20.461  29.127   0.984
31596W        W 4664  40.987  21.250  12.010
31597W        W 4665  16.162  36.571   0.208
31598W        W 4666   1.214  12.078   3.411
31599W        W 4667  10.161   6.842   3.896
31600W        W 4668   6.814  31.833   1.405
31601W        W 4669   5.702  25.605  14.866
31602W        W 4670   4.129  35.211  11.974
31603W        W 4671   2.779  36.143  12.625
31604W        W 4672  37.048   0.034   4.257
31605W        W 4673  17.755  23.421   0.375
31606W        W 4674  14.574   2.901  11.165
31607W        W 4675  10.597   5.786   1.456
31608W        W 4676  30.020  10.582  14.848
31609W        W 4677  36.981  25.955   0.050
31610W        W 4678  37.373   7.253   4.459
31611W        W 4679  16.765  28.268   1.836
31612W        W 4680  31.828  28.411  12.340
31613W        W 4681  39.885   8.443   3.172
31614W        W 4682  33.618  27.500   2.795
31615W        W 4683  24.658  17.458   3.656
31616W        W 4684  29.132  32.385  10.616
31617W        W 4685  26.842   6.668   3.028
31618W        W 4686  16.263  20.712   3.648
31619W        W 4687  23.535  11.594  13.858
31620W        W 4688  12.086  34.574   3.285
31621W        W 4689   3.394   5.869   4.057
31622W        W 4690   5.492  33.067  14.159
31623W        W 4691  38.871  17.265   1.915
31624W        W 4692  38.920  24.213  10.799
31625W        W 4693   2.685   7.939  13.724
31626W        W 4694  12.995  41.958   3.366
31627W        W 4695  44.302   3.064   3.935
31628W        W 4696  20.498  26.262   4.201
31629W        W 4697  34.835   9.334  14.820
31630W        W 4698  33.334   8.256   1.382
31631W        W 4699   1.639  42.731  12.836
31632W        W 4700  31.922  11.177   4.221
31633W        W 4701  42.908  23.532   1.016
31634W        W 4702  17.695  22.148  11.557
31635W        W 4703   1.450  24.670   0.364
31636W        W 4704   9.240  38.038  12.374
31637W        W 4705  29.235  39.489   1.271
31638W        W 4706  15.182   9.238  10.571
31639W        W 4707   0.333  22.000  12.879
31640W        W 4708  20.274  16.849   0.354
31641W        W 4709  37.316  39.710   3.233
31642W        W 4710  39.337  21.451  12.893
31643W        W 4711  32.919  32.927  14.859
31644W        W 4712  44.746  19.780  11.463
31645W        W 4713  32.534  40.859  10.839
31646W        W 4714  23.044  44.598  13.963
31647W        W 4715  34.071  39.033   3.247
31648W        W 4716   6.139  27.980  12.254
31649W        W 4717  17.826   6.513   0.276
31650W        W 4718   1.435  32.948  11.931
31651W        W 4719  33.208  40.074  12.268
31652W        W 4720  25.179  23.918  13.050
31653W        W 4721  18.568  16.263  12.320
31654W        W 4722  43.678  13.197   3.662
31655W        W 4723  42.919   6.485  11.167
31656W        W 4724  24.771   4.843  14.009
31657W        W 4725  13.316  23.482  10.138
31658W        W 4726  11.949  34.878  11.438
31659W        W 4727   5.196  32.001   5.007
31660W        W 4728  39.441  18.682   2.768
31661W        W 4729  19.346  42.476   3.202
31662W        W 4730  11.711  40.589  11.038
31663W        W 4731   4.515   2.817  13.749
31664W        W 4732  33.526   2.421   4.141
31665W        W 4733  12.731  32.361   0.269
31666W        W 4734  22.231  23.704  12.857
31667W        W 4735  15.393  22.516   2.816
31668W        W 4736  39.031  30.501   2.274
31669W        W 4737   9.052  29.521   2.678
31670W        W 4738  19.134   0.268  11.954
31671W        W 4739  33.708  27.703   1.298
31672W        W 4740  40.869   6.764  14.186
31673W        W 4741   4.670  36.582   4.648
31674W        W 4742   1.883  37.012   3.489
31675W        W 4743  36.856  16.115  13.851
31676W        W 4744  44.733   4.905   1.255
31677W        W 4745   0.535   3.044   4.147
31678W        W 4746  10.935  13.607  13.086
31679W        W 4747  29.086  19.646  11.576
31680W        W 4748  37.008  12.587   2.852
31681W        W 4749  37.660  32.818  14.012
31682W        W 4750  36.902  29.350  13.357
31683W        W 4751  23.547  18.143  13.895
31684W        W 4752  42.243  35.939  11.549
31685W        W 4753  41.915   3.300  13.667
31686W        W 4754  33.713  18.659  11.955
31687W        W 4755  31.230   4.032  14.518
31688W        W 4756  27.138   3.578   2.924
31689W        W 4757  32.429  37.813  13.856
31690W        W 4758  41.008  13.205   0.909
31691W        W 4759  16.588  44.645   4.579
31692W        W 4760  25.554  11.112   2.436
31693W        W 4761   9.908  38.308  11.109
31694W        W 4762  41.972  15.712  14.079
31695W        W 4763  12.663  31.295  11.101
31696W        W 4764  41.998  27.816  11.253
31697W        W 4765   3.555  15.594   1.255
31698W        W 4766  37.657  22.495   0.751
31699W        W 4767  25.674  17.617  13.339
31700W        W 4768  24.659   7.880  12.428
31701W        W 4769  25.408  29.721   1.753
31702W        W 4770  43.434  27.125  12.900
31703W        W 4771  21.049  24.431   1.358
31704W        W 4772  12.812  16.620  10.734
31705W        W 4773  37.009  10.086   3.933
31706W        W 4774  15.595  36.386  12.995
31707W        W 4775  34.905  35.377  10.944
31708W        W 4776  41.081  26.927  11.559
31709W        W 4777  36.788  44.035   0.723
31710W        W 4778  28.110  26.983   1.376
31711W        W 4779  15.228  15.369   4.925
31712W        W 4780  41.831  32.460  12.911
31713W        W 4781  19.743  12.177   2.531
31714W        W 4782  24.134  38.855  11.892
31715W        W 4783   8.431  40.949  14.231
31716W        W 4784   8.726  42.545  10.495
31717W        W 4785  22.619  16.486  14.286
31718W        W 4786   6.412  34.776  11.069
31719W        W 4787  15.546  11.203  14.618
31720W        W 4788  24.082  16.795   0.449
31721W        W 4789  39.042  17.079   4.218
31722W        W 4790  18.669  25.509   3.917
31723W        W 4791   7.873  15.451   1.630
31724W        W 4792  13.790  28.545  10.758
31725W        W 4793  25.593  41.818  11.828
31726W        W 4794  32.121  23.085  12.919
31727W        W 4795  29.422  40.442  14.950
31728W        W 4796  10.742  41.879  11.386
31729W        W 4797  23.164   8.683   4.666
31730W        W 4798  41.482  42.433   4.462
31731W        W 4799  21.239  42.307   0.711
31732W        W 4800  41.298  35.105  14.923
31733W        W 4801  13.401  20.279   1.432
31734W        W 4802  10.069   8.196   2.673
31735W        W 4803  39.804  12.618   0.992
31736W        W 4804  11.263  24.460  10.585
31737W        W 4805  17.187  23.203   4.855
31738W        W 4806  30.957  42.746   3.096
31739W        W 4807  30.141  30.723   2.369
31740W        W 4808  36.429  17.711   0.698
31741W        W 4809  39.503  23.050   1.466
31742W        W 4810  31.947  44.190  10.646
31743W        W 4811  44.518   0.192  13.995
31744W        W 4812  30.621  16.288   2.611
31745W        W 4813  23.673  23.976  14.048
31746W        W 4814  11.136  14.486  13.720
31747W        W 4815  32.064  38.100   3.632
31748W        W 4816  37.614  20.691  10.605
31749W        W 4817  13.906  21.510  14.118
31750W        W 4818  23.904  20.786  12.427
31751W        W 4819  15.617  32.673  13.540
31752W        W 4820  42.833  31.322   2.067
31753W        W 4821  22.413  32.597  12.663
31754W        W 4822  35.766  19.553  14.877
31755W        W 4823  14.105   3.313  12.926
31756W        W 4824  39.365   9.728   2.363
31757W        W 4825  38.581  37.410   1.494
31758W        W 4826  38.683  15.603   0.013
31759W        W 4827  24.653   2.865  13.875
31760W        W 4828  18.859   9.625  12.930
31761W        W 4829   8.986  32.505   2.774
31762W        W 4830  23.451  39.076   0.969
31763W        W 4831  14.311  23.227  11.497
31764W        W 4832  32.122  32.120   0.431
31765W        W 4833  31.183  10.168  13.093
31766W        W 4834  34.526  41.923   3.353
31767W        W 4835  25.612   4.336  10.634
31768W        W 4836  42.006   5.792  13.747
31769W        W 4837  33.031  14.819   2.277
31770W        W 4838  34.954   5.891  14.004
31771W        W 4839  26.432   4.918  10.783
31772W        W 4840  36.535  27.969   2.819
31773W        W 4841  19.305  44.765  10.872
31774W        W 4842  20.285  15.514  10.318
31775W        W 4843  31.040  22.528  11.640
31776W        W 4844  24.227  13.806   1.720
31777W        W 4845  42.965  21.616   4.606
31778W        W 4846   1.456  39.928   2.210
31779W        W 4847  36.194  14.820   2.635
31780W        W 4848  44.237   7.688   2.441
31781W        W 4849   2.233  23.005   0.303
31782W        W 4850  14.647  29.512  11.591
31783W        W 4851  15.496   5.841   3.159
31784W        W 4852  31.221   7.211   3.819
31785W        W 4853  29.943  28.336   4.834
31786W        W 4854  40.819  17.760  13.356
31787W        W 4855  12.253  27.869   1.264
31788W        W 4856  20.210  12.621   2.737
31789W        W 4857  43.051  24.661  13.423
31790W        W 4858  30.519  24.870   0.359
31791W        W 4859  39.460  20.196  10.625
31792W        W 4860  44.935  12.873  12.382
31793W        W 4861   2.008   8.214  14.262
31794W        W 4862  19.745   4.790  10.886
31795W        W 4863  34.201  11.238   3.681
31796W        W 4864  25.548   4.770   0.377
31797W        W 4865  27.897  19.491  14.989
31798W        W 4866  35.153  32.644  11.179
31799W        W 4867  30.634  40.791   2.632
31800W        W 4868  22.939   4.348  14.027
31801W        W 4869  29.755   6.000   1.002
31802W        W 4870   3.365  19.655  13.400
31803W        W 4871  17.697  43.348   4.188
31804W        W 4872  38.400  36.364  10.593
31805W        W 4873   3.400   0.852  12.017
31806W        W 4874   7.307  17.814  11.223
31807W        W 4875   7.353  19.085  13.055
31808W        W 4876  36.082  39.610   0.976
31809W        W 4877  23.517  25.708  11.358
31810W        W 4878   9.200  23.961  13.910
31811W        W 4879   3.958   3.672   1.920
31812W        W 4880  33.084   6.395  13.511
31813W        W 4881  12.792  29.017  13.837
31814W        W 4882  44.624  44.806  12.768
31815W        W 4883  20.232  23.561   1.206
31816W        W 4884  32.497   8.965   2.855
31817W        W 4885  41.676  38.193   0.251
31818W        W 4886   5.720   9.200  11.763
31819W        W 4887  21.042  19.545   3.451
31820W        W 4888  33.639  11.074   3.636
31821W        W 4889  27.026  35.537  10.541
31822W        W 4890  12.527   9.168   1.834
31823W        W 4891  31.127   8.699  10.691
31824W        W 4892   0.974  13.626   0.909
31825W        W 4893   9.418  22.274   3.568
31826W        W 4894  41.321  11.715   1.338
31827W        W 4895   3.056  43.065  13.961
31828W        W 4896  21.679  39.104  13.599
31829W        W 4897  20.700   1.430   0.018
31830W        W 4898  34.072  17.878  12.371
31831W        W 4899  19.086   2.140   4.060
31832W        W 4900   2.857  26.951   0.885
31833W        W 4901  39.506  41.913  12.452
31834W        W 4902  15.171   8.309   3.376
31835W        W 4903  18.635  32.499   1.187
31836W        W 4904  17.546  32.113   4.541
31837W        W 4905  33.138   1.728   4.059
31838W        W 4906  25.681  35.882   4.959
31839W        W 4907  24.569   6.493  10.718
31840W        W 4908  12.434  41.808   2.371
31841W        W 4909  37.612  28.142   3.622
31842W        W 4910  40.942  29.634  12.612
31843W        W 4911  26.175  23.631  12.613
31844W        W 4912  34.890   1.297   4.194
31845W        W 4913  32.073   5.669   0.930
31846W        W 4914  26.228  20.728  12.091
31847W        W 4915  24.271  31.086   1.627
31848W        W 4916  42.817  26.853   4.468
31849W        W 4917   6.239  24.691  13.368
31850W        W 4918  30.794  16.353   4.762
31851W        W 4919  35.057   1.797  14.377
31852W        W 4920  21.141  18.650   3.106
31853W        W 4921   5.269  39.692   1.722
31854W        W 4922  34.494  42.433   4.893
31855W        W 4923  37.616  20.283  13.338
31856W        W 4924   2.830   0.969  13.879
31857W        W 4925  41.715   0.356  11.665
31858W        W 4926  38.052  20.675  10.892
31859W        W 4927  10.659  41.535   3.805
31860W        W 4928  38.405  22.834  12.212
31861W        W 4929  15.018  21.114   4.115
31862W        W 4930  31.503  16.609   0.855
31863W        W 4931   1.519  26.938  13.940
31864W        W 4932  34.366  18.182   2.925
31865W        W 4933   7.114  16.162  11.873
31866W        W 4934  20.241  21.660  11.872
31867W        W 4935  13.526   0.297  13.849
31868W        W 4936   7.290  28.025   0.418
31869W        W 4937  18.343  14.037   0.281
31870W        W 4938  40.828  24.554  10.869
31871W        W 4939  30.455  10.215  11.152
31872W        W 4940  40.867  25.035  11.589
31873W        W 4941  20.043  21.669   0.687
31874W        W 4942   8.442   7.426   0.747
31875W        W 4943   2.141   7.924   1.319
31876W        W 4944  42.004  24.799  11.297
31877W        W 4945  30.411  24.478   0.972
31878W        W 4946  14.687  14.277   1.266
31879W        W 4947   8.298  29.660   0.285
31880W        W 4948  36.909  29.335   2.304
31881W        W 4949  27.414  23.928   2.912
31882W        W 4950  21.455  21.306  14.440
31883W        W 4951  33.800  11.349  10.642
31884W        W 4952  21.241  32.093  11.655
31885W        W 4953  38.500  42.860   1.413
31886W        W 4954  44.422  19.574  11.068
31887W        W 4955  21.376   1.169   1.391
31888W        W 4956  25.051  39.791  11.505
31889W        W 4957  41.418  43.845   3.361
31890W        W 4958  32.001  25.461  13.903
31891W        W 4959  41.139  10.323  11.910
31892W        W 4960  22.193  25.708   1.912
31893W        W 4961  14.339  23.410   2.196
31894W        W 4962  35.485  16.052   5.013
31895W        W 4963  22.668   1.157   1.247
31896W        W 4964  44.314   7.207   1.248
31897W        W 4965  25.586  40.478  12.346
31898W        W 4966   9.256  29.986   2.530
31899W        W 4967  25.545  16.059   1.376
31900W        W 4968  27.134  23.017  13.832
31901W        W 4969  38.607  21.147  12.462
31902W        W 4970  16.514   1.777  13.954
31903W        W 4971  37.240  36.842   3.900
31904W        W 4972   8.238  43.190   1.803
31905W        W 4973  35.512  24.742   4.429
31906W        W 4974  27.000  39.882   3.149
31907W        W 4975  41.342  41.934   1.879
31908W        W 4976   2.178   3.373  11.418
31909W        W 4977  18.198  26.705   3.163
31910W        W 4978  41.307   0.193  10.725
31911W        W 4979  36.973  35.993   0.473
31912W        W 4980  43.067   5.182   4.628
31913W        W 4981  15.728  17.995  14.000
31914W        W 4982  13.588  42.928   2.141
31915W        W 4983   0.078   8.423   1.349
31916W        W 4984  24.218  13.411  11.080
31917W        W 4985  37.331   5.227   1.661
31918W        W 4986  35.911  23.997   1.877
31919W        W 4987   3.676  39.603   1.631
31920W        W 4988  28.080  12.669   4.116
31921W        W 4989  37.378  15.833  10.630
31922W        W 4990  42.444  15.919   1.379
31923W        W 4991   0.587  22.999   1.867
31924W        W 4992  21.220  42.067   2.390
31925W        W 4993   3.956   0.343  12.875
31926W        W 4994  11.135  30.679  13.865
31927W        W 4995  17.125   8.799   9.624
31928W        W 4996  35.179   3.790  14.740
31929W        W 4997   8.218  41.008  11.950
31930W        W 4998   9.842  12.453   3.397
31931W        W 4999   3.854  13.757  14.414
31932W        W 5000   5.154  26.111  12.469
31933W        W 5001  33.176  37.614   4.890
31934W        W 5002  23.752  37.778   4.158
31935W        W 5003   4.378  11.629  14.729
31936W        W 5004  32.384  17.675  14.295
31937W        W 5005  38.165  30.434   0.230
31938W        W 5006   0.958   7.234   3.588
31939W        W 5007   3.278  35.063   0.740
31940W        W 5008  36.996   3.463  12.595
31941W        W 5009  37.970  36.487  13.947
31942W        W 5010   2.994  30.766   3.567
31943W        W 5011   5.372  19.016   3.094
31944W        W 5012   1.868  11.134  13.012
31945W        W 5013   5.784  32.200  13.952
31946W        W 5014   4.156   8.388   0.640
31947W        W 5015  24.687  11.062   2.424
31948W        W 5016  25.458  14.050  14.452
31949W        W 5017  10.952  13.499   2.331
31950W        W 5018  38.525  38.382   4.643
31951W        W 5019  19.563   7.773   3.252
31952W        W 5020   3.275   4.624  10.649
31953W        W 5021  40.557   2.081   1.860
31954W        W 5022  11.876  31.066   0.805
31955W        W 5023   3.733  25.962  10.899
31956W        W 5024  33.932  21.843   4.362
31957W        W 5025  11.720   1.841  13.488
31958W        W 5026  44.323   2.368  14.882
31959W        W 5027  10.226  28.487   1.296
31960W        W 5028  37.981  27.176   4.092
31961W        W 5029  22.422  40.086  13.540
31962W        W 5030  32.970  18.320   0.450
31963W        W 5031   3.781  37.608   0.791
31964W        W 5032  12.848  37.664   4.720
31965W        W 5033  31.625   7.271  13.439
31966W        W 5034  17.795  13.399   0.697
31967W        W 5035   1.759   7.204   3.225
31968W        W 5036  41.589   8.337   1.366
31969W        W 5037  11.217  33.332   4.683
31970W        W 5038   7.428  31.631  14.308
31971W        W 5039  16.636  31.709  14.397
31972W        W 5040  20.120  27.217   4.606
31973W        W 5041  15.844  35.929   3.900
31974W        W 5042   1.398   9.105  14.277
31975W        W 5043  20.745   3.321  10.518
31976W        W 5044  15.647  43.072  11.232
31977W        W 5045  39.976  32.873  13.758
31978W        W 5046  33.449  26.177   3.341
31979W        W 5047   2.304  21.994  11.323
31980W        W 5048  44.742  42.900   4.647
31981W        W 5049  35.034  39.113   1.332
31982W        W 5050  24.933  35.041  11.387
31983W        W 5051  20.697  18.141   3.681
31984W        W 5052   4.787  35.117  13.736
31985W        W 5053   7.205  11.556   1.952
31986W        W 5054  38.227  15.304   1.601
31987W        W 5055  28.025  24.056   0.440
31988W        W 5056  15.843   9.386  14.836
31989W        W 5057  32.959  42.557  13.408
31990W        W 5058  36.436  37.490  10.820
31991W        W 5059  34.334  15.066   2.581
31992W        W 5060  11.325  20.827  14.834
31993W        W 5061  16.596  11.080  11.487
31994W        W 5062  41.065  23.409  14.390
31995W        W 5063  23.710  16.826   4.853
31996W        W 5064   9.324  14.215   4.622
31997W        W 5065   1.126  40.900  10.666
31998W        W 5066  26.048  28.682  13.413
31999W        W 5067  39.977  35.292  11.546
32000W        W 5068  19.988  12.142  12.514
32001W        W 5069   6.130  33.461  11.624
32002W        W 5070   4.181  33.164   3.766
32003W        W 5071  27.126  30.307   2.882
32004W        W 5072  44.291  30.430   3.744
32005W        W 5073  17.550  29.610   2.726
32006W        W 5074   6.661  27.595   2.347
32007W        W 5075  27.894   3.014  12.662
32008W        W 5076   2.051  27.197   2.741
32009W        W 5077  11.784  40.194   3.582
32010W        W 5078  31.135   4.827   4.019
32011W        W 5079  12.382  24.660  11.648
32012W        W 5080   0.703   1.571  14.474
32013W        W 5081  23.135   2.192  11.979
32014W        W 5082  13.767  30.034  13.801
32015W        W 5083  38.386  44.813   2.670
32016W        W 5084  42.920  40.249  12.247
32017W        W 5085  13.502  34.316  12.390
32018W        W 5086  22.986  38.048   0.216
32019W        W 5087  30.050   9.086  13.435
32020W        W 5088  31.442  38.013  13.040
32021W        W 5089  25.017  22.057  11.733
32022W        W 5090  18.341  35.849   0.875
32023W        W 5091  43.244   6.563  12.497
32024W        W 5092  27.126  21.660  10.741
32025W        W 5093  29.905  43.450  12.074
32026W        W 5094  13.228  33.356   3.774
32027W        W 5095  33.869  10.330  12.216
32028W        W 5096  35.934  31.607   4.711
32029W        W 5097  22.887  22.884  11.265
32030W        W 5098  29.086  40.551  14.049
32031W        W 5099  10.722  26.407   2.045
32032W        W 5100  10.577  36.357   1.834
32033W        W 5101   3.338  18.306  14.866
32034W        W 5102  16.360  26.298  12.408
32035W        W 5103  29.495  10.776   0.907
32036W        W 5104  10.328  10.301  14.679
32037W        W 5105  41.787   0.549  13.456
32038W        W 5106   9.280   4.696   1.490
32039W        W 5107   3.311  23.628  11.467
32040W        W 5108  44.739   6.920  13.478
32041W        W 5109  22.276  21.146   1.235
32042W        W 5110  40.897  39.817  14.822
32043W        W 5111   5.653  21.539   4.818
32044W        W 5112  35.066   3.295  14.568
32045W        W 5113  43.889  11.814  14.782
32046W        W 5114  32.154  17.215   0.449
32047W        W 5115   8.671  35.728   3.033
32048W        W 5116  43.146  12.397  13.303
32049W        W 5117   5.152  17.206   1.862
32050W        W 5118  19.889  38.052   1.479
32051W        W 5119  35.368  13.052   0.307
32052W        W 5120   0.933  36.925  12.543
32053W        W 5121  32.210  29.378   3.108
32054W        W 5122  18.750  33.718   0.257
32055W        W 5123  13.401   7.148   0.287
32056W        W 5124  42.713  32.946  12.904
32057W        W 5125  30.685  18.484  13.299
32058W        W 5126  13.599  15.673  12.082
32059W        W 5127  39.324  32.579   3.858
32060W        W 5128  32.642   5.176   2.273
32061W        W 5129   3.889   9.566   1.248
32062W        W 5130  20.778  23.029   2.900
32063W        W 5131  16.721  29.497  11.504
32064W        W 5132  42.219  32.093   4.377
32065W        W 5133   3.468  21.757  12.607
32066W        W 5134  23.447  29.394   1.682
32067W        W 5135  42.871  24.273  12.916
32068W        W 5136  37.045  33.062   3.410
32069W        W 5137  13.424  24.721   2.791
32070W        W 5138  14.726  23.979  14.784
32071W        W 5139  37.299   9.247   2.675
32072W        W 5140  44.441  22.354  13.110
32073W        W 5141  43.370  23.602  10.745
32074W        W 5142  31.152  11.508  13.310
32075W        W 5143  43.436  42.436  14.200
32076W        W 5144  26.978  10.361  10.184
32077W        W 5145  11.116   3.749  13.378
32078W        W 5146  43.748  27.998   2.877
32079W        W 5147   8.868   1.857  14.731
32080W        W 5148   0.442  25.051  13.154
32081W        W 5149  29.705  32.361  13.479
32082W        W 5150  15.515  13.681  13.963
32083W        W 5151  19.761  43.774  14.711
32084W        W 5152  24.265  13.107  14.364
32085W        W 5153   9.874  13.845   3.190
32086W        W 5154  27.601   9.200   4.183
32087W        W 5155  28.074  12.424  11.119
32088W        W 5156  20.109  33.935   3.326
32089W        W 5157   6.363  13.232   1.157
32090W        W 5158   2.483  34.583   4.189
32091W        W 5159  30.958  42.286  10.740
32092W        W 5160  32.063   6.848   1.199
32093W        W 5161  14.095   8.254   4.550
32094W        W 5162  21.053  21.968   4.770
32095W        W 5163   7.238  15.442   2.362
32096W        W 5164  20.630  32.166  13.024
32097W        W 5165  23.433  13.634   0.705
32098W        W 5166  23.706  17.291  14.421
32099W        W 5167  34.365  32.151  12.136
32100W        W 5168   0.943  16.234  13.543
32101W        W 5169  12.224  28.848  11.137
32102W        W 5170  38.927  32.112   4.542
32103W        W 5171  39.303  35.854   2.756
32104W        W 5172   8.263   7.246  10.975
32105W        W 5173  40.501  33.190  11.773
32106W        W 5174  41.757   2.082  10.194
32107W        W 5175   8.789  38.008  12.095
32108W        W 5176  42.283  40.465   3.563
32109W        W 5177  34.245  13.463  11.082
32110W        W 5178  39.845  43.233   0.395
32111W        W 5179  16.332  17.970  14.334
32112W        W 5180  18.386   6.215  11.639
32113W        W 5181  33.829   5.167  12.972
32114W        W 5182  21.738  11.911  12.318
32115W        W 5183  28.406  41.310   1.279
32116W        W 5184  33.622  31.057  11.263
32117W        W 5185  10.618  31.671  14.253
32118W        W 5186  13.346  25.488   0.866
32119W        W 5187  10.319  37.050  10.983
32120W        W 5188   0.805  37.062  10.261
32121W        W 5189   1.009  36.275   3.679
32122W        W 5190  38.049  32.469   9.834
32123W        W 5191  31.648  12.105   0.287
32124W        W 5192   1.367  41.316   3.920
32125W        W 5193  28.145  14.333   2.327
32126W        W 5194   8.013  21.786  10.699
32127W        W 5195  24.728  26.177   1.184
32128W        W 5196  35.929  27.412   2.435
32129W        W 5197  39.757  30.128  12.797
32130W        W 5198   2.829  25.064  11.976
32131W        W 5199  17.666  36.083  14.906
32132W        W 5200  16.957  39.024   0.221
32133W        W 5201  18.382  17.143  14.987
32134W        W 5202  40.034  24.145  10.527
32135W        W 5203  33.904  36.388  10.612
32136W        W 5204   8.728  18.798  10.693
32137W        W 5205   9.449   9.313   3.774
32138W        W 5206  43.297  44.490  12.488
32139W        W 5207  20.337   9.907   2.268
32140W        W 5208  19.218  22.459   4.718
32141W        W 5209  10.938  30.022   2.621
32142W        W 5210   1.022  33.647  11.662
32143W        W 5211  44.677   9.691  10.232
32144W        W 5212  39.792   8.753   3.650
32145W        W 5213  30.931  43.713  13.739
32146W        W 5214  18.607  35.183   0.276
32147W        W 5215  21.523   2.713  11.462
32148W        W 5216  35.396  39.253   3.368
32149W        W 5217  41.887  42.106  14.544
32150W        W 5218  17.404   1.384   1.361
32151W        W 5219  22.532  15.269   3.748
32152W        W 5220  29.937   5.825   2.864
32153W        W 5221  38.376  22.097   2.174
32154W        W 5222  39.531  21.799   3.188
32155W        W 5223   3.420  11.148   4.590
32156W        W 5224  33.710  19.833  12.255
32157W        W 5225  11.290  17.104  10.672
32158W        W 5226   7.683  20.704   3.418
32159W        W 5227   1.994  29.074  12.011
32160W        W 5228  19.606  36.309   3.881
32161W        W 5229  31.014  20.321  14.797
32162W        W 5230  27.158  28.199  12.440
32163W        W 5231  28.184  41.460  14.426
32164W        W 5232  12.336  31.595  11.992
32165W        W 5233  37.261   0.329  10.917
32166W        W 5234  13.253   8.399  13.915
32167W        W 5235  35.850  35.078  14.309
32168W        W 5236  14.717  31.645  11.456
32169W        W 5237   9.821  10.830  13.515
32170W        W 5238  29.823  15.529   4.542
32171W        W 5239  19.997  15.624  11.974
32172W        W 5240  29.752  39.896   1.811
32173W        W 5241  34.813  10.694   2.777
32174W        W 5242  19.021   6.937  14.978
32175W        W 5243  37.705  28.723   3.691
32176W        W 5244  38.088  40.406  11.629
32177W        W 5245   0.320   3.289  14.846
32178W        W 5246  31.045   8.324  13.038
32179W        W 5247  13.804  32.833  14.887
32180W        W 5248   1.016  24.564   3.409
32181W        W 5249   0.248  26.069   1.339
32182W        W 5250  37.323  26.791  11.030
32183W        W 5251  24.216  11.097  12.011
32184W        W 5252  14.170  21.556   1.744
32185W        W 5253  24.949  13.865   0.491
32186W        W 5254  30.065  17.814   4.180
32187W        W 5255  34.090  34.575   3.066
32188W        W 5256  14.110  36.831   2.058
32189W        W 5257  19.729  39.502  11.079
32190W        W 5258  31.014  24.763   4.948
32191W        W 5259  35.092  19.117  11.099
32192W        W 5260  40.920  19.300  11.691
32193W        W 5261  24.918  39.986   9.875
32194W        W 5262  43.435  26.641  14.787
32195W        W 5263  42.097   9.703  14.380
32196W        W 5264  10.167  19.523   5.059
32197W        W 5265  35.015   3.251   4.656
32198W        W 5266   8.460  10.722  11.059
32199W        W 5267  25.035  25.022  11.447
32200W        W 5268  33.010  15.124   1.864
32201W        W 5269  17.313  32.639  12.898
32202W        W 5270  33.560   9.186  10.478
32203W        W 5271  11.234  10.198  13.492
32204W        W 5272  30.120  13.345  11.005
32205W        W 5273  37.855   0.852  12.355
32206W        W 5274  35.580  15.664   4.665
32207W        W 5275  36.426  40.849  10.748
32208W        W 5276  18.275  33.412   1.250
32209W        W 5277   6.674  20.684   1.869
32210W        W 5278  38.886   5.804   5.172
32211W        W 5279  13.325   6.161  12.429
32212W        W 5280  44.473  39.408  14.758
32213W        W 5281  12.385  10.482   4.681
32214W        W 5282   9.628  41.307  11.167
32215W        W 5283  35.383  30.965  10.495
32216W        W 5284  33.276  19.276  12.597
32217W        W 5285  11.908  37.326   2.333
32218W        W 5286   4.580  43.720   3.506
32219W        W 5287  29.355  15.599  11.963
32220W        W 5288   3.880   1.362   0.691
32221W        W 5289  39.673  39.639   4.543
32222W        W 5290  24.529  40.377   1.815
32223W        W 5291  39.354  32.024   0.323
32224W        W 5292  42.041   4.571  13.072
32225W        W 5293  15.376  40.341  11.628
32226W        W 5294  10.686  19.280   1.548
32227W        W 5295  17.106  20.187   0.994
32228W        W 5296  32.601  24.040  10.767
32229W        W 5297   6.720  25.045   4.712
32230W        W 5298  15.519  23.052   2.911
32231W        W 5299  17.169  42.282   2.448
32232W        W 5300  35.604   7.875   4.018
32233W        W 5301  24.995  12.320  11.114
32234W        W 5302   8.695  21.972  12.964
32235W        W 5303  44.484  33.760   4.986
32236W        W 5304  18.650   6.432   3.588
32237W        W 5305  36.360  12.498  12.651
32238W        W 5306   0.234  24.144   4.621
32239W        W 5307  38.575   2.864  14.932
32240W        W 5308  20.380   3.192   1.567
32241W        W 5309  39.991  33.730   4.448
32242W        W 5310  10.858  14.108   2.941
32243W        W 5311   0.689   9.794   1.773
32244W        W 5312  12.583   1.316   2.129
32245W        W 5313  32.546  37.834  13.324
32246W        W 5314  23.707   0.129   0.861
32247W        W 5315  27.589  27.591  11.469
32248W        W 5316  38.908   6.774   2.170
32249W        W 5317  21.907  33.586  13.328
32250W        W 5318  16.133  36.347   2.876
32251W        W 5319  40.790  27.840   0.304
32252W        W 5320   6.064   0.356   3.796
32253W        W 5321   6.118   7.229   1.197
32254W        W 5322  13.844  15.510   4.651
32255W        W 5323  11.377  31.861   2.675
32256W        W 5324   9.474  30.430  10.111
32257W        W 5325   0.499  15.859  14.116
32258W        W 5326  17.193  30.037   4.532
32259W        W 5327  12.223   7.740   3.748
32260W        W 5328  17.692  24.147  11.541
32261W        W 5329   4.343  29.538   2.165
32262W        W 5330  31.232  15.721   1.451
32263W        W 5331  36.857  39.855  10.443
32264W        W 5332  16.720  11.313   1.411
32265W        W 5333   9.270  37.262   2.735
32266W        W 5334  27.705  22.548   1.729
32267W        W 5335  21.281  18.662   5.095
32268W        W 5336  10.765  40.557  14.348
32269W        W 5337  34.389  26.101   4.209
32270W        W 5338  17.839   0.731  14.824
32271W        W 5339   8.322  25.746  13.046
32272W        W 5340  24.517  44.782  12.564
32273W        W 5341   1.764  14.831   3.194
32274W        W 5342  19.043  38.273   2.254
32275W        W 5343  32.518   3.359  10.169
32276W        W 5344  44.722  13.673  13.429
32277W        W 5345  10.741  40.417  11.064
32278W        W 5346  24.692   7.820   0.805
32279W        W 5347  21.748  19.626  14.358
32280W        W 5348  39.934  18.130   4.437
32281W        W 5349  17.677  34.371  13.233
32282W        W 5350  44.866  21.001   1.775
32283W        W 5351  30.167  15.328   3.642
32284W        W 5352  38.650  20.394   2.118
32285W        W 5353  29.188   5.203  12.067
32286W        W 5354  44.830  16.491  12.085
32287W        W 5355  13.700   7.365  14.124
32288W        W 5356   1.788  20.690  12.464
32289W        W 5357  13.113  33.535   0.584
32290W        W 5358   7.329  19.780   3.851
32291W        W 5359  17.090   5.662  10.695
32292W        W 5360  29.082  11.590   2.864
32293W        W 5361  34.115  38.783   1.439
32294W        W 5362  34.386  39.766   1.640
32295W        W 5363   4.976  12.064   0.490
32296W        W 5364  14.108  22.577  14.040
32297W        W 5365  15.650   9.939  14.981
32298W        W 5366   6.505  42.064   2.371
32299W        W 5367  12.701  24.547   4.565
32300W        W 5368  36.909  22.543  12.481
32301W        W 5369  20.955  14.779   1.932
32302W        W 5370  24.682  40.876   0.880
32303W        W 5371  27.577  33.417   0.634
32304W        W 5372  24.508  36.593  12.175
32305W        W 5373  13.141  41.012  13.069
32306W        W 5374  41.057  10.773  11.018
32307W        W 5375  38.749  33.551  11.618
32308W        W 5376  38.099  27.590   3.179
32309W        W 5377   8.441  36.549  13.867
32310W        W 5378   3.275  42.991   2.305
32311W        W 5379  41.006  44.032   4.669
32312W        W 5380  20.596   1.653   3.217
32313W        W 5381   7.451  21.592   1.465
32314W        W 5382  17.620  28.922  14.456
32315W        W 5383  22.556   2.837   4.445
32316W        W 5384   5.685  28.139   4.618
32317W        W 5385  18.748   4.792  13.333
32318W        W 5386  37.070  13.838  14.004
32319W        W 5387   5.834  43.247   3.172
32320W        W 5388  32.002   9.642  13.388
32321W        W 5389   0.254  16.774  13.586
32322W        W 5390  17.725  27.595  14.922
32323W        W 5391  37.751   9.450  13.966
32324W        W 5392  34.033  37.533   0.917
32325W        W 5393  41.494  36.760  12.103
32326W        W 5394  43.002  14.578  11.795
32327W        W 5395  18.161  37.947   4.314
32328W        W 5396  18.293  31.080  13.943
32329W        W 5397  41.782  29.957  11.176
32330W        W 5398  19.549  22.802   3.220
32331W        W 5399   3.117  41.905  11.669
32332W        W 5400  21.123  20.984  11.536
32333W        W 5401  22.321   0.277   1.394
32334W        W 5402  37.471  12.866   3.375
32335W        W 5403  26.464  35.172  11.669
32336W        W 5404  37.691  40.906   1.669
32337W        W 5405  13.809  37.105   4.755
32338W        W 5406  15.052  20.645  11.100
32339W        W 5407  28.556  22.205  14.276
32340W        W 5408  33.362  17.935  10.999
32341W        W 5409  24.401  11.744  11.416
32342W        W 5410  17.058  18.788   4.921
32343W        W 5411  38.452  43.445   0.226
32344W        W 5412  34.850   1.646   4.822
32345W        W 5413  31.736  25.977   1.460
32346W        W 5414  18.899  41.025   2.904
32347W        W 5415  40.810  41.986  11.150
32348W        W 5416  39.477  18.998  11.999
32349W        W 5417  12.899  34.488  13.881
32350W        W 5418   1.327  34.138   2.348
32351W        W 5419  24.167  44.504   1.373
32352W        W 5420  14.781  20.627  12.154
32353W        W 5421  41.090   1.170   4.710
32354W        W 5422  29.974   3.805   2.141
32355W        W 5423  14.243  25.696   2.959
32356W        W 5424  19.198   5.143  12.452
32357W        W 5425  31.840  12.367  12.067
32358W        W 5426  38.925  41.822   3.213
32359W        W 5427   7.129  29.633   2.122
32360W        W 5428  28.426  39.230  11.955
32361W        W 5429  42.344   3.250  11.983
32362W        W 5430  22.066  33.083   1.341
32363W        W 5431  11.818  34.662  10.977
32364W        W 5432  17.482   3.860  11.185
32365W        W 5433  25.507   3.315   0.544
32366W        W 5434  28.918  43.741   2.432
32367W        W 5435  13.237  22.606  14.580
32368W        W 5436   1.329   8.214   0.955
32369W        W 5437  34.484   6.252   4.192
32370W        W 5438   4.221  17.388   4.558
32371W        W 5439   7.598  39.055  14.986
32372W        W 5440  21.956  21.034  13.292
32373W        W 5441  35.329   4.197   1.753
32374W        W 5442  19.285  15.350   3.415
32375W        W 5443  24.522  21.460   1.326
32376W        W 5444  42.013  13.188  10.285
32377W        W 5445  39.344   8.131   3.995
32378W        W 5446   6.848  44.847   0.515
32379W        W 5447  25.496  40.645   3.698
32380W        W 5448  10.572  30.533  10.674
32381W        W 5449   3.246  18.402   0.593
32382W        W 5450   2.825  30.315  14.930
32383W        W 5451   9.947   2.977   1.750
32384W        W 5452  16.455  22.052   4.558
32385W        W 5453   5.393  15.839   1.377
32386W        W 5454  33.465  39.507   2.257
32387W        W 5455  21.514   9.271   3.820
32388W        W 5456  20.302  22.264   1.871
32389W        W 5457  18.248   0.512   4.647
32390W        W 5458  38.548  33.193   1.045
32391W        W 5459   3.661   8.202   0.360
32392W        W 5460  16.313   1.355  10.688
32393W        W 5461  29.396   4.320  11.731
32394W        W 5462  29.950  34.047  14.742
32395W        W 5463  23.197  37.047  14.307
32396W        W 5464  37.482  21.025   0.475
32397W        W 5465  35.075  15.550  13.372
32398W        W 5466  36.581  32.393   2.195
32399W        W 5467   5.338  21.661  11.529
32400W        W 5468  20.405  42.304  13.587
32401W        W 5469  36.718  18.598   1.806
32402W        W 5470   8.800   4.624   1.704
32403W        W 5471   6.861  29.513   3.433
32404W        W 5472  27.253  35.074   4.767
32405W        W 5473  14.171   2.265  11.669
32406W        W 5474  27.291   2.579   1.412
32407W        W 5475  24.081  28.201   2.187
32408W        W 5476   3.736  30.700   2.679
32409W        W 5477   2.829  16.612  13.421
32410W        W 5478  18.989   4.709   4.160
32411W        W 5479  21.461   8.957   2.988
32412W        W 5480  11.415  38.440  13.506
32413W        W 5481  29.566  43.591   1.395
32414W        W 5482  11.273  25.203   3.671
32415W        W 5483  26.550   5.539  14.797
32416W        W 5484   5.247  31.426  13.956
32417W        W 5485  22.821  15.120  12.880
32418W        W 5486   0.730  34.442  11.998
32419W        W 5487  39.924   3.073  11.611
32420W        W 5488  15.471  10.735  14.782
32421W        W 5489  44.161  24.920   1.438
32422W        W 5490  37.052  11.589   4.923
32423W        W 5491  24.101  33.865   2.844
32424W        W 5492  37.140  20.790   4.802
32425W        W 5493  11.825  26.236   3.247
32426W        W 5494  13.867  29.393   3.666
32427W        W 5495  34.907  11.888   3.299
32428W        W 5496  38.083   8.508  13.880
32429W        W 5497  34.436  37.560   0.173
32430W        W 5498  37.492  34.850  11.175
32431W        W 5499  18.796  42.821  11.014
32432W        W 5500  31.889   5.722  11.127
32433W        W 5501  17.348  13.859  11.359
32434W        W 5502  19.220   2.693  12.105
32435W        W 5503  41.772  34.436   2.187
32436W        W 5504  24.275   3.832  12.024
32437W        W 5505   9.819  18.643   3.056
32438W        W 5506  36.099  12.249   0.304
32439W        W 5507  27.138   2.774  11.503
32440W        W 5508  30.196  38.910  11.942
32441W        W 5509  28.929  20.648   2.045
32442W        W 5510  27.522  32.418   0.462
32443W        W 5511  35.463  41.541  11.036
32444W        W 5512   5.405  28.369  11.573
32445W        W 5513  41.721   9.283  13.075
32446W        W 5514  35.069   2.446  14.673
32447W        W 5515  12.233  24.040   3.947
32448W        W 5516  22.522  33.941  14.557
32449W        W 5517  21.353  36.955  14.330
32450W        W 5518   2.526  38.990  11.749
32451W        W 5519  41.291  34.612  10.448
32452W        W 5520   9.051   5.722   4.032
32453W        W 5521  22.289  41.939  12.031
32454W        W 5522  21.489  17.304   1.278
32455W        W 5523  13.554  24.329   3.786
32456W        W 5524  20.133  43.847   0.826
32457W        W 5525   3.405   2.980   3.184
32458W        W 5526  44.403   6.208   0.491
32459W        W 5527  14.516  15.754   0.333
32460W        W 5528  42.985  17.579  14.253
32461W        W 5529  16.244   3.715  13.064
32462W        W 5530  20.858  17.317   2.332
32463W        W 5531  22.217  21.385  11.981
32464W        W 5532   1.058  44.311  12.921
32465W        W 5533  40.517  32.858  14.443
32466W        W 5534  32.167   2.425   2.138
32467W        W 5535  39.017  12.415   4.646
32468W        W 5536   8.698  18.507  11.146
32469W        W 5537  35.991  22.826  11.524
32470W        W 5538   3.724   7.548   0.825
32471W        W 5539  15.026  42.366  11.109
32472W        W 5540  40.012  18.081  14.597
32473W        W 5541  22.206  19.743  13.414
32474W        W 5542  25.227  36.769   0.265
32475W        W 5543  13.277  35.334   0.972
32476W        W 5544  31.361  39.461  13.486
32477W        W 5545  13.323  37.379  11.245
32478W        W 5546  12.480  35.408   3.493
32479W        W 5547  31.900  17.740  13.329
32480W        W 5548  24.673  26.058  12.513
32481W        W 5549   7.822  36.009  12.269
32482W        W 5550   4.399  41.084   2.462
32483W        W 5551  36.094   8.688  13.977
32484W        W 5552  33.197  16.229  13.188
32485W        W 5553  38.355   8.461   5.061
32486W        W 5554   8.281  40.643   3.765
32487W        W 5555  38.979   2.410   0.446
32488W        W 5556  10.874  12.222   3.282
32489W        W 5557  44.305  41.914   2.142
32490W        W 5558  25.993  27.971   2.337
32491W        W 5559   5.760   0.793  11.613
32492W        W 5560  28.235  40.677   9.878
32493W        W 5561   2.792  32.849  11.993
32494W        W 5562  36.159  38.563   3.258
32495W        W 5563   1.377  33.943   4.547
32496W        W 5564  17.778  21.114  13.842
32497W        W 5565  36.904  29.856   2.262
32498W        W 5566  44.437  34.776  12.864
32499W        W 5567  44.791  23.507   4.502
32500W        W 5568  44.715  42.170  13.065
32501W        W 5569  12.326  23.197   4.575
32502W        W 5570  16.577   0.442  11.663
32503W        W 5571  13.765  41.246  10.675
32504W        W 5572   7.282  14.582   2.386
32505W        W 5573  39.120  37.843   4.423
32506W        W 5574  32.856  41.927   3.162
32507W        W 5575  26.478  44.388  14.177
32508W        W 5576  13.857  32.457  11.117
32509W        W 5577  30.067  26.306   3.863
32510W        W 5578  44.822  18.522   4.424
32511W        W 5579  15.661  42.266  12.432
32512W        W 5580  33.472  10.761   2.229
32513W        W 5581   1.811  11.087   3.905
32514W        W 5582   1.780   3.829   3.322
32515W        W 5583   1.190  22.535  10.777
32516W        W 5584  37.854  17.254   0.479
32517W        W 5585   5.462   0.392  13.840
32518W        W 5586  33.907  34.911  14.357
32519W        W 5587  30.372  37.229  11.989
32520W        W 5588   9.762  28.656  12.993
32521W        W 5589  29.325  11.842  14.513
32522W        W 5590  35.524  25.410   1.264
32523W        W 5591  36.952  34.270   1.207
32524W        W 5592  29.990  10.574  13.419
32525W        W 5593  33.953  39.444   4.576
32526W        W 5594  19.354  29.461  14.512
32527W        W 5595  14.631  44.004  12.366
32528W        W 5596  29.224  16.280  12.905
32529W        W 5597  22.856  15.861   0.427
32530W        W 5598  38.617  37.137  14.726
32531W        W 5599  14.179  13.448   4.168
32532W        W 5600   0.187  12.761  13.382
32533W        W 5601  25.350  39.603   4.385
32534W        W 5602  39.824  11.587  13.962
32535W        W 5603  33.702   7.258   1.823
32536W        W 5604  36.595  18.214  10.603
32537W        W 5605  12.646  12.669  13.162
32538W        W 5606  20.209  38.362   3.524
32539W        W 5607  24.172  18.188  11.062
32540W        W 5608   8.607  27.664  11.204
32541W        W 5609  40.785  21.026  10.731
32542W        W 5610   7.831   9.901   4.289
32543W        W 5611   1.994  21.200  11.160
32544W        W 5612  42.520   1.741   0.812
32545W        W 5613  40.415   4.831   3.774
32546W        W 5614  34.932  25.022   2.014
32547W        W 5615  29.830  40.755  10.639
32548W        W 5616   3.226   1.431  14.504
32549W        W 5617  11.697  13.171  11.356
32550W        W 5618  20.934   0.985   4.172
32551W        W 5619  28.894  38.091  14.885
32552W        W 5620   7.940  11.064   2.902
32553W        W 5621  39.831  10.488   3.207
32554W        W 5622   6.776  34.065   0.494
32555W        W 5623  15.335  30.029   2.193
32556W        W 5624  38.375   1.285  11.949
32557W        W 5625  35.408  18.778  14.247
32558W        W 5626  40.158  13.524   9.516
32559W        W 5627  39.312  21.506   2.729
32560W        W 5628   3.945  12.135   1.243
32561W        W 5629   7.642   5.558   0.252
32562W        W 5630  28.111  42.501   0.353
32563W        W 5631  38.501  16.090   0.664
32564W        W 5632  18.545  16.394  13.369
32565W        W 5633  20.601   6.383  14.698
32566W        W 5634  21.218  13.294   2.742
32567W        W 5635  10.394   7.849   0.145
32568W        W 5636  21.005  15.650  14.024
32569W        W 5637  19.696  26.715  11.074
32570W        W 5638  44.527  34.584  11.628
32571W        W 5639  25.133   0.169  14.808
32572W        W 5640  13.589  28.325  14.452
32573W        W 5641  19.210   2.382   4.716
32574W        W 5642   0.671  32.078  14.838
32575W        W 5643  18.508  21.155   2.284
32576W        W 5644   2.651   5.373  14.072
32577W        W 5645  11.122  11.363  13.046
32578W        W 5646   7.904  41.991   0.274
32579W        W 5647   4.390  31.176  11.233
32580W        W 5648  37.608  44.005   2.684
32581W        W 5649   5.142  11.486  11.282
32582W        W 5650  22.150   7.455  14.948
32583W        W 5651  26.731   8.626   3.719
32584W        W 5652   9.143   7.336   2.156
32585W        W 5653  30.536  21.701  12.554
32586W        W 5654  15.158   4.973  12.396
32587W        W 5655   8.651  20.230  14.582
32588W        W 5656  39.985   6.746   1.604
32589W        W 5657  23.727  14.372   1.216
32590W        W 5658  33.223  35.600   2.980
32591W        W 5659   3.957   9.225  14.327
32592W        W 5660  23.649  20.175  11.196
32593W        W 5661  44.254  33.669  14.331
32594W        W 5662  31.023  39.080  13.330
32595W        W 5663  16.439  20.103  13.707
32596W        W 5664  31.695  21.470  11.165
32597W        W 5665  43.340  26.371  12.436
32598W        W 5666  30.089  29.905  10.932
32599W        W 5667  40.561  11.081   2.737
32600W        W 5668  41.380  41.473  10.775
32601W        W 5669  36.508  13.793  10.005
32602W        W 5670  15.900  43.354  13.567
32603W        W 5671  31.255  39.751   4.194
32604W        W 5672  44.247  15.859   1.719
32605W        W 5673  12.133  20.564   2.766
32606W        W 5674  34.278   9.641  13.145
32607W        W 5675  24.010  24.157   0.029
32608W        W 5676  17.097  16.961   1.977
32609W        W 5677  44.957  29.037  14.375
32610W        W 5678  38.457  39.514   2.178
32611W        W 5679  38.544  10.295   1.710
32612W        W 5680  43.519  31.184   0.739
32613W        W 5681  19.194   6.204  10.536
32614W        W 5682  44.265  29.421  11.645
32615W        W 5683  17.289   7.363   1.298
32616W        W 5684  14.079  12.447   3.924
32617W        W 5685  42.352  44.956   4.405
32618W        W 5686   6.260  19.096  11.507
32619W        W 5687  25.049  14.715  13.494
32620W        W 5688  42.970   4.106  11.529
32621W        W 5689  28.129  13.756   1.422
32622W        W 5690  17.005  26.912  11.127
32623W        W 5691   8.140  18.198   0.292
32624W        W 5692   3.317   0.960   4.047
32625W        W 5693   5.801  38.822   2.751
32626W        W 5694  25.048  21.960  14.443
32627W        W 5695  31.352  17.644  14.379
32628W        W 5696  10.377  26.420  13.074
32629W        W 5697   7.608  34.543   4.172
32630W        W 5698  30.377   9.294   0.351
32631W        W 5699   8.340  38.756  13.537
32632W        W 5700  37.008  20.798   0.353
32633W        W 5701  13.371   9.030   3.234
32634W        W 5702  17.561  17.302   1.928
32635W        W 5703   0.860  30.325   0.809
32636W        W 5704  27.055  44.227  12.550
32637W        W 5705  32.345  36.629   1.327
32638W        W 5706  32.169  36.137   1.362
32639W        W 5707  37.937  16.630   2.237
32640W        W 5708   6.076   9.911   1.327
32641W        W 5709  43.318  35.544   2.646
32642W        W 5710   6.343  30.956   1.828
32643W        W 5711   3.813  12.558   3.087
32644W        W 5712  18.491  22.218   2.229
32645W        W 5713  24.431  11.255  13.993
32646W        W 5714  15.604  38.816   0.425
32647W        W 5715  12.184   4.919  13.932
32648W        W 5716   2.433  34.040  10.673
32649W        W 5717   1.535  40.117   4.340
32650W        W 5718  39.594   5.367  10.701
32651W        W 5719  42.253  14.786  10.758
32652W        W 5720  20.281  43.006  12.149
32653W        W 5721  41.247   6.416   2.690
32654W        W 5722   0.516  14.670   3.845
32655W        W 5723  13.319  28.587  10.958
32656W        W 5724  42.777   3.008   2.819
32657W        W 5725   9.501  15.568   2.609
32658W        W 5726  22.029   8.183   3.417
32659W        W 5727   4.084  43.373  11.267
32660W        W 5728  26.242  39.174   3.101
32661W        W 5729  44.463  14.309   3.346
32662W        W 5730  14.213  31.983   1.196
32663W        W 5731  22.779  14.121   0.490
32664W        W 5732   8.989   7.679  11.477
32665W        W 5733   4.619  33.150   4.501
32666W        W 5734  36.123  26.689   1.773
32667W        W 5735  12.281  32.131   1.861
32668W        W 5736  27.499  18.167  14.301
32669W        W 5737  22.601  14.266   1.396
32670W        W 5738  43.838  23.690  10.500
32671W        W 5739  37.528  14.537  11.663
32672W        W 5740  22.964  31.361  14.773
32673W        W 5741  24.706  12.319   2.788
32674W        W 5742  35.484  34.916  11.384
32675W        W 5743  11.377  30.974  14.266
32676W        W 5744   6.362   3.323  10.613
32677W        W 5745  14.200   9.108  11.113
32678W        W 5746  22.406  35.426  14.986
32679W        W 5747  22.571  32.985   3.174
32680W        W 5748  14.807   2.804  14.502
32681W        W 5749  17.724   5.826  13.263
32682W        W 5750  20.528  38.619   1.220
32683W        W 5751  32.699  44.506   2.617
32684W        W 5752   3.394  31.550  13.607
32685W        W 5753  16.088  34.981   2.675
32686W        W 5754  13.938   6.382  13.026
32687W        W 5755  27.051  41.540  10.739
32688W        W 5756  15.064  39.015   4.623
32689W        W 5757  33.848  34.457  12.571
32690W        W 5758  40.915  18.244  11.655
32691W        W 5759   0.900  42.174   1.451
32692W        W 5760  27.172   3.387  13.853
32693W        W 5761  37.066  21.477  12.814
32694W        W 5762  32.520  30.123  12.749
32695W        W 5763  38.384  10.073   0.346
32696W        W 5764  41.267  13.077   3.699
32697W        W 5765   0.355   9.718   2.728
32698W        W 5766  40.126  29.582   5.058
32699W        W 5767  20.998  19.935  13.377
32700W        W 5768  24.575  24.257   4.087
32701W        W 5769  25.266  13.636   3.995
32702W        W 5770  42.266  44.567   3.125
32703W        W 5771  33.538  17.669  14.792
32704W        W 5772  35.115  14.348   4.589
32705W        W 5773  10.707  28.714   0.598
32706W        W 5774  21.506  14.697  10.582
32707W        W 5775  38.169  18.654   3.245
32708W        W 5776   0.990  44.377  11.889
32709W        W 5777   3.379  20.597   3.152
32710W        W 5778   0.406  44.182  13.932
32711W        W 5779  25.783  35.644  11.242
32712W        W 5780  14.307   7.852  14.281
32713W        W 5781  14.779  23.112  12.849
32714W        W 5782   0.809  40.148  11.991
32715W        W 5783  36.116  18.782  13.519
32716W        W 5784  40.921  35.750   2.303
32717W        W 5785  10.123  37.633   1.188
32718W        W 5786  38.106  17.792  11.457
32719W        W 5787  42.190  34.547   2.465
32720W        W 5788  32.117  17.265   4.959
32721W        W 5789   7.121   1.499   3.222
32722W        W 5790  38.462  42.551  10.543
32723W        W 5791  34.681  20.971  13.033
32724W        W 5792  33.992  27.541   0.306
32725W        W 5793   7.871   0.309   1.656
32726W        W 5794  29.176   5.872  11.179
32727W        W 5795  18.883  15.604   1.053
32728W        W 5796  42.236   5.759   0.505
32729W        W 5797  34.506   7.204  11.996
32730W        W 5798  42.669  29.202   1.188
32731W        W 5799   1.458  38.899   4.704
32732W        W 5800  28.575   9.955   0.280
32733W        W 5801  25.525  15.735   3.593
32734W        W 5802  12.323   4.755   2.280
32735W        W 5803  19.836  14.896   0.392
32736W        W 5804  34.320  36.869  10.633
32737W        W 5805  17.604  18.286  12.559
32738W        W 5806   1.461   7.212   2.312
32739W        W 5807   5.727  26.695   2.314
32740W        W 5808  14.877  12.353   1.781
32741W        W 5809  44.980  36.409  12.475
32742W        W 5810  27.419  18.183  11.114
32743W        W 5811  22.448   6.365   3.567
32744W        W 5812  44.413  29.167  14.313
32745W        W 5813  38.858  10.166  13.009
32746W        W 5814  18.298   9.695  12.084
32747W        W 5815  31.874   8.159  14.536
32748W        W 5816  39.617  32.599   2.438
32749W        W 5817  26.116   8.003   0.821
32750W        W 5818   2.503  44.265  11.134
32751W        W 5819   7.002   5.582   1.251
32752W        W 5820  38.059  27.443   4.788
32753W        W 5821  35.067  23.594   0.734
32754W        W 5822  37.006  17.829   1.905
32755W        W 5823   9.596  33.486   3.880
32756W        W 5824  19.723   7.830   0.355
32757W        W 5825  29.902  16.335  14.992
32758W        W 5826  40.549  20.998   0.289
32759W        W 5827  39.430  38.528   2.853
32760W        W 5828  21.593   1.731  11.526
32761W        W 5829   1.232  16.122  13.061
32762W        W 5830  27.809  32.817   1.394
32763W        W 5831  26.831   9.664  11.374
32764W        W 5832  13.775   1.168  13.467
32765W        W 5833   7.892  32.063  11.224
32766W        W 5834  19.257   4.263   2.774
32767W        W 5835   8.687  25.962  12.721
32768W        W 5836  34.142  44.481   2.732
32769W        W 5837   6.325  29.640  13.869
32770W        W 5838  10.932  34.222  13.278
32771W        W 5839   5.291  25.943   1.219
32772W        W 5840  12.174  42.591  12.186
32773W        W 5841  43.919  24.465   1.738
32774W        W 5842  38.275  23.161   2.837
32775W        W 5843  11.277  13.780   0.238
32776W        W 5844   3.023  43.268   0.304
32777W        W 5845  17.174  42.086   0.680
32778W        W 5846  17.614  15.319  14.227
32779W        W 5847   3.330   1.457  13.585
32780W        W 5848  30.095   2.242   1.919
32781W        W 5849  37.098  38.837  14.726
32782W        W 5850  23.045  32.439  11.703
32783W        W 5851  17.715   4.519  13.882
32784W        W 5852  23.744  22.183   4.727
32785W        W 5853   4.295  15.602   3.950
32786W        W 5854  17.316  14.764   1.904
32787W        W 5855  26.518  10.701  12.329
32788W        W 5856   2.408  44.768   1.690
32789W        W 5857  22.834  44.882   3.186
32790W        W 5858  32.646  38.332   1.945
32791W        W 5859  13.255  22.835  12.229
32792W        W 5860   5.937   0.882   3.345
32793W        W 5861  19.161  21.983   4.476
32794W        W 5862  30.466   6.734  11.613
32795W        W 5863  41.760  30.071   2.721
32796W        W 5864  27.806  43.968  11.580
32797W        W 5865  31.468   0.505   2.806
32798W        W 5866  30.584  26.459   0.696
32799W        W 5867  26.546   4.503  13.635
32800W        W 5868  21.137  18.095   2.378
32801W        W 5869  17.127  26.205  13.772
32802W        W 5870   3.006   0.555  12.517
32803W        W 5871   6.295  21.435   3.531
32804W        W 5872   1.869  16.727   1.169
32805W        W 5873  37.685  27.408  13.500
32806W        W 5874  35.515  34.354   4.100
32807W        W 5875  36.083  36.642   3.240
32808W        W 5876   8.139  31.954   1.934
32809W        W 5877   8.755  27.614  13.745
32810W        W 5878   4.300   3.929   3.300
32811W        W 5879  41.811  33.658   1.637
32812W        W 5880  36.579   9.141  13.418
32813W        W 5881  13.529   4.083   2.838
32814W        W 5882  30.725  16.144  14.832
32815W        W 5883  37.439  21.852  14.830
32816W        W 5884  35.863  30.992   0.413
32817W        W 5885  16.565  26.519   0.492
32818W        W 5886   7.314  21.980   3.296
32819W        W 5887  29.116   3.228   2.405
32820W        W 5888  38.748  25.564   1.690
32821W        W 5889  32.887  24.780   0.330
32822W        W 5890  27.037  17.098  12.169
32823W        W 5891  20.214  32.636  12.183
32824W        W 5892  14.354  26.367  13.839
32825W        W 5893  29.513   3.694  14.312
32826W        W 5894  15.464  22.337   4.557
32827W        W 5895  29.505   7.810  13.286
32828W        W 5896  40.161  12.321   1.249
32829W        W 5897  41.452  37.673   1.121
32830W        W 5898  31.190   4.412  11.151
32831W        W 5899  13.232  42.473  12.951
32832W        W 5900  28.561  22.713  14.413
32833W        W 5901  40.863  33.972   3.636
32834W        W 5902  10.205  40.780   4.885
32835W        W 5903   4.447  23.135   3.065
32836W        W 5904  16.666  44.076   3.742
32837W        W 5905  33.824  13.838   2.775
32838W        W 5906   4.366  36.583  10.917
32839W        W 5907  28.064  11.350   3.305
32840W        W 5908   0.895  42.975  10.831
32841W        W 5909  32.432  35.696  12.862
32842W        W 5910  40.628  24.698   1.361
32843W        W 5911   2.342  44.431   0.269
32844W        W 5912  29.845  42.464  12.246
32845W        W 5913  32.798  15.138  13.908
32846W        W 5914  28.686  10.467  10.810
32847W        W 5915  42.440   4.249  13.981
32848W        W 5916  10.910  18.399  11.877
32849W        W 5917  38.319   4.168   4.143
32850W        W 5918  24.701  34.530   0.978
32851W        W 5919  17.156  43.734   1.152
32852W        W 5920   4.236  30.219  13.017
32853W        W 5921   4.350  36.330   2.426
32854W        W 5922  30.942  15.556  12.068
32855W        W 5923   8.334   7.270   2.062
32856W        W 5924  16.128  37.101  14.334
32857W        W 5925  17.128  43.812  13.183
32858W        W 5926  24.716  28.420  11.186
32859W        W 5927  13.994   4.977   2.712
32860W        W 5928   0.394   0.344  11.417
32861W        W 5929  32.569  39.545   1.325
32862W        W 5930  43.784   3.561   1.688
32863W        W 5931   7.762  25.787   3.192
32864W        W 5932  22.037  26.772   0.380
32865W        W 5933   5.684  14.755   4.671
32866W        W 5934  12.023  13.823   1.473
32867W        W 5935  24.744  29.125   1.040
32868W        W 5936  32.064   2.764  14.156
32869W        W 5937  11.204  14.505   3.083
32870W        W 5938  22.026  26.068  10.503
32871W        W 5939   4.192  13.402  13.036
32872W        W 5940  44.498  36.085  11.618
32873W        W 5941  14.079  30.115   1.154
32874W        W 5942  39.917  44.999   0.690
32875W        W 5943  13.180  30.700   4.763
32876W        W 5944  38.995  29.185   3.709
32877W        W 5945  32.328  41.884   0.460
32878W        W 5946  29.672  25.493   0.496
32879W        W 5947  26.512  17.697  10.594
32880W        W 5948  27.842  15.717   1.741
32881W        W 5949  22.214  44.251  10.620
32882W        W 5950  41.537  43.413  11.646
32883W        W 5951   8.487  18.008  13.930
32884W        W 5952   6.748  14.655  12.388
32885W        W 5953  39.116  11.823   4.184
32886W        W 5954  14.063  26.585   3.267
32887W        W 5955  10.134  11.174   1.108
32888W        W 5956  32.625  31.996  11.097
32889W        W 5957  21.494   4.343  13.802
32890W        W 5958   8.876  39.531  10.533
32891W        W 5959   2.412  43.778   1.829
32892W        W 5960   0.479  29.393   0.769
32893W        W 5961  35.595  25.295   3.299
32894W        W 5962   8.982   9.232   1.356
32895W        W 5963  16.162  44.557   1.700
32896W        W 5964   6.557  38.467   4.893
32897W        W 5965  16.742  36.544   0.930
32898W        W 5966  38.537  11.173   4.345
32899W        W 5967   7.315  34.571   4.595
32900W        W 5968   7.909  37.838  12.390
32901W        W 5969  34.832  38.391   0.007
32902W        W 5970  43.278  29.097   2.264
32903W        W 5971  10.244  17.172   3.268
32904W        W 5972  16.652  30.832  14.119
32905W        W 5973  44.892   1.792   1.379
32906W        W 5974  37.903  27.608  12.530
32907W        W 5975  12.704  11.296   4.532
32908W        W 5976   0.238  17.336   0.887
32909W        W 5977  30.422   2.871  12.425
32910W        W 5978  19.166  40.114   0.909
32911W        W 5979  25.792  12.809  13.039
32912W        W 5980  14.761  27.160  13.920
32913W        W 5981  15.038  43.368   0.732
32914W        W 5982   6.237  31.983   2.682
32915W        W 5983   2.014  26.384  11.017
32916W        W 5984   1.176   7.901   3.740
32917W        W 5985   0.261   8.442  11.479
32918W        W 5986   3.997  23.513  12.446
32919W        W 5987  29.161  40.804   0.790
32920W        W 5988  20.027  20.621  13.901
32921W        W 5989  30.330  30.169  13.251
32922W        W 5990  38.790   5.489  13.868
32923W        W 5991   1.876  36.914  12.210
32924W        W 5992   6.472  22.708  13.813
32925W        W 5993   3.924  31.925   1.347
32926W        W 5994  25.603  14.988   2.347
32927W        W 5995  21.494   1.654   2.200
32928W        W 5996  17.396  17.851   0.743
32929W        W 5997  10.280  41.334   4.752
32930W        W 5998   1.920  38.433   0.835
32931W        W 5999   4.373  18.846  13.549
32932W        W 6000  44.419   8.247  14.060
32933W        W 6001   1.289   0.310   0.344
32934W        W 6002  38.503  21.305   4.750
32935W        W 6003  19.636  29.141   0.843
32936W        W 6004  24.432  42.871   2.230
32937W        W 6005  41.368  13.223   4.200
32938W        W 6006  40.865  18.168   2.634
32939W        W 6007  22.229  27.314  11.925
32940W        W 6008   8.661  33.516   3.977
32941W        W 6009  32.824   8.668   1.352
32942W        W 6010  12.075  23.202  10.434
32943W        W 6011  17.937   3.283  12.496
32944W        W 6012  44.217  42.957   4.648
32945W        W 6013  11.250  33.344   3.849
32946W        W 6014  18.183  24.702   2.753
32947W        W 6015  43.685   9.072  11.690
32948W        W 6016  13.623  25.540   3.221
32949W        W 6017  21.489  12.258  10.770
32950W        W 6018  44.895  30.950  12.952
32951W        W 6019  32.989   9.856   0.954
32952W        W 6020  31.426  43.613  14.274
32953W        W 6021  22.534  15.392   2.130
32954W        W 6022  36.356  25.104   3.994
32955W        W 6023  39.041  23.270   1.464
32956W        W 6024  27.226  10.471  11.028
32957W        W 6025  41.379  33.536   2.593
32958W        W 6026  26.396  25.489   2.898
32959W        W 6027  22.594  31.385   0.901
32960W        W 6028  14.739  18.837   9.843
32961W        W 6029  13.210   7.935   4.135
32962W        W 6030  13.116   4.788  14.732
32963W        W 6031   8.355  28.615   0.273
32964W        W 6032  43.666   2.246   3.208
32965W        W 6033  42.192  43.126   2.488
32966W        W 6034  39.487  35.515  13.960
32967W        W 6035   8.247  40.019  11.023
32968W        W 6036  27.017  12.642  12.538
32969W        W 6037  43.961  23.792   1.679
32970W        W 6038  11.158  32.186   1.301
32971W        W 6039  39.723  11.887   3.194
32972W        W 6040  29.422  30.729  11.947
32973W        W 6041  38.557  41.398  10.640
32974W        W 6042  27.154  30.695   3.730
32975W        W 6043  36.360  39.461  14.782
32976W        W 6044  39.907   2.795  10.765
32977W        W 6045  40.004   3.079   4.491
32978W        W 6046  25.538   4.869  10.580
32979W        W 6047  27.616  18.914   3.394
32980W        W 6048  14.986   9.350  13.470
32981W        W 6049   1.327  38.474  14.596
32982W        W 6050  29.263   5.342  10.724
32983W        W 6051   6.606  37.438  10.818
32984W        W 6052  29.068  12.120   2.176
32985W        W 6053  22.391  12.751  12.536
32986W        W 6054  17.595  28.949   0.009
32987W        W 6055  34.459  19.235   4.781
32988W        W 6056  16.033  15.386   4.531
32989W        W 6057  18.001  15.598   4.530
32990W        W 6058   9.765  31.157   1.756
32991W        W 6059  40.392  14.180  12.179
32992W        W 6060  34.108   3.383  14.294
32993W        W 6061  36.417  37.346   1.222
32994W        W 6062  26.685  23.020  11.734
32995W        W 6063  21.228   1.341  14.952
32996W        W 6064  12.050  36.132  13.762
32997W        W 6065  43.400  13.686  13.100
32998W        W 6066  44.718   6.312   1.860
32999W        W 6067   6.766  15.004  11.960
33000W        W 6068  13.223  27.218   4.544
33001W        W 6069  20.305  36.360   2.682
33002W        W 6070  11.291  34.137   1.875
33003W        W 6071  43.220   8.193  11.522
33004W        W 6072  17.566  19.576   1.342
33005W        W 6073   7.242  13.529   0.870
33006W        W 6074   8.933   3.397   4.795
33007W        W 6075  13.808  34.894  12.857
33008W        W 6076  42.539  38.858  13.333
33009W        W 6077  19.996  36.930   4.207
33010W        W 6078  10.315  43.075   1.440
33011W        W 6079  30.890  44.930   2.907
33012W        W 6080   8.877  22.529   1.791
33013W        W 6081  35.936  10.343  12.006
33014W        W 6082  27.635  20.175  13.068
33015W        W 6083  29.117  25.932   4.282
33016W        W 6084  24.210  36.371  10.993
33017W        W 6085  34.002  12.739   1.333
33018W        W 6086  24.789  17.827  12.934
33019W        W 6087   3.288  37.396   3.530
33020W        W 6088  23.165  28.993   1.865
33021W        W 6089  32.087   2.704  11.585
33022W        W 6090  22.087  17.330  10.766
33023W        W 6091   0.275  32.883  13.071
33024W        W 6092  39.598  32.532  13.524
33025W        W 6093   9.242  21.451   2.418
33026W        W 6094  40.912  18.786  11.674
33027W        W 6095  22.197  32.409  11.287
33028W        W 6096  42.440  41.021   0.089
33029W        W 6097  19.752  27.257   0.594
33030W        W 6098   3.473  44.858  12.016
33031W        W 6099   2.761  22.785  10.986
33032W        W 6100  11.414   3.422   0.971
33033W        W 6101  40.883  38.068   1.818
33034W        W 6102  33.371  17.736  14.308
33035W        W 6103   2.232  22.438   2.549
33036W        W 6104  12.267   4.926  12.088
33037W        W 6105  14.868  16.678  14.010
33038W        W 6106  26.704  20.571   2.229
33039W        W 6107   9.152  38.925  12.859
33040W        W 6108   9.625   2.283   2.233
33041W        W 6109  33.393  29.576  10.734
33042W        W 6110  44.098  11.038   0.545
33043W        W 6111   7.013  17.111   0.968
33044W        W 6112  23.390  32.040   2.434
33045W        W 6113  35.468   7.236   1.871
33046W        W 6114   5.528  14.085   4.251
33047W        W 6115  21.922  40.333   2.652
33048W        W 6116  44.870  27.156   2.780
33049W        W 6117  22.553  27.216  12.393
33050W        W 6118   2.273   6.776   2.280
33051W        W 6119  22.647  20.584   0.626
33052W        W 6120   8.357   1.972   3.612
33053W        W 6121  39.410   5.402   9.823
33054W        W 6122   2.841  33.980   0.034
33055W        W 6123  16.750  43.822   4.182
33056W        W 6124  44.319  37.524  11.148
33057W        W 6125  36.562   6.229  13.814
33058W        W 6126  35.183  40.961  11.073
33059W        W 6127  16.230  42.365   0.487
33060W        W 6128   4.848   1.558   2.885
33061W        W 6129   4.612  40.248   4.105
33062W        W 6130  22.454   2.859   3.938
33063W        W 6131   3.032   4.462  13.114
33064W        W 6132  27.115  19.052   2.747
33065W        W 6133  20.984  17.108   4.695
33066W        W 6134  27.652  37.513  11.579
33067W        W 6135  19.772  15.099   1.009
33068W        W 6136  40.992   0.976  13.496
33069W        W 6137  40.784   4.204  11.921
33070W        W 6138  39.106   1.717   1.806
33071W        W 6139   4.704  43.859   2.000
33072W        W 6140  28.657  11.301   4.519
33073W        W 6141  18.142  32.812   2.723
33074W        W 6142   7.975   2.095   4.515
33075W        W 6143  21.014   5.162   1.651
33076W        W 6144   3.523  27.687  10.324
33077W        W 6145  30.163  37.350   2.231
33078W        W 6146  44.875  30.889   4.489
33079W        W 6147  17.776  44.787  11.982
33080W        W 6148  26.749  36.855   0.813
33081W        W 6149  33.857  22.958  11.491
33082W        W 6150  37.738  32.567   5.146
33083W        W 6151  40.018  24.059   3.994
33084W        W 6152  44.514   8.132  11.978
33085W        W 6153  40.842  22.231  14.908
33086W        W 6154  23.640   9.428   4.468
33087W        W 6155   0.267   4.921  14.427
33088W        W 6156   9.891   6.516  14.542
33089W        W 6157  17.099  10.859  12.831
33090W        W 6158  35.621  27.804  14.249
33091W        W 6159  15.622   4.736  12.290
33092W        W 6160  27.119   4.664  12.482
33093W        W 6161  33.492   3.594   0.423
33094W        W 6162  37.636  20.724   3.318
33095W        W 6163  39.311  32.224  10.571
33096W        W 6164  29.626   7.365  13.521
33097W        W 6165  18.731  23.513  14.665
33098W        W 6166  14.259  28.407  14.019
33099W        W 6167  39.048   5.416  12.610
33100W        W 6168  11.322  34.193  12.167
33101W        W 6169  35.525  39.553   3.783
33102W        W 6170  11.087   2.538   3.964
33103W        W 6171  30.004  23.846   1.225
33104W        W 6172  17.819  17.131  12.448
33105W        W 6173  14.106   1.977  13.480
33106W        W 6174   9.707  34.406   4.156
33107W        W 6175  25.982   6.762  10.741
33108W        W 6176  15.670   2.723  14.286
33109W        W 6177  28.894  23.700   2.835
33110W        W 6178  41.873  39.904  14.978
33111W        W 6179  24.647  18.824  12.974
33112W        W 6180  22.404  10.873  14.450
33113W        W 6181  21.600   9.912   1.737
33114W        W 6182  44.252  11.451   4.052
33115W        W 6183  13.476   9.518  12.520
33116W        W 6184  36.130  27.004   2.192
33117W        W 6185  39.256   7.310   3.649
33118W        W 6186  41.573   7.290  14.436
33119W        W 6187  36.327  22.482   1.813
33120W        W 6188  42.936  33.464   1.258
33121W        W 6189  27.778  35.976   0.937
33122W        W 6190  29.647  23.518   1.793
33123W        W 6191  21.678  25.177  14.066
33124W        W 6192  25.916  14.903  12.856
33125W        W 6193  35.862  18.149  14.283
33126W        W 6194  34.525  23.072   3.230
33127W        W 6195  10.968  33.888  10.208
33128W        W 6196   8.735  15.692   0.190
33129W        W 6197   6.724   5.390  14.336
33130W        W 6198  18.952  26.917   0.983
33131W        W 6199  18.533  41.518  11.171
33132W        W 6200  42.599   6.884   1.783
33133W        W 6201  17.566  38.567  13.805
33134W        W 6202   7.366  14.231   3.127
33135W        W 6203   4.869  18.711  14.682
33136W        W 6204  37.377   3.808  12.537
33137W        W 6205  22.019   4.483   0.035
33138W        W 6206   0.536  16.720   3.621
33139W        W 6207   6.492  20.735  14.253
33140W        W 6208  13.987   6.421  12.044
33141W        W 6209   2.739   7.725  11.256
33142W        W 6210  44.348  23.652   0.328
33143W        W 6211  15.001  38.369  13.848
33144W        W 6212  16.316  25.969  13.568
33145W        W 6213  42.985  43.565  14.085
33146W        W 6214   7.974  44.267   1.260
33147W        W 6215  31.234  20.418  14.339
33148W        W 6216  16.224  23.986   4.931
33149W        W 6217  30.052  14.413  13.929
33150W        W 6218  41.968  40.771   1.911
33151W        W 6219   0.229  25.541  13.279
33152W        W 6220  12.498  41.112   2.757
33153W        W 6221   4.973  16.154   1.336
33154W        W 6222  11.544  39.091  12.084
33155W        W 6223   3.506  13.878  13.257
33156W        W 6224  33.615   1.846   3.876
33157W        W 6225  30.703  26.059  10.610
33158W        W 6226  40.478   0.816  13.432
33159W        W 6227  29.897   1.846  12.202
33160W        W 6228  21.419   2.324  11.146
33161W        W 6229  41.309  29.333  11.219
33162W        W 6230   7.596   5.883   2.644
33163W        W 6231   6.721  21.576   3.765
33164W        W 6232   9.263  37.287   1.680
33165W        W 6233   1.790  34.353   2.198
33166W        W 6234  20.255  18.615   4.216
33167W        W 6235  44.252  24.596  11.516
33168W        W 6236  42.134  26.735  13.966
33169W        W 6237  43.603  21.069   2.815
33170W        W 6238  34.139  43.748  10.526
33171W        W 6239   6.902  30.375  12.958
33172W        W 6240  28.932  22.257   0.778
33173W        W 6241  44.277  27.412  12.118
33174W        W 6242  18.726  19.967  13.699
33175W        W 6243   5.797  44.025   1.298
33176W        W 6244  17.620  39.154   0.830
33177W        W 6245   9.774  36.130  13.977
33178W        W 6246  37.415  36.738   0.688
33179W        W 6247  19.440  16.579   0.887
33180W        W 6248  34.322  24.411  13.022
33181W        W 6249  14.243  40.187   2.646
33182W        W 6250  15.183  41.722   1.823
33183W        W 6251  12.791  43.699   4.206
33184W        W 6252  15.577  17.235   0.857
33185W        W 6253   7.420  37.557   0.754
33186W        W 6254  39.422  32.480  11.834
33187W        W 6255  37.402  12.575   3.828
33188W        W 6256  25.581   3.213  14.536
33189W        W 6257   7.620  11.515   0.789
33190W        W 6258  15.101  19.690   1.323
33191W        W 6259  38.100  33.252   5.443
33192W        W 6260  34.076  23.982   1.123
33193W        W 6261  19.190   0.753   0.277
33194W        W 6262   2.213  42.448   3.882
33195W        W 6263   9.685  24.572  10.805
33196W        W 6264  14.202  43.031  13.745
33197W        W 6265   4.471  19.575   4.049
33198W        W 6266   1.479   9.405   1.905
33199W        W 6267  13.269  40.526   4.138
33200W        W 6268  15.261  23.121   0.035
33201W        W 6269   0.651  14.847  12.383
33202W        W 6270  40.458  37.790  14.487
33203W        W 6271  20.761  11.376  11.579
33204W        W 6272  30.756  15.545   1.414
33205W        W 6273  23.172   6.410  14.080
33206W        W 6274  41.097  37.305   0.254
33207W        W 6275   2.300  10.661   3.428
33208W        W 6276   2.349  27.176  11.855
33209W        W 6277   7.206   4.252   4.130
33210W        W 6278  21.667  36.095   2.181
33211W        W 6279  14.153  22.921   2.349
33212W        W 6280  17.324  16.097   2.181
33213W        W 6281  14.487  24.913   1.452
33214W        W 6282   7.273  25.160  11.562
33215W        W 6283  15.625  14.910   1.861
33216W        W 6284   8.462  32.213   0.279
33217W        W 6285  14.073   4.566  10.822
33218W        W 6286  31.971  12.617  10.333
33219W        W 6287  25.568  35.475  11.675
33220W        W 6288  31.189  12.602  11.785
33221W        W 6289  12.247   2.979   3.888
33222W        W 6290   7.665  21.298  10.619
33223W        W 6291  30.984  40.961  11.419
33224W        W 6292   6.248   3.389   3.120
33225W        W 6293  35.415  33.354  13.781
33226W        W 6294  33.852  22.980   0.063
33227W        W 6295  25.439  34.451  14.322
33228W        W 6296  13.512  30.092   3.332
33229W        W 6297   6.777  12.285  14.940
33230W        W 6298   3.009   6.807  11.070
33231W        W 6299  32.903  13.155   3.330
33232W        W 6300  27.231  11.034  14.492
33233W        W 6301  39.047  17.721  14.464
33234W        W 6302  36.958  32.876  11.273
33235W        W 6303  12.270  26.210   2.791
33236W        W 6304  25.435  13.918  12.306
33237W        W 6305  34.572  11.671  13.758
33238W        W 6306  42.582  37.499   1.767
33239W        W 6307   7.764  20.246  12.513
33240W        W 6308  15.572  26.965   2.673
33241W        W 6309  18.337  25.418  12.005
33242W        W 6310   1.805  25.160   1.262
33243W        W 6311   8.967  41.862  14.420
33244W        W 6312  24.235  29.122   0.346
33245W        W 6313  11.147  14.302  12.009
33246W        W 6314  29.426  17.244   4.491
33247W        W 6315  31.757  11.403  12.033
33248W        W 6316  23.658  14.635  10.696
33249W        W 6317  38.073  36.209   2.287
33250W        W 6318  40.438  16.672  13.862
33251W        W 6319  20.871  34.576   0.404
33252W        W 6320  37.155  40.973  11.227
33253W        W 6321  36.950  35.962  12.361
33254W        W 6322  13.356  19.129   2.299
33255W        W 6323  39.568   6.367   3.341
33256W        W 6324   1.536   9.606   3.194
33257W        W 6325  32.626  42.040   4.155
33258W        W 6326  39.403  24.130   1.616
33259W        W 6327   7.142  12.908   4.642
33260W        W 6328  22.170  35.824   2.312
33261W        W 6329   2.173  31.860   0.329
33262W        W 6330  36.106  36.829   0.802
33263W        W 6331  22.099  29.161   0.702
33264W        W 6332  17.852  14.035   3.595
33265W        W 6333   7.705  12.400  13.062
33266W        W 6334  23.027  42.073   2.849
33267W        W 6335  20.485  28.931   3.343
33268W        W 6336   4.026   0.850  13.040
33269W        W 6337  43.002  14.779   4.490
33270W        W 6338   1.758  26.156   2.402
33271W        W 6339  20.639  41.838   3.662
33272W        W 6340  40.436   8.665  12.430
33273W        W 6341  19.169  32.875   2.734
33274W        W 6342  13.027  16.395   2.118
33275W        W 6343  30.161   9.575  13.467
33276W        W 6344  26.937  13.801  13.108
33277W        W 6345  24.111  38.780   0.048
33278W        W 6346  12.230   8.338  12.901
33279W        W 6347  36.896  18.799   3.285
33280W        W 6348  23.183  38.437  14.819
33281W        W 6349   5.969  29.711   0.423
33282W        W 6350  30.553  21.708   0.293
33283W        W 6351   2.267   9.380   3.839
33284W        W 6352  34.008  43.923  14.731
33285W        W 6353  40.909  11.807   4.384
33286W        W 6354  22.139   3.281   1.556
33287W        W 6355  44.732   8.454  11.555
33288W        W 6356  22.995  28.090   1.452
33289W        W 6357  42.781  23.169   2.768
33290W        W 6358   6.123  11.650  13.896
33291W        W 6359  19.128  43.425   2.154
33292W        W 6360  28.731  37.039  11.619
33293W        W 6361  20.468  28.460  14.843
33294W        W 6362  36.995  30.612  10.487
33295W        W 6363   4.390  40.081  12.962
33296W        W 6364  10.899  14.761   2.248
33297W        W 6365  33.992   0.427   4.680
33298W        W 6366   0.451   5.523  14.182
33299W        W 6367  30.686   1.455   0.264
33300W        W 6368  19.726  36.042   3.200
33301W        W 6369  35.870  41.700  13.014
33302W        W 6370  38.123   9.831   3.715
33303W        W 6371  32.907  24.247   0.392
33304W        W 6372  41.819  39.299   1.761
33305W        W 6373  29.933  19.687  10.519
33306W        W 6374  26.051  25.645  11.117
33307W        W 6375   9.899  15.477  12.020
33308W        W 6376  31.605  34.831   3.651
33309W        W 6377   2.426  15.822  11.645
33310W        W 6378  23.012  10.707   4.275
33311W        W 6379  18.096  22.105   2.558
33312W        W 6380   6.877  35.495   0.469
33313W        W 6381  37.196  23.768  12.056
33314W        W 6382  42.520  23.747   0.316
33315W        W 6383  28.133  40.770  13.934
33316W        W 6384  18.989  22.441  13.118
33317W        W 6385   6.372   4.307   3.291
33318W        W 6386   9.594  29.353   0.293
33319W        W 6387  36.064   4.161   2.701
33320W        W 6388   6.979  10.805   1.230
33321W        W 6389  40.362   5.737   0.181
33322W        W 6390  38.072  22.571   2.332
33323W        W 6391  18.951  28.857  14.898
33324W        W 6392  26.575  13.356  13.107
33325W        W 6393  23.361  36.043   4.734
33326W        W 6394   3.325  37.923  13.981
33327W        W 6395  14.918  41.095  13.429
33328W        W 6396   9.915  39.626   3.130
33329W        W 6397  38.014  17.341  12.981
33330W        W 6398  39.241   7.451  13.090
33331W        W 6399   6.978   8.622   0.306
33332W        W 6400  44.192  20.182   3.764
33333W        W 6401  40.827  36.049   1.870
33334W        W 6402  13.041  25.644  10.756
33335W        W 6403  19.891  32.442  12.535
33336W        W 6404  31.849   4.770   4.748
33337W        W 6405  13.599   6.308  13.415
33338W        W 6406  17.078  42.572  10.906
33339W        W 6407  40.517   6.916  10.193
33340W        W 6408  41.006  39.108  11.965
33341W        W 6409  19.535  19.123   0.692
33342W        W 6410  38.036  41.292  10.675
33343W        W 6411  22.980  32.952  12.963
33344W        W 6412  44.984   8.030  11.739
33345W        W 6413  42.499  19.299   2.818
33346W        W 6414  27.492  29.124  13.814
33347W        W 6415  31.114  21.245  13.083
33348W        W 6416  44.201   5.284   0.341
33349W        W 6417  29.863  17.852  12.956
33350W        W 6418  36.181  10.814  13.453
33351W        W 6419   0.461  28.074  11.148
33352W        W 6420  26.203  37.428   3.199
33353W        W 6421   9.637  13.720   0.315
33354W        W 6422   0.865  28.257  10.879
33355W        W 6423  25.883   3.274   0.888
33356W        W 6424  11.253   7.936  13.873
33357W        W 6425  35.989   5.314   1.974
33358W        W 6426  38.595  27.517   0.674
33359W        W 6427  12.937  16.571   3.614
33360W        W 6428  12.934  29.248   4.503
33361W        W 6429  36.100   3.864   1.190
33362W        W 6430  21.628  22.618  13.543
33363W        W 6431   2.511  29.411  12.545
33364W        W 6432  34.747  21.966   1.888
33365W        W 6433  31.079  33.594  10.828
33366W        W 6434  17.588   5.417   3.373
33367W        W 6435  24.224  37.577  13.112
33368W        W 6436  25.453  32.576   2.815
33369W        W 6437   0.913  27.856  14.328
33370W        W 6438  22.936   3.359  12.978
33371W        W 6439  24.194   3.217   0.557
33372W        W 6440  15.556  12.904   4.221
33373W        W 6441   0.903  21.625   3.334
33374W        W 6442  42.858   3.290  13.836
33375W        W 6443  11.340   3.741  11.955
33376W        W 6444  44.692  12.866   2.685
33377W        W 6445  13.222  14.308  10.916
33378W        W 6446   8.728  39.016   4.185
33379W        W 6447   1.081   6.543  14.766
33380W        W 6448  26.513  26.074   1.872
33381W        W 6449  25.126  42.016  11.952
33382W        W 6450  10.659  12.154   3.729
33383W        W 6451  15.534  15.032  14.409
33384W        W 6452  39.512  23.541   1.285
33385W        W 6453  28.163  13.538  13.408
33386W        W 6454  26.040   7.587  11.579
33387W        W 6455   2.737  43.390   1.721
33388W        W 6456  40.966  19.977   0.363
33389W        W 6457  32.099   6.826   5.118
33390W        W 6458  19.822  44.187  11.570
33391W        W 6459  31.925   2.439  12.013
33392W        W 6460   4.413   4.409   3.144
33393W        W 6461  44.359  43.311   1.898
33394W        W 6462  39.668  12.205   1.340
33395W        W 6463  16.782  34.018  14.908
33396W        W 6464  40.037  11.577   1.899
33397W        W 6465  17.114  36.777  14.946
33398W        W 6466   5.844  15.206  14.551
33399W        W 6467  31.398  20.826  11.609
33400W        W 6468  26.977  19.188   3.626
33401W        W 6469  36.313  20.623  14.319
33402W        W 6470  41.897  20.045  13.808
33403W        W 6471  13.211   2.111   0.278
33404W        W 6472  24.019  30.031   1.831
33405W        W 6473  33.488   7.965  13.857
33406W        W 6474  32.636   3.147   0.898
33407W        W 6475   4.397  25.631  12.885
33408W        W 6476  15.530  40.545   2.841
33409W        W 6477  15.784  10.433  11.131
33410W        W 6478  24.203   5.267   0.833
33411W        W 6479  34.724   4.740   9.970
33412W        W 6480  21.727  11.784  14.309
33413W        W 6481  11.356  29.995  10.444
33414W        W 6482  32.025  15.344  12.102
33415W        W 6483  26.763   1.385  14.048
33416W        W 6484  38.005  35.567   2.938
33417W        W 6485  31.513  10.341   3.673
33418W        W 6486  37.953  17.435   3.874
33419W        W 6487  35.893  42.524  11.600
33420W        W 6488  33.416  34.519   0.792
33421W        W 6489  43.268  12.834  13.583
33422W        W 6490  16.879  19.207   4.184
33423W        W 6491  19.165   9.168   2.601
33424W        W 6492  41.479  34.814  12.092
33425W        W 6493  35.028   0.959   0.425
33426W        W 6494  13.466  42.710   2.834
33427W        W 6495  29.604  27.923   0.270
33428W        W 6496  18.443   4.367   3.124
33429W        W 6497  33.135  30.490   0.951
33430W        W 6498  34.073  40.057   3.146
33431W        W 6499  36.447  33.582   9.957
33432W        W 6500  36.985   0.888   4.279
33433W        W 6501   8.724  35.707  11.096
33434W        W 6502  40.297  16.183  11.703
33435W        W 6503   9.015  23.120   2.240
33436W        W 6504  39.975   9.665  13.418
33437W        W 6505  31.214   3.861  11.698
33438W        W 6506  41.213  16.231  13.909
33439W        W 6507  36.160  44.174  11.547
33440W        W 6508   8.689  24.681  12.410
33441W        W 6509   2.947  39.275  13.493
33442W        W 6510  26.826   4.440   0.821
33443W        W 6511  16.815  22.420   4.585
33444W        W 6512  16.881  41.887   4.527
33445W        W 6513  11.158  25.086   0.812
33446W        W 6514  16.343  19.676   2.248
33447W        W 6515  26.980   2.203   3.314
33448W        W 6516  35.650  39.758  14.316
33449W        W 6517   9.374  10.879   4.555
33450W        W 6518  24.241  36.615   2.147
33451W        W 6519   0.823  43.285  11.224
33452W        W 6520   8.665  14.583  12.968
33453W        W 6521   9.731   0.778  13.460
33454W        W 6522  25.687  34.163  14.828
33455W        W 6523  22.225  44.185  12.429
33456W        W 6524  16.609  12.071   4.222
33457W        W 6525  18.763  14.846   4.152
33458W        W 6526  24.905  17.687  11.644
33459W        W 6527  11.797  36.023   3.437
33460W        W 6528  23.030   1.741  12.942
33461W        W 6529  36.126  22.267  11.525
33462W        W 6530  31.984  38.396  11.986
33463W        W 6531  12.464  27.404  14.197
33464W        W 6532  17.318  10.157   1.522
33465W        W 6533  42.860   7.923   0.008
33466W        W 6534   5.881  27.691   1.512
33467W        W 6535   5.417   5.402   2.668
33468W        W 6536   4.534  39.966   2.387
33469W        W 6537   7.380  13.745  11.846
33470W        W 6538  21.017  20.281  12.935
33471W        W 6539  37.060  29.951  14.930
33472W        W 6540   0.909   8.392  13.105
33473W        W 6541  24.124  14.069  14.439
33474W        W 6542  28.041  18.318   1.292
33475W        W 6543  43.523  16.702  13.031
33476W        W 6544  12.986   3.497  10.415
33477W        W 6545  15.305  35.780   1.253
33478W        W 6546   4.055  27.980   1.991
33479W        W 6547   7.635  19.676   2.301
33480W        W 6548   5.734  10.358   1.333
33481W        W 6549  34.430  31.174  11.625
33482W        W 6550  44.344  13.176  12.855
33483W        W 6551  14.846  19.967   2.795
33484W        W 6552  21.490   3.725   4.612
33485W        W 6553  44.954   5.889   2.703
33486W        W 6554  26.194  28.193  13.381
33487W        W 6555  16.076  11.702   2.788
33488W        W 6556  35.929  33.393   1.943
33489W        W 6557  19.521  33.038   0.327
33490W        W 6558  30.629  12.239  12.340
33491W        W 6559  41.620  41.350  12.193
33492W        W 6560   7.488  43.985   1.840
33493W        W 6561  29.892   6.301   1.848
33494W        W 6562   9.792  27.568  10.615
33495W        W 6563  33.971  37.076  11.828
33496W        W 6564  13.017  34.994  10.570
33497W        W 6565  44.259   0.421  13.480
33498W        W 6566  13.614  39.940  13.471
33499W        W 6567  29.315  23.793  10.193
33500W        W 6568  18.268  44.869   0.472
33501W        W 6569  19.681  24.263   0.678
33502W        W 6570  23.538  40.170   2.942
33503W        W 6571  20.977  28.369  14.877
33504W        W 6572   6.661  21.886  13.317
33505W        W 6573  28.072  40.547   2.633
33506W        W 6574  16.170  42.872  11.230
33507W        W 6575  19.811  25.216  13.530
33508W        W 6576   9.904   4.554   2.600
33509W        W 6577   5.850  10.167   4.743
33510W        W 6578  36.883  29.042   0.574
33511W        W 6579   8.778  44.737   2.227
33512W        W 6580  30.079  13.833  14.799
33513W        W 6581  28.683  20.233  11.532
33514W        W 6582  31.429  33.206   0.735
33515W        W 6583   4.795  13.120  10.728
33516W        W 6584  17.804  28.393  11.711
33517W        W 6585  33.216  26.689  13.521
33518W        W 6586  37.585  32.996   4.041
33519W        W 6587   3.819   9.384   1.744
33520W        W 6588  39.300  13.817  14.821
33521W        W 6589  44.312   6.321  12.481
33522W        W 6590  17.483  29.869  11.633
33523W        W 6591  42.739   2.383   3.113
33524W        W 6592  15.562  25.651  11.043
33525W        W 6593  28.073  27.169  10.967
33526W        W 6594  23.692  23.822   2.140
33527W        W 6595  30.894   4.927  12.540
33528W        W 6596   6.640  44.935   3.646
33529W        W 6597  32.883  30.025   2.968
33530W        W 6598  14.772  32.030   3.112
33531W        W 6599  41.609  31.655  14.734
33532W        W 6600  10.237  22.627  14.835
33533W        W 6601  29.608  38.528  11.652
33534W        W 6602  29.677  19.345   4.195
33535W        W 6603  15.594  15.134   4.658
33536W        W 6604  26.433  18.107  11.919
33537W        W 6605  35.087   0.305   1.637
33538W        W 6606  20.041   6.954   1.901
33539W        W 6607  36.984   5.791   2.683
33540W        W 6608  26.574   7.371  11.621
33541W        W 6609  41.066   7.506   4.314
33542W        W 6610   0.949  40.658  11.100
33543W        W 6611   4.011  32.923   0.401
33544W        W 6612  28.280  39.488  12.368
33545W        W 6613  25.005  34.806  14.476
33546W        W 6614  29.929  20.629   0.490
33547W        W 6615  27.002   2.288  14.290
33548W        W 6616  23.435   6.140   2.183
33549W        W 6617  28.921  10.744   2.130
33550W        W 6618  34.038  36.183  11.658
33551W        W 6619   7.457  18.514   2.827
33552W        W 6620  13.166  28.624  13.414
33553W        W 6621   0.934  16.498   4.541
33554W        W 6622  36.503   1.265  11.519
33555W        W 6623   8.739  24.913   2.745
33556W        W 6624   6.855  37.204  14.745
33557W        W 6625  44.007  19.797  10.326
33558W        W 6626  24.260  10.719   3.149
33559W        W 6627  26.529   8.814  13.427
33560W        W 6628  22.048   3.769   2.919
33561W        W 6629   6.851  24.649  12.723
33562W        W 6630   7.300  27.941   2.185
33563W        W 6631  35.520   5.112   1.833
33564W        W 6632  17.059  26.113   2.699
33565W        W 6633  26.882  12.104  13.817
33566W        W 6634   4.155  40.473   4.196
33567W        W 6635  31.106  26.788   2.245
33568W        W 6636  26.868  25.619   3.085
33569W        W 6637  11.601  13.327  13.827
33570W        W 6638  36.484  41.853   0.972
33571W        W 6639   3.767  23.977   2.701
33572W        W 6640   4.248  10.387   4.142
33573W        W 6641   4.999   3.393   0.292
33574W        W 6642  35.572   7.951   2.577
33575W        W 6643  37.872  43.943  11.411
33576W        W 6644  41.093  10.107   3.584
33577W        W 6645   7.850  23.438  11.959
33578W        W 6646  37.967  40.513  13.384
33579W        W 6647  20.033  21.734  10.665
33580W        W 6648   0.364  28.399  10.747
33581W        W 6649  37.049  34.962   3.196
33582W        W 6650   9.629  16.067   0.471
33583W        W 6651   1.535  31.597  14.024
33584W        W 6652   0.831  18.027   4.517
33585W        W 6653  16.293  35.875  11.710
33586W        W 6654  16.685  37.274  11.676
33587W        W 6655   7.845  21.482   1.844
33588W        W 6656  23.765  14.574  13.434
33589W        W 6657  22.663  32.464  10.820
33590W        W 6658  33.613   1.714  11.408
33591W        W 6659  34.405  44.913   4.118
33592W        W 6660   9.234   1.270  13.991
33593W        W 6661   2.358  14.351  10.300
33594W        W 6662   3.015  30.221   3.653
33595W        W 6663   8.589  19.073   0.893
33596W        W 6664  41.790  21.470  12.554
33597W        W 6665   4.411  23.926  12.136
33598W        W 6666   0.089  13.739   0.899
33599W        W 6667  27.942  28.730   1.288
33600W        W 6668   9.651  31.097  13.790
33601W        W 6669   0.315  40.935   1.191
33602W        W 6670  38.060   2.870   1.679
33603W        W 6671  26.672  44.560   4.924
33604W        W 6672  21.622  39.549   2.677
33605W        W 6673  37.664  16.210   2.785
33606W        W 6674  13.892  14.851   0.448
33607W        W 6675  37.239  13.363   2.801
33608W        W 6676   7.825  28.631  12.685
33609W        W 6677  38.497  16.394   4.097
33610W        W 6678  14.617  33.051  11.095
33611W        W 6679   2.566  24.131   4.033
33612W        W 6680  35.629  18.819  11.167
33613W        W 6681  36.698  41.327   0.412
33614W        W 6682  43.009  20.178   0.455
33615W        W 6683  32.187  44.955   1.371
33616W        W 6684   5.293  36.709  13.809
33617W        W 6685  22.104   0.178   0.900
33618W        W 6686  21.501  27.196  10.645
33619W        W 6687  39.358  12.294   4.251
33620W        W 6688  20.235  44.922   3.260
33621W        W 6689   4.250  36.092  11.033
33622W        W 6690   3.674  10.844  13.357
33623W        W 6691  10.396  28.469  14.806
33624W        W 6692   0.501   3.887  14.421
33625W        W 6693  41.309  44.997   1.293
33626W        W 6694  33.088  24.001   4.491
33627W        W 6695  13.187  42.210  12.035
33628W        W 6696  10.190  34.842  11.590
33629W        W 6697  21.261   4.531   3.212
33630W        W 6698  31.021  17.076   2.400
33631W        W 6699  15.754  39.116   0.002
33632W        W 6700  27.537  21.255   0.281
33633W        W 6701  42.006  28.190  12.535
33634W        W 6702  29.081  30.376  12.952
33635W        W 6703  20.002   7.334  11.419
33636W        W 6704  19.442  37.853   0.363
33637W        W 6705  39.259  17.747   3.883
33638W        W 6706  26.381  37.659  12.135
33639W        W 6707  24.872  31.555   0.850
33640W        W 6708  23.648  36.551  13.348
33641W        W 6709   3.734  21.056   0.702
33642W        W 6710  30.186  12.246   3.289
33643W        W 6711  20.815  19.444   4.270
33644W        W 6712   9.369  17.975  13.374
33645W        W 6713  19.526  16.301   2.826
33646W        W 6714  31.543  10.407  10.832
33647W        W 6715   8.771  24.022   0.230
33648W        W 6716  32.340  22.640   4.155
33649W        W 6717  10.523  27.740  11.140
33650W        W 6718  42.594  20.213  13.905
33651W        W 6719  44.816  18.171   3.627
33652W        W 6720  29.113  44.537   0.303
33653W        W 6721  29.423   1.765   1.929
33654W        W 6722  13.083   8.644   0.773
33655W        W 6723  14.795   3.972   3.129
33656W        W 6724  18.043   8.321  13.923
33657W        W 6725  38.630  26.108   0.173
33658W        W 6726  13.655  36.801   2.292
33659W        W 6727  12.993  41.453  10.168
33660W        W 6728   2.194  22.968  14.409
33661W        W 6729  41.246  11.720  12.587
33662W        W 6730   3.986  30.427  10.845
33663W        W 6731  23.679  18.035  11.174
33664W        W 6732   5.503  20.295  13.551
33665W        W 6733  13.757  27.658   0.394
33666W        W 6734  33.520  32.978  11.955
33667W        W 6735  43.029  24.633   0.297
33668W        W 6736   6.746  41.909   0.954
33669W        W 6737   7.783  42.255  11.902
33670W        W 6738  33.002  19.682   3.267
33671W        W 6739   4.737   7.431  11.870
33672W        W 6740   3.948  43.701   2.229
33673W        W 6741  29.848  32.826   1.247
33674W        W 6742  30.437  22.773   3.208
33675W        W 6743  28.567  35.174  10.725
33676W        W 6744  38.695  29.528  12.118
33677W        W 6745  30.610  33.382   4.149
33678W        W 6746  13.626  18.130   4.273
33679W        W 6747  25.021   7.006  11.098
33680W        W 6748  34.636  37.491  13.339
33681W        W 6749  23.962  26.706   1.413
33682W        W 6750  22.498  20.764   3.669
33683W        W 6751  20.989   6.694  14.877
33684W        W 6752  11.052  41.537   1.958
33685W        W 6753  31.482  17.391  10.769
33686W        W 6754  42.196  28.911   4.264
33687W        W 6755  11.774  19.446   9.693
33688W        W 6756  25.860   9.370  14.331
33689W        W 6757  41.301  18.591  14.590
33690W        W 6758  35.898  13.827  10.595
33691W        W 6759  10.845  15.095   1.164
33692W        W 6760  33.138  33.064   1.713
33693W        W 6761  38.296   2.862   0.446
33694W        W 6762   9.870  17.773  14.988
33695W        W 6763  34.567   2.465  10.766
33696W        W 6764   8.510   1.614  12.049
33697W        W 6765  14.113  38.353  13.499
33698W        W 6766  13.219   2.832   4.417
33699W        W 6767   8.254  23.997  11.644
33700W        W 6768  34.109   3.820  14.796
33701W        W 6769  25.029  37.974   9.723
33702W        W 6770   0.860  34.555  14.958
33703W        W 6771  43.860   7.242  12.289
33704W        W 6772  36.327   2.596   3.180
33705W        W 6773   9.018  41.464   3.160
33706W        W 6774  26.355  14.859   2.381
33707W        W 6775   9.571  44.334   0.869
33708W        W 6776   7.204  25.216   2.860
33709W        W 6777  42.494  12.478   1.344
33710W        W 6778  36.298  43.326  13.703
33711W        W 6779  24.312  33.683  11.247
33712W        W 6780  32.964  11.671  11.738
33713W        W 6781   0.497  10.732  11.627
33714W        W 6782  13.159  27.472   2.230
33715W        W 6783   1.921  21.223  14.900
33716W        W 6784  24.645  21.032   0.303
33717W        W 6785  25.811  32.203   2.505
33718W        W 6786  26.976  35.524  12.436
33719W        W 6787  33.443   9.398   2.717
33720W        W 6788   3.530  16.689   1.801
33721W        W 6789   1.751  25.196  12.879
33722W        W 6790  39.682  28.149  14.710
33723W        W 6791  40.912  36.292   0.158
33724W        W 6792  31.368  39.416  11.487
33725W        W 6793  18.334   1.411   1.134
33726W        W 6794  25.129   6.190   2.200
33727W        W 6795  15.170  22.004   1.950
33728W        W 6796   7.141  11.446   3.148
33729W        W 6797   1.729   2.889   0.278
33730W        W 6798  29.905  29.698   1.770
33731W        W 6799  35.964  29.585   4.520
33732W        W 6800  13.318  30.668   2.498
33733W        W 6801  17.736  41.565   1.779
33734W        W 6802  30.905  11.827  14.850
33735W        W 6803  42.941  29.643  11.937
33736W        W 6804  40.079   2.272  13.042
33737W        W 6805  20.619  32.672  12.888
33738W        W 6806  24.902   0.810   1.779
33739W        W 6807  27.867  22.507   4.296
33740W        W 6808  43.462   2.715   3.089
33741W        W 6809  20.792  39.091   0.281
33742W        W 6810  27.971  13.692   4.167
33743W        W 6811   2.873  42.893  14.887
33744W        W 6812  13.317  35.869   2.230
33745W        W 6813  38.762   3.386  14.979
33746W        W 6814  10.440  33.896   0.377
33747W        W 6815   2.290   3.019   4.595
33748W        W 6816  27.411  27.912   0.530
33749W        W 6817  34.382  28.443  11.662
33750W        W 6818  43.971  43.268   2.822
33751W        W 6819   3.147   4.188   0.173
33752W        W 6820  38.451  11.779   2.143
33753W        W 6821   3.887  31.388  10.671
33754W        W 6822  13.726  17.091   1.439
33755W        W 6823  44.821   5.517  13.469
33756W        W 6824  21.631   3.513  14.338
33757W        W 6825  35.947  32.009   1.412
33758W        W 6826   5.227   5.508  10.823
33759W        W 6827  40.737  34.954  12.580
33760W        W 6828  39.046  36.847   3.677
33761W        W 6829  36.541  14.695   4.569
33762W        W 6830  18.152  17.790  11.980
33763W        W 6831  40.119  13.236  10.603
33764W        W 6832  35.961  43.125   0.447
33765W        W 6833  34.638  16.776   1.883
33766W        W 6834   4.925   4.253  10.721
33767W        W 6835   4.771  39.392   3.859
33768W        W 6836  26.516  21.736  11.607
33769W        W 6837  16.516  17.244   0.830
33770W        W 6838   7.878  40.956  10.976
33771W        W 6839  29.190  34.336   4.053
33772W        W 6840  25.959  38.516  13.049
33773W        W 6841  33.166  35.127  11.421
33774W        W 6842  13.492  24.993   2.357
33775W        W 6843  12.324  13.827   5.166
33776W        W 6844  38.893  22.731   4.578
33777W        W 6845  17.299   3.295   3.818
33778W        W 6846  44.323  27.772  14.394
33779W        W 6847   0.735  19.853   2.506
33780W        W 6848  28.551  33.115  12.035
33781W        W 6849  31.120   7.658   2.412
33782W        W 6850  43.749  13.955   0.334
33783W        W 6851   4.609  33.447   3.643
33784W        W 6852   9.780  33.562  11.406
33785W        W 6853   9.514  16.532   4.639
33786W        W 6854   9.032   5.088  11.933
33787W        W 6855  40.521   9.836  14.292
33788W        W 6856  44.032  19.957  11.747
33789W        W 6857  26.152  17.018  12.942
33790W        W 6858  25.462   6.092   2.590
33791W        W 6859  22.598  19.311   2.747
33792W        W 6860   2.224   5.683  12.406
33793W        W 6861  42.291   6.770   2.242
33794W        W 6862  17.571   2.915  13.075
33795W        W 6863  27.535  12.627  12.357
33796W        W 6864   3.647  13.068  12.961
33797W        W 6865  16.263  32.696   1.853
33798W        W 6866  18.644  34.339   3.429
33799W        W 6867  43.243  36.010   2.352
33800W        W 6868   8.178  34.980   0.368
33801W        W 6869   5.782  20.116   1.337
33802W        W 6870   7.295  30.139   0.690
33803W        W 6871  11.621  44.940  11.740
33804W        W 6872  14.311  15.605  11.076
33805W        W 6873   5.721  23.475   4.222
33806W        W 6874   2.095  23.274   4.186
33807W        W 6875  26.965  39.411   1.387
33808W        W 6876  26.630  24.129   3.291
33809W        W 6877  23.085   7.184  12.172
33810W        W 6878  18.229  13.556   1.219
33811W        W 6879  32.299  26.154  13.048
33812W        W 6880  21.623   6.440   4.328
33813W        W 6881  24.993  10.626   0.566
33814W        W 6882  30.339  28.337   2.839
33815W        W 6883  10.845  39.554  14.325
33816W        W 6884   9.027  13.737   2.296
33817W        W 6885  23.040  34.234   1.238
33818W        W 6886  21.811  22.694  11.143
33819W        W 6887  41.992  39.426  12.010
33820W        W 6888  25.624  27.585   2.238
33821W        W 6889   8.781  31.550  14.492
33822W        W 6890   0.732  17.167  10.655
33823W        W 6891  36.157  10.064   3.675
33824W        W 6892   1.900  12.594   0.976
33825W        W 6893  12.970  19.041  14.318
33826W        W 6894  36.074  37.355   0.007
33827W        W 6895  33.698   6.846   0.351
33828W        W 6896  44.837  16.300  11.221
33829W        W 6897   5.779  39.023  11.119
33830W        W 6898   1.463   6.792   0.012
33831W        W 6899  42.310  16.438  14.761
33832W        W 6900  17.485  40.332   1.863
33833W        W 6901  10.029  19.479  12.593
33834W        W 6902  27.093  43.752  14.872
33835W        W 6903   7.764  36.893   4.375
33836W        W 6904  31.634  38.743  11.077
33837W        W 6905  25.439  36.867  13.002
33838W        W 6906  17.553  34.474  14.408
33839W        W 6907  36.884  24.996  13.912
33840W        W 6908  34.109  32.249  12.723
33841W        W 6909  10.337   9.625   1.921
33842W        W 6910   4.046  40.599  11.195
33843W        W 6911   2.004  34.491  11.058
33844W        W 6912  26.455  36.926   3.359
33845W        W 6913   0.453  42.976   1.020
33846W        W 6914  27.220  19.293   0.867
33847W        W 6915  30.746  43.444   3.620
33848W        W 6916  37.130  27.116   3.908
33849W        W 6917  13.752  10.789  12.048
33850W        W 6918  36.271  19.590   3.633
33851W        W 6919  32.935   4.371  12.972
33852W        W 6920  26.649  30.448   4.693
33853W        W 6921   9.812  31.936  13.375
33854W        W 6922  35.151  38.138   2.298
33855W        W 6923   9.913   7.618   1.319
33856W        W 6924  18.082  11.795   4.634
33857W        W 6925  10.796  26.296  11.661
33858W        W 6926   3.931  28.211   5.019
33859W        W 6927  10.379  33.951   1.335
33860W        W 6928  23.170   4.399  12.522
33861W        W 6929   8.252   2.647  13.778
33862W        W 6930   3.113  15.028   3.896
33863W        W 6931  13.965  11.019  11.195
33864W        W 6932  24.495  40.280  10.657
33865W        W 6933  19.798  26.611  14.523
33866W        W 6934  22.754  39.460   0.208
33867W        W 6935   4.958  23.591  13.624
33868W        W 6936  39.788  19.024  12.439
33869W        W 6937  19.132   7.357  12.434
33870W        W 6938   6.860  21.050  11.034
33871W        W 6939  36.097  32.526   2.315
33872W        W 6940   4.978   7.802  11.136
33873W        W 6941  23.669  29.200   1.260
33874W        W 6942  17.222  17.625   1.258
33875W        W 6943  29.582  36.129   5.177
33876W        W 6944  30.539  41.045  10.504
33877W        W 6945  37.838   8.179   1.306
33878W        W 6946  24.359  32.031   5.084
33879W        W 6947  37.043  23.661  11.569
33880W        W 6948  32.445   1.436   1.775
33881W        W 6949  35.603   8.774  13.849
33882W        W 6950  21.232  25.076  11.153
33883W        W 6951  21.487  40.585  12.372
33884W        W 6952  27.126  37.511  11.606
33885W        W 6953  39.885  22.551  13.997
33886W        W 6954  12.887   4.378  13.520
33887W        W 6955   0.058  40.290   1.833
33888W        W 6956  26.157  41.029  13.818
33889W        W 6957  19.861  13.357   4.971
33890W        W 6958   1.480  37.561  10.492
33891W        W 6959   9.237  20.098   2.781
33892W        W 6960  37.840  28.034   3.158
33893W        W 6961  12.726   1.793   0.319
33894W        W 6962  16.141  29.473   4.102
33895W        W 6963   4.133  27.308   4.214
33896W        W 6964   6.786   2.270   1.460
33897W        W 6965   6.691  37.893  12.565
33898W        W 6966  26.802  35.238  12.053
33899W        W 6967  39.976  37.730   4.532
33900W        W 6968  39.667  39.255  11.678
33901W        W 6969  20.510  10.354  11.599
33902W        W 6970  25.562  27.965   0.743
33903W        W 6971  13.190  20.229   2.340
33904W        W 6972  25.341   0.140  12.090
33905W        W 6973  35.034  28.107   1.656
33906W        W 6974  20.279  30.726  13.204
33907W        W 6975   9.158  41.095  12.586
33908W        W 6976  41.912  40.112  14.357
33909W        W 6977  33.011  23.082  13.404
33910W        W 6978  31.684  19.315   0.269
33911W        W 6979   2.285   5.415   3.932
33912W        W 6980  27.070   2.344  12.938
33913W        W 6981   9.121  37.804   4.548
33914W        W 6982  35.237  13.523   0.809
33915W        W 6983  18.522  36.987  14.911
33916W        W 6984  28.750  43.287   3.558
33917W        W 6985  35.496  22.249  12.007
33918W        W 6986  16.803  22.454  13.750
33919W        W 6987  34.976  30.607   0.717
33920W        W 6988  39.176  13.897   3.719
33921W        W 6989   5.691  11.253   2.461
33922W        W 6990  24.667  36.181  14.689
33923W        W 6991  24.223  27.676   1.280
33924W        W 6992  16.615  43.035   3.666
33925W        W 6993  16.339   7.194  11.206
33926W        W 6994  20.687  29.876   1.429
33927W        W 6995  29.476  35.319   4.693
33928W        W 6996   8.672  39.428   2.888
33929W        W 6997  29.528   0.013  12.892
33930W        W 6998  20.115  37.317   1.795
33931W        W 6999  33.621   3.204   5.085
33932W        W 7000  34.668  25.179  12.590
33933W        W 7001  40.787  42.276  12.465
33934W        W 7002   7.539  10.038   2.169
33935W        W 7003  13.803  41.861  13.356
33936W        W 7004  42.517  42.545   3.704
33937W        W 7005  43.758  10.845   3.683
33938W        W 7006   4.043   6.465  12.502
33939W        W 7007  41.596  36.601  14.048
33940W        W 7008   9.912   7.780   4.277
33941W        W 7009  18.732   6.962   1.491
33942W        W 7010  24.090  13.273  14.856
33943W        W 7011  44.984   0.163  14.249
33944W        W 7012  19.147  28.897   0.782
33945W        W 7013   8.193   6.632  12.973
33946W        W 7014  21.970  22.958   0.762
33947W        W 7015  17.262  39.217  14.422
33948W        W 7016  14.582  43.779  13.376
33949W        W 7017  23.930  15.215   0.128
33950W        W 7018  31.414   9.234  11.185
33951W        W 7019  11.759   3.841  12.946
33952W        W 7020  24.997  28.470  10.767
33953W        W 7021  12.178  43.986  12.476
33954W        W 7022  13.813  24.469   1.135
33955W        W 7023  32.488  33.406  12.139
33956W        W 7024  43.812   8.429  13.277
33957W        W 7025  38.289   7.262  12.587
33958W        W 7026   2.445  42.061   3.624
33959W        W 7027   8.884  20.023   3.582
33960W        W 7028  10.172  25.500  10.567
33961W        W 7029   7.295   4.318  12.405
33962W        W 7030  10.393   1.369   2.684
33963W        W 7031  43.256  20.590   3.668
33964W        W 7032  18.596  40.755   2.268
33965W        W 7033  28.131  43.352  13.097
33966W        W 7034  40.203  28.258  10.730
33967W        W 7035   8.756   0.133   3.847
33968W        W 7036   4.440  40.943  11.085
33969W        W 7037  16.807  17.545  12.305
33970W        W 7038  12.232  33.421  10.480
33971W        W 7039  40.891  39.313   2.229
33972W        W 7040  40.075  11.887   4.376
33973W        W 7041  27.344  24.043  13.255
33974W        W 7042  31.981  22.352  12.204
33975W        W 7043  33.464  12.623   2.789
33976W        W 7044  21.321  11.417  12.585
33977W        W 7045  26.357  33.638  12.944
33978W        W 7046  23.863  32.128   4.934
33979W        W 7047  16.767   2.245   1.390
33980W        W 7048  16.711  36.064  11.440
33981W        W 7049  14.702  36.126  12.476
33982W        W 7050  36.387  28.174   1.468
33983W        W 7051  42.925   5.802   0.908
33984W        W 7052  20.040   0.400  10.654
33985W        W 7053  27.135  23.125  11.516
33986W        W 7054   2.734  36.896  10.647
33987W        W 7055  44.488   0.949  12.587
33988W        W 7056  23.695  19.805   2.407
33989W        W 7057  10.133  37.115   9.694
33990W        W 7058  13.516   9.688   2.924
33991W        W 7059   9.894  35.652   4.656
33992W        W 7060  11.959  16.452   1.825
33993W        W 7061   0.407   6.627   1.360
33994W        W 7062  12.284  32.195   0.451
33995W        W 7063  42.281   1.216  13.265
33996W        W 7064  40.853  29.113   3.757
33997W        W 7065  42.559  24.757   1.342
33998W        W 7066  16.759  40.952  12.646
33999W        W 7067  30.919  27.999  10.648
34000W        W 7068  23.973   2.628   4.136
34001W        W 7069  32.674   3.470   4.737
34002W        W 7070  36.337  30.243   4.521
34003W        W 7071  30.571   9.597  11.927
34004W        W 7072  43.825   3.908   0.454
34005W        W 7073  40.900  10.192   4.072
34006W        W 7074  40.288  10.729  10.753
34007W        W 7075   6.152  21.927   4.798
34008W        W 7076  11.968  10.818   4.591
34009W        W 7077  36.964   8.601  14.900
34010W        W 7078  28.374  32.122  12.449
34011W        W 7079  22.314  32.558  13.461
34012W        W 7080  15.605  21.815   1.742
34013W        W 7081  16.046  32.088  11.359
34014W        W 7082  41.365  31.962   1.163
34015W        W 7083  36.947  23.254   3.780
34016W        W 7084  27.903  42.012   3.666
34017W        W 7085  16.966  25.510   1.765
34018W        W 7086  18.449  35.545  11.877
34019W        W 7087   4.867  23.742  12.559
34020W        W 7088   3.718  19.120   1.137
34021W        W 7089  31.454  18.711   4.515
34022W        W 7090  24.550  31.221  11.990
34023W        W 7091  32.118   1.955  12.879
34024W        W 7092  17.143  33.802  13.885
34025W        W 7093  39.585  22.162   2.367
34026W        W 7094   0.058  26.885   1.840
34027W        W 7095  26.675  16.566   1.713
34028W        W 7096  33.591  19.358  10.230
34029W        W 7097   1.330  22.584   4.026
34030W        W 7098  34.832  10.807  14.338
34031W        W 7099  21.367  30.596   2.115
34032W        W 7100   1.053   1.246  11.590
34033W        W 7101  13.349  26.051  13.468
34034W        W 7102  40.138  10.390   0.350
34035W        W 7103  42.932   5.711  13.621
34036W        W 7104  18.655  42.909   2.847
34037W        W 7105  25.391  26.219  14.092
34038W        W 7106  30.034  19.781  11.414
34039W        W 7107  43.193  16.427   3.687
34040W        W 7108  36.794   9.873   4.478
34041W        W 7109  13.273   8.630   1.286
34042W        W 7110   9.385  44.713  12.526
34043W        W 7111   3.188   7.474  13.030
34044W        W 7112  33.013  28.948  11.957
34045W        W 7113  44.236  17.267  14.963
34046W        W 7114  31.385  10.733   0.877
34047W        W 7115  12.092   0.009   2.273
34048W        W 7116  38.039   9.894   1.987
34049W        W 7117  40.459  30.459  12.990
34050W        W 7118  30.208   3.143  14.102
34051W        W 7119  20.526  21.088  14.496
34052W        W 7120  24.978   8.425  14.419
34053W        W 7121  34.762   6.385   3.226
34054W        W 7122  16.205  32.969  10.776
34055W        W 7123  10.538   1.235  11.092
34056W        W 7124  30.174  11.453   3.714
34057W        W 7125  41.339  19.001  11.918
34058W        W 7126   4.437  23.155   2.332
34059W        W 7127  17.974   8.642   2.641
34060W        W 7128  11.033   3.688  14.847
34061W        W 7129   4.625  38.419   2.556
34062W        W 7130  16.426  34.063  11.305
34063W        W 7131   3.643  38.969  10.726
34064W        W 7132  26.464  39.811   1.866
34065W        W 7133  14.165  30.108  12.079
34066W        W 7134  36.116   1.725   0.237
34067W        W 7135   4.281  14.482   2.249
34068W        W 7136  43.706   7.865   2.240
34069W        W 7137  17.768  39.476  11.533
34070W        W 7138   5.868  42.588  11.615
34071W        W 7139  40.900   1.945  10.854
34072W        W 7140  18.519  19.314   2.701
34073W        W 7141  31.633  30.782  14.578
34074W        W 7142  35.010  13.463   2.265
34075W        W 7143  16.966  20.082  11.743
34076W        W 7144  22.724   2.718   3.517
34077W        W 7145  21.543  19.283  12.409
34078W        W 7146  43.885   4.389   0.234
34079W        W 7147  42.905  31.436   4.602
34080W        W 7148  43.803  39.887  14.051
34081W        W 7149  19.034  24.000   1.291
34082W        W 7150  28.255  24.972   0.001
34083W        W 7151   9.174  41.530  11.999
34084W        W 7152   9.380  23.426   1.260
34085W        W 7153  11.324  12.196  14.818
34086W        W 7154  29.146  11.296   0.406
34087W        W 7155  35.722  30.546   4.124
34088W        W 7156  34.972  24.643   3.106
34089W        W 7157  17.113  10.916   3.664
34090W        W 7158   3.297  20.680  10.744
34091W        W 7159  21.676   7.816   0.433
34092W        W 7160  19.531  26.185  14.589
34093W        W 7161  32.069  10.907  11.268
34094W        W 7162   8.699  34.992   4.530
34095W        W 7163  16.122  40.402   3.637
34096W        W 7164  24.453   7.279   1.208
34097W        W 7165  11.041  31.103  14.710
34098W        W 7166   0.682  23.471   4.170
34099W        W 7167  40.838  41.582   0.347
34100W        W 7168   0.263   1.934  14.933
34101W        W 7169  21.520  23.686   0.845
34102W        W 7170  29.768  26.093   2.347
34103W        W 7171  22.642   0.340   5.025
34104W        W 7172  19.282   9.825   2.306
34105W        W 7173   6.804   4.624   0.215
34106W        W 7174   7.243  42.256  12.646
34107W        W 7175   2.307  19.943  13.440
34108W        W 7176  32.183  15.480  12.578
34109W        W 7177  21.295  42.969   2.892
34110W        W 7178  31.066  33.621   4.116
34111W        W 7179  33.980  13.923  14.898
34112W        W 7180  16.537  16.065   1.692
34113W        W 7181  36.675  10.866  13.258
34114W        W 7182  40.702  44.875   3.693
34115W        W 7183  35.785  37.958  12.457
34116W        W 7184  17.185  14.574   1.428
34117W        W 7185  21.101   3.714   2.841
34118W        W 7186  11.759  24.530  10.451
34119W        W 7187  35.315  30.005   0.751
34120W        W 7188  21.644  12.215  14.039
34121W        W 7189  31.673  17.393   1.359
34122W        W 7190   9.218  16.150  12.793
34123W        W 7191  41.456  35.709  11.217
34124W        W 7192  43.063  21.229   4.944
34125W        W 7193  28.207  14.199   3.251
34126W        W 7194  19.237  34.508  12.460
34127W        W 7195  32.585  41.913  14.995
34128W        W 7196  39.385  17.864  13.069
34129W        W 7197   4.317  30.000  10.801
34130W        W 7198   8.859  36.437   3.610
34131W        W 7199  29.981  21.730   3.630
34132W        W 7200  27.850  10.198   0.203
34133W        W 7201  31.200  23.522  10.775
34134W        W 7202  11.826  29.155   2.466
34135W        W 7203  41.941  32.205  13.487
34136W        W 7204  44.445  38.016  12.869
34137W        W 7205  11.652  31.698  14.869
34138W        W 7206  44.699  29.031  11.001
34139W        W 7207  25.917  41.500  12.501
34140W        W 7208  44.002   0.415  12.947
34141W        W 7209   9.287  44.671   1.200
34142W        W 7210   8.389  42.156   0.930
34143W        W 7211   4.739  40.973  10.658
34144W        W 7212  36.984  30.128  10.694
34145W        W 7213  29.902  22.701   4.225
34146W        W 7214  13.093  12.286   0.974
34147W        W 7215  29.721  32.914   2.767
34148W        W 7216  13.769  34.839  13.368
34149W        W 7217  29.572   6.548   0.355
34150W        W 7218  25.276  19.282  14.214
34151W        W 7219  33.397   5.191  14.495
34152W        W 7220   7.648  41.808  14.865
34153W        W 7221  17.106   7.374  11.650
34154W        W 7222  12.097   4.399   0.273
34155W        W 7223  37.469  16.366   3.226
34156W        W 7224  10.194  21.270  10.895
34157W        W 7225  23.452  17.761  14.322
34158W        W 7226  41.057   9.897  14.225
34159W        W 7227  22.131  22.287  12.505
34160W        W 7228  31.629  22.032   3.765
34161W        W 7229   9.398  41.972   4.546
34162W        W 7230  41.945  14.175  14.375
34163W        W 7231  18.542  23.646   3.852
34164W        W 7232  21.296  44.888  12.998
34165W        W 7233   5.719  39.028  14.506
34166W        W 7234   1.335  13.694  13.521
34167W        W 7235   0.084  28.524   1.457
34168W        W 7236   1.287  40.278   1.650
34169W        W 7237  22.149  41.475   0.311
34170W        W 7238  34.060   0.966  12.423
34171W        W 7239   6.837   7.282  12.938
34172W        W 7240  14.802   5.830   4.717
34173W        W 7241  40.018   1.731   4.282
34174W        W 7242  38.490  42.326   2.179
34175W        W 7243   5.345  42.907   4.084
34176W        W 7244  40.360  20.762  12.412
34177W        W 7245  23.134  33.167  11.223
34178W        W 7246  30.564  13.057  10.939
34179W        W 7247  29.489  23.739  14.458
34180W        W 7248  43.314  24.754   4.901
34181W        W 7249   2.803  43.414   1.185
34182W        W 7250  12.597  10.114   2.857
34183W        W 7251  29.512  41.362  13.912
34184W        W 7252  39.966   2.570   4.617
34185W        W 7253  11.599  22.597   3.277
34186W        W 7254  19.015  38.049  13.991
34187W        W 7255  28.228  17.277  10.796
34188W        W 7256  24.092   9.209   4.639
34189W        W 7257  36.561  36.623   4.447
34190W        W 7258  38.825  30.200   4.653
34191W        W 7259  43.061  17.597  12.701
34192W        W 7260  15.885  30.593   3.373
34193W        W 7261  21.095   9.728  12.053
34194W        W 7262   8.131   3.371   2.250
34195W        W 7263   0.297  22.682   2.166
34196W        W 7264   9.686  35.061   0.847
34197W        W 7265   0.518  28.705  14.515
34198W        W 7266  25.497  25.631  14.252
34199W        W 7267   0.216   2.654   4.277
34200W        W 7268  30.399  32.356   0.624
34201W        W 7269  12.768  11.458   1.460
34202W        W 7270  36.543  30.602  14.786
34203W        W 7271  12.210  13.673   2.465
34204W        W 7272  17.641  29.773   1.846
34205W        W 7273  37.455   9.742   0.822
34206W        W 7274  16.832   6.219  12.941
34207W        W 7275  39.971  11.676  11.734
34208W        W 7276  24.089  30.577   2.345
34209W        W 7277  30.335  27.466  12.985
34210W        W 7278  24.646  14.033  10.666
34211W        W 7279   1.886  32.837  13.644
34212W        W 7280  22.064  36.831   3.231
34213W        W 7281   0.514  25.187  10.725
34214W        W 7282  16.643  12.461  14.635
34215W        W 7283  25.936  17.677  11.667
34216W        W 7284   1.293   0.428  12.655
34217W        W 7285  13.029  41.179   5.262
34218W        W 7286  22.137  19.487  13.983
34219W        W 7287   4.784   5.433   1.519
34220W        W 7288  42.397   0.464   4.152
34221W        W 7289  11.699  34.051   0.924
34222W        W 7290  17.678  27.935  12.423
34223W        W 7291  11.078  21.601   1.388
34224W        W 7292   5.403  25.453   0.335
34225W        W 7293  39.749   5.455  13.669
34226W        W 7294  31.544  19.734   3.555
34227W        W 7295   4.901  15.950  13.097
34228W        W 7296  25.162  11.104   0.699
34229W        W 7297  42.048  23.505   0.312
34230W        W 7298  13.379  13.315  11.861
34231W        W 7299  40.815  29.598  13.994
34232W        W 7300  35.550  35.612  12.309
34233W        W 7301  30.465   9.103  11.779
34234W        W 7302   2.265  26.913   1.815
34235W        W 7303   7.745   5.229  11.697
34236W        W 7304  31.721  30.395  14.258
34237W        W 7305  25.869  39.090   0.964
34238W        W 7306  32.143  31.241  12.024
34239W        W 7307  20.034  18.194   4.468
34240W        W 7308  11.338  31.918   0.837
34241W        W 7309   1.354   5.749  13.909
34242W        W 7310  12.107  32.384   2.323
34243W        W 7311  26.015  29.097   1.308
34244W        W 7312   3.882  38.330   0.283
34245W        W 7313  23.996  27.220   1.382
34246W        W 7314   7.046  28.194  13.288
34247W        W 7315   1.275  12.138   1.505
34248W        W 7316  12.508   6.297   2.204
34249W        W 7317  25.540   8.943  12.105
34250W        W 7318   5.146  13.997  11.161
34251W        W 7319  38.545   8.858  12.421
34252W        W 7320  20.856  27.115  13.173
34253W        W 7321  22.442  32.338  14.404
34254W        W 7322  32.702  32.514  11.148
34255W        W 7323  24.654   1.378  12.848
34256W        W 7324  39.510  31.558  13.427
34257W        W 7325   6.505  26.509   0.343
34258W        W 7326   2.799   2.197   2.201
34259W        W 7327   8.278  43.242   0.939
34260W        W 7328  36.870  35.052  13.258
34261W        W 7329  39.359  36.363   1.972
34262W        W 7330  44.250  17.127   4.684
34263W        W 7331  10.608  40.051  13.438
34264W        W 7332  23.182  39.285  12.884
34265W        W 7333  11.644  32.822   2.086
34266W        W 7334  37.809  42.284  13.869
34267W        W 7335  41.980   2.442  10.494
34268W        W 7336   5.770  16.599  13.374
34269W        W 7337  32.922  34.936   1.735
34270W        W 7338   7.299  26.729   0.707
34271W        W 7339  43.518  38.129  11.282
34272W        W 7340  37.622  36.862  13.880
34273W        W 7341  30.623   6.735   2.179
34274W        W 7342  24.960  38.888   1.890
34275W        W 7343   0.015  22.906   4.111
34276W        W 7344   4.018  29.684   2.755
34277W        W 7345  16.921  13.815  14.331
34278W        W 7346   4.779  30.595   3.727
34279W        W 7347  40.285  36.474  13.401
34280W        W 7348  27.476  26.070   3.872
34281W        W 7349   8.916  37.618  14.247
34282W        W 7350  19.208  27.073   2.748
34283W        W 7351  23.752  28.470  14.427
34284W        W 7352  24.494  25.002   0.540
34285W        W 7353  23.601  10.182   1.011
34286W        W 7354  12.783  13.754  14.255
34287W        W 7355  16.609  41.009   4.211
34288W        W 7356  37.005  31.949  11.158
34289W        W 7357  23.003  42.775   0.389
34290W        W 7358   7.857   4.658  12.959
34291W        W 7359  33.897  38.316   1.389
34292W        W 7360  32.422  38.241  10.708
34293W        W 7361  44.270  42.038   0.740
34294W        W 7362  39.501   5.904   3.603
34295W        W 7363  40.298  35.845   1.874
34296W        W 7364  25.487  32.524   3.430
34297W        W 7365  30.969  42.444  13.744
34298W        W 7366   8.211  10.250   4.165
34299W        W 7367  20.161  22.518   2.341
34300W        W 7368  38.429   9.104  10.727
34301W        W 7369  37.621  23.712   9.843
34302W        W 7370   6.752  29.034   4.628
34303W        W 7371   2.735  25.530   2.826
34304W        W 7372   1.347  40.554   0.667
34305W        W 7373  23.639  36.859   4.099
34306W        W 7374  13.778  27.001   3.885
34307W        W 7375  22.671  40.053   3.744
34308W        W 7376   3.537   7.913   5.161
34309W        W 7377  12.372  18.119  11.013
34310W        W 7378  11.415   1.841  13.945
34311W        W 7379  40.379   6.635  10.620
34312W        W 7380   8.193  36.277   2.602
34313W        W 7381  44.751  11.191  12.534
34314W        W 7382  10.964   6.403   0.848
34315W        W 7383  13.604  16.792   4.465
34316W        W 7384   1.754   7.625  10.711
34317W        W 7385  37.513  44.239  11.633
34318W        W 7386  18.856  19.297   3.101
34319W        W 7387  24.484  28.122   0.336
34320W        W 7388  23.042  31.171   0.663
34321W        W 7389  13.018   8.178   3.712
34322W        W 7390   5.867  27.117  12.219
34323W        W 7391  25.256   7.797   4.607
34324W        W 7392  38.690  15.856   3.648
34325W        W 7393  40.391  16.587  11.990
34326W        W 7394  23.475  26.716  12.474
34327W        W 7395   7.103  21.050   2.817
34328W        W 7396   4.763  44.275  10.659
34329W        W 7397  39.562  21.531  14.721
34330W        W 7398  27.624  16.452   2.435
34331W        W 7399  27.209  34.083   0.384
34332W        W 7400  35.074  22.690   0.910
34333W        W 7401  13.170  24.663   4.780
34334W        W 7402  26.725  21.110   4.490
34335W        W 7403  19.510  19.784   4.559
34336W        W 7404  41.817  36.590   0.491
34337W        W 7405   9.720  23.088   3.425
34338W        W 7406  38.913  30.941  10.970
34339W        W 7407   9.730  22.142   4.945
34340W        W 7408  23.389  39.093   4.059
34341W        W 7409   9.908   9.911   1.913
34342W        W 7410  26.694   5.765   4.165
34343W        W 7411  13.057  16.453   5.722
34344W        W 7412   0.733  13.775  12.676
34345W        W 7413  31.208   8.842  11.870
34346W        W 7414  29.886  34.025  11.533
34347W        W 7415  18.707  39.520  11.349
34348W        W 7416   0.419  25.463  13.760
34349W        W 7417  33.117   4.391  11.965
34350W        W 7418  11.818  14.740   0.073
34351W        W 7419   9.196   4.868  14.935
34352W        W 7420  33.101  18.265   3.296
34353W        W 7421  14.224  29.474   3.297
34354W        W 7422  26.944  13.226   4.699
34355W        W 7423  20.666  39.978   0.870
34356W        W 7424   8.680   4.709   4.503
34357W        W 7425  43.380  43.344   1.841
34358W        W 7426   2.263  39.242   2.808
34359W        W 7427   3.230  33.059  14.032
34360W        W 7428  22.124   3.789  14.308
34361W        W 7429  25.936   0.882  13.597
34362W        W 7430  40.312  19.759  11.008
34363W        W 7431  36.895  19.523   1.550
34364W        W 7432  14.064  42.333   1.386
34365W        W 7433  30.144  20.255   2.493
34366W        W 7434  18.645  16.059   3.387
34367W        W 7435  29.586   5.882   3.821
34368W        W 7436  38.921  23.268   3.724
34369W        W 7437  21.613  29.910   1.411
34370W        W 7438  15.780  15.675   0.769
34371W        W 7439  38.990  14.811  14.845
34372W        W 7440  14.158  33.169   2.967
34373W        W 7441   3.682  19.725   2.236
34374W        W 7442  35.413  39.630  14.773
34375W        W 7443  35.685  31.467  13.032
34376W        W 7444   6.955  14.671   1.154
34377W        W 7445   9.391  42.749  12.479
34378W        W 7446  38.446  24.775   0.426
34379W        W 7447  16.289  21.757  14.005
34380W        W 7448   3.000  14.922  11.047
34381W        W 7449  44.246  28.180  13.447
34382W        W 7450   5.608  43.053  12.990
34383W        W 7451   8.886  20.760   2.858
34384W        W 7452  20.025  31.129   4.130
34385W        W 7453  11.241  42.518   4.677
34386W        W 7454  26.605  20.049  10.784
34387W        W 7455  29.922  39.060   0.931
34388W        W 7456  20.656  31.428  11.199
34389W        W 7457  25.412  12.114  12.150
34390W        W 7458  20.808   0.813  13.439
34391W        W 7459  11.817  20.206   0.494
34392W        W 7460  17.056  17.659  11.873
34393W        W 7461   6.887  15.167  14.957
34394W        W 7462  21.494  27.605  11.984
34395W        W 7463  14.729  44.051  14.676
34396W        W 7464   6.710  28.160   1.189
34397W        W 7465  33.777   4.944  11.704
34398W        W 7466  27.606  14.555   1.421
34399W        W 7467  32.081   2.490   0.910
34400W        W 7468  22.057  31.555  14.488
34401W        W 7469  19.552  13.760   3.628
34402W        W 7470  31.494   5.769  10.817
34403W        W 7471  23.553   7.688  10.986
34404W        W 7472   1.985  16.785  14.750
34405W        W 7473  40.490  13.828   2.366
34406W        W 7474  41.385  29.832   0.856
34407W        W 7475  26.174   1.893  10.446
34408W        W 7476  18.219   6.151   1.335
34409W        W 7477   9.667  13.616  13.407
34410W        W 7478  23.646  14.858   0.447
34411W        W 7479  23.723  12.675   0.955
34412W        W 7480   0.402  22.005   4.148
34413W        W 7481  32.437  34.081   4.209
34414W        W 7482  24.450  28.479   4.655
34415W        W 7483   4.743  26.564  14.857
34416W        W 7484  20.052  22.313  12.018
34417W        W 7485  40.046  20.111  13.476
34418W        W 7486  11.235   5.213  13.032
34419W        W 7487  22.867  20.507  14.361
34420W        W 7488   8.277  28.741   3.070
34421W        W 7489  36.668  25.377  13.032
34422W        W 7490  15.676  18.590  14.605
34423W        W 7491   5.157  26.721  10.625
34424W        W 7492  33.920  12.911   4.043
34425W        W 7493  23.297  11.853   1.664
34426W        W 7494  15.317  38.361  13.434
34427W        W 7495  29.037  19.514   3.924
34428W        W 7496  40.442   8.280  14.277
34429W        W 7497  19.086   4.349  14.053
34430W        W 7498  17.059   5.918  11.157
34431W        W 7499  33.943  25.018   4.122
34432W        W 7500  29.531  28.160   4.561
34433W        W 7501   2.649  16.337  11.253
34434W        W 7502  11.352  33.957  14.556
34435W        W 7503   3.913  30.995   4.005
34436W        W 7504  20.634  38.738  14.354
34437W        W 7505   7.906  14.773  14.254
34438W        W 7506   6.935   7.286   1.785
34439W        W 7507   8.367   7.748  10.829
34440W        W 7508  16.350   9.574  11.089
34441W        W 7509  37.577  38.771   0.849
34442W        W 7510  37.659  23.535   4.397
34443W        W 7511  28.708  27.126   3.656
34444W        W 7512  25.445  18.919   1.986
34445W        W 7513   7.207  28.754  14.969
34446W        W 7514  39.553  42.814  12.460
34447W        W 7515  21.073   5.984   1.183
34448W        W 7516  27.958   1.341   4.553
34449W        W 7517  26.728  16.569   0.774
34450W        W 7518  22.582   1.429   3.041
34451W        W 7519  38.071  30.959  11.260
34452W        W 7520  36.834   3.898   0.469
34453W        W 7521  25.280   4.883  14.936
34454W        W 7522  15.329  43.071  12.073
34455W        W 7523  36.312   5.693  12.619
34456W        W 7524  10.720  11.816  12.559
34457W        W 7525   4.148  37.824   0.470
34458W        W 7526  39.326  16.232   3.926
34459W        W 7527  34.963   2.351   3.678
34460W        W 7528  33.087  38.409   0.823
34461W        W 7529  12.762  44.259  13.979
34462W        W 7530   3.779   5.238   4.489
34463W        W 7531   2.491  39.947  10.420
34464W        W 7532  26.089  24.711  13.490
34465W        W 7533  12.390  43.532   1.223
34466W        W 7534  35.452   5.296  10.874
34467W        W 7535  20.224  29.733   1.167
34468W        W 7536  44.224   8.742   3.603
34469W        W 7537  24.496  12.793   2.801
34470W        W 7538   5.864  21.637   3.345
34471W        W 7539  15.529  21.723  12.311
34472W        W 7540  34.826  20.261   2.330
34473W        W 7541  18.303  24.114   3.730
34474W        W 7542   0.780   7.618   1.141
34475W        W 7543  34.946   8.167  13.558
34476W        W 7544   1.768  24.742   4.016
34477W        W 7545   1.831  13.388   4.581
34478W        W 7546  28.458   7.197   4.622
34479W        W 7547  38.562  38.796   1.768
34480W        W 7548  44.291  28.430  14.799
34481W        W 7549  10.922   8.852   0.399
34482W        W 7550   6.759  28.935  14.221
34483W        W 7551  24.375  30.538   4.164
34484W        W 7552  35.095  42.289  12.105
34485W        W 7553  19.626  42.689   1.344
34486W        W 7554  42.608  42.359   0.680
34487W        W 7555  25.876   4.943  10.190
34488W        W 7556   3.237  11.182  12.660
34489W        W 7557   9.583  34.001  13.085
34490W        W 7558  38.008  34.918  12.002
34491W        W 7559  14.758  25.449  14.834
34492W        W 7560  25.073  21.038  12.817
34493W        W 7561  13.475  40.937  13.479
34494W        W 7562  16.221   5.640   4.026
34495W        W 7563  29.667   0.919   0.036
34496W        W 7564   7.211  10.129  14.544
34497W        W 7565  41.040  27.855   4.693
34498W        W 7566  21.469   5.520   4.493
34499W        W 7567  29.720  17.201  14.710
34500W        W 7568   8.650  33.664  12.925
34501W        W 7569  18.039  22.638  12.837
34502W        W 7570  33.855  22.777   4.329
34503W        W 7571  25.413  41.021   5.446
34504W        W 7572  18.821   3.466   0.561
34505W        W 7573  37.523  31.119   0.361
34506W        W 7574  34.649  16.107  11.360
34507W        W 7575  37.889   8.907  12.001
34508W        W 7576  21.690   4.824  12.081
34509W        W 7577  13.637  31.081  12.062
34510W        W 7578  28.837   0.758   1.315
34511W        W 7579  11.865  24.075   0.384
34512W        W 7580  29.170  11.262   3.831
34513W        W 7581  30.400  19.194  12.623
34514W        W 7582   8.343  19.829  11.224
34515W        W 7583  21.048  12.619   0.821
34516W        W 7584   1.428  27.018   1.581
34517W        W 7585  26.668   9.136   3.693
34518W        W 7586  24.148  35.781  12.529
34519W        W 7587  15.706   8.687   2.903
34520W        W 7588   3.378  23.884   3.628
34521W        W 7589  28.074  15.268  13.012
34522W        W 7590  22.026   3.376  11.132
34523W        W 7591  28.888  43.457  10.988
34524W        W 7592  37.564  22.564   2.185
34525W        W 7593  19.189  14.756  14.033
34526W        W 7594  17.054  32.631  14.263
34527W        W 7595  24.753  39.384   1.875
34528W        W 7596  14.247  12.680   4.591
34529W        W 7597  40.286  11.379  11.394
34530W        W 7598  23.936  10.636  14.773
34531W        W 7599  10.838  33.102  14.156
34532W        W 7600  25.685   8.374  10.693
34533W        W 7601   8.390   3.905   3.808
34534W        W 7602  12.346  11.892   4.815
34535W        W 7603  39.829  20.215   1.768
34536W        W 7604  14.614   0.533   1.603
34537W        W 7605  17.800  43.389  12.097
34538W        W 7606  16.447   9.699   0.444
34539W        W 7607   8.619  17.860   2.492
34540W        W 7608   2.309   3.763   0.595
34541W        W 7609  31.007  34.156  10.845
34542W        W 7610  14.150  19.951  11.424
34543W        W 7611  38.383  26.555   0.309
34544W        W 7612  17.273  14.303  13.740
34545W        W 7613   3.706   3.168  11.522
34546W        W 7614  25.991   1.557  14.706
34547W        W 7615   4.475   3.972   2.805
34548W        W 7616  14.464  43.904  12.871
34549W        W 7617  12.771  16.510  14.831
34550W        W 7618  42.333  35.550   3.591
34551W        W 7619  11.670  35.148   3.012
34552W        W 7620  32.655  27.410   3.673
34553W        W 7621  17.977  39.402  13.366
34554W        W 7622  30.797  35.852  11.895
34555W        W 7623  41.378  19.201  12.385
34556W        W 7624  35.899  10.768   0.731
34557W        W 7625   9.322  38.439  10.631
34558W        W 7626  37.827   6.967  14.292
34559W        W 7627  13.626  33.498   0.545
34560W        W 7628  42.752   0.999  11.994
34561W        W 7629  13.241  22.139  12.981
34562W        W 7630  21.606  11.381  12.154
34563W        W 7631  11.621  11.801   2.387
34564W        W 7632   2.282  11.331   2.499
34565W        W 7633  36.416   8.290   4.110
34566W        W 7634  25.252   5.252  14.279
34567W        W 7635  10.706  14.834   1.743
34568W        W 7636   3.934  14.696  12.831
34569W        W 7637  11.959   5.224   0.905
34570W        W 7638  41.833  42.282   3.080
34571W        W 7639   8.352  30.926  11.536
34572W        W 7640   5.247  28.664   2.089
34573W        W 7641  24.617  28.222  14.804
34574W        W 7642  42.525  20.956   0.821
34575W        W 7643  36.028  32.962   4.573
34576W        W 7644  40.282  36.119   2.745
34577W        W 7645  29.548  27.639   4.533
34578W        W 7646  29.203  37.418   2.287
34579W        W 7647  29.195  37.329  14.264
34580W        W 7648  18.218  32.924  10.517
34581W        W 7649  34.459   6.703   4.931
34582W        W 7650  10.894  17.241  14.315
34583W        W 7651  21.979  15.619  12.537
34584W        W 7652  39.976  40.957  12.600
34585W        W 7653  21.147   8.648   1.715
34586W        W 7654   5.067  15.129   2.867
34587W        W 7655  26.268  30.406  12.990
34588W        W 7656  11.293  15.627   0.761
34589W        W 7657  22.153  32.528   1.672
34590W        W 7658  42.381  38.617   2.767
34591W        W 7659  41.805  15.354  11.141
34592W        W 7660  31.034  21.934  11.010
34593W        W 7661  32.152   8.792   0.401
34594W        W 7662  33.564  11.181   2.564
34595W        W 7663   4.194  22.898   1.422
34596W        W 7664  27.939  20.401   2.723
34597W        W 7665  29.474  15.615   1.699
34598W        W 7666   1.370  37.390  13.753
34599W        W 7667   9.192  41.440  10.895
34600W        W 7668  11.548  35.954  14.994
34601W        W 7669  12.639  29.022   0.013
34602W        W 7670   8.961   4.399   2.146
34603W        W 7671  40.031  34.437  12.730
34604W        W 7672   0.383  33.368   2.752
34605W        W 7673  12.237  37.577   4.196
34606W        W 7674  14.596  39.844  13.731
34607W        W 7675  10.770   2.138  13.028
34608W        W 7676  16.195  33.826  14.933
34609W        W 7677  32.589   7.247  13.468
34610W        W 7678  23.505  22.789   1.266
34611W        W 7679  42.042  13.630   0.983
34612W        W 7680   6.263  25.894   4.559
34613W        W 7681  39.529  27.807   0.607
34614W        W 7682  27.621   0.249  13.807
34615W        W 7683  27.936   2.712   2.516
34616W        W 7684  39.960  22.804  13.089
34617W        W 7685  39.361  19.251  14.711
34618W        W 7686  12.188  33.857  11.314
34619W        W 7687  23.265   9.988  12.417
34620W        W 7688  26.094  17.987  10.774
34621W        W 7689  19.699  26.507   4.501
34622W        W 7690  10.155  26.448   1.096
34623W        W 7691  41.445  39.516   2.429
34624W        W 7692  42.539  33.542   0.257
34625W        W 7693  40.723  16.577   4.755
34626W        W 7694  41.061   4.347   4.048
34627W        W 7695  24.672  14.626  10.674
34628W        W 7696  35.835  37.838  12.985
34629W        W 7697  39.319   2.004   4.503
34630W        W 7698   4.316   7.934  10.698
34631W        W 7699  37.300  18.007   2.870
34632W        W 7700  27.928  14.333   2.817
34633W        W 7701  16.851  25.082  12.867
34634W        W 7702  21.650  42.612   0.837
34635W        W 7703  15.270   1.659   1.938
34636W        W 7704   4.760   4.783  11.959
34637W        W 7705  17.316  25.995   0.913
34638W        W 7706   9.362  15.595  10.627
34639W        W 7707  26.793  39.956   2.286
34640W        W 7708   1.405  10.494   3.224
34641W        W 7709  30.225   6.140  14.855
34642W        W 7710  12.837  32.668   4.161
34643W        W 7711   5.088  43.040  14.680
34644W        W 7712  33.510  35.594  12.153
34645W        W 7713  42.840  26.410  11.785
34646W        W 7714  32.424   5.315   0.840
34647W        W 7715  15.042  21.027   0.289
34648W        W 7716  39.802   0.744  12.414
34649W        W 7717  10.869  25.582   1.413
34650W        W 7718  40.596  30.692   2.667
34651W        W 7719  44.422  41.397  14.152
34652W        W 7720  42.044  35.055  13.471
34653W        W 7721   2.018  21.590  14.256
34654W        W 7722  31.183  34.376   1.951
34655W        W 7723  33.641  22.528   0.801
34656W        W 7724  30.137  19.966   4.741
34657W        W 7725   2.462  28.396   4.013
34658W        W 7726   4.753  30.806  11.116
34659W        W 7727  31.127  18.091  14.500
34660W        W 7728   2.795  12.815  14.990
34661W        W 7729  24.075  25.131   2.931
34662W        W 7730  33.956   5.238   2.857
34663W        W 7731  36.754  38.379  14.779
34664W        W 7732   5.488  27.408  13.058
34665W        W 7733  33.172  24.569   0.689
34666W        W 7734  40.100  19.707  14.775
34667W        W 7735  18.638  28.714  12.153
34668W        W 7736  39.009  11.608   1.290
34669W        W 7737  29.189  39.108  12.984
34670W        W 7738   5.858   9.401   1.367
34671W        W 7739  18.811  19.199  12.625
34672W        W 7740  16.108  35.034  11.833
34673W        W 7741   4.944  32.996  12.874
34674W        W 7742   1.879   1.721   1.308
34675W        W 7743   8.625  26.519  10.723
34676W        W 7744  35.609  39.392   0.844
34677W        W 7745   0.551  35.506  11.623
34678W        W 7746  11.772  39.583   0.328
34679W        W 7747   6.650  43.407  12.838
34680W        W 7748  24.697  11.180  11.510
34681W        W 7749  12.875   8.796   0.291
34682W        W 7750  24.439   0.891   0.500
34683W        W 7751  10.962  15.807   3.088
34684W        W 7752  28.402  28.461   1.277
34685W        W 7753  18.239  36.028   0.397
34686W        W 7754   5.825   6.367   2.445
34687W        W 7755   6.581  30.903   1.367
34688W        W 7756   8.890  25.660  14.458
34689W        W 7757  32.497  26.140  12.563
34690W        W 7758  26.010  27.522   1.457
34691W        W 7759   6.157  21.130  14.329
34692W        W 7760   8.653  39.584  13.437
34693W        W 7761  43.302  24.413   2.736
34694W        W 7762  38.171  39.350  12.040
34695W        W 7763  22.118  16.488  11.055
34696W        W 7764  33.657  11.636   2.893
34697W        W 7765  12.816  23.033   4.594
34698W        W 7766  15.121  37.037   1.937
34699W        W 7767  28.582  35.692  11.654
34700W        W 7768   3.711  19.569   4.545
34701W        W 7769  13.419  19.600  13.533
34702W        W 7770  19.287   8.254  11.525
34703W        W 7771   5.964  25.241  14.007
34704W        W 7772   7.430   8.440   0.437
34705W        W 7773  35.655  39.469  11.496
34706W        W 7774  17.083  25.231   4.959
34707W        W 7775  36.947  31.949  10.185
34708W        W 7776  33.785  17.742  10.171
34709W        W 7777  27.036   0.563   2.826
34710W        W 7778  43.827   5.960  13.924
34711W        W 7779  33.974  43.796  12.482
34712W        W 7780  15.857  41.763   1.470
34713W        W 7781  39.085   5.653  11.096
34714W        W 7782   6.808  20.893  13.405
34715W        W 7783  17.606  28.490  13.666
34716W        W 7784  16.706  21.312   0.753
34717W        W 7785  10.113  31.885   4.107
34718W        W 7786  22.536  36.925   1.429
34719W        W 7787   1.323  20.491   2.057
34720W        W 7788  44.034  38.193  11.188
34721W        W 7789  13.188   1.591   0.192
34722W        W 7790  23.185  19.750   0.971
34723W        W 7791  41.920  18.308  11.093
34724W        W 7792  16.892  22.684   3.653
34725W        W 7793  26.530  23.444   4.269
34726W        W 7794  33.747  25.367   3.419
34727W        W 7795  41.920  18.243  14.897
34728W        W 7796  40.636  37.279   0.476
34729W        W 7797  37.926   1.061   1.974
34730W        W 7798  23.031  14.642  10.763
34731W        W 7799  16.004   5.293   4.345
34732W        W 7800  29.420  19.805   1.126
34733W        W 7801  35.454  15.994  12.512
34734W        W 7802   5.722   1.887  13.457
34735W        W 7803   6.210  40.835  14.404
34736W        W 7804  12.416  44.365   1.298
34737W        W 7805   5.800  34.649  13.929
34738W        W 7806  18.263  12.690   0.724
34739W        W 7807  38.012  26.500  11.750
34740W        W 7808   3.710  40.760   1.401
34741W        W 7809  32.147   6.394   1.776
34742W        W 7810  20.724  41.806  12.969
34743W        W 7811  30.377  13.478   2.304
34744W        W 7812  17.660   9.408   3.987
34745W        W 7813  31.394   2.195   3.809
34746W        W 7814   2.480   9.816  13.034
34747W        W 7815   0.380  24.652   1.251
34748W        W 7816   6.970  24.129  14.930
34749W        W 7817  20.779  30.432  12.172
34750W        W 7818  20.726   2.373  14.806
34751W        W 7819   2.577  33.120   4.906
34752W        W 7820  10.852   8.147   0.148
34753W        W 7821  43.287  39.414   3.562
34754W        W 7822  44.747  20.681  13.411
34755W        W 7823  23.729  15.080  10.989
34756W        W 7824   3.335  25.549   1.933
34757W        W 7825  10.111   3.304  10.984
34758W        W 7826  26.640  12.649  11.397
34759W        W 7827  32.522  33.808   3.748
34760W        W 7828  38.333  15.353   4.115
34761W        W 7829   5.136  31.245   1.725
34762W        W 7830  31.950   2.990   0.996
34763W        W 7831  24.574  26.044  11.529
34764W        W 7832  29.892   2.745  11.055
34765W        W 7833  36.384  14.167  14.050
34766W        W 7834  24.456  13.764  12.542
34767W        W 7835   2.866   2.308  12.915
34768W        W 7836  36.276  32.021   3.229
34769W        W 7837  28.012  12.436   4.571
34770W        W 7838  24.600  16.163  11.469
34771W        W 7839   7.999  24.029  14.935
34772W        W 7840  42.820  40.836  13.424
34773W        W 7841  37.223  14.706  10.685
34774W        W 7842  19.065  32.039   4.849
34775W        W 7843  20.538  16.192   1.629
34776W        W 7844  38.852  23.633   0.518
34777W        W 7845  11.487  22.269   0.747
34778W        W 7846  23.947  18.203   0.008
34779W        W 7847   4.165   9.502  13.905
34780W        W 7848  13.801  43.965   1.659
34781W        W 7849  27.518  19.777  12.603
34782W        W 7850  28.568  35.286   0.986
34783W        W 7851  33.290  36.161   9.995
34784W        W 7852  31.687   5.382   0.274
34785W        W 7853  17.803   8.640   3.151
34786W        W 7854   2.459  16.211  13.307
34787W        W 7855  42.028  22.520  11.621
34788W        W 7856   1.534  25.026  14.469
34789W        W 7857  13.224  39.185   4.033
34790W        W 7858  42.460  10.523   3.708
34791W        W 7859   4.963  32.099   1.973
34792W        W 7860  21.912   2.509   3.295
34793W        W 7861  21.241  40.118   2.112
34794W        W 7862  10.425  37.037  14.459
34795W        W 7863  22.101  10.217   1.861
34796W        W 7864  18.126  39.823   4.971
34797W        W 7865   1.713  23.277  12.578
34798W        W 7866   9.396  43.250  12.633
34799W        W 7867   0.922  35.902   3.294
34800W        W 7868   4.647  38.471   3.082
34801W        W 7869  44.374  35.602   0.633
34802W        W 7870  30.562   1.990   3.713
34803W        W 7871  11.770  16.635   3.776
34804W        W 7872  15.168  37.305   2.914
34805W        W 7873  28.768  30.885   0.793
34806W        W 7874  26.004   9.391  10.412
34807W        W 7875  40.860  42.878  14.220
34808W        W 7876  41.542  23.046   1.582
34809W        W 7877  20.315  15.611   0.723
34810W        W 7878  22.511  20.496   3.202
34811W        W 7879   7.232   7.972   4.107
34812W        W 7880  15.579  13.867   3.326
34813W        W 7881  37.444   6.528  13.412
34814W        W 7882   6.859  38.549  14.994
34815W        W 7883  35.311  23.653   2.335
34816W        W 7884  29.390   9.376  14.976
34817W        W 7885  42.029  13.040  11.656
34818W        W 7886  31.965  14.583  10.785
34819W        W 7887  13.635  11.596   0.338
34820W        W 7888  32.750  19.232   3.213
34821W        W 7889  44.028   9.543   0.670
34822W        W 7890  33.945  38.580   4.179
34823W        W 7891  14.506  35.375   0.132
34824W        W 7892  22.973   2.971   4.138
34825W        W 7893  40.511  19.783   2.887
34826W        W 7894  12.015  27.973  12.465
34827W        W 7895  38.403  44.040  12.712
34828W        W 7896  44.464  21.347   1.804
34829W        W 7897   9.382  25.494  14.461
34830W        W 7898  26.139  36.134  14.433
34831W        W 7899  21.037   1.306   0.476
34832W        W 7900   8.280  41.923   3.244
34833W        W 7901  30.454   0.432   2.307
34834W        W 7902  26.006   1.928  10.944
34835W        W 7903  43.547   4.331   4.373
34836W        W 7904  35.586  25.062   0.296
34837W        W 7905   4.479   6.533  11.339
34838W        W 7906  15.354  19.147  12.838
34839W        W 7907  16.333  11.600  10.195
34840W        W 7908   2.703   7.532   2.871
34841W        W 7909  23.481   0.750   4.755
34842W        W 7910  19.167  39.559   4.113
34843W        W 7911  35.754  11.038  11.024
34844W        W 7912  34.784  43.389   0.706
34845W        W 7913  44.477  42.390  12.567
34846W        W 7914  17.718  11.887  11.092
34847W        W 7915  21.259  13.324  10.765
34848W        W 7916  28.665   5.257   1.439
34849W        W 7917  12.746  20.586  14.962
34850W        W 7918  31.150  32.601  13.462
34851W        W 7919   3.929  37.073  13.731
34852W        W 7920  10.710  18.691  14.414
34853W        W 7921  20.615   9.397   2.724
34854W        W 7922  22.841  44.003   0.274
34855W        W 7923  29.641  21.103   2.113
34856W        W 7924  27.254  20.704  10.423
34857W        W 7925  16.677   3.581  10.192
34858W        W 7926   1.298   5.866   4.218
34859W        W 7927  13.559  36.102  13.814
34860W        W 7928  25.453  20.472   1.842
34861W        W 7929  27.829  11.155  10.756
34862W        W 7930  44.175  38.955   2.779
34863W        W 7931   7.140  23.614  14.233
34864W        W 7932  19.732  33.360   1.120
34865W        W 7933  42.893  26.189  12.964
34866W        W 7934  25.681  38.117  12.558
34867W        W 7935  28.267  27.168   0.805
34868W        W 7936   1.442  25.176   0.326
34869W        W 7937   3.283  25.782   2.402
34870W        W 7938  10.494   6.185   0.779
34871W        W 7939  18.067   4.217  14.967
34872W        W 7940   6.227   9.361   4.563
34873W        W 7941  29.025  24.447  11.068
34874W        W 7942  42.344  18.296   2.819
34875W        W 7943  29.176  28.439  14.585
34876W        W 7944  22.564  31.159   1.913
34877W        W 7945  18.751  42.699  12.015
34878W        W 7946  34.905  36.175   5.106
34879W        W 7947   5.972  18.640  11.660
34880W        W 7948   3.999  32.121   2.763
34881W        W 7949   3.959  43.779   0.780
34882W        W 7950  28.783  38.427  12.343
34883W        W 7951   1.704  44.416  11.539
34884W        W 7952   1.326  38.324  13.567
34885W        W 7953   7.959   9.494   3.489
34886W        W 7954  27.043  38.027   3.289
34887W        W 7955   7.820  23.485   0.247
34888W        W 7956  13.506  18.415  10.649
34889W        W 7957   8.830  37.372   1.392
34890W        W 7958  42.955  38.962  11.605
34891W        W 7959   0.975   4.788  11.535
34892W        W 7960   0.171  33.393  12.951
34893W        W 7961  44.751  38.981  14.899
34894W        W 7962   2.455  43.013  11.079
34895W        W 7963  22.594  10.703   3.425
34896W        W 7964  27.533  20.986   3.274
34897W        W 7965  15.823   0.706  12.021
34898W        W 7966  13.252   1.793   3.851
34899W        W 7967  25.276   8.336   1.813
34900W        W 7968  29.601  26.957   3.348
34901W        W 7969  33.858   7.182   0.726
34902W        W 7970  23.975   9.319  12.439
34903W        W 7971  30.150  17.069   2.799
34904W        W 7972  15.300  11.465  11.707
34905W        W 7973   9.567  22.518  13.571
34906W        W 7974  26.693  21.144   3.707
34907W        W 7975   6.036   5.841   3.245
34908W        W 7976   6.377  16.666  11.581
34909W        W 7977   2.771  19.081   1.209
34910W        W 7978   5.310  34.491  10.695
34911W        W 7979  42.288  39.315  13.388
34912W        W 7980  17.873  41.685  14.880
34913W        W 7981  32.466   4.232   3.709
34914W        W 7982   2.246  20.630  12.231
34915W        W 7983  17.055  20.076   1.885
34916W        W 7984  20.677  23.970   2.927
34917W        W 7985  40.670   4.914   3.302
34918W        W 7986   2.490   6.213  11.712
34919W        W 7987  21.040   0.438   0.046
34920W        W 7988  27.761  27.263  13.087
34921W        W 7989   3.570  28.483   0.764
34922W        W 7990  21.260   9.923   2.332
34923W        W 7991  33.574   4.980   3.138
34924W        W 7992  34.448   4.665   0.779
34925W        W 7993  38.932  12.934   4.829
34926W        W 7994   8.048  40.407   0.235
34927W        W 7995  13.313  16.991   4.078
34928W        W 7996  20.730  30.995  13.959
34929W        W 7997   2.713   2.725  14.698
34930W        W 7998  29.979   1.498  10.634
34931W        W 7999   1.546  32.611  10.744
34932W        W 8000  33.017  41.360  12.350
34933W        W 8001  10.968  15.033  12.484
34934W        W 8002  18.671   5.105   4.061
34935W        W 8003  17.241  22.974   2.328
34936W        W 8004   7.258  20.977   3.294
34937W        W 8005  17.710  15.185  11.518
34938W        W 8006  10.334  35.892   2.460
34939W        W 8007  34.520  17.746   0.187
34940W        W 8008  13.721  13.324   2.348
34941W        W 8009   3.347   1.398   1.871
34942W        W 8010  32.378  40.303  13.355
34943W        W 8011  13.048  14.670  13.784
34944W        W 8012  24.523  24.720  12.668
34945W        W 8013  13.247  19.266  11.529
34946W        W 8014   9.261  29.484  13.018
34947W        W 8015  32.347  22.666   3.211
34948W        W 8016  17.272  34.779  14.076
34949W        W 8017   7.909  12.380   1.909
34950W        W 8018  28.126  11.753   0.413
34951W        W 8019  31.368  34.338  12.504
34952W        W 8020  40.805  10.024  13.775
34953W        W 8021   5.631  35.802  10.990
34954W        W 8022   4.375   6.096  12.268
34955W        W 8023  31.086   5.469  10.654
34956W        W 8024  20.280  37.802  10.744
34957W        W 8025  44.772  43.826  12.878
34958W        W 8026   3.884  32.078   4.113
34959W        W 8027  31.951  10.929  14.884
34960W        W 8028  12.979  21.644   0.222
34961W        W 8029  28.491  27.602  10.536
34962W        W 8030   1.979  30.606   1.787
34963W        W 8031  15.684  31.417   1.857
34964W        W 8032  33.086  10.660   4.258
34965W        W 8033   8.721  17.523  13.833
34966W        W 8034  22.061  38.113  11.614
34967W        W 8035  30.923  29.505  12.394
34968W        W 8036  35.864   9.207  12.965
34969W        W 8037  26.878  10.869   4.558
34970W        W 8038  13.011  14.564   2.220
34971W        W 8039  27.126  12.651   4.341
34972W        W 8040  31.048  42.991   4.589
34973W        W 8041   6.413  34.765   4.261
34974W        W 8042  10.582  33.024   1.466
34975W        W 8043  42.986  31.690   4.154
34976W        W 8044  40.276  11.269  11.893
34977W        W 8045  20.448  35.883  14.995
34978W        W 8046  41.308  15.895   4.778
34979W        W 8047  20.035  38.097   1.984
34980W        W 8048   7.233  13.659  13.778
34981W        W 8049  28.241  29.856  14.358
34982W        W 8050  23.229  23.634   2.216
34983W        W 8051  31.623  44.275   0.415
34984W        W 8052   2.775  38.801  10.945
34985W        W 8053  40.470  41.550  14.475
34986W        W 8054  28.623  32.055  14.911
34987W        W 8055  22.023   6.163   0.461
34988W        W 8056   6.012   2.581  11.897
34989W        W 8057  24.291  25.950  13.996
34990W        W 8058  26.134   2.629   3.637
34991W        W 8059  27.878  42.317   4.188
34992W        W 8060  30.922  13.182   0.402
34993W        W 8061   9.860  36.281  11.443
34994W        W 8062  44.167   4.269  14.778
34995W        W 8063  35.776   8.111  13.907
34996W        W 8064  39.964  14.141   4.079
34997W        W 8065  16.322  24.585   2.673
34998W        W 8066   6.346   8.159   0.876
34999W        W 8067  24.436  20.746  12.413
35000W        W 8068  20.803   1.335  13.458
35001W        W 8069  11.948  24.654   1.588
35002W        W 8070   6.563   5.785   3.316
35003W        W 8071  35.576  29.752   2.133
35004W        W 8072  43.483  40.260  11.594
35005W        W 8073  20.963  32.077  12.099
35006W        W 8074   7.377   4.121   2.819
35007W        W 8075  20.413   9.215  12.365
35008W        W 8076  23.460  12.072   0.000
35009W        W 8077  31.019  29.963   3.427
35010W        W 8078  20.570  34.602  11.491
35011W        W 8079   6.626   5.862   0.012
35012W        W 8080  40.353  37.947   2.675
35013W        W 8081   7.273  20.220  13.597
35014W        W 8082  17.171  12.757  12.979
35015W        W 8083  21.534  39.200   3.553
35016W        W 8084  37.641  25.071  13.334
35017W        W 8085  40.007  27.432  13.141
35018W        W 8086  40.758  42.499   0.330
35019W        W 8087   9.650  30.165  10.547
35020W        W 8088  18.182   8.179   4.265
35021W        W 8089   3.383  24.721   3.211
35022W        W 8090  17.534  42.991   3.693
35023W        W 8091  42.071  19.736  10.665
35024W        W 8092  40.367  28.680  14.863
35025W        W 8093  20.509   8.691  12.188
35026W        W 8094  43.272  27.322  13.546
35027W        W 8095   1.710  30.368  11.683
35028W        W 8096   3.360  24.556  13.356
35029W        W 8097  42.591  35.572  12.432
35030W        W 8098  11.903   9.100  13.375
35031W        W 8099   9.637  34.424  13.374
35032W        W 8100  19.229  42.835   0.567
35033W        W 8101  12.855   3.170  13.847
35034W        W 8102  18.974  34.900  11.534
35035W        W 8103  35.298  38.417  12.138
35036W        W 8104  17.809  14.734   2.022
35037W        W 8105  42.005  11.909  13.853
35038W        W 8106  35.654   4.312  13.901
35039W        W 8107  35.839  44.466   2.039
35040W        W 8108  10.132  26.559   4.676
35041W        W 8109  29.254  33.472  10.524
35042W        W 8110  44.029   7.751  11.595
35043W        W 8111  24.995  28.906   3.188
35044W        W 8112  26.122  29.091  14.326
35045W        W 8113   9.359  19.258  14.760
35046W        W 8114  39.809  44.782  11.600
35047W        W 8115  34.699  16.803   4.468
35048W        W 8116   1.675  28.714  13.781
35049W        W 8117  17.289  35.945   4.678
35050W        W 8118  32.382   2.983   2.728
35051W        W 8119  22.476  32.855  14.403
35052W        W 8120  36.303  11.306  13.647
35053W        W 8121  39.884  20.169  10.938
35054W        W 8122   3.300   0.412   1.700
35055W        W 8123   4.223   2.858   3.808
35056W        W 8124  19.093  15.280  10.775
35057W        W 8125  29.998  26.565   2.334
35058W        W 8126  28.031   3.763  10.790
35059W        W 8127  12.782  34.467  14.388
35060W        W 8128   5.174  21.952   0.749
35061W        W 8129  32.479  14.148   2.196
35062W        W 8130  24.069  26.942  14.266
35063W        W 8131  25.725  34.645  10.501
35064W        W 8132  29.472  28.028  10.775
35065W        W 8133  36.042  39.190   1.296
35066W        W 8134  35.774  26.067   4.155
35067W        W 8135   2.155  12.124  11.591
35068W        W 8136  27.139  16.484  13.945
35069W        W 8137   9.577  32.632  13.918
35070W        W 8138  18.954  11.866  11.645
35071W        W 8139  42.450  32.077   0.459
35072W        W 8140   4.892  13.530  13.388
35073W        W 8141  15.295  43.569  11.916
35074W        W 8142  39.346  11.492   2.791
35075W        W 8143  13.536  37.637   1.702
35076W        W 8144  21.678  42.572   2.869
35077W        W 8145  23.031  39.851   0.325
35078W        W 8146   5.730  25.173   1.229
35079W        W 8147  16.749  36.095   3.598
35080W        W 8148  37.540  37.489   3.170
35081W        W 8149   3.358   1.965  13.529
35082W        W 8150  42.893   3.518   0.685
35083W        W 8151  16.221  10.349  10.690
35084W        W 8152   1.221   5.271   0.931
35085W        W 8153  30.101  34.909  11.685
35086W        W 8154  15.089   0.740  10.937
35087W        W 8155  31.706   5.335  10.616
35088W        W 8156  21.544  31.150   1.651
35089W        W 8157  35.082  22.596   4.448
35090W        W 8158  23.002  35.433  10.606
35091W        W 8159  41.329   3.361   2.736
35092W        W 8160   9.770  42.028  10.639
35093W        W 8161  44.513  11.655  13.873
35094W        W 8162  26.672  19.197  14.914
35095W        W 8163  36.292  10.237  14.864
35096W        W 8164  21.487  42.834  12.799
35097W        W 8165   7.146  17.209   1.908
35098W        W 8166   6.942   3.925   4.919
35099W        W 8167  20.568  12.388   1.941
35100W        W 8168  12.246  28.682   1.659
35101W        W 8169  33.371  20.091   1.983
35102W        W 8170  23.363   7.785   1.799
35103W        W 8171  27.519  36.249  12.027
35104W        W 8172  18.698   4.237  12.301
35105W        W 8173  22.058  40.154  13.942
35106W        W 8174  32.147  14.119  14.790
35107W        W 8175  18.228  19.834  12.036
35108W        W 8176  33.245  20.759  11.480
35109W        W 8177  42.024  31.373  12.073
35110W        W 8178  44.947  36.963  12.593
35111W        W 8179  44.105   5.550   3.731
35112W        W 8180  31.370  13.190   1.873
35113W        W 8181  41.874  21.781  14.370
35114W        W 8182   4.230   7.856  12.481
35115W        W 8183   8.364   8.854  10.682
35116W        W 8184  19.326  21.164  11.964
35117W        W 8185  31.992  43.456  12.642
35118W        W 8186  38.557  25.909  14.703
35119W        W 8187  36.136  43.402  14.376
35120W        W 8188  29.121  22.282  12.396
35121W        W 8189  38.152  42.533   0.464
35122W        W 8190  38.985  33.039  14.738
35123W        W 8191  26.043  16.615  11.215
35124W        W 8192  15.220   8.347  10.570
35125W        W 8193  19.791   6.827   0.393
35126W        W 8194   7.132  27.366   1.289
35127W        W 8195  22.573  36.574   2.317
35128W        W 8196  34.524  43.254  14.404
35129W        W 8197  37.771   2.517   3.332
35130W        W 8198  34.836  31.589   0.754
35131W        W 8199   5.455  15.241   0.529
35132W        W 8200  44.994   5.451   0.396
35133W        W 8201  19.418  36.024   1.797
35134W        W 8202  26.518  20.491   0.967
35135W        W 8203   2.860  17.749  10.968
35136W        W 8204  37.505  22.201   4.095
35137W        W 8205   4.256  29.730   4.003
35138W        W 8206  44.923  17.910  12.119
35139W        W 8207  16.125   6.730  14.557
35140W        W 8208  17.821   7.763  10.730
35141W        W 8209  27.650  28.806   2.618
35142W        W 8210  33.507  18.558   2.174
35143W        W 8211  35.436  23.499   1.366
35144W        W 8212  27.031  19.054   0.449
35145W        W 8213   2.752   0.000   0.839
35146W        W 8214  12.643  19.715   5.041
35147W        W 8215  23.625  20.671  13.532
35148W        W 8216  17.517  44.284   0.708
35149W        W 8217  17.599  11.562  12.427
35150W        W 8218  29.519  19.683  11.268
35151W        W 8219  22.635   7.420  12.069
35152W        W 8220   4.923  11.811   4.679
35153W        W 8221  27.663   9.125   4.700
35154W        W 8222  10.973  20.717   1.962
35155W        W 8223  21.025  43.488   3.296
35156W        W 8224  18.459  31.859  11.648
35157W        W 8225  18.374  37.489   1.736
35158W        W 8226  16.796  21.574   2.050
35159W        W 8227  22.605  34.531   1.221
35160W        W 8228  21.013  29.428   0.335
35161W        W 8229   1.745  21.002  12.895
35162W        W 8230  25.680  42.963   2.407
35163W        W 8231  30.385  16.533  14.925
35164W        W 8232   9.262  29.580  11.678
35165W        W 8233  32.190  24.687   4.635
35166W        W 8234  39.061  33.119   1.217
35167W        W 8235  29.120   0.883   4.112
35168W        W 8236  11.627   4.710  10.628
35169W        W 8237  32.125  43.009  13.028
35170W        W 8238   9.349  33.951  12.015
35171W        W 8239  33.941  23.430  14.816
35172W        W 8240   9.307   1.463   0.434
35173W        W 8241  31.187   7.135   1.394
35174W        W 8242  32.362   4.743   4.645
35175W        W 8243  37.824  18.993  13.877
35176W        W 8244   8.161  31.680  13.853
35177W        W 8245  15.699   9.243   3.648
35178W        W 8246   3.519   5.533  12.114
35179W        W 8247   1.633  10.399  12.635
35180W        W 8248  42.471  20.091   2.302
35181W        W 8249  36.641  14.326  11.495
35182W        W 8250  41.235   9.148  10.715
35183W        W 8251  39.763  21.137   4.136
35184W        W 8252   4.253   8.130   2.605
35185W        W 8253  20.797  15.282   2.787
35186W        W 8254  26.462  21.795   1.306
35187W        W 8255  35.181  30.072  10.485
35188W        W 8256  20.288   3.739  13.579
35189W        W 8257   4.535  14.662  13.505
35190W        W 8258  34.051  17.524   0.809
35191W        W 8259   1.818  26.025   0.520
35192W        W 8260  15.874  13.089  13.075
35193W        W 8261  28.696  33.476  12.352
35194W        W 8262  44.878   4.035  11.314
35195W        W 8263  23.124  25.942  11.648
35196W        W 8264   5.177  29.120  11.633
35197W        W 8265  18.258  33.821   0.443
35198W        W 8266   6.262   7.806  12.138
35199W        W 8267  26.645  40.946   2.225
35200W        W 8268   9.776  34.994  12.597
35201W        W 8269  11.783   2.742   0.503
35202W        W 8270  22.750  11.640   2.270
35203W        W 8271   5.890  39.551   1.373
35204W        W 8272   0.012  29.184   3.843
35205W        W 8273  28.263  24.420  12.950
35206W        W 8274   8.625  28.710  10.724
35207W        W 8275   1.931  30.925   2.217
35208W        W 8276  23.670   7.184   3.731
35209W        W 8277  34.577  24.322   4.292
35210W        W 8278   9.569  27.365  13.414
35211W        W 8279  35.619  17.170   1.018
35212W        W 8280  33.581  26.530   4.634
35213W        W 8281  28.663  28.681   0.869
35214W        W 8282  32.361  27.976  13.990
35215W        W 8283  29.963  11.183  12.146
35216W        W 8284  35.615  14.168   4.605
35217W        W 8285  23.183   7.689  14.581
35218W        W 8286  29.633  37.463   0.867
35219W        W 8287  33.109  30.293   1.433
35220W        W 8288   7.848   3.577  10.637
35221W        W 8289  41.843  32.583  11.511
35222W        W 8290  32.648   2.055  12.381
35223W        W 8291  11.751  12.708  10.669
35224W        W 8292  35.837  30.945   1.381
35225W        W 8293   3.874   9.681   4.582
35226W        W 8294  38.900  34.039  11.528
35227W        W 8295  21.202  43.358  10.017
35228W        W 8296  37.926  12.682   0.980
35229W        W 8297   0.433  11.496  13.904
35230W        W 8298  38.276  16.092  12.409
35231W        W 8299  40.412  27.437  11.863
35232W        W 8300  18.322  33.538   0.016
35233W        W 8301  29.841  39.714   0.056
35234W        W 8302  13.847  43.040   2.634
35235W        W 8303   8.794  26.629  13.366
35236W        W 8304   7.709  39.734  13.443
35237W        W 8305  35.955  35.521  14.789
35238W        W 8306  11.392  31.933   0.300
35239W        W 8307   9.675  18.656   0.382
35240W        W 8308   2.391  37.930   2.658
35241W        W 8309  15.846  19.133  14.754
35242W        W 8310   5.898   1.617  13.869
35243W        W 8311  18.347  15.668   2.711
35244W        W 8312  37.982  43.271  11.913
35245W        W 8313  32.921  14.254  11.544
35246W        W 8314  29.911  21.422   4.656
35247W        W 8315  19.119  12.299  11.447
35248W        W 8316  42.766  17.294  13.834
35249W        W 8317  20.746   3.511  12.090
35250W        W 8318  38.293  37.931   4.088
35251W        W 8319  38.813   6.231  12.290
35252W        W 8320   0.434  17.043   3.175
35253W        W 8321  26.398  38.797  10.779
35254W        W 8322  24.253  37.637   2.014
35255W        W 8323  26.987  14.628  13.950
35256W        W 8324  15.741   4.300  12.546
35257W        W 8325   5.439   9.836   4.514
35258W        W 8326  14.419  40.215   0.445
35259W        W 8327  43.727  21.569  13.330
35260W        W 8328  27.604  44.211   2.700
35261W        W 8329   2.580  38.087  13.563
35262W        W 8330  25.509  31.123  10.753
35263W        W 8331  40.506  36.651  11.655
35264W        W 8332  11.636   0.809   2.845
35265W        W 8333  22.411   2.405   3.236
35266W        W 8334  20.845   8.373  13.550
35267W        W 8335  17.862  17.798  11.452
35268W        W 8336  10.134  29.935  11.931
35269W        W 8337  13.923  20.675   2.009
35270W        W 8338  39.805   1.282   9.795
35271W        W 8339  19.685   0.913  14.447
35272W        W 8340  38.794  19.621   4.181
35273W        W 8341   5.491  26.505   1.865
35274W        W 8342   7.347  29.175  10.683
35275W        W 8343  25.537  29.518  12.705
35276W        W 8344  15.943  22.035  10.343
35277W        W 8345  33.560  27.582  11.853
35278W        W 8346  15.619  40.629  14.797
35279W        W 8347  34.044  11.490   3.252
35280W        W 8348  40.796  31.480   1.715
35281W        W 8349  16.598  27.423   3.347
35282W        W 8350  39.996  42.489   4.751
35283W        W 8351  21.250  14.882   0.114
35284W        W 8352   1.194  29.004   0.745
35285W        W 8353  23.530  33.339  12.434
35286W        W 8354  19.547  14.178  11.926
35287W        W 8355   1.919  23.033   4.651
35288W        W 8356   2.770  43.932  11.441
35289W        W 8357   8.384   3.269   1.257
35290W        W 8358   6.075  16.253  10.512
35291W        W 8359  26.215  18.754  12.550
35292W        W 8360   4.806  20.152  10.155
35293W        W 8361  17.129  31.390   3.964
35294W        W 8362   5.805  30.542   1.180
35295W        W 8363  21.748   9.127  11.161
35296W        W 8364  34.486  28.646  10.793
35297W        W 8365  23.699  26.467   0.418
35298W        W 8366  12.436  33.892   1.402
35299W        W 8367   2.085   1.967  11.114
35300W        W 8368  22.733   8.176   2.320
35301W        W 8369  28.956  25.476   2.432
35302W        W 8370   3.274   8.277  14.972
35303W        W 8371  36.300  15.802   2.737
35304W        W 8372  36.119  16.076   3.127
35305W        W 8373   4.828  33.204   2.178
35306W        W 8374  22.113  13.103  14.476
35307W        W 8375   4.446  40.860   0.743
35308W        W 8376  34.940   4.867  12.673
35309W        W 8377  14.612  40.669  13.372
35310W        W 8378   1.891  35.871  13.938
35311W        W 8379   8.349  18.703   4.509
35312W        W 8380  38.348   6.916   0.307
35313W        W 8381  44.739   6.705  10.426
35314W        W 8382   5.488  15.135   1.766
35315W        W 8383   0.631  15.874   5.296
35316W        W 8384  34.827  23.586  11.638
35317W        W 8385  15.193  13.703  12.570
35318W        W 8386  24.464   7.874  13.491
35319W        W 8387   9.882  19.967   0.377
35320W        W 8388   5.084   6.821   2.881
35321W        W 8389  20.125  28.530   3.187
35322W        W 8390  28.039  36.940  13.307
35323W        W 8391  36.983   1.367  14.327
35324W        W 8392  19.792  18.059   3.236
35325W        W 8393  22.321  22.740  11.160
35326W        W 8394  24.553   6.090   3.023
35327W        W 8395  15.995   3.766   2.656
35328W        W 8396  21.443  37.395   1.821
35329W        W 8397  14.055  40.280   1.389
35330W        W 8398  42.701   7.156  14.460
35331W        W 8399  43.377   4.274   1.723
35332W        W 8400  28.919  12.430   4.484
35333W        W 8401  31.193   7.624   0.635
35334W        W 8402  39.240  15.626  10.541
35335W        W 8403   2.634   5.212  11.019
35336W        W 8404  40.411  29.909   4.533
35337W        W 8405  30.463  33.528  13.005
35338W        W 8406  29.598  27.762  12.025
35339W        W 8407  21.154   6.808   3.157
35340W        W 8408   8.763  14.072   3.853
35341W        W 8409  42.867  26.204   2.148
35342W        W 8410  22.604  25.455  14.256
35343W        W 8411  16.865  11.776   5.041
35344W        W 8412   6.368   5.138   4.567
35345W        W 8413   9.344  24.939   0.290
35346W        W 8414   5.808  22.256  11.413
35347W        W 8415  42.439   5.952   0.920
35348W        W 8416  30.513   4.724   0.811
35349W        W 8417   6.583  25.761  11.129
35350W        W 8418  24.519   6.950  13.493
35351W        W 8419  36.383  37.500   5.225
35352W        W 8420   8.462  34.066   4.684
35353W        W 8421  19.762  25.741  12.474
35354W        W 8422   1.482   4.771   1.803
35355W        W 8423   7.334  20.270  11.181
35356W        W 8424   5.977  11.731   2.180
35357W        W 8425  37.510  32.505   0.467
35358W        W 8426   5.339   0.747  12.550
35359W        W 8427   9.617  30.918   4.013
35360W        W 8428   2.690  28.872  14.892
35361W        W 8429  19.454  10.867  13.592
35362W        W 8430  21.021   5.735   3.232
35363W        W 8431  16.783  37.373   3.071
35364W        W 8432  27.911  32.181   0.728
35365W        W 8433  24.218  22.525  11.966
35366W        W 8434  20.301  32.847   3.352
35367W        W 8435  28.477   6.632   2.213
35368W        W 8436   6.856  42.033   1.980
35369W        W 8437   9.832   5.145   3.637
35370W        W 8438  16.592  41.270   1.998
35371W        W 8439  27.865  40.265   0.962
35372W        W 8440  25.955  30.088  14.816
35373W        W 8441   0.169  19.500  11.593
35374W        W 8442  16.196  35.639  12.689
35375W        W 8443  32.612  18.264   2.596
35376W        W 8444  18.317  30.045   2.181
35377W        W 8445  31.220  40.859   0.053
35378W        W 8446   2.233  22.538  12.094
35379W        W 8447  20.782  10.820  13.795
35380W        W 8448  12.197   5.971   3.260
35381W        W 8449   1.040  17.305   2.192
35382W        W 8450  30.597  33.471   1.331
35383W        W 8451  32.598  13.900  14.988
35384W        W 8452  17.791   8.707  10.704
35385W        W 8453  19.068  14.301  13.777
35386W        W 8454  22.212   8.744  11.149
35387W        W 8455   7.345   4.310   4.629
35388W        W 8456  41.751  24.494   2.607
35389W        W 8457  37.727   9.462  14.882
35390W        W 8458  40.066  42.679   2.680
35391W        W 8459  14.671  13.727   3.308
35392W        W 8460   9.683   9.142   4.234
35393W        W 8461  14.204  28.669  12.230
35394W        W 8462  32.465  40.378  14.355
35395W        W 8463  12.310  12.997  13.385
35396W        W 8464  16.000  24.585  13.919
35397W        W 8465  14.922  32.846  11.900
35398W        W 8466  10.662  13.155   3.570
35399W        W 8467  24.952   4.771   0.943
35400W        W 8468   8.255  19.590  12.137
35401W        W 8469  12.354  27.496  13.315
35402W        W 8470  44.581  11.468   3.657
35403W        W 8471   0.320  14.715   3.327
35404W        W 8472  11.170  44.872  12.585
35405W        W 8473  30.038  16.327  11.232
35406W        W 8474  20.494  31.589  14.805
35407W        W 8475  18.397  17.599   0.731
35408W        W 8476  40.726  28.276  14.813
35409W        W 8477  15.827   5.374   2.192
35410W        W 8478  31.184  36.379  12.486
35411W        W 8479  44.173  25.592  13.448
35412W        W 8480  36.542  18.133  13.869
35413W        W 8481   9.207  39.323  13.509
35414W        W 8482  10.177  22.851  11.499
35415W        W 8483  22.179   3.985   1.774
35416W        W 8484  15.277  16.654   1.809
35417W        W 8485   6.439  14.456  13.477
35418W        W 8486  41.480   5.243  11.033
35419W        W 8487   4.391   3.363  12.857
35420W        W 8488  22.272   4.456  12.618
35421W        W 8489  22.306  11.316   1.333
35422W        W 8490   9.154  36.792   0.906
35423W        W 8491   9.750   8.634  10.515
35424W        W 8492  33.468   0.308  11.853
35425W        W 8493   4.786   6.881   4.253
35426W        W 8494  43.504  14.347  13.829
35427W        W 8495  18.452  43.774   2.334
35428W        W 8496  10.166  44.250  13.982
35429W        W 8497   8.728  27.443  10.760
35430W        W 8498  40.781  38.011   3.438
35431W        W 8499  12.197  25.579   4.110
35432W        W 8500  23.777  31.403  14.021
35433W        W 8501  39.338  34.655  11.034
35434W        W 8502  32.583  31.509  13.812
35435W        W 8503  40.289  22.458  11.956
35436W        W 8504  19.167  11.265   1.169
35437W        W 8505  25.106  36.701   2.060
35438W        W 8506  43.692   0.955  11.454
35439W        W 8507  21.778  30.029  11.589
35440W        W 8508  24.182   8.265   2.087
35441W        W 8509   6.205   5.091   2.068
35442W        W 8510   5.794  21.954   4.368
35443W        W 8511   2.357  19.280   3.437
35444W        W 8512  10.329  21.666  13.935
35445W        W 8513  14.838   1.136  14.909
35446W        W 8514  25.203  27.687   2.997
35447W        W 8515  22.674  42.812  14.125
35448W        W 8516   4.470  37.039  11.138
35449W        W 8517  12.064  11.245   0.933
35450W        W 8518  33.967  36.386   4.073
35451W        W 8519  36.846  29.547   2.769
35452W        W 8520  19.208   0.452  12.459
35453W        W 8521  44.963  21.572  10.670
35454W        W 8522  15.829  10.715  12.150
35455W        W 8523  38.503  12.291   2.145
35456W        W 8524  20.086  36.403  14.206
35457W        W 8525  16.965   7.435  13.851
35458W        W 8526  19.635  12.809   1.643
35459W        W 8527  34.369  21.154   4.986
35460W        W 8528  34.077  10.743  10.615
35461W        W 8529   5.946   7.869   2.836
35462W        W 8530  14.531  41.360   2.214
35463W        W 8531  20.837  42.319  13.035
35464W        W 8532  22.429  23.957   3.316
35465W        W 8533   2.473  43.547   4.534
35466W        W 8534  15.777   5.163   2.671
35467W        W 8535  33.488   6.908   3.695
35468W        W 8536  12.970  42.219  11.582
35469W        W 8537   2.013  39.738  11.646
35470W        W 8538  33.867  30.477   2.738
35471W        W 8539   8.316  11.469   3.240
35472W        W 8540  11.310  25.229  11.915
35473W        W 8541  39.133  19.817  11.907
35474W        W 8542  20.438  40.856   4.264
35475W        W 8543   0.726  28.528  13.490
35476W        W 8544  14.366  14.914   1.608
35477W        W 8545  18.248   9.244  12.431
35478W        W 8546  24.491  22.066   0.299
35479W        W 8547  41.461  29.122  11.660
35480W        W 8548   7.258  39.841   4.500
35481W        W 8549   8.392  31.509   2.035
35482W        W 8550   5.817  21.104   1.167
35483W        W 8551  34.433  16.703   3.177
35484W        W 8552  34.312  36.364   2.170
35485W        W 8553  21.788  21.001  13.806
35486W        W 8554  34.908  25.060   0.966
35487W        W 8555  24.239  40.939  13.854
35488W        W 8556  15.059  37.538  11.640
35489W        W 8557  44.536  37.439   3.355
35490W        W 8558  43.369  18.244   0.477
35491W        W 8559  39.866  33.029   4.591
35492W        W 8560  26.084  26.223   3.299
35493W        W 8561  29.625  18.526   1.809
35494W        W 8562  34.095  33.130   3.162
35495W        W 8563  13.066  26.469   3.325
35496W        W 8564  33.686  25.003   1.259
35497W        W 8565  38.964  25.769  11.114
35498W        W 8566  30.421   2.407  14.361
35499W        W 8567  44.237  39.801  14.476
35500W        W 8568   7.386  43.680   0.052
35501W        W 8569  39.503  40.813  13.364
35502W        W 8570  25.432  10.448   4.674
35503W        W 8571  36.643  27.437  13.321
35504W        W 8572   4.745  24.093  12.917
35505W        W 8573  18.826  14.129   3.711
35506W        W 8574  36.750  26.089  13.542
35507W        W 8575  18.989  43.435   3.178
35508W        W 8576  30.639  26.993  13.707
35509W        W 8577   1.867  26.897  11.690
35510W        W 8578   8.782  38.506  12.831
35511W        W 8579  22.726  37.258   0.291
35512W        W 8580  36.370  26.975  13.626
35513W        W 8581  11.758   5.691  13.828
35514W        W 8582   0.999  39.907   3.625
35515W        W 8583   7.799  23.309   4.675
35516W        W 8584  19.716  11.891   3.731
35517W        W 8585  13.819  41.468  12.568
35518W        W 8586  29.961  33.599  12.928
35519W        W 8587  11.321  33.363   2.980
35520W        W 8588  37.325   6.459   4.260
35521W        W 8589  40.622  17.512  14.303
35522W        W 8590   2.700  16.061   1.497
35523W        W 8591  21.601   6.562   3.453
35524W        W 8592  36.654   6.222   2.218
35525W        W 8593  10.211  19.510   1.368
35526W        W 8594  10.780  41.755   3.334
35527W        W 8595  27.046  21.824  11.219
35528W        W 8596  27.205  10.182   0.869
35529W        W 8597   8.000   2.866  11.223
35530W        W 8598  35.634  26.456  14.976
35531W        W 8599  42.581  24.524  13.254
35532W        W 8600  42.770  29.199   2.446
35533W        W 8601   6.928  15.597   0.214
35534W        W 8602   9.911  19.325   5.631
35535W        W 8603  11.735   8.706   3.820
35536W        W 8604   4.363   9.171  12.160
35537W        W 8605  44.276   0.154  11.129
35538W        W 8606  36.912  36.229   5.046
35539W        W 8607   7.549  34.157  11.391
35540W        W 8608  12.049  25.174   1.642
35541W        W 8609   0.308  29.421   2.658
35542W        W 8610  35.448  21.736  11.975
35543W        W 8611  41.576  24.961   2.762
35544W        W 8612  31.870  41.164   3.129
35545W        W 8613  12.512  14.940   3.357
35546W        W 8614   2.493   6.842   0.799
35547W        W 8615   1.357   7.332   4.400
35548W        W 8616  27.191  21.494  13.497
35549W        W 8617  12.924  17.924  14.768
35550W        W 8618   6.372  22.236   0.243
35551W        W 8619  39.558  41.884   4.461
35552W        W 8620  18.436  28.698  14.897
35553W        W 8621   6.803  25.960   2.190
35554W        W 8622  15.173   2.445   0.309
35555W        W 8623  15.823  42.187  13.821
35556W        W 8624  38.107  22.141   4.350
35557W        W 8625  39.445  40.421   4.386
35558W        W 8626  14.837  43.873  11.042
35559W        W 8627  38.635  25.518   3.037
35560W        W 8628  28.686  23.927   1.673
35561W        W 8629  14.963  25.085   4.670
35562W        W 8630   2.399  39.465   2.276
35563W        W 8631   5.405   3.407  13.050
35564W        W 8632  15.509  19.011   4.268
35565W        W 8633  37.853  38.156  10.809
35566W        W 8634  36.412  28.554   3.199
35567W        W 8635   4.226  38.054  14.999
35568W        W 8636   6.137  31.955  11.126
35569W        W 8637  20.379  43.398   2.668
35570W        W 8638  27.519  34.385   3.081
35571W        W 8639  38.012  42.222  13.032
35572W        W 8640  27.890  31.666  11.347
35573W        W 8641  35.534  19.542  10.570
35574W        W 8642  10.771   5.458   2.381
35575W        W 8643  23.467  33.938   0.625
35576W        W 8644  44.297  40.910  10.924
35577W        W 8645  28.950  39.558   2.411
35578W        W 8646   6.931  29.990   4.232
35579W        W 8647  43.304  27.789  13.369
35580W        W 8648  38.295   4.249  12.514
35581W        W 8649   5.272  39.314   0.220
35582W        W 8650  16.963  40.931   1.216
35583W        W 8651  35.415  21.650  14.342
35584W        W 8652  11.250   5.837   0.231
35585W        W 8653  30.637  13.713   0.262
35586W        W 8654   7.888  16.262  13.556
35587W        W 8655  34.130  43.235  11.636
35588W        W 8656   0.731  42.781  11.335
35589W        W 8657  11.205  25.614   2.713
35590W        W 8658  17.558   6.965  12.974
35591W        W 8659  26.125  33.120   1.797
35592W        W 8660  33.639  22.579  11.063
35593W        W 8661  23.224  24.165  11.223
35594W        W 8662  10.367  37.180   1.287
35595W        W 8663  39.021   3.899  10.971
35596W        W 8664  41.281  39.495  11.487
35597W        W 8665  26.818  11.258   2.805
35598W        W 8666  31.320   4.554  14.690
35599W        W 8667  11.730  21.849  14.754
35600W        W 8668  31.833  30.146   2.741
35601W        W 8669  37.305   6.187  10.583
35602W        W 8670  29.975  35.078   1.703
35603W        W 8671  36.529  42.993  12.897
35604W        W 8672  43.297  18.625  10.936
35605W        W 8673   3.348  21.586  14.069
35606W        W 8674   2.054  27.741  12.177
35607W        W 8675   4.362   4.353  13.463
35608W        W 8676  32.850  23.209   2.593
35609W        W 8677  19.477  12.024  12.540
35610W        W 8678  40.076  27.958  13.037
35611W        W 8679   2.905  41.407   3.548
35612W        W 8680  11.787  42.534  14.800
35613W        W 8681  27.184  39.449  10.744
35614W        W 8682  33.476   3.044  11.024
35615W        W 8683  43.999  19.542  10.779
35616W        W 8684   7.328  36.475  10.658
35617W        W 8685  39.802  22.460   0.740
35618W        W 8686   5.346  15.833   2.842
35619W        W 8687   7.293  22.624  14.374
35620W        W 8688  28.882  30.121   1.264
35621W        W 8689  41.316  38.488   0.723
35622W        W 8690  16.031   3.241  13.966
35623W        W 8691  18.245  21.542   1.368
35624W        W 8692  38.240  42.394  12.560
35625W        W 8693  40.789   6.015   4.688
35626W        W 8694  40.947  31.440   3.750
35627W        W 8695  39.446  14.044   1.643
35628W        W 8696  11.336  24.193  11.960
35629W        W 8697  20.311   0.902  12.064
35630W        W 8698  36.805  19.511   2.076
35631W        W 8699  13.774  32.116   1.443
35632W        W 8700  21.013  37.834  11.499
35633W        W 8701  27.478  22.276   0.314
35634W        W 8702  17.292  26.193   3.138
35635W        W 8703  29.123  19.750   1.831
35636W        W 8704  21.590   3.693   3.169
35637W        W 8705  40.423  30.023  14.700
35638W        W 8706  29.011  27.682  12.485
35639W        W 8707  31.620  19.734  11.225
35640W        W 8708  24.992  15.826  12.436
35641W        W 8709   8.683  35.254   3.168
35642W        W 8710  34.404  24.802   4.690
35643W        W 8711  25.084  22.417  14.010
35644W        W 8712  11.830  13.422   1.711
35645W        W 8713  43.029   6.290  10.705
35646W        W 8714  25.139  22.944  12.154
35647W        W 8715   0.411  29.952   1.410
35648W        W 8716  20.665  20.491   2.716
35649W        W 8717  14.689  14.461   4.683
35650W        W 8718  29.051  38.806   0.291
35651W        W 8719   3.917  41.506   1.825
35652W        W 8720  29.392   7.250  13.072
35653W        W 8721  27.089   1.841  12.776
35654W        W 8722  23.905  41.391  11.704
35655W        W 8723  32.907   3.707  14.594
35656W        W 8724  16.199  24.822   0.320
35657W        W 8725  18.820   2.857  14.749
35658W        W 8726  32.131  12.147  14.318
35659W        W 8727  23.714   9.293   0.519
35660W        W 8728  14.735  18.775  14.373
35661W        W 8729  29.931  28.473   2.511
35662W        W 8730  27.570   9.121  13.178
35663W        W 8731  32.389  30.312   3.147
35664W        W 8732  19.514  28.520  11.165
35665W        W 8733   2.997   6.340   3.272
35666W        W 8734  40.448  27.533   0.812
35667W        W 8735  27.959  29.363  13.847
35668W        W 8736   3.241  13.037  14.833
35669W        W 8737  22.912  36.532  10.789
35670W        W 8738  17.571  25.471  11.492
35671W        W 8739  32.605  30.137   1.345
35672W        W 8740  27.423  41.952   0.339
35673W        W 8741  17.158  32.527   2.203
35674W        W 8742  18.215  23.434   4.212
35675W        W 8743  44.831   0.994  14.040
35676W        W 8744  13.902  27.973  11.938
35677W        W 8745   8.822  34.194  11.130
35678W        W 8746  20.260  38.573   2.684
35679W        W 8747  20.135   1.662   1.278
35680W        W 8748  29.552  15.253   4.151
35681W        W 8749  10.792  25.269   2.827
35682W        W 8750   7.487  23.675   3.069
35683W        W 8751  27.405  43.321  12.181
35684W        W 8752  36.916  33.418  14.953
35685W        W 8753  37.434  20.753   2.833
35686W        W 8754  31.414  30.563   2.944
35687W        W 8755  18.275  15.179   4.321
35688W        W 8756  32.580  36.460   0.830
35689W        W 8757   5.432  33.837   0.276
35690W        W 8758   1.814   1.718  14.857
35691W        W 8759   6.376  40.163  10.630
35692W        W 8760  25.182  37.297   0.327
35693W        W 8761  36.149  13.674  13.860
35694W        W 8762  11.828   8.897  14.323
35695W        W 8763  20.533   7.218   3.753
35696W        W 8764  33.415   1.208   0.792
35697W        W 8765  24.232  40.486  10.232
35698W        W 8766  25.591  36.388   1.184
35699W        W 8767   4.813  18.829  13.804
35700W        W 8768   2.453  23.500   0.260
35701W        W 8769  27.641  30.829  12.431
35702W        W 8770   3.918  15.781  11.026
35703W        W 8771  22.167  19.078  10.179
35704W        W 8772   3.217   6.785   2.153
35705W        W 8773  23.768   3.010   0.840
35706W        W 8774   2.359   7.390   2.044
35707W        W 8775  18.065  29.471  13.057
35708W        W 8776  11.193  29.946   0.888
35709W        W 8777  11.392  41.911  14.420
35710W        W 8778  23.030  26.132  13.554
35711W        W 8779  36.302  29.896   4.128
35712W        W 8780  21.733   3.411   3.771
35713W        W 8781  15.466  40.292   5.042
35714W        W 8782   0.998  43.024  14.284
35715W        W 8783   2.267  30.523   3.737
35716W        W 8784   3.786  44.312  14.612
35717W        W 8785  30.405  33.127  13.857
35718W        W 8786  28.988  36.908  13.429
35719W        W 8787  14.118  23.505  14.512
35720W        W 8788   9.268   5.277   4.756
35721W        W 8789   4.345  24.514  14.982
35722W        W 8790  27.738  30.166  11.583
35723W        W 8791  34.931  27.028  14.022
35724W        W 8792   0.188   5.889  11.218
35725W        W 8793   5.169   4.128   1.178
35726W        W 8794   0.423   3.463  12.875
35727W        W 8795  38.690  14.173  12.030
35728W        W 8796  44.002  38.611  13.468
35729W        W 8797  16.383  41.986  13.703
35730W        W 8798  21.207  18.475  13.694
35731W        W 8799   0.371   8.484  13.004
35732W        W 8800  26.298  40.069   2.311
35733W        W 8801  40.606  22.976  10.390
35734W        W 8802  14.274  33.640  14.729
35735W        W 8803  19.880  34.373  14.939
35736W        W 8804  39.645  14.729  10.687
35737W        W 8805   3.179  44.833   2.369
35738W        W 8806   8.846  33.769  13.417
35739W        W 8807   0.711  12.622   2.860
35740W        W 8808  33.985   1.399   3.152
35741W        W 8809  39.026   5.970  11.891
35742W        W 8810  34.477  28.656   2.691
35743W        W 8811  33.569  35.654  14.861
35744W        W 8812  32.622  43.529   1.078
35745W        W 8813  31.785  42.888  11.665
35746W        W 8814  42.724  37.103  11.388
35747W        W 8815   0.862  41.010   2.716
35748W        W 8816  40.117  30.495  13.395
35749W        W 8817  34.862   0.737   1.900
35750W        W 8818  22.327   7.271   4.608
35751W        W 8819  22.982  32.063   2.112
35752W        W 8820   6.276  17.572  14.380
35753W        W 8821   8.159   8.707  12.994
35754W        W 8822  19.633  13.022   0.759
35755W        W 8823  17.542   0.257   1.879
35756W        W 8824  40.583  31.558   1.227
35757W        W 8825  11.454  40.160   2.717
35758W        W 8826  20.171  32.066   3.812
35759W        W 8827  16.390  25.634   3.238
35760W        W 8828   1.723  31.513   2.546
35761W        W 8829  25.827  24.222   3.751
35762W        W 8830  37.895  28.118  12.428
35763W        W 8831  33.122  21.245   2.206
35764W        W 8832  36.681  22.663   2.123
35765W        W 8833  14.099   0.416  12.490
35766W        W 8834  24.557   9.466   3.373
35767W        W 8835  31.997  11.647  14.385
35768W        W 8836  38.486  43.972   2.109
35769W        W 8837  39.512  21.179  14.281
35770W        W 8838  25.086  11.820  11.886
35771W        W 8839  12.247  14.963  12.380
35772W        W 8840  31.694  32.662  11.924
35773W        W 8841  13.306   3.278   3.279
35774W        W 8842  29.461  38.300  14.085
35775W        W 8843  38.703   1.348   1.738
35776W        W 8844  11.356   8.124   4.065
35777W        W 8845   3.638  25.280  12.907
35778W        W 8846  44.762  17.425  12.216
35779W        W 8847  18.912  43.735  13.893
35780W        W 8848  15.258  40.764   1.885
35781W        W 8849   9.209  19.546   2.170
35782W        W 8850  17.632  10.257  10.268
35783W        W 8851   5.644  28.596   4.361
35784W        W 8852  29.333  21.621   1.278
35785W        W 8853   8.818  26.382  12.071
35786W        W 8854  11.881  16.587  10.201
35787W        W 8855  40.333  31.842   4.238
35788W        W 8856   3.156  27.224  13.019
35789W        W 8857   7.391   2.225   2.177
35790W        W 8858   5.216   0.432   0.219
35791W        W 8859  25.663  26.712   1.309
35792W        W 8860   7.977  23.209   5.139
35793W        W 8861  28.088  15.272  11.997
35794W        W 8862  41.263  31.110   4.011
35795W        W 8863  40.911  25.763   2.121
35796W        W 8864  28.192   7.883  13.817
35797W        W 8865  32.096  24.261  10.716
35798W        W 8866   8.248  29.609  12.769
35799W        W 8867   4.345  29.653  12.183
35800W        W 8868  21.747  14.337  12.248
35801W        W 8869   1.416  32.618  13.803
35802W        W 8870  16.653  33.562  10.520
35803W        W 8871  34.979   5.481  11.015
35804W        W 8872  35.351   8.864  12.466
35805W        W 8873  10.852  26.717  10.582
35806W        W 8874  30.605  17.293   2.635
35807W        W 8875  25.039   4.873   0.443
35808W        W 8876   3.206  18.296  12.006
35809W        W 8877  12.428  23.475   0.920
35810W        W 8878   5.495  33.407  13.748
35811W        W 8879  28.220  32.518  10.485
35812W        W 8880   9.807   4.322  12.964
35813W        W 8881  33.622  29.589   0.755
35814W        W 8882  38.919   6.770   0.409
35815W        W 8883  12.865  41.905  12.352
35816W        W 8884   0.757  21.676  14.760
35817W        W 8885  24.791  27.450  11.405
35818W        W 8886  22.491   7.244  13.985
35819W        W 8887  25.761   8.725  14.924
35820W        W 8888  23.950  21.100  10.783
35821W        W 8889   4.888  30.531   5.027
35822W        W 8890  32.443  16.358  10.650
35823W        W 8891  15.502  27.602  12.395
35824W        W 8892   3.313  34.576   2.408
35825W        W 8893  23.972  10.209   2.208
35826W        W 8894   1.791  31.568  14.513
35827W        W 8895  25.021  26.684   3.219
35828W        W 8896  12.098   9.336   4.555
35829W        W 8897   1.273  16.743  13.458
35830W        W 8898   9.113  37.071  12.556
35831W        W 8899  10.634  38.798   4.376
35832W        W 8900  39.268  19.745  12.779
35833W        W 8901   2.224  44.473  14.319
35834W        W 8902  18.445  10.648  13.543
35835W        W 8903   3.278  20.657  12.242
35836W        W 8904   4.745  11.117   2.331
35837W        W 8905   9.226  37.498   5.004
35838W        W 8906  43.455  35.462  14.728
35839W        W 8907  31.211  28.386  11.703
35840W        W 8908  34.327  10.666   4.884
35841W        W 8909  32.279  23.463   3.671
35842W        W 8910   1.509  34.545   3.966
35843W        W 8911   1.930  38.127   0.252
35844W        W 8912  32.739   1.376   3.413
35845W        W 8913  11.375  15.656   4.634
35846W        W 8914  11.215  44.731  13.100
35847W        W 8915  20.566  23.663   4.191
35848W        W 8916  44.542  24.162  11.611
35849W        W 8917  31.674  21.079  10.712
35850W        W 8918  26.044  41.350   1.220
35851W        W 8919  25.487  19.599  14.583
35852W        W 8920   8.196  43.824   4.263
35853W        W 8921  29.149  20.551   2.522
35854W        W 8922  41.839   0.022   4.619
35855W        W 8923  25.693   8.402   0.309
35856W        W 8924  11.157   9.892   2.153
35857W        W 8925   6.431  35.691  14.286
35858W        W 8926   1.406  26.052  13.894
35859W        W 8927  16.722   0.119  13.501
35860W        W 8928  26.491  28.233  10.881
35861W        W 8929  11.743  26.104   1.282
35862W        W 8930  31.561  44.801   0.300
35863W        W 8931   1.715  44.553  14.375
35864W        W 8932  14.583  40.507   4.592
35865W        W 8933   7.948  14.556   0.447
35866W        W 8934  37.739  40.331   2.316
35867W        W 8935   4.984  10.804  10.871
35868W        W 8936  17.264   3.718  13.461
35869W        W 8937  32.699  35.189   4.129
35870W        W 8938  39.314   5.739  13.524
35871W        W 8939  37.091  23.236   0.251
35872W        W 8940  17.795  31.034  14.971
35873W        W 8941  37.847  38.214   2.416
35874W        W 8942  33.344  40.522   2.730
35875W        W 8943  30.655  19.644   4.193
35876W        W 8944  40.307  22.568  11.121
35877W        W 8945  11.240   9.862  13.891
35878W        W 8946  35.980  32.816   0.856
35879W        W 8947  20.721  44.898   2.224
35880W        W 8948  16.046  32.867   2.836
35881W        W 8949  29.976   1.372  12.027
35882W        W 8950  15.923   5.325   0.509
35883W        W 8951   1.563   9.682   0.480
35884W        W 8952   0.970  26.814   4.474
35885W        W 8953  13.599   8.653  13.648
35886W        W 8954   2.736  34.140  11.412
35887W        W 8955  24.221  31.042  12.637
35888W        W 8956  22.966  22.290  12.538
35889W        W 8957  13.187  18.281   1.990
35890W        W 8958  14.880  15.071  11.607
35891W        W 8959  28.344  38.765   4.956
35892W        W 8960  35.999  22.664   1.252
35893W        W 8961  40.884  19.130  12.183
35894W        W 8962  18.664  44.232   4.922
35895W        W 8963  33.051  30.242  13.524
35896W        W 8964   5.669  18.965  10.755
35897W        W 8965  31.613  44.527  11.997
35898W        W 8966   1.365  11.825   1.931
35899W        W 8967  39.710  42.246   3.478
35900W        W 8968  13.812  12.223  10.946
35901W        W 8969  30.619  38.420   1.498
35902W        W 8970  24.942  25.620  12.493
35903W        W 8971  43.502  27.781   1.746
35904W        W 8972  13.884  24.097   2.354
35905W        W 8973   8.744  36.402  13.071
35906W        W 8974  23.980  13.627   0.758
35907W        W 8975   1.755  24.102   1.418
35908W        W 8976  43.815   4.944   0.310
35909W        W 8977  27.261  28.755   3.243
35910W        W 8978  38.923   2.477  10.668
35911W        W 8979  44.329  27.191   3.848
35912W        W 8980  44.500  38.319   1.212
35913W        W 8981  39.823  37.837  10.672
35914W        W 8982  20.702  30.048  13.689
35915W        W 8983  35.424   1.218  10.766
35916W        W 8984   5.865  36.118   2.230
35917W        W 8985  28.569  33.396  13.319
35918W        W 8986  44.248  23.409   4.246
35919W        W 8987  11.412  30.623   4.264
35920W        W 8988  19.181  23.717  14.525
35921W        W 8989   4.982  30.113   3.830
35922W        W 8990  42.980   4.061   2.003
35923W        W 8991   8.884  41.877   2.020
35924W        W 8992  32.101   2.336  14.433
35925W        W 8993   7.416   4.885   1.865
35926W        W 8994  26.330  13.766  12.352
35927W        W 8995  29.301  19.647  14.810
35928W        W 8996  26.649  12.235   4.252
35929W        W 8997  38.908  24.624   4.244
35930W        W 8998  10.125  42.508   0.413
35931W        W 8999  24.015  20.738   1.851
35932W        W 9000  43.326  30.971  10.877
35933W        W 9001   0.433  17.606  10.798
35934W        W 9002  22.994  26.141  12.110
35935W        W 9003   8.110  39.970  12.025
35936W        W 9004  12.822  17.438   4.607
35937W        W 9005  36.682  30.412  11.471
35938W        W 9006  43.353  23.673   0.304
35939W        W 9007  18.261  11.629   1.004
35940W        W 9008  29.485   7.544  10.194
35941W        W 9009  44.048  16.249  14.217
35942W        W 9010  15.190  37.443  14.561
35943W        W 9011  25.656  41.846  12.803
35944W        W 9012  19.004   2.953   4.576
35945W        W 9013  31.036  12.134  11.117
35946W        W 9014  22.358   7.823  14.479
35947W        W 9015   9.477  40.443  14.795
35948W        W 9016  42.865   0.239   4.114
35949W        W 9017  18.158  35.278  14.880
35950W        W 9018  14.616   0.266  14.292
35951W        W 9019   7.098   1.021  14.828
35952W        W 9020  21.355   0.439   3.358
35953W        W 9021  35.655  40.777  11.213
35954W        W 9022  30.183  18.305   0.640
35955W        W 9023  12.869  34.356  11.186
35956W        W 9024  11.287  28.417   3.232
35957W        W 9025  37.851  40.223  13.784
35958W        W 9026  44.314   2.816   3.155
35959W        W 9027  18.347  41.540   0.960
35960W        W 9028  15.544  41.330  13.706
35961W        W 9029   0.224  31.090   0.745
35962W        W 9030  37.863  32.885  12.057
35963W        W 9031  17.587  28.556   1.271
35964W        W 9032  25.374  44.563  13.968
35965W        W 9033  11.615  37.402   1.759
35966W        W 9034  31.700  10.829   0.434
35967W        W 9035  11.225  32.812   4.713
35968W        W 9036   2.224  14.576  12.936
35969W        W 9037   0.321   7.514   1.355
35970W        W 9038  35.385  39.881  11.679
35971W        W 9039   6.655  30.606   0.782
35972W        W 9040  13.084  13.316   2.838
35973W        W 9041  22.232   1.024   1.968
35974W        W 9042  43.003  39.833  13.397
35975W        W 9043  42.383   8.636   1.270
35976W        W 9044  16.242  18.343   4.621
35977W        W 9045  11.707  35.447  13.452
35978W        W 9046   7.409   3.863  10.663
35979W        W 9047   0.243  28.435  14.891
35980W        W 9048  33.510   8.087   2.185
35981W        W 9049   8.301   0.739   4.847
35982W        W 9050  40.297   9.613  13.844
35983W        W 9051  10.751  39.524   0.439
35984W        W 9052   3.761  23.089   1.588
35985W        W 9053   5.154   6.764   3.891
35986W        W 9054  33.394  25.041   1.694
35987W        W 9055  27.929  41.375   0.848
35988W        W 9056  39.579  22.439  10.662
35989W        W 9057  30.266  43.062  14.065
35990W        W 9058  44.657   2.918   3.527
35991W        W 9059  37.863   4.959  14.154
35992W        W 9060  32.968  32.491   0.887
35993W        W 9061  35.459  34.018  12.458
35994W        W 9062  23.671  27.044  12.085
35995W        W 9063  19.167  35.218  11.184
35996W        W 9064  39.430  39.317   2.389
35997W        W 9065  32.414  17.359   2.700
35998W        W 9066   4.506  36.044  11.485
35999W        W 9067  44.279  10.610   2.870
36000W        W 9068  41.028  30.195  11.577
36001W        W 9069  23.063  35.376   0.516
36002W        W 9070  29.925  10.214  11.239
36003W        W 9071  29.616  13.113   4.212
36004W        W 9072   4.818  13.359   4.676
36005W        W 9073   1.878  44.247  12.409
36006W        W 9074  25.998  33.793   1.246
36007W        W 9075  43.883  29.155  12.561
36008W        W 9076  36.503   8.640  13.519
36009W        W 9077  11.063  14.501  11.066
36010W        W 9078   9.236  18.400   0.369
36011W        W 9079   6.233  16.159  12.090
36012W        W 9080  19.206   7.666   0.323
36013W        W 9081  29.664  35.158   4.181
36014W        W 9082   8.289  18.783  11.070
36015W        W 9083  31.294  33.326  12.032
36016W        W 9084  27.981  39.067   3.744
36017W        W 9085  20.971  23.455   3.122
36018W        W 9086  43.935  27.602   1.936
36019W        W 9087  39.331  36.393   4.509
36020W        W 9088  14.248  19.143  12.533
36021W        W 9089   2.893  43.437  12.568
36022W        W 9090  22.250   9.369  12.953
36023W        W 9091  39.493  29.066  14.871
36024W        W 9092   9.332  15.544  14.384
36025W        W 9093  18.757  43.275  12.997
36026W        W 9094  19.631   6.754  11.959
36027W        W 9095  31.764  39.812   4.137
36028W        W 9096   0.505  36.450   4.577
36029W        W 9097  36.653   0.016  13.291
36030W        W 9098   1.518  39.816   4.758
36031W        W 9099  43.007  41.610   2.327
36032W        W 9100  18.588   8.744  11.836
36033W        W 9101  16.011  36.111  12.064
36034W        W 9102  28.889  16.073   3.718
36035W        W 9103  43.704  23.575  13.868
36036W        W 9104  26.006   8.931  13.472
36037W        W 9105  35.031  35.888   1.762
36038W        W 9106   3.839  11.648   3.256
36039W        W 9107   6.365  19.961  12.517
36040W        W 9108   0.255  42.974  14.735
36041W        W 9109  18.054  17.040   2.759
36042W        W 9110  28.342  18.407   0.614
36043W        W 9111  20.238   2.442  12.956
36044W        W 9112   3.734  21.140   2.188
36045W        W 9113  26.202  12.610  11.652
36046W        W 9114  22.198  41.302  12.944
36047W        W 9115   5.340  26.321   0.887
36048W        W 9116  25.040   8.270   3.693
36049W        W 9117  29.559  14.495  14.065
36050W        W 9118  19.699   5.403  13.741
36051W        W 9119  24.952   7.899  11.169
36052W        W 9120  31.145  31.498   2.530
36053W        W 9121  15.503  33.659  14.437
36054W        W 9122   3.704  11.165   1.393
36055W        W 9123  42.816  25.406  14.953
36056W        W 9124  10.155  34.123   2.392
36057W        W 9125   3.783  19.073  12.792
36058W        W 9126   9.199  35.070   0.027
36059W        W 9127   0.434   1.844   3.837
36060W        W 9128   3.470  20.045   3.717
36061W        W 9129  41.252  21.124   2.846
36062W        W 9130  21.296  32.853  13.953
36063W        W 9131  41.791  14.663   3.710
36064W        W 9132  41.288  27.665  11.392
36065W        W 9133  42.829   1.057   2.715
36066W        W 9134  42.344   0.422   1.595
36067W        W 9135  24.139  34.360   2.723
36068W        W 9136  23.667  40.473   2.189
36069W        W 9137  36.145  14.692  10.487
36070W        W 9138  21.857  17.790   4.287
36071W        W 9139  35.369  20.725   2.444
36072W        W 9140  39.971  33.380   3.618
36073W        W 9141  13.824   3.306   2.305
36074W        W 9142  18.022  11.817  10.652
36075W        W 9143  29.111  31.613   4.838
36076W        W 9144   2.787  41.298   1.660
36077W        W 9145  33.036  32.491   4.946
36078W        W 9146  24.158  14.875  10.727
36079W        W 9147  40.952  14.873  13.843
36080W        W 9148  13.271  30.156  13.633
36081W        W 9149  29.178  28.176   0.052
36082W        W 9150   8.750  29.250   2.349
36083W        W 9151  15.625  32.093   2.094
36084W        W 9152  23.713   0.944  10.611
36085W        W 9153  29.001  12.277  12.950
36086W        W 9154  36.476  44.831   4.906
36087W        W 9155  29.491  44.024  10.704
36088W        W 9156  40.975  34.311   2.431
36089W        W 9157  43.320  39.867  14.270
36090W        W 9158  25.553  38.631   2.771
36091W        W 9159  36.339  36.200  13.705
36092W        W 9160  13.400   5.346  10.966
36093W        W 9161  17.111  32.460   1.681
36094W        W 9162  40.631  19.190   1.701
36095W        W 9163  31.032  20.722  13.944
36096W        W 9164  18.324  27.692   1.213
36097W        W 9165  39.610  13.001  14.422
36098W        W 9166  17.221  13.145   1.363
36099W        W 9167  30.546  31.668   0.004
36100W        W 9168   0.053  15.121   1.392
36101W        W 9169   5.854  40.093   4.017
36102W        W 9170   7.927  28.902   0.424
36103W        W 9171  31.377  18.850   1.354
36104W        W 9172  40.968  37.444   0.987
36105W        W 9173  43.473  37.936   1.217
36106W        W 9174  26.051  28.107   2.841
36107W        W 9175  10.803  17.111   4.275
36108W        W 9176   6.322  36.331  12.518
36109W        W 9177   5.165  43.023   9.854
36110W        W 9178  30.048   1.651  14.049
36111W        W 9179  18.456  39.114  12.525
36112W        W 9180  20.009  39.713  13.043
36113W        W 9181   1.469  20.250  13.452
36114W        W 9182   5.364  32.829  11.505
36115W        W 9183  11.414  28.159  14.046
36116W        W 9184   6.344  12.190  13.114
36117W        W 9185  18.069  23.966  13.817
36118W        W 9186   9.053   5.133   0.340
36119W        W 9187  38.101  44.901   4.574
36120W        W 9188  42.488  19.733   0.514
36121W        W 9189   8.278  43.291   4.324
36122W        W 9190   5.333  20.490   2.132
36123W        W 9191  27.959  23.083  12.427
36124W        W 9192  11.883  21.516   2.400
36125W        W 9193   5.696  38.002   0.365
36126W        W 9194   8.460  27.381  14.533
36127W        W 9195  25.700  19.806  11.591
36128W        W 9196  31.207   2.608   3.165
36129W        W 9197   8.342  29.126  13.051
36130W        W 9198  28.647  32.644  12.274
36131W        W 9199  34.032  13.703  12.338
36132W        W 9200  15.820  10.622   2.208
36133W        W 9201  11.326  42.994  10.315
36134W        W 9202  39.451  19.539   0.460
36135W        W 9203  19.706  26.614  13.638
36136W        W 9204  12.048  33.511  13.914
36137W        W 9205  28.052  36.769  11.131
36138W        W 9206  33.898  37.461  12.165
36139W        W 9207  36.198  16.699   0.756
36140W        W 9208  41.419  22.037   2.284
36141W        W 9209  36.447  36.967   3.457
36142W        W 9210  33.160  38.772  12.480
36143W        W 9211  24.524  30.911   4.858
36144W        W 9212   6.854  23.025   1.435
36145W        W 9213  12.868  30.135   0.926
36146W        W 9214  13.802  34.433   4.226
36147W        W 9215  18.619   3.727   3.218
36148W        W 9216  10.653  17.178   1.209
36149W        W 9217  29.588  38.619   3.781
36150W        W 9218   5.405  17.788  14.420
36151W        W 9219   4.780  33.909  12.446
36152W        W 9220  10.093  19.294   4.161
36153W        W 9221  44.912  13.412   4.193
36154W        W 9222  32.870  35.524   3.364
36155W        W 9223   2.826  37.111   3.392
36156W        W 9224  15.664  15.239  12.071
36157W        W 9225   9.923  24.102  14.105
36158W        W 9226  23.075  20.618  13.888
36159W        W 9227  37.949  34.118  11.634
36160W        W 9228  18.917  29.233  11.122
36161W        W 9229  15.827  33.190  14.426
36162W        W 9230  41.043  20.508  12.437
36163W        W 9231  43.028   9.724   1.397
36164W        W 9232  32.094  28.039   3.162
36165W        W 9233  39.517   4.709  11.947
36166W        W 9234  38.847  14.759  11.611
36167W        W 9235  38.088  43.776  13.042
36168W        W 9236   3.963  32.512   0.884
36169W        W 9237  20.398  16.111  14.783
36170W        W 9238  10.683   6.450   2.195
36171W        W 9239  25.286   6.623   3.212
36172W        W 9240  32.775  32.209  12.868
36173W        W 9241  31.608  34.167   0.895
36174W        W 9242  17.120  28.019   3.669
36175W        W 9243   8.291   5.150   2.269
36176W        W 9244   9.927  28.049   4.304
36177W        W 9245  40.734   4.476  13.480
36178W        W 9246  27.148  21.332   1.887
36179W        W 9247   0.992   3.517  10.740
36180W        W 9248  34.039   5.937   4.707
36181W        W 9249  14.355  33.591   4.546
36182W        W 9250  12.525  14.621  13.911
36183W        W 9251  13.398  17.660  13.912
36184W        W 9252  10.486  43.895  11.509
36185W        W 9253  18.779   5.057   0.831
36186W        W 9254  39.624  32.382  13.027
36187W        W 9255  24.118  39.139   2.302
36188W        W 9256  27.422   8.346  12.353
36189W        W 9257   0.974  33.015  12.130
36190W        W 9258  30.270   8.105   1.751
36191W        W 9259  22.153   5.397  13.329
36192W        W 9260   8.604  40.061  14.865
36193W        W 9261  20.755  38.003  14.763
36194W        W 9262   6.220  39.899  14.331
36195W        W 9263   8.743  23.904   2.705
36196W        W 9264  26.155   4.450   2.932
36197W        W 9265  32.795  17.355  11.522
36198W        W 9266   0.498  11.395   0.336
36199W        W 9267  36.380  29.885  13.497
36200W        W 9268   6.400   0.294   2.863
36201W        W 9269  40.564   7.902  10.513
36202W        W 9270  43.563  34.811  11.142
36203W        W 9271  11.308  32.968   1.713
36204W        W 9272  38.094  38.587  10.545
36205W        W 9273  34.315   6.853  13.294
36206W        W 9274  13.392  15.753   3.578
36207W        W 9275  13.521  25.631   4.188
36208W        W 9276  23.992   1.574   3.189
36209W        W 9277  41.946   5.713   3.910
36210W        W 9278  25.729  38.447   0.040
36211W        W 9279  16.540  38.475  13.993
36212W        W 9280   1.179  34.085   0.482
36213W        W 9281  14.688  28.062  11.928
36214W        W 9282  10.380  42.438   0.848
36215W        W 9283  19.070  21.033   3.183
36216W        W 9284   2.222   4.274  10.521
36217W        W 9285  22.999  37.045   3.242
36218W        W 9286  14.710   3.453   5.409
36219W        W 9287  21.160  29.949  13.489
36220W        W 9288  36.809   4.444   1.647
36221W        W 9289   7.257  13.286   0.382
36222W        W 9290  14.770  34.223   4.172
36223W        W 9291  29.832  33.812   0.697
36224W        W 9292  17.346  19.047  12.114
36225W        W 9293  12.648  27.619   2.209
36226W        W 9294   4.283   3.189  12.369
36227W        W 9295   2.341   5.190  10.599
36228W        W 9296  16.563  22.814  11.479
36229W        W 9297  24.679   6.396   1.328
36230W        W 9298  20.794   3.743  13.624
36231W        W 9299  41.728  12.837   2.783
36232W        W 9300  30.610   8.401   0.396
36233W        W 9301  34.599   9.266  13.300
36234W        W 9302  44.413  26.553   0.779
36235W        W 9303  18.693  26.607  12.796
36236W        W 9304  41.852   7.415   5.086
36237W        W 9305  40.680   4.711   4.222
36238W        W 9306  18.531  22.492  12.793
36239W        W 9307  37.570  10.552  11.090
36240W        W 9308  32.403  24.186  13.600
36241W        W 9309  24.469   1.966  11.973
36242W        W 9310  22.995  17.507  13.415
36243W        W 9311  11.287  10.860  10.531
36244W        W 9312  33.534  30.886   2.643
36245W        W 9313  35.720  31.753   5.167
36246W        W 9314  24.064  15.618   5.027
36247W        W 9315  20.379  44.378   4.084
36248W        W 9316  20.032  38.783  14.870
36249W        W 9317  28.583  37.504  10.642
36250W        W 9318  24.498  25.612  12.765
36251W        W 9319  11.727  25.509  14.527
36252W        W 9320  26.142  25.412  13.889
36253W        W 9321  40.327  42.670  10.723
36254W        W 9322   8.789   3.762   4.130
36255W        W 9323  30.067  41.515  14.110
36256W        W 9324  32.159  15.865   4.631
36257W        W 9325  19.858  26.293  12.381
36258W        W 9326  12.690  22.123   1.206
36259W        W 9327   4.421  12.637  13.377
36260W        W 9328  28.090  33.822   1.473
36261W        W 9329   2.848  18.705  10.809
36262W        W 9330  15.222  34.930   0.647
36263W        W 9331  38.328  26.253   4.622
36264W        W 9332  12.718  13.248   4.138
36265W        W 9333  27.118   9.759   2.796
36266W        W 9334  23.847   9.421   2.540
36267W        W 9335  29.968   7.419  13.917
36268W        W 9336  35.516  20.717   1.174
36269W        W 9337  25.273  32.353   2.382
36270W        W 9338  29.389   1.729   4.141
36271W        W 9339  22.282  29.402  12.473
36272W        W 9340  22.492  13.269  13.247
36273W        W 9341  24.474  23.953   3.225
36274W        W 9342  37.014  39.330  11.157
36275W        W 9343   7.345  34.606  11.574
36276W        W 9344  35.406  22.967   1.853
36277W        W 9345   7.693  24.183   1.365
36278W        W 9346  35.876  35.134  12.744
36279W        W 9347   5.392  40.338   0.369
36280W        W 9348  31.015  44.928   3.915
36281W        W 9349  44.726   7.685  10.979
36282W        W 9350   5.187  38.762  11.642
36283W        W 9351  40.022   4.709  12.101
36284W        W 9352  11.874   2.390  14.776
36285W        W 9353   1.272  22.959  12.825
36286W        W 9354  26.938   1.781  14.320
36287W        W 9355  11.412  42.822   2.220
36288W        W 9356  28.125  24.239   4.654
36289W        W 9357  44.800  32.615   2.958
36290W        W 9358  21.992  16.710  14.054
36291W        W 9359  30.421  29.545   1.788
36292W        W 9360  31.380  11.265   1.719
36293W        W 9361  16.983  37.824  13.424
36294W        W 9362  26.856  38.464  12.002
36295W        W 9363  39.586   5.694  11.091
36296W        W 9364  16.586  27.042   2.881
36297W        W 9365   2.222  15.199   1.737
36298W        W 9366  37.038  25.424  10.698
36299W        W 9367  12.641  38.021  14.773
36300W        W 9368  29.893  24.084   0.338
36301W        W 9369  30.981  39.951   2.474
36302W        W 9370  32.855  33.437   4.780
36303W        W 9371  26.557  34.208  12.944
36304W        W 9372  41.558  13.939   5.006
36305W        W 9373   0.835  20.620   4.372
36306W        W 9374  27.886  21.224  14.278
36307W        W 9375   7.143  17.728  12.146
36308W        W 9376  27.541  21.602  11.831
36309W        W 9377  15.634  24.522   4.078
36310W        W 9378  27.035  18.006   2.894
36311W        W 9379   5.216  19.694  11.973
36312W        W 9380  41.333  41.464   0.474
36313W        W 9381   4.643  33.046   3.966
36314W        W 9382  36.593  30.957   5.455
36315W        W 9383  26.877  23.680  14.044
36316W        W 9384  28.552  24.546   0.717
36317W        W 9385  17.203  26.040  12.739
36318W        W 9386  34.869  28.328  13.347
36319W        W 9387  28.948  19.793   1.314
36320W        W 9388  21.274   0.959   3.340
36321W        W 9389  12.697  27.458   4.455
36322W        W 9390  35.223  22.617   3.765
36323W        W 9391  33.169  44.435  12.490
36324W        W 9392   9.818  42.215   3.813
36325W        W 9393  12.631  32.819   0.031
36326W        W 9394  26.180  19.466   3.629
36327W        W 9395  30.239  27.362   4.536
36328W        W 9396  34.364  35.576   4.567
36329W        W 9397  35.799   3.233   0.856
36330W        W 9398  36.125  26.657   0.895
36331W        W 9399   1.434   2.672  14.893
36332W        W 9400  13.796  15.531  11.074
36333W        W 9401   4.736  37.365  13.112
36334W        W 9402  12.303   9.669   2.141
36335W        W 9403  18.554  35.257   1.965
36336W        W 9404  40.532  28.957   4.121
36337W        W 9405  11.299  21.300   2.942
36338W        W 9406  24.587  26.349   5.015
36339W        W 9407   0.492  33.130  12.407
36340W        W 9408  28.430  37.520   0.270
36341W        W 9409  22.756  16.811   2.262
36342W        W 9410  42.275  40.366  10.663
36343W        W 9411  39.197   3.231  12.001
36344W        W 9412  22.811  20.087   1.757
36345W        W 9413  27.482  43.372  13.542
36346W        W 9414  13.129  12.413   4.104
36347W        W 9415  39.204  42.283   3.566
36348W        W 9416  39.529  12.615  11.379
36349W        W 9417  10.942  42.895   0.331
36350W        W 9418  22.748  12.158   2.286
36351W        W 9419   3.435  18.486   3.757
36352W        W 9420   3.947  37.305   2.979
36353W        W 9421  13.205   9.745   2.189
36354W        W 9422   6.361  14.036  14.765
36355W        W 9423  27.517  41.382   1.594
36356W        W 9424  27.933  20.494   1.365
36357W        W 9425  36.865  36.662   3.590
36358W        W 9426  26.005  16.019   2.817
36359W        W 9427  37.569  21.336  12.718
36360W        W 9428  22.573  42.236  11.551
36361W        W 9429  24.600  20.078   1.660
36362W        W 9430  25.536   9.083   5.064
36363W        W 9431  13.773  34.535  13.953
36364W        W 9432   9.864  37.871   3.222
36365W        W 9433  35.101  31.567   4.125
36366W        W 9434  37.540  21.641  13.957
36367W        W 9435  32.049   6.202  11.956
36368W        W 9436  14.171  28.446   0.301
36369W        W 9437  13.660  26.034  12.901
36370W        W 9438  10.772  13.635   4.276
36371W        W 9439  13.318   3.528   0.760
36372W        W 9440  22.620   7.831  10.581
36373W        W 9441  15.693  42.390   2.231
36374W        W 9442   1.505  28.477   3.295
36375W        W 9443  23.279  15.263  13.060
36376W        W 9444  33.102  14.386  10.550
36377W        W 9445  14.862  23.512   4.689
36378W        W 9446   0.912  24.086   3.261
36379W        W 9447  14.225  13.076  10.998
36380W        W 9448  25.703   7.445   3.757
36381W        W 9449  36.409  21.384  12.094
36382W        W 9450  14.580  13.053  14.838
36383W        W 9451  28.677  14.084   1.336
36384W        W 9452   2.665  10.650   1.657
36385W        W 9453  14.647   5.878   0.252
36386W        W 9454  12.397   9.269  14.950
36387W        W 9455  40.696  19.667   4.192
36388W        W 9456  27.073  21.236   3.247
36389W        W 9457  23.578  35.981   1.195
36390W        W 9458  36.559  26.257   0.036
36391W        W 9459  16.039  40.668  11.736
36392W        W 9460  30.432  27.239   2.815
36393W        W 9461  11.301  30.678   2.369
36394W        W 9462   2.939  16.335  12.099
36395W        W 9463   7.267  25.400   2.360
36396W        W 9464  27.220  30.154  10.726
36397W        W 9465   9.699  13.771   4.151
36398W        W 9466  27.034  34.053  10.643
36399W        W 9467  31.965  41.478  11.470
36400W        W 9468   6.695  22.292  11.626
36401W        W 9469  22.779  41.119   1.918
36402W        W 9470   6.325  39.954   3.224
36403W        W 9471  26.274  20.746  10.668
36404W        W 9472  44.868  19.648   2.544
36405W        W 9473   4.250   6.536   0.345
36406W        W 9474  23.960  22.098   3.232
36407W        W 9475  41.307  24.708   1.725
36408W        W 9476  21.682  16.255   1.210
36409W        W 9477  14.915  26.525  14.805
36410W        W 9478  32.691  39.053  10.783
36411W        W 9479  38.963   7.432  10.184
36412W        W 9480  41.896  17.766  12.385
36413W        W 9481  28.007   2.587   0.161
36414W        W 9482  41.985  29.426   0.380
36415W        W 9483  15.583  44.254   4.436
36416W        W 9484  11.739  36.994  10.676
36417W        W 9485  43.410  36.650  12.879
36418W        W 9486  10.262  42.401  14.905
36419W        W 9487  23.732  34.694   0.309
36420W        W 9488  38.304  36.442  14.806
36421W        W 9489   3.980  21.213   0.210
36422W        W 9490  16.779  28.957   0.765
36423W        W 9491  44.257  36.481  14.927
36424W        W 9492   1.444  25.529  14.375
36425W        W 9493  35.072  19.107   2.886
36426W        W 9494  32.371  40.449  13.850
36427W        W 9495  35.683  39.962  13.365
36428W        W 9496  18.768  39.977  14.871
36429W        W 9497  28.165  28.408   0.337
36430W        W 9498  28.027  26.468   1.392
36431W        W 9499  36.770  40.530  14.852
36432W        W 9500  24.429  21.192  14.044
36433W        W 9501   9.268  21.262  11.060
36434W        W 9502  34.119  31.194  13.029
36435W        W 9503   7.711  10.258  14.480
36436W        W 9504  26.461  19.786   0.397
36437W        W 9505  25.193  14.812  10.623
36438W        W 9506  30.801  16.466  13.572
36439W        W 9507   1.422  36.698   2.244
36440W        W 9508  22.624  39.496  11.256
36441W        W 9509  21.615   1.671   9.922
36442W        W 9510  20.051  27.134  11.120
36443W        W 9511   0.235  33.326   1.925
36444W        W 9512   1.181  37.416   4.486
36445W        W 9513   0.715  20.697   2.849
36446W        W 9514  18.102   1.582  13.113
36447W        W 9515   8.034   1.838   1.250
36448W        W 9516   2.410   3.901   0.119
36449W        W 9517  33.826  31.760   2.323
36450W        W 9518  25.121  14.728   5.006
36451W        W 9519  15.838  13.888   1.978
36452W        W 9520  25.944  40.894  13.011
36453W        W 9521   9.334  22.299  11.099
36454W        W 9522  10.883  22.351   0.011
36455W        W 9523  44.409  38.023   0.738
36456W        W 9524   8.643  26.608   4.537
36457W        W 9525  14.594   3.691  12.433
36458W        W 9526   3.249  36.846   3.551
36459W        W 9527  10.777  35.559   2.306
36460W        W 9528   3.162  35.591   1.797
36461W        W 9529  20.229   1.931  12.881
36462W        W 9530  25.664  41.410  10.581
36463W        W 9531   2.484  35.250   3.619
36464W        W 9532  34.603  40.279   4.722
36465W        W 9533  36.652  29.509   0.960
36466W        W 9534  29.450  17.242   1.392
36467W        W 9535  24.083   2.690  13.291
36468W        W 9536  11.370   3.029   1.833
36469W        W 9537   6.498   5.877   1.373
36470W        W 9538  24.088  22.592   0.388
36471W        W 9539  11.671  28.188  10.553
36472W        W 9540  25.789  40.424   4.084
36473W        W 9541  19.616  35.598   2.050
36474W        W 9542  38.323   8.327  11.205
36475W        W 9543  30.361  35.655  11.430
36476W        W 9544  13.651  35.838  14.805
36477W        W 9545  36.104  28.644  10.709
36478W        W 9546  24.595  44.184   2.877
36479W        W 9547   3.950   7.304   0.268
36480W        W 9548  12.721  44.862  11.588
36481W        W 9549  22.038   8.273  11.012
36482W        W 9550   2.746   6.543  11.418
36483W        W 9551  33.822  10.801   2.823
36484W        W 9552  33.814  42.428   0.795
36485W        W 9553  30.588   3.558  14.921
36486W        W 9554  15.179  26.522  11.277
36487W        W 9555  36.568  10.378  14.416
36488W        W 9556  33.085   5.790   3.208
36489W        W 9557  25.976  31.794   5.070
36490W        W 9558  40.792   3.867   2.443
36491W        W 9559   8.097   6.854   1.849
36492W        W 9560  37.435  33.861  13.070
36493W        W 9561  40.300  37.948  11.878
36494W        W 9562  25.155   7.378   2.692
36495W        W 9563  13.365  12.535   2.376
36496W        W 9564  18.135  35.835  14.919
36497W        W 9565   1.259  35.263  13.100
36498W        W 9566  41.369   0.321   5.079
36499W        W 9567   7.857  44.202  12.090
36500W        W 9568  24.232  32.106  10.445
36501W        W 9569  36.043  33.321   0.887
36502W        W 9570  32.977   2.561  12.101
36503W        W 9571  26.694  16.759   2.254
36504W        W 9572  14.535  41.531  11.969
36505W        W 9573  40.072  36.995   0.807
36506W        W 9574  37.705  30.470   2.329
36507W        W 9575  34.549   8.845   0.069
36508W        W 9576   2.148  25.986   4.238
36509W        W 9577  36.419  38.387   1.174
36510W        W 9578  36.113  23.159   1.423
36511W        W 9579   9.671  12.939  14.878
36512W        W 9580  21.741   0.773   0.346
36513W        W 9581  41.905   0.231  13.854
36514W        W 9582   4.966   7.625  14.196
36515W        W 9583  11.177  17.842   4.132
36516W        W 9584   8.195  30.384  12.220
36517W        W 9585  25.054  41.085   4.577
36518W        W 9586  27.218  40.248  12.208
36519W        W 9587  36.860  27.209   0.879
36520W        W 9588  42.525  36.368  11.525
36521W        W 9589  39.993  21.115  11.131
36522W        W 9590  38.922  26.033   1.850
36523W        W 9591  15.667  38.288  10.321
36524W        W 9592  27.354  13.526  10.765
36525W        W 9593  37.038  24.560  10.651
36526W        W 9594  18.073  38.266  12.343
36527W        W 9595  14.195  15.380  11.540
36528W        W 9596  16.358   5.476   0.021
36529W        W 9597  21.698  11.385  13.054
36530W        W 9598  40.525  36.048   1.432
36531W        W 9599   7.909  36.928   3.197
36532W        W 9600  10.148  15.275   4.833
36533W        W 9601  40.786  37.911   2.936
36534W        W 9602   2.478  40.707   3.372
36535W        W 9603  30.445  33.143   4.598
36536W        W 9604  19.526   0.061   2.689
36537W        W 9605  34.862  14.794   0.447
36538W        W 9606  43.235  35.546   1.647
36539W        W 9607  33.215   6.741   2.661
36540W        W 9608  20.171  36.020   2.297
36541W        W 9609  40.304  34.374   4.137
36542W        W 9610   4.398  44.231  12.349
36543W        W 9611  32.615   1.613  12.066
36544W        W 9612   9.350  33.365  11.138
36545W        W 9613  36.170  13.579   2.402
36546W        W 9614   4.288   8.759   1.550
36547W        W 9615  40.672  33.699  14.860
36548W        W 9616  22.451  35.626   1.923
36549W        W 9617  14.079  41.531   0.795
36550W        W 9618   5.396  24.787  12.941
36551W        W 9619  39.304   6.315   9.842
36552W        W 9620  15.875  19.213   4.003
36553W        W 9621   7.717  22.452   0.413
36554W        W 9622  15.841  25.831  13.432
36555W        W 9623  18.330   6.741   0.466
36556W        W 9624   9.252  35.083   0.541
36557W        W 9625   4.924   5.776   4.203
36558W        W 9626  17.288   0.054   3.314
36559W        W 9627  12.214  16.340   2.863
36560W        W 9628  34.131  11.154  14.318
36561W        W 9629  20.588   6.721   4.341
36562W        W 9630  23.149   8.586  11.555
36563W        W 9631  17.063  25.665   2.462
36564W        W 9632   2.552  43.941  13.127
36565W        W 9633  22.726  31.865   5.585
36566W        W 9634  31.497  31.323  12.592
36567W        W 9635  14.649  40.332   1.703
36568W        W 9636  16.740  42.220   0.407
36569W        W 9637  22.078  24.077  14.522
36570W        W 9638  36.193  37.894   0.915
36571W        W 9639  21.599  10.125  13.079
36572W        W 9640  33.093  43.040   2.971
36573W        W 9641  22.996  44.422   2.224
36574W        W 9642  28.641   3.837   0.171
36575W        W 9643  23.914  35.855   1.981
36576W        W 9644  27.845   0.186  12.873
36577W        W 9645  21.605  20.052   2.953
36578W        W 9646  20.343  43.066  14.755
36579W        W 9647  38.103  13.863   0.287
36580W        W 9648  18.124   6.688   2.296
36581W        W 9649   0.024   5.898  14.410
36582W        W 9650  11.336  25.357   1.272
36583W        W 9651  34.416   9.810  11.735
36584W        W 9652  25.403  16.733   3.735
36585W        W 9653   0.381   4.037   4.278
36586W        W 9654  16.012  32.026  12.873
36587W        W 9655  37.118  31.853  11.643
36588W        W 9656   0.304  31.355  12.058
36589W        W 9657  40.913   4.246   0.641
36590W        W 9658  43.623  25.585   3.366
36591W        W 9659  26.339  11.593  12.498
36592W        W 9660  42.716  18.820  13.030
36593W        W 9661  16.349  15.573   1.658
36594W        W 9662  33.053  32.636  13.609
36595W        W 9663  37.618  34.107   0.170
36596W        W 9664  24.057   7.193  10.486
36597W        W 9665  44.711  26.660  11.867
36598W        W 9666  18.821  31.646   1.446
36599W        W 9667  21.566  15.857  11.433
36600W        W 9668  35.307  11.828  10.801
36601W        W 9669  16.842   0.320  12.086
36602W        W 9670   9.435  17.636   1.426
36603W        W 9671  29.450  40.029  12.975
36604W        W 9672  35.611  18.039  10.646
36605W        W 9673  19.030   0.887  11.501
36606W        W 9674   7.508  12.594  13.512
36607W        W 9675  33.587  44.833   0.522
36608W        W 9676  33.128  42.254   4.246
36609W        W 9677   3.366  17.421   1.212
36610W        W 9678  19.559  25.618   4.582
36611W        W 9679  21.129  25.750   1.199
36612W        W 9680  32.144  16.259  11.904
36613W        W 9681   8.283  15.725   2.824
36614W        W 9682  37.872  29.110  14.323
36615W        W 9683  15.563  15.455   1.218
36616W        W 9684  34.801  22.631   1.338
36617W        W 9685  25.418  17.024   3.268
36618W        W 9686  21.521  27.123   4.536
36619W        W 9687   4.898  19.078  13.359
36620W        W 9688  19.340  15.576  11.179
36621W        W 9689  44.629  12.870   3.535
36622W        W 9690  43.386   0.893   0.459
36623W        W 9691  19.147  18.101   3.871
36624W        W 9692  18.565  11.584  12.466
36625W        W 9693   2.014  44.235   5.136
36626W        W 9694   8.277  44.130  11.238
36627W        W 9695  23.615  37.992  12.048
36628W        W 9696   1.966   9.716   3.583
36629W        W 9697  42.461  34.839  11.642
36630W        W 9698  18.814  28.256  11.038
36631W        W 9699   3.951  31.443   0.944
36632W        W 9700   3.207  11.140   1.271
36633W        W 9701  21.242   7.783   3.298
36634W        W 9702  27.312  32.480   2.535
36635W        W 9703  10.397  36.502  13.553
36636W        W 9704  35.551  14.277   0.348
36637W        W 9705  22.549  40.938  14.807
36638W        W 9706  15.177  41.230   1.681
36639W        W 9707  13.389   1.641  10.265
36640W        W 9708  42.578  22.953   3.252
36641W        W 9709  29.126  27.345  11.191
36642W        W 9710  29.183  21.518  11.619
36643W        W 9711   0.470   5.280   0.183
36644W        W 9712  10.259  16.640   4.137
36645W        W 9713   4.533  29.528  13.765
36646W        W 9714  31.239   8.476  11.488
36647W        W 9715  27.128   8.333   3.855
36648W        W 9716  32.790  12.559   3.447
36649W        W 9717  15.525  23.596   1.672
36650W        W 9718   2.516  31.721   4.878
36651W        W 9719  31.348   1.401  11.401
36652W        W 9720  29.034   6.821   2.926
36653W        W 9721   3.867   7.642  10.688
36654W        W 9722  43.786  26.035   0.411
36655W        W 9723   1.268  42.445  14.286
36656W        W 9724   0.796  41.987   2.653
36657W        W 9725  32.248   5.793  14.494
36658W        W 9726  44.457   0.200  13.040
36659W        W 9727  17.677  35.562  14.893
36660W        W 9728  19.163  34.218  11.047
36661W        W 9729  18.756   9.975   4.626
36662W        W 9730  25.166   7.915   5.168
36663W        W 9731   6.895  26.220  12.055
36664W        W 9732  31.646  33.741   2.320
36665W        W 9733  35.308   2.598   3.349
36666W        W 9734  13.613  11.367   3.694
36667W        W 9735   8.684   9.247  14.383
36668W        W 9736  20.674  41.934  14.951
36669W        W 9737   1.682   5.665  11.039
36670W        W 9738  18.703  35.904  11.564
36671W        W 9739  37.577  34.432   2.870
36672W        W 9740  29.097  39.759  12.355
36673W        W 9741  13.263  10.633   1.818
36674W        W 9742  16.557  14.662   0.771
36675W        W 9743  32.424  34.193   2.211
36676W        W 9744  28.642  29.007   1.638
36677W        W 9745  26.273  21.717  14.078
36678W        W 9746  12.401  44.618   2.138
36679W        W 9747  44.355  12.818  11.624
36680W        W 9748  28.763   5.785   1.305
36681W        W 9749   0.872  26.001  10.648
36682W        W 9750  41.047   5.515   0.409
36683W        W 9751  16.349  13.824   1.883
36684W        W 9752  33.523  37.792   0.672
36685W        W 9753  20.934  18.096  12.888
36686W        W 9754  11.233   1.918  13.017
36687W        W 9755   5.299  36.979   2.826
36688W        W 9756  28.736  43.843  14.822
36689W        W 9757   6.402  16.414   4.099
36690W        W 9758  28.258  29.616  12.061
36691W        W 9759  28.793   3.248  14.643
36692W        W 9760  34.551  43.443   4.046
36693W        W 9761  44.831  25.008   3.442
36694W        W 9762  40.925   2.885  13.395
36695W        W 9763  36.722  12.048  13.625
36696W        W 9764  17.095   5.734  14.484
36697W        W 9765  16.518  11.058  12.340
36698W        W 9766  25.336  43.051  14.889
36699W        W 9767  10.293  15.096   4.285
36700W        W 9768  37.729  17.722   2.223
36701W        W 9769  17.038  19.346   3.697
36702W        W 9770   2.723   3.306  12.425
36703W        W 9771  40.834  20.985  12.444
36704W        W 9772  30.712  43.735   1.467
36705W        W 9773   1.286  39.169   4.290
36706W        W 9774  20.606  34.400   4.169
36707W        W 9775  42.683  19.314  12.945
36708W        W 9776  44.442  24.543   1.747
36709W        W 9777   0.429   5.143  11.183
36710W        W 9778  23.340   2.713   0.237
36711W        W 9779  32.157  33.640   4.118
36712W        W 9780  39.903  25.408   3.161
36713W        W 9781  15.738  13.917  13.564
36714W        W 9782  40.436  40.662  11.535
36715W        W 9783   8.436  15.498   1.465
36716W        W 9784  18.796  24.545  12.156
36717W        W 9785  24.650  19.228   3.218
36718W        W 9786  38.871  35.948  14.414
36719W        W 9787  28.637  40.465   1.342
36720W        W 9788  44.423  40.511   0.195
36721W        W 9789  12.021  32.925  11.751
36722W        W 9790  26.438  22.156  12.937
36723W        W 9791  33.847  15.339   4.216
36724W        W 9792  34.313  44.270  11.105
36725W        W 9793  19.814  17.650   4.151
36726W        W 9794  26.130  11.826   3.912
36727W        W 9795   9.148  15.697  13.031
36728W        W 9796   2.354  41.158  14.691
36729W        W 9797  41.701  34.006  10.704
36730W        W 9798  40.917  32.544   2.662
36731W        W 9799  12.811   1.467   2.710
36732W        W 9800  19.651  19.249  12.867
36733W        W 9801  29.698  14.199   4.082
36734W        W 9802  21.450  15.813  12.367
36735W        W 9803  13.113  10.081  11.693
36736W        W 9804   6.248   9.656  14.570
36737W        W 9805  30.059  15.162   4.274
36738W        W 9806  44.771   4.947  10.759
36739W        W 9807  10.769  37.066  13.039
36740W        W 9808  10.452   9.435  14.824
36741W        W 9809  25.638  42.479   0.725
36742W        W 9810  24.528  25.193  14.604
36743W        W 9811  24.293  19.055   0.935
36744W        W 9812  36.485  21.533  10.714
36745W        W 9813  35.234  37.797  11.579
36746W        W 9814  31.152  36.339  13.435
36747W        W 9815  34.712  10.429   4.126
36748W        W 9816  23.630  42.912  11.140
36749W        W 9817  22.146   6.617  12.079
36750W        W 9818  28.611  12.074   1.104
36751W        W 9819  26.537  40.006  10.022
36752W        W 9820   7.160  35.863   4.539
36753W        W 9821  14.242  44.858  13.815
36754W        W 9822  19.202  43.969  14.964
36755W        W 9823  39.549  34.521   1.463
36756W        W 9824   2.170  11.204  11.088
36757W        W 9825  34.922  38.638  10.878
36758W        W 9826  25.159  36.902  10.336
36759W        W 9827  43.439   1.788   2.221
36760W        W 9828   5.694  41.478  13.824
36761W        W 9829  24.219  25.509   2.614
36762W        W 9830  28.487   0.635  13.464
36763W        W 9831  22.527  28.165  11.397
36764W        W 9832  39.332  16.165   1.291
36765W        W 9833   8.094  28.210   1.994
36766W        W 9834  21.546  35.430   0.958
36767W        W 9835  14.579  18.184   4.054
36768W        W 9836  43.525   0.229  12.942
36769W        W 9837   2.461  33.938   4.533
36770W        W 9838  26.231  35.388  11.146
36771W        W 9839  44.226  22.035  14.554
36772W        W 9840   7.012  31.997   0.682
36773W        W 9841   7.264  38.333   1.211
36774W        W 9842  41.746   1.724   2.174
36775W        W 9843   2.999  18.456  13.882
36776W        W 9844  18.677  34.532  11.755
36777W        W 9845  42.786  28.837  10.663
36778W        W 9846  44.561  38.835  12.487
36779W        W 9847  38.705   9.278   4.282
36780W        W 9848  24.711   5.773   3.873
36781W        W 9849  20.924  19.687   5.303
36782W        W 9850   7.761  18.327  14.933
36783W        W 9851  22.231  37.397   5.033
36784W        W 9852  42.724  22.635  12.132
36785W        W 9853  20.702  26.733  12.407
36786W        W 9854  31.572   7.246  12.641
36787W        W 9855  13.768  34.566   3.701
36788W        W 9856  20.756   2.836  12.434
36789W        W 9857  22.147  27.742   0.483
36790W        W 9858  36.890  23.745   2.893
36791W        W 9859  37.846   8.963   3.804
36792W        W 9860  17.711  30.330  10.590
36793W        W 9861   9.848   7.860  12.302
36794W        W 9862  43.373  32.462  11.456
36795W        W 9863  14.624  21.211  13.466
36796W        W 9864  18.127  14.770   3.199
36797W        W 9865   8.627  20.586  14.941
36798W        W 9866  39.093  29.272  12.335
36799W        W 9867   4.337  31.680   3.552
36800W        W 9868  11.459   6.131  12.377
36801W        W 9869  30.452  40.957  11.375
36802W        W 9870  43.686  42.941   4.530
36803W        W 9871  21.134  19.805   3.004
36804W        W 9872  22.046  36.264  12.452
36805W        W 9873  39.535   0.739  13.430
36806W        W 9874   4.894   4.648  12.433
36807W        W 9875  32.088   9.803   0.643
36808W        W 9876  41.542  42.485  13.627
36809W        W 9877  25.787  34.511   2.693
36810W        W 9878  37.836   9.530   3.133
36811W        W 9879  26.102  10.405   5.058
36812W        W 9880  41.143  41.502  11.220
36813W        W 9881  30.208  23.917   0.766
36814W        W 9882  35.338  37.294   3.375
36815W        W 9883  29.435  17.594   2.739
36816W        W 9884  30.533  32.312  12.494
36817W        W 9885  18.835   1.180  13.400
36818W        W 9886  44.755  36.005  12.047
36819W        W 9887   4.313  16.342   1.218
36820W        W 9888  11.560  36.399   3.165
36821W        W 9889  19.055   3.477   3.202
36822W        W 9890  17.345  18.058  13.471
36823W        W 9891  25.852  11.748  13.289
36824W        W 9892  44.832  13.409  12.945
36825W        W 9893  34.622  23.112   0.467
36826W        W 9894  23.292  19.494  11.894
36827W        W 9895  38.212  39.434  13.226
36828W        W 9896   2.889  36.664  13.835
36829W        W 9897   4.502   2.749  11.644
36830W        W 9898   4.610  36.031   0.446
36831W        W 9899  37.500  28.359   0.464
36832W        W 9900  16.204  29.119  14.005
36833W        W 9901  12.628  33.750  12.555
36834W        W 9902  28.946  14.491   0.769
36835W        W 9903  32.343  27.216  14.987
36836W        W 9904  21.507   5.261   1.510
36837W        W 9905  16.105  24.654  14.807
36838W        W 9906  42.762  14.742  10.624
36839W        W 9907  36.600  28.028   0.467
36840W        W 9908  16.214  20.270  12.850
36841W        W 9909  29.966   2.811   4.752
36842W        W 9910   3.344  29.534   2.337
36843W        W 9911  27.544  40.040   0.270
36844W        W 9912   9.243   6.678  10.600
36845W        W 9913   2.247  39.859   0.170
36846W        W 9914   9.413  43.649   1.454
36847W        W 9915  22.512  35.589  11.547
36848W        W 9916  14.045   7.276   4.919
36849W        W 9917  27.593  32.308  12.225
36850W        W 9918  35.435   8.863   4.881
36851W        W 9919  44.429  41.740  12.946
36852W        W 9920  21.949  25.114   5.076
36853W        W 9921  25.931   9.706   1.758
36854W        W 9922   3.731  12.478  10.551
36855W        W 9923  43.644  39.070  13.781
36856W        W 9924  31.573   6.259  13.493
36857W        W 9925  16.403  15.402   0.881
36858W        W 9926  19.686  18.288  10.631
36859W        W 9927  20.064  13.657   3.672
36860W        W 9928  29.727   6.665   4.093
36861W        W 9929   2.782  32.978  10.645
36862W        W 9930   3.835  20.150   1.935
36863W        W 9931   4.258  15.652   2.932
36864W        W 9932  28.410   3.615  14.701
36865W        W 9933  30.596  29.724   4.156
36866W        W 9934  34.659  17.143  11.535
36867W        W 9935  26.360  20.001   0.860
36868W        W 9936  11.260  36.344  12.492
36869W        W 9937  34.403  32.223   4.575
36870W        W 9938  40.486  32.596   2.914
36871W        W 9939   8.887  11.854   4.360
36872W        W 9940  24.215  12.228  12.551
36873W        W 9941   8.181  25.709   0.034
36874W        W 9942  24.770  35.684  14.533
36875W        W 9943  25.518  14.176  13.297
36876W        W 9944  19.220   8.562  12.061
36877W        W 9945  36.114  37.075  10.679
36878W        W 9946  24.579  29.598  14.757
36879W        W 9947   7.668  36.387  11.058
36880W        W 9948  26.553  41.440  10.639
36881W        W 9949  13.322   8.050  14.275
36882W        W 9950  25.377   1.550  14.998
36883W        W 9951  40.399   5.428  14.762
36884W        W 9952  27.976  29.724   2.741
36885W        W 9953  40.575  22.040  11.974
36886W        W 9954   7.696  18.499   0.428
36887W        W 9955  34.869   6.421   0.035
36888W        W 9956  14.931  14.785   2.497
36889W        W 9957  17.057  42.701  11.763
36890W        W 9958  18.486  41.290  13.164
36891W        W 9959  23.637   8.819  10.716
36892W        W 9960  38.765  13.611  13.344
36893W        W 9961  39.400   4.322   3.314
36894W        W 9962  14.522  23.509   2.854
36895W        W 9963  28.141   6.267   3.576
36896W        W 9964  41.284  13.602   3.741
36897W        W 9965  10.620  18.385  12.919
36898W        W 9966  12.143   5.294   2.521
36899W        W 9967   1.859   9.810   0.921
36900W        W 9968  35.179  25.969   0.550
36901W        W 9969  12.879  33.374   1.899
36902W        W 9970  16.011  40.971  10.466
36903W        W 9971  42.318  20.993   1.826
36904W        W 9972  24.690  24.975   4.831
36905W        W 9973  44.231  13.756  13.595
36906W        W 9974   0.318  21.987  14.412
36907W        W 9975  41.162  32.514   4.707
36908W        W 9976   2.411  22.926  12.981
36909W        W 9977  33.355  35.117  13.875
36910W        W 9978  38.479  35.739   3.213
36911W        W 9979  43.243  12.446  12.789
36912W        W 9980  16.399  34.009   2.182
36913W        W 9981  41.351   6.474   3.766
36914W        W 9982  44.873   2.747  14.992
36915W        W 9983   7.329   7.701   2.292
36916W        W 9984   2.141  25.914  10.833
36917W        W 9985   7.818  21.966  12.010
36918W        W 9986   0.436   9.677  12.473
36919W        W 9987  32.064  29.687   2.085
36920W        W 9988  24.599  29.410  12.105
36921W        W 9989  28.064  38.066  14.238
36922W        W 9990   4.584   3.467   0.575
36923W        W 9991  23.793  11.865  12.472
36924W        W 9992  39.192  29.192   0.289
36925W        W 9993  41.975   6.024   2.442
36926W        W 9994  13.290  31.192  13.442
36927W        W 9995  13.200  44.532  13.874
36928W        W 9996   5.221  40.999   4.797
36929W        W 9997  11.748  16.219   1.347
36930W        W 9998  23.087   1.741   4.103
36931W        W 9999   1.946  39.916   3.561
36932W        W10000  37.775  34.409  11.164
36933W        W10001  26.236  12.812  11.121
36934W        W10002  28.223  36.019  10.631
36935W        W10003   3.921   9.906   1.655
36936W        W10004   2.793  39.806   1.433
36937W        W10005  37.426  35.405  14.850
36938W        W10006   3.558  17.546   0.211
36939W        W10007  10.173  29.436   3.296
36940W        W10008  19.278  42.579  13.822
36941W        W10009  34.567  42.742  14.414
36942W        W10010  29.289  11.219  11.566
36943W        W10011  27.971  11.882   3.706
36944W        W10012  44.961   1.986   3.584
36945W        W10013  23.826  30.309   1.395
36946W        W10014   6.874  30.364   4.636
36947W        W10015   2.373  25.398   0.444
36948W        W10016  13.960   2.496  13.464
36949W        W10017  11.913  40.159  13.874
36950W        W10018  42.368  35.548   0.705
36951W        W10019  24.655   2.928  12.463
36952W        W10020  29.219  32.988   2.608
36953W        W10021  23.493  25.222   4.167
36954W        W10022   9.626  19.745  12.396
36955W        W10023  24.427  13.722   2.751
36956W        W10024  38.978  39.176   0.492
36957W        W10025  24.401   3.977   4.226
36958W        W10026  29.226  16.760   1.375
36959W        W10027   0.418  27.440   4.225
36960W        W10028   1.444  35.983   3.318
36961W        W10029   6.866  41.947   0.417
36962W        W10030   5.961  17.201   1.101
36963W        W10031  18.131  44.801  11.594
36964W        W10032  42.797  26.151  14.480
36965W        W10033  17.618  13.969  13.041
36966W        W10034  26.554  25.605  14.446
36967W        W10035  26.624  27.976  14.928
36968W        W10036  18.606  20.476  13.884
36969W        W10037  23.942   3.440  13.725
36970W        W10038  18.927  29.648   1.032
36971W        W10039  27.605  16.821  13.973
36972W        W10040  20.433  38.222  14.342
36973W        W10041   3.494  32.980   0.324
36974W        W10042  26.577  35.157  12.974
36975W        W10043  15.054  33.927   3.252
36976W        W10044  15.366  33.497   4.513
36977W        W10045  30.466  43.671   3.987
36978W        W10046  22.200  31.569   4.379
36979W        W10047  33.522  28.701  13.013
36980W        W10048  13.863   1.943  12.985
36981W        W10049  28.855  27.907   2.784
36982W        W10050  37.115  18.177  13.019
36983W        W10051  40.841   8.787   3.426
36984W        W10052  22.155  18.287   0.800
36985W        W10053  16.053  15.639   1.222
36986W        W10054  10.239  41.427   0.696
36987W        W10055  32.718  10.259   4.151
36988W        W10056  35.014   3.334   1.478
36989W        W10057  32.065  23.419   0.923
36990W        W10058  11.405  42.275   2.219
36991W        W10059  37.425  14.940   0.299
36992W        W10060  11.191  13.340  13.464
36993W        W10061  43.831   1.161   3.792
36994W        W10062  29.973  37.491   1.357
36995W        W10063  24.765  37.829  14.385
36996W        W10064  29.035  44.537   3.689
36997W        W10065  23.314   3.372   4.531
36998W        W10066  10.144  14.935  14.924
36999W        W10067  33.989  15.498  11.870
37000W        W10068   1.414  14.556   3.579
37001W        W10069  41.570   1.826  14.780
37002W        W10070  29.178  21.040   2.337
37003W        W10071  21.190  36.361  11.217
37004W        W10072  15.074  12.983  11.926
37005W        W10073   2.372  34.022  14.118
37006W        W10074  20.632   9.110   3.803
37007W        W10075  20.420   0.288  10.289
37008W        W10076  36.942   6.714   2.857
37009W        W10077   4.740  14.383  10.249
37010W        W10078  18.208  20.172   2.744
37011W        W10079  14.128  36.978  12.370
37012W        W10080  31.659  36.226  12.318
37013W        W10081  24.027  28.349  12.228
37014W        W10082   8.923  31.469  13.579
37015W        W10083  42.775  35.472   1.434
37016W        W10084  26.090  44.413   3.159
37017W        W10085   9.129  30.965  12.776
37018W        W10086   2.581  25.948   1.897
37019W        W10087  31.900  43.287  12.161
37020W        W10088   1.928  22.532  14.383
37021W        W10089  23.688  12.900   0.464
37022W        W10090  12.229  17.682  11.262
37023W        W10091  21.876  42.423  13.801
37024W        W10092  19.790  43.786   3.309
37025W        W10093   1.008  33.904  13.909
37026W        W10094   2.867  13.277   4.558
37027W        W10095  38.947   3.339  13.846
37028W        W10096  43.181  43.864  13.050
37029W        W10097   3.436  41.115  11.167
37030W        W10098  24.127  27.912  12.488
37031W        W10099   0.373  37.741   3.634
37032W        W10100  32.870  42.378  11.916
37033W        W10101   9.209  18.829  10.918
37034W        W10102  16.125   2.760   4.176
37035W        W10103  42.727  17.624   0.247
37036W        W10104  23.211  22.489  11.197
37037W        W10105  41.002  29.586  13.115
37038W        W10106   0.448   6.952   4.767
37039W        W10107  30.236  44.331  12.115
37040W        W10108  38.419  43.349  13.431
37041W        W10109  36.907  27.790  14.998
37042W        W10110  43.665   5.729  14.824
37043W        W10111  33.908  42.679   4.535
37044W        W10112  22.146  23.465  13.321
37045W        W10113  25.782  42.017   3.396
37046W        W10114  10.789   1.425   3.767
37047W        W10115  32.456  23.249  11.135
37048W        W10116  14.142  37.907   4.254
37049W        W10117  37.117  43.280  13.462
37050W        W10118  44.273  26.188   0.441
37051W        W10119   5.308  25.122   3.594
37052W        W10120  15.286  34.054  13.152
37053W        W10121   2.665  22.745   2.317
37054W        W10122   6.736  14.486  11.908
37055W        W10123  33.374  37.562   1.890
37056W        W10124  15.054  33.770  11.647
37057W        W10125  12.158  15.990   2.450
37058W        W10126   5.513  24.716   3.311
37059W        W10127  31.196  41.770   2.335
37060W        W10128  36.060  35.402   1.700
37061W        W10129  30.267  12.860  12.888
37062W        W10130  22.968   3.194   0.867
37063W        W10131   0.303  20.284  12.107
37064W        W10132   4.201  32.807  14.075
37065W        W10133  21.805  15.041   2.835
37066W        W10134  32.423  42.737  13.394
37067W        W10135  38.411   5.026  12.851
37068W        W10136   7.883  30.112  14.062
37069W        W10137  15.888  21.631   2.615
37070W        W10138  15.271  34.800  12.464
37071W        W10139  43.800  18.296   3.773
37072W        W10140  17.725  35.279   0.404
37073W        W10141  11.127  34.706   4.093
37074W        W10142  44.742  14.518   0.330
37075W        W10143  17.215  25.677   2.974
37076W        W10144  10.257  22.001   1.421
37077W        W10145  40.983  40.899  14.849
37078W        W10146  27.133  17.599   3.255
37079W        W10147  38.328  20.792  14.562
37080W        W10148  40.529  34.850   5.038
37081W        W10149  17.732  10.426   1.350
37082W        W10150  44.935  19.632   4.603
37083W        W10151  15.154  28.140   0.162
37084W        W10152  15.817   5.639   1.750
37085W        W10153  41.251  30.062  12.958
37086W        W10154  29.719   3.929  11.584
37087W        W10155  27.387  23.560   4.702
37088W        W10156  26.869   6.703  12.508
37089W        W10157  27.892   3.938  13.828
37090W        W10158   2.974  38.418   0.665
37091W        W10159  17.856  34.114   3.795
37092W        W10160   9.938  43.097   1.815
37093W        W10161   1.945   4.406  12.851
37094W        W10162  11.443  12.963   0.852
37095W        W10163  16.940  34.087  13.024
37096W        W10164   7.228  35.610  14.823
37097W        W10165  36.342   2.237  11.120
37098W        W10166  38.360  21.772   4.957
37099W        W10167  36.613  27.111  11.064
37100W        W10168  17.374  23.556   2.702
37101W        W10169  41.939  41.620  11.557
37102W        W10170  17.638  31.871   3.651
37103W        W10171  44.354  42.070   4.247
37104W        W10172  35.951  32.710   2.793
37105W        W10173  41.129  41.813  11.620
37106W        W10174  13.212  12.528  10.731
37107W        W10175  12.375   9.328  12.516
37108W        W10176  24.246  21.226   4.203
37109W        W10177   3.267  34.872  12.854
37110W        W10178   1.944  32.418  11.625
37111W        W10179  32.454  10.348   1.795
37112W        W10180   6.784  37.343   2.761
37113W        W10181  32.086   5.589   4.693
37114W        W10182  40.303  15.618  14.356
37115W        W10183  38.306  42.182   0.823
37116W        W10184  16.841  22.259  13.265
37117W        W10185  32.618  23.118  13.070
37118W        W10186   9.273  23.385  13.772
37119W        W10187  37.869   3.340   2.411
37120W        W10188   6.442  22.305  12.063
37121W        W10189   8.631  28.109  13.760
37122W        W10190   5.308  42.322  13.932
37123W        W10191  15.325  21.288  12.990
37124W        W10192   0.080  23.135   1.860
37125W        W10193  17.212   5.196   2.828
37126W        W10194  37.971  26.048   4.284
37127W        W10195  43.537  30.389  14.843
37128W        W10196  18.167  32.464   0.246
37129W        W10197  38.261  38.449   4.211
37130W        W10198  30.654  16.140   2.107
37131W        W10199   8.671  37.438   5.080
37132W        W10200  15.716  35.991  14.950
37133W        W10201  14.156  32.616   1.986
37134W        W10202  30.846  14.405  14.901
37135W        W10203  10.477   4.326  10.268
37136W        W10204  20.094  24.482  13.121
37137W        W10205  28.537   8.447  11.109
37138W        W10206  19.811   6.100   0.866
37139W        W10207  36.151  35.454  13.470
37140W        W10208  41.163   3.943  10.638
37141W        W10209  26.025   4.323  11.954
37142W        W10210  15.635   1.980  11.153
37143W        W10211  32.013  22.839  14.366
37144W        W10212   0.503   5.887  11.669
37145W        W10213  30.138  11.248  14.039
37146W        W10214  42.980  10.040  12.197
37147W        W10215   7.582  32.006   2.868
37148W        W10216   3.380  42.480   2.363
37149W        W10217  16.064  37.552   0.468
37150W        W10218  17.225   9.826  11.610
37151W        W10219  10.778  34.865   1.873
37152W        W10220  41.638  34.550  14.985
37153W        W10221  10.627   0.455  10.747
37154W        W10222  26.961  15.303   0.317
37155W        W10223  34.906  37.377   0.279
37156W        W10224   4.282  44.823  14.000
37157W        W10225  31.252  32.702   3.749
37158W        W10226  24.420  10.172  14.997
37159W        W10227  11.858  11.062   4.139
37160W        W10228   4.886   9.612  14.365
37161W        W10229  21.667   0.908   2.629
37162W        W10230  20.742  17.363  12.435
37163W        W10231  39.510  22.936  12.861
37164W        W10232  21.066  34.403  14.046
37165W        W10233  16.353  37.327  14.719
37166W        W10234  41.700  28.670  11.789
37167W        W10235   9.919  30.652   3.051
37168W        W10236  22.170  34.236   1.322
37169W        W10237  25.037  23.682   0.430
37170W        W10238  36.911  22.107   2.152
37171W        W10239   1.752  11.909  13.425
37172W        W10240  38.355  12.438  14.382
37173W        W10241   2.708  42.564  13.920
37174W        W10242  33.847   1.041   1.863
37175W        W10243  23.864  39.596  11.087
37176W        W10244  13.704   9.460   3.333
37177W        W10245   0.871  36.431  12.387
37178W        W10246  44.455   4.890  10.326
37179W        W10247  12.392  37.863   4.627
37180W        W10248   9.250  11.391  11.545
37181W        W10249   3.184  20.997   4.542
37182W        W10250   0.487  26.442  12.962
37183W        W10251  19.117  20.153   4.585
37184W        W10252  37.882  30.758   1.914
37185W        W10253  18.247  36.582  13.614
37186W        W10254   4.791  39.770   2.879
37187W        W10255  38.077  19.633  11.267
37188W        W10256   2.896  27.664  13.341
37189W        W10257  28.645  29.802   1.701
37190W        W10258  25.220  10.184   2.387
37191W        W10259  24.135  11.099  14.403
37192W        W10260  17.152  38.985   3.691
37193W        W10261  19.660   5.895  11.692
37194W        W10262  21.731  18.667  11.547
37195W        W10263   0.308  26.773  12.417
37196W        W10264   7.319  41.196  13.524
37197W        W10265  39.268  16.675   3.669
37198W        W10266   8.037   0.054  11.986
37199W        W10267  30.978  34.578  14.554
37200W        W10268  18.612  16.478  11.871
37201W        W10269  31.451   0.659   0.779
37202W        W10270  35.552  11.384   3.833
37203W        W10271  35.956  11.762   0.870
37204W        W10272   3.443  23.684  11.971
37205W        W10273  22.017  22.236   2.278
37206W        W10274  15.602  37.960   0.791
37207W        W10275  39.493   7.144   2.791
37208W        W10276  30.983   9.822   3.063
37209W        W10277   1.775  35.277  12.917
37210W        W10278  41.254   9.269  12.848
37211W        W10279  39.843   8.712  14.446
37212W        W10280  40.885   5.491  14.905
37213W        W10281  28.526  34.970  13.434
37214W        W10282  44.940  27.864   3.728
37215W        W10283  34.066  29.609   0.498
37216W        W10284  19.454   5.241   0.416
37217W        W10285  33.414  22.202  11.504
37218W        W10286  43.065  39.541   1.400
37219W        W10287  23.805  40.509   2.676
37220W        W10288  29.315  42.438   3.539
37221W        W10289   4.216   0.394   2.650
37222W        W10290   2.980  24.331   3.781
37223W        W10291   9.049  39.525  12.005
37224W        W10292  13.064  12.936  12.063
37225W        W10293  27.628  40.927   4.176
37226W        W10294  31.640  27.592   4.343
37227W        W10295  30.985  37.593   2.789
37228W        W10296  40.256  14.554  13.240
37229W        W10297  34.322  44.532  14.034
37230W        W10298  15.093  32.396  14.516
37231W        W10299  36.504  44.831   3.016
37232W        W10300  37.970  19.161   3.908
37233W        W10301  35.808  30.186  14.429
37234W        W10302  18.559  34.442   5.255
37235W        W10303  39.053  33.412   2.337
37236W        W10304   6.324  42.456  14.813
37237W        W10305  31.334  23.283   0.438
37238W        W10306  13.807   2.796   1.778
37239W        W10307   8.218  41.316   3.167
37240W        W10308  24.660  16.130  13.794
37241W        W10309   0.189  29.493  10.481
37242W        W10310  31.085  29.617   3.983
37243W        W10311  30.228   8.689  12.476
37244W        W10312  36.673  44.024   1.461
37245W        W10313   1.146  31.707  12.058
37246W        W10314  13.864   2.114  14.765
37247W        W10315  20.269  27.463   4.167
37248W        W10316   9.208  21.716   1.937
37249W        W10317  38.483  41.927   3.436
37250W        W10318   9.851  42.807   1.390
37251W        W10319  34.323  25.965   2.259
37252W        W10320  38.048  40.499   4.125
37253W        W10321  21.686  14.214   3.318
37254W        W10322  27.602   1.769   0.480
37255W        W10323  13.301   4.365  14.457
37256W        W10324   6.174  39.893   2.723
37257W        W10325  14.606  22.657  14.935
37258W        W10326  14.437  33.177   5.063
37259W        W10327   4.698   1.950   3.711
37260W        W10328   2.018  42.901   3.647
37261W        W10329  12.825   9.851  14.430
37262W        W10330   0.747   4.771   4.088
37263W        W10331  42.966  19.982  10.759
37264W        W10332   7.272  22.841  11.890
37265W        W10333  34.077   4.395   1.182
37266W        W10334  25.208   3.574   4.762
37267W        W10335   7.824  40.293  12.552
37268W        W10336  23.175   3.011  12.378
37269W        W10337   5.387  10.139   2.883
37270W        W10338   3.869  44.911   3.614
37271W        W10339   5.037   8.820  12.440
37272W        W10340  20.795  25.401  14.922
37273W        W10341  13.139   0.263   3.707
37274W        W10342   7.902   4.825   1.392
37275W        W10343  23.925  21.628  12.412
37276W        W10344   5.484  29.472   0.465
37277W        W10345  17.189   6.604  12.860
37278W        W10346  39.962  33.397   0.372
37279W        W10347  11.733  33.932  12.047
37280W        W10348  13.826  24.115   0.180
37281W        W10349  10.214  20.170  12.371
37282W        W10350   5.930   1.735   1.273
37283W        W10351  31.875  25.753  11.446
37284W        W10352  24.797  16.297  14.861
37285W        W10353  33.864   8.198  11.293
37286W        W10354  36.839  38.015  13.924
37287W        W10355  27.356  26.439   0.878
37288W        W10356  28.585  21.956   1.701
37289W        W10357  41.015   2.459  10.718
37290W        W10358  26.966  30.839   4.204
37291W        W10359   4.246  39.851   2.813
37292W        W10360   5.651  33.566  11.993
37293W        W10361   0.011   9.943   4.534
37294W        W10362  20.144  33.032   3.799
37295W        W10363  40.854  35.062  13.079
37296W        W10364   1.045  29.444   3.201
37297W        W10365   5.760  18.792   2.803
37298W        W10366  30.229  22.754  10.659
37299W        W10367  12.776  42.014  13.266
37300W        W10368  36.510   2.092   2.290
37301W        W10369  22.513  12.703   1.395
37302W        W10370  39.276  10.586  12.374
37303W        W10371  12.238  23.522  13.664
37304W        W10372  16.854  14.304   3.729
37305W        W10373  38.620  20.446  14.834
37306W        W10374   8.667  22.236   3.308
37307W        W10375  40.841  32.066  10.597
37308W        W10376  23.494   6.725  11.509
37309W        W10377  13.792  30.632  10.355
37310W        W10378  27.687  22.982   1.458
37311W        W10379  39.248  38.296   2.193
37312W        W10380  10.643   3.951  13.521
37313W        W10381  25.725  36.083   1.932
37314W        W10382  37.731   0.193  11.792
37315W        W10383  11.727  12.587   1.431
37316W        W10384  39.102  26.532  14.865
37317W        W10385  38.025  10.219   1.596
37318W        W10386   7.922   2.057  12.436
37319W        W10387  42.211  38.780   4.464
37320W        W10388  44.792  26.939  13.345
37321W        W10389  35.157  12.986   2.145
37322W        W10390   8.781  26.655   0.844
37323W        W10391  23.427   9.740   2.760
37324W        W10392  34.840   2.909  10.643
37325W        W10393  25.298   0.443  13.941
37326W        W10394  11.819  44.491  12.336
37327W        W10395  11.583   9.131  12.977
37328W        W10396  41.019  44.481   4.399
37329W        W10397   8.892  22.596  14.275
37330W        W10398  13.205  11.422  13.995
37331W        W10399  25.393  31.501   0.903
37332W        W10400  10.397   1.936  12.024
37333W        W10401  17.636  31.984   2.815
37334W        W10402  12.167   6.425  13.397
37335W        W10403  37.605  10.726   4.474
37336W        W10404  36.368   9.772   4.773
37337W        W10405  39.023  41.548   1.688
37338W        W10406  26.699  32.722  13.747
37339W        W10407   0.961  20.253   2.751
37340W        W10408  39.627  21.634  11.964
37341W        W10409   0.909  16.082   2.920
37342W        W10410  30.729  11.679  11.104
37343W        W10411  30.515  21.102   1.542
37344W        W10412   3.873  25.579  14.263
37345W        W10413  30.485  25.191  14.945
37346W        W10414  30.701  12.923   4.141
37347W        W10415  17.808  14.358   3.196
37348W        W10416  27.018  13.416   0.854
37349W        W10417  35.858   9.690   3.440
37350W        W10418   5.787  40.053  12.400
37351W        W10419  13.341   2.917  14.296
37352W        W10420  36.434  23.841   2.673
37353W        W10421  19.724  18.298  11.992
37354W        W10422  11.709  41.220  12.629
37355W        W10423  30.726  20.756  12.574
37356W        W10424  34.479  19.533  14.475
37357W        W10425   2.965  23.783  10.807
37358W        W10426  17.145   5.684   4.068
37359W        W10427  38.097  21.896   3.178
37360W        W10428   6.297   1.914  11.707
37361W        W10429   5.697   4.859   2.335
37362W        W10430  40.524  22.037  12.912
37363W        W10431  12.890  28.588  14.858
37364W        W10432  40.278  34.817  12.394
37365W        W10433  30.258  33.630   3.827
37366W        W10434  15.832   8.890   4.391
37367W        W10435  29.660  35.947   3.742
37368W        W10436  34.463  33.958   1.673
37369W        W10437  14.707  38.456  12.003
37370W        W10438   7.513  17.989   0.873
37371W        W10439  19.603   3.637   4.091
37372W        W10440  32.091  23.546   1.781
37373W        W10441  22.110  24.178  13.105
37374W        W10442  12.227  21.961  12.878
37375W        W10443  11.690  23.820  11.543
37376W        W10444  19.235  26.487  10.727
37377W        W10445  40.851  13.353   4.562
37378W        W10446  34.568   9.680  14.513
37379W        W10447  15.658   0.503  12.511
37380W        W10448  25.088  29.139  12.031
37381W        W10449  35.193  43.512  12.955
37382W        W10450   8.892  43.388  14.071
37383W        W10451  26.583   6.855   5.038
37384W        W10452  16.285  33.444   2.260
37385W        W10453  30.204  10.609  10.949
37386W        W10454  28.958  41.741   1.760
37387W        W10455  20.787  33.161  13.352
37388W        W10456  25.751  40.955  11.613
37389W        W10457  24.131   9.635   4.336
37390W        W10458   5.364  24.902   2.635
37391W        W10459  15.388  33.707   3.588
37392W        W10460  30.887  39.886   4.513
37393W        W10461   6.374  41.939   4.389
37394W        W10462  24.999   0.912  14.028
37395W        W10463  34.769   1.159   4.667
37396W        W10464  38.140   7.669   2.649
37397W        W10465  35.298  32.804  12.922
37398W        W10466  26.991  32.919  10.712
37399W        W10467   8.700  22.811  10.564
37400W        W10468  17.225  12.057  11.081
37401W        W10469  24.441  25.406   0.203
37402W        W10470  37.602   3.866   1.660
37403W        W10471  35.094  44.833   4.872
37404W        W10472  35.635  32.827   1.255
37405W        W10473  34.475   7.243   3.604
37406W        W10474  23.476   5.610   0.158
37407W        W10475  20.822   8.699  11.122
37408W        W10476  31.115   2.330  14.869
37409W        W10477  23.067  15.746  11.406
37410W        W10478  18.336   7.757  10.727
37411W        W10479   5.953  14.655  13.406
37412W        W10480   5.251  41.853  13.125
37413W        W10481  34.209   7.930   0.334
37414W        W10482  14.257   8.887  14.435
37415W        W10483   9.886  13.546  12.645
37416W        W10484  10.174  12.036   2.853
37417W        W10485  10.039  21.642   2.440
37418W        W10486   0.955  11.756   4.117
37419W        W10487  17.477  15.654   4.632
37420W        W10488  29.067  11.375   3.330
37421W        W10489   1.957  18.464  14.387
37422W        W10490   5.955  26.977  14.972
37423W        W10491   5.425   0.714  14.810
37424W        W10492  17.552  32.516   3.469
37425W        W10493  40.783   6.551   4.586
37426W        W10494  30.017   0.501   0.781
37427W        W10495   9.116  27.000  13.607
37428W        W10496  36.317   9.778   3.230
37429W        W10497  40.539  12.232   0.417
37430W        W10498  13.594   0.398   0.908
37431W        W10499  17.796   4.139   4.319
37432W        W10500  26.228   0.702   2.883
37433W        W10501  35.546  16.809   1.401
37434W        W10502  31.362  39.251  10.104
37435W        W10503  42.969  18.250   1.905
37436W        W10504   7.370  25.549   3.692
37437W        W10505  37.499  39.322   2.214
37438W        W10506  15.582  16.432   0.443
37439W        W10507  10.910  32.120   2.737
37440W        W10508  37.171  26.211   2.753
37441W        W10509  20.087  26.140   0.847
37442W        W10510  30.030  29.908   2.649
37443W        W10511  28.543   4.635  14.859
37444W        W10512  19.510  43.498  13.373
37445W        W10513  42.288  18.067  12.602
37446W        W10514  30.114  17.103   4.742
37447W        W10515  16.317  24.987  12.912
37448W        W10516  17.362  19.791   2.193
37449W        W10517  11.219  33.604  10.576
37450W        W10518  41.041   9.112  14.865
37451W        W10519   9.308  23.479   0.728
37452W        W10520  31.426  16.082  14.400
37453W        W10521   0.409  26.462   4.602
37454W        W10522  41.462   7.184  11.988
37455W        W10523  41.466  11.072   3.193
37456W        W10524  28.946  28.861  12.804
37457W        W10525  43.025  20.257   5.015
37458W        W10526  43.625  41.371   4.114
37459W        W10527  30.471  32.328   3.986
37460W        W10528   0.867  12.187  12.924
37461W        W10529  23.257   2.309   2.829
37462W        W10530   4.330  14.777  14.478
37463W        W10531  14.999  35.582   0.855
37464W        W10532  11.121  29.756   2.240
37465W        W10533   3.069  23.058   4.181
37466W        W10534   6.510  42.307  13.365
37467W        W10535  30.651  32.559   0.230
37468W        W10536  13.366  37.429   1.168
37469W        W10537  18.288   7.429  11.150
37470W        W10538   2.593  31.057   1.435
37471W        W10539  32.417  13.734   2.507
37472W        W10540  29.549  12.353  10.944
37473W        W10541   6.925   8.378  10.579
37474W        W10542   1.893  22.641  13.520
37475W        W10543   8.376   3.329  14.779
37476W        W10544  35.301   1.274  11.307
37477W        W10545  40.907  32.640   3.416
37478W        W10546  17.957  23.097  11.506
37479W        W10547  21.180   7.859   3.806
37480W        W10548   2.766  20.574   3.873
37481W        W10549  10.222   6.935  11.051
37482W        W10550  17.541  34.383   2.926
37483W        W10551  12.309  10.380  12.918
37484W        W10552   1.413  31.538   1.305
37485W        W10553  14.652  16.845  13.354
37486W        W10554  31.631  35.318  13.809
37487W        W10555   0.866  44.854  14.084
37488W        W10556  31.940   4.424  13.382
37489W        W10557  22.077   5.470  14.806
37490W        W10558   2.928  22.612   1.199
37491W        W10559  26.715  39.077  12.944
37492W        W10560  40.270  25.342   4.147
37493W        W10561  41.878  26.554  10.496
37494W        W10562  30.394  28.530  13.877
37495W        W10563  11.306  18.312   4.992
37496W        W10564  24.075  17.129   1.929
37497W        W10565  14.803  15.528  14.929
37498W        W10566  17.906  14.837  12.627
37499W        W10567  25.079   7.153   0.412
37500W        W10568  16.375  23.912   1.758
37501W        W10569  40.444   6.869  11.942
37502W        W10570  29.556  12.226  10.437
37503W        W10571   3.841  36.347   2.172
37504W        W10572   1.659   6.136   0.026
37505W        W10573  23.202  25.257  13.078
37506W        W10574   5.294  35.052   3.832
37507W        W10575  19.067   8.302   2.128
37508W        W10576   5.598  14.385  14.354
37509W        W10577  13.246  24.009  14.313
37510W        W10578   7.223  15.794  13.037
37511W        W10579   3.310  36.911   2.120
37512W        W10580  25.444   1.621   3.264
37513W        W10581  36.161  31.040  13.953
37514W        W10582  34.642  30.163  12.059
37515W        W10583  43.899   6.109   3.323
37516W        W10584  28.200  23.507  11.523
37517W        W10585  10.067  38.299  13.820
37518W        W10586  27.259  21.680   2.259
37519W        W10587  12.247  15.124  13.911
37520W        W10588  14.273   6.958   2.217
37521W        W10589  22.301  16.658   5.108
37522W        W10590  24.433  39.839  13.519
37523W        W10591  42.554  27.690  11.194
37524W        W10592  28.249   0.807   5.174
37525W        W10593  19.102  19.606  11.978
37526W        W10594  17.119  17.933   2.009
37527W        W10595  25.668  44.029  14.768
37528W        W10596  37.767  44.810  11.447
37529W        W10597   1.977  35.910   1.381
37530W        W10598   3.334  12.226  12.829
37531W        W10599  38.985  13.298   1.768
37532W        W10600  10.910  33.000  12.461
37533W        W10601   2.368  19.312  11.628
37534W        W10602  41.739  13.814  10.317
37535W        W10603   9.914   3.406   4.445
37536W        W10604  14.049   3.313   2.777
37537W        W10605  31.115  13.326   0.903
37538W        W10606  13.895   3.409  13.414
37539W        W10607  29.311  28.626   3.696
37540W        W10608   4.900  16.028   2.652
37541W        W10609  42.922  44.366  10.577
37542W        W10610  10.584  23.075   1.633
37543W        W10611  24.035  12.623  14.325
37544W        W10612  41.853   3.453   4.440
37545W        W10613   0.363  21.074   2.196
37546W        W10614   9.427  34.571   2.075
37547W        W10615   0.341   0.066  13.362
37548W        W10616  20.810  40.217   2.397
37549W        W10617  36.865   4.976   0.704
37550W        W10618  26.247  21.627  12.058
37551W        W10619   9.848  42.470  14.408
37552W        W10620   5.110  23.710   3.051
37553W        W10621  37.121  29.386  13.803
37554W        W10622  37.761  16.070   3.674
37555W        W10623  10.270  31.392  11.185
37556W        W10624  27.614  36.819  14.477
37557W        W10625   0.807  17.578  14.853
37558W        W10626  39.322   2.912   3.982
37559W        W10627  43.606  23.019   2.742
37560W        W10628   6.479  32.701  14.482
37561W        W10629   4.277  24.158   3.252
37562W        W10630  33.953  15.671  11.396
37563W        W10631  12.450  36.519  13.539
37564W        W10632  17.575  44.803   0.714
37565W        W10633  22.893   2.678  13.357
37566W        W10634   2.232   8.051  13.500
37567W        W10635   1.782  42.972   1.787
37568W        W10636  32.675  22.248  13.507
37569W        W10637  22.271  30.157   4.798
37570W        W10638  33.659  13.781   4.157
37571W        W10639  31.469  42.367  10.968
37572W        W10640   2.833  15.863  14.560
37573W        W10641  42.395  23.335  10.665
37574W        W10642   0.443  35.142  12.386
37575W        W10643  37.826  28.659  12.575
37576W        W10644  39.981  23.147  14.041
37577W        W10645  10.732  19.709  11.867
37578W        W10646  42.355  14.527  12.632
37579W        W10647   0.819  31.554  14.244
37580W        W10648  36.885   3.669   4.685
37581W        W10649   8.826   9.920  13.797
37582W        W10650  15.348  21.112  13.923
37583W        W10651  23.069   4.327   1.798
37584W        W10652  24.600  15.551   3.133
37585W        W10653  41.496  16.115   4.236
37586W        W10654   1.289  16.107   0.355
37587W        W10655   4.266  32.001   3.174
37588W        W10656  23.024  39.244   3.705
37589W        W10657   1.305  18.412  13.756
37590W        W10658  11.099  22.483  11.460
37591W        W10659  35.875  26.942  13.075
37592W        W10660  26.489  35.871   3.617
37593W        W10661  28.895  20.102   2.712
37594W        W10662  31.054   6.223   4.197
37595W        W10663  33.005   3.469   2.290
37596W        W10664  10.644  25.112   0.673
37597W        W10665   4.233  42.011   2.708
37598W        W10666  13.343  29.575  14.929
37599W        W10667  14.142  17.366   0.769
37600W        W10668   4.386  43.374   3.159
37601W        W10669  31.140  22.504  13.505
37602W        W10670  14.760  39.534   2.412
37603W        W10671   7.069  12.365  12.339
37604W        W10672  25.964   4.056  12.421
37605W        W10673   7.578  16.304   0.748
37606W        W10674  25.590  31.122  11.636
37607W        W10675  16.559   2.972  13.385
37608W        W10676  22.176   1.076  14.115
37609W        W10677  28.356  42.038   0.492
37610W        W10678  30.577  36.617   2.886
37611W        W10679   2.089  42.673   4.680
37612W        W10680   1.665  12.735  14.414
37613W        W10681  12.733  30.347   0.478
37614W        W10682  30.958   6.672  12.437
37615W        W10683  10.820  42.221   4.579
37616W        W10684  22.042  18.751  11.940
37617W        W10685  24.941  17.076   1.717
37618W        W10686   7.976  28.728  11.756
37619W        W10687  23.216   4.752  11.067
37620W        W10688  27.393   7.072   4.638
37621W        W10689  44.005   8.952  12.090
37622W        W10690  25.174  38.859   0.201
37623W        W10691   2.498   3.915   4.490
37624W        W10692  21.429  24.940  12.426
37625W        W10693  29.065   8.269   3.400
37626W        W10694  20.280  37.425  13.098
37627W        W10695  12.156  35.514  10.763
37628W        W10696  38.881  43.733   1.389
37629W        W10697  29.583  31.628   4.129
37630W        W10698  13.206  24.029   0.797
37631W        W10699  42.384   4.997   3.586
37632W        W10700  20.319  28.858  14.290
37633W        W10701  36.274  37.934  10.643
37634W        W10702  24.086   7.334  12.001
37635W        W10703  30.529  28.986  10.712
37636W        W10704  31.295  42.403  14.912
37637W        W10705  19.823  44.659   4.133
37638W        W10706  21.088  42.014  12.656
37639W        W10707  25.380  15.155  12.042
37640W        W10708   5.943  42.068   4.101
37641W        W10709   2.925   1.803   3.165
37642W        W10710  21.585   7.708  13.356
37643W        W10711  22.473  32.001  12.050
37644W        W10712  19.615  17.621   0.491
37645W        W10713  10.246   0.981   1.905
37646W        W10714  20.350   8.562  11.196
37647W        W10715  38.628  37.044  13.749
37648W        W10716  27.055   0.592  13.962
37649W        W10717  10.878  30.604   0.251
37650W        W10718  17.360  15.728   2.793
37651W        W10719  40.744  28.154  10.563
37652W        W10720  36.263  33.966  13.399
37653W        W10721  40.518  19.671   0.386
37654W        W10722  16.247  28.247   0.951
37655W        W10723  31.124   8.164   2.549
37656W        W10724   8.028  21.233   2.303
37657W        W10725  30.731  30.712   4.145
37658W        W10726   8.139  30.625  14.407
37659W        W10727   8.954  38.858  12.058
37660W        W10728   2.025  16.777   3.748
37661W        W10729   2.940  11.594   3.302
37662W        W10730   8.417  23.308   0.771
37663W        W10731  35.852  35.306   0.302
37664W        W10732  12.989  41.551  14.013
37665W        W10733   9.274  21.212   3.731
37666W        W10734  14.713   9.265   1.373
37667W        W10735  33.604  20.693   0.485
37668W        W10736  32.666  33.048  14.392
37669W        W10737  41.605  15.884   5.500
37670W        W10738  11.085   9.705   0.784
37671W        W10739  21.298  37.102   2.720
37672W        W10740  37.813  19.552   1.090
37673W        W10741  42.416  10.950   2.834
37674W        W10742  44.231   8.362  11.536
37675W        W10743  34.839  27.731  11.306
37676W        W10744   7.010   3.410   0.707
37677W        W10745  17.299  22.157  13.014
37678W        W10746  34.902  17.673   3.248
37679W        W10747  26.655  17.899   3.205
37680W        W10748  17.674   2.230   1.547
37681W        W10749  16.472  16.226  11.088
37682W        W10750   1.067  43.541  11.877
37683W        W10751  27.211  21.846   4.117
37684W        W10752   2.815  35.648  11.852
37685W        W10753  42.819  30.900   0.245
37686W        W10754  35.542   0.013   1.461
37687W        W10755  40.838  13.876  14.781
37688W        W10756  14.357  43.980  13.822
37689W        W10757  11.690   2.580   3.604
37690W        W10758   4.947  34.361  12.614
37691W        W10759  42.775  13.517   3.660
37692W        W10760  21.899   8.417   0.742
37693W        W10761  24.385  16.384   5.567
37694W        W10762  41.494  29.527   3.080
37695W        W10763  20.385  19.514  13.926
37696W        W10764  20.146  26.170   4.549
37697W        W10765  44.001  22.642  12.718
37698W        W10766  37.824  35.637   4.189
37699W        W10767  12.803  33.777   0.221
37700W        W10768   0.302   6.816  13.644
37701W        W10769   2.783   8.823   2.219
37702W        W10770  30.431  30.629  13.955
37703W        W10771   9.227   8.847  13.598
37704W        W10772  35.308  43.757   2.684
37705W        W10773  33.332  27.140  12.059
37706W        W10774  44.694  37.064   1.475
37707W        W10775  26.965  29.985  11.970
37708W        W10776  24.907   5.312   2.204
37709W        W10777  22.144  33.540   4.019
37710W        W10778  13.717   9.231   4.559
37711W        W10779  14.095  31.499   4.295
37712W        W10780  18.792   3.287   0.070
37713W        W10781  16.888  32.152  14.292
37714W        W10782  13.820  26.021   3.182
37715W        W10783   4.712   2.192   1.654
37716W        W10784  27.965  29.179  11.582
37717W        W10785  32.074  17.678  13.808
37718W        W10786  28.648   3.892   4.189
37719W        W10787  40.264  20.000  13.020
37720W        W10788  41.441   4.103  11.931
37721W        W10789  11.670  15.170   2.216
37722W        W10790  14.245  44.162  10.016
37723W        W10791   7.926  16.767  12.400
37724W        W10792  25.834  24.997   4.976
37725W        W10793   1.043  34.174   2.773
37726W        W10794  24.522  44.427   2.284
37727W        W10795  23.098  23.529  12.801
37728W        W10796  40.245  30.779   1.717
37729W        W10797   3.996   8.179  14.536
37730W        W10798  38.605  34.041   1.253
37731W        W10799  27.465   7.152   1.779
37732W        W10800  26.057  41.339   3.518
37733W        W10801  35.444  18.280  11.989
37734W        W10802  18.467  38.985   2.471
37735W        W10803  43.531  25.498  14.253
37736W        W10804  35.697  14.789   3.551
37737W        W10805   3.893  24.462  13.431
37738W        W10806  31.627  18.964   1.785
37739W        W10807  40.089  22.416  10.673
37740W        W10808  32.147  21.193  14.028
37741W        W10809  24.495  40.015   2.509
37742W        W10810  34.313   2.230   1.139
37743W        W10811  35.764   1.468   0.791
37744W        W10812   7.845   5.850   1.768
37745W        W10813  32.927   0.472  12.513
37746W        W10814   4.207  21.923  12.368
37747W        W10815  25.085  34.984   2.995
37748W        W10816  44.001  35.985  11.617
37749W        W10817  32.010  27.037  12.670
37750W        W10818  16.047  43.663  14.967
37751W        W10819  29.014   7.629  14.811
37752W        W10820  33.550   4.919   0.236
37753W        W10821   7.200  37.788  13.299
37754W        W10822  22.169  39.064   3.831
37755W        W10823  26.152  25.147   3.259
37756W        W10824  38.949  27.066   0.787
37757W        W10825  13.422  17.454   0.722
37758W        W10826  30.036   8.398  14.002
37759W        W10827   4.711  11.226  11.348
37760W        W10828   4.674   5.310   4.234
37761W        W10829  29.365   4.982   0.333
37762W        W10830  24.545  34.904  13.072
37763W        W10831  40.563  37.016  14.813
37764W        W10832   7.036   7.260  14.573
37765W        W10833   5.175   8.510  13.267
37766W        W10834  43.750  43.058   3.617
37767W        W10835  17.061   7.245   1.772
37768W        W10836  41.542   5.341   0.385
37769W        W10837  18.161  33.546   2.208
37770W        W10838  39.927  32.026   0.869
37771W        W10839   0.717  41.392  14.394
37772W        W10840  22.233  40.265  12.804
37773W        W10841  21.275  36.843   3.688
37774W        W10842  11.275   2.758   4.841
37775W        W10843  20.489  28.410  12.075
37776W        W10844   2.441  27.869  13.550
37777W        W10845  41.826  43.286   2.811
37778W        W10846  40.245  34.396  14.605
37779W        W10847  25.555  27.609  13.949
37780W        W10848  18.151  17.528   0.257
37781W        W10849  30.919  29.994   2.385
37782W        W10850  16.164  18.826  13.868
37783W        W10851  30.177   7.758   4.613
37784W        W10852  21.555  43.963   5.051
37785W        W10853  22.553   5.711  10.668
37786W        W10854  43.555   3.924   3.205
37787W        W10855  35.638   9.014   0.209
37788W        W10856  43.564  38.872  13.322
37789W        W10857   8.590   8.341  14.757
37790W        W10858   3.769  36.459   4.216
37791W        W10859  18.033  37.298  12.736
37792W        W10860   2.994  40.603  11.060
37793W        W10861  44.578   6.138  11.915
37794W        W10862   2.363  23.349   1.486
37795W        W10863  11.062  18.149  11.459
37796W        W10864  21.802  41.750  12.076
37797W        W10865  13.418  37.384   4.027
37798W        W10866  34.199  24.970   1.351
37799W        W10867   8.215  35.896  14.456
37800W        W10868   3.748  35.134   3.687
37801W        W10869  11.477  37.929  11.264
37802W        W10870   5.834  16.618   3.199
37803W        W10871  10.611   7.652   4.589
37804W        W10872  38.899  42.751  10.759
37805W        W10873  42.233  15.793   4.272
37806W        W10874  11.856  23.625   1.855
37807W        W10875   7.681   3.417   4.203
37808W        W10876  13.609  27.467   4.057
37809W        W10877  31.287  13.616  13.617
37810W        W10878   9.819  12.234  12.764
37811W        W10879  20.176  41.945  12.810
37812W        W10880  19.711   7.766  14.085
37813W        W10881  25.681  29.068  13.438
37814W        W10882  43.245   1.344   2.624
37815W        W10883  31.973  31.083  14.200
37816W        W10884  18.414  12.253   0.153
37817W        W10885   6.935  12.076  10.620
37818W        W10886  23.534  16.066  13.504
37819W        W10887  37.389  25.752   3.142
37820W        W10888  32.959   1.610  12.446
37821W        W10889  41.403  42.849  10.990
37822W        W10890   8.436  38.356  14.442
37823W        W10891  34.228   9.698   0.949
37824W        W10892  19.033  34.420  14.339
37825W        W10893  11.902  10.689  11.648
37826W        W10894   6.610  13.868   0.620
37827W        W10895  17.557  30.999   1.876
37828W        W10896  43.422   7.455   1.622
37829W        W10897  37.368  19.032   0.372
37830W        W10898  21.650  12.016   2.811
37831W        W10899   8.797  43.014  13.674
37832W        W10900  23.282  36.922  12.471
37833W        W10901  34.341  20.266   1.463
37834W        W10902  14.669  14.836  11.185
37835W        W10903   4.895  17.023   0.194
37836W        W10904  14.804   6.785  14.366
37837W        W10905  11.304  25.411   3.188
37838W        W10906  29.689  39.369  10.938
37839W        W10907  21.423  24.864  13.325
37840W        W10908  34.396  18.208   0.429
37841W        W10909   8.298  42.652  11.133
37842W        W10910  26.592  18.528  14.367
37843W        W10911  20.503  21.855   0.851
37844W        W10912  44.651   9.298  12.506
37845W        W10913  19.142  25.079   0.842
37846W        W10914  15.600  13.417   4.178
37847W        W10915  31.631   3.687  14.938
37848W        W10916  38.350  38.290   3.720
37849W        W10917  19.788  10.284  13.393
37850W        W10918  22.211  29.538  14.407
37851W        W10919  20.331  17.248   3.141
37852W        W10920  17.074  31.446  14.387
37853W        W10921   5.844   9.887  12.472
37854W        W10922   9.511  17.038  11.429
37855W        W10923  13.493  17.547  12.175
37856W        W10924  15.685   6.731   2.178
37857W        W10925  29.088  29.669   1.472
37858W        W10926  16.768  17.000  13.342
37859W        W10927   2.915  19.912   4.275
37860W        W10928  15.714  24.260  14.795
37861W        W10929  42.350  30.532   4.661
37862W        W10930  21.480  31.895   0.213
37863W        W10931  15.440  41.608   3.417
37864W        W10932  21.802  20.175   3.413
37865W        W10933  19.621  35.484  12.574
37866W        W10934  23.030  10.792  11.502
37867W        W10935  24.965  13.735   0.997
37868W        W10936  17.851  26.700   1.782
37869W        W10937  12.239   1.293  10.675
37870W        W10938  18.656   1.004   4.510
37871W        W10939  22.929  23.015   3.956
37872W        W10940   5.243  35.819   4.381
37873W        W10941   3.822   3.966  13.940
37874W        W10942  18.101  20.750  14.585
37875W        W10943  43.767  39.291   1.812
37876W        W10944  39.486  27.645   2.727
37877W        W10945  30.030  15.093   4.942
37878W        W10946   7.577  10.224   4.595
37879W        W10947   6.650   5.491   3.744
37880W        W10948  34.964  42.583  11.724
37881W        W10949   9.212  10.127   3.147
37882W        W10950  19.577  39.483  14.322
37883W        W10951  42.934  40.435  14.541
37884W        W10952  22.036  11.753  12.908
37885W        W10953   8.138   4.831   3.701
37886W        W10954  39.641  32.212  14.925
37887W        W10955  37.261  15.057   5.003
37888W        W10956  15.274  13.799  10.606
37889W        W10957   0.706   9.227   4.677
37890W        W10958  31.475  25.926  11.067
37891W        W10959   1.790  39.435   3.724
37892W        W10960  22.008  14.300  11.311
37893W        W10961  44.898  23.148   1.367
37894W        W10962  19.781   0.642   4.447
37895W        W10963  37.876   6.526  11.725
37896W        W10964   1.286  34.105   3.213
37897W        W10965   1.509  13.247  11.517
37898W        W10966  12.226  20.848   1.237
37899W        W10967  27.877  37.806   2.715
37900W        W10968  32.314  43.376  14.208
37901W        W10969  43.225  41.984   3.247
37902W        W10970   3.302  14.472   5.363
37903W        W10971  41.176   5.349  12.361
37904W        W10972  33.005  14.536   2.722
37905W        W10973  42.988   1.729  14.278
37906W        W10974  13.075  10.105   1.816
37907W        W10975  32.386  26.655  12.989
37908W        W10976  36.394  12.716  14.426
37909W        W10977  20.156   3.994  11.029
37910W        W10978  11.700  10.345  14.493
37911W        W10979  31.007  37.534   3.762
37912W        W10980   3.285   3.820   1.372
37913W        W10981  13.903  35.172   4.613
37914W        W10982  17.372   3.617   0.356
37915W        W10983  37.880  35.457  12.054
37916W        W10984   5.205  41.280   0.471
37917W        W10985  35.067   8.172   3.711
37918W        W10986  33.189  34.632  11.572
37919W        W10987  13.682  18.919  10.651
37920W        W10988  14.754  43.721   0.377
37921W        W10989  36.702  43.961  12.089
37922W        W10990   9.351  23.923   3.381
37923W        W10991  26.234   9.065  13.029
37924W        W10992   3.515  19.481   0.411
37925W        W10993   6.524  44.028   0.453
37926W        W10994  21.620  40.205  11.548
37927W        W10995  17.381   3.016  13.952
37928W        W10996  38.143   5.998   4.642
37929W        W10997  18.766  36.013   4.441
37930W        W10998  14.431   6.224  13.179
37931W        W10999  28.148   3.891   4.043
37932W        W11000  36.145  44.458   2.975
37933W        W11001  38.252  34.856   4.391
37934W        W11002   3.427   4.317   2.808
37935W        W11003  20.903   7.718  14.412
37936W        W11004  23.203  12.968   4.071
37937W        W11005  24.104   0.611   4.202
37938W        W11006  15.158  20.384  11.861
37939W        W11007  43.739  14.770   1.141
37940W        W11008  23.471  14.566  12.525
37941W        W11009   0.549  31.688  13.004
37942W        W11010   8.383  17.687  12.871
37943W        W11011  27.459  42.392   1.564
37944W        W11012  23.733  16.311  11.798
37945W        W11013  21.329  29.762  11.674
37946W        W11014  15.748  20.867  12.330
37947W        W11015  16.535   7.238   0.220
37948W        W11016  18.802  35.588  12.851
37949W        W11017  14.551  13.618   1.449
37950W        W11018  13.289  34.606  14.182
37951W        W11019  27.258  40.565  10.273
37952W        W11020  22.038  29.642   0.869
37953W        W11021  11.917   9.317  14.770
37954W        W11022  11.869  18.732  12.496
37955W        W11023  13.281  40.045   1.156
37956W        W11024  18.276   4.851   1.542
37957W        W11025   3.461   4.270   1.129
37958W        W11026  25.541  20.979  12.997
37959W        W11027  13.217  13.256  14.829
37960W        W11028  36.008  25.296  10.917
37961W        W11029  40.530   1.031   0.276
37962W        W11030  26.432  39.029   4.280
37963W        W11031   6.704  25.183   0.410
37964W        W11032  16.666  35.604   3.717
37965W        W11033  23.914  39.053  12.985
37966W        W11034   8.772  39.390  11.001
37967W        W11035  22.070  18.797   4.275
37968W        W11036  21.828  12.736   0.277
37969W        W11037   1.836   6.694   1.766
37970W        W11038  30.539  43.376  13.712
37971W        W11039  11.719   6.643  13.923
37972W        W11040  19.270  34.568  12.970
37973W        W11041  19.339   6.385   4.365
37974W        W11042  26.304  22.322   3.269
37975W        W11043  28.151  26.637   2.868
37976W        W11044  14.584   7.896   2.555
37977W        W11045  16.675  33.703   4.052
37978W        W11046  27.601   3.469  11.182
37979W        W11047   6.137  40.806  13.535
37980W        W11048  25.048  10.081  12.792
37981W        W11049  18.538  27.837   0.300
37982W        W11050  18.174  41.127   4.805
37983W        W11051  24.096  23.643  12.087
37984W        W11052   4.634  30.291  10.507
37985W        W11053  25.737   1.926   1.277
37986W        W11054  16.030  18.665   3.449
37987W        W11055  41.924  34.433  12.168
37988W        W11056  39.615  20.260   3.165
37989W        W11057  38.913  17.099  14.239
37990W        W11058  23.540  42.899   1.773
37991W        W11059  17.230   0.290  13.470
37992W        W11060  41.932  27.511   0.921
37993W        W11061  15.063  19.267   4.307
37994W        W11062   9.467  32.881   0.642
37995W        W11063  25.054   7.883   4.080
37996W        W11064  10.178   1.436  12.096
37997W        W11065  39.315  18.198  10.985
37998W        W11066  15.253  32.475  11.580
37999W        W11067  31.913  22.040   3.140
38000W        W11068  40.219  40.369  11.164
38001W        W11069  28.124  42.733  14.857
38002W        W11070   8.398  22.612  12.058
38003W        W11071  12.172   4.402   2.616
38004W        W11072  33.217   7.847   1.099
38005W        W11073  26.048  21.729  14.550
38006W        W11074  37.105  13.303  12.024
38007W        W11075   6.780  12.576  13.898
38008W        W11076  41.480   3.664  12.201
38009W        W11077  19.740  28.025  10.490
38010W        W11078  14.424  17.554   2.609
38011W        W11079   9.072  44.044  11.281
38012W        W11080  11.316  27.627   3.683
38013W        W11081  42.355  32.380  11.436
38014W        W11082  10.000  30.361   0.415
38015W        W11083  37.013  40.124  12.265
38016W        W11084   5.252  39.540  13.867
38017W        W11085  44.024  35.387  13.969
38018W        W11086   5.876   0.352  10.693
38019W        W11087   5.329  13.366   1.259
38020W        W11088   2.889  40.463  13.938
38021W        W11089   0.251   2.417   3.030
38022W        W11090  25.984  21.637  10.669
38023W        W11091  18.464  40.434  10.387
38024W        W11092  33.000  19.386   1.480
38025W        W11093  36.848   7.439   0.693
38026W        W11094   8.739  29.032  14.847
38027W        W11095  27.673   1.770   4.667
38028W        W11096  25.869  17.107  11.149
38029W        W11097  27.899  28.405  11.219
38030W        W11098   8.588  40.916   0.822
38031W        W11099  11.717  38.279   1.981
38032W        W11100  15.992  30.377  13.553
38033W        W11101  23.641  27.965   4.371
38034W        W11102  25.224  34.947   3.889
38035W        W11103  41.872   8.100   0.504
38036W        W11104  28.969  10.738   3.685
38037W        W11105   5.657  10.731   0.375
38038W        W11106  37.863   4.036   3.287
38039W        W11107  17.538   5.332  13.359
38040W        W11108   6.062  14.814   4.321
38041W        W11109  17.660  30.584   0.203
38042W        W11110  39.109  39.280  13.628
38043W        W11111  22.533  31.405  10.622
38044W        W11112   4.836  36.442   0.646
38045W        W11113   3.787  31.412   0.044
38046W        W11114  42.334   5.082  10.816
38047W        W11115  15.020  22.441   1.216
38048W        W11116  23.683  16.314  10.535
38049W        W11117  33.108  29.086   0.034
38050W        W11118  39.028  31.821   2.790
38051W        W11119   3.363  43.305  10.618
38052W        W11120  37.022  20.030   2.828
38053W        W11121  33.254  18.300  10.663
38054W        W11122  39.159  37.838  13.415
38055W        W11123   0.758  35.309   0.550
38056W        W11124  19.045  26.928   2.271
38057W        W11125  33.371  16.203  10.584
38058W        W11126  28.175  27.720   2.210
38059W        W11127  30.904  33.048  13.998
38060W        W11128  17.969  17.653   4.669
38061W        W11129  36.834  11.345  13.440
38062W        W11130  11.175   0.046   1.808
38063W        W11131  36.329   6.833  14.498
38064W        W11132  32.486  25.048  11.620
38065W        W11133  27.729   6.266   1.728
38066W        W11134   6.761  20.659   0.272
38067W        W11135  38.986   1.311   4.743
38068W        W11136  13.587  21.165  14.381
38069W        W11137  40.849  42.532   0.960
38070W        W11138  42.902  33.187  14.348
38071W        W11139  37.440  12.357  11.365
38072W        W11140  24.560   1.178  12.376
38073W        W11141  31.468  28.611  13.714
38074W        W11142   1.901  11.711   0.472
38075W        W11143   0.218  26.542  11.961
38076W        W11144  36.687  35.323   0.885
38077W        W11145  18.130  13.572  10.356
38078W        W11146  43.622  41.592  10.329
38079W        W11147  33.593  29.926   2.720
38080W        W11148  35.323   6.667  13.871
38081W        W11149   1.045  38.138   0.305
38082W        W11150  18.003  40.319   1.802
38083W        W11151   4.238  15.091  13.990
38084W        W11152  10.426  31.649   1.385
38085W        W11153   3.346  11.418  11.691
38086W        W11154  30.229   8.674  11.614
38087W        W11155  26.602  19.151   4.907
38088W        W11156  17.591   7.290  12.526
38089W        W11157  23.736  41.347   2.660
38090W        W11158  38.654  17.663  10.584
38091W        W11159  41.890  16.515  12.976
38092W        W11160  18.619  34.155   1.192
38093W        W11161   4.665  20.592  13.624
38094W        W11162   4.557  42.452   3.081
38095W        W11163  34.432  28.377  13.011
38096W        W11164  31.413  30.335  14.707
38097W        W11165  29.629  14.268   2.554
38098W        W11166  24.818   6.691  11.550
38099W        W11167  28.028   5.789   4.376
38100W        W11168  29.396  42.350  11.903
38101W        W11169  43.072  23.985  11.523
38102W        W11170  21.709   2.550   1.905
38103W        W11171  33.423  43.680   3.487
38104W        W11172  21.085  28.760  10.741
38105W        W11173  14.763   5.779  12.077
38106W        W11174  11.329   0.713  10.719
38107W        W11175  38.674  20.012   2.614
38108W        W11176  21.059  32.567   3.783
38109W        W11177   7.791  40.279   2.304
38110W        W11178  43.534   1.913  12.290
38111W        W11179  27.427   7.205  13.827
38112W        W11180  21.974  13.937   0.239
38113W        W11181  17.988  15.623  12.928
38114W        W11182  27.124  29.642   0.044
38115W        W11183  26.444  28.361  11.478
38116W        W11184  36.910  21.209   4.611
38117W        W11185  29.160  35.758   3.600
38118W        W11186  33.334  30.400  12.974
38119W        W11187  40.047  28.756  10.903
38120W        W11188  18.307  42.518   3.123
38121W        W11189  16.291  41.746   3.880
38122W        W11190  17.772   8.175   1.235
38123W        W11191  17.219  23.164   1.458
38124W        W11192  16.489  13.078   4.207
38125W        W11193  33.235  44.840  11.315
38126W        W11194  22.158  20.929   0.011
38127W        W11195  12.900  41.044  13.946
38128W        W11196  41.479  40.859   1.758
38129W        W11197   2.491  37.083   0.938
38130W        W11198  14.542  34.123   2.348
38131W        W11199  30.543  11.710   4.657
38132W        W11200  24.796  28.520  13.808
38133W        W11201  25.913  38.814  10.956
38134W        W11202   6.972   2.852  11.132
38135W        W11203  20.797  32.632  13.372
38136W        W11204  31.637   3.825  14.037
38137W        W11205  33.280  22.232   4.013
38138W        W11206   4.386  43.225  10.725
38139W        W11207  13.002  21.081  13.806
38140W        W11208  38.354  22.645  13.552
38141W        W11209  36.383  43.547   3.671
38142W        W11210   0.277  21.717  14.980
38143W        W11211  18.180  14.726   4.094
38144W        W11212  32.441   2.416   3.252
38145W        W11213   9.745   0.278  14.737
38146W        W11214  25.544  28.088   2.099
38147W        W11215  40.560  43.730   4.591
38148W        W11216  21.715  27.470  12.983
38149W        W11217  42.293   7.660   2.232
38150W        W11218  19.632  28.622   0.813
38151W        W11219  22.469  44.968   2.712
38152W        W11220   8.262  25.457   2.374
38153W        W11221  29.474  34.486   1.184
38154W        W11222  25.606  21.029  11.139
38155W        W11223  41.877  28.617  12.289
38156W        W11224  38.012  44.386  11.605
38157W        W11225   7.193  10.578   3.653
38158W        W11226  43.985  35.954   4.266
38159W        W11227  28.930  17.465   3.787
38160W        W11228  14.061  12.316  14.251
38161W        W11229   9.809  23.946  12.469
38162W        W11230  33.034  21.628  10.673
38163W        W11231  25.511   1.491   4.138
38164W        W11232  12.129  17.373   4.190
38165W        W11233  41.500  42.429   1.745
38166W        W11234  39.491   3.978   3.733
38167W        W11235   0.834   1.219   3.093
38168W        W11236  25.075  21.208  10.813
38169W        W11237   8.241  41.569   5.369
38170W        W11238  27.196  41.808  12.543
38171W        W11239   2.909  12.044  11.906
38172W        W11240  27.839  38.033  10.745
38173W        W11241  10.936  32.053  12.841
38174W        W11242   3.132  25.049   1.972
38175W        W11243  16.271   8.427  14.491
38176W        W11244   5.873   6.689   0.429
38177W        W11245  12.214  22.498  12.111
38178W        W11246  38.576  23.656  14.373
38179W        W11247   1.490  36.784   4.530
38180W        W11248  20.652  30.098   0.929
38181W        W11249  19.173  18.572   3.619
38182W        W11250  32.984  22.214   4.507
38183W        W11251  25.944   2.488   2.070
38184W        W11252   9.113  31.261   1.457
38185W        W11253   4.743  41.611  14.273
38186W        W11254   0.450  28.582  12.578
38187W        W11255  36.248  39.921  11.149
38188W        W11256  15.812  27.406   2.762
38189W        W11257  26.349  28.344   1.195
38190W        W11258  18.265  15.275   3.279
38191W        W11259   2.601  12.727  12.282
38192W        W11260   5.961  12.802  13.305
38193W        W11261  35.415  21.610   2.359
38194W        W11262   4.277  30.128   2.996
38195W        W11263  25.503  14.675  11.919
38196W        W11264   4.599  14.197  12.020
38197W        W11265  11.325  11.583   2.763
38198W        W11266  15.162  18.408  10.817
38199W        W11267   4.887  39.158   4.752
38200W        W11268  42.492  19.732   4.075
38201W        W11269  17.186   8.759   5.047
38202W        W11270   4.269  16.655  13.126
38203W        W11271  32.697  36.289  14.007
38204W        W11272   7.969  22.289   3.845
38205W        W11273  40.800  28.981   4.845
38206W        W11274   5.970  30.608  11.585
38207W        W11275  30.967  13.238  13.782
38208W        W11276  36.862  33.928  14.971
38209W        W11277  23.006   7.283   1.310
38210W        W11278  34.436  33.947  12.408
38211W        W11279  18.368  29.463  13.482
38212W        W11280  25.079  33.161   1.105
38213W        W11281  39.256  17.186  12.640
38214W        W11282  18.523  11.140   2.492
38215W        W11283  27.190  12.886  13.544
38216W        W11284  43.315   0.338  14.330
38217W        W11285  36.093  37.467  11.714
38218W        W11286  41.142  30.917  12.052
38219W        W11287  44.225  28.213  12.072
38220W        W11288  35.428  36.427   4.931
38221W        W11289  25.239  44.000  11.242
38222W        W11290   7.354  40.976  13.047
38223W        W11291  44.837  38.157   3.311
38224W        W11292  32.365  19.620  14.640
38225W        W11293  23.640  38.601  13.505
38226W        W11294   1.330  20.033  13.924
38227W        W11295  29.914   1.917  13.626
38228W        W11296   5.093  18.826   1.185
38229W        W11297  30.002  41.308   4.241
38230W        W11298   5.843   9.822   0.438
38231W        W11299  33.503  41.971   2.419
38232W        W11300  15.564   0.854  14.505
38233W        W11301  15.138  37.947   3.832
38234W        W11302  11.200  43.493   2.766
38235W        W11303   5.937  21.867  12.978
38236W        W11304   0.105  19.302   2.867
38237W        W11305  14.250  20.883  13.607
38238W        W11306  36.868  20.521   1.345
38239W        W11307  12.903  37.567  12.515
38240W        W11308  35.344  21.554  10.660
38241W        W11309  38.090   1.092  13.567
38242W        W11310  41.700   9.921  10.639
38243W        W11311  26.252   0.347  12.382
38244W        W11312  38.518   6.101  11.886
38245W        W11313  40.837   4.017  11.461
38246W        W11314  10.447  28.318   5.089
38247W        W11315  28.869  23.675  10.892
38248W        W11316  19.827  23.698   1.475
38249W        W11317  12.067  38.884  13.540
38250W        W11318  22.139  38.666  12.552
38251W        W11319  34.312  33.507   4.984
38252W        W11320   3.400  26.994   3.698
38253W        W11321  31.117  16.536  11.857
38254W        W11322  43.309  13.876   4.710
38255W        W11323  21.122  40.215  12.391
38256W        W11324  40.539   4.441   3.433
38257W        W11325  44.903  22.257   0.870
38258W        W11326  41.777  35.378  13.811
38259W        W11327  39.576  20.804   2.194
38260W        W11328  42.068  23.752   5.165
38261W        W11329   3.422  31.590   3.116
38262W        W11330   2.989   0.923  14.845
38263W        W11331  43.287  12.365  10.606
38264W        W11332   9.841  29.572   4.468
38265W        W11333  31.973   6.288   2.543
38266W        W11334   5.684  16.341   1.829
38267W        W11335  20.383  43.018  10.424
38268W        W11336  29.445   9.109   0.437
38269W        W11337  13.675  21.530   4.685
38270W        W11338   4.534  11.647   2.189
38271W        W11339   2.327  15.206  14.048
38272W        W11340  41.818  41.754  11.061
38273W        W11341  32.414   4.988   1.851
38274W        W11342  30.872  17.870  11.947
38275W        W11343   6.890   7.142   4.070
38276W        W11344   9.340  36.202   4.256
38277W        W11345  27.381  42.486   3.998
38278W        W11346  22.268  19.634   0.207
38279W        W11347  22.834  10.274  13.989
38280W        W11348  38.133   1.301  12.428
38281W        W11349   4.896  36.810  11.013
38282W        W11350  42.286  39.083  14.933
38283W        W11351   3.652  37.585  11.366
38284W        W11352  25.884  38.134   1.379
38285W        W11353  30.337  11.984   5.091
38286W        W11354  36.288  11.797  10.723
38287W        W11355  29.130  31.223  12.687
38288W        W11356  32.725  11.103   2.308
38289W        W11357   1.832  33.901   0.989
38290W        W11358  40.980  35.928   4.541
38291W        W11359  28.219  24.133  12.074
38292W        W11360  35.503  26.620  10.944
38293W        W11361  16.045  15.634  12.990
38294W        W11362  38.814  40.524   3.160
38295W        W11363   7.875  39.480  13.911
38296W        W11364  20.197  36.001  14.549
38297W        W11365   9.142  36.531  12.737
38298W        W11366  13.585  11.886   3.580
38299W        W11367  21.500   0.878  14.905
38300W        W11368  19.130  28.474   3.655
38301W        W11369  21.032   6.847  10.928
38302W        W11370  24.172  15.304   2.642
38303W        W11371  37.829  12.187  14.513
38304W        W11372   5.405  19.548  14.901
38305W        W11373  27.884  37.080   3.309
38306W        W11374  20.454  39.117   4.203
38307W        W11375   1.877  28.641   2.716
38308W        W11376  20.389  21.337  13.126
38309W        W11377  23.657   9.912  11.568
38310W        W11378  29.066  20.126  12.815
38311W        W11379   9.157  35.520  14.220
38312W        W11380  42.579  18.386   4.206
38313W        W11381  22.493  28.899   3.137
38314W        W11382  33.486  22.012   2.803
38315W        W11383   4.351  23.664  14.588
38316W        W11384  32.266  26.912   4.728
38317W        W11385   7.209  37.314  13.465
38318W        W11386  20.766  22.797  12.059
38319W        W11387  31.533  24.133  11.348
38320W        W11388  32.906  17.575   1.827
38321W        W11389  37.620   1.880   2.736
38322W        W11390  33.115   9.805   1.987
38323W        W11391  19.562  19.576   2.017
38324W        W11392  24.193   1.290   2.158
38325W        W11393  35.021  34.014  14.260
38326W        W11394  26.382   6.984   3.801
38327W        W11395  15.885  26.506  11.998
38328W        W11396  33.597  17.750  12.856
38329W        W11397   7.634  28.158  12.560
38330W        W11398   9.914   0.564   1.890
38331W        W11399  10.181  16.683  12.010
38332W        W11400  23.469   3.745   2.855
38333W        W11401  15.069  41.043  14.492
38334W        W11402  33.318  42.251  10.702
38335W        W11403  29.641  12.047   3.837
38336W        W11404   8.722  30.199  12.039
38337W        W11405  42.939   5.126  12.299
38338W        W11406   8.957  35.377  11.439
38339W        W11407  30.148  40.294   1.403
38340W        W11408   0.059  37.402   3.914
38341W        W11409   1.266  44.792  14.409
38342W        W11410  34.940  30.200  13.804
38343W        W11411  21.465  39.538  13.739
38344W        W11412  10.812  25.473  14.894
38345W        W11413  31.660   9.320  11.634
38346W        W11414  27.752  44.174  10.374
38347W        W11415  39.024  43.432   0.894
38348W        W11416  20.740  39.480  11.949
38349W        W11417   6.596   1.869   4.598
38350W        W11418   9.989  12.758  13.216
38351W        W11419  20.041  18.230   3.949
38352W        W11420  40.399  27.903  12.048
38353W        W11421  11.253   5.103  10.773
38354W        W11422  16.263  41.080  13.468
38355W        W11423  19.603   2.492   2.300
38356W        W11424   9.591  15.690  11.074
38357W        W11425  31.361  27.914   1.421
38358W        W11426  23.375   6.885  10.987
38359W        W11427   4.345   4.735   4.836
38360W        W11428  24.534  10.347   4.431
38361W        W11429  38.401  35.493  10.403
38362W        W11430  39.883   9.204   1.312
38363W        W11431  23.916  22.536  12.423
38364W        W11432   6.164  43.791  10.592
38365W        W11433   3.639  27.407  14.899
38366W        W11434  15.703  14.238   0.994
38367W        W11435  23.212  34.084  13.338
38368W        W11436   3.897  27.906   2.475
38369W        W11437  12.518  21.664   1.565
38370W        W11438  29.607  24.019  11.591
38371W        W11439  10.382  31.898  10.600
38372W        W11440  36.884  28.990   3.777
38373W        W11441  13.361  33.110  14.786
38374W        W11442   9.679   1.040   0.512
38375W        W11443  24.621  24.099   1.272
38376W        W11444  23.661  37.444  10.909
38377W        W11445  26.390  24.630   3.385
38378W        W11446  37.141  22.264   4.646
38379W        W11447  38.068   6.990  11.880
38380W        W11448  35.495  29.117  13.122
38381W        W11449  22.249  25.606  10.652
38382W        W11450  36.395  39.011   4.769
38383W        W11451   7.650  22.985  11.011
38384W        W11452  33.638  39.751   3.171
38385W        W11453  42.793  40.642   2.136
38386W        W11454  34.028  19.412   0.395
38387W        W11455  36.050  26.945   1.319
38388W        W11456  32.072  39.141   3.599
38389W        W11457  41.411  37.606   4.121
38390W        W11458  40.789  27.699   4.212
38391W        W11459  37.783   3.179  12.160
38392W        W11460   5.228   5.178   1.278
38393W        W11461  27.501  44.048  11.187
38394W        W11462   6.262  23.972  14.583
38395W        W11463   4.530  11.661   3.986
38396W        W11464  25.477  36.646  14.821
38397W        W11465  33.676   4.386   0.253
38398W        W11466  41.982  36.616   3.184
38399W        W11467  27.584  33.358   2.610
38400W        W11468   3.967  23.293   0.580
38401W        W11469  14.351  44.369  13.113
38402W        W11470  18.889   8.221  11.173
38403W        W11471  33.118  21.124  10.681
38404W        W11472   7.851  20.959  11.806
38405W        W11473   7.296  13.086  14.450
38406W        W11474  18.245  13.928   4.762
38407W        W11475  21.060  36.487   4.595
38408W        W11476   8.620  20.562  12.063
38409W        W11477  28.645  43.514  13.958
38410W        W11478  43.823  37.597  13.534
38411W        W11479  11.342  19.214  10.773
38412W        W11480   0.504  20.122   0.476
38413W        W11481  24.916  33.645   0.942
38414W        W11482  24.947   9.237   2.386
38415W        W11483   3.261  22.916  10.974
38416W        W11484  32.474  44.786  13.928
38417W        W11485  42.398   6.220   1.352
38418W        W11486  12.562  16.775   0.605
38419W        W11487  22.491   6.650   2.955
38420W        W11488  35.441  35.016  10.368
38421W        W11489  42.827  35.881  13.793
38422W        W11490   9.296  31.057   0.996
38423W        W11491  23.055  34.792   1.331
38424W        W11492  27.400  34.382   0.821
38425W        W11493   9.876  30.504  14.945
38426W        W11494  17.066  17.157   1.066
38427W        W11495  11.555   9.329  10.694
38428W        W11496   2.984  18.241  11.013
38429W        W11497  23.514  36.154  12.439
38430W        W11498  25.082  41.543   3.706
38431W        W11499  36.890  20.307   0.375
38432W        W11500  18.357  10.469   3.847
38433W        W11501   8.334  27.118  10.649
38434W        W11502  36.780  15.593  11.363
38435W        W11503  14.310  36.497  13.734
38436W        W11504   8.639  37.282   3.606
38437W        W11505  16.200  14.211   1.182
38438W        W11506  34.553  41.837   0.473
38439W        W11507  19.712  18.563  12.414
38440W        W11508  17.472  31.747  14.651
38441W        W11509  23.524  35.752  11.678
38442W        W11510  15.852   3.233   2.888
38443W        W11511  20.992   0.897  14.816
38444W        W11512  22.719  23.522   2.271
38445W        W11513  25.092   7.676   0.290
38446W        W11514   4.619  27.544   2.831
38447W        W11515  16.618   6.269   1.880
38448W        W11516   9.796  14.688   2.733
38449W        W11517  30.233  36.046   0.727
38450W        W11518  18.330  35.109  14.311
38451W        W11519  27.884  42.422  12.388
38452W        W11520   4.342  21.719  13.850
38453W        W11521  27.715  42.487   0.021
38454W        W11522  37.146  44.229   5.039
38455W        W11523   0.035  32.109  11.714
38456W        W11524  27.240  22.817  11.993
38457W        W11525  16.536   1.776   2.700
38458W        W11526   3.358  16.259   3.265
38459W        W11527  17.602  31.524   0.115
38460W        W11528  11.128  39.473   1.315
38461W        W11529  17.056  35.449  12.800
38462W        W11530  22.254  31.963   4.010
38463W        W11531  44.231  23.122  13.161
38464W        W11532  36.379   7.828  11.551
38465W        W11533   7.781  20.146   4.210
38466W        W11534   4.301  39.071   4.535
38467W        W11535   7.671  37.476   3.346
38468W        W11536   0.038  41.842   0.202
38469W        W11537  39.084   4.498   3.779
38470W        W11538  18.194  13.979  14.361
38471W        W11539  29.718  17.630   3.243
38472W        W11540  35.567   3.246   2.759
38473W        W11541  22.024   0.492  11.520
38474W        W11542  32.538  13.113  12.049
38475W        W11543   6.759   5.285   2.403
38476W        W11544  24.761  38.046  11.544
38477W        W11545  15.611  26.304   0.326
38478W        W11546  37.275  28.151   1.365
38479W        W11547  15.662  34.019   4.510
38480W        W11548  25.563  16.894   2.764
38481W        W11549  35.720  35.198  11.746
38482W        W11550  43.081   5.587  11.066
38483W        W11551  10.335  21.289   2.237
38484W        W11552  20.743  44.266   2.865
38485W        W11553  26.020   9.319  13.846
38486W        W11554  42.805  10.199   2.662
38487W        W11555   6.619  38.551  11.149
38488W        W11556  23.169  44.350  10.803
38489W        W11557   0.296  41.386  14.055
38490W        W11558  27.241  14.881  12.519
38491W        W11559  40.392  28.433   1.892
38492W        W11560  28.009  42.991  14.399
38493W        W11561  25.987  11.618  14.274
38494W        W11562   2.675   9.278  14.892
38495W        W11563  20.602  10.533  14.459
38496W        W11564  36.028  37.010   4.974
38497W        W11565  44.782  15.367  14.069
38498W        W11566  44.759   5.161  13.873
38499W        W11567  31.825  26.290   5.062
38500W        W11568  33.560  28.142  10.615
38501W        W11569   9.222   7.446   0.411
38502W        W11570  27.588  42.950   4.064
38503W        W11571  13.101  41.980  12.840
38504W        W11572  10.802  21.765  14.219
38505W        W11573  35.633   8.708  12.898
38506W        W11574   4.847  27.341  12.434
38507W        W11575  37.349  21.727  12.447
38508W        W11576  36.869   5.829  10.682
38509W        W11577  44.009  39.392  12.031
38510W        W11578  18.417  37.980   0.282
38511W        W11579  28.086  17.105  13.940
38512W        W11580  23.574  38.132   0.859
38513W        W11581  13.084  22.407   5.044
38514W        W11582  15.075  26.742  12.173
38515W        W11583  30.718  34.713  11.566
38516W        W11584   9.356  35.934  14.514
38517W        W11585  30.086   4.224   4.160
38518W        W11586  28.521  31.118   1.201
38519W        W11587  35.823  33.941   4.139
38520W        W11588  13.826  31.136  14.864
38521W        W11589  36.081  26.744  12.578
38522W        W11590  19.104  28.778  11.051
38523W        W11591  33.321   0.393  13.856
38524W        W11592  44.559   0.263   2.162
38525W        W11593  37.453  34.777  13.862
38526W        W11594  36.561  10.213   3.351
38527W        W11595  39.532   7.774   3.704
38528W        W11596  10.296  32.602   3.275
38529W        W11597  26.574   2.499  13.065
38530W        W11598   0.513  10.788  14.744
38531W        W11599  21.727  36.101   3.548
38532W        W11600   8.941  18.739   2.560
38533W        W11601  14.276  14.609   2.485
38534W        W11602  13.033  35.323   4.822
38535W        W11603  23.124  34.444   1.716
38536W        W11604  39.737  18.435  11.166
38537W        W11605  33.149   0.394   3.699
38538W        W11606  36.940   9.639   1.303
38539W        W11607  27.866   1.986   0.969
38540W        W11608  38.035  29.907   2.820
38541W        W11609  30.369  10.716   0.816
38542W        W11610  21.694  38.185  11.202
38543W        W11611  23.411  24.280  12.123
38544W        W11612  42.074   3.964  12.973
38545W        W11613   3.871  11.705  11.205
38546W        W11614  20.534   6.406   2.634
38547W        W11615   0.365  18.234   4.727
38548W        W11616  38.500  28.558   2.762
38549W        W11617  44.925   5.802   1.764
38550W        W11618  27.226  22.733   0.321
38551W        W11619  10.664   7.147  10.891
38552W        W11620  33.904  31.104   0.049
38553W        W11621  20.436  27.932  14.467
38554W        W11622   8.896   0.788  11.102
38555W        W11623   1.559  23.190   2.122
38556W        W11624   4.324  26.966  11.876
38557W        W11625  17.686  43.346  10.658
38558W        W11626  31.369   3.170  12.567
38559W        W11627   0.204  16.802   1.443
38560W        W11628  26.861   7.930   1.509
38561W        W11629  36.106  33.493  13.514
38562W        W11630  18.575  33.002  13.834
38563W        W11631   7.879  30.122   2.437
38564W        W11632  33.819  22.932  10.727
38565W        W11633  14.619  37.867   1.529
38566W        W11634  27.158   7.770  14.388
38567W        W11635  39.483  31.817  14.290
38568W        W11636  29.231  17.051  12.022
38569W        W11637  21.573  24.070   3.178
38570W        W11638  30.505  18.734   1.279
38571W        W11639  22.478   8.371   1.918
38572W        W11640   6.147   1.349   3.228
38573W        W11641  38.447   6.629   2.462
38574W        W11642  33.904   6.989  11.140
38575W        W11643  17.212  23.714   4.165
38576W        W11644  25.207   4.021  13.099
38577W        W11645  39.118  41.556  10.252
38578W        W11646  37.366  24.165   0.020
38579W        W11647  37.720   7.153  11.544
38580W        W11648  13.666  29.402  13.565
38581W        W11649  34.977  35.384  14.934
38582W        W11650  33.279  44.985  13.543
38583W        W11651  44.746  22.101  10.629
38584W        W11652  34.011  11.547   2.313
38585W        W11653   9.860  12.998   4.873
38586W        W11654   6.094  39.530   1.876
38587W        W11655  34.690  30.779  11.421
38588W        W11656  25.516  40.300   1.829
38589W        W11657  39.733   8.170   1.683
38590W        W11658  10.644  38.799   4.914
38591W        W11659   7.139  22.561   1.404
38592W        W11660  12.124  39.456  14.909
38593W        W11661  38.161  39.813   3.506
38594W        W11662   6.226  22.715  11.441
38595W        W11663   4.370  36.343   3.453
38596W        W11664  32.465   7.209   2.419
38597W        W11665  11.287   0.171  11.450
38598W        W11666   2.851  42.394  14.807
38599W        W11667  26.100  42.769   0.778
38600W        W11668  10.553  33.412  14.478
38601W        W11669  37.926  36.359  14.446
38602W        W11670  18.652  37.358  11.532
38603W        W11671  43.913   9.603   2.199
38604W        W11672  21.483  44.216   2.206
38605W        W11673  11.699  38.525   0.420
38606W        W11674  16.703  17.735   1.731
38607W        W11675  11.856   5.193   3.140
38608W        W11676  18.962  41.296   3.751
38609W        W11677  18.353   8.574  13.560
38610W        W11678  29.001  35.056   0.299
38611W        W11679  34.575  28.333   3.524
38612W        W11680  26.550  21.093   2.361
38613W        W11681   8.910  11.123   4.067
38614W        W11682  29.032  34.077   0.477
38615W        W11683  23.343  18.661  10.751
38616W        W11684   4.141  32.913  11.016
38617W        W11685  14.399  20.671   2.204
38618W        W11686   7.269  19.745  12.449
38619W        W11687  21.113  25.168   1.801
38620W        W11688   3.688   5.749   4.466
38621W        W11689  25.515  24.569   3.991
38622W        W11690  12.450  27.964   0.402
38623W        W11691  23.479  12.173  12.052
38624W        W11692  17.065  42.420  12.231
38625W        W11693  37.894  31.813   0.053
38626W        W11694  44.492  44.940  13.551
38627W        W11695  44.018  13.320   1.519
38628W        W11696  25.745  33.927   0.275
38629W        W11697  32.915  10.193   3.651
38630W        W11698  44.907   1.709   3.157
38631W        W11699  28.619  20.559   3.402
38632W        W11700   7.788  19.819   1.274
38633W        W11701  19.401   4.699  13.837
38634W        W11702  21.599  23.208   1.009
38635W        W11703  29.862  10.540   0.603
38636W        W11704  12.611   4.799   2.713
38637W        W11705  23.351  36.504   1.941
38638W        W11706  21.390   7.613  14.460
38639W        W11707  16.106   6.362  11.328
38640W        W11708  42.951  30.522  11.940
38641W        W11709  28.557   4.881   1.783
38642W        W11710  26.934  11.400  13.357
38643W        W11711  32.999  19.834   2.368
38644W        W11712  21.922  19.396   1.336
38645W        W11713  20.827  27.236   3.703
38646W        W11714  39.272  41.490  12.628
38647W        W11715  37.493  12.985   0.332
38648W        W11716  43.345  18.746   4.825
38649W        W11717  31.513  17.778  10.426
38650W        W11718   5.949  27.683  14.340
38651W        W11719   4.015  44.606   0.412
38652W        W11720   8.069   9.689  11.989
38653W        W11721  18.129  32.555  10.878
38654W        W11722  20.530   6.861   4.899
38655W        W11723  23.219  18.826   1.325
38656W        W11724  25.949  24.731  11.172
38657W        W11725  33.519   4.748   4.029
38658W        W11726  15.354  40.421   2.314
38659W        W11727  35.664   0.372  14.868
38660W        W11728  44.217  12.436   1.879
38661W        W11729  12.585  38.348   0.356
38662W        W11730  33.679  25.705  14.808
38663W        W11731  12.300  31.285  13.529
38664W        W11732  22.942  12.694   2.708
38665W        W11733  31.450  12.695   4.848
38666W        W11734   7.804  37.918  10.632
38667W        W11735  25.247  39.609  11.071
38668W        W11736   3.876  24.691   4.844
38669W        W11737  22.774  32.743  13.538
38670W        W11738   3.164  14.889   3.386
38671W        W11739  36.984   1.664   0.477
38672W        W11740  44.737  43.019  11.516
38673W        W11741  29.770   1.757  11.695
38674W        W11742  10.739  14.959  12.941
38675W        W11743  33.296  22.919  11.990
38676W        W11744  41.875   2.827  13.857
38677W        W11745   8.237   2.769  10.480
38678W        W11746  41.291   4.829   2.736
38679W        W11747  38.928  36.642   4.176
38680W        W11748  13.721   6.374   1.269
38681W        W11749  39.747   6.427  12.493
38682W        W11750  18.296  26.896   4.033
38683W        W11751  17.207   6.297   3.322
38684W        W11752  39.123  37.741   2.604
38685W        W11753  23.042  37.860   1.755
38686W        W11754  18.323  26.473   2.706
38687W        W11755   3.272   1.399  11.069
38688W        W11756  38.508  35.982   0.503
38689W        W11757  10.076  22.486  13.425
38690W        W11758  44.275   6.947   3.327
38691W        W11759   2.901   7.662  11.740
38692W        W11760  38.522  23.047  13.282
38693W        W11761   0.802  27.662   4.739
38694W        W11762  39.410  39.418   4.098
38695W        W11763  38.622  24.853  11.370
38696W        W11764  36.476  10.336  12.657
38697W        W11765   6.061  20.502  11.531
38698W        W11766   3.725  24.171   0.269
38699W        W11767  39.002  18.200   3.799
38700W        W11768  43.734  23.000  13.023
38701W        W11769  32.526  14.342   1.725
38702W        W11770  29.947  11.074   0.017
38703W        W11771  33.888  29.467  10.687
38704W        W11772   3.890  40.387  10.331
38705W        W11773  22.208  18.486  11.524
38706W        W11774  39.475  23.270  13.318
38707W        W11775  36.870  34.501   3.477
38708W        W11776  33.603  38.476   1.795
38709W        W11777  37.963  30.782   5.403
38710W        W11778  38.511  12.640   4.817
38711W        W11779  36.254  37.496   4.709
38712W        W11780  43.057  38.100   0.549
38713W        W11781  28.553  13.868  13.461
38714W        W11782  25.749  37.319   1.098
38715W        W11783   6.210  32.320   4.933
38716W        W11784  14.787  37.544  10.835
38717W        W11785  44.532  38.974  11.515
38718W        W11786  24.114   3.352  10.695
38719W        W11787  23.674  25.923   1.672
38720W        W11788  11.214   0.043   0.067
38721W        W11789   0.496  44.891   1.373
38722W        W11790  33.550   8.153   3.096
38723W        W11791  28.450  36.616  11.443
38724W        W11792  23.148  17.614  11.136
38725W        W11793   7.194  43.864  10.688
38726W        W11794  23.700   4.399  13.297
38727W        W11795  35.729  11.881  11.949
38728W        W11796   5.280  18.077  12.801
38729W        W11797   7.426  21.490   2.784
38730W        W11798  42.228   0.433   1.077
38731W        W11799  36.626  18.346  10.067
38732W        W11800  30.657  33.829   0.956
38733W        W11801  27.500  13.244  12.072
38734W        W11802  18.746  43.996  11.368
38735W        W11803  17.184  41.037  12.357
38736W        W11804  36.705   1.877   3.656
38737W        W11805  34.983  19.165   4.708
38738W        W11806  31.877  18.560  14.316
38739W        W11807  42.164   2.462   2.320
38740W        W11808  11.801  36.443  10.599
38741W        W11809  25.011  19.219   3.615
38742W        W11810  32.576  15.802   1.033
38743W        W11811  13.169  20.737   2.360
38744W        W11812  14.533  24.512  12.041
38745W        W11813  41.129  29.424  10.739
38746W        W11814   9.701  29.182  11.929
38747W        W11815  43.848   5.440   1.253
38748W        W11816  12.534  15.651   2.606
38749W        W11817  41.042   7.580   3.823
38750W        W11818  36.762   9.181  13.974
38751W        W11819   1.941   4.295   3.644
38752W        W11820  12.253  33.408   3.709
38753W        W11821  10.659  18.501  13.940
38754W        W11822  28.168  44.500  12.183
38755W        W11823   6.184   5.719   3.728
38756W        W11824  23.182  43.441   3.101
38757W        W11825  24.090   6.185  14.481
38758W        W11826  26.551  30.683   2.265
38759W        W11827  11.854  16.618  12.817
38760W        W11828   6.794  38.567   0.900
38761W        W11829  12.851  10.674   3.714
38762W        W11830  15.072  10.484  10.552
38763W        W11831  35.721  10.553   4.266
38764W        W11832  32.446  14.782  11.601
38765W        W11833  34.855  33.512   1.285
38766W        W11834  27.573  35.452   1.786
38767W        W11835  10.810  12.570   4.921
38768W        W11836  13.618  41.863  12.877
38769W        W11837  24.532  30.220   1.822
38770W        W11838  36.350  31.201   0.368
38771W        W11839  44.892  39.779  13.446
38772W        W11840  33.191  34.977  12.844
38773W        W11841   2.719   7.594   3.741
38774W        W11842  12.586   4.560   1.831
38775W        W11843  42.239   8.897   4.482
38776W        W11844  32.640  27.515  12.324
38777W        W11845   3.286  37.426   5.081
38778W        W11846  38.909  10.425   3.586
38779W        W11847  43.946   2.827   1.302
38780W        W11848   8.233  21.719  14.916
38781W        W11849  32.027   4.686  12.943
38782W        W11850  17.804  27.677   3.879
38783W        W11851  25.023  14.591  11.057
38784W        W11852  30.408  42.806   2.551
38785W        W11853  23.038  30.119  14.319
38786W        W11854  41.732  34.084  13.962
38787W        W11855  31.342  12.866   0.719
38788W        W11856  13.772  12.169   1.729
38789W        W11857  10.705   8.405  11.374
38790W        W11858   0.497   5.947   2.712
38791W        W11859  11.325   5.802  12.016
38792W        W11860  19.183  19.573  13.477
38793W        W11861  27.538  44.457  13.358
38794W        W11862  30.092  33.392   4.287
38795W        W11863   2.267  31.147  11.581
38796W        W11864   9.825  42.102   3.299
38797W        W11865  19.574  34.860   1.317
38798W        W11866   1.498   5.697   1.815
38799W        W11867   7.569  20.205   3.612
38800W        W11868  24.109  18.750   1.843
38801W        W11869  21.136  31.665   3.265
38802W        W11870  30.132  43.884  12.441
38803W        W11871  26.134  31.287  12.355
38804W        W11872  16.530   2.463   0.197
38805W        W11873  13.379  26.662  13.693
38806W        W11874   9.340  32.085   4.582
38807W        W11875  30.701  22.268  13.468
38808W        W11876   6.787   3.718  11.799
38809W        W11877  35.391  44.820  12.104
38810W        W11878  11.673   1.239  11.936
38811W        W11879  14.688   3.862   4.485
38812W        W11880  10.967  11.616  14.054
38813W        W11881   8.890  27.076   3.618
38814W        W11882  24.233  24.703   3.657
38815W        W11883   2.075   6.001  11.145
38816W        W11884  24.306  18.177  14.602
38817W        W11885  18.022  30.111   0.032
38818W        W11886   6.868   1.969   3.289
38819W        W11887  22.790  16.167  11.646
38820W        W11888  32.098  14.860   3.075
38821W        W11889  12.322  10.716   3.094
38822W        W11890  27.191  34.059  13.718
38823W        W11891  42.817  37.891  14.103
38824W        W11892  14.245  25.082   4.191
38825W        W11893  17.752  26.457  12.142
38826W        W11894  44.379  19.726   4.515
38827W        W11895  36.084   5.274   3.755
38828W        W11896   5.016  41.930   1.448
38829W        W11897   3.421   8.742   2.422
38830W        W11898  31.358  37.991  14.446
38831W        W11899   4.304  31.048   0.868
38832W        W11900  37.020   7.749   3.695
38833W        W11901  28.197  37.301  14.823
38834W        W11902  26.728  41.697  11.642
38835W        W11903  18.167   0.933   0.231
38836W        W11904   6.877   5.385  14.866
38837W        W11905  14.141   1.383  14.355
38838W        W11906  18.962  17.587   4.552
38839W        W11907  40.259  15.116  14.409
38840W        W11908  33.426   7.568  14.780
38841W        W11909  18.823  18.522   5.069
38842W        W11910  17.703   0.458   0.238
38843W        W11911   2.452  20.910   2.278
38844W        W11912   6.779  43.564  11.071
38845W        W11913  37.966  38.413  13.270
38846W        W11914   2.223  44.014   1.421
38847W        W11915  33.566  13.231   0.260
38848W        W11916   7.282  13.846  12.839
38849W        W11917  37.723  19.623  12.614
38850W        W11918  29.759   7.859  13.732
38851W        W11919   2.323  26.628  14.477
38852W        W11920   3.734   0.198  13.628
38853W        W11921   7.460  17.051   3.739
38854W        W11922  22.466   0.296   0.519
38855W        W11923  26.497  40.365  10.480
38856W        W11924   5.763  35.314   1.878
38857W        W11925  18.170  41.098  14.400
38858W        W11926   1.216  39.851  14.937
38859W        W11927  26.625  22.124   4.605
38860W        W11928  44.200   2.387   4.177
38861W        W11929  29.993   6.804   1.736
38862W        W11930  30.438  24.617  14.906
38863W        W11931  37.036  23.856   1.486
38864W        W11932  42.529  42.491   2.187
38865W        W11933   9.632  35.893  11.178
38866W        W11934  41.379   8.461   2.769
38867W        W11935  28.140  14.102  10.546
38868W        W11936  35.048   6.841  10.918
38869W        W11937   4.187   1.717  11.211
38870W        W11938  12.841  22.307  13.893
38871W        W11939   9.352   3.488  13.368
38872W        W11940  23.204   8.054   3.409
38873W        W11941   2.173  16.209  11.437
38874W        W11942   7.269  13.323  12.381
38875W        W11943  20.986   1.802  14.823
38876W        W11944  23.082  12.262   2.965
38877W        W11945  22.752   1.535  13.360
38878W        W11946   7.305  20.708   4.306
38879W        W11947  11.853   3.466  12.401
38880W        W11948  32.184  16.296   1.961
38881W        W11949  44.039  42.855   4.162
38882W        W11950  37.837  17.261  14.368
38883W        W11951   5.246  22.875   3.721
38884W        W11952  43.353  12.293   0.181
38885W        W11953  31.582  16.647  12.591
38886W        W11954   4.832  44.893  13.586
38887W        W11955  15.727  28.223  13.443
38888W        W11956  23.630  37.332   3.867
38889W        W11957  20.649  18.717   3.385
38890W        W11958   7.058  21.215   4.954
38891W        W11959  34.838   8.145   3.254
38892W        W11960  31.118  36.381  13.943
38893W        W11961   6.164   0.699  13.494
38894W        W11962  17.286  13.872   4.712
38895W        W11963   4.189  26.947  12.370
38896W        W11964  32.561  16.560  11.897
38897W        W11965   4.879  27.600   4.379
38898W        W11966  12.319  39.603   2.842
38899W        W11967  10.308   9.717   4.648
38900W        W11968   3.902  16.212  13.019
38901W        W11969  27.142  30.696  12.486
38902W        W11970  29.103   7.472   2.453
38903W        W11971  37.259  37.624   3.712
38904W        W11972   3.026  29.079   0.318
38905W        W11973  26.264  33.484   3.167
38906W        W11974  18.262  11.558   2.828
38907W        W11975   1.880   2.807  14.688
38908W        W11976  34.752   5.122  13.877
38909W        W11977   5.223  24.538  10.438
38910W        W11978  32.812   1.907   1.933
38911W        W11979   4.626  17.971  10.427
38912W        W11980  11.550   3.348  12.869
38913W        W11981  28.160   7.018   4.236
38914W        W11982  44.360  37.856   2.128
38915W        W11983  30.485  43.955  11.513
38916W        W11984  27.185  14.145   3.270
38917W        W11985  39.471  24.201   0.037
38918W        W11986  25.002   3.396   0.751
38919W        W11987  24.310  26.766  12.929
38920W        W11988  24.918   0.432   3.608
38921W        W11989   1.000   2.168   0.376
38922W        W11990  30.633  13.944   4.012
38923W        W11991  41.305  24.589   3.656
38924W        W11992   6.888   4.491  10.664
38925W        W11993  39.814   0.233  13.877
38926W        W11994   0.696  29.948   2.308
38927W        W11995   2.911  32.956   2.395
38928W        W11996  38.845  26.569  14.379
38929W        W11997  43.575  29.459  13.427
38930W        W11998  33.299  11.852  12.097
38931W        W11999   3.679  20.414  10.496
38932W        W12000  39.855  41.810   0.391
38933W        W12001   2.735  36.603   3.456
38934W        W12002   3.375  28.667   3.294
38935W        W12003  37.043   0.797  13.325
38936W        W12004  43.029  41.306  13.418
38937W        W12005  26.102  32.415  10.607
38938W        W12006  42.068  13.735   2.429
38939W        W12007  13.071  15.684   0.450
38940W        W12008  10.310  42.753   1.854
38941W        W12009  31.791  28.038   2.729
38942W        W12010  37.825  10.487  14.690
38943W        W12011  34.687  11.733   2.835
38944W        W12012  15.140  25.729  14.256
38945W        W12013   0.561   9.594   0.429
38946W        W12014  22.713  14.035  14.602
38947W        W12015  19.744  20.336  13.428
38948W        W12016  31.913  39.987   3.676
38949W        W12017  11.713   2.269   0.261
38950W        W12018  30.021  34.663  14.479
38951W        W12019  30.047  10.450   1.342
38952W        W12020  10.640  18.869  13.151
38953W        W12021  36.092  34.112   4.553
38954W        W12022  10.601  23.154  14.240
38955W        W12023   5.193  33.484   2.788
38956W        W12024   9.621  27.037  13.798
38957W        W12025  32.214   8.127  11.303
38958W        W12026   3.084  24.650  13.828
38959W        W12027  28.427  21.643   0.425
38960W        W12028  27.550  42.019  13.750
38961W        W12029  36.357  26.439   4.607
38962W        W12030   3.805  10.470  14.311
38963W        W12031  40.565  30.705   3.522
38964W        W12032  41.100  22.654   3.799
38965W        W12033  11.527  39.093   3.235
38966W        W12034  16.644  38.105  14.979
38967W        W12035   3.568  37.870  14.423
38968W        W12036  13.687   5.441  12.018
38969W        W12037  33.213  44.366   2.776
38970W        W12038  41.913  39.875   0.906
38971W        W12039  11.478   4.418   0.394
38972W        W12040  40.434  22.658   2.582
38973W        W12041  11.309  26.897   3.180
38974W        W12042  33.092  24.089  11.695
38975W        W12043  28.634  32.992  14.399
38976W        W12044  27.609  20.055   1.284
38977W        W12045  41.012  14.717  12.480
38978W        W12046  30.927  32.041  11.053
38979W        W12047  30.142  39.897  12.106
38980W        W12048  33.032   4.755  10.432
38981W        W12049  21.311  36.949   4.554
38982W        W12050  38.111  34.567  12.402
38983W        W12051  37.869  10.721   0.465
38984W        W12052  21.766  23.697   2.812
38985W        W12053  17.792  13.853  11.074
38986W        W12054  33.030   1.870   0.757
38987W        W12055  39.532  11.719   1.219
38988W        W12056  30.776   6.681  12.943
38989W        W12057  39.495  32.615  10.849
38990W        W12058  30.622   9.766  13.304
38991W        W12059   5.626  28.766  13.242
38992W        W12060   1.748   5.868   4.504
38993W        W12061  22.075  39.694  13.608
38994W        W12062  10.805  17.693   2.781
38995W        W12063  10.346  17.204   4.988
38996W        W12064  15.091  40.361  12.532
38997W        W12065   8.651  36.930   4.935
38998W        W12066  19.080  32.462  10.907
38999W        W12067   4.743  24.003   2.421
39000W        W12068  30.296  20.735   4.140
39001W        W12069   5.382  20.978  12.360
39002W        W12070   2.728  17.702   0.874
39003W        W12071   2.920  14.550  12.728
39004W        W12072  20.248  40.619   0.504
39005W        W12073  39.113  12.394  11.887
39006W        W12074  29.540  25.405  10.349
39007W        W12075  19.836  34.549   4.586
39008W        W12076  43.562  39.101  11.127
39009W        W12077  39.802   3.205  14.803
39010W        W12078  36.248  30.798  11.547
39011W        W12079  29.471  10.102  11.912
39012W        W12080   5.150  41.535   4.710
39013W        W12081  33.227  16.719  13.637
39014W        W12082  15.392  33.478  12.382
39015W        W12083   7.594  44.504  14.844
39016W        W12084  16.867   3.876  12.375
39017W        W12085  10.733  27.344  12.035
39018W        W12086  27.650  13.143   1.281
39019W        W12087  14.189   4.789  13.479
39020W        W12088   3.984   4.552  11.569
39021W        W12089  23.281  43.933   4.952
39022W        W12090  41.770   1.882   1.326
39023W        W12091  26.028  16.265  14.267
39024W        W12092  28.028  36.780  12.066
39025W        W12093  24.279  20.722  10.908
39026W        W12094  40.516   3.951   0.837
39027W        W12095  27.507  41.094   0.769
39028W        W12096  34.189  10.245  13.415
39029W        W12097  20.142  38.960  13.922
39030W        W12098  37.316   8.332   3.629
39031W        W12099  19.942   1.786  14.930
39032W        W12100  17.033  12.718  12.150
39033W        W12101  26.520  38.089  13.844
39034W        W12102  37.504  39.501   1.707
39035W        W12103  20.161  31.479   0.759
39036W        W12104  11.277  20.058  11.480
39037W        W12105   5.310  13.813   3.422
39038W        W12106  25.534  30.442  13.502
39039W        W12107  39.787  20.131  11.466
39040W        W12108  28.592  25.469  11.219
39041W        W12109  32.429  31.182   1.188
39042W        W12110  33.512   7.826   2.638
39043W        W12111  12.782  33.954  13.012
39044W        W12112   2.735  27.700   4.591
39045W        W12113   4.470  38.353  10.689
39046W        W12114   1.000  27.452  11.578
39047W        W12115  43.171  13.190   3.732
39048W        W12116   2.321  16.711   2.208
39049W        W12117  24.423  33.889  13.728
39050W        W12118  27.999  17.119   1.982
39051W        W12119   3.513  33.139   0.846
39052W        W12120  26.981  40.700  12.144
39053W        W12121  41.235  23.669   0.861
39054W        W12122  19.170  38.574  14.875
39055W        W12123  36.847  40.945   4.211
39056W        W12124  18.061  17.540   2.786
39057W        W12125  35.669   1.902   2.681
39058W        W12126  26.545  42.333   0.659
39059W        W12127  24.137  20.041   2.364
39060W        W12128   1.224   1.865   4.567
39061W        W12129  28.005  13.079   2.612
39062W        W12130  10.859  26.084  12.613
39063W        W12131  15.748  43.892  14.338
39064W        W12132  19.710   0.375   0.463
39065W        W12133   7.682   6.608  13.423
39066W        W12134  24.432  38.811   4.278
39067W        W12135   2.413  37.966   4.852
39068W        W12136  42.948   0.042   2.735
39069W        W12137  43.482  44.437  13.803
39070W        W12138   1.513  36.148   1.476
39071W        W12139  19.310  22.746  11.155
39072W        W12140  12.357   4.309  10.685
39073W        W12141  32.668  24.056   0.842
39074W        W12142  27.178   8.350   1.340
39075W        W12143  23.116  14.699  13.037
39076W        W12144  37.959  29.956  11.004
39077W        W12145  34.373  14.326  13.767
39078W        W12146  32.513  23.609  12.904
39079W        W12147  12.969  44.734   0.553
39080W        W12148  13.401  30.950   1.370
39081W        W12149  26.049  10.700  12.144
39082W        W12150  17.771   4.938  10.359
39083W        W12151  39.020  32.952   3.283
39084W        W12152   5.375  11.572   2.795
39085W        W12153  42.176  33.371   3.560
39086W        W12154  40.107   1.177  11.141
39087W        W12155  27.117  36.597   3.714
39088W        W12156  40.348   0.817   2.574
39089W        W12157   0.552  44.521   3.454
39090W        W12158  32.069   9.877  14.781
39091W        W12159   1.355   8.440  11.664
39092W        W12160   4.323   3.952   0.552
39093W        W12161  42.889  37.442   4.774
39094W        W12162  38.616  44.190   1.465
39095W        W12163   5.949  34.580   4.212
39096W        W12164  39.386  42.477   0.978
39097W        W12165  27.648  13.761  11.128
39098W        W12166  32.429  21.688   4.136
39099W        W12167  18.600  27.959   9.884
39100W        W12168  33.811  19.395   3.188
39101W        W12169   4.792   7.403   4.231
39102W        W12170  34.808   1.810   3.391
39103W        W12171   4.304  42.931   4.334
39104W        W12172  37.993   5.346  12.886
39105W        W12173  44.482  12.675  11.145
39106W        W12174  31.560  33.824   0.487
39107W        W12175  23.689  44.722   1.191
39108W        W12176  39.743  27.140   3.502
39109W        W12177  39.018   1.294   2.670
39110W        W12178  18.241  33.373  14.059
39111W        W12179   4.881  12.076   1.444
39112W        W12180  29.928  26.958   4.724
39113W        W12181  26.082  23.961  14.239
39114W        W12182  28.122  16.018   4.180
39115W        W12183  26.543  41.522   4.590
39116W        W12184  28.936  33.666  11.345
39117W        W12185  28.071  44.015   2.593
39118W        W12186   8.323  31.365  14.786
39119W        W12187  30.540  27.997   3.207
39120W        W12188  37.844   5.872   1.765
39121W        W12189  36.695  39.685  11.464
39122W        W12190  12.298  27.525  14.675
39123W        W12191  25.791  13.258  10.870
39124W        W12192  18.494  43.483   3.080
39125W        W12193  35.201   7.377   0.857
39126W        W12194  16.015  15.366   5.055
39127W        W12195  33.414  16.341  11.398
39128W        W12196  38.768  31.078   4.479
39129W        W12197   9.528  19.750   4.535
39130W        W12198  42.862  12.431   1.733
39131W        W12199   2.217  15.706  11.177
39132W        W12200  40.040   6.895   2.681
39133W        W12201   8.469  32.498   2.718
39134W        W12202  42.492  41.887   2.772
39135W        W12203  38.030  31.338  14.261
39136W        W12204  44.457  38.499   2.726
39137W        W12205   1.783   1.504   0.334
39138W        W12206  28.548   8.325   2.831
39139W        W12207  25.777  12.064  10.568
39140W        W12208  39.839  15.650   4.986
39141W        W12209  11.903  12.705  13.595
39142W        W12210  30.049  16.303  14.025
39143W        W12211   1.305  40.714   2.856
39144W        W12212  14.906  12.349   2.728
39145W        W12213  42.514   7.739  10.629
39146W        W12214  25.710  38.624  11.434
39147W        W12215  25.922  36.387   0.739
39148W        W12216  35.699  36.980  14.962
39149W        W12217   8.607  30.498   2.822
39150W        W12218   2.867  31.372   4.714
39151W        W12219  32.355   7.232  13.934
39152W        W12220  37.904  32.088   5.088
39153W        W12221  17.208   4.677   1.346
39154W        W12222   0.254  33.354  14.358
39155W        W12223  21.472  24.733   3.833
39156W        W12224  41.935  24.631  13.836
39157W        W12225  36.814   3.211  14.734
39158W        W12226   9.193  23.434  12.819
39159W        W12227  25.142  18.217   0.989
39160W        W12228  36.906  11.277   3.612
39161W        W12229  31.921  16.626  14.930
39162W        W12230  38.532   8.313  12.470
39163W        W12231  41.201  15.108   2.205
39164W        W12232  39.005  23.194  13.496
39165W        W12233   3.256  16.977  10.800
39166W        W12234   5.412  41.853  14.125
39167W        W12235  25.533  26.456   1.771
39168W        W12236  37.774  11.697  14.293
39169W        W12237   8.748  41.540  14.753
39170W        W12238  38.996   2.694   0.875
39171W        W12239   5.925  29.222   0.236
39172W        W12240   2.210  17.262   3.672
39173W        W12241  12.402  38.487  11.148
39174W        W12242  22.360  19.046  12.685
39175W        W12243  36.525  29.878  10.644
39176W        W12244  10.417  42.108  10.036
39177W        W12245  16.015  37.455  13.396
39178W        W12246  15.580   2.021  10.197
39179W        W12247   5.329  40.547  10.806
39180W        W12248  21.041  39.976  11.106
39181W        W12249  44.692  24.782  13.898
39182W        W12250  40.994  33.366  10.978
39183W        W12251  37.089   1.941   3.331
39184W        W12252  37.511  11.680  13.822
39185W        W12253  32.382   8.333   0.189
39186W        W12254  11.795  22.012  11.558
39187W        W12255  30.424  13.485  10.626
39188W        W12256  27.732   4.797  10.931
39189W        W12257   4.258  29.004  11.537
39190W        W12258   2.332  39.343   0.387
39191W        W12259  41.362  44.834  13.037
39192W        W12260  41.295  25.416  14.953
39193W        W12261  39.866  36.385  10.666
39194W        W12262   9.299  32.731  14.341
39195W        W12263  18.214   0.380   0.287
39196W        W12264   6.488  17.201   1.012
39197W        W12265  42.531  11.813   0.027
39198W        W12266  23.736  26.661   2.195
39199W        W12267  13.296  29.455   2.094
39200W        W12268   3.236  35.454   0.365
39201W        W12269  31.898  41.471  14.101
39202W        W12270  32.653  16.101  14.712
39203W        W12271  35.156  21.041   2.797
39204W        W12272  22.344  27.591  13.551
39205W        W12273  16.811   9.671  10.859
39206W        W12274  17.041  43.880  13.686
39207W        W12275  32.155  30.033  13.993
39208W        W12276  28.210  41.483  12.098
39209W        W12277  30.043  24.887   0.706
39210W        W12278  40.806  20.759  13.431
39211W        W12279  42.028  22.125  13.982
39212W        W12280  28.888  14.117  11.134
39213W        W12281   9.908  30.822  14.274
39214W        W12282  26.039  40.681  12.197
39215W        W12283  28.743   0.300  12.695
39216W        W12284  12.667   4.968  14.500
39217W        W12285  42.669  29.559   3.677
39218W        W12286  23.502  33.121   2.786
39219W        W12287  41.934  37.362  14.983
39220W        W12288  12.342   3.124  13.981
39221W        W12289  12.185  24.557  13.877
39222W        W12290  20.042  18.156  12.392
39223W        W12291   4.897  37.597   1.591
39224W        W12292  39.318   6.852   1.317
39225W        W12293  37.002  36.869  12.412
39226W        W12294  40.298   8.298  10.292
39227W        W12295   0.766  19.296   2.227
39228W        W12296  41.040  34.880  14.446
39229W        W12297  42.861  11.007  14.572
39230W        W12298  36.964  26.087  14.547
39231W        W12299  26.736  13.857   0.791
39232W        W12300  39.089   2.191  14.395
39233W        W12301  12.563  31.634  13.857
39234W        W12302  32.034   1.250  12.586
39235W        W12303  24.298  32.626   2.310
39236W        W12304  40.437  41.770   1.000
39237W        W12305  22.523  10.787  11.617
39238W        W12306  43.900  16.739   4.801
39239W        W12307  23.025  30.632  14.211
39240W        W12308  17.192  37.484  12.006
39241W        W12309  35.125  43.525  11.412
39242W        W12310   4.853   5.165  12.349
39243W        W12311  18.749   5.816  11.614
39244W        W12312  20.556  34.973  14.969
39245W        W12313  42.017  40.198  13.442
39246W        W12314  23.418   7.156   3.299
39247W        W12315  16.580  37.825   0.448
39248W        W12316  24.016  18.984   4.108
39249W        W12317  25.099   8.726   2.328
39250W        W12318  11.863   5.007   1.353
39251W        W12319  11.131  29.577  10.682
39252W        W12320  44.250  29.492   2.668
39253W        W12321  23.989   1.276  13.619
39254W        W12322  33.129  15.552  14.322
39255W        W12323   2.927  42.471   4.852
39256W        W12324  14.564  28.182  13.679
39257W        W12325  22.970  15.207  13.878
39258W        W12326  11.182  43.873   1.407
39259W        W12327  44.251  42.490  10.770
39260W        W12328  40.029  36.915   3.640
39261W        W12329  41.279  32.826   1.725
39262W        W12330  30.426  10.776  14.043
39263W        W12331  29.199  13.073  11.998
39264W        W12332   1.734  32.845  11.178
39265W        W12333  10.330  37.744   2.434
39266W        W12334   2.214  38.851  10.134
39267W        W12335  41.387  28.189   4.890
39268W        W12336  33.882   2.864   1.979
39269W        W12337  16.320  43.755  11.193
39270W        W12338   3.207  19.419  11.395
39271W        W12339  15.362   2.685   1.706
39272W        W12340  14.447  25.585   4.207
39273W        W12341  15.767   5.836  14.255
39274W        W12342  39.316  23.711   0.258
39275W        W12343  13.545   8.142   3.761
39276W        W12344  34.623  26.721  13.626
39277W        W12345  20.996  33.989   4.082
39278W        W12346  39.496   2.520  11.442
39279W        W12347  41.894  33.494  10.740
39280W        W12348  20.172  22.745  12.297
39281W        W12349  39.267   9.505   0.662
39282W        W12350  28.902  26.883   4.188
39283W        W12351  33.533  19.657   0.287
39284W        W12352  18.680  34.753   3.732
39285W        W12353  18.277   4.906   2.053
39286W        W12354  25.418  15.146   4.957
39287W        W12355  26.046  27.576  14.095
39288W        W12356  37.942  31.387  12.039
39289W        W12357  10.881   8.914   2.708
39290W        W12358   3.514  26.615   4.728
39291W        W12359  12.822  37.673  13.537
39292W        W12360   0.532  34.110  12.397
39293W        W12361  30.077  26.721  10.654
39294W        W12362  26.852  15.631   1.721
39295W        W12363  19.938   8.640   0.191
39296W        W12364  28.693  11.199   0.751
39297W        W12365   3.743   9.757  14.202
39298W        W12366  10.320  26.265  11.911
39299W        W12367  18.173  18.559   1.455
39300W        W12368  30.589  12.194   3.640
39301W        W12369  37.892  43.380  12.401
39302W        W12370  35.847   0.091  14.272
39303W        W12371  40.808  32.006  14.288
39304W        W12372  42.705  15.654   4.434
39305W        W12373   1.171  30.068   4.400
39306W        W12374  39.092  21.935   4.157
39307W        W12375  34.651   2.434   2.753
39308W        W12376  15.725  26.065   2.284
39309W        W12377  16.234   4.899   2.601
39310W        W12378  12.616  38.046   2.222
39311W        W12379  18.687  11.758   1.252
39312W        W12380  40.862  10.815  12.637
39313W        W12381   5.260   8.202   2.861
39314W        W12382  23.637  36.122   0.320
39315W        W12383  29.837  11.632   4.094
39316W        W12384   2.301   6.811  10.543
39317W        W12385   0.392   4.473  12.706
39318W        W12386  19.216  21.154   0.537
39319W        W12387   4.447  37.304   2.303
39320W        W12388   9.658  27.415   4.176
39321W        W12389   8.837  15.976   4.263
39322W        W12390  33.290  15.064  11.410
39323W        W12391  13.596  23.963  11.675
39324W        W12392  25.803  10.836   1.339
39325W        W12393  18.634  39.635   4.097
39326W        W12394  38.992  22.257  10.166
39327W        W12395  15.553  31.565   3.242
39328W        W12396  41.894   4.907   4.511
39329W        W12397   7.036  43.762   1.762
39330W        W12398  33.973  26.404   4.278
39331W        W12399  15.639   7.857  14.040
39332W        W12400   4.960   2.473   2.673
39333W        W12401   0.908  29.646  13.894
39334W        W12402   7.948  12.717  10.975
39335W        W12403  17.079   7.086   0.913
39336W        W12404  44.206  22.588   2.816
39337W        W12405  27.746  43.707   3.434
39338W        W12406  33.592  35.999  12.508
39339W        W12407   2.788  12.540  13.901
39340W        W12408  14.625  36.108   2.400
39341W        W12409   9.786  37.131  11.896
39342W        W12410  18.171  36.380  14.107
39343W        W12411  29.064  13.296   1.276
39344W        W12412  44.818  13.925  12.983
39345W        W12413   3.328  29.585  11.204
39346W        W12414   7.323  28.416  11.099
39347W        W12415   7.378   2.448  12.886
39348W        W12416  26.595  12.941   9.779
39349W        W12417  39.387  19.979   1.883
39350W        W12418   6.459   0.467   3.391
39351W        W12419   7.763  27.625  12.840
39352W        W12420  34.905  40.763  14.101
39353W        W12421  10.469  41.346  13.802
39354W        W12422  11.716  27.012   0.819
39355W        W12423  28.687  38.484   0.150
39356W        W12424  43.888  29.334   0.315
39357W        W12425  39.660  24.061  11.105
39358W        W12426  32.430   0.717  14.502
39359W        W12427  12.166   3.762   4.091
39360W        W12428  25.269  31.421   2.382
39361W        W12429  43.616  27.111   0.888
39362W        W12430  15.838  28.645  11.531
39363W        W12431  32.998  15.729   0.683
39364W        W12432   8.345  22.351   1.134
39365W        W12433  33.446  13.283   4.194
39366W        W12434  37.450   3.716   2.148
39367W        W12435   2.147  19.715   3.610
39368W        W12436  42.433  39.826  13.386
39369W        W12437  40.876   8.829   3.932
39370W        W12438  28.154  41.392  11.164
39371W        W12439   3.086  17.376   0.297
39372W        W12440  15.148  21.743   0.005
39373W        W12441   3.857  27.025  11.669
39374W        W12442  19.022  29.989   4.122
39375W        W12443  30.539  27.054   1.942
39376W        W12444   5.722  21.712  13.468
39377W        W12445  10.241  10.673  12.838
39378W        W12446   4.834  21.042  13.388
39379W        W12447  15.521  35.407   1.632
39380W        W12448  13.195  39.915  11.943
39381W        W12449  11.423  37.494  11.565
39382W        W12450   4.682  20.521  10.553
39383W        W12451  20.171  26.929   0.422
39384W        W12452  21.753  42.990  10.567
39385W        W12453  34.087   0.940   1.420
39386W        W12454  40.736  36.345  12.644
39387W        W12455  43.567   8.699  12.114
39388W        W12456  29.983  38.089  10.750
39389W        W12457  30.927  41.329  10.733
39390W        W12458  29.196   1.978  11.569
39391W        W12459  32.924   4.891  14.352
39392W        W12460   5.911  30.150   0.702
39393W        W12461  27.475  28.949   1.284
39394W        W12462  34.415  16.247  14.073
39395W        W12463  22.615  26.777   3.596
39396W        W12464  37.445  38.545   0.324
39397W        W12465  39.519  23.757  12.446
39398W        W12466  19.447   6.260  14.394
39399W        W12467  19.006  16.593  11.114
39400W        W12468  26.271  23.607   2.013
39401W        W12469  12.166   0.206  13.302
39402W        W12470   8.834  11.315  14.784
39403W        W12471   1.477  13.157   1.320
39404W        W12472  32.664  15.739   4.570
39405W        W12473  24.644  33.047   3.750
39406W        W12474  22.866  26.703   2.531
39407W        W12475  35.047  23.139   4.395
39408W        W12476  32.947  18.869   1.340
39409W        W12477  41.505  11.462   2.801
39410W        W12478  12.292   0.179  11.656
39411W        W12479  11.301  18.113   0.854
39412W        W12480  12.579  16.166  13.027
39413W        W12481  37.870  38.011   4.396
39414W        W12482  41.585   9.725  12.787
39415W        W12483  36.763   7.714  14.432
39416W        W12484  15.635  39.363   0.449
39417W        W12485   5.987  42.375  13.397
39418W        W12486  14.298  44.326  14.517
39419W        W12487  37.132   5.707  12.193
39420W        W12488  35.534  34.763   2.309
39421W        W12489  23.369  11.675   0.323
39422W        W12490   1.291  43.499  12.338
39423W        W12491   8.669   1.010   2.816
39424W        W12492  35.020   3.713  11.678
39425W        W12493  23.732  33.870   1.131
39426W        W12494  11.260  44.882   3.138
39427W        W12495  44.657   2.777   4.206
39428W        W12496  41.525  10.681  14.200
39429W        W12497  16.430  14.455   4.676
39430W        W12498  15.707  36.128  13.478
39431W        W12499   8.269  20.687   0.311
39432W        W12500  15.127  43.802  14.955
39433W        W12501   6.618  27.054  14.488
39434W        W12502  31.280  20.589  13.428
39435W        W12503  37.888   9.205   1.405
39436W        W12504  16.080   5.952  12.528
39437W        W12505  14.767  22.175   2.644
39438W        W12506  11.369  13.416  11.676
39439W        W12507  23.555  44.053  10.633
39440W        W12508   2.794  12.269   4.076
39441W        W12509  43.323  10.955  10.684
39442W        W12510   8.612  22.739  11.582
39443W        W12511  35.863   0.409   3.902
39444W        W12512  34.575  16.871  13.247
39445W        W12513  28.609  13.334  14.285
39446W        W12514  29.399  21.987   1.641
39447W        W12515  29.985  42.945  11.973
39448W        W12516  20.041  24.008   0.966
39449W        W12517  20.317  25.156   0.353
39450W        W12518  29.487  33.915   2.744
39451W        W12519  16.618  39.403   0.317
39452W        W12520   0.821  12.403  12.443
39453W        W12521  28.039  19.444   9.954
39454W        W12522  14.548  43.281  13.459
39455W        W12523  18.172  20.109   4.599
39456W        W12524  11.208  29.695  13.099
39457W        W12525  36.502  18.091  14.841
39458W        W12526   1.763  43.812  14.790
39459W        W12527  29.162   4.681  12.873
39460W        W12528   2.721   1.901  12.642
39461W        W12529   6.756  33.009   0.300
39462W        W12530  14.220  13.793  12.394
39463W        W12531  24.157  16.691   3.651
39464W        W12532   2.420  37.429   3.473
39465W        W12533   6.278  28.703  10.450
39466W        W12534  19.570  41.382   1.700
39467W        W12535   9.180   6.188   0.689
39468W        W12536  20.725   0.735   5.079
39469W        W12537  32.697  18.112  11.492
39470W        W12538  26.447   9.813  13.225
39471W        W12539   0.633  10.155   1.386
39472W        W12540  41.912  33.692  13.572
39473W        W12541   0.490  15.787  12.104
39474W        W12542  44.479  44.944  11.720
39475W        W12543  36.495  38.006  11.110
39476W        W12544  29.856   1.045   2.372
39477W        W12545  15.179  32.797   4.553
39478W        W12546   2.350  31.639  11.663
39479W        W12547  37.859  17.281   1.980
39480W        W12548  34.637  29.604   1.988
39481W        W12549  15.784  17.706   3.679
39482W        W12550  35.357  28.539   2.754
39483W        W12551  12.140  42.494   0.421
39484W        W12552  42.980   4.795   0.197
39485W        W12553  18.815  31.467   1.935
39486W        W12554   2.277  21.223   4.304
39487W        W12555  31.171   7.941  12.001
39488W        W12556   7.663  13.867  11.434
39489W        W12557  19.716  44.357  10.237
39490W        W12558   3.682  43.705   2.673
39491W        W12559  17.679  14.257   2.183
39492W        W12560   9.469  14.325   3.082
39493W        W12561  32.503  11.875   1.706
39494W        W12562   8.013  16.194   3.631
39495W        W12563  29.717   7.502   4.633
39496W        W12564   3.962  33.508  13.540
39497W        W12565   5.391   4.383  11.635
39498W        W12566  11.756  16.613   4.284
39499W        W12567  16.329  12.512   2.674
39500W        W12568  32.945  13.177   0.934
39501W        W12569  35.378  37.774  13.989
39502W        W12570  40.425  21.283  13.763
39503W        W12571  25.019  26.271   0.340
39504W        W12572   4.886  18.646   0.197
39505W        W12573  31.215  10.394  14.007
39506W        W12574  19.983  38.837   3.053
39507W        W12575  24.104  25.953   2.354
39508W        W12576   7.161  31.186   0.153
39509W        W12577  38.849  12.828  11.963
39510W        W12578  25.897  33.884   3.358
39511W        W12579  16.598  37.477  10.760
39512W        W12580  29.561  23.565  11.193
39513W        W12581   7.463  41.773  10.658
39514W        W12582  44.769   3.485   1.746
39515W        W12583  14.660  13.309  11.187
39516W        W12584  26.258   4.593  10.178
39517W        W12585   1.475  40.863   1.886
39518W        W12586  33.470   5.438  13.342
39519W        W12587  37.010  19.007  14.945
39520W        W12588  16.212  13.396   3.188
39521W        W12589  32.037   2.395  14.933
39522W        W12590  23.676  11.235   4.775
39523W        W12591  27.079  40.236   4.793
39524W        W12592  14.809  22.844   1.684
39525W        W12593  14.836  10.325  14.236
39526W        W12594  37.554  37.944  14.833
39527W        W12595  22.696  32.112  14.784
39528W        W12596  35.962   2.030  12.472
39529W        W12597  43.795  15.820  12.547
39530W        W12598  18.251  33.601   4.815
39531W        W12599   0.288  27.474   3.742
39532W        W12600   8.199   0.679  14.116
39533W        W12601  16.576   5.733  12.381
39534W        W12602   8.231  31.215   3.163
39535W        W12603  25.064  12.576  10.631
39536W        W12604  31.207   7.241   2.082
39537W        W12605  31.081  26.375   1.883
39538W        W12606  32.975  16.261   0.576
39539W        W12607  41.807  40.729   0.319
39540W        W12608  39.895  27.388   1.375
39541W        W12609  15.037   7.959  12.379
39542W        W12610  14.724  35.999   4.578
39543W        W12611  39.236  11.789  10.488
39544W        W12612  32.173  30.992   3.774
39545W        W12613   8.224   6.006   0.806
39546W        W12614   9.703  25.417   3.934
39547W        W12615  44.036  38.992   0.762
39548W        W12616  13.311  20.237   4.958
39549W        W12617   4.202  18.338   1.386
39550W        W12618  23.444  38.012   5.570
39551W        W12619  34.079   0.485  11.101
39552W        W12620   3.806  25.723   2.390
39553W        W12621  43.184  28.816   0.441
39554W        W12622  39.000  25.298  12.930
39555W        W12623   5.255  26.182   2.203
39556W        W12624  24.185  31.605  10.707
39557W        W12625   4.380  19.670  13.867
39558W        W12626  38.919  40.810   0.001
39559W        W12627  24.084  36.627   4.238
39560W        W12628  12.092  28.201  12.911
39561W        W12629  10.431  33.066   0.978
39562W        W12630  18.242   7.618  12.110
39563W        W12631  18.007  39.000   2.228
39564W        W12632  16.169  37.111   0.164
39565W        W12633  32.481  13.651  10.481
39566W        W12634  30.592   4.302  13.275
39567W        W12635  38.504  26.438   2.409
39568W        W12636  34.985  18.147   1.763
39569W        W12637   3.253   7.294   1.987
39570W        W12638  34.806  15.606  12.026
39571W        W12639  21.224   1.688   2.734
39572W        W12640  33.958  39.591  10.723
39573W        W12641  22.003   1.247   3.823
39574W        W12642  38.878   4.334   3.309
39575W        W12643  29.492  33.907   0.321
39576W        W12644  37.624  13.207  11.353
39577W        W12645  21.735  41.212   4.077
39578W        W12646  28.043  18.701   0.920
39579W        W12647   4.688  40.358  14.095
39580W        W12648  31.391  10.228  11.327
39581W        W12649  14.123   0.743  11.280
39582W        W12650  20.221  20.737   2.767
39583W        W12651  17.507   3.178   0.576
39584W        W12652  25.209   2.228  13.791
39585W        W12653   9.435  44.771   4.901
39586W        W12654   3.747  28.867   2.422
39587W        W12655  37.571  39.968   0.403
39588W        W12656   7.784  34.900   0.739
39589W        W12657  28.203  38.012  13.470
39590W        W12658  42.062  43.392  11.590
39591W        W12659  24.138  30.605   3.700
39592W        W12660  30.906  33.062   1.444
39593W        W12661  31.533  11.887   3.709
39594W        W12662  15.287  38.339   0.375
39595W        W12663  27.131  31.024  12.940
39596W        W12664  32.996  15.039  14.396
39597W        W12665  13.135  44.929  10.771
39598W        W12666  21.216  38.920  14.477
39599W        W12667  16.861  37.106  10.517
39600W        W12668  15.185  29.504   2.302
39601W        W12669  22.532  34.049   0.068
39602W        W12670  31.143  30.573  14.333
39603W        W12671  20.762  12.833  13.579
39604W        W12672  23.751  18.540  11.065
39605W        W12673  27.607  28.334  14.452
39606W        W12674   0.008  18.271  13.462
39607W        W12675   2.385  37.567   0.825
39608W        W12676  35.197  19.626  11.316
39609W        W12677   4.884  43.235  10.692
39610W        W12678  32.671  23.753  13.658
39611W        W12679  25.629  44.533  14.878
39612W        W12680  23.795  41.813   4.878
39613W        W12681  27.458   0.050   4.530
39614W        W12682  18.163   8.174   2.485
39615W        W12683   6.484  16.124   3.663
39616W        W12684  40.566  12.683  13.980
39617W        W12685   9.709  27.243   0.018
39618W        W12686   5.842  11.624  12.077
39619W        W12687   9.247  42.145   5.007
39620W        W12688  31.570  31.877  13.442
39621W        W12689  30.557  10.640   1.343
39622W        W12690  32.970  37.747   3.673
39623W        W12691  15.067  14.823   0.497
39624W        W12692   4.502  36.935  12.000
39625W        W12693  42.360   0.555  13.008
39626W        W12694  32.130   0.492   1.440
39627W        W12695  13.169  12.184   3.640
39628W        W12696   7.413  11.477  12.842
39629W        W12697  30.219  39.454  14.054
39630W        W12698  10.566   5.695  13.856
39631W        W12699  34.394  10.191  12.197
39632W        W12700   1.331  13.492  14.035
39633W        W12701  15.841  26.527   1.326
39634W        W12702  21.000  44.010  11.016
39635W        W12703  42.086   1.774  12.585
39636W        W12704  35.063  34.356   0.723
39637W        W12705  39.354   0.335   4.099
39638W        W12706  43.161   4.461  14.837
39639W        W12707  34.714   6.667  12.960
39640W        W12708  20.523  29.393  12.910
39641W        W12709   1.541  26.639   2.222
39642W        W12710   8.267  20.717   4.573
39643W        W12711   0.538  23.832  14.972
39644W        W12712   0.299  41.007   4.650
39645W        W12713  44.751  10.163  11.155
39646W        W12714  21.323  28.964   3.731
39647W        W12715  28.224  27.551   2.692
39648W        W12716  30.105  19.683  14.407
39649W        W12717   6.743  31.956  12.340
39650W        W12718  40.092  12.699   3.857
39651W        W12719  21.531  42.010  12.412
39652W        W12720   7.504  41.249  12.632
39653W        W12721  30.058  31.926  11.613
39654W        W12722  14.035   5.513   4.103
39655W        W12723  28.213  27.520   4.395
39656W        W12724  30.234  14.736  14.311
39657W        W12725  12.229  31.833  12.759
39658W        W12726  27.901  25.062   1.735
39659W        W12727  12.524   1.806   3.079
39660W        W12728  24.177   3.820  11.156
39661W        W12729   8.149  32.636   0.286
39662W        W12730  13.280  23.443   3.616
39663W        W12731  24.157  38.350   3.153
39664W        W12732  43.390  15.048  12.430
39665W        W12733  25.377   5.455  11.223
39666W        W12734  12.089  16.168  12.829
39667W        W12735  14.059  44.448  13.545
39668W        W12736  44.446  43.088   2.886
39669W        W12737  38.547   7.677   4.039
39670W        W12738   4.495   4.345  12.933
39671W        W12739   6.645  24.183  12.971
39672W        W12740  39.938  22.447   2.782
39673W        W12741  20.029  24.395  12.617
39674W        W12742  20.759  10.591  12.922
39675W        W12743  11.830  25.196   4.266
39676W        W12744   3.818  36.123   1.693
39677W        W12745  20.229   0.120   1.282
39678W        W12746   7.033  15.157   4.217
39679W        W12747  39.874   0.505   1.970
39680W        W12748   0.335  30.465  10.684
39681W        W12749  11.825  42.212  14.400
39682W        W12750  38.145  31.055  13.832
39683W        W12751  21.267   0.362  11.416
39684W        W12752  14.111   8.118  12.557
39685W        W12753  21.586   2.886   4.249
39686W        W12754   6.936  15.352  10.815
39687W        W12755  25.383  13.201   4.532
39688W        W12756  17.585  41.309   4.286
39689W        W12757  42.319  29.099  11.017
39690W        W12758  11.116  40.416  12.173
39691W        W12759  24.567   2.386   0.750
39692W        W12760  43.813  22.533  13.829
39693W        W12761  35.104  35.012   0.561
39694W        W12762  44.023   7.925   0.181
39695W        W12763  41.081   8.833   2.472
39696W        W12764  34.907  32.667   3.603
39697W        W12765   7.372  15.740  12.072
39698W        W12766  17.778  42.000  12.119
39699W        W12767  24.169  29.003   1.835
39700W        W12768  19.938   6.730  14.035
39701W        W12769  34.356  36.135  11.227
39702W        W12770  32.056  35.284  10.581
39703W        W12771  25.028  41.779   3.234
39704W        W12772  22.237  38.893   0.400
39705W        W12773  11.819  34.504   1.195
39706W        W12774  31.433  30.946  13.584
39707W        W12775  21.196  37.857   1.177
39708W        W12776  20.558   5.525  12.719
39709W        W12777  22.254  27.322   0.216
39710W        W12778  17.548  39.329   2.895
39711W        W12779  13.223  44.824  14.606
39712W        W12780  29.311  31.406   3.324
39713W        W12781   7.470   5.778   2.153
39714W        W12782  40.819   9.493  13.947
39715W        W12783   0.992  30.918  13.584
39716W        W12784  25.188   3.930   1.540
39717W        W12785  41.018  43.439   3.786
39718W        W12786   3.838  40.539  11.692
39719W        W12787   6.189   2.888   2.606
39720W        W12788  40.366  23.260   4.605
39721W        W12789  13.260  12.710  10.220
39722W        W12790  36.659   5.412   2.620
39723W        W12791  41.777   6.599  11.147
39724W        W12792  21.821  32.649  13.515
39725W        W12793   2.447  10.927   3.862
39726W        W12794  35.082   6.202   2.270
39727W        W12795  44.055   7.698   0.635
39728W        W12796  39.691  40.026  12.910
39729W        W12797  39.047  20.679   3.581
39730W        W12798  37.121  15.572   2.965
39731W        W12799  12.256  20.726  14.833
39732W        W12800   3.081  30.701  14.074
39733W        W12801  26.126  28.606   3.676
39734W        W12802  24.801  17.798  13.863
39735W        W12803  22.163  17.086   4.874
39736W        W12804  27.943  35.307   1.396
39737W        W12805  35.981  14.755  12.101
39738W        W12806  20.726  21.773  14.040
39739W        W12807   5.644  19.848   1.848
39740W        W12808   9.121  14.700   4.653
39741W        W12809  40.455  22.751   4.550
39742W        W12810  33.691  10.170  13.513
39743W        W12811  12.334   1.544  11.113
39744W        W12812  10.646  13.602  12.112
39745W        W12813  31.136  16.863  13.810
39746W        W12814  39.359  16.807   0.378
39747W        W12815  42.921  36.157   3.725
39748W        W12816  39.473  44.479   1.453
39749W        W12817   2.854  38.141  14.008
39750W        W12818  21.000  23.064  12.454
39751W        W12819  34.107  33.896   4.662
39752W        W12820  32.624   2.260   4.636
39753W        W12821  18.976   0.511  14.868
39754W        W12822  24.242   0.435  13.920
39755W        W12823  35.358  37.319   3.900
39756W        W12824  11.718   8.704  12.029
39757W        W12825   8.085  36.014   3.551
39758W        W12826   0.272  32.066   4.944
39759W        W12827   5.397  35.974   2.958
39760W        W12828  36.472   3.293  10.022
39761W        W12829  35.362   6.500   1.436
39762W        W12830   4.948   3.171  13.896
39763W        W12831  18.692  32.601   0.163
39764W        W12832  10.086   5.835  14.051
39765W        W12833   9.604   7.810   4.688
39766W        W12834  12.691   9.901  11.437
39767W        W12835  43.046  12.657   2.328
39768W        W12836  11.204  36.773  13.807
39769W        W12837  34.920  41.720   3.595
39770W        W12838  32.478  37.826   3.813
39771W        W12839  20.201  31.432   1.690
39772W        W12840  14.861   9.979   3.946
39773W        W12841  23.224  26.453  11.611
39774W        W12842  33.347  16.610   4.128
39775W        W12843  41.731  20.800   3.625
39776W        W12844   0.474   3.529  10.599
39777W        W12845   7.589  21.497  13.744
39778W        W12846   6.850  17.964  14.902
39779W        W12847  33.221   6.291   3.104
39780W        W12848  43.313  33.415  12.463
39781W        W12849  19.088  10.150   2.952
39782W        W12850  10.742  27.514  12.539
39783W        W12851  33.600  41.246   1.548
39784W        W12852  28.111   3.346  10.132
39785W        W12853  32.735  39.930   3.250
39786W        W12854  12.543  20.504   0.898
39787W        W12855  29.869  35.941  11.637
39788W        W12856   9.252   8.137  11.267
39789W        W12857   8.001  12.831   0.671
39790W        W12858   3.112  39.643   3.030
39791W        W12859  27.953   7.316   1.727
39792W        W12860   3.519   8.301  14.013
39793W        W12861  25.483   8.387  12.947
39794W        W12862  19.744  30.199   0.945
39795W        W12863  33.417  35.038   3.603
39796W        W12864  40.995  27.285  12.436
39797W        W12865  31.737  40.739  11.039
39798W        W12866  41.746  35.137  12.408
39799W        W12867  19.583   6.838   4.567
39800W        W12868  25.766  38.363   3.143
39801W        W12869  22.684  15.742   0.931
39802W        W12870  23.499  25.662  11.864
39803W        W12871   6.753  10.989  10.615
39804W        W12872  23.675  14.795  12.092
39805W        W12873  14.203  39.116   3.532
39806W        W12874  40.824  28.000   1.106
39807W        W12875  28.154  11.349   1.339
39808W        W12876  16.106   1.806   1.259
39809W        W12877  41.606   4.303  11.491
39810W        W12878  36.738  11.237  13.941
39811W        W12879   0.890   6.934   2.832
39812W        W12880  21.523  28.498   2.632
39813W        W12881  18.806   5.672  10.926
39814W        W12882  44.333  23.948  11.176
39815W        W12883  26.058  15.214   3.299
39816W        W12884   3.274   9.837  13.954
39817W        W12885  11.393  28.165  14.886
39818W        W12886   8.261   0.197  14.333
39819W        W12887  25.745   7.726  12.128
39820W        W12888  18.441  21.286  11.048
39821W        W12889  20.509  13.641   4.616
39822W        W12890  34.392  33.163  11.350
39823W        W12891  31.030  26.632  13.949
39824W        W12892  16.567  17.345  11.907
39825W        W12893   0.910  44.388  13.868
39826W        W12894  17.786  36.319   0.374
39827W        W12895   2.868  11.619  11.585
39828W        W12896   3.000   5.435  12.541
39829W        W12897  28.073   9.099  11.533
39830W        W12898  19.042  43.285  13.447
39831W        W12899   4.933  37.954   3.789
39832W        W12900  28.276  21.962   0.043
39833W        W12901  14.373  24.628  12.538
39834W        W12902  29.178  10.603  10.936
39835W        W12903  21.233  24.960   3.088
39836W        W12904  12.893  12.007   1.396
39837W        W12905  21.626  25.231   3.789
39838W        W12906   7.147  21.284  14.320
39839W        W12907   3.895  10.172   0.504
39840W        W12908  25.600  36.082   3.958
39841W        W12909  32.195   9.276   3.164
39842W        W12910  13.140  13.679  12.773
39843W        W12911  12.740  16.279   4.911
39844W        W12912  10.706   4.356   2.806
39845W        W12913  24.457   5.399   2.401
39846W        W12914   1.977   2.300  11.507
39847W        W12915  42.274  20.978   5.073
39848W        W12916  39.976  27.790   4.615
39849W        W12917  30.118  43.612   4.786
39850W        W12918   5.666  16.810   2.730
39851W        W12919   9.370  34.253   0.210
39852W        W12920  23.953  43.093   2.310
39853W        W12921  43.716  27.235   3.396
39854W        W12922  27.050  41.758   4.504
39855W        W12923  12.814  33.119   1.421
39856W        W12924   8.287  31.033  10.575
39857W        W12925  17.489  18.212   2.328
39858W        W12926  40.465   1.931  11.152
39859W        W12927   6.164  19.969   2.290
39860W        W12928  13.725   9.843   0.491
39861W        W12929   1.557  13.245  10.646
39862W        W12930  21.257  27.692   1.155
39863W        W12931  13.036  36.020   4.237
39864W        W12932   0.023  31.573   4.085
39865W        W12933   1.529  23.964  14.194
39866W        W12934  27.927  20.663  10.348
39867W        W12935  18.146  37.402  13.989
39868W        W12936  34.621  42.660  12.154
39869W        W12937  25.500  30.925   1.233
39870W        W12938   5.934  11.387   2.907
39871W        W12939  10.840  25.461  12.100
39872W        W12940   4.474  32.931  10.462
39873W        W12941   9.247  18.566  12.701
39874W        W12942  36.560  44.959   4.434
39875W        W12943  19.595  29.475   1.369
39876W        W12944  35.080  24.651  10.843
39877W        W12945  10.155  32.328  14.349
39878W        W12946  26.626  33.750  14.938
39879W        W12947   4.232  42.370  11.174
39880W        W12948  43.254  38.428  11.656
39881W        W12949   6.134  44.095  14.560
39882W        W12950  17.188   0.849  11.962
39883W        W12951   8.293  23.676  13.509
39884W        W12952  12.029   4.288  12.823
39885W        W12953  26.631  24.430   4.742
39886W        W12954  36.122   7.265  12.219
39887W        W12955  14.011   9.938  13.697
39888W        W12956  22.902   5.711  11.055
39889W        W12957  11.800  27.629   2.838
39890W        W12958  18.664   8.361   1.486
39891W        W12959  42.319  26.934   3.303
39892W        W12960  38.001   1.462  10.633
39893W        W12961  15.177  30.224  13.976
39894W        W12962  38.015  21.289   0.473
39895W        W12963  35.345  35.621   1.183
39896W        W12964  19.475  29.566   4.950
39897W        W12965  42.626  30.967   0.833
39898W        W12966  25.489  11.632  10.583
39899W        W12967  44.540  37.470   3.868
39900W        W12968  20.318  15.191  12.040
39901W        W12969  14.568   9.420   2.761
39902W        W12970  44.420   7.691  12.985
39903W        W12971  30.687  10.673   4.617
39904W        W12972  24.643  13.363  14.858
39905W        W12973   8.649   9.207   1.820
39906W        W12974  32.896   8.260  11.874
39907W        W12975  19.828  20.446  11.197
39908W        W12976  10.845  38.388   4.627
39909W        W12977  44.815  30.993   1.089
39910W        W12978   1.715  37.816  11.156
39911W        W12979   6.651  18.664  14.019
39912W        W12980   4.392  40.426   3.255
39913W        W12981  13.975  33.569  13.827
39914W        W12982  35.960  30.619   3.677
39915W        W12983  21.313  34.604   0.059
39916W        W12984   5.303  13.784   2.415
39917W        W12985  44.454  13.231   2.400
39918W        W12986  36.373  32.437   2.928
39919W        W12987   0.557  19.131  10.739
39920W        W12988  36.430   4.846  14.914
39921W        W12989  36.037  34.273   9.703
39922W        W12990   8.889  13.081   1.246
39923W        W12991  20.701  29.510  12.435
39924W        W12992  38.843   0.345  12.137
39925W        W12993  37.034  16.452   4.071
39926W        W12994  38.851  20.180   0.783
39927W        W12995   7.811  23.907  10.573
39928W        W12996  36.033   4.451   0.175
39929W        W12997  28.976  34.631  11.073
39930W        W12998  21.027  25.974  11.958
39931W        W12999  24.544  43.700   3.653
39932W        W13000  44.094  38.888   4.152
39933W        W13001  24.184   0.425   2.256
39934W        W13002   0.120   8.542   3.603
39935W        W13003  16.596  11.730  10.664
39936W        W13004  25.102  35.558  10.695
39937W        W13005  14.210  28.563   4.543
39938W        W13006  28.519  43.886  14.340
39939W        W13007   6.376   1.263   1.816
39940W        W13008  26.085  42.106  11.039
39941W        W13009  31.641  25.511  13.477
39942W        W13010  15.878  24.536   3.631
39943W        W13011  20.707  44.936   1.708
39944W        W13012  32.872  34.175  11.588
39945W        W13013  39.995  38.350   2.645
39946W        W13014  12.249  40.955   3.553
39947W        W13015   5.983  10.831   1.336
39948W        W13016   4.989  38.242  13.282
39949W        W13017  43.216  23.712   2.194
39950W        W13018  13.408  12.138  13.499
39951W        W13019  13.819  19.118   0.300
39952W        W13020  13.963  36.827   2.691
39953W        W13021   3.708  43.208  11.569
39954W        W13022  42.896  16.473   1.039
39955W        W13023  43.242  41.882   0.874
39956W        W13024  43.699  43.397  10.702
39957W        W13025  30.634   5.944   4.084
39958W        W13026  23.054  17.782   2.546
39959W        W13027  40.188  17.213  10.377
39960W        W13028  13.595   2.704  12.384
39961W        W13029  43.487   8.636  13.633
39962W        W13030  13.548   4.773   4.289
39963W        W13031  24.268  26.113   1.427
39964W        W13032  10.347  26.771   2.054
39965W        W13033   7.479   2.297   3.746
39966W        W13034  34.088  32.922   1.341
39967W        W13035   8.372  42.664   1.112
39968W        W13036  32.156  17.142   1.402
39969W        W13037  16.206  19.835   4.065
39970W        W13038   7.681  43.711   4.356
39971W        W13039   3.629  25.429   5.131
39972W        W13040   2.391  42.658  14.929
39973W        W13041  34.417  24.130  12.578
39974W        W13042  19.448  43.934   5.239
39975W        W13043  38.711   7.882   1.858
39976W        W13044  29.937  15.785  11.219
39977W        W13045  34.087   6.477  11.123
39978W        W13046  17.793  41.405  13.457
39979W        W13047  19.558  21.539   0.541
39980W        W13048  14.871  38.500   1.964
39981W        W13049  18.150   1.638  12.579
39982W        W13050  33.768  37.602   3.135
39983W        W13051   6.909   6.857  12.061
39984W        W13052  41.932  35.878   3.548
39985W        W13053  25.047  21.490   0.610
39986W        W13054  37.034  17.153   3.741
39987W        W13055  22.582  13.593  11.409
39988W        W13056   2.543   5.906   1.823
39989W        W13057  14.691  44.498   1.782
39990W        W13058  17.134  29.563  13.497
39991W        W13059  35.377  29.460   5.406
39992W        W13060   3.019  37.332   2.238
39993W        W13061  33.425  19.096   1.465
39994W        W13062  44.693   3.763  13.955
39995W        W13063  10.621  12.636   3.543
39996W        W13064  41.373  38.504  11.678
39997W        W13065  24.679  31.215   3.338
39998W        W13066  23.249  44.862  13.534
39999W        W13067  36.996  24.792  13.120
40000W        W13068  26.502  13.797  11.085
40001W        W13069  33.186  41.112   3.393
40002W        W13070   7.294  18.639   5.101
40003W        W13071   8.461   7.875   3.647
40004W        W13072  15.163  26.920  11.586
40005W        W13073  37.556  30.301  11.177
40006W        W13074  35.188  22.603  10.586
40007W        W13075  32.021  22.844  13.396
40008W        W13076  39.951   2.014  11.380
40009W        W13077  21.707  26.953   0.973
40010W        W13078  33.195  42.347   1.718
40011W        W13079   9.092  14.819   0.805
40012W        W13080  11.570   0.866   4.611
40013W        W13081  43.076  25.453  11.532
40014W        W13082   0.787  22.639  14.948
40015W        W13083  38.650  39.383   4.513
40016W        W13084  13.869  22.064  14.899
40017W        W13085  26.487  25.033   3.687
40018W        W13086  21.056  41.392   4.559
40019W        W13087  14.735  11.614   2.231
40020W        W13088  21.234  40.785  10.659
40021W        W13089  25.345  38.151  13.428
40022W        W13090  34.559  39.457   0.761
40023W        W13091   7.330  12.836   2.958
40024W        W13092   9.916   7.816  11.740
40025W        W13093  12.748  30.302  11.038
40026W        W13094   0.365  17.573   3.165
40027W        W13095   5.928  14.158  10.669
40028W        W13096  43.530   5.288   4.912
40029W        W13097   8.117   9.336  10.718
40030W        W13098  23.645  13.122   1.825
40031W        W13099  21.172  22.472  11.818
40032W        W13100  16.670  29.772  12.864
40033W        W13101  33.164   8.350   1.858
40034W        W13102  33.103   6.402   0.318
40035W        W13103  32.102  44.416  14.500
40036W        W13104  37.086  19.846  14.470
40037W        W13105   2.752   4.439  14.448
40038W        W13106  16.934  31.602   2.244
40039W        W13107   4.232  24.240  10.737
40040W        W13108   8.761   6.989  10.603
40041W        W13109  44.007  40.829   3.262
40042W        W13110   2.987  22.328  11.121
40043W        W13111   3.431   1.449  10.558
40044W        W13112  44.534  39.662   1.375
40045W        W13113  32.426  28.100  11.600
40046W        W13114  20.046   3.299  14.347
40047W        W13115  42.974  12.905  10.747
40048W        W13116   6.312  43.339  11.196
40049W        W13117  29.541  32.387   4.677
40050W        W13118  17.301  21.142   0.388
40051W        W13119  12.773  24.809   4.107
40052W        W13120  31.725   7.277  14.309
40053W        W13121   0.021  41.442   4.525
40054W        W13122  31.982  23.660   4.975
40055W        W13123  34.435  40.757   1.752
40056W        W13124   4.862  25.115   1.352
40057W        W13125  15.526   7.790   4.636
40058W        W13126  17.048   0.984   1.779
40059W        W13127  25.614  14.614   3.784
40060W        W13128  11.040  29.459   0.874
40061W        W13129  30.921  20.711   3.723
40062W        W13130  38.508  43.190   4.122
40063W        W13131  30.822   5.562   2.922
40064W        W13132  38.890  20.526  11.618
40065W        W13133  35.668  22.273   1.139
40066W        W13134   6.901   6.377  11.405
40067W        W13135  39.868  24.536  14.962
40068W        W13136  30.228   2.761   4.328
40069W        W13137   0.865  20.071   4.631
40070W        W13138  25.382  24.838  10.221
40071W        W13139  39.675   9.689  10.316
40072W        W13140  12.602   1.981  14.470
40073W        W13141  41.879   4.751  10.866
40074W        W13142  26.049  31.491  11.355
40075W        W13143  13.330  36.404   4.453
40076W        W13144  20.681  19.993   2.769
40077W        W13145  35.686  25.976   1.263
40078W        W13146  24.748   4.134   3.714
40079W        W13147  11.160  36.832   2.686
40080W        W13148  34.335  37.969  11.689
40081W        W13149  19.562  20.021   0.243
40082W        W13150  30.585  43.621  12.318
40083W        W13151   6.369  42.559  11.364
40084W        W13152  33.409   3.629  12.913
40085W        W13153  17.691   9.785  12.887
40086W        W13154  39.940  29.433  12.453
40087W        W13155  31.877  30.712  13.836
40088W        W13156  31.416  35.866  13.520
40089W        W13157  11.471  21.443  14.938
40090W        W13158  33.422  14.047   3.148
40091W        W13159  32.643  18.270  10.581
40092W        W13160  32.621  18.285   3.100
40093W        W13161   6.834  32.029   4.217
40094W        W13162  20.714  43.174   1.686
40095W        W13163   5.459  32.403   1.227
40096W        W13164  30.009   3.864   4.529
40097W        W13165   5.894  34.094  13.344
40098W        W13166  37.530  28.977   1.106
40099W        W13167   3.003  16.629  14.883
40100W        W13168  32.839  24.011   4.024
40101W        W13169  35.953  24.059   4.295
40102W        W13170  21.406  43.148  13.567
40103W        W13171  39.022  15.457  13.354
40104W        W13172  19.523  10.086  11.615
40105W        W13173  41.794   1.855  13.011
40106W        W13174  42.722  32.959   3.243
40107W        W13175  13.626  15.562   4.001
40108W        W13176   1.692   7.874   3.653
40109W        W13177  26.396  35.576   4.037
40110W        W13178  15.990  29.580  10.346
40111W        W13179   9.091  40.032  13.932
40112W        W13180  16.609   6.971   1.194
40113W        W13181  38.283  16.085  11.155
40114W        W13182  34.906  41.592   4.493
40115W        W13183  18.200  17.025   4.798
40116W        W13184  12.496   4.868  11.601
40117W        W13185  20.092  24.899  12.587
40118W        W13186  18.630  13.048   2.289
40119W        W13187  31.343  35.085  11.667
40120W        W13188  28.755   3.683   1.336
40121W        W13189   4.486   7.909  13.296
40122W        W13190  10.678  37.737   1.770
40123W        W13191  33.097  29.578  12.542
40124W        W13192  22.182   4.364  10.606
40125W        W13193  20.569  24.935  14.961
40126W        W13194  32.341  35.035  14.496
40127W        W13195  14.621  17.751  13.528
40128W        W13196  13.283  34.973   0.567
40129W        W13197  28.474  29.883  11.147
40130W        W13198  28.590  32.917   3.764
40131W        W13199   8.430  20.734  14.364
40132W        W13200   3.533  23.873  14.418
40133W        W13201  44.320  16.307  11.114
40134W        W13202   1.454  40.786  11.039
40135W        W13203  22.326  32.905  11.519
40136W        W13204   5.321  37.641   2.315
40137W        W13205  17.659  13.032   4.640
40138W        W13206  29.379  39.077  10.649
40139W        W13207   5.863   9.236  13.198
40140W        W13208   3.150  43.790  14.436
40141W        W13209   5.828   0.885   1.044
40142W        W13210  23.030  18.518  12.068
40143W        W13211  36.121   0.340  14.621
40144W        W13212  38.795   1.965  11.561
40145W        W13213  29.422   8.691   1.827
40146W        W13214  43.270  28.099  11.100
40147W        W13215   4.211   7.226   2.902
40148W        W13216  23.089  24.882  14.842
40149W        W13217  21.075  24.093  10.556
40150W        W13218   3.709  43.044  11.053
40151W        W13219  17.971   4.517   0.377
40152W        W13220  18.343   5.449  12.868
40153W        W13221   8.267   3.745  11.859
40154W        W13222  36.790  14.349  11.990
40155W        W13223  36.485   7.989   1.486
40156W        W13224  17.032   2.294  12.106
40157W        W13225  40.263  10.860   0.480
40158W        W13226  40.414  30.594   4.008
40159W        W13227  26.157  24.705   4.629
40160W        W13228  16.243  38.259  10.948
40161W        W13229   9.724  34.379   3.213
40162W        W13230  18.150  43.730   2.778
40163W        W13231  35.610   3.939   1.395
40164W        W13232  44.619  34.024  14.220
40165W        W13233  32.001  38.451   1.749
40166W        W13234  31.581   8.446   3.359
40167W        W13235   5.197  41.649   1.863
40168W        W13236  14.120   5.914  12.890
40169W        W13237  29.264  34.531  11.665
40170W        W13238   2.933  37.446   0.147
40171W        W13239  21.229   3.278  12.063
40172W        W13240  12.756   4.432  14.495
40173W        W13241   4.414  21.321  10.229
40174W        W13242  35.407  25.127   2.313
40175W        W13243  35.564  14.331   0.893
40176W        W13244  44.028  41.966   1.255
40177W        W13245  44.450   2.260  11.989
40178W        W13246  40.033  13.228  12.436
40179W        W13247  14.208  33.401  14.255
40180W        W13248   6.725  38.307   0.455
40181W        W13249   6.729  19.515  13.634
40182W        W13250  23.901  42.736  10.723
40183W        W13251  27.653   9.357   5.243
40184W        W13252  19.382  35.126  10.723
40185W        W13253  40.341  10.350   4.122
40186W        W13254  18.361  15.656   0.893
40187W        W13255   6.205   1.740   3.613
40188W        W13256  36.313  31.590  11.177
40189W        W13257  22.585  37.845  13.426
40190W        W13258  39.275  30.145   1.369
40191W        W13259  33.132  39.359  13.833
40192W        W13260  40.595  41.246   4.612
40193W        W13261  24.198  33.190   5.078
40194W        W13262  34.048  42.249   1.224
40195W        W13263  37.887  26.543   0.443
40196W        W13264  12.427  17.676   1.017
40197W        W13265   9.783  39.965   4.280
40198W        W13266  29.846  28.043   1.521
40199W        W13267  17.205  16.109  11.924
40200W        W13268  43.807  24.030  12.088
40201W        W13269  28.659  11.282  10.498
40202W        W13270  38.386  44.028   3.090
40203W        W13271  31.930  37.806  14.339
40204W        W13272   0.627   6.867  14.614
40205W        W13273   6.457  14.608   1.254
40206W        W13274   4.668  10.658  11.813
40207W        W13275   8.832  22.041  13.869
40208W        W13276  12.350  31.690   0.290
40209W        W13277   0.267  10.319  14.743
40210W        W13278   1.154  34.911  11.150
40211W        W13279  30.932  32.284  14.865
40212W        W13280  24.442  20.776  14.896
40213W        W13281  12.956   8.310  13.490
40214W        W13282   7.808  11.103  12.153
40215W        W13283  32.987  35.422  14.063
40216W        W13284  16.671  19.671   3.304
40217W        W13285  19.191  11.754   0.947
40218W        W13286  27.921   2.320   4.245
40219W        W13287   1.848  41.564  14.506
40220W        W13288   2.873   3.962  14.284
40221W        W13289   7.291  24.423   4.389
40222W        W13290   3.787   2.224   2.288
40223W        W13291  23.034  21.676  10.737
40224W        W13292  40.963  36.358   4.871
40225W        W13293  23.314   9.967  11.156
40226W        W13294   3.320  21.134  12.019
40227W        W13295  20.666  36.020   0.458
40228W        W13296  34.364  21.710  13.883
40229W        W13297   4.751   2.805   3.719
40230W        W13298  41.023  40.871  13.097
40231W        W13299  36.848  31.060  10.718
40232W        W13300  16.157  26.267   4.438
40233W        W13301  28.024   3.942   2.591
40234W        W13302  25.505  37.950  10.962
40235W        W13303  31.539  43.303  11.390
40236W        W13304  37.008   2.632   0.522
40237W        W13305   4.708  43.783   2.530
40238W        W13306  10.605  11.251   1.341
40239W        W13307  21.696   2.197   4.998
40240W        W13308  32.622  14.598  10.702
40241W        W13309  26.074   2.078  11.978
40242W        W13310  11.719  20.330  10.196
40243W        W13311   7.808  28.640   3.300
40244W        W13312  35.025   9.380   0.690
40245W        W13313   2.443  24.893   0.393
40246W        W13314  40.576  42.771  12.575
40247W        W13315   2.926  26.736  14.962
40248W        W13316  20.346  33.488  10.706
40249W        W13317   2.350  26.157  11.631
40250W        W13318  35.159  25.655  12.935
40251W        W13319   7.949  42.453   0.909
40252W        W13320  44.047  40.511  11.140
40253W        W13321  29.918  18.448  11.555
40254W        W13322  32.696  23.212   4.902
40255W        W13323   6.212  23.031   1.821
40256W        W13324   0.699  26.464   4.123
40257W        W13325   0.029  20.028  12.476
40258W        W13326  43.372   7.267   3.292
40259W        W13327   0.759  34.045   1.302
40260W        W13328   0.310  11.677   3.403
40261W        W13329   8.218  27.800  13.641
40262W        W13330  41.488  37.308  13.373
40263W        W13331  14.632  37.111  12.508
40264W        W13332   0.204  14.293   1.137
40265W        W13333   6.306  19.798   1.171
40266W        W13334  34.378  43.899   3.826
40267W        W13335  25.666   3.690  14.750
40268W        W13336  12.428  37.043  14.334
40269W        W13337   5.336  26.616  11.094
40270W        W13338  27.204   5.874   2.231
40271W        W13339   1.229  21.185   2.250
40272W        W13340  32.498  19.041   0.409
40273W        W13341  11.358  24.035   0.256
40274W        W13342  12.837  34.302   0.290
40275W        W13343  33.900   3.019   1.039
40276W        W13344   9.649  43.055   0.991
40277W        W13345   3.400  22.065  13.779
40278W        W13346  34.341  32.534   2.232
40279W        W13347  24.171  34.646   3.130
40280W        W13348   3.571  19.734  12.402
40281W        W13349  19.337  21.995   4.966
40282W        W13350  20.991  37.922  14.251
40283W        W13351  11.742   7.874  11.538
40284W        W13352  10.280  33.525   4.940
40285W        W13353  42.044  18.049  10.640
40286W        W13354  16.686   0.865  12.105
40287W        W13355  29.528  19.387   0.805
40288W        W13356  16.861  23.543  12.882
40289W        W13357  10.889  10.811   1.177
40290W        W13358   3.331  37.591   0.469
40291W        W13359   1.931  43.749  13.974
40292W        W13360  10.698  38.031   2.217
40293W        W13361  24.458  18.121   0.167
40294W        W13362  12.450  17.205   3.576
40295W        W13363  33.414  11.430   1.614
40296W        W13364  10.464  34.088  12.027
40297W        W13365  41.019  39.454   1.156
40298W        W13366  30.201  39.049  11.116
40299W        W13367  19.766  33.506   0.166
40300W        W13368  29.425  28.421   3.224
40301W        W13369  33.799  43.566   2.661
40302W        W13370  16.943  28.010   1.413
40303W        W13371   7.685  29.635  14.072
40304W        W13372  10.414   4.380  10.772
40305W        W13373   7.156  32.462   4.185
40306W        W13374  35.356   3.408  13.524
40307W        W13375   0.434  32.546   1.396
40308W        W13376  17.997  21.532   0.300
40309W        W13377  29.006  25.467  11.984
40310W        W13378  33.128   5.772  14.520
40311W        W13379  26.148  32.948  10.642
40312W        W13380  15.246  33.182   3.659
40313W        W13381  24.136  29.044   5.159
40314W        W13382  14.026  37.959   3.744
40315W        W13383   2.309  24.060   2.148
40316W        W13384  31.062  19.914  14.452
40317W        W13385  42.237  32.570  14.078
40318W        W13386  34.626  35.982   0.376
40319W        W13387   3.940   7.656   2.732
40320W        W13388  33.548   0.323   4.945
40321W        W13389  24.562  20.249   0.701
40322W        W13390   3.229  21.829   1.706
40323W        W13391  35.780  36.086  12.936
40324W        W13392  35.004  23.117  14.885
40325W        W13393  26.753  17.739  12.098
40326W        W13394  25.314   3.764   2.801
40327W        W13395  33.158  40.257   2.298
40328W        W13396  11.452  22.929   1.293
40329W        W13397   8.659  33.521   3.452
40330W        W13398  22.607  17.982   2.789
40331W        W13399  27.690  35.327  13.560
40332W        W13400   3.809  40.882  12.996
40333W        W13401  10.604  14.790   4.647
40334W        W13402  28.504  36.484   1.668
40335W        W13403   7.919  41.175   2.769
40336W        W13404  15.421  16.697  13.994
40337W        W13405  23.663   0.641   1.186
40338W        W13406  34.785  30.897   1.143
40339W        W13407   0.745  39.740   4.582
40340W        W13408  27.466  15.189  14.342
40341W        W13409   6.498  24.219  11.097
40342W        W13410  36.085  42.997   4.082
40343W        W13411  10.889  38.620   0.393
40344W        W13412   8.361  26.694   1.875
40345W        W13413   9.950  25.467  13.357
40346W        W13414   7.477  28.474   4.700
40347W        W13415  32.953  35.094  13.263
40348W        W13416  13.797  21.842   4.305
40349W        W13417  16.296  11.271   4.378
40350W        W13418  13.836   4.714   2.300
40351W        W13419  41.010  12.743   3.313
40352W        W13420  31.142  14.709  12.882
40353W        W13421  26.289  28.818   2.357
40354W        W13422  22.079   1.368   2.929
40355W        W13423   3.947  35.419  11.368
40356W        W13424   6.405  31.651   2.228
40357W        W13425  40.296   7.559   2.522
40358W        W13426  36.215  40.870   1.670
40359W        W13427  25.664  36.992  10.223
40360W        W13428  22.555  36.381  12.507
40361W        W13429   1.851  11.699   1.014
40362W        W13430  25.731  19.572  12.444
40363W        W13431  36.929   0.406  14.014
40364W        W13432  44.079  36.466   0.835
40365W        W13433  38.062  35.655  11.629
40366W        W13434  28.072  16.786   1.126
40367W        W13435  19.310  19.440  12.513
40368W        W13436   8.411  35.767   2.546
40369W        W13437  28.387   0.077   4.174
40370W        W13438   7.143  30.595   0.897
40371W        W13439  14.095  34.389   2.406
40372W        W13440  34.986  39.408  14.450
40373W        W13441   3.802  23.080  10.954
40374W        W13442   7.440  26.653   1.820
40375W        W13443   8.362  37.670  12.614
40376W        W13444  38.639  40.999   1.466
40377W        W13445  19.533  17.548  14.353
40378W        W13446  43.508  12.596   1.045
40379W        W13447  17.439  28.663   4.798
40380W        W13448   5.813  18.656   3.791
40381W        W13449   4.001  13.867  13.423
40382W        W13450  34.979   8.914  13.329
40383W        W13451  18.285  12.686  10.534
40384W        W13452  18.608   3.196   3.216
40385W        W13453  40.083  39.814  14.519
40386W        W13454  36.431   8.238   0.500
40387W        W13455   3.371  28.705  10.676
40388W        W13456  20.965  14.356  13.545
40389W        W13457  29.550  32.506  12.735
40390W        W13458  33.401  31.243  11.698
40391W        W13459  10.706  24.735  11.562
40392W        W13460  29.567  24.507   1.375
40393W        W13461   2.211  31.092   1.802
40394W        W13462  22.945  37.020  13.824
40395W        W13463  36.579  27.285   2.220
40396W        W13464  34.418  20.043  14.525
40397W        W13465  39.888  17.618   4.582
40398W        W13466  11.748  31.595  12.837
40399W        W13467  15.539  17.121   1.979
40400W        W13468  36.085  20.560  12.504
40401W        W13469   0.721  33.938  11.953
40402W        W13470   0.478  16.019   3.242
40403W        W13471  16.801  29.127   1.310
40404W        W13472  19.630  21.887  11.209
40405W        W13473  25.515  34.528   3.792
40406W        W13474  28.944  19.760   4.834
40407W        W13475  11.324  21.565   3.402
40408W        W13476   8.782  41.039  10.610
40409W        W13477  37.616   3.396   0.829
40410W        W13478  38.573  25.614  12.159
40411W        W13479  37.324   1.009   2.735
40412W        W13480   6.456  16.191  13.062
40413W        W13481  38.084  38.942   0.733
40414W        W13482   9.648  29.626  10.463
40415W        W13483  20.557  31.926  11.131
40416W        W13484  28.989  30.560   2.875
40417W        W13485  34.067  30.524  12.415
40418W        W13486  16.700  40.518   4.235
40419W        W13487   5.495   2.750  12.524
40420W        W13488   8.729  41.878  13.031
40421W        W13489  27.433   7.414   3.077
40422W        W13490  23.521  28.432  13.956
40423W        W13491  17.102  13.811   3.673
40424W        W13492  40.514  38.095  11.396
40425W        W13493  41.485   2.256  12.642
40426W        W13494  20.518  32.209   4.566
40427W        W13495  15.568  33.490   1.873
40428W        W13496  43.389  43.158   0.821
40429W        W13497  18.383   1.384  13.473
40430W        W13498  18.938  23.923  13.772
40431W        W13499  10.797  35.322   1.260
40432W        W13500  25.463  25.046   3.727
40433W        W13501   6.853  37.101  11.263
40434W        W13502  11.643  15.539   0.401
40435W        W13503  16.797  15.342   1.205
40436W        W13504  14.113  37.427  10.693
40437W        W13505  19.831  25.366  14.777
40438W        W13506  31.753  24.975  10.323
40439W        W13507  23.567  17.953   3.651
40440W        W13508  17.442  31.478   2.128
40441W        W13509  10.355   0.425  12.112
40442W        W13510   2.871   3.127  13.277
40443W        W13511  26.935  13.698   3.241
40444W        W13512  26.936  31.665   0.214
40445W        W13513  10.932  40.854   1.663
40446W        W13514  34.323  37.401  12.950
40447W        W13515  26.477   1.075   1.266
40448W        W13516  36.810  32.875  11.766
40449W        W13517  15.596  38.722  10.619
40450W        W13518   6.683  17.494   4.107
40451W        W13519  44.025  18.702   2.142
40452W        W13520   4.227  44.264   0.772
40453W        W13521   2.801   7.349   1.763
40454W        W13522  31.352  41.518  12.068
40455W        W13523  36.481  38.350   2.123
40456W        W13524  31.155  23.807  14.924
40457W        W13525   1.651  26.904  13.419
40458W        W13526  36.149  36.556  10.527
40459W        W13527  18.128  21.536   0.810
40460W        W13528  24.388  27.723  14.575
40461W        W13529  18.173  30.614   4.274
40462W        W13530  11.285   3.409   4.201
40463W        W13531  26.970  19.304   1.752
40464W        W13532  18.653  13.201  13.721
40465W        W13533  15.034  14.139  11.342
40466W        W13534  11.133  29.188  13.010
40467W        W13535  13.301   0.924   1.353
40468W        W13536  40.514   5.368   1.281
40469W        W13537  33.917  15.998  11.996
40470W        W13538   7.499  24.616   0.441
40471W        W13539  40.315   1.292   4.266
40472W        W13540  12.144  36.391   4.512
40473W        W13541  22.010  25.530  11.106
40474W        W13542  11.464  26.195   3.620
40475W        W13543  11.268   0.815   1.134
40476W        W13544  19.168  15.249   4.279
40477W        W13545  12.193  29.065   2.851
40478W        W13546  12.800  12.925  14.873
40479W        W13547  25.974  23.459   3.986
40480W        W13548  15.330  17.913   2.847
40481W        W13549   0.791  38.037   3.756
40482W        W13550  37.838  17.760   0.719
40483W        W13551  43.517  41.518   3.363
40484W        W13552   7.312  26.866   1.334
40485W        W13553  24.200   1.809   2.221
40486W        W13554  33.862  11.966   3.238
40487W        W13555  38.349   4.201   1.149
40488W        W13556  18.621  11.780   0.227
40489W        W13557  44.394  23.971   4.176
40490W        W13558  13.535  40.798  10.670
40491W        W13559  29.936  18.856  12.705
40492W        W13560   0.471  35.979  14.962
40493W        W13561   4.031  37.537  11.698
40494W        W13562  41.821  37.052  14.365
40495W        W13563   1.800   3.709   4.879
40496W        W13564  13.628  28.899  13.433
40497W        W13565  31.938   8.246  13.059
40498W        W13566   0.236  39.918   4.640
40499W        W13567   0.739  38.038  13.456
40500W        W13568   0.087   0.513   3.785
40501W        W13569   6.609  14.822  14.690
40502W        W13570   6.888  24.121  11.492
40503W        W13571  14.736  11.740  11.207
40504W        W13572  44.102  43.941   3.172
40505W        W13573  26.799  33.091  14.437
40506W        W13574  34.825  26.115  11.911
40507W        W13575  11.229  29.076  14.532
40508W        W13576  37.021  10.716  11.658
40509W        W13577   6.401   1.905   1.399
40510W        W13578   3.732  42.277  14.858
40511W        W13579  38.116  20.265  13.469
40512W        W13580  43.482  38.092   0.253
40513W        W13581  20.252  24.037   1.451
40514W        W13582  13.644  37.870   4.061
40515W        W13583   7.192  34.950   0.758
40516W        W13584  36.957  16.936   2.934
40517W        W13585  24.654  33.384  11.018
40518W        W13586  24.065  20.993   0.734
40519W        W13587  15.871   3.265  12.250
40520W        W13588  19.575  10.275   3.130
40521W        W13589  26.116  40.409   1.423
40522W        W13590  35.954  39.632   0.486
40523W        W13591  39.518  19.338  14.227
40524W        W13592  21.591   9.856   0.776
40525W        W13593  35.855   4.793  13.850
40526W        W13594  43.370  44.267   2.399
40527W        W13595  26.126  35.399   2.314
40528W        W13596  34.415  38.603  14.778
40529W        W13597  38.872  22.825  13.816
40530W        W13598  41.976   7.221   2.930
40531W        W13599  43.422  36.528   0.232
40532W        W13600  31.876  25.515  12.409
40533W        W13601  40.279  15.946   5.122
40534W        W13602  38.568  35.504   0.694
40535W        W13603   6.808   0.281   0.784
40536W        W13604   6.879  18.492   4.392
40537W        W13605  19.772   5.706   4.284
40538W        W13606  40.082   4.164  11.577
40539W        W13607  39.783  44.201  12.461
40540W        W13608  38.205  30.595   2.329
40541W        W13609   8.862  26.613  11.186
40542W        W13610   1.384   3.210  12.988
40543W        W13611  30.054   5.431  11.795
40544W        W13612   8.820   7.404   1.734
40545W        W13613   7.427   4.295  11.903
40546W        W13614   1.639   7.900   1.337
40547W        W13615  42.083  42.583  10.509
40548W        W13616  15.703  22.143   2.594
40549W        W13617   9.651  18.517  12.369
40550W        W13618  26.686  24.564   3.801
40551W        W13619  19.798  24.672   1.885
40552W        W13620  17.243  17.573   0.310
40553W        W13621  24.027  41.262   0.383
40554W        W13622  13.626  19.600  12.696
40555W        W13623  43.990  26.934  13.981
40556W        W13624  25.235  40.034   4.691
40557W        W13625  13.578  10.232   0.917
40558W        W13626  33.558  24.151  11.076
40559W        W13627  23.462  34.151  13.938
40560W        W13628  13.818  30.479   2.640
40561W        W13629  28.028  16.812  10.742
40562W        W13630  10.708  13.223  14.349
40563W        W13631  20.985   7.123  10.511
40564W        W13632  17.822   7.021  11.163
40565W        W13633  21.591  26.542  14.846
40566W        W13634  17.667   3.114   4.138
40567W        W13635  44.993  35.095  12.118
40568W        W13636  43.062  20.708  11.720
40569W        W13637   5.394   9.031  12.140
40570W        W13638  19.642  20.102   1.798
40571W        W13639  13.774  39.086  14.097
40572W        W13640  13.754   7.358  13.606
40573W        W13641  27.650   7.634  11.117
40574W        W13642  42.549  25.979  13.327
40575W        W13643  12.351  17.716  10.258
40576W        W13644  20.702   4.322   2.337
40577W        W13645  24.524   1.377   0.301
40578W        W13646  23.505  40.975   2.314
40579W        W13647   8.268   6.271   4.888
40580W        W13648  31.675   5.289  11.533
40581W        W13649  41.804   5.452  11.986
40582W        W13650  21.444   9.636   0.310
40583W        W13651  29.091  13.141  14.343
40584W        W13652  12.258  13.988  12.679
40585W        W13653  29.612  39.404   1.744
40586W        W13654   6.255   5.488  12.449
40587W        W13655  39.553   9.710  14.829
40588W        W13656  24.510  14.549   2.788
40589W        W13657  28.128   9.111  10.756
40590W        W13658  27.524   6.714  10.830
40591W        W13659  14.576   7.430  14.974
40592W        W13660  22.279  40.482  13.258
40593W        W13661  22.010   3.488   3.358
40594W        W13662  34.512  11.117  13.077
40595W        W13663  33.197  23.359   0.471
40596W        W13664  36.855  20.635  13.064
40597W        W13665   1.583  19.963   1.335
40598W        W13666  18.658  30.666  14.027
40599W        W13667  34.059  10.464   3.181
40600W        W13668  24.920  37.304  14.407
40601W        W13669  42.883  12.003   5.028
40602W        W13670  24.992  43.261  13.331
40603W        W13671  43.631  43.301   2.316
40604W        W13672  19.853  10.741   0.431
40605W        W13673  24.521   6.457  14.413
40606W        W13674  36.842  34.479   3.999
40607W        W13675  17.374  17.049   2.432
40608W        W13676  42.253  28.532   2.828
40609W        W13677  28.950  21.558   1.621
40610W        W13678  43.453  32.409  14.405
40611W        W13679  21.050  10.721  14.228
40612W        W13680  36.623  31.207  13.798
40613W        W13681   7.674  38.071  11.977
40614W        W13682  43.880  28.938  10.380
40615W        W13683   7.033  41.219  10.130
40616W        W13684  15.335   2.614   4.598
40617W        W13685   0.386  34.534   4.045
40618W        W13686   4.101   6.822  11.540
40619W        W13687   6.915   4.462   1.131
40620W        W13688  40.518   1.244   2.838
40621W        W13689  23.865  36.978   2.231
40622W        W13690  10.365   6.849   4.949
40623W        W13691  38.850  38.376   1.843
40624W        W13692  39.439   1.611   0.231
40625W        W13693   3.919  34.427  13.354
40626W        W13694  28.216  20.803  11.947
40627W        W13695  12.323   3.690  14.551
40628W        W13696  14.606  42.863   9.977
40629W        W13697  43.744   5.895  11.063
40630W        W13698  34.111  26.718   0.852
40631W        W13699  14.418   9.709  10.730
40632W        W13700  38.826   0.634  12.567
40633W        W13701  16.761  18.020   2.708
40634W        W13702  26.082  44.933   2.336
40635W        W13703  35.967  44.344   3.803
40636W        W13704  34.223  27.342   4.899
40637W        W13705  20.783  37.052   4.589
40638W        W13706  15.911  12.368  12.843
40639W        W13707  33.350  23.094   0.051
40640W        W13708  41.011   8.744   0.244
40641W        W13709   0.185   6.931   3.412
40642W        W13710  18.680  39.138   0.213
40643W        W13711  33.063   1.006  11.199
40644W        W13712   6.389   4.738  10.765
40645W        W13713  31.351   4.832   4.765
40646W        W13714  32.860  17.061   1.877
40647W        W13715  28.117  22.598   3.426
40648W        W13716  31.645   3.384   4.626
40649W        W13717  36.948  31.561   4.119
40650W        W13718  25.015   0.548   1.347
40651W        W13719  19.010  19.753   3.796
40652W        W13720  22.221  37.854   4.818
40653W        W13721  24.187  28.955  11.608
40654W        W13722  29.784  25.049  14.469
40655W        W13723  33.580  21.673  14.838
40656W        W13724  33.131  38.265  11.545
40657W        W13725  18.190  40.049  12.762
40658W        W13726   7.686  30.158  12.090
40659W        W13727  19.587   5.236   4.186
40660W        W13728  13.476  15.341  11.695
40661W        W13729  11.079   0.442  13.378
40662W        W13730  10.945  21.984   4.335
40663W        W13731  21.908  25.028  12.537
40664W        W13732  38.175   3.659  10.814
40665W        W13733  21.651  26.154  12.455
40666W        W13734  15.694  11.466  12.481
40667W        W13735  35.098  19.735  10.827
40668W        W13736  20.509  41.359   2.135
40669W        W13737  44.164  19.863   3.348
40670W        W13738  26.575  10.407   1.220
40671W        W13739  36.444  39.692  10.132
40672W        W13740  20.129  43.309   4.225
40673W        W13741  15.407  14.326   3.147
40674W        W13742  16.294  20.793   0.392
40675W        W13743  12.577  34.402   3.137
40676W        W13744  37.553   7.323   2.259
40677W        W13745   4.443  35.597  11.210
40678W        W13746  14.355  14.757   3.382
40679W        W13747  32.506  15.569  12.161
40680W        W13748  18.683  11.770   3.647
40681W        W13749  14.842  23.069  14.751
40682W        W13750   9.631  19.259  13.435
40683W        W13751  39.113  28.738   4.991
40684W        W13752  26.917  26.707   0.770
40685W        W13753  29.348  20.022  13.855
40686W        W13754  28.501  24.727   2.228
40687W        W13755  21.733   7.374  12.041
40688W        W13756  37.934  40.408   4.613
40689W        W13757  40.261  44.086  11.710
40690W        W13758  22.269  15.656  11.932
40691W        W13759  19.771  10.783  14.006
40692W        W13760  41.182  17.758  14.108
40693W        W13761   3.500  35.924   4.316
40694W        W13762  21.132  32.557  14.343
40695W        W13763  44.629   9.822   2.792
40696W        W13764  29.517  39.097   4.193
40697W        W13765  10.728  22.747  14.712
40698W        W13766  36.049   9.348  10.745
40699W        W13767  42.049  26.936   2.841
40700W        W13768  39.180  18.057   0.911
40701W        W13769  29.454  24.448  11.875
40702W        W13770  31.962  43.263   2.460
40703W        W13771  18.623  42.516   4.476
40704W        W13772   1.734  28.818  10.685
40705W        W13773   0.367  27.942  14.852
40706W        W13774  24.969  17.754   0.759
40707W        W13775  16.649  44.605  13.356
40708W        W13776  28.352  24.198  13.411
40709W        W13777  25.453   0.818   1.384
40710W        W13778   5.451  31.728  14.401
40711W        W13779  24.064  31.429   0.582
40712W        W13780  12.064   2.820   0.022
40713W        W13781   1.390  11.156   3.631
40714W        W13782  28.487  26.106  13.954
40715W        W13783  25.173   8.386  13.893
40716W        W13784  17.750  16.112  10.516
40717W        W13785  37.483   1.001   4.254
40718W        W13786   0.719  18.614  14.590
40719W        W13787  37.663   7.891   0.847
40720W        W13788  42.258  22.309  13.386
40721W        W13789  15.523  42.242   3.527
40722W        W13790  16.309  19.693  11.799
40723W        W13791   7.854  16.140   0.304
40724W        W13792  15.230   2.677  13.749
40725W        W13793  17.469  12.169  11.539
40726W        W13794  23.303  37.797   4.549
40727W        W13795   1.297  30.148  11.495
40728W        W13796   4.837  26.913  12.086
40729W        W13797   2.872  40.455   3.115
40730W        W13798  20.182  30.753   3.150
40731W        W13799  15.492  11.418  12.952
40732W        W13800  27.510  38.351  13.263
40733W        W13801   7.240  39.461   0.651
40734W        W13802  17.635  12.847  12.084
40735W        W13803  20.196   6.434  12.378
40736W        W13804  33.116  35.473  13.560
40737W        W13805  43.216  31.343   2.426
40738W        W13806  20.301  33.364   3.187
40739W        W13807  25.609  32.420   0.424
40740W        W13808  25.910  13.171   0.856
40741W        W13809   8.191  43.908  10.778
40742W        W13810  27.465  35.592   0.328
40743W        W13811  40.429  42.943  13.588
40744W        W13812  39.095   8.954  11.571
40745W        W13813   3.661  40.835   4.847
40746W        W13814   6.458  26.479  14.334
40747W        W13815  44.294  29.986  14.595
40748W        W13816  18.342  17.820  11.211
40749W        W13817   9.671   6.797   3.139
40750W        W13818  41.222  33.066   0.833
40751W        W13819  39.216  15.178  11.633
40752W        W13820  43.616   1.293  13.502
40753W        W13821   6.880  13.658  12.572
40754W        W13822  44.667  14.172  11.217
40755W        W13823  25.944  17.203  12.494
40756W        W13824  33.471  21.352  14.094
40757W        W13825  23.096  17.311   3.847
40758W        W13826   4.730  10.085  14.458
40759W        W13827  38.958  15.096   0.301
40760W        W13828   6.008   3.665   2.746
40761W        W13829  13.808  37.080  13.468
40762W        W13830   5.017   3.913   4.110
40763W        W13831  39.432  27.092  14.576
40764W        W13832   2.122  41.794   2.670
40765W        W13833  18.615   9.896  11.675
40766W        W13834  13.720  33.276   3.732
40767W        W13835  30.985  34.076   3.660
40768W        W13836  44.249  20.240  14.899
40769W        W13837  19.446  34.559  14.007
40770W        W13838   0.413  16.180  12.436
40771W        W13839   4.844  13.117  14.023
40772W        W13840  13.651   1.787  11.171
40773W        W13841   9.402  42.597   3.777
40774W        W13842  19.642   6.943  14.399
40775W        W13843  14.695  22.913   3.993
40776W        W13844  10.277  31.001   0.918
40777W        W13845  33.017  34.106  13.532
40778W        W13846  13.762  21.092   3.207
40779W        W13847  41.510  14.319  11.559
40780W        W13848  44.248  12.349   4.126
40781W        W13849  13.143  33.630  14.063
40782W        W13850   8.273   7.800   2.182
40783W        W13851  21.094   7.442   0.792
40784W        W13852  16.620  33.636   1.240
40785W        W13853  18.805  22.671  11.831
40786W        W13854  12.134  33.925   2.274
40787W        W13855  29.234   8.272  13.083
40788W        W13856  29.624  26.482  13.785
40789W        W13857   2.482   0.415  10.444
40790W        W13858  19.554  19.075  14.156
40791W        W13859  42.903  36.588  14.465
40792W        W13860  42.433  31.954  14.741
40793W        W13861  37.293  16.617  12.890
40794W        W13862  17.574   5.758   3.762
40795W        W13863  40.577   3.477   2.179
40796W        W13864   0.358  14.724   4.885
40797W        W13865   0.210   2.483   1.283
40798W        W13866  42.428   6.175  13.010
40799W        W13867  43.738  36.812   2.862
40800W        W13868   0.311  39.597  12.447
40801W        W13869   8.762  16.340   1.477
40802W        W13870  26.135  25.165  10.975
40803W        W13871  10.659   1.511  11.959
40804W        W13872   9.632  31.075  12.947
40805W        W13873  28.605  36.054  12.046
40806W        W13874   1.886  24.157  11.284
40807W        W13875  15.780  43.007   2.956
40808W        W13876  14.604   0.545   0.633
40809W        W13877   4.579  27.131   4.011
40810W        W13878   5.815  22.708   0.845
40811W        W13879  37.447  32.576   4.717
40812W        W13880   8.754  24.479  11.080
40813W        W13881  29.647  25.551  14.502
40814W        W13882  11.699  39.843  12.528
40815W        W13883  44.862   6.963   2.119
40816W        W13884  30.629  26.090   4.235
40817W        W13885   9.259   3.662  12.871
40818W        W13886  40.146  44.884  12.006
40819W        W13887  40.253  19.046  13.594
40820W        W13888   1.430  11.531   3.274
40821W        W13889  40.436   2.832   4.731
40822W        W13890   8.888  19.809   1.297
40823W        W13891  14.106  13.198  14.924
40824W        W13892   6.438   6.472  12.690
40825W        W13893  11.298  13.290  10.500
40826W        W13894  22.560  40.572  12.487
40827W        W13895  40.407  27.438  14.458
40828W        W13896   8.060   0.961  11.246
40829W        W13897  12.555  18.970   4.054
40830W        W13898   8.697  16.056   1.032
40831W        W13899  37.632  40.669   5.237
40832W        W13900  28.929  43.411  10.465
40833W        W13901  17.255  14.055   0.339
40834W        W13902  26.297  22.008  12.437
40835W        W13903  44.790  44.382   4.570
40836W        W13904  30.138  14.255   1.318
40837W        W13905   7.575  16.811  14.569
40838W        W13906  24.146  17.476   4.370
40839W        W13907  37.783   0.365   1.744
40840W        W13908  26.870  43.043   0.276
40841W        W13909  34.961  28.645   1.480
40842W        W13910  31.932  16.594  10.676
40843W        W13911  34.748  39.892  10.765
40844W        W13912  38.973   2.721   2.741
40845W        W13913  20.678  18.617   3.893
40846W        W13914  10.665  28.653   1.112
40847W        W13915  28.259  37.099  10.722
40848W        W13916  22.093   0.286  11.991
40849W        W13917  10.718  33.222  13.651
40850W        W13918  40.455  24.291   4.912
40851W        W13919  32.705  42.749  13.828
40852W        W13920  39.978  27.936   0.061
40853W        W13921  17.207   3.622  11.975
40854W        W13922  13.266   1.045   0.340
40855W        W13923  41.759  39.130   3.630
40856W        W13924  37.394  35.049  13.406
40857W        W13925   1.849  32.556   0.829
40858W        W13926   0.615  39.956  10.787
40859W        W13927  44.912  23.507   0.293
40860W        W13928  24.086  43.567   4.400
40861W        W13929   8.488  40.560   0.018
40862W        W13930  28.558  24.757   3.748
40863W        W13931   4.674  22.212   4.351
40864W        W13932  38.559  15.691   1.460
40865W        W13933  29.423  27.377  12.409
40866W        W13934  40.473   4.183   0.382
40867W        W13935  34.943  31.927  10.199
40868W        W13936  10.714   3.397   3.280
40869W        W13937  18.296  28.117  11.706
40870W        W13938  29.252  28.535  10.561
40871W        W13939  21.182   0.900   1.814
40872W        W13940  36.875  10.312  11.324
40873W        W13941  27.120   9.882   2.292
40874W        W13942  41.942   8.659   1.861
40875W        W13943  28.027  10.718  12.546
40876W        W13944  41.564  21.566   1.689
40877W        W13945  35.553  42.574  12.950
40878W        W13946  41.784  27.955   1.646
40879W        W13947  43.975  30.477  13.106
40880W        W13948  29.297  26.829  12.471
40881W        W13949   0.935  20.839  13.918
40882W        W13950  23.716   2.488   0.810
40883W        W13951  16.140  23.062  11.650
40884W        W13952  16.434  32.934   0.549
40885W        W13953  44.515  10.144  13.709
40886W        W13954  16.759  41.064  11.640
40887W        W13955  22.226  15.848   0.010
40888W        W13956   2.495  21.988  13.166
40889W        W13957   8.489  43.428  13.746
40890W        W13958  25.525  43.190  11.658
40891W        W13959  36.616  10.652   1.826
40892W        W13960  27.195  40.349   2.301
40893W        W13961   8.834   4.093   0.324
40894W        W13962  10.776  24.263  10.633
40895W        W13963  30.862  35.512   4.256
40896W        W13964   7.156  22.447  13.893
40897W        W13965  40.386  14.161  14.061
40898W        W13966  39.594  33.484  13.538
40899W        W13967  26.083  16.057   4.740
40900W        W13968  38.352  19.164   3.123
40901W        W13969  36.986  30.740   1.654
40902W        W13970  26.587  30.087   0.636
40903W        W13971  12.599  26.230   1.486
40904W        W13972  29.935  25.621  11.124
40905W        W13973  12.211  40.079   1.903
40906W        W13974   6.713  21.131   0.049
40907W        W13975  11.448  24.528   3.898
40908W        W13976   3.404  37.917   2.715
40909W        W13977  20.705  23.821  13.085
40910W        W13978   2.346  25.323  12.074
40911W        W13979   4.225  13.905   1.302
40912W        W13980  38.467  41.018   0.185
40913W        W13981   3.269  16.481  14.324
40914W        W13982  11.057  20.658   4.559
40915W        W13983   7.256  25.621   0.906
40916W        W13984   6.439  25.693   2.821
40917W        W13985   0.956  18.067  12.034
40918W        W13986  40.342   1.762   2.193
40919W        W13987   6.515  12.680  14.727
40920W        W13988  35.514  41.886  13.354
40921W        W13989  23.214  34.551  14.864
40922W        W13990   2.188   4.880   4.566
40923W        W13991  43.990  33.830   1.814
40924W        W13992  34.851   3.233  13.598
40925W        W13993   6.368  42.422  12.855
40926W        W13994   2.337  25.831  12.020
40927W        W13995  23.330  10.922   2.167
40928W        W13996  16.156  32.001  14.699
40929W        W13997   2.151  21.462   2.818
40930W        W13998  33.088   3.973  12.663
40931W        W13999  20.520  35.467  12.732
40932W        W14000  10.743   9.961   1.812
40933W        W14001   0.202  28.023   3.178
40934W        W14002  20.186  15.369   4.436
40935W        W14003   5.234   7.360  10.715
40936W        W14004  25.562  10.734  14.356
40937W        W14005  34.192  17.398  14.448
40938W        W14006  11.629  30.358  13.424
40939W        W14007  29.040  35.131  10.943
40940W        W14008  41.482   2.023  11.953
40941W        W14009  14.292  33.895  11.220
40942W        W14010  28.175  32.922  13.432
40943W        W14011  44.286  40.042  11.113
40944W        W14012  26.346  24.941  13.062
40945W        W14013  40.596  22.540  10.694
40946W        W14014   3.512   3.918   1.848
40947W        W14015   4.188   2.011  10.770
40948W        W14016  33.910   7.000   4.657
40949W        W14017  35.108  14.756  10.626
40950W        W14018  33.595  20.314   0.062
40951W        W14019  30.082  39.389   4.546
40952W        W14020  11.839  44.971   2.737
40953W        W14021  18.636  23.930  11.494
40954W        W14022  14.556  18.567  13.925
40955W        W14023  27.108   1.066   2.925
40956W        W14024  19.615  41.258  13.847
40957W        W14025  18.736  14.959  11.680
40958W        W14026  26.963  37.514   2.396
40959W        W14027  30.584  24.565  10.643
40960W        W14028  35.958  32.133  13.270
40961W        W14029  14.106  20.605   0.430
40962W        W14030  14.854  26.029  14.590
40963W        W14031   8.713  25.726   0.024
40964W        W14032  24.247   4.378   1.358
40965W        W14033  41.527  39.981   0.550
40966W        W14034  27.057  35.076   3.357
40967W        W14035  21.592  36.799   0.889
40968W        W14036   5.727  17.095  13.483
40969W        W14037   6.319  32.508  12.528
40970W        W14038  11.255  14.841   3.483
40971W        W14039  40.867  40.452   3.872
40972W        W14040  24.218  27.462   1.772
40973W        W14041   6.427  33.676  13.425
40974W        W14042  26.595   0.250   0.697
40975W        W14043  40.406  33.922   1.705
40976W        W14044  27.229  42.013   4.100
40977W        W14045  41.987   4.462  14.180
40978W        W14046   9.808  16.295  14.535
40979W        W14047  39.862  11.175   1.304
40980W        W14048  18.132  31.819   2.880
40981W        W14049  14.323  22.123   3.340
40982W        W14050  30.576   2.781  11.578
40983W        W14051  40.050  32.425   0.211
40984W        W14052  43.884  29.226  11.349
40985W        W14053  22.510  43.972   0.701
40986W        W14054  33.021  44.160  11.764
40987W        W14055   1.070  35.004   3.161
40988W        W14056  26.975   4.277  10.699
40989W        W14057  33.052  20.581  13.907
40990W        W14058  19.620  31.251  11.943
40991W        W14059  32.517  29.792   3.270
40992W        W14060   2.813   6.858   3.596
40993W        W14061   3.947  42.305  14.383
40994W        W14062   6.850  36.013  14.223
40995W        W14063  24.170   4.837   2.620
40996W        W14064   6.879  32.926  14.253
40997W        W14065  33.076  19.186  14.333
40998W        W14066  27.199  13.529  11.265
40999W        W14067  17.531  29.686   3.650
41000W        W14068  13.408  26.654  11.627
41001W        W14069  17.405  41.110   2.943
41002W        W14070  15.818  22.506  14.507
41003W        W14071  11.450   6.329  11.484
41004W        W14072  38.386   1.357   0.750
41005W        W14073  21.656  10.413   1.707
41006W        W14074  42.949  10.365   3.629
41007W        W14075   1.878  17.913   0.743
41008W        W14076   5.952  18.596   3.276
41009W        W14077  43.341  16.642  10.792
41010W        W14078  44.050  44.852  14.430
41011W        W14079   3.688  16.703  10.623
41012W        W14080  39.825  12.815   2.424
41013W        W14081  34.237   0.435  14.487
41014W        W14082  41.869  30.623  10.765
41015W        W14083  14.339  12.137   4.271
41016W        W14084   4.936   0.770   0.534
41017W        W14085  36.048  10.735   0.176
41018W        W14086  40.007  33.347   2.689
41019W        W14087  26.993  31.368   2.786
41020W        W14088   9.245  20.806  13.597
41021W        W14089  41.130  43.437  13.550
41022W        W14090  11.660   2.020  14.442
41023W        W14091  44.832  11.401  14.947
41024W        W14092   5.399  36.361   1.550
41025W        W14093  15.705  11.334   0.095
41026W        W14094  36.652   6.685  11.583
41027W        W14095  27.899  29.533   1.837
41028W        W14096  41.466  36.834   3.712
41029W        W14097  22.164  22.696   4.780
41030W        W14098  30.107  44.040   2.198
41031W        W14099  41.463  29.023  10.832
41032W        W14100  22.572  18.360   1.492
41033W        W14101   8.572   1.365   3.241
41034W        W14102   1.969  25.723   3.188
41035W        W14103  41.543  24.956  11.132
41036W        W14104  35.437  28.780  12.110
41037W        W14105  38.928   5.141   4.011
41038W        W14106   4.933  41.162   3.107
41039W        W14107  15.185  13.143   0.322
41040W        W14108  44.828  26.075   0.382
41041W        W14109  30.438  34.577   0.317
41042W        W14110  34.915  37.309   4.624
41043W        W14111  25.471  39.897   0.457
41044W        W14112  12.419  24.530  13.415
41045W        W14113  40.089   2.774  14.777
41046W        W14114  42.527  29.646  12.230
41047W        W14115  31.793  38.907   0.992
41048W        W14116  19.474  24.149  14.697
41049W        W14117  16.812  22.592  14.942
41050W        W14118  20.719  17.288   0.264
41051W        W14119   3.759  22.239  14.144
41052W        W14120  28.177   9.049   0.693
41053W        W14121  21.085   2.448   2.339
41054W        W14122  15.210  11.831   2.239
41055W        W14123  11.616  17.066  12.940
41056W        W14124   4.879   4.272   5.095
41057W        W14125  34.929   7.253   0.413
41058W        W14126  38.457  44.957   1.242
41059W        W14127  43.990   2.444   4.687
41060W        W14128  13.325  30.436   1.548
41061W        W14129  33.722  21.174  12.070
41062W        W14130  30.968  29.016   2.881
41063W        W14131  43.796  21.969   1.537
41064W        W14132  44.441  44.822  10.745
41065W        W14133  10.398  36.669   1.417
41066W        W14134  20.026  40.960  12.567
41067W        W14135   6.413  20.238   1.911
41068W        W14136  18.901  40.307  10.656
41069W        W14137  41.213  36.050  11.654
41070W        W14138  23.043  10.166  11.985
41071W        W14139  18.099  14.820  14.622
41072W        W14140  37.459   7.903  13.341
41073W        W14141  23.676   9.803   3.215
41074W        W14142  44.896   8.602  12.792
41075W        W14143  26.935   2.483   1.052
41076W        W14144  16.184  43.251   2.348
41077W        W14145   9.226  37.370  12.966
41078W        W14146  10.577  28.116   1.839
41079W        W14147  42.275  22.788  12.405
41080W        W14148   0.833   9.362  10.429
41081W        W14149  37.064  18.238  10.401
41082W        W14150  35.917  28.098  10.701
41083W        W14151  29.073  24.630   1.072
41084W        W14152  34.511  20.023  12.882
41085W        W14153  44.937  33.345  12.092
41086W        W14154  15.852  23.153  11.212
41087W        W14155  26.893  10.351   4.477
41088W        W14156   8.197  22.055  13.097
41089W        W14157  42.692   1.859   1.299
41090W        W14158  17.633   5.295  11.486
41091W        W14159  40.602  10.598  11.185
41092W        W14160  26.194  24.615   0.315
41093W        W14161  43.471  26.332  13.341
41094W        W14162  14.080   2.745   3.338
41095W        W14163  28.770   5.386   2.821
41096W        W14164  35.430  32.451   4.463
41097W        W14165   3.458   7.976   0.798
41098W        W14166  34.028  37.254   1.343
41099W        W14167  16.654  38.950   2.927
41100W        W14168  20.054   2.772   4.746
41101W        W14169  38.608  33.639   2.194
41102W        W14170  43.949  32.301  13.079
41103W        W14171  25.162   1.274   0.875
41104W        W14172  33.000  21.624  14.008
41105W        W14173  32.686  11.795  12.898
41106W        W14174   7.376  23.257  12.164
41107W        W14175  12.458  11.594   0.052
41108W        W14176  28.287  44.923   3.416
41109W        W14177   4.743  12.705   3.157
41110W        W14178  41.999  32.536  11.021
41111W        W14179  39.093  25.033  13.402
41112W        W14180  24.286  22.153   4.786
41113W        W14181  18.617   1.370   2.131
41114W        W14182  12.566   6.799   0.410
41115W        W14183   1.897   6.188   3.140
41116W        W14184  17.078   3.947  14.456
41117W        W14185   8.681  29.414   4.214
41118W        W14186  10.423   0.987  13.919
41119W        W14187  36.424  22.082  13.983
41120W        W14188  20.011   1.459   4.327
41121W        W14189  32.922  28.739   4.207
41122W        W14190  15.568  44.435  11.051
41123W        W14191  19.808   9.638  12.486
41124W        W14192  25.539   6.284  12.362
41125W        W14193   4.490  15.389   0.939
41126W        W14194  10.351  39.855   2.276
41127W        W14195  19.453   8.631  14.977
41128W        W14196   8.305  33.652  13.543
41129W        W14197   8.783  34.696   1.235
41130W        W14198  36.318  37.921  13.936
41131W        W14199  19.481  33.461  13.382
41132W        W14200  38.489  14.823  14.176
41133W        W14201  12.340  37.527  10.448
41134W        W14202  30.646  14.802   4.396
41135W        W14203   2.955   0.282  10.709
41136W        W14204  12.664  23.933   1.686
41137W        W14205  16.228  38.350  14.784
41138W        W14206  41.352  15.111   1.315
41139W        W14207   8.895  11.541  13.299
41140W        W14208  36.023  40.092  12.941
41141W        W14209  17.616   7.245  11.613
41142W        W14210  43.073   4.563   2.010
41143W        W14211  33.127  15.808  10.980
41144W        W14212  16.078  35.813  11.249
41145W        W14213  27.607   4.508  12.097
41146W        W14214  10.259  34.438   1.210
41147W        W14215  34.803  15.301  11.560
41148W        W14216   2.456  30.925   2.226
41149W        W14217  17.609  12.079  12.393
41150W        W14218  36.832  39.084  13.938
41151W        W14219  39.830  25.412  10.708
41152W        W14220   5.701  31.160  10.979
41153W        W14221  38.506  37.536   0.492
41154W        W14222   5.200  22.635  10.529
41155W        W14223  39.814  29.452   3.228
41156W        W14224  44.435   5.836   2.681
41157W        W14225  22.647   6.207  11.587
41158W        W14226   7.829  37.334  11.442
41159W        W14227   8.183   3.571   0.746
41160W        W14228   9.420   4.310  11.548
41161W        W14229   6.722  28.635   3.092
41162W        W14230  12.092  12.737   0.413
41163W        W14231   9.367  36.038   0.518
41164W        W14232  26.865  43.277  14.803
41165W        W14233  35.057  20.054  14.089
41166W        W14234   0.906  44.790   2.272
41167W        W14235  16.944  28.029  11.916
41168W        W14236  44.739   0.373  12.552
41169W        W14237  32.319  29.012   3.544
41170W        W14238  18.001   5.370  13.568
41171W        W14239  29.164  27.861  11.177
41172W        W14240  28.218  39.528  14.348
41173W        W14241   0.855   9.497   2.731
41174W        W14242  38.182  19.246   2.648
41175W        W14243  10.028   5.436  12.591
41176W        W14244  42.107   2.341   0.530
41177W        W14245  30.478  27.557   1.773
41178W        W14246   3.400  33.164   2.309
41179W        W14247  10.644   9.271   4.600
41180W        W14248   4.284  40.546  13.374
41181W        W14249  42.869  37.030  13.071
41182W        W14250  30.580  13.144   3.700
41183W        W14251  38.473  40.809   4.141
41184W        W14252  28.748  36.209  11.547
41185W        W14253  26.039   3.301  11.977
41186W        W14254  36.473  33.154   1.680
41187W        W14255  13.143  10.414  13.867
41188W        W14256  22.529  13.631  12.827
41189W        W14257   7.932  22.458   1.848
41190W        W14258  12.381   4.985   3.790
41191W        W14259  28.097  17.253   3.893
41192W        W14260  38.462  25.105  12.120
41193W        W14261   3.502  21.928   3.740
41194W        W14262  36.467   7.454  12.933
41195W        W14263  40.268  17.262   2.595
41196W        W14264  30.636   9.235  10.455
41197W        W14265   0.177  30.122   4.184
41198W        W14266  35.081  21.226   2.329
41199W        W14267  36.351   0.301  12.453
41200W        W14268  21.292  27.420  11.069
41201W        W14269  43.977  32.464   0.472
41202W        W14270  36.729  29.917   4.435
41203W        W14271  38.067   9.842   2.807
41204W        W14272  44.769  39.893  12.060
41205W        W14273  17.632  19.006   2.976
41206W        W14274  10.833  41.344   1.494
41207W        W14275  29.662  11.292   2.325
41208W        W14276  10.256  17.022   0.685
41209W        W14277  25.928  27.528   3.613
41210W        W14278  36.535  42.670   5.003
41211W        W14279  21.152  43.030  11.084
41212W        W14280  11.548  34.399   4.066
41213W        W14281  17.585   8.308   2.806
41214W        W14282  14.136  42.530  11.617
41215W        W14283  36.011  30.944   3.294
41216W        W14284  22.339  25.746   2.876
41217W        W14285  20.656  42.891   1.196
41218W        W14286  38.373   0.880   4.725
41219W        W14287   1.971   3.801  14.881
41220W        W14288  26.393  15.143   3.693
41221W        W14289  18.590  13.677   3.943
41222W        W14290  30.843  31.115   4.467
41223W        W14291  35.040  19.280  10.611
41224W        W14292  12.600  31.495   2.258
41225W        W14293  36.745  10.927   2.249
41226W        W14294   0.494  39.945   4.166
41227W        W14295  24.229  20.685   0.359
41228W        W14296  41.508  44.299  12.907
41229W        W14297  42.891  20.773  13.009
41230W        W14298  41.914  17.032  10.614
41231W        W14299  43.676  43.383  14.841
41232W        W14300  14.173  36.286   3.330
41233W        W14301  21.118  37.052   5.000
41234W        W14302  21.537  43.923   1.126
41235W        W14303  31.051  36.246   2.297
41236W        W14304  41.265  41.247   2.897
41237W        W14305   9.414  32.979  13.062
41238W        W14306  35.615  14.613  10.412
41239W        W14307   7.782   9.743  14.419
41240W        W14308  40.974  44.195   2.550
41241W        W14309  34.650  36.969  12.600
41242W        W14310  41.998  34.871  10.277
41243W        W14311  29.850   4.908   0.175
41244W        W14312   3.992  12.666   0.509
41245W        W14313  35.538  23.756   0.931
41246W        W14314  38.767  41.425   2.673
41247W        W14315  37.047  39.274   2.781
41248W        W14316   2.724  30.752   0.759
41249W        W14317  17.229  28.863  11.176
41250W        W14318  19.903   7.207  12.915
41251W        W14319  21.354   0.971   4.470
41252W        W14320  23.811  30.151   2.275
41253W        W14321  15.163  16.154  10.584
41254W        W14322  15.245   1.214   3.739
41255W        W14323   8.822  23.450   2.970
41256W        W14324   0.570  16.127  10.631
41257W        W14325   8.760  34.146   2.340
41258W        W14326  44.873  18.851   3.009
41259W        W14327  17.781  33.951  13.524
41260W        W14328  31.502  14.817   2.633
41261W        W14329  42.532  43.833   1.914
41262W        W14330   4.356  31.090   4.723
41263W        W14331  44.023  21.915   3.944
41264W        W14332  44.770  24.738  13.385
41265W        W14333  13.622  36.240  13.100
41266W        W14334   3.799  10.299  11.213
41267W        W14335  30.341  11.847  12.479
41268W        W14336  35.508  20.268   2.640
41269W        W14337   2.374  24.257   4.489
41270W        W14338  15.728   2.205  14.231
41271W        W14339  28.911   4.387   0.815
41272W        W14340  17.157  11.269   3.272
41273W        W14341  26.359   8.983   5.075
41274W        W14342  26.104  31.116   2.878
41275W        W14343   8.869  26.196  13.690
41276W        W14344  29.498  42.827  12.075
41277W        W14345  20.616  15.328  10.675
41278W        W14346  26.676  36.422  11.150
41279W        W14347  43.022  30.064  12.582
41280W        W14348  24.179  20.462   4.279
41281W        W14349  16.032  33.658  14.408
41282W        W14350  37.437  30.427  14.373
41283W        W14351  25.727  36.375  13.273
41284W        W14352  38.804   1.706   0.777
41285W        W14353   4.696  42.146   4.607
41286W        W14354  24.669   2.847  11.946
41287W        W14355  22.076  10.294  13.121
41288W        W14356  44.306  36.579  11.692
41289W        W14357  32.547   0.790  12.346
41290W        W14358  14.315  39.795  13.092
41291W        W14359  17.065  26.961   2.654
41292W        W14360  28.927  40.257   3.273
41293W        W14361  22.083   0.200  14.585
41294W        W14362  23.799  10.390  11.635
41295W        W14363  15.856  35.011  13.095
41296W        W14364  30.535   6.498   4.864
41297W        W14365  43.443  26.900  12.419
41298W        W14366   1.711  20.467  12.960
41299W        W14367   2.697  13.725  12.098
41300W        W14368  33.578  31.699   4.869
41301W        W14369  35.143  23.996  11.591
41302W        W14370  40.950  32.617   2.148
41303W        W14371  20.487  15.171   0.316
41304W        W14372   1.013  34.360  10.279
41305W        W14373  14.589   3.375   4.641
41306W        W14374  31.900   7.670  10.537
41307W        W14375  23.920  21.110  13.872
41308W        W14376  16.148  24.674   4.096
41309W        W14377   7.752  19.121  10.550
41310W        W14378  32.234   4.937  14.328
41311W        W14379  36.170  25.959   2.746
41312W        W14380  43.832  13.920   4.768
41313W        W14381  32.982  40.858  12.173
41314W        W14382  21.665  18.741   3.216
41315W        W14383  43.665  12.192   0.717
41316W        W14384  37.339  37.837  10.769
41317W        W14385  42.032  24.758   1.331
41318W        W14386  23.586   9.378  10.692
41319W        W14387  28.043  17.188   3.399
41320W        W14388  33.651  29.013  10.599
41321W        W14389  32.691   3.656  13.351
41322W        W14390  43.796  10.720   0.275
41323W        W14391   1.467   6.417  12.513
41324W        W14392   6.750   0.046   2.238
41325W        W14393   7.337   6.263   4.403
41326W        W14394  23.529  21.449  10.778
41327W        W14395   9.689  20.106  13.652
41328W        W14396  10.061  17.648   3.282
41329W        W14397   2.423  18.837  14.290
41330W        W14398   9.877  33.479   0.806
41331W        W14399  40.031  15.555   0.784
41332W        W14400   8.098  22.606  13.740
41333W        W14401  25.695  26.396  14.952
41334W        W14402  10.760  43.650  14.727
41335W        W14403  24.215  17.992  12.070
41336W        W14404  18.335   2.492   3.630
41337W        W14405  22.564  15.538   4.210
41338W        W14406  44.821   3.186  14.735
41339W        W14407   4.717  41.037  11.499
41340W        W14408   6.531  35.563   2.306
41341W        W14409  37.567  33.144  12.389
41342W        W14410  15.999  28.933   4.896
41343W        W14411  22.949  13.786  11.106
41344W        W14412   7.326  12.733  13.053
41345W        W14413  39.822  33.632   0.896
41346W        W14414  36.254   7.615  14.427
41347W        W14415  25.140  39.830   2.284
41348W        W14416  39.842  42.462  11.602
41349W        W14417  23.597  41.712  13.556
41350W        W14418  28.427  38.161   2.327
41351W        W14419  23.211  19.898  13.436
41352W        W14420  17.919   8.156  11.560
41353W        W14421  21.182   5.363  11.580
41354W        W14422  27.065  42.110  14.511
41355W        W14423  33.859  39.831  11.659
41356W        W14424  38.009  36.123  12.164
41357W        W14425  30.207   3.772  11.568
41358W        W14426  27.547  37.803  14.942
41359W        W14427  26.511  21.230  10.634
41360W        W14428  43.291  17.220   2.773
41361W        W14429  12.070  41.344   4.415
41362W        W14430  42.969  34.483   1.358
41363W        W14431  19.564  41.061   0.455
41364W        W14432  23.972  14.243   2.161
41365W        W14433   0.003  20.191  11.649
41366W        W14434  23.458   2.594  12.561
41367W        W14435  22.410  28.576   1.578
41368W        W14436  35.915   0.687   2.792
41369W        W14437  15.522   3.578   1.823
41370W        W14438  42.779  21.310  12.113
41371W        W14439  16.637  29.888  14.320
41372W        W14440   1.595  43.593  11.940
41373W        W14441   3.834  18.937   2.137
41374W        W14442  35.099  28.646  10.952
41375W        W14443  36.021  31.005  11.105
41376W        W14444  26.098  24.227   3.257
41377W        W14445  15.038  42.466   2.844
41378W        W14446  43.594  12.232   4.877
41379W        W14447  43.027  16.107  13.505
41380W        W14448  21.473  44.806   0.322
41381W        W14449   1.728  34.877   2.182
41382W        W14450   8.352  11.222  13.918
41383W        W14451  39.760  23.712  14.083
41384W        W14452   4.858  22.920   3.303
41385W        W14453  42.362  22.974  14.185
41386W        W14454  19.559  30.440   2.009
41387W        W14455  11.556  16.765   0.857
41388W        W14456  20.538  26.098   0.626
41389W        W14457  25.616   8.975   1.219
41390W        W14458  10.161  20.692  10.474
41391W        W14459  32.993  19.939   4.224
41392W        W14460  28.681  37.302  14.418
41393W        W14461   2.905   4.447  12.613
41394W        W14462  43.424  12.357  13.735
41395W        W14463  21.075  25.144   0.850
41396W        W14464  21.758  36.218  10.535
41397W        W14465   2.934  23.791   3.885
41398W        W14466  19.875   6.049  12.552
41399W        W14467  33.025  18.057   3.902
41400W        W14468  20.490  32.442  10.898
41401W        W14469   0.688   8.625   3.760
41402W        W14470   2.723  27.948  10.652
41403W        W14471  12.657  20.535   2.627
41404W        W14472  43.291  12.349   3.131
41405W        W14473   3.269  42.391  11.669
41406W        W14474  32.560  18.168   0.195
41407W        W14475   5.765   9.485  14.471
41408W        W14476  17.485  18.539   3.091
41409W        W14477  23.024  22.741  12.305
41410W        W14478  19.649   5.017   3.722
41411W        W14479  18.347   3.977  11.388
41412W        W14480   7.780  21.168   0.866
41413W        W14481  29.763  39.623   4.870
41414W        W14482   5.682  18.144  10.497
41415W        W14483  19.511  29.322  10.514
41416W        W14484  15.252   5.825   2.696
41417W        W14485   7.788  36.315  12.914
41418W        W14486  19.477  16.260   0.493
41419W        W14487  21.385  35.957   0.758
41420W        W14488  33.494  43.318   4.734
41421W        W14489   6.952   0.828  13.404
41422W        W14490  31.239  28.166   3.678
41423W        W14491  39.795  28.182   4.294
41424W        W14492  20.020  10.233  11.632
41425W        W14493  29.724  22.475  13.523
41426W        W14494  34.173  17.985  10.451
41427W        W14495  44.499  11.349   2.314
41428W        W14496  29.296  26.209   2.146
41429W        W14497  41.619   4.423   2.707
41430W        W14498  43.880  34.131  10.406
41431W        W14499   7.685  16.584   3.424
41432W        W14500  18.056  27.320  11.682
41433W        W14501  25.634  31.935   0.240
41434W        W14502  22.418  16.659  10.252
41435W        W14503   4.194  38.628   2.358
41436W        W14504  15.018   0.324  14.867
41437W        W14505  17.181  30.742   3.198
41438W        W14506  31.064  19.386  14.780
41439W        W14507  31.528  26.063  14.558
41440W        W14508  42.162  30.463   4.177
41441W        W14509  42.734   8.149  12.386
41442W        W14510  30.843  31.344   3.462
41443W        W14511  17.362  16.693  12.563
41444W        W14512  33.612  33.361   0.329
41445W        W14513   2.414  13.591   3.229
41446W        W14514   2.031   9.693   3.083
41447W        W14515  41.312   2.183   1.357
41448W        W14516  22.377  43.854   4.568
41449W        W14517  23.213  41.711  12.066
41450W        W14518  23.940  36.961   1.315
41451W        W14519  36.597  14.625  12.850
41452W        W14520  27.236  12.155  11.614
41453W        W14521  16.769  20.833  13.355
41454W        W14522  26.659  11.763   2.856
41455W        W14523  41.812  20.802  14.506
41456W        W14524  38.118  37.530  12.314
41457W        W14525   1.269  15.177   2.379
41458W        W14526   8.180  27.170  12.923
41459W        W14527  40.984  11.283   4.413
41460W        W14528  25.860   8.667   4.962
41461W        W14529  13.254  10.893  12.112
41462W        W14530  32.622  21.736   0.504
41463W        W14531  35.660  10.295   3.763
41464W        W14532  27.165   1.326   0.964
41465W        W14533  26.168  30.647   4.643
41466W        W14534   9.696  34.702  11.456
41467W        W14535  28.259   2.080  11.132
41468W        W14536  11.021   4.160  13.033
41469W        W14537  16.947  35.150  13.960
41470W        W14538  36.932  26.913   2.102
41471W        W14539  39.319  35.497   1.956
41472W        W14540  17.290  40.444   1.227
41473W        W14541  25.873   0.962  12.209
41474W        W14542  10.077  13.231  14.802
41475W        W14543  43.379  32.464   3.097
41476W        W14544  12.814  38.485   0.895
41477W        W14545  35.586  30.676  14.981
41478W        W14546  30.077  38.924   1.456
41479W        W14547  11.684   0.334   0.873
41480W        W14548   9.121  31.782   1.514
41481W        W14549  15.713  17.543  11.503
41482W        W14550  22.588   4.153   2.212
41483W        W14551  24.134  25.598   4.647
41484W        W14552   2.386   1.399   2.004
41485W        W14553  15.396   3.650  13.554
41486W        W14554  39.998  30.187  11.117
41487W        W14555   4.210   1.411   1.679
41488W        W14556  12.169  30.683  14.131
41489W        W14557  14.675   9.325   4.577
41490W        W14558  28.992  21.472   2.129
41491W        W14559   5.441  37.712  13.983
41492W        W14560  35.372  33.861   3.253
41493W        W14561  13.811  32.480  13.915
41494W        W14562  20.137  36.736  12.457
41495W        W14563  37.446  17.011  14.555
41496W        W14564  18.064  19.874   2.002
41497W        W14565   9.979  24.946  12.080
41498W        W14566  41.971  23.602  12.491
41499W        W14567  17.173  33.459   3.236
41500W        W14568  18.502  42.209  11.968
41501W        W14569   6.298  22.584  14.278
41502W        W14570   2.539  40.952   4.072
41503W        W14571   6.192  40.151   1.874
41504W        W14572  17.795  23.931   3.607
41505W        W14573  12.314  33.070  13.113
41506W        W14574  42.351  13.804   1.863
41507W        W14575  17.326   8.523   4.063
41508W        W14576   2.353   6.736   3.355
41509W        W14577   5.617  23.789  12.388
41510W        W14578  25.176   3.450  14.747
41511W        W14579  21.608  16.189  14.350
41512W        W14580  31.736   4.420   1.290
41513W        W14581  38.885  32.853  12.120
41514W        W14582  31.122  13.625  14.104
41515W        W14583   0.380  20.551   2.156
41516W        W14584  25.558  40.896  12.071
41517W        W14585  42.314   0.433   3.216
41518W        W14586  35.388   7.947   1.266
41519W        W14587  10.027  26.013   2.379
41520W        W14588  27.209   5.537   4.110
41521W        W14589  16.227   3.334  10.340
41522W        W14590  25.179  14.873  14.496
41523W        W14591  44.980  34.835  11.682
41524W        W14592  18.465  15.706  10.185
41525W        W14593   5.351  26.966  13.808
41526W        W14594  18.788   2.969   1.183
41527W        W14595  36.742  37.344   2.843
41528W        W14596  14.570  32.538   2.460
41529W        W14597   0.962  38.652  13.799
41530W        W14598   5.902  19.107   2.317
41531W        W14599  14.738  15.343  11.190
41532W        W14600  32.622  42.522   2.366
41533W        W14601   3.805   2.372  12.854
41534W        W14602  19.237   4.693   4.601
41535W        W14603  11.016  29.238  14.994
41536W        W14604  26.912  24.584   3.324
41537W        W14605   9.181  30.430  10.582
41538W        W14606  22.615  12.103   0.526
41539W        W14607  12.252  14.975  11.453
41540W        W14608   9.793  35.159  11.658
41541W        W14609  17.850   4.017  11.550
41542W        W14610   0.738  43.190  11.715
41543W        W14611   4.595  44.292   2.724
41544W        W14612  37.500  19.260   3.194
41545W        W14613  26.601  36.998   2.711
41546W        W14614  23.137  42.834  13.874
41547W        W14615  10.240  28.591   0.793
41548W        W14616   5.460  37.972   2.714
41549W        W14617  36.491  20.610   0.306
41550W        W14618  34.629   1.048   2.266
41551W        W14619   7.404  19.731   0.924
41552W        W14620  25.908  13.248   3.674
41553W        W14621   9.724  41.591  11.668
41554W        W14622  17.067   1.830   4.069
41555W        W14623   0.224  23.643  13.664
41556W        W14624   0.727   0.772  13.840
41557W        W14625  27.912  30.588   4.135
41558W        W14626  21.159  13.309   0.233
41559W        W14627   8.134   6.911  13.388
41560W        W14628  35.475  41.714   4.349
41561W        W14629  15.170  19.698   4.608
41562W        W14630  39.507  35.411   2.915
41563W        W14631   1.690  42.682   5.013
41564W        W14632  17.685  37.081   0.858
41565W        W14633  21.748  23.722  13.038
41566W        W14634  34.856  19.842  13.262
41567W        W14635  10.001  42.611   5.013
41568W        W14636   3.050  40.248  10.646
41569W        W14637  36.892  27.664  13.992
41570W        W14638  43.431   4.964   3.165
41571W        W14639  13.748  17.905  11.757
41572W        W14640  21.309  43.775  10.640
41573W        W14641  23.984  42.580   2.300
41574W        W14642   7.719  18.137  14.383
41575W        W14643  40.330  17.259  13.947
41576W        W14644  12.820  44.524  13.523
41577W        W14645  17.229  27.083  11.625
41578W        W14646  44.420  35.366  11.110
41579W        W14647  19.315  34.885   2.460
41580W        W14648  37.834  32.034   2.356
41581W        W14649  28.418  26.953   4.032
41582W        W14650  43.754  30.147   1.799
41583W        W14651   8.078  18.197  12.141
41584W        W14652  21.947  37.428   4.612
41585W        W14653  12.826  25.062   4.579
41586W        W14654  40.346   6.933   3.414
41587W        W14655  37.983   7.150   1.315
41588W        W14656   1.481  34.846  12.923
41589W        W14657  20.453  17.051  12.068
41590W        W14658  18.497   3.869   2.714
41591W        W14659   1.239   7.101   3.158
41592W        W14660   0.688   1.303  13.554
41593W        W14661  39.442  39.073   3.705
41594W        W14662  16.628  13.144   2.917
41595W        W14663   3.331  27.906   3.798
41596W        W14664  18.305  15.760  13.504
41597W        W14665  34.358   4.845   1.283
41598W        W14666  25.549  32.252   4.245
41599W        W14667  23.656  23.421  13.878
41600W        W14668  40.852  43.356   1.832
41601W        W14669   9.634  33.876   3.276
41602W        W14670  39.524  15.439   3.410
41603W        W14671  14.190  32.599   0.424
41604W        W14672  13.745  42.341  13.561
41605W        W14673   6.984  25.601  12.561
41606W        W14674  12.124  32.379   3.586
41607W        W14675  22.847  15.330   5.157
41608W        W14676  17.856   9.198   2.707
41609W        W14677  17.099  26.950  13.090
41610W        W14678  23.507  43.280   0.400
41611W        W14679  28.423   8.653  12.860
41612W        W14680  34.798  34.937   3.642
41613W        W14681  13.698  17.292  11.450
41614W        W14682  16.011  25.663  10.749
41615W        W14683   2.272  32.917   4.513
41616W        W14684  10.277   6.355   3.998
41617W        W14685   8.788  19.369  14.003
41618W        W14686  35.015  36.129  12.874
41619W        W14687  18.489  19.875  12.474
41620W        W14688  34.696   4.204   3.256
41621W        W14689  25.467  25.282   2.154
41622W        W14690  42.336  34.308   3.338
41623W        W14691   1.796  14.825  13.097
41624W        W14692   8.844  16.280   2.498
41625W        W14693  13.964  44.541  12.227
41626W        W14694  28.577  15.931  11.723
41627W        W14695  41.885  14.868  10.399
41628W        W14696  25.449   4.360   2.420
41629W        W14697  31.771   7.976   3.237
41630W        W14698  38.389   4.928   4.465
41631W        W14699  15.701  38.242   1.912
41632W        W14700  41.737  13.855   0.036
41633W        W14701   4.889  15.692  10.664
41634W        W14702  13.074   6.607  12.296
41635W        W14703  14.048  15.656   5.126
41636W        W14704   6.340  28.498   2.731
41637W        W14705  11.291  22.647   2.864
41638W        W14706  12.113  15.636  10.678
41639W        W14707   5.376  33.724   4.198
41640W        W14708  22.587  37.635  11.216
41641W        W14709  36.103  42.270  11.188
41642W        W14710  21.036   5.316   3.559
41643W        W14711   2.859   1.066  12.397
41644W        W14712  37.482  31.637   4.153
41645W        W14713   0.964  36.227  11.459
41646W        W14714   2.446  28.412  14.919
41647W        W14715   0.252  25.108   2.291
41648W        W14716  30.582  20.805   4.572
41649W        W14717  25.279  28.040   5.096
41650W        W14718  41.394  18.119  14.786
41651W        W14719  33.386   7.323   0.925
41652W        W14720   9.774  44.785  11.930
41653W        W14721  17.034   3.634   2.863
41654W        W14722  21.552  28.096  10.948
41655W        W14723  34.415   6.937  12.448
41656W        W14724   3.834  36.134   1.166
41657W        W14725  29.724  29.552  13.437
41658W        W14726  15.183  25.392   2.131
41659W        W14727  40.131  31.316  13.994
41660W        W14728  12.615   5.752   4.174
41661W        W14729  10.861  41.018  10.646
41662W        W14730  21.191  13.720  12.136
41663W        W14731   8.644  27.150  12.074
41664W        W14732  11.614  15.265  14.926
41665W        W14733  34.461  31.170  10.667
41666W        W14734  36.027   3.696   1.671
41667W        W14735  22.551  44.193   5.268
41668W        W14736   7.666  13.265  10.604
41669W        W14737  21.525  22.336  14.959
41670W        W14738  20.765  31.745  13.357
41671W        W14739  44.447   9.481   0.949
41672W        W14740  30.930  30.985  13.433
41673W        W14741  16.533  30.882   4.669
41674W        W14742   2.220   5.275   1.873
41675W        W14743  11.816  34.609   2.609
41676W        W14744  12.948  10.134  12.315
41677W        W14745  20.276  37.066  13.486
41678W        W14746  19.018  21.325  12.330
41679W        W14747   5.162  20.365  10.658
41680W        W14748  38.502   5.372   1.497
41681W        W14749  13.277  33.337   1.557
41682W        W14750  43.550  16.265  11.605
41683W        W14751  44.463  32.598   0.284
41684W        W14752  31.383  37.267   1.653
41685W        W14753  25.001  23.449  12.916
41686W        W14754  30.166   6.860  14.266
41687W        W14755  28.948  28.655   3.324
41688W        W14756   2.120  17.779  11.434
41689W        W14757  28.577  10.933  10.146
41690W        W14758   0.676  10.853   4.227
41691W        W14759  34.615  43.936   4.789
41692W        W14760  43.833  30.517  12.605
41693W        W14761  22.498  14.615  10.646
41694W        W14762   4.004  28.923   1.322
41695W        W14763  38.649   4.412   0.763
41696W        W14764   6.181   5.618   0.888
41697W        W14765  15.696  21.611  13.279
41698W        W14766   7.477  42.428  13.600
41699W        W14767  17.108   5.843   3.572
41700W        W14768  28.116  29.122   0.698
41701W        W14769  27.899   9.563  10.634
41702W        W14770  33.121  11.900  11.303
41703W        W14771  37.720  13.620   3.656
41704W        W14772  16.668  14.741  13.937
41705W        W14773  17.768  35.806   0.339
41706W        W14774   2.711  10.398  11.201
41707W        W14775  43.695   4.420  12.003
41708W        W14776  16.710  27.745   1.789
41709W        W14777  38.955  11.916   3.703
41710W        W14778  41.077  44.528  12.742
41711W        W14779   6.343   6.210   3.753
41712W        W14780  38.031  20.636  11.392
41713W        W14781  36.267  36.990  11.543
41714W        W14782  42.862  11.234   2.690
41715W        W14783   5.796  11.230   4.859
41716W        W14784  18.111  40.346   2.679
41717W        W14785  31.658  40.814   2.305
41718W        W14786  32.559  44.842  10.431
41719W        W14787   8.510   2.897   4.186
41720W        W14788  37.776  44.258   3.779
41721W        W14789  40.049  42.785  12.658
41722W        W14790   6.753  25.448   2.255
41723W        W14791  42.570  35.199   2.300
41724W        W14792  32.877  34.440  12.471
41725W        W14793   8.282  12.187   0.219
41726W        W14794  14.794  13.156   0.704
41727W        W14795  37.884   2.149  12.027
41728W        W14796  27.057   5.636  14.897
41729W        W14797   0.723  18.148   3.096
41730W        W14798   6.859  35.237   2.000
41731W        W14799   9.251  12.897  11.627
41732W        W14800   0.048  28.987   2.742
41733W        W14801  16.620  24.438   1.390
41734W        W14802  23.117  15.689  14.028
41735W        W14803  35.834  26.903  12.144
41736W        W14804  31.933  15.557  13.017
41737W        W14805  13.243  13.596   1.885
41738W        W14806  18.777  12.157  13.876
41739W        W14807  41.905  10.541  13.504
41740W        W14808  22.526  34.362   4.155
41741W        W14809  27.795   1.923  11.287
41742W        W14810  29.677  37.479  13.376
41743W        W14811   2.119  38.888   0.683
41744W        W14812   1.993  27.111  10.818
41745W        W14813  37.443  40.373  13.203
41746W        W14814  23.226  37.424   3.522
41747W        W14815  23.041  13.243  11.885
41748W        W14816  40.104  41.445   4.514
41749W        W14817  17.350  19.210  11.445
41750W        W14818  16.824  14.705   1.770
41751W        W14819  23.103  39.248  11.928
41752W        W14820  26.941   8.474  11.138
41753W        W14821  17.322  24.973   4.573
41754W        W14822   9.977   4.280  10.463
41755W        W14823  15.644   2.954  13.798
41756W        W14824  20.691   4.602  10.437
41757W        W14825   8.295  42.091   3.743
41758W        W14826   8.205   9.858   1.512
41759W        W14827  23.053  41.265   1.517
41760W        W14828  21.177  14.193  14.468
41761W        W14829  27.402  36.874   0.670
41762W        W14830  15.145  14.237   1.692
41763W        W14831  17.846  19.318   0.992
41764W        W14832  44.988  40.865  14.802
41765W        W14833  38.068   5.075   0.514
41766W        W14834   0.061  37.299  11.636
41767W        W14835   1.450  34.998   4.631
41768W        W14836  13.750  20.691  13.464
41769W        W14837  32.198   7.463   3.726
41770W        W14838   8.960  11.737   0.496
41771W        W14839  29.354  27.539   0.749
41772W        W14840  14.225  18.293   1.791
41773W        W14841  26.073  43.338   4.944
41774W        W14842  11.103   6.751  14.261
41775W        W14843  28.481  12.618  12.661
41776W        W14844   5.255  40.570   3.686
41777W        W14845  15.721   2.692   3.880
41778W        W14846  35.572  20.795   0.275
41779W        W14847  30.115  37.574   9.947
41780W        W14848  41.654   2.465  14.533
41781W        W14849  10.820   7.841  10.542
41782W        W14850  20.558  15.802   4.433
41783W        W14851  10.378   6.250   3.048
41784W        W14852  36.893  14.727  11.082
41785W        W14853  13.562  18.355  12.623
41786W        W14854   7.199  19.986  10.480
41787W        W14855  24.024  34.876  13.135
41788W        W14856   0.736  33.324  13.390
41789W        W14857  14.650  29.087   0.822
41790W        W14858  18.430  19.175   5.046
41791W        W14859  40.261   2.333  12.437
41792W        W14860  20.787  14.742   0.240
41793W        W14861  23.058  20.661   3.839
41794W        W14862  34.375   6.750   3.389
41795W        W14863  40.976  20.002  12.473
41796W        W14864  16.628  28.687   2.147
41797W        W14865  41.003   1.677  11.263
41798W        W14866  40.329   5.335  11.982
41799W        W14867  36.995  12.074   2.725
41800W        W14868  18.120  16.183   1.811
41801W        W14869  32.206  23.764  11.946
41802W        W14870   8.439  44.474  13.546
41803W        W14871  18.143  18.296  14.535
41804W        W14872   6.081   3.378   1.016
41805W        W14873  22.430  16.555   2.917
41806W        W14874  28.409   9.562  10.677
41807W        W14875  16.998  17.618  12.762
41808W        W14876   9.344  26.725  10.951
41809W        W14877  42.176  13.978  14.794
41810W        W14878   9.543  36.382   1.852
41811W        W14879   0.300  22.653  12.581
41812W        W14880  29.617  10.517   1.890
41813W        W14881  36.173   7.892  12.921
41814W        W14882  41.473  16.191   1.829
41815W        W14883  35.258   1.790   5.099
41816W        W14884   5.572  21.871   1.419
41817W        W14885   7.781  31.566   1.971
41818W        W14886   7.972  38.828  14.325
41819W        W14887  17.972  36.633  11.706
41820W        W14888  14.039  32.505   2.475
41821W        W14889  35.783  25.921  13.405
41822W        W14890   9.728  20.285  12.150
41823W        W14891  26.578  17.308  12.898
41824W        W14892  32.025  10.671  11.745
41825W        W14893  37.779  27.203   3.128
41826W        W14894   7.853  17.103   0.529
41827W        W14895  40.204   8.752  10.059
41828W        W14896  43.861   6.474  14.354
41829W        W14897  14.902  28.165   0.744
41830W        W14898  10.467  29.435   1.884
41831W        W14899  14.707  14.316   2.508
41832W        W14900  15.417  17.172  14.401
41833W        W14901  30.798  21.319   0.004
41834W        W14902   0.677   5.888  10.662
41835W        W14903  33.975  20.495  10.519
41836W        W14904  15.211  29.986   3.165
41837W        W14905  41.000   7.128  11.051
41838W        W14906  24.767  27.381  11.903
41839W        W14907  27.792   5.344  11.538
41840W        W14908  13.231  22.732   2.865
41841W        W14909   4.347  33.617  14.881
41842W        W14910  23.679   6.579   0.331
41843W        W14911  24.693   5.607   3.267
41844W        W14912  42.786  15.529   2.696
41845W        W14913  13.789  42.404  11.237
41846W        W14914   5.114  16.017   4.906
41847W        W14915  22.048  32.829  10.545
41848W        W14916   6.834  27.120  11.035
41849W        W14917  28.182  33.069   0.337
41850W        W14918   3.708  34.115   3.607
41851W        W14919  32.884  17.728  14.415
41852W        W14920   7.689  19.313   1.321
41853W        W14921   2.811  19.509   3.256
41854W        W14922   8.039  34.403   2.128
41855W        W14923  31.560   2.402  14.531
41856W        W14924   2.404  16.499  12.900
41857W        W14925  26.135   0.985   0.907
41858W        W14926  10.360  42.890   0.185
41859W        W14927  18.095   5.899  14.467
41860W        W14928   9.292   7.287   3.208
41861W        W14929  24.638  18.214   1.019
41862W        W14930  36.001  33.912  12.517
41863W        W14931  10.752   1.755   1.893
41864W        W14932  19.569  20.988   0.876
41865W        W14933  44.428  22.992  13.752
41866W        W14934  25.498  20.192  14.980
41867W        W14935   6.663  43.360   2.773
41868W        W14936  31.115   5.850  14.553
41869W        W14937   4.834  40.394   2.309
41870W        W14938  44.944  21.166  13.062
41871W        W14939  33.983  35.497   2.342
41872W        W14940   7.727  11.976   0.988
41873W        W14941  24.337  41.940  11.159
41874W        W14942   2.789   6.882  12.417
41875W        W14943  32.662   5.330  12.532
41876W        W14944  22.361  28.505   4.212
41877W        W14945  42.481   6.678  14.453
41878W        W14946  26.560  31.516  12.156
41879W        W14947  10.680  39.254   4.663
41880W        W14948  19.496   4.447   2.373
41881W        W14949  41.806  10.814   2.310
41882W        W14950  15.566  40.095  12.524
41883W        W14951  24.547  38.868   3.245
41884W        W14952  38.573   9.849  14.327
41885W        W14953  36.916  20.282   2.296
41886W        W14954   5.248  18.799  11.025
41887W        W14955   2.698  14.176  13.729
41888W        W14956  33.720  16.911  13.486
41889W        W14957  30.763   4.028  14.121
41890W        W14958  15.732  13.890   5.071
41891W        W14959  11.853   6.431  12.471
41892W        W14960  27.158   5.324   2.733
41893W        W14961  26.106  43.640  11.015
41894W        W14962   3.940  42.714  12.938
41895W        W14963   8.328  32.620  11.622
41896W        W14964  26.042   2.046  14.551
41897W        W14965   7.311  33.167  13.352
41898W        W14966  37.886  12.653  13.556
41899W        W14967  26.965   0.241   4.194
41900W        W14968  30.748  20.094   3.853
41901W        W14969  14.182  29.842  10.623
41902W        W14970   2.723  16.546  14.043
41903W        W14971  29.354  23.581  10.723
41904W        W14972  27.731  34.454   2.626
41905W        W14973  33.460  33.821  13.460
41906W        W14974  44.196   7.493  13.448
41907W        W14975  44.289   5.812  10.725
41908W        W14976  14.790  21.468   3.349
41909W        W14977  16.556   1.366  14.320
41910W        W14978  35.372  35.061  14.913
41911W        W14979  24.749  19.156   1.848
41912W        W14980  13.902  28.857   3.686
41913W        W14981  11.931  29.418  13.405
41914W        W14982  33.125   4.832  12.248
41915W        W14983  39.431  17.685   2.895
41916W        W14984  20.693  29.155   2.921
41917W        W14985   7.791  24.867  11.205
41918W        W14986  18.430  17.270  11.203
41919W        W14987  29.061  29.160   3.329
41920W        W14988  33.752   7.484  11.237
41921W        W14989  37.976  39.496   2.456
41922W        W14990  23.269  44.322   1.764
41923W        W14991  11.130   7.404  12.131
41924W        W14992  30.139  35.247   0.379
41925W        W14993  36.706  21.347  11.668
41926W        W14994  24.128   2.994   3.299
41927W        W14995  22.509  30.304  14.284
41928W        W14996   9.203  34.037  14.136
41929W        W14997  36.417  28.626  13.921
41930W        W14998  24.013  23.056  14.957
41931W        W14999   7.699  42.840  13.824
41932W        W15000  42.832  22.831  12.961
41933W        W15001  18.144   4.197  13.939
41934W        W15002  21.436   1.165  10.161
41935W        W15003  12.183  31.335   1.251
41936W        W15004  25.064  33.532  11.312
41937W        W15005  32.556  39.346   0.857
41938W        W15006  21.990  35.350  10.663
41939W        W15007  33.663  40.857  14.992
41940W        W15008  21.776  20.695  10.964
41941W        W15009  41.997  37.657   3.871
41942W        W15010  34.352  36.488  13.352
41943W        W15011  19.306  44.334   0.865
41944W        W15012  31.170   7.708   3.722
41945W        W15013  19.740   1.894  12.688
41946W        W15014  16.162  14.903   4.671
41947W        W15015   7.624  11.835   1.815
41948W        W15016   2.449   7.983   2.789
41949W        W15017  17.171  32.228   2.779
41950W        W15018  25.585  12.539  10.505
41951W        W15019  29.488  31.048   3.026
41952W        W15020  12.646  44.276  12.614
41953W        W15021  10.051   5.895   4.060
41954W        W15022  35.130   8.398  10.788
41955W        W15023  25.914  28.474   2.187
41956W        W15024  36.162   5.114  12.385
41957W        W15025   1.488  34.110   3.684
41958W        W15026  38.337  17.348   0.159
41959W        W15027  23.658   9.098  13.260
41960W        W15028  10.137  39.589   0.031
41961W        W15029   3.664  26.753   1.405
41962W        W15030  33.948  27.485  13.174
41963W        W15031  26.175  16.486   1.692
41964W        W15032  11.895  20.606  11.622
41965W        W15033  43.848  20.809   0.454
41966W        W15034  40.101  16.319  10.730
41967W        W15035  10.901  23.179   3.240
41968W        W15036   4.746  20.397   3.854
41969W        W15037  21.926  42.774  14.413
41970W        W15038  21.226  42.803  14.947
41971W        W15039  39.021  29.184   4.246
41972W        W15040  43.744   2.229  12.636
41973W        W15041  39.407  41.948   3.179
41974W        W15042   5.889  38.858   2.224
41975W        W15043   6.884  34.133  10.777
41976W        W15044  17.552  17.682   3.163
41977W        W15045  42.411  22.499  10.987
41978W        W15046  44.221   1.553   3.775
41979W        W15047  32.879  15.585   0.205
41980W        W15048   7.903  10.300   2.415
41981W        W15049  18.316  22.250   4.738
41982W        W15050  40.579  27.596  11.027
41983W        W15051  11.598   6.606   0.238
41984W        W15052  32.412  20.129  11.114
41985W        W15053  28.109  21.787   1.152
41986W        W15054  19.425  17.855  12.921
41987W        W15055  39.080   3.279  11.115
41988W        W15056  37.606  12.766  11.602
41989W        W15057  34.718  10.177  10.247
41990W        W15058  38.611  37.816  13.473
41991W        W15059   6.683  12.947  10.707
41992W        W15060  44.350  29.068   1.064
41993W        W15061  13.048   1.699   3.165
41994W        W15062  39.464  19.205   2.382
41995W        W15063   9.349  37.928  13.340
41996W        W15064  38.343  43.217  14.299
41997W        W15065  13.166  41.781   3.815
41998W        W15066  43.514   9.640  11.178
41999W        W15067   6.815  19.362  14.492
42000W        W15068  14.332  24.038  11.379
42001W        W15069  13.268  13.852  14.122
42002W        W15070   0.426  23.745   1.417
42003W        W15071  19.730  36.101   4.864
42004W        W15072  24.851  39.358   3.208
42005W        W15073  28.833  28.140   1.402
42006W        W15074  13.530  31.872  12.969
42007W        W15075   8.302   1.337   4.293
42008W        W15076  39.011   2.238   1.852
42009W        W15077  31.711  37.552   0.740
42010W        W15078  41.467  32.843  14.328
42011W        W15079   1.942   9.273  13.512
42012W        W15080   1.072  40.541  13.648
42013W        W15081  22.147  28.204  14.956
42014W        W15082   6.806  29.453   2.923
42015W        W15083   9.489  29.154   3.792
42016W        W15084  32.135  23.261   4.186
42017W        W15085   0.544  44.123   4.370
42018W        W15086  39.884   6.888   4.707
42019W        W15087  42.037  39.496   4.270
42020W        W15088  40.915  15.365  13.931
42021W        W15089   3.755  40.530   1.876
42022W        W15090   6.760   9.743   2.717
42023W        W15091  43.781  19.980   0.034
42024W        W15092   8.110  30.538   2.781
42025W        W15093  36.353  22.241   4.256
42026W        W15094  24.069  19.777   3.705
42027W        W15095  16.318  35.270   0.142
42028W        W15096  10.555  20.381   0.070
42029W        W15097  40.064   6.227   3.324
42030W        W15098  33.650   4.491   1.462
42031W        W15099  26.441  27.516  14.734
42032W        W15100  28.620  37.487   4.676
42033W        W15101  25.122  35.759   0.308
42034W        W15102  18.002  41.963  14.276
42035W        W15103  11.416  24.999  14.367
42036W        W15104  41.265   1.684   1.338
42037W        W15105  11.012  43.762  12.941
42038W        W15106  40.490  12.159  11.017
42039W        W15107   7.887  39.509   4.989
42040W        W15108  37.038  42.290  14.292
42041W        W15109   4.789  31.175  13.338
42042W        W15110  26.146  44.565   1.338
42043W        W15111  19.039  12.385  12.510
42044W        W15112  35.508  32.178   4.936
42045W        W15113  38.340  22.069   2.695
42046W        W15114  32.898  31.962   1.149
42047W        W15115  37.269  13.532   3.905
42048W        W15116   8.182  36.404   1.736
42049W        W15117  35.126  18.502   2.772
42050W        W15118  10.530   0.040   0.004
42051W        W15119  21.513  11.173   3.427
42052W        W15120  21.448  28.545  14.877
42053W        W15121  20.280  18.571  14.120
42054W        W15122  13.308  31.355  10.686
42055W        W15123  18.221  17.472  11.596
42056W        W15124  29.216  33.410   4.272
42057W        W15125  21.088  18.049  13.425
42058W        W15126  40.350   0.774   0.734
42059W        W15127  26.729  33.822   4.488
42060W        W15128  27.628  17.325   3.665
42061W        W15129  25.935  20.633  13.367
42062W        W15130  11.958  29.855  14.384
42063W        W15131  41.460  41.470  13.559
42064W        W15132   7.835  27.785   2.200
42065W        W15133  13.060  27.351  12.169
42066W        W15134  14.919  21.273  14.845
42067W        W15135  18.001   9.256  12.870
42068W        W15136  36.501  41.604   9.581
42069W        W15137  15.919  33.228   4.160
42070W        W15138  41.809  14.323  14.849
42071W        W15139  15.585  15.393  13.567
42072W        W15140  39.253  41.541   2.813
42073W        W15141  28.223  14.441  12.832
42074W        W15142  32.769  30.529   2.780
42075W        W15143  36.032  19.980   4.870
42076W        W15144  39.273  41.866  13.463
42077W        W15145  40.469  32.354   3.368
42078W        W15146  31.696  16.366  14.035
42079W        W15147  19.738  26.467  10.632
42080W        W15148  24.516  19.050  10.951
42081W        W15149   3.268  23.730  14.875
42082W        W15150  39.945  14.712   4.817
42083W        W15151  18.642  36.180   3.976
42084W        W15152   2.340  22.072   2.184
42085W        W15153  14.077  36.049   3.822
42086W        W15154  40.874  32.221   3.083
42087W        W15155  16.608  16.768   2.179
42088W        W15156  11.900  35.606  14.894
42089W        W15157  28.613  34.090   2.753
42090W        W15158  17.223  20.311   3.736
42091W        W15159  44.806  16.163   4.002
42092W        W15160  28.365  27.003   1.836
42093W        W15161  22.546  36.858  13.510
42094W        W15162  39.937   4.480  10.747
42095W        W15163  29.403  29.387  13.808
42096W        W15164  33.917  18.685   2.455
42097W        W15165  40.981  10.166  11.181
42098W        W15166   3.359  44.502  10.665
42099W        W15167  27.796  22.266   3.718
42100W        W15168   2.036  16.776   2.700
42101W        W15169  19.153   1.382  11.575
42102W        W15170  36.733   1.338   4.330
42103W        W15171  32.838  22.692  14.090
42104W        W15172  18.149  13.720   4.252
42105W        W15173  13.864  44.015  14.500
42106W        W15174  13.749   6.206  11.614
42107W        W15175  28.043  11.657  11.641
42108W        W15176  40.069  19.375   3.131
42109W        W15177  20.416   7.527  11.145
42110W        W15178   6.745  12.083  12.066
42111W        W15179  19.253  25.723   3.176
42112W        W15180  34.737  23.983  13.865
42113W        W15181   5.451  35.378   4.198
42114W        W15182  21.605  42.890   3.306
42115W        W15183  13.224  27.587  11.138
42116W        W15184  20.617  10.899   3.878
42117W        W15185  42.684  33.071   0.733
42118W        W15186  23.513   4.313   0.710
42119W        W15187  21.005   5.845  11.576
42120W        W15188   7.756  41.813  12.596
42121W        W15189   5.130  20.190  12.676
42122W        W15190  40.074  42.765   0.353
42123W        W15191  26.163  29.105   4.611
42124W        W15192   0.942  19.566  14.332
42125W        W15193  44.390   4.880  13.593
42126W        W15194  18.402  40.257   0.876
42127W        W15195  32.676  32.574  13.959
42128W        W15196  41.773  23.316  12.877
42129W        W15197   4.778  37.583  13.981
42130W        W15198  11.246   4.465   0.888
42131W        W15199  10.671  29.928  12.142
42132W        W15200   2.968  10.936   3.939
42133W        W15201  34.662   5.586  14.977
42134W        W15202  35.127  42.448   2.733
42135W        W15203   0.333  35.352   3.576
42136W        W15204  23.830  35.924   4.503
42137W        W15205  39.140  44.421   0.210
42138W        W15206  18.841   1.012  14.935
42139W        W15207  10.113  23.349   5.022
42140W        W15208   5.472  19.120  12.848
42141W        W15209  42.816  14.319   3.252
42142W        W15210  19.275  31.018   3.559
42143W        W15211  29.362  30.771  14.424
42144W        W15212  32.277  12.848  14.002
42145W        W15213  21.304  19.709  12.031
42146W        W15214  38.563   4.007  10.762
42147W        W15215  31.172  18.174  10.630
42148W        W15216  32.475  15.233   4.452
42149W        W15217  23.460   4.770  10.215
42150W        W15218  10.624  31.867  13.754
42151W        W15219  10.958  12.128   4.675
42152W        W15220   8.287  10.902   1.881
42153W        W15221  28.243  14.816   3.742
42154W        W15222  21.258   9.427  10.945
42155W        W15223  12.264  11.906  10.838
42156W        W15224  19.195   5.779  11.901
42157W        W15225  43.568   9.559  13.460
42158W        W15226  29.462  31.871   4.547
42159W        W15227  13.689  32.209  11.526
42160W        W15228  17.614  12.151  10.673
42161W        W15229  16.998   2.709   2.613
42162W        W15230   5.250  21.949  13.419
42163W        W15231  29.823  37.876   3.313
42164W        W15232  15.551  40.446  10.674
42165W        W15233  21.370  29.085  13.077
42166W        W15234  13.840  31.857   5.022
42167W        W15235  36.378  41.788   4.330
42168W        W15236   0.442   9.709   3.643
42169W        W15237   6.137  11.653  11.039
42170W        W15238   0.658  43.832  10.230
42171W        W15239  39.289  13.627  12.422
42172W        W15240  28.246   5.304   1.755
42173W        W15241  17.683   1.250  11.931
42174W        W15242   1.300  17.438  14.958
42175W        W15243  11.797  15.676  11.106
42176W        W15244  21.610  26.969  13.130
42177W        W15245   0.333   1.978  10.431
42178W        W15246  27.477  10.856  12.585
42179W        W15247  36.918  41.473   2.308
42180W        W15248  11.940  37.573   4.603
42181W        W15249   7.716  19.099  13.517
42182W        W15250  17.107  44.842   0.474
42183W        W15251  29.581  18.808  11.433
42184W        W15252  17.300  29.448  12.609
42185W        W15253   0.890  27.562   1.468
42186W        W15254  25.164   7.111  11.600
42187W        W15255  43.557  17.183   3.203
42188W        W15256  42.751  16.101   2.351
42189W        W15257  40.544  16.623   3.339
42190W        W15258  33.902  39.490  13.485
42191W        W15259  26.786   0.831  11.123
42192W        W15260  38.578  13.793  12.891
42193W        W15261   2.991   6.477  12.991
42194W        W15262  43.391  24.678   4.383
42195W        W15263  12.792  40.648   2.244
42196W        W15264   7.224   7.433   0.502
42197W        W15265  12.369  22.271   2.223
42198W        W15266   4.548  33.097   0.718
42199W        W15267  27.251   9.953  14.960
42200W        W15268  15.637  25.829  13.920
42201W        W15269  18.867   1.600   0.683
42202W        W15270  25.646  11.618   0.327
42203W        W15271  19.191  11.869  13.967
42204W        W15272  38.470  33.347  13.424
42205W        W15273  27.393  21.995   1.293
42206W        W15274  25.554  29.640  11.690
42207W        W15275   2.793   7.613  14.966
42208W        W15276  26.443   5.344   0.270
42209W        W15277  20.598  26.931   1.448
42210W        W15278  26.097  22.789   3.189
42211W        W15279  35.231  14.153   1.850
42212W        W15280  39.110  15.551  12.036
42213W        W15281  19.222  23.039   1.332
42214W        W15282   1.860  44.882  13.092
42215W        W15283   7.457   0.961   1.756
42216W        W15284  17.858  17.463  14.155
42217W        W15285  40.347  12.884   2.434
42218W        W15286  13.008   3.387  12.133
42219W        W15287  26.088  42.550   2.801
42220W        W15288  37.395  37.649   1.577
42221W        W15289  35.591  37.358  11.603
42222W        W15290  27.482  14.640   3.308
42223W        W15291  35.055  24.901  13.509
42224W        W15292  20.976  15.022  14.692
42225W        W15293  18.809  30.908   3.716
42226W        W15294  27.525  31.953   3.310
42227W        W15295   3.921  20.491  13.038
42228W        W15296  18.322  26.207   3.193
42229W        W15297  21.094  35.034   1.204
42230W        W15298  37.753  29.370   3.415
42231W        W15299  40.288  36.308  12.923
42232W        W15300  13.036  43.353   3.181
42233W        W15301  27.875   1.179  13.026
42234W        W15302  43.823  26.720  14.440
42235W        W15303  22.563   6.226  10.735
42236W        W15304  36.558   0.823  10.680
42237W        W15305  14.749  14.539  11.594
42238W        W15306  27.086  35.835  12.039
42239W        W15307   1.695   5.099   0.797
42240W        W15308  10.750  23.498   4.179
42241W        W15309  11.561  29.027   4.611
42242W        W15310  42.817  43.620  10.964
42243W        W15311  38.850  25.152   0.261
42244W        W15312   8.822   8.776   1.480
42245W        W15313  37.787   6.312  14.943
42246W        W15314  29.007  30.217  13.861
42247W        W15315  22.120  36.104  14.427
42248W        W15316  25.378  13.196  11.175
42249W        W15317  34.933  35.138   4.575
42250W        W15318  17.844  19.066  12.262
42251W        W15319  35.354   0.366   0.291
42252W        W15320  35.668  39.109  13.614
42253W        W15321  42.247  24.290   1.392
42254W        W15322   3.229   7.745   2.247
42255W        W15323  27.733  12.358   3.795
42256W        W15324   7.429  40.768  10.259
42257W        W15325  22.040  43.606   1.873
42258W        W15326   7.369   8.305  13.107
42259W        W15327  15.592  44.708   3.662
42260W        W15328  11.403  29.247   1.153
42261W        W15329  22.929  27.272   4.476
42262W        W15330  40.166   9.868   4.435
42263W        W15331  31.054  41.229  10.241
42264W        W15332  30.230  28.589  11.677
42265W        W15333  33.207   3.013  11.971
42266W        W15334  13.093  19.298   9.774
42267W        W15335   0.394  32.573   2.341
42268W        W15336   6.254  35.146   0.975
42269W        W15337  31.555  24.268   1.894
42270W        W15338  21.455  15.889   4.622
42271W        W15339  36.687  29.536  11.749
42272W        W15340  40.135  31.990  14.904
42273W        W15341   7.282  30.154  12.425
42274W        W15342  42.290  44.953   4.900
42275W        W15343  38.116  34.396   4.125
42276W        W15344  34.946  33.528  13.940
42277W        W15345  43.154  41.092  12.017
42278W        W15346   8.458  42.961  13.280
42279W        W15347  32.813  36.090  14.831
42280W        W15348  19.038  20.801  13.991
42281W        W15349  29.643  29.223  12.017
42282W        W15350  21.100  24.093   5.479
42283W        W15351  13.722  42.758   0.958
42284W        W15352  15.799  20.245   1.663
42285W        W15353   7.652  12.982  10.134
42286W        W15354   6.879  37.563   0.108
42287W        W15355  29.229  10.155   1.854
42288W        W15356  24.607  20.768   4.202
42289W        W15357  22.038  40.334  10.714
42290W        W15358  35.989  34.566   2.436
42291W        W15359   8.241   2.274  13.410
42292W        W15360  15.922  22.201  13.055
42293W        W15361  23.561  38.000  10.053
42294W        W15362   3.958  23.754  11.984
42295W        W15363  19.892  44.184  10.718
42296W        W15364  38.502  13.576  13.800
42297W        W15365  27.227  32.610  12.411
42298W        W15366  19.635   9.295   1.840
42299W        W15367  26.056  10.156   1.955
42300W        W15368  34.441  39.811   3.619
42301W        W15369   8.304  21.514   3.635
42302W        W15370  39.331  37.375  14.040
42303W        W15371  32.948  32.379  11.592
42304W        W15372  24.683  19.943  11.118
42305W        W15373  26.113  12.763   3.786
42306W        W15374  15.707  29.516  12.993
42307W        W15375  34.189  27.653   3.547
42308W        W15376   3.226  32.509   0.304
42309W        W15377  35.884  39.374   3.447
42310W        W15378  36.276   9.135  13.807
42311W        W15379  23.504  24.594  11.363
42312W        W15380  11.078  17.684  12.547
42313W        W15381  17.105  36.380   1.365
42314W        W15382   4.168  25.177   1.762
42315W        W15383  28.899  35.552   1.329
42316W        W15384  35.388  15.268   3.747
42317W        W15385  31.493  31.328   4.545
42318W        W15386   2.710   5.482   3.640
42319W        W15387   2.417  39.899  11.408
42320W        W15388  23.037  44.366  13.430
42321W        W15389   5.148  17.716   2.872
42322W        W15390  23.844   5.427   0.496
42323W        W15391  36.433  40.852   0.285
42324W        W15392   0.029  17.519  14.574
42325W        W15393  34.947  33.622   0.431
42326W        W15394  43.987  23.209  10.596
42327W        W15395  41.628  29.619   1.275
42328W        W15396  41.266  37.798  12.525
42329W        W15397  30.844  38.165  11.821
42330W        W15398  27.255  26.444   3.586
42331W        W15399   1.431  14.546   0.932
42332W        W15400  33.636   8.689  11.931
42333W        W15401  26.029  33.072  11.982
42334W        W15402   8.657  34.395   1.652
42335W        W15403  37.441  12.945   1.817
42336W        W15404  30.482   7.649   3.233
42337W        W15405  25.953  21.203  13.891
42338W        W15406  14.664  41.532  13.265
42339W        W15407  24.028  19.139  14.961
42340W        W15408  38.784  36.545   1.756
42341W        W15409  18.094  16.829   2.293
42342W        W15410  30.018  39.047   2.765
42343W        W15411  28.417  31.896   2.389
42344W        W15412   8.136  12.244   4.581
42345W        W15413   5.920  20.209  12.387
42346W        W15414   6.314  23.700   5.015
42347W        W15415  31.524  22.330  11.725
42348W        W15416  32.201   3.759  13.185
42349W        W15417  39.394  26.744   2.155
42350W        W15418  42.361  22.579   4.605
42351W        W15419  31.234  26.000   1.543
42352W        W15420  22.968  41.472   4.574
42353W        W15421  34.438  25.103   0.048
42354W        W15422  11.870  29.227   0.541
42355W        W15423  19.284  44.747  13.889
42356W        W15424  29.144  15.775  14.094
42357W        W15425  32.926  20.007   1.663
42358W        W15426  12.951   1.714  11.592
42359W        W15427  15.164  39.288   2.613
42360W        W15428  24.465  16.558  13.487
42361W        W15429  17.644  28.970  13.903
42362W        W15430  17.379  12.560   5.059
42363W        W15431  15.184  10.147  10.931
42364W        W15432  29.107  41.974  14.509
42365W        W15433  28.690  10.466  13.824
42366W        W15434  22.510   7.117   1.227
42367W        W15435  41.530  10.353   3.704
42368W        W15436   8.867   2.372  12.607
42369W        W15437  30.509  29.726  12.076
42370W        W15438  18.301   2.689  14.848
42371W        W15439  29.216   2.569  13.999
42372W        W15440  13.291  10.267   2.269
42373W        W15441   7.015  42.372  14.183
42374W        W15442   3.852  32.794   2.290
42375W        W15443  13.711  13.676   4.201
42376W        W15444   2.327  40.149  12.391
42377W        W15445  14.483  34.412  12.498
42378W        W15446  44.506  19.160   0.306
42379W        W15447  22.676  22.743  12.931
42380W        W15448  19.750  36.955   4.675
42381W        W15449   5.756  40.344   0.849
42382W        W15450  41.495   8.889  11.091
42383W        W15451   9.228   0.619   3.263
42384W        W15452  35.040  26.546   3.301
42385W        W15453  42.877  30.178   3.257
42386W        W15454  28.852  42.467   3.815
42387W        W15455   8.642  12.284   4.592
42388W        W15456  11.961   8.404  14.786
42389W        W15457  26.913  44.501  11.575
42390W        W15458   0.219   7.755   2.659
42391W        W15459   9.824  17.133  13.309
42392W        W15460  23.719  39.688   4.805
42393W        W15461  13.603   1.709   4.233
42394W        W15462  26.266   7.693  14.759
42395W        W15463  16.319  38.047   4.051
42396W        W15464  31.540  38.374  13.977
42397W        W15465  34.520  32.692  11.502
42398W        W15466  25.115  25.955   1.457
42399W        W15467  34.562  30.930   0.678
42400W        W15468  18.581  24.784  12.696
42401W        W15469   0.997  44.273  10.183
42402W        W15470  41.530   9.113  11.586
42403W        W15471  34.966   5.672   1.335
42404W        W15472   6.140  22.769   2.379
42405W        W15473  14.863  37.038  12.999
42406W        W15474  27.571  36.863  13.558
42407W        W15475  37.037  31.152   1.296
42408W        W15476  19.073  17.116  11.155
42409W        W15477  28.949  26.503   2.398
42410W        W15478  40.623  21.207   4.602
42411W        W15479  34.155  13.654  12.819
42412W        W15480  38.186  15.143   4.575
42413W        W15481  30.036  32.367  10.689
42414W        W15482  29.962  38.802  12.411
42415W        W15483  35.634  31.460  11.917
42416W        W15484   5.287  40.221   1.742
42417W        W15485  32.106  18.981   4.203
42418W        W15486  26.102   9.956  13.598
42419W        W15487  29.168  35.402   2.707
42420W        W15488   1.444  12.726   0.727
42421W        W15489  10.677  26.521   1.010
42422W        W15490  20.467  20.679   2.267
42423W        W15491  44.362  13.622   4.683
42424W        W15492   1.406  27.686  14.399
42425W        W15493  11.122  40.565   2.666
42426W        W15494  38.744  33.500  13.855
42427W        W15495  17.331  41.008  14.030
42428W        W15496  36.047   9.436   5.010
42429W        W15497  16.968  12.051  11.604
42430W        W15498  11.863   1.277  11.072
42431W        W15499  17.085  41.371  11.971
42432W        W15500   1.325  34.512   2.003
42433W        W15501  32.633   5.650   2.897
42434W        W15502  19.200  27.868  14.908
42435W        W15503  27.114  42.979  12.952
42436W        W15504  39.791  15.004  13.730
42437W        W15505  17.010  27.207   3.153
42438W        W15506   1.261  11.715   1.184
42439W        W15507   4.235  33.377  10.310
42440W        W15508  30.392  13.231   2.794
42441W        W15509  13.191  39.476  13.049
42442W        W15510  10.387  43.501  13.480
42443W        W15511  41.839   9.129   1.626
42444W        W15512  32.934  35.153   0.273
42445W        W15513  27.675  43.713   2.440
42446W        W15514  23.103   3.610   0.271
42447W        W15515  37.761   3.698   0.276
42448W        W15516  32.121  13.105  14.744
42449W        W15517  29.113  26.703  12.934
42450W        W15518   3.317  15.100  11.539
42451W        W15519  34.858   0.019   3.210
42452W        W15520  13.701  15.445  10.575
42453W        W15521   2.860  24.841   3.755
42454W        W15522  24.072  31.065   2.532
42455W        W15523  42.412  16.792   0.632
42456W        W15524  31.330  28.541   3.265
42457W        W15525  14.762  44.875  12.511
42458W        W15526   2.331   1.730   5.240
42459W        W15527  34.669  40.699  14.593
42460W        W15528   6.598   1.776  12.095
42461W        W15529  35.991   4.022  12.374
42462W        W15530   6.908  19.130  13.999
42463W        W15531  11.690   3.539   5.059
42464W        W15532  31.309  14.173   0.710
42465W        W15533  40.025   4.753   1.929
42466W        W15534   6.216  21.822  11.112
42467W        W15535  31.654  11.234   0.767
42468W        W15536  14.596  10.331   4.213
42469W        W15537  35.631   2.877   3.649
42470W        W15538  34.493  33.816   0.247
42471W        W15539  14.221  36.931   0.518
42472W        W15540  25.408  36.489   4.227
42473W        W15541  23.564   2.262  14.210
42474W        W15542  14.063  40.910  14.301
42475W        W15543   5.172  36.146   3.878
42476W        W15544  41.365  41.419   2.008
42477W        W15545   3.249  30.794   0.773
42478W        W15546  30.647   7.487   4.553
42479W        W15547  12.189  25.050   3.903
42480W        W15548  11.146  31.608   2.224
42481W        W15549  44.723  14.969  11.595
42482W        W15550  15.126  14.599  13.601
42483W        W15551   2.988  41.041   0.311
42484W        W15552  19.333  24.518   4.132
42485W        W15553  20.001   7.928  12.410
42486W        W15554   5.317  13.860   1.388
42487W        W15555  26.673  44.097  14.821
42488W        W15556   3.669  24.473  11.111
42489W        W15557  33.356   5.239  11.190
42490W        W15558  37.414  24.700  12.452
42491W        W15559  11.294  39.166   2.759
42492W        W15560  19.268   0.177  14.578
42493W        W15561   2.980  15.285  12.136
42494W        W15562  26.808  23.649  13.151
42495W        W15563  42.543  37.842  12.467
42496W        W15564   5.711  29.005   4.725
42497W        W15565   1.007  28.762  10.965
42498W        W15566   3.704   1.448   1.467
42499W        W15567  21.712  15.723  13.814
42500W        W15568  39.753   6.268  11.250
42501W        W15569  44.842  11.346   2.743
42502W        W15570  23.970  39.963  14.348
42503W        W15571  24.453  20.548  14.444
42504W        W15572  18.304   0.774  10.811
42505W        W15573   5.149  38.427   1.862
42506W        W15574  23.138  13.387  14.021
42507W        W15575   1.636  33.876   1.463
42508W        W15576  15.436  20.350   0.871
42509W        W15577  43.054  27.049   4.046
42510W        W15578   2.530  32.093   1.791
42511W        W15579  12.292  11.648   3.799
42512W        W15580  16.419  31.646  13.605
42513W        W15581  14.232  41.496   2.977
42514W        W15582  23.679  10.907  12.496
42515W        W15583  21.681  15.162  10.412
42516W        W15584  39.259  34.028  11.969
42517W        W15585  27.622  11.258  10.307
42518W        W15586  25.038  20.542   0.716
42519W        W15587  14.613   0.968   4.339
42520W        W15588   9.808  41.497   0.978
42521W        W15589  11.230  44.517   2.732
42522W        W15590  14.856  10.872  11.310
42523W        W15591  29.422  15.573  14.928
42524W        W15592  15.544  23.842  12.131
42525W        W15593  41.660  13.430   4.997
42526W        W15594   1.385  40.997  13.084
42527W        W15595  27.581   9.332   0.960
42528W        W15596   0.153  33.353   4.834
42529W        W15597  23.589   4.786   3.848
42530W        W15598  35.309  15.706  12.940
42531W        W15599  25.168   7.454   0.836
42532W        W15600   5.320  22.873   2.747
42533W        W15601  34.385  27.038   4.116
42534W        W15602   4.705  43.090  14.339
42535W        W15603  34.458  18.144   1.907
42536W        W15604  39.417  25.761  11.465
42537W        W15605  11.646   4.833   4.484
42538W        W15606  26.433  35.004   3.954
42539W        W15607   3.644  40.474   4.154
42540W        W15608  18.403  33.039   3.107
42541W        W15609  11.163  28.369  13.343
42542W        W15610  11.626  25.782  14.070
42543W        W15611   7.750  15.675   4.955
42544W        W15612  36.342   4.037  13.507
42545W        W15613   2.269  25.138   5.065
42546W        W15614  10.240  11.125   0.107
42547W        W15615  17.093  32.044   1.374
42548W        W15616  13.170   1.410   0.716
42549W        W15617   3.912  11.234  11.452
42550W        W15618  36.373  27.710   1.647
42551W        W15619  12.575  13.419   2.829
42552W        W15620  17.234  37.983   3.618
42553W        W15621  12.584  32.485   4.559
42554W        W15622   2.391  12.884   0.499
42555W        W15623  15.121  26.530   4.195
42556W        W15624  19.971  42.755  12.580
42557W        W15625  31.361   0.924   1.246
42558W        W15626  11.874  37.485  10.709
42559W        W15627  44.039   4.985  12.282
42560W        W15628  18.711  30.632   2.359
42561W        W15629   0.768  15.846   9.925
42562W        W15630  42.313  35.385   1.724
42563W        W15631   4.490   0.536  12.918
42564W        W15632  27.399  43.287  10.720
42565W        W15633  11.779  42.501   4.682
42566W        W15634  34.067  27.732   2.632
42567W        W15635  29.477  26.931   0.335
42568W        W15636   0.957  26.467  14.518
42569W        W15637  42.319  12.492  14.256
42570W        W15638   6.339   4.555  14.993
42571W        W15639  19.673  35.311   0.797
42572W        W15640  26.065  22.093  13.742
42573W        W15641   6.856  39.827   4.852
42574W        W15642  42.286   2.259   3.341
42575W        W15643  42.334  35.290  12.801
42576W        W15644  38.692  44.903   1.698
42577W        W15645  29.454  42.544  14.350
42578W        W15646  11.774  25.139  13.122
42579W        W15647  21.434  19.254   1.324
42580W        W15648   8.340  29.004  14.326
42581W        W15649   1.900   2.895   2.792
42582W        W15650  28.487   2.745   4.669
42583W        W15651  30.172  28.879   2.728
42584W        W15652  33.287  38.924   2.973
42585W        W15653  11.861  26.652  11.643
42586W        W15654   0.468  32.053   2.393
42587W        W15655   7.623   8.894  12.965
42588W        W15656   0.371  15.723   0.664
42589W        W15657  25.435   8.859   0.328
42590W        W15658  36.536  35.839  13.320
42591W        W15659  16.527   5.136  12.835
42592W        W15660   4.980  20.150  13.581
42593W        W15661  15.319  31.472  14.984
42594W        W15662  33.403  23.675  12.421
42595W        W15663  28.286  36.099   0.897
42596W        W15664  40.513   8.584   4.975
42597W        W15665  18.358  16.001  11.644
42598W        W15666  17.116  16.164   0.883
42599W        W15667  38.637  22.931   4.013
42600W        W15668  25.512  33.380  11.140
42601W        W15669  17.865  35.377  14.437
42602W        W15670  16.684  13.644   0.852
42603W        W15671  34.052  35.538  10.456
42604W        W15672  31.070  16.896  10.978
42605W        W15673   0.329  33.079   1.368
42606W        W15674  35.622  18.669   0.942
42607W        W15675  41.780  38.282  11.889
42608W        W15676   2.741  24.936   2.391
42609W        W15677  29.619  29.977   0.398
42610W        W15678  41.928  31.155   1.628
42611W        W15679  36.931  18.832  11.660
42612W        W15680  43.798  14.127   1.300
42613W        W15681  40.792   4.199   3.062
42614W        W15682  24.950   2.756   1.963
42615W        W15683   4.435  35.150   4.074
42616W        W15684  39.445  43.457   4.325
42617W        W15685  34.372  44.399   4.206
42618W        W15686  12.836  18.978   1.383
42619W        W15687  24.467  29.385   2.789
42620W        W15688  12.038   4.769  13.450
42621W        W15689  21.560  35.524  12.899
42622W        W15690  29.646  43.302  12.533
42623W        W15691  28.166  30.160   0.538
42624W        W15692   1.667  18.793   4.115
42625W        W15693  27.950  39.663   0.354
42626W        W15694  37.455  30.583  13.347
42627W        W15695   8.256  35.396   2.879
42628W        W15696  34.523  27.031   4.599
42629W        W15697   6.786   6.451   1.601
42630W        W15698  34.835  13.302   4.593
42631W        W15699  29.474  41.386   2.453
42632W        W15700   9.136  10.648   4.155
42633W        W15701   1.483  19.101  11.545
42634W        W15702  15.009  16.133   1.042
42635W        W15703   6.411  14.979  13.387
42636W        W15704  36.631  39.273  13.500
42637W        W15705  43.102  10.884  13.155
42638W        W15706   6.909   4.998   1.212
42639W        W15707  15.621  10.840   0.252
42640W        W15708  43.015  27.377   2.847
42641W        W15709  43.933  33.109   3.671
42642W        W15710  24.667  29.190  12.563
42643W        W15711  17.845  43.880   3.186
42644W        W15712  22.242   4.645  11.131
42645W        W15713  22.506   2.261   4.526
42646W        W15714  40.082  36.999  12.820
42647W        W15715  25.486   6.923  10.887
42648W        W15716  16.795  20.562   2.645
42649W        W15717  35.590  17.759  12.876
42650W        W15718  27.591  16.312  12.010
42651W        W15719  13.259   5.456   1.166
42652W        W15720  25.785  18.890  13.955
42653W        W15721   2.280   5.563  11.898
42654W        W15722  42.487   6.694  13.118
42655W        W15723  26.047  31.792  12.192
42656W        W15724   2.577  37.290   2.498
42657W        W15725  40.694  21.857  11.202
42658W        W15726  24.147   0.076   0.517
42659W        W15727   6.626  17.205   1.927
42660W        W15728  25.763  43.415   0.310
42661W        W15729  12.055  15.058   1.871
42662W        W15730   1.900   1.309   4.606
42663W        W15731   8.987   0.763   0.887
42664W        W15732  11.689   8.196  13.827
42665W        W15733   6.692  13.330   2.912
42666W        W15734  34.576  15.821  13.476
42667W        W15735  20.448  43.422  10.746
42668W        W15736   9.773  26.436  14.938
42669W        W15737  20.151  32.527  13.029
42670W        W15738  22.718  12.799  10.730
42671W        W15739   2.562   4.027   0.932
42672W        W15740  10.407   6.717  10.633
42673W        W15741  36.407  26.053  11.707
42674W        W15742  42.198  37.454  12.434
42675W        W15743   1.698  23.642  13.820
42676W        W15744  36.938  31.498   2.247
42677W        W15745  35.657   0.789  10.567
42678W        W15746  24.649  11.282  14.505
42679W        W15747  20.767   4.752   1.447
42680W        W15748  31.898  22.229  10.570
42681W        W15749  34.957  37.880   0.112
42682W        W15750  33.920  14.147  12.891
42683W        W15751   0.778  40.406   0.117
42684W        W15752   5.420  17.269  12.887
42685W        W15753  27.603  33.922   0.726
42686W        W15754  21.677  42.334   0.420
42687W        W15755   7.043  13.530  14.968
42688W        W15756  42.206   7.243  12.412
42689W        W15757  18.399  40.858   3.727
42690W        W15758  19.540  44.259   3.380
42691W        W15759  15.468  35.029  13.438
42692W        W15760  32.664   9.336  13.321
42693W        W15761   8.426  22.553   3.854
42694W        W15762  18.034   5.313  11.922
42695W        W15763  44.423  30.172   1.392
42696W        W15764  40.766  30.510   1.733
42697W        W15765  26.938  36.571  11.564
42698W        W15766  11.112  10.749  12.300
42699W        W15767  38.427  26.195   4.090
42700W        W15768  30.886  11.357  10.728
42701W        W15769  22.037  29.946  13.339
42702W        W15770  20.056  25.083   2.534
42703W        W15771  38.616   9.863  11.172
42704W        W15772  30.038  44.745  11.328
42705W        W15773   9.108  19.360   0.200
42706W        W15774  13.071  25.601  11.556
42707W        W15775  15.282  24.648   4.572
42708W        W15776  42.805  44.990   4.661
42709W        W15777   4.903   1.274   0.608
42710W        W15778   0.827  40.490   1.486
42711W        W15779  27.102  29.942   2.471
42712W        W15780  36.441  35.606   2.954
42713W        W15781   2.409  25.550  10.609
42714W        W15782   3.460  18.950  11.584
42715W        W15783   0.882   3.560  12.056
42716W        W15784  20.824  20.482   1.476
42717W        W15785  14.781  31.969  10.205
42718W        W15786   5.704   1.761   3.737
42719W        W15787   4.525   0.350   2.217
42720W        W15788  35.464  34.413   3.277
42721W        W15789  27.967  11.867  12.097
42722W        W15790  39.467  15.817   3.035
42723W        W15791  31.207   8.808  14.834
42724W        W15792   1.987  36.867   4.386
42725W        W15793  19.033  42.818  14.596
42726W        W15794  43.935  24.959   1.906
42727W        W15795  21.565  26.577   4.566
42728W        W15796   2.336  40.340   3.737
42729W        W15797  32.157  12.825   4.192
42730W        W15798  38.138  32.774  14.215
42731W        W15799   6.460  18.297   4.094
42732W        W15800  33.964  15.503   4.889
42733W        W15801  26.197  15.509  14.531
42734W        W15802  40.571  44.888  11.162
42735W        W15803  37.664  32.407   1.390
42736W        W15804  29.407  39.487   0.263
42737W        W15805   1.052  19.261   2.652
42738W        W15806  33.916  33.664   1.850
42739W        W15807  12.111  27.138  10.699
42740W        W15808  27.175  10.125   4.109
42741W        W15809  26.313   8.593  11.310
42742W        W15810  29.586  28.940  14.031
42743W        W15811  44.862  27.620  14.432
42744W        W15812  43.754  29.532   3.781
42745W        W15813  23.113   9.473  11.200
42746W        W15814  34.904  20.588   3.639
42747W        W15815  33.468  38.288  11.991
42748W        W15816  43.745  19.270   3.743
42749W        W15817  31.881  29.471  10.696
42750W        W15818  36.497  38.898   1.267
42751W        W15819  34.921   1.382   1.269
42752W        W15820  20.940  15.961   1.425
42753W        W15821   9.345  22.811  11.040
42754W        W15822   2.116  29.627  10.403
42755W        W15823  28.085  25.933  13.620
42756W        W15824  15.357  29.954   4.150
42757W        W15825  13.853  41.016   4.711
42758W        W15826   4.012  30.981  10.949
42759W        W15827  23.761  16.265  13.956
42760W        W15828  12.764  28.231  13.017
42761W        W15829  42.291   1.254   1.536
42762W        W15830  22.134  37.792   4.296
42763W        W15831  12.575  43.255   0.822
42764W        W15832  14.632  19.871   1.191
42765W        W15833  30.458   8.256  11.787
42766W        W15834   7.248  44.246  13.885
42767W        W15835  25.565  39.728   3.507
42768W        W15836  39.782   2.160  12.651
42769W        W15837  30.552  43.261   4.825
42770W        W15838  29.760  39.538   1.230
42771W        W15839  35.920  14.206  13.807
42772W        W15840   9.644  30.611   1.705
42773W        W15841  18.094   1.972   1.315
42774W        W15842  35.820  31.966  11.942
42775W        W15843   0.403  31.621   1.071
42776W        W15844  32.034   2.709   3.143
42777W        W15845   4.957   1.797  14.603
42778W        W15846   9.099  21.964   3.164
42779W        W15847  41.895  25.604   4.631
42780W        W15848   9.794  29.011   4.756
42781W        W15849  24.488   8.362  12.562
42782W        W15850  37.395  10.265   4.252
42783W        W15851   1.969  44.370  12.960
42784W        W15852  12.371   7.300   0.463
42785W        W15853  24.388   1.226   2.635
42786W        W15854  24.062  30.062  12.452
42787W        W15855   7.093  32.098  10.746
42788W        W15856  20.166   8.195   4.580
42789W        W15857  19.524  44.380   4.910
42790W        W15858   4.375  17.610  13.005
42791W        W15859  28.812  23.541  14.024
42792W        W15860   9.377  21.956  13.014
42793W        W15861   0.714  12.864  14.551
42794W        W15862  35.102  15.706   4.984
42795W        W15863   9.788  13.065  12.448
42796W        W15864  20.461  32.079  12.092
42797W        W15865  12.574  41.359   4.485
42798W        W15866  29.877   6.914  13.844
42799W        W15867   9.769  28.566  13.954
42800W        W15868   2.920  14.728   0.904
42801W        W15869  40.287   3.714   1.269
42802W        W15870  19.274  20.596  13.338
42803W        W15871  15.753  35.478   3.682
42804W        W15872  12.706  26.074   0.438
42805W        W15873  14.923  25.460  13.313
42806W        W15874  24.034   1.783  13.801
42807W        W15875  39.434  14.715   0.071
42808W        W15876  14.827   6.131  12.852
42809W        W15877  26.806   9.082  14.309
42810W        W15878  33.927   4.415  14.240
42811W        W15879  14.540  28.977  14.443
42812W        W15880  27.092  44.768   4.289
42813W        W15881  26.243  13.391   1.185
42814W        W15882   5.635  20.999  14.347
42815W        W15883   6.319  17.230   0.123
42816W        W15884  37.520   9.456   0.390
42817W        W15885   1.959  13.628  12.660
42818W        W15886   4.949  19.017   2.772
42819W        W15887  44.929  11.874   2.687
42820W        W15888  11.596  32.452   4.872
42821W        W15889   3.260  43.343  12.919
42822W        W15890  30.034  27.862  12.903
42823W        W15891  14.856  18.758  13.425
42824W        W15892  29.493  30.348   4.592
42825W        W15893   2.826  12.922  13.568
42826W        W15894   8.826  12.322   4.108
42827W        W15895  38.886   2.915  12.492
42828W        W15896   6.228  38.015  12.909
42829W        W15897  22.202  29.286   1.819
42830W        W15898   6.892  16.628  11.713
42831W        W15899   3.989  38.866  13.867
42832W        W15900  11.342  32.403   2.707
42833W        W15901  37.042  39.999   0.327
42834W        W15902   4.246  32.449   9.932
42835W        W15903  10.028  43.972  10.298
42836W        W15904  36.510   5.699   4.313
42837W        W15905  14.569   2.512   0.882
42838W        W15906  39.525  23.478  12.032
42839W        W15907  33.900   7.611  12.936
42840W        W15908  43.478   4.443   3.245
42841W        W15909  25.641  13.740   2.486
42842W        W15910  36.048  24.534  12.616
42843W        W15911  25.675   3.739  10.630
42844W        W15912  39.067  28.131   0.463
42845W        W15913  37.296   0.531   1.841
42846W        W15914  14.362  16.348   4.530
42847W        W15915   7.939  42.931   5.018
42848W        W15916  10.738  32.477  14.926
42849W        W15917  16.820  40.322   1.356
42850W        W15918   0.515  14.327  10.768
42851W        W15919  32.873  35.609  13.116
42852W        W15920  41.331  17.478   9.938
42853W        W15921   0.949  27.631  12.520
42854W        W15922  26.591  24.544   2.915
42855W        W15923  31.089  43.481  11.554
42856W        W15924  11.165  14.575   0.866
42857W        W15925  12.279   6.752   4.751
42858W        W15926  38.995   0.300  14.185
42859W        W15927  14.135  25.981   4.278
42860W        W15928  23.953  20.012   4.174
42861W        W15929  37.325  14.399   0.276
42862W        W15930  21.549  20.727  13.438
42863W        W15931  22.725  38.933   4.654
42864W        W15932   3.482  10.140   1.831
42865W        W15933  20.326   7.315  14.988
42866W        W15934   4.957  36.846  14.916
42867W        W15935   8.811  14.383   2.584
42868W        W15936   9.854  22.934   4.344
42869W        W15937  24.843  11.665  14.960
42870W        W15938  42.568  14.230   3.705
42871W        W15939  41.793  14.331  12.000
42872W        W15940  42.554   7.394   3.843
42873W        W15941  34.969  10.874   4.187
42874W        W15942  36.489  39.381  10.636
42875W        W15943  32.993  41.036  10.680
42876W        W15944  31.576  38.031   2.407
42877W        W15945  25.334  24.066   2.837
42878W        W15946  12.844   9.650  11.868
42879W        W15947  38.621   5.914  14.118
42880W        W15948  44.790   2.315   2.160
42881W        W15949  35.155  44.937   4.346
42882W        W15950  37.092  38.737   0.681
42883W        W15951  10.806   5.087   2.826
42884W        W15952  42.853  32.466  12.170
42885W        W15953  34.436  32.827  13.853
42886W        W15954  35.535  44.005   2.253
42887W        W15955  34.422   6.820  14.317
42888W        W15956  30.159   8.304  12.819
42889W        W15957  34.968  25.618   4.225
42890W        W15958  18.986  17.640   3.712
42891W        W15959  41.071  20.716  13.905
42892W        W15960  18.274  29.180   1.930
42893W        W15961   7.149  26.135   2.806
42894W        W15962  22.970  26.893  11.549
42895W        W15963  42.412  36.426   2.902
42896W        W15964  33.057   2.871   0.680
42897W        W15965   8.571  29.419   1.087
42898W        W15966  39.051  38.905   4.624
42899W        W15967  31.939   5.728  12.974
42900W        W15968   8.884  11.192   2.728
42901W        W15969  12.754  29.422   1.976
42902W        W15970   9.134  36.383  14.381
42903W        W15971  14.229   5.794   2.905
42904W        W15972  40.383  17.701   1.634
42905W        W15973  13.732   3.200  11.413
42906W        W15974  20.603  10.542  11.121
42907W        W15975   5.450   5.710   0.437
42908W        W15976  39.502  34.630  10.511
42909W        W15977  12.211  36.730  12.047
42910W        W15978  30.011  23.583   0.407
42911W        W15979  42.220  42.348   2.761
42912W        W15980  28.209  40.143  13.889
42913W        W15981   3.375  36.077   0.941
42914W        W15982  29.225  13.206  13.841
42915W        W15983  14.679  13.704   2.358
42916W        W15984  27.743  32.891  13.110
42917W        W15985   4.816  30.412  12.897
42918W        W15986  32.442  41.788   2.870
42919W        W15987  35.894   1.655   4.778
42920W        W15988  14.712  43.048  12.131
42921W        W15989  44.546  36.070  12.496
42922W        W15990  15.347  10.816   2.354
42923W        W15991   7.398   7.245   2.570
42924W        W15992  44.010  19.047   1.215
42925W        W15993  18.691  28.704  13.151
42926W        W15994  42.580  13.577   4.142
42927W        W15995  41.329  37.427  12.896
42928W        W15996  38.581  14.532   4.086
42929W        W15997  33.882  38.342   4.646
42930W        W15998  20.345   2.346   4.933
42931W        W15999  44.496  12.643   3.120
42932W        W16000  18.491  38.980  14.644
42933W        W16001  39.561  36.620   2.797
42934W        W16002  39.937  28.181   1.865
42935W        W16003  13.038  16.847   2.372
42936W        W16004  23.951   2.204  13.450
42937W        W16005   7.444  11.238  13.865
42938W        W16006  31.532  24.688  11.564
42939W        W16007   6.604  18.874  14.500
42940W        W16008   2.997   7.361  12.539
42941W        W16009  41.357   9.844  12.019
42942W        W16010  14.897   9.209   2.241
42943W        W16011  20.176  11.660   3.643
42944W        W16012  34.537  43.947   2.375
42945W        W16013  34.205  25.583   1.887
42946W        W16014  27.116  37.278   0.897
42947W        W16015   7.851  16.991   4.062
42948W        W16016  38.051  18.243   4.453
42949W        W16017  18.146  24.076  10.752
42950W        W16018  26.501  22.588   4.230
42951W        W16019  14.774  18.691   4.926
42952W        W16020  11.602  32.482   0.049
42953W        W16021  13.262  35.434   1.944
42954W        W16022   4.382  19.866   3.144
42955W        W16023  21.693   8.602  14.405
42956W        W16024  36.158  41.556  13.909
42957W        W16025  16.671   6.391  10.652
42958W        W16026  17.543  18.568  10.680
42959W        W16027  43.416   7.089   0.298
42960W        W16028   2.221  11.199  14.923
42961W        W16029  17.206  32.572   1.189
42962W        W16030  15.636  37.103   2.700
42963W        W16031  19.112  20.696   1.373
42964W        W16032   0.074  30.548  11.120
42965W        W16033  16.324   6.134  12.100
42966W        W16034  25.937  13.337   2.296
42967W        W16035  37.926  34.354   2.176
42968W        W16036   1.916  33.811  13.974
42969W        W16037  37.399  42.842  14.386
42970W        W16038   9.623  43.653  14.679
42971W        W16039  17.497  41.542  11.171
42972W        W16040   4.964  27.879  14.491
42973W        W16041  36.107  23.803  10.662
42974W        W16042  14.475  25.523   0.265
42975W        W16043  37.512  36.864  12.502
42976W        W16044   5.469  42.317  13.397
42977W        W16045   6.681  43.062  13.818
42978W        W16046  35.074  33.730   4.566
42979W        W16047  42.303  43.470   4.173
42980W        W16048  37.554  35.996  10.533
42981W        W16049  25.837  27.143  13.862
42982W        W16050  35.021  10.832  10.311
42983W        W16051  10.717  33.097   3.677
42984W        W16052  11.748  38.799   1.757
42985W        W16053  32.522  32.014   1.520
42986W        W16054  17.701  15.132  14.704
42987W        W16055  39.402  31.059  11.110
42988W        W16056   3.970  34.269   1.239
42989W        W16057  38.422  17.488   1.202
42990W        W16058  26.586  31.396   0.491
42991W        W16059   0.526  10.203   9.857
42992W        W16060   1.362  20.467   1.527
42993W        W16061  10.341  17.488   2.866
42994W        W16062  25.592  16.174   4.988
42995W        W16063  30.555   8.243  12.336
42996W        W16064  15.836  38.907   4.141
42997W        W16065  34.096   8.227   0.770
42998W        W16066   9.290   3.152  12.969
42999W        W16067   3.925  27.584   3.365
43000W        W16068  28.115  15.885  12.563
43001W        W16069  18.658  39.326  14.308
43002W        W16070  14.273   2.887   0.253
43003W        W16071  43.954  19.737  14.370
43004W        W16072  16.299   5.945   3.628
43005W        W16073  14.212  13.531  11.947
43006W        W16074  29.437  24.245   0.578
43007W        W16075  32.263  19.545  12.431
43008W        W16076  25.673   1.637   1.723
43009W        W16077  19.188   9.757   0.211
43010W        W16078   7.659   5.905  14.843
43011W        W16079   5.765   6.694  12.990
43012W        W16080  22.934   6.983  11.690
43013W        W16081  43.701  44.997   0.810
43014W        W16082  30.658   9.759  11.042
43015W        W16083  43.939   2.960  14.804
43016W        W16084  32.268   1.941  14.750
43017W        W16085  43.988  16.625   3.445
43018W        W16086  19.642  20.580   2.040
43019W        W16087   3.880   0.590  10.946
43020W        W16088  40.927  31.921   1.479
43021W        W16089  28.086  38.767  12.863
43022W        W16090  26.822  37.107  14.876
43023W        W16091   8.833  30.022  13.733
43024W        W16092  35.983  19.465  13.135
43025W        W16093   0.176  35.821   3.347
43026W        W16094  35.650  10.639  14.112
43027W        W16095  28.924  20.436  14.307
43028W        W16096   4.183  25.111  14.279
43029W        W16097  36.101  43.190  12.705
43030W        W16098   7.196  37.436   2.144
43031W        W16099   4.885   9.941  12.507
43032W        W16100   6.161  36.023  11.889
43033W        W16101  43.325  16.352   0.761
43034W        W16102  31.671   1.724  11.657
43035W        W16103   7.530  32.430  11.202
43036W        W16104  21.979   5.656   0.337
43037W        W16105  35.003  26.877  13.317
43038W        W16106  26.469  13.103  11.549
43039W        W16107  13.530  14.332   3.098
43040W        W16108   5.743  16.032   0.014
43041W        W16109  38.713   0.354   2.803
43042W        W16110  21.578  32.840   0.432
43043W        W16111  32.366  30.903   2.689
43044W        W16112  26.058   8.845   1.942
43045W        W16113   7.245  28.073  14.543
43046W        W16114  17.103  30.998   3.639
43047W        W16115  38.544  39.734  12.941
43048W        W16116  28.804   3.337  13.784
43049W        W16117   3.453  21.441   4.618
43050W        W16118   3.126   2.640  10.475
43051W        W16119  35.499  40.247  10.538
43052W        W16120  15.329  24.317  12.196
43053W        W16121  10.617  18.049   0.706
43054W        W16122   5.489   4.254   3.964
43055W        W16123  42.739  17.131  14.960
43056W        W16124  22.574  25.489   4.796
43057W        W16125   8.920  28.632  11.131
43058W        W16126  21.534  15.658   0.227
43059W        W16127  43.889  26.465   0.710
43060W        W16128  39.092  13.097  10.789
43061W        W16129  28.114   3.809  14.282
43062W        W16130  15.582  39.381  14.514
43063W        W16131   1.266  22.576   0.390
43064W        W16132  10.854  23.527  13.195
43065W        W16133  37.512  27.624  11.030
43066W        W16134  32.475   0.452  12.775
43067W        W16135  18.345   3.333  13.313
43068W        W16136  37.489   4.271  12.749
43069W        W16137  39.239  26.825   9.987
43070W        W16138  19.279  39.909  14.932
43071W        W16139  19.181  22.512  12.169
43072W        W16140  34.108  38.574   0.956
43073W        W16141  23.182   2.509  11.052
43074W        W16142  36.511  25.471   0.527
43075W        W16143  36.865   6.835  14.330
43076W        W16144  10.066   5.695   1.373
43077W        W16145  10.735   4.856   0.380
43078W        W16146  39.323  10.098   4.059
43079W        W16147  23.642  40.825   4.200
43080W        W16148  27.501  37.558   1.648
43081W        W16149  34.412  21.007   1.921
43082W        W16150  36.987  42.814  13.076
43083W        W16151   7.819  42.385  10.431
43084W        W16152  15.694  28.881   2.371
43085W        W16153  36.523  28.356  14.357
43086W        W16154  33.112  28.268   4.509
43087W        W16155  27.927  15.820   3.716
43088W        W16156  24.574  42.200  12.885
43089W        W16157   8.293   7.720   2.684
43090W        W16158  21.567  21.144  10.843
43091W        W16159  16.348  15.087   4.209
43092W        W16160   8.128  21.558   0.895
43093W        W16161  11.843  34.354   0.309
43094W        W16162  21.230  14.005   3.114
43095W        W16163  16.144   1.581   0.767
43096W        W16164  44.501  20.250   1.760
43097W        W16165  18.602  16.989  10.394
43098W        W16166  30.747  25.139  14.490
43099W        W16167  39.247   6.620  13.472
43100W        W16168  20.095   4.645   2.795
43101W        W16169  21.661  22.051  12.305
43102W        W16170  12.683  10.556   0.531
43103W        W16171  23.935   7.467  12.474
43104W        W16172   7.758   1.806   3.118
43105W        W16173  38.991  33.364   0.227
43106W        W16174  40.855  38.628   4.669
43107W        W16175   5.443   3.779   4.512
43108W        W16176   8.793  35.999  12.111
43109W        W16177   1.312  29.745   0.308
43110W        W16178  28.429  29.902   2.573
43111W        W16179  18.187   6.654  11.865
43112W        W16180  14.359  41.894   2.156
43113W        W16181   3.999  17.958   4.780
43114W        W16182  27.592  18.788  11.576
43115W        W16183  43.919  17.258   1.362
43116W        W16184  12.645  44.227   3.272
43117W        W16185  37.890  29.916  13.554
43118W        W16186   7.310  38.442   4.065
43119W        W16187  33.850  11.226   0.251
43120W        W16188  32.220  34.991  12.840
43121W        W16189  32.529   9.646  12.909
43122W        W16190  32.954  15.607   4.977
43123W        W16191  12.853   1.349  11.012
43124W        W16192   3.252  28.964  11.557
43125W        W16193  22.801  34.364  12.442
43126W        W16194   3.878   5.763  14.509
43127W        W16195   1.941  33.958   1.893
43128W        W16196   6.681   8.189  14.411
43129W        W16197  39.942   7.450  10.202
43130W        W16198  38.536  22.341  11.505
43131W        W16199   4.979   2.440  12.109
43132W        W16200  22.984  40.273   1.729
43133W        W16201  13.055  28.745   4.598
43134W        W16202  28.597  10.715   2.866
43135W        W16203   6.709   1.499   1.317
43136W        W16204   2.887  13.127  14.060
43137W        W16205  12.305  27.212   1.764
43138W        W16206  25.542  17.248   3.752
43139W        W16207   0.411   0.299  14.477
43140W        W16208  10.870   5.728   3.660
43141W        W16209  13.820  42.317  13.029
43142W        W16210  38.341   6.926   1.633
43143W        W16211   0.943  17.210  11.115
43144W        W16212  26.420  22.681  14.940
43145W        W16213  15.278  35.703   3.890
43146W        W16214  22.958  27.698   3.619
43147W        W16215  35.871  21.043   4.317
43148W        W16216  11.878   8.369  13.377
43149W        W16217   5.883  32.367  13.410
43150W        W16218  26.287  43.981   3.411
43151W        W16219   7.032  20.092   3.600
43152W        W16220  40.266  27.995   4.213
43153W        W16221   4.978  10.132   4.547
43154W        W16222  35.322  22.511  12.415
43155W        W16223  32.615  35.511  12.424
43156W        W16224   9.329  11.829  13.240
43157W        W16225   7.725  10.310   2.940
43158W        W16226  16.042  44.450  13.150
43159W        W16227   2.033  15.566   4.713
43160W        W16228   9.213  36.818   1.874
43161W        W16229  11.787   9.751  13.961
43162W        W16230  35.882  42.980  14.534
43163W        W16231  18.824  31.332  13.444
43164W        W16232   2.539  28.930  13.998
43165W        W16233  30.724  12.585  11.978
43166W        W16234   3.451  40.563  13.239
43167W        W16235  38.174  20.536   2.274
43168W        W16236  31.896   7.274  11.895
43169W        W16237  13.903  13.741   0.971
43170W        W16238  29.727  21.230   0.642
43171W        W16239  35.439  18.788   3.081
43172W        W16240  39.299  26.156   3.350
43173W        W16241  27.450  21.141   4.175
43174W        W16242  21.806  21.549  11.044
43175W        W16243  25.101   7.294  12.071
43176W        W16244  19.703   5.645   2.903
43177W        W16245  39.962  36.130  11.125
43178W        W16246  14.289  37.307   0.909
43179W        W16247  24.457  27.096   2.689
43180W        W16248  25.999  22.695  11.644
43181W        W16249  19.211  20.058   0.897
43182W        W16250  44.403  29.236  12.117
43183W        W16251  17.372  10.315  14.110
43184W        W16252  13.054   2.423   2.717
43185W        W16253  29.725  19.391  13.051
43186W        W16254   8.651  31.555   1.498
43187W        W16255   9.259   9.792   4.748
43188W        W16256   4.933  27.527   0.326
43189W        W16257  44.202  28.529   2.709
43190W        W16258  37.445  38.446   1.257
43191W        W16259   9.987  15.215   3.862
43192W        W16260  22.680   1.010   1.726
43193W        W16261  43.738  31.363   3.184
43194W        W16262  41.743  32.148   3.612
43195W        W16263   4.603   3.833  14.534
43196W        W16264  44.925  22.237  13.829
43197W        W16265  29.298  20.076  12.362
43198W        W16266  31.030  43.258  13.526
43199W        W16267  41.256   1.286  11.544
43200W        W16268   6.790  16.995  14.950
43201W        W16269  44.028  43.796  12.406
43202W        W16270  32.131  25.941   2.799
43203W        W16271  31.840  23.442   2.226
43204W        W16272   0.572   1.070  11.940
43205W        W16273  35.449   8.812   3.601
43206W        W16274  30.647  32.787  13.516
43207W        W16275   2.427  38.937   1.073
43208W        W16276  18.667  40.926   1.734
43209W        W16277   3.381  30.124  11.950
43210W        W16278  35.826  27.554  13.804
43211W        W16279  24.518   2.454  12.229
43212W        W16280  20.799   6.299   1.688
43213W        W16281  37.087  39.378   4.208
43214W        W16282   1.717  25.531  11.217
43215W        W16283  25.654  12.750   3.588
43216W        W16284  42.377  15.176  11.985
43217W        W16285  24.537  35.399  10.655
43218W        W16286  41.818  10.028  13.486
43219W        W16287  16.690  40.388  13.943
43220W        W16288  20.698  11.218   4.260
43221W        W16289   7.428  21.001  12.966
43222W        W16290  23.081  24.756   0.860
43223W        W16291  11.640   4.322   1.679
43224W        W16292  41.821  44.481   2.898
43225W        W16293  42.189  25.162   1.879
43226W        W16294  34.536  21.688  11.006
43227W        W16295  34.796   8.438   4.085
43228W        W16296  25.637  32.197  13.059
43229W        W16297   3.856   4.408  13.603
43230W        W16298  40.598  40.029   3.782
43231W        W16299  43.143  41.480   1.551
43232W        W16300   4.943   1.884   4.164
43233W        W16301  36.876  35.132  14.335
43234W        W16302  30.737  21.333   2.704
43235W        W16303  42.701  39.509   2.688
43236W        W16304   1.410  23.672   2.279
43237W        W16305  23.693   9.721  14.699
43238W        W16306  36.003  20.489   1.233
43239W        W16307  39.317  10.706   2.287
43240W        W16308  37.160  17.564   0.234
43241W        W16309   0.221  39.989   0.873
43242W        W16310   6.462   3.926  14.934
43243W        W16311  39.439  22.532   2.687
43244W        W16312  18.801  41.615   4.138
43245W        W16313  37.337   7.855  12.448
43246W        W16314  14.272  22.055   2.345
43247W        W16315  35.040   1.240  14.347
43248W        W16316  35.370  13.190   3.909
43249W        W16317  44.334  36.375  12.147
43250W        W16318  40.543  18.600   1.326
43251W        W16319  35.131  38.813  14.945
43252W        W16320  39.710  17.913  11.151
43253W        W16321  40.939  17.507  12.904
43254W        W16322   9.250   8.181   4.567
43255W        W16323  41.055  17.752  11.890
43256W        W16324  12.258  31.393  13.020
43257W        W16325  28.088  42.483  10.529
43258W        W16326   6.729  26.827  14.033
43259W        W16327  31.317  14.182  12.907
43260W        W16328   2.669  14.802   2.624
43261W        W16329  25.345  41.728  13.976
43262W        W16330  16.091   7.568  13.912
43263W        W16331  33.558   6.267   0.080
43264W        W16332  27.360  25.089  11.398
43265W        W16333  10.191   9.861  14.921
43266W        W16334  39.452  13.226   3.238
43267W        W16335  21.107  43.880  13.922
43268W        W16336   5.731   8.298   2.147
43269W        W16337  24.444  18.420   2.793
43270W        W16338  11.304  39.088  14.418
43271W        W16339   6.305   9.810   0.071
43272W        W16340  36.030  26.751  10.191
43273W        W16341  38.018  39.509   2.953
43274W        W16342  44.777  28.543   0.245
43275W        W16343  16.859  29.962   0.992
43276W        W16344  26.954  21.195  13.850
43277W        W16345  44.686   2.813  13.806
43278W        W16346  23.794   2.900  14.446
43279W        W16347  42.790   1.252  12.552
43280W        W16348  20.852  31.594   1.301
43281W        W16349  26.259   6.279   0.213
43282W        W16350  28.640   7.206  12.469
43283W        W16351  18.504  21.272  12.412
43284W        W16352  21.831  21.928  14.835
43285W        W16353  40.376   2.394  11.923
43286W        W16354  36.095   5.915  14.860
43287W        W16355  12.562  29.008  12.427
43288W        W16356  24.943   5.349   3.737
43289W        W16357  21.587   8.310   2.667
43290W        W16358  36.505   3.441  13.504
43291W        W16359  12.132  24.519   2.073
43292W        W16360  13.281  35.029  13.345
43293W        W16361  36.560  44.013  13.096
43294W        W16362  18.388  18.779  12.801
43295W        W16363  36.692   5.863  11.894
43296W        W16364  39.457  11.338   4.476
43297W        W16365  30.642   4.780   2.082
43298W        W16366  35.146   9.359  12.463
43299W        W16367  31.405   8.723  13.223
43300W        W16368  31.170  19.181  13.134
43301W        W16369   0.974  42.608  13.901
43302W        W16370  28.249  21.257   2.887
43303W        W16371  36.420   7.614   1.865
43304W        W16372  18.220  34.172  12.515
43305W        W16373  31.400  40.986   4.617
43306W        W16374   7.386  15.363   1.750
43307W        W16375  30.269  13.080   2.013
43308W        W16376   5.854  17.269  12.599
43309W        W16377  39.536  27.235  13.137
43310W        W16378  10.257   9.364   4.263
43311W        W16379   3.973  20.839   1.373
43312W        W16380  14.587  41.733   0.512
43313W        W16381  27.094  15.331   1.302
43314W        W16382  29.901  15.311   3.100
43315W        W16383  31.870  40.906   3.594
43316W        W16384  40.935  41.710  13.848
43317W        W16385  41.595  16.735   5.061
43318W        W16386  28.927   5.239   0.008
43319W        W16387  19.515  42.464  13.345
43320W        W16388  43.402  15.288  11.341
43321W        W16389   1.362  37.391   3.994
43322W        W16390  21.611  12.692   1.621
43323W        W16391  29.721  26.656   3.749
43324W        W16392   0.011  26.646   3.316
43325W        W16393   4.375  37.225  13.473
43326W        W16394  25.975   0.381   2.547
43327W        W16395  25.167  29.375   4.142
43328W        W16396   1.895  12.077   2.310
43329W        W16397  30.127  38.309  12.385
43330W        W16398  25.710  24.808   2.179
43331W        W16399  42.943  32.508   1.439
43332W        W16400  32.826  26.656   0.398
43333W        W16401  17.858  32.121   3.261
43334W        W16402  42.133  35.512   4.503
43335W        W16403  16.875   8.758   4.185
43336W        W16404  24.238  41.475   4.116
43337W        W16405  26.958  30.615  11.595
43338W        W16406  31.403  31.089   2.809
43339W        W16407  16.631  33.240  11.238
43340W        W16408   4.831   2.409  10.797
43341W        W16409  19.313  37.608   4.064
43342W        W16410  41.812  11.204   0.832
43343W        W16411  24.728  44.899  11.855
43344W        W16412  12.059  10.897   2.328
43345W        W16413  14.332  21.225   3.387
43346W        W16414  41.001  29.202  14.832
43347W        W16415  34.007  42.411   3.918
43348W        W16416   5.629  15.310  10.755
43349W        W16417  13.689  43.424   2.262
43350W        W16418  44.682  14.261   4.724
43351W        W16419  31.457   2.742   0.924
43352W        W16420  21.293  25.970  11.059
43353W        W16421   3.502   1.710  13.050
43354W        W16422  31.088  27.148  12.865
43355W        W16423  10.434   9.873   2.902
43356W        W16424   1.917   1.365   2.202
43357W        W16425  13.253  32.099   0.158
43358W        W16426  16.677  28.600   4.105
43359W        W16427  10.716  41.776  10.305
43360W        W16428  38.380  16.252   2.296
43361W        W16429   7.912  33.987   1.750
43362W        W16430  21.846   7.584   2.306
43363W        W16431  19.781  12.199  13.012
43364W        W16432  25.493  26.973  11.565
43365W        W16433   8.344  19.214   1.963
43366W        W16434   8.365  14.117   4.736
43367W        W16435  27.882  27.697   1.363
43368W        W16436  23.441  37.071   1.274
43369W        W16437  13.008   4.131   1.358
43370W        W16438  42.906  36.814   4.129
43371W        W16439  19.804  13.164   1.972
43372W        W16440  38.276  44.432  10.371
43373W        W16441  34.476  20.384  10.639
43374W        W16442   4.870  28.412   0.199
43375W        W16443  16.507  42.899  14.736
43376W        W16444  31.708  19.745   1.046
43377W        W16445  17.316   6.134   0.810
43378W        W16446  17.843  17.796  13.748
43379W        W16447  43.272  11.709   1.479
43380W        W16448  15.112   0.452  13.454
43381W        W16449   2.731  32.261  12.525
43382W        W16450  16.229   7.955   1.837
43383W        W16451   6.639  22.555   1.571
43384W        W16452  29.423   2.000  12.032
43385W        W16453  32.013  32.537  13.953
43386W        W16454  22.618  23.166  14.915
43387W        W16455  36.948  23.937   4.570
43388W        W16456  24.447  26.279   2.608
43389W        W16457  18.699  26.178  12.066
43390W        W16458   6.581  35.916   0.380
43391W        W16459  29.669   5.774  13.748
43392W        W16460  27.975   6.405  10.969
43393W        W16461  33.845  37.083  13.098
43394W        W16462  24.044  44.471  13.102
43395W        W16463  20.985   1.361  14.513
43396W        W16464  35.431  30.458   0.956
43397W        W16465   3.982  11.290   3.724
43398W        W16466  34.377  36.060   4.314
43399W        W16467  17.181   5.898   1.263
43400W        W16468  29.080  33.803   0.025
43401W        W16469  13.741  37.816  14.841
43402W        W16470  22.950  20.743  11.575
43403W        W16471  41.858  43.977  13.287
43404W        W16472  41.572  33.090   4.232
43405W        W16473  20.123  15.807   2.289
43406W        W16474   4.438  30.754   1.274
43407W        W16475  18.273  12.910  10.990
43408W        W16476   3.419  40.001   0.787
43409W        W16477  33.442   2.867   4.367
43410W        W16478  10.981  10.676   4.559
43411W        W16479  37.792  29.884  11.922
43412W        W16480  20.636  15.871   2.421
43413W        W16481  26.956  42.293   1.466
43414W        W16482  43.935  26.599  11.470
43415W        W16483  42.551  15.057   2.745
43416W        W16484  34.038  28.610   4.187
43417W        W16485  30.203  17.444   2.358
43418W        W16486   0.037  43.843   2.342
43419W        W16487   3.849  42.790   2.704
43420W        W16488  19.101  15.774  14.698
43421W        W16489  25.294  34.532   2.839
43422W        W16490  41.017   3.194  13.821
43423W        W16491  36.887  26.504   1.347
43424W        W16492  20.587  35.207   4.499
43425W        W16493  15.200   6.465  14.280
43426W        W16494  20.486  44.777   2.790
43427W        W16495  41.450  41.983  13.498
43428W        W16496  43.360  24.762   2.360
43429W        W16497  37.131   9.346   3.175
43430W        W16498   7.703   9.395  14.987
43431W        W16499   8.664   5.493   0.402
43432W        W16500  24.261  37.477   0.038
43433W        W16501  27.617  12.650   2.197
43434W        W16502  41.350  36.210   3.742
43435W        W16503  12.226  23.453  12.194
43436W        W16504   3.062  36.435   2.079
43437W        W16505  14.312  32.485  11.330
43438W        W16506  10.117  17.225  12.100
43439W        W16507  27.449  37.597   4.468
43440W        W16508  43.259  15.808  11.939
43441W        W16509  38.796  24.931  10.822
43442W        W16510   8.181  42.589  12.958
43443W        W16511  33.345  10.459   3.656
43444W        W16512   5.502  13.027  11.252
43445W        W16513   6.912  41.725  12.917
43446W        W16514  10.313  38.364  11.571
43447W        W16515   1.362  27.108   4.251
43448W        W16516  44.828  18.540  11.568
43449W        W16517   9.239  27.441  13.825
43450W        W16518  18.700  23.634   4.374
43451W        W16519   5.620  33.188   2.485
43452W        W16520  31.428   3.958   4.224
43453W        W16521  20.068  39.848   1.242
43454W        W16522   4.549  19.976   3.616
43455W        W16523  19.108  16.709   2.402
43456W        W16524   9.890  33.632   4.609
43457W        W16525  31.052  23.641   3.060
43458W        W16526  22.190  35.342   3.259
43459W        W16527  27.516   6.913  13.389
43460W        W16528  11.872   3.178   0.821
43461W        W16529  20.760  39.902   1.985
43462W        W16530  20.474  38.589   3.162
43463W        W16531   1.944  43.019  11.158
43464W        W16532   4.544  31.018   2.789
43465W        W16533  43.316  36.124  13.791
43466W        W16534  42.565  23.088  13.726
43467W        W16535  29.132  43.864  11.708
43468W        W16536  16.563  11.795  14.223
43469W        W16537   7.495   2.934   4.142
43470W        W16538  41.135   8.833  11.501
43471W        W16539   7.242  12.832  13.894
43472W        W16540  15.759  33.390   3.683
43473W        W16541  22.729  24.304   3.727
43474W        W16542  13.988  38.657  13.888
43475W        W16543  33.174  19.590  12.987
43476W        W16544  43.835   9.205  10.773
43477W        W16545  37.686  26.145   1.260
43478W        W16546  38.123  32.044  12.555
43479W        W16547   6.140  44.898   1.351
43480W        W16548   5.574  34.475  11.145
43481W        W16549   1.853  38.008   3.599
43482W        W16550  32.895  37.756  10.985
43483W        W16551  40.039  34.244   4.549
43484W        W16552  23.708  31.719   0.322
43485W        W16553  23.189  25.930  14.884
43486W        W16554  37.434   9.238  10.815
43487W        W16555  11.831  40.795   1.093
43488W        W16556  34.948  11.245   2.785
43489W        W16557   4.783  38.775  10.688
43490W        W16558  25.519  38.976  10.696
43491W        W16559   9.621   9.425   1.885
43492W        W16560  44.568  14.318  12.489
43493W        W16561  14.570  23.480  13.953
43494W        W16562  37.838  27.609  10.625
43495W        W16563  30.684  41.286   4.977
43496W        W16564  43.986   8.420  11.989
43497W        W16565  24.513   9.964   3.557
43498W        W16566  28.108  29.460   2.313
43499W        W16567   9.854  23.342  12.514
43500W        W16568  16.092  14.749  14.776
43501W        W16569  33.451  29.052  10.053
43502W        W16570  26.696  28.992   3.704
43503W        W16571  13.586  44.629  13.501
43504W        W16572  35.486  26.559  10.433
43505W        W16573  10.372   4.788   2.738
43506W        W16574   5.036   7.815   5.208
43507W        W16575   4.474   4.408  14.881
43508W        W16576  17.490  20.299  12.448
43509W        W16577   0.519  12.035  11.087
43510W        W16578  25.409   2.069   0.897
43511W        W16579   3.052  34.798   3.159
43512W        W16580  23.186   1.802  10.702
43513W        W16581  32.557   9.142   1.502
43514W        W16582  12.862  13.749   4.049
43515W        W16583   5.902  35.809   0.017
43516W        W16584  33.680  41.892   4.854
43517W        W16585   3.708  19.056   0.635
43518W        W16586  16.745  11.436  14.698
43519W        W16587  39.493   2.489  14.199
43520W        W16588  41.768  20.351  14.252
43521W        W16589  39.336  15.378  12.930
43522W        W16590  20.184   2.300  12.003
43523W        W16591  13.966  19.059  11.581
43524W        W16592  40.104  27.360   3.141
43525W        W16593  28.729  12.735   3.319
43526W        W16594  30.568  14.655   1.178
43527W        W16595  13.563  40.558   4.722
43528W        W16596  15.240   5.542   4.631
43529W        W16597  19.823   3.060   1.313
43530W        W16598  12.129  21.494   1.920
43531W        W16599   3.999   9.244  10.508
43532W        W16600   6.078  35.690   2.059
43533W        W16601  22.789  17.868  14.684
43534W        W16602  32.030  26.711   3.133
43535W        W16603  39.002  23.709  10.786
43536W        W16604  22.479  18.254  14.922
43537W        W16605  28.481   9.871   1.868
43538W        W16606  24.045  22.588   3.558
43539W        W16607  39.503  36.827  11.487
43540W        W16608  11.954  42.728  10.414
43541W        W16609  39.444  16.621  10.951
43542W        W16610  34.559  35.460   2.227
43543W        W16611  27.973  29.935   1.016
43544W        W16612  16.003  13.135   4.012
43545W        W16613  25.709  39.453  12.008
43546W        W16614  22.035  32.953  14.726
43547W        W16615  40.385  27.134  13.641
43548W        W16616  26.201  19.748  12.563
43549W        W16617   5.807  24.998   4.262
43550W        W16618  28.609  42.459   0.267
43551W        W16619  26.936   9.706   0.897
43552W        W16620  30.593   0.161   3.290
43553W        W16621  35.135  20.262  12.177
43554W        W16622  32.124   1.649  11.339
43555W        W16623  29.055   0.716   4.599
43556W        W16624  37.208  12.163  13.685
43557W        W16625   3.878  44.430  13.615
43558W        W16626  22.484  40.606  10.683
43559W        W16627   5.122  10.325   3.285
43560W        W16628  12.095  19.370  12.597
43561W        W16629   1.921   1.329  13.946
43562W        W16630   0.550  25.952   4.564
43563W        W16631  41.550  24.695  13.482
43564W        W16632  13.332   3.829   4.765
43565W        W16633  19.703   1.348  11.345
43566W        W16634  33.306   3.229  14.717
43567W        W16635  25.061  19.089   4.928
43568W        W16636  30.447  16.961   0.195
43569W        W16637   4.841  19.527   3.672
43570W        W16638  23.433  10.456   1.946
43571W        W16639   0.246  28.698  11.553
43572W        W16640  38.309   8.266   0.042
43573W        W16641   8.396  25.540  12.596
43574W        W16642  44.694  35.628  11.446
43575W        W16643  35.889  20.709  11.002
43576W        W16644  13.781  29.968   1.907
43577W        W16645  34.955  31.880   1.176
43578W        W16646  37.477  44.696   2.240
43579W        W16647  14.475  33.758   9.898
43580W        W16648  30.626  30.528  13.460
43581W        W16649  34.519   2.636   0.891
43582W        W16650  28.996  32.565   2.822
43583W        W16651  25.293  25.579  10.626
43584W        W16652  37.798  18.739  10.496
43585W        W16653  32.487  27.548   4.570
43586W        W16654  26.711  36.262   3.844
43587W        W16655  35.989   7.906  12.386
43588W        W16656  42.004  21.038   0.814
43589W        W16657   7.316  12.818   2.440
43590W        W16658  19.332  43.126  13.045
43591W        W16659  39.306  42.982  10.438
43592W        W16660  32.844  16.620   4.157
43593W        W16661   9.906   3.481  11.586
43594W        W16662  22.656  42.367  13.286
43595W        W16663  23.036  40.834  12.368
43596W        W16664   7.225  17.831  13.668
43597W        W16665  38.330  42.494  14.744
43598W        W16666  25.484  15.795   0.940
43599W        W16667   1.368  31.887  14.472
43600W        W16668   1.924  25.954  14.013
43601W        W16669  41.984  19.303  11.631
43602W        W16670  25.959  16.301   2.337
43603W        W16671  12.855  35.648   2.222
43604W        W16672  30.482  35.458  13.061
43605W        W16673   3.484  40.134   3.159
43606W        W16674  43.275  15.600  13.315
43607W        W16675   4.981  27.446  12.992
43608W        W16676  20.753  12.165  12.054
43609W        W16677   7.706  14.310   5.213
43610W        W16678  35.812  31.400   0.732
43611W        W16679  29.849  44.690   2.893
43612W        W16680  34.066   0.229   2.264
43613W        W16681  11.422  27.965  13.567
43614W        W16682  44.543  43.086   5.094
43615W        W16683  14.097  39.887   2.237
43616W        W16684   2.036  10.768   0.802
43617W        W16685  32.851  14.627   0.543
43618W        W16686  38.794  15.409   2.369
43619W        W16687  21.136  17.259   3.764
43620W        W16688  36.468   8.503  11.884
43621W        W16689  41.292  41.349  12.591
43622W        W16690   2.384  26.072  14.953
43623W        W16691  16.145   6.152   4.090
43624W        W16692  27.552  25.472   4.439
43625W        W16693  27.136  35.556  14.317
43626W        W16694  39.045  12.193  10.878
43627W        W16695   8.054  36.769   2.708
43628W        W16696   3.105  29.209   2.684
43629W        W16697  34.161  28.816  11.414
43630W        W16698  33.277  16.956  10.818
43631W        W16699  26.725  17.344  10.901
43632W        W16700  38.495  29.064   4.510
43633W        W16701  22.492   1.697   4.540
43634W        W16702  13.303  43.009  14.011
43635W        W16703  43.239  26.617  12.900
43636W        W16704  29.359   9.757  12.604
43637W        W16705  12.137   9.314  11.511
43638W        W16706  44.701  35.885  14.560
43639W        W16707  12.798  26.958   4.672
43640W        W16708  38.117  31.632  13.852
43641W        W16709  29.023  38.064  13.942
43642W        W16710  44.242  22.713   1.737
43643W        W16711  33.604  43.058  14.024
43644W        W16712  13.758  10.184  10.930
43645W        W16713  40.368  12.004   2.422
43646W        W16714   8.750  29.502   0.066
43647W        W16715   6.691   7.823   3.277
43648W        W16716  27.390   5.962  14.359
43649W        W16717  11.680  24.558  12.270
43650W        W16718   1.264  40.473   1.178
43651W        W16719  20.118  37.356  14.465
43652W        W16720  39.530   6.668   5.034
43653W        W16721  36.750  34.995  11.719
43654W        W16722  35.523  31.494  10.584
43655W        W16723   2.354  17.781   4.516
43656W        W16724   2.203   6.756   1.317
43657W        W16725  39.672  35.466  12.479
43658W        W16726  34.476  43.049   2.220
43659W        W16727  22.561  34.344  14.231
43660W        W16728  18.496  11.348   3.419
43661W        W16729  26.927   2.905  13.837
43662W        W16730  26.171   2.322   0.529
43663W        W16731  17.773  22.238  12.610
43664W        W16732  41.278  34.379  14.431
43665W        W16733  20.984  28.457  12.082
43666W        W16734   5.167  42.900  10.400
43667W        W16735  21.564  31.604  14.761
43668W        W16736   2.265   7.718   4.608
43669W        W16737  13.123  30.570  14.714
43670W        W16738  31.804  37.928  12.172
43671W        W16739  23.651  23.912  10.802
43672W        W16740  41.052  37.724   3.751
43673W        W16741  25.564   3.729  12.473
43674W        W16742  30.381  35.016  14.458
43675W        W16743  24.736  18.099  14.296
43676W        W16744   8.682  18.376   3.716
43677W        W16745  15.436  19.628   4.181
43678W        W16746  39.330  12.356  10.026
43679W        W16747  15.300  14.852  10.662
43680W        W16748   3.742  32.593   1.765
43681W        W16749  31.633  43.198  12.950
43682W        W16750  24.670  26.942   0.690
43683W        W16751   6.890  36.734  14.982
43684W        W16752  22.769   5.194   3.266
43685W        W16753  33.513  26.946   4.919
43686W        W16754  43.753  12.178   3.339
43687W        W16755  35.974  14.406  13.330
43688W        W16756  38.262  33.427  11.591
43689W        W16757   6.810  18.266   1.903
43690W        W16758   2.204  35.987  14.384
43691W        W16759  31.890  19.666  14.406
43692W        W16760  18.241   2.961  12.191
43693W        W16761  38.708  16.256  13.837
43694W        W16762  12.084   0.806   0.179
43695W        W16763   8.758  42.684  11.834
43696W        W16764  40.284   8.758   4.535
43697W        W16765  12.062  17.369  14.149
43698W        W16766  10.926  44.209   4.137
43699W        W16767   7.697  43.735  10.673
43700W        W16768  31.451  33.046  14.873
43701W        W16769   6.864  19.602   3.701
43702W        W16770  39.893   2.752   1.712
43703W        W16771  11.184  30.057   1.807
43704W        W16772   3.551  26.015   1.792
43705W        W16773   8.738  17.267  12.553
43706W        W16774  35.505  41.682   4.861
43707W        W16775  26.701  26.364   3.593
43708W        W16776   2.222  29.240   0.753
43709W        W16777  42.452  20.204   0.336
43710W        W16778  33.076   9.522  14.843
43711W        W16779  39.877  36.449   0.050
43712W        W16780   3.816  21.768  13.915
43713W        W16781  28.547   6.404   3.847
43714W        W16782   7.516  28.052  13.071
43715W        W16783  40.151  25.717  13.980
43716W        W16784  32.145   3.724  13.914
43717W        W16785  31.150   6.844  11.968
43718W        W16786  39.063   2.425  13.929
43719W        W16787  16.322  17.190   3.736
43720W        W16788  20.023  32.940   1.304
43721W        W16789  12.145  40.298   4.938
43722W        W16790  24.253   5.846   2.601
43723W        W16791  11.614  43.901  11.689
43724W        W16792  39.371  26.273  10.603
43725W        W16793  11.323   0.062   0.583
43726W        W16794  13.503  42.853   4.521
43727W        W16795  37.549  37.876  13.810
43728W        W16796   3.563   6.159   1.346
43729W        W16797  17.956  34.421  14.086
43730W        W16798  28.490   3.122  11.537
43731W        W16799   7.501  17.505   4.760
43732W        W16800   0.981   6.468   5.129
43733W        W16801   8.366  39.652  10.664
43734W        W16802  15.092  40.755  11.489
43735W        W16803  27.217  21.106   3.716
43736W        W16804   8.650  19.007  13.384
43737W        W16805  24.727  27.363   0.385
43738W        W16806   6.772  32.418   4.612
43739W        W16807  36.605  33.566  13.561
43740W        W16808  15.624  37.106   4.580
43741W        W16809  32.482  18.303   1.585
43742W        W16810   0.256  13.172   4.546
43743W        W16811   9.336  28.602   1.322
43744W        W16812  36.547  10.602  10.623
43745W        W16813  36.345  15.204   4.545
43746W        W16814  28.898   3.865  13.843
43747W        W16815  30.039   5.477   3.567
43748W        W16816  25.220  10.145   3.794
43749W        W16817  20.184  15.110   0.718
43750W        W16818   9.921  23.277   2.419
43751W        W16819  19.749  41.713  12.063
43752W        W16820  42.370  37.976   1.859
43753W        W16821   6.944  27.497  14.431
43754W        W16822  20.753  31.133   4.542
43755W        W16823   6.360  21.137  13.286
43756W        W16824  40.738  43.773   2.783
43757W        W16825  33.932  34.463   3.549
43758W        W16826  38.047  13.450  12.625
43759W        W16827  44.949  28.474   3.254
43760W        W16828  44.748  40.315  10.456
43761W        W16829   6.822  17.561   1.175
43762W        W16830  42.396  23.403  14.471
43763W        W16831  21.691  24.440  10.616
43764W        W16832  36.127  26.609   0.051
43765W        W16833  11.326  24.924   2.113
43766W        W16834  26.149  22.783  12.930
43767W        W16835  37.035   3.522   2.429
43768W        W16836  10.275   8.914   0.994
43769W        W16837  14.221  15.364   3.891
43770W        W16838  28.214  37.619   2.287
43771W        W16839  37.092  28.556  11.603
43772W        W16840  17.248   4.350   3.863
43773W        W16841  44.386   8.411   4.166
43774W        W16842  19.786   1.267   1.377
43775W        W16843  41.870   1.862   3.423
43776W        W16844  25.810  30.173  12.916
43777W        W16845  36.886   0.258   1.337
43778W        W16846  19.250  35.195  12.906
43779W        W16847  34.174  28.110   3.782
43780W        W16848  10.163  26.004   4.169
43781W        W16849  31.903   8.012  10.913
43782W        W16850   0.207  15.562   3.140
43783W        W16851   9.570  10.228  11.891
43784W        W16852  24.144   3.563  10.217
43785W        W16853   1.564   1.248  12.027
43786W        W16854  23.229  33.352   3.588
43787W        W16855  30.905  23.701   4.052
43788W        W16856  11.181  16.626  12.616
43789W        W16857  15.387  29.376   4.707
43790W        W16858   6.802  42.522   3.255
43791W        W16859  20.216  42.051  11.430
43792W        W16860  19.649  14.520  10.638
43793W        W16861  14.394  14.210  10.670
43794W        W16862   9.942   7.341  14.825
43795W        W16863  41.429   0.679  10.684
43796W        W16864  14.829  39.532   0.968
43797W        W16865  29.690  22.783   0.409
43798W        W16866   0.818  31.765   0.242
43799W        W16867   6.704  19.886   4.545
43800W        W16868  18.507   6.969  14.917
43801W        W16869  28.714   6.915   4.257
43802W        W16870  20.093   3.870  14.017
43803W        W16871   8.441  31.101   1.666
43804W        W16872   7.023   9.912   2.299
43805W        W16873  13.330  32.905   4.173
43806W        W16874   0.730   7.716  14.328
43807W        W16875  30.301   7.631   2.326
43808W        W16876  10.680  19.365  12.501
43809W        W16877  31.600  37.946   4.914
43810W        W16878  37.546  17.540  10.843
43811W        W16879   7.273   8.865   3.547
43812W        W16880  24.598  29.148  14.489
43813W        W16881   0.716  27.995   5.140
43814W        W16882   2.000  22.861  11.766
43815W        W16883  35.030  38.505   0.942
43816W        W16884  16.650  27.152  12.397
43817W        W16885   4.886  27.167   4.850
43818W        W16886  24.704  43.430  13.886
43819W        W16887  19.447  10.224  12.991
43820W        W16888  18.481  36.421   0.976
43821W        W16889  43.800  12.965  12.132
43822W        W16890  14.261  27.491  11.237
43823W        W16891  43.944   1.219  14.573
43824W        W16892  25.681  23.716  13.010
43825W        W16893  15.622  31.905  11.580
43826W        W16894  40.154   3.248  14.414
43827W        W16895   7.764   4.349   1.224
43828W        W16896  39.358  10.362  11.895
43829W        W16897  15.939   2.766  11.374
43830W        W16898   9.830  27.108  10.330
43831W        W16899   6.015  13.256  13.859
43832W        W16900  35.349  37.825   4.074
43833W        W16901   0.560  10.412  12.804
43834W        W16902   0.761   5.677  14.984
43835W        W16903  18.217   6.616  11.358
43836W        W16904  37.308   5.343  11.100
43837W        W16905  16.777   5.931  13.843
43838W        W16906  16.739  31.656   4.300
43839W        W16907  35.801  18.419   2.839
43840W        W16908  43.280  38.906  14.127
43841W        W16909  37.457  33.435  11.976
43842W        W16910  16.722   5.335   2.934
43843W        W16911  35.330  36.785   1.817
43844W        W16912  28.926  18.317  12.926
43845W        W16913  15.136   1.817  12.400
43846W        W16914  41.441   9.173   1.946
43847W        W16915  12.787  23.404  14.733
43848W        W16916  10.765  19.878  12.357
43849W        W16917  25.991  16.634   4.560
43850W        W16918  34.572   2.372   1.562
43851W        W16919   3.915  39.873   1.206
43852W        W16920  32.810  17.079  11.039
43853W        W16921   1.191  10.140  11.605
43854W        W16922   5.413  44.429   1.437
43855W        W16923  19.935  25.642   3.636
43856W        W16924  33.347   9.852   3.673
43857W        W16925  11.411  32.631   1.354
43858W        W16926   6.350  38.212   2.714
43859W        W16927  32.184   3.494  11.249
43860W        W16928  16.085  10.588   0.392
43861W        W16929  38.373  26.151  13.897
43862W        W16930   1.182  22.699   1.302
43863W        W16931  21.487  23.095   3.567
43864W        W16932  40.002  27.499   2.654
43865W        W16933  11.547  28.188   1.657
43866W        W16934  26.974  20.514  13.298
43867W        W16935   4.440  27.464   1.348
43868W        W16936  36.844   3.235  12.166
43869W        W16937  37.490  18.722   3.242
43870W        W16938  28.910  34.957   1.851
43871W        W16939  36.686  30.358   3.236
43872W        W16940  37.788  43.825   0.393
43873W        W16941  35.321  23.473  11.616
43874W        W16942  23.214  28.025  12.078
43875W        W16943   7.353  31.151  13.544
43876W        W16944  29.941  39.993  13.116
43877W        W16945  31.700  13.397   1.486
43878W        W16946  23.870  34.081   4.121
43879W        W16947  34.984  13.460   4.117
43880W        W16948   3.607   7.830  13.840
43881W        W16949  22.498  36.767  10.993
43882W        W16950  39.004  18.415  13.022
43883W        W16951  39.066  27.571   0.894
43884W        W16952  35.669  23.519  10.743
43885W        W16953  37.525  33.666   4.208
43886W        W16954  16.302  27.686   4.661
43887W        W16955  33.095  34.668  14.019
43888W        W16956  24.183  25.875   1.863
43889W        W16957  21.974  31.506  10.893
43890W        W16958  24.671   1.768   1.342
43891W        W16959  35.312  14.826   2.340
43892W        W16960  29.390  20.701   1.251
43893W        W16961  33.842   5.274  14.958
43894W        W16962  17.117  23.642   1.280
43895W        W16963   3.664   2.120  12.408
43896W        W16964  36.272  35.062  10.009
43897W        W16965  27.887  28.046   9.994
43898W        W16966  12.701  26.791  14.428
43899W        W16967  23.212   5.458   4.209
43900W        W16968  26.513  10.247  12.567
43901W        W16969  12.777  44.718   4.192
43902W        W16970  34.721  34.354   1.115
43903W        W16971  10.375  35.492   4.749
43904W        W16972   3.533  10.091   4.653
43905W        W16973  15.142   2.019  10.499
43906W        W16974  22.782  27.661   4.126
43907W        W16975   6.424  35.941   1.722
43908W        W16976  43.430   5.268  10.855
43909W        W16977  11.271  36.145  11.465
43910W        W16978  32.169  37.300  10.335
43911W        W16979  27.400  23.622   0.883
43912W        W16980  37.340  15.045  11.619
43913W        W16981  15.631   7.247  11.618
43914W        W16982  39.831  10.648   1.322
43915W        W16983  39.240   8.724   4.610
43916W        W16984  42.985   9.285   4.076
43917W        W16985  32.838  32.551  14.466
43918W        W16986  27.814  18.140   2.734
43919W        W16987  43.231  16.329  13.917
43920W        W16988   5.903   7.388   1.641
43921W        W16989  42.393  38.787  14.270
43922W        W16990  12.307  29.987  11.163
43923W        W16991  22.761  38.015   4.202
43924W        W16992  32.550  41.664   4.549
43925W        W16993  13.098  14.150  10.431
43926W        W16994  13.387  10.236   0.415
43927W        W16995  34.066  37.857   3.476
43928W        W16996  10.054  23.147  10.345
43929W        W16997  36.879  19.274   4.930
43930W        W16998  36.196  12.987   3.433
43931W        W16999  11.650  31.044   4.041
43932W        W17000  41.468  38.358   3.727
43933W        W17001   9.239  40.319   5.044
43934W        W17002  14.154  15.254   2.884
43935W        W17003  44.443  42.795   1.955
43936W        W17004  43.240   9.207  13.317
43937W        W17005   2.202   7.739   2.375
43938W        W17006  16.594  44.945  11.548
43939W        W17007   0.542  12.740  11.597
43940W        W17008  31.598  42.334   1.471
43941W        W17009  32.887   2.406  13.105
43942W        W17010  32.996  40.970  13.182
43943W        W17011  42.934  30.399   2.218
43944W        W17012  13.695   9.153  13.749
43945W        W17013  40.877   4.127   0.074
43946W        W17014  17.259  30.276   0.720
43947W        W17015  26.751  29.073  14.406
43948W        W17016  44.546  43.401   1.338
43949W        W17017  25.263  25.714   4.780
43950W        W17018  30.429  26.593  13.335
43951W        W17019   3.475  35.557   0.825
43952W        W17020   3.178  30.038  11.390
43953W        W17021  26.698  35.527   3.087
43954W        W17022  25.499  38.731   1.030
43955W        W17023   7.420  42.920  13.392
43956W        W17024  10.158  23.555  14.910
43957W        W17025  24.805  19.441  11.110
43958W        W17026  38.607  14.733   0.189
43959W        W17027  18.248   8.398  12.354
43960W        W17028  19.260   8.372   4.182
43961W        W17029  28.672  28.061  14.994
43962W        W17030  22.133  17.185   3.463
43963W        W17031  21.705  28.134  14.713
43964W        W17032  16.482  12.289   1.777
43965W        W17033  22.294  35.649   1.444
43966W        W17034   2.010   7.283  12.375
43967W        W17035   7.464  18.298  11.138
43968W        W17036   1.026  15.717  11.851
43969W        W17037   2.321  36.511  11.164
43970W        W17038  26.696  36.857  14.428
43971W        W17039  24.518  28.891  14.048
43972W        W17040   1.391   3.374  13.554
43973W        W17041  37.055  33.533   3.147
43974W        W17042  18.641   2.546   1.465
43975W        W17043   4.686   9.436   4.980
43976W        W17044  30.998  25.553   3.941
43977W        W17045   6.345  32.703   1.232
43978W        W17046  20.579  39.755   2.433
43979W        W17047  34.570   5.351  10.642
43980W        W17048  15.659  10.054   3.143
43981W        W17049  35.462   6.228  11.093
43982W        W17050  34.528  26.712   1.834
43983W        W17051  31.895  41.603  14.603
43984W        W17052  22.574  33.416   0.862
43985W        W17053  17.368  24.678  14.385
43986W        W17054   5.303  25.432   1.383
43987W        W17055   5.284  22.348   2.841
43988W        W17056   3.364  14.173  14.927
43989W        W17057  39.476   9.425  10.723
43990W        W17058  39.030  10.619  13.333
43991W        W17059   8.402  19.643  10.757
43992W        W17060  28.625  22.680   2.648
43993W        W17061  34.853  16.525   0.745
43994W        W17062  14.357   7.374  11.429
43995W        W17063  32.613  16.864  12.706
43996W        W17064   7.253  28.168  10.649
43997W        W17065  14.752  27.254   3.696
43998W        W17066   7.208   3.283   4.405
43999W        W17067  13.240  18.988  13.538
44000W        W17068  42.678  26.230   3.685
44001W        W17069  17.280  29.969   2.421
44002W        W17070   7.731  23.634   2.142
44003W        W17071   0.188   9.102   4.885
44004W        W17072  37.447   8.922   1.305
44005W        W17073  27.968   4.272  10.765
44006W        W17074  34.124  35.775   0.187
44007W        W17075  36.422  32.064   3.703
44008W        W17076  18.042  43.353  11.622
44009W        W17077  14.147  38.866   4.079
44010W        W17078  29.168  16.711  10.650
44011W        W17079  42.913  11.070   4.319
44012W        W17080   5.916   8.799  13.490
44013W        W17081  29.565  41.544  11.975
44014W        W17082   1.569  44.880  10.729
44015W        W17083  12.679  40.457  11.411
44016W        W17084  33.145  15.184  12.525
44017W        W17085  20.929  41.120   2.357
44018W        W17086  38.553  22.163   4.635
44019W        W17087  21.520  30.197   2.485
44020W        W17088  32.984  39.851  11.652
44021W        W17089  38.045   0.336  14.696
44022W        W17090  12.292   2.991   2.484
44023W        W17091  43.843  41.610  11.504
44024W        W17092  32.346  32.592  14.338
44025W        W17093  22.026  20.762   2.925
44026W        W17094   5.811  16.955  13.001
44027W        W17095  28.149  20.018   1.330
44028W        W17096  22.960  17.539  14.302
44029W        W17097  14.816   2.848   3.657
44030W        W17098  35.594   3.291   4.516
44031W        W17099  34.948  24.177   2.875
44032W        W17100  43.466   2.947   1.453
44033W        W17101  41.781  23.593   2.833
44034W        W17102  20.242  30.220  11.069
44035W        W17103   0.435  30.774  13.322
44036W        W17104  29.633   3.731  12.534
44037W        W17105  39.329  13.414   0.913
44038W        W17106  32.624  39.929  14.671
44039W        W17107  31.911  28.099  14.254
44040W        W17108  14.251  37.644  14.967
44041W        W17109  29.952  31.894  13.441
44042W        W17110  40.873  30.482   0.330
44043W        W17111  36.524  23.576  11.479
44044W        W17112  20.852  27.035  11.443
44045W        W17113   8.884   0.388   0.523
44046W        W17114  40.379  39.923  11.937
44047W        W17115  34.426  13.685   4.654
44048W        W17116   0.420  18.691  13.392
44049W        W17117   5.326  36.564   0.561
44050W        W17118  31.134  20.641  11.189
44051W        W17119  29.736  39.552  12.291
44052W        W17120  19.730  35.954   0.768
44053W        W17121  14.119  20.460  12.805
44054W        W17122  24.687  14.751  12.291
44055W        W17123   7.327  39.388   4.202
44056W        W17124  10.574  22.100  12.495
44057W        W17125   9.822   0.781   0.054
44058W        W17126  33.661  43.006   5.124
44059W        W17127  13.102  11.291  14.496
44060W        W17128   3.023  18.129   4.494
44061W        W17129  22.492  33.061  12.939
44062W        W17130  33.489   2.710  12.383
44063W        W17131   4.167  20.790   0.456
44064W        W17132  19.138  17.902  11.470
44065W        W17133  30.973   6.885  13.715
44066W        W17134  21.103  31.151  12.151
44067W        W17135  37.109  36.676   1.681
44068W        W17136  42.854   5.475  12.680
44069W        W17137  28.482  42.804  13.453
44070W        W17138   5.962   0.284  11.497
44071W        W17139  26.593  31.834   3.333
44072W        W17140  31.495  24.693  13.076
44073W        W17141  39.087  20.051  12.368
44074W        W17142  32.114  38.815   1.402
44075W        W17143  43.331  19.761   1.239
44076W        W17144  33.105  28.194   5.029
44077W        W17145   2.979  16.789  12.940
44078W        W17146  26.890  25.217   2.765
44079W        W17147  38.052  18.737   1.478
44080W        W17148  18.025   9.685   4.167
44081W        W17149   4.922  38.785   2.777
44082W        W17150  29.858   3.416  11.665
44083W        W17151  12.587  36.265  11.126
44084W        W17152  44.074  42.857  12.855
44085W        W17153  44.879  42.581   4.189
44086W        W17154  24.670   7.210  11.417
44087W        W17155  39.478  41.552  10.657
44088W        W17156  30.571  28.369  13.378
44089W        W17157  35.327  28.148   2.400
44090W        W17158  37.254  35.255   1.183
44091W        W17159   2.837   7.305  13.456
44092W        W17160  33.225  41.569   1.678
44093W        W17161  19.055   1.646   3.907
44094W        W17162  43.988   9.007  14.409
44095W        W17163  41.390  10.317  13.429
44096W        W17164  22.028  28.812  13.893
44097W        W17165   9.205  17.317   0.297
44098W        W17166  19.059  39.947  13.938
44099W        W17167  37.428   6.434   0.361
44100W        W17168  21.636  33.583  12.879
44101W        W17169  19.548  39.960   1.240
44102W        W17170  13.859  17.373  13.036
44103W        W17171  36.184  21.252  13.118
44104W        W17172  18.344  43.784  11.637
44105W        W17173  41.895  35.689   1.815
44106W        W17174  30.469  19.431  13.909
44107W        W17175  13.329  14.827  12.475
44108W        W17176  23.742  41.747  12.041
44109W        W17177  44.464   7.248   2.268
44110W        W17178  42.717  36.396   0.486
44111W        W17179  17.708  35.044  14.949
44112W        W17180  10.204  38.791  13.939
44113W        W17181  11.568  33.945   4.348
44114W        W17182  43.802  36.945   1.931
44115W        W17183  30.969  24.733  12.996
44116W        W17184  16.833   1.388  13.885
44117W        W17185  12.503  13.792   1.277
44118W        W17186  35.493   4.291  10.633
44119W        W17187  29.069  35.731  10.941
44120W        W17188  33.028  26.715   2.199
44121W        W17189  12.272  31.801  13.429
44122W        W17190  21.148  27.587   3.136
44123W        W17191  29.708   6.998  11.055
44124W        W17192   6.936  11.177  13.736
44125W        W17193  26.938  35.613   4.091
44126W        W17194   3.302  37.798   3.880
44127W        W17195  21.761   0.534  10.635
44128W        W17196  19.729  17.190  12.511
44129W        W17197  16.690  13.760   4.544
44130W        W17198  15.230  36.533   1.896
44131W        W17199  16.832   2.677  12.439
44132W        W17200  12.979  32.438  14.829
44133W        W17201  26.048  43.733   1.023
44134W        W17202  22.020   9.816   3.189
44135W        W17203  18.804   9.385  14.005
44136W        W17204   7.317  12.360   2.770
44137W        W17205  34.028  13.811   2.229
44138W        W17206  10.688  27.023  10.959
44139W        W17207   0.848   8.638   0.992
44140W        W17208  34.077  34.097  10.584
44141W        W17209  39.576  38.322  11.559
44142W        W17210  38.326  12.849  14.818
44143W        W17211  11.906  28.169   4.214
44144W        W17212  30.929  23.270   3.677
44145W        W17213   9.870   8.955   3.754
44146W        W17214  32.226  31.590  11.621
44147W        W17215  37.392  32.398   3.824
44148W        W17216   2.369  15.169   0.774
44149W        W17217  24.566   9.425  14.746
44150W        W17218   4.278  22.396  12.566
44151W        W17219   3.586  31.843   4.541
44152W        W17220  40.227   8.163  10.791
44153W        W17221  16.251   9.303   3.523
44154W        W17222  27.109  39.286  12.098
44155W        W17223  19.326  38.043  13.570
44156W        W17224  23.128  36.008   1.959
44157W        W17225  36.297  18.200   3.684
44158W        W17226   6.507  31.976   4.616
44159W        W17227  21.718  36.460  11.246
44160W        W17228  37.091   3.785   1.773
44161W        W17229  40.333  34.154   2.691
44162W        W17230  21.100  41.821   4.898
44163W        W17231  19.148  23.541  13.486
44164W        W17232  44.748   0.710   3.395
44165W        W17233  43.837   6.954   4.581
44166W        W17234  14.303  27.759  12.602
44167W        W17235   2.823  17.894  14.482
44168W        W17236  14.395  41.118  13.468
44169W        W17237  14.371  22.235   0.769
44170W        W17238   9.247  13.613   1.839
44171W        W17239  29.090   3.148  13.335
44172W        W17240   2.411  42.386   4.367
44173W        W17241   5.328  36.151   5.266
44174W        W17242  11.996  36.308   4.016
44175W        W17243  29.579  16.481  13.848
44176W        W17244  29.985   4.366  11.678
44177W        W17245  14.725  32.175  14.852
44178W        W17246  22.423  42.486  11.980
44179W        W17247   4.235   9.596  14.794
44180W        W17248   9.164  29.164   0.089
44181W        W17249  39.786  41.258  13.398
44182W        W17250   3.470   4.623  11.548
44183W        W17251  20.673  35.179  14.501
44184W        W17252  14.086   5.522   9.925
44185W        W17253  32.635  22.258  11.095
44186W        W17254   6.433   9.309   0.225
44187W        W17255   6.144  32.664  12.051
44188W        W17256  33.849  27.108  14.014
44189W        W17257  43.598   2.292  13.592
44190W        W17258  18.981   5.336   2.379
44191W        W17259   6.948   6.962  10.644
44192W        W17260  15.789  30.712  11.894
44193W        W17261  22.202  29.230   2.797
44194W        W17262  21.827  40.368  11.999
44195W        W17263  35.951  33.175  14.478
44196W        W17264  28.068  28.785  12.923
44197W        W17265  35.956   6.419   4.097
44198W        W17266  36.478  17.737  10.760
44199W        W17267  26.681  18.593   1.604
44200W        W17268  13.683  44.923  10.719
44201W        W17269  30.149  15.567  12.429
44202W        W17270  13.512   2.403   4.573
44203W        W17271   7.112  28.429   3.857
44204W        W17272  20.740   0.515   0.469
44205W        W17273  28.667  17.549  10.769
44206W        W17274   3.588  39.471  11.702
44207W        W17275  35.027  27.171   0.377
44208W        W17276  42.489  10.291   0.938
44209W        W17277  42.184  19.163   0.405
44210W        W17278  44.846   4.886   2.407
44211W        W17279  39.662   1.943   2.677
44212W        W17280  13.810  21.158   1.833
44213W        W17281  15.733  30.195  11.962
44214W        W17282  40.905  37.719   0.560
44215W        W17283  42.422  20.543   2.053
44216W        W17284  42.409   5.964   3.346
44217W        W17285  41.380   9.824   4.770
44218W        W17286  38.254  42.724   0.959
44219W        W17287  17.718  17.029  10.607
44220W        W17288  33.514  22.030  13.485
44221W        W17289   0.876  30.022  13.543
44222W        W17290  19.768   7.757  11.989
44223W        W17291  16.745  35.038   4.536
44224W        W17292  20.776  12.316  14.523
44225W        W17293  33.554  14.081   1.283
44226W        W17294  32.547  37.543  12.390
44227W        W17295  28.256  31.372  11.164
44228W        W17296  39.000  24.490  11.640
44229W        W17297   1.787   2.393  13.326
44230W        W17298   2.620  28.786  13.134
44231W        W17299  38.127  24.572  11.197
44232W        W17300  11.727  26.176  12.372
44233W        W17301  22.983  29.113   0.368
44234W        W17302  44.205   1.253  11.285
44235W        W17303  32.177   5.261  13.880
44236W        W17304  13.630  13.418   3.703
44237W        W17305  27.988  12.749   1.709
44238W        W17306  37.605  43.856   1.216
44239W        W17307  40.989  31.825  13.848
44240W        W17308   9.628   8.366  10.942
44241W        W17309   0.880  34.460  11.166
44242W        W17310  38.863  16.775  13.325
44243W        W17311  10.276  14.269   0.574
44244W        W17312  31.371  12.458  12.254
44245W        W17313  35.289  42.013  14.872
44246W        W17314  16.829   4.487  14.099
44247W        W17315  10.718  36.428   4.311
44248W        W17316  22.228  44.479  14.818
44249W        W17317   6.184  44.770  11.518
44250W        W17318  20.522  38.873  13.294
44251W        W17319  34.011  10.404  13.869
44252W        W17320  16.592  27.858  10.741
44253W        W17321  38.748   7.332  10.704
44254W        W17322   5.449  42.050   4.526
44255W        W17323  28.457  20.593  10.420
44256W        W17324  12.620  38.961  13.444
44257W        W17325   8.742  17.496   3.276
44258W        W17326  17.704   9.481   2.315
44259W        W17327   6.938  43.794   4.328
44260W        W17328   2.683   8.753   3.197
44261W        W17329  25.191  21.337   3.811
44262W        W17330  41.826  30.616   4.561
44263W        W17331   6.888  11.592  11.999
44264W        W17332   2.885  40.373  14.485
44265W        W17333  36.342  11.404   1.375
44266W        W17334   5.808  18.770  12.641
44267W        W17335  36.472   6.887  12.045
44268W        W17336  28.114   3.648  12.129
44269W        W17337  42.235  30.944   3.342
44270W        W17338  42.454   4.313   2.442
44271W        W17339  31.059  29.654   4.915
44272W        W17340   3.725  33.923   0.332
44273W        W17341   9.697   4.078   2.651
44274W        W17342   7.702  19.637   4.294
44275W        W17343  26.799  27.450  11.551
44276W        W17344   9.657   7.146   3.551
44277W        W17345  40.909  26.019   3.925
44278W        W17346   0.459   1.184   2.431
44279W        W17347  18.828  36.146   1.267
44280W        W17348   5.349  27.134  12.286
44281W        W17349   7.491  23.456  11.155
44282W        W17350  33.885   5.699   2.598
44283W        W17351  16.574  25.216   1.911
44284W        W17352   5.634  33.723  12.516
44285W        W17353  31.092   3.038  13.793
44286W        W17354   6.983  12.591   4.263
44287W        W17355  13.147  19.805  13.935
44288W        W17356  44.748  25.178   2.258
44289W        W17357  22.934  24.690   2.765
44290W        W17358  33.058  32.952   4.686
44291W        W17359   9.257  32.705  13.533
44292W        W17360   9.194  44.875   0.236
44293W        W17361   3.350  23.487  10.970
44294W        W17362  25.182  19.779  11.451
44295W        W17363  12.225  16.832   2.627
44296W        W17364   3.800  28.431  11.964
44297W        W17365  34.605  40.131  14.401
44298W        W17366  30.136  38.436   1.268
44299W        W17367  25.293  28.154   3.241
44300W        W17368   5.181   8.106   0.473
44301W        W17369   3.558  26.050   2.778
44302W        W17370  27.119   8.882   5.103
44303W        W17371   3.311  10.586   0.389
44304W        W17372  17.277   5.115   1.089
44305W        W17373  14.588  34.651   2.359
44306W        W17374  16.728  38.042   4.356
44307W        W17375  23.373  37.153   2.168
44308W        W17376  29.511  37.462   3.175
44309W        W17377  40.909  24.620  11.888
44310W        W17378  24.132  19.074  11.622
44311W        W17379  42.853  11.877  14.590
44312W        W17380  22.873  19.655   4.961
44313W        W17381  22.052  10.768   3.263
44314W        W17382  41.873  24.073  12.677
44315W        W17383  38.899  25.605  14.389
44316W        W17384  37.028   6.868  13.309
44317W        W17385  38.812  31.351  10.262
44318W        W17386   0.831  35.065   5.070
44319W        W17387   1.032  22.971   4.232
44320W        W17388   8.453  24.026  12.489
44321W        W17389  10.864  41.306  12.386
44322W        W17390  22.457  27.464   4.527
44323W        W17391  43.815   2.487  14.957
44324W        W17392  34.672  21.300  10.714
44325W        W17393  42.955  14.556   3.704
44326W        W17394  44.299  38.432   4.766
44327W        W17395  13.504  41.949  13.782
44328W        W17396  22.150  19.886   0.650
44329W        W17397  32.375  19.572   3.204
44330W        W17398  20.790  36.192  14.475
44331W        W17399  39.401  20.236  11.143
44332W        W17400  21.108  43.725   9.644
44333W        W17401  18.641  42.035   0.301
44334W        W17402  20.378  23.552  11.315
44335W        W17403  32.154  20.537  11.303
44336W        W17404  40.123  36.598  12.028
44337W        W17405  24.028   7.882  11.674
44338W        W17406  27.222   9.436  12.865
44339W        W17407  30.678  22.140  12.348
44340W        W17408   1.219   0.891  14.655
44341W        W17409  41.336  30.553  14.067
44342W        W17410  41.477  24.815  12.540
44343W        W17411  17.075  20.283   4.572
44344W        W17412  36.458   8.111  13.481
44345W        W17413   8.796  16.014   3.362
44346W        W17414  14.704   7.198  10.163
44347W        W17415  42.086   3.434   1.967
44348W        W17416  20.494  31.607  12.922
44349W        W17417  24.017  15.300   4.162
44350W        W17418  41.468  44.819  14.962
44351W        W17419  23.585  25.190   3.124
44352W        W17420  34.000  16.532  14.337
44353W        W17421   7.148  30.390  11.143
44354W        W17422   0.739  25.507   4.369
44355W        W17423  22.455  42.928   2.321
44356W        W17424  35.623  31.614  14.811
44357W        W17425  36.971  28.574   4.075
44358W        W17426   2.729   1.399  12.821
44359W        W17427   3.486   5.946   1.826
44360W        W17428   6.328  32.514   0.735
44361W        W17429  22.585  34.056   1.009
44362W        W17430  32.385  29.212  12.050
44363W        W17431   9.324  18.772  14.983
44364W        W17432   1.184  14.588  10.716
44365W        W17433   9.217   0.271   4.106
44366W        W17434   5.203  19.114   1.586
44367W        W17435  33.984  16.293   1.331
44368W        W17436  10.367  35.456   2.021
44369W        W17437  16.011  15.943   9.940
44370W        W17438   9.058   6.284  13.466
44371W        W17439  43.718  18.078  10.151
44372W        W17440  10.843  28.994   3.936
44373W        W17441  18.131   2.359   2.129
44374W        W17442   4.269  19.024   3.450
44375W        W17443  27.610  27.959   0.991
44376W        W17444  27.517  19.107   2.405
44377W        W17445   3.904  20.704   3.159
44378W        W17446  29.535  21.669   3.895
44379W        W17447  22.656  30.470   0.771
44380W        W17448  31.311  16.724   4.377
44381W        W17449  10.620  42.237  10.569
44382W        W17450   9.315  23.580  14.239
44383W        W17451  27.856  13.205  12.445
44384W        W17452  20.533  44.684   0.409
44385W        W17453   6.275  19.691  13.403
44386W        W17454  40.587  24.066  14.527
44387W        W17455  28.061  16.017  14.856
44388W        W17456  36.078  17.303   1.949
44389W        W17457  30.892  26.728  13.095
44390W        W17458  35.955  18.808   0.430
44391W        W17459  24.318  10.139  14.106
44392W        W17460   2.370  29.069  13.532
44393W        W17461  14.186  14.532   0.155
44394W        W17462  20.047  10.332   0.217
44395W        W17463  26.964   7.376   4.581
44396W        W17464  34.563   0.218  12.448
44397W        W17465  18.570  16.790  14.053
44398W        W17466  15.303  44.235  12.651
44399W        W17467  11.675   8.411  11.607
44400W        W17468  13.317  22.726  11.704
44401W        W17469  27.580   6.192  10.702
44402W        W17470  40.003  13.421  11.918
44403W        W17471   9.262  43.421   4.190
44404W        W17472  19.049  30.940  12.336
44405W        W17473  38.582  10.400  11.180
44406W        W17474  43.754  17.239   4.552
44407W        W17475  24.966  31.022  12.177
44408W        W17476  34.098  32.412  11.620
44409W        W17477  35.488  22.707   4.833
44410W        W17478  42.756  19.186   1.127
44411W        W17479  26.225  11.183   0.848
44412W        W17480  30.264   1.303   0.518
44413W        W17481  22.259  25.297   3.134
44414W        W17482  14.962  30.888  11.246
44415W        W17483  31.628  40.222   0.430
44416W        W17484  19.527  17.306   1.779
44417W        W17485  34.546   0.726  12.588
44418W        W17486   0.902  42.473  10.891
44419W        W17487   5.125  16.756  12.553
44420W        W17488  27.977   5.359  14.821
44421W        W17489  20.611  39.960   3.734
44422W        W17490  37.273  23.417   2.648
44423W        W17491  31.177   3.483   3.681
44424W        W17492  10.743   5.913   4.551
44425W        W17493  38.226  27.339   1.841
44426W        W17494  28.201   3.499   3.707
44427W        W17495  35.469  43.223   1.777
44428W        W17496   0.572  38.596   4.193
44429W        W17497  24.766  40.412  11.091
44430W        W17498  36.051  15.545   4.892
44431W        W17499  36.618  25.426  13.885
44432W        W17500  41.322  11.286  13.540
44433W        W17501  23.984  12.060  13.021
44434W        W17502  39.867  35.158   1.796
44435W        W17503   6.533  19.738   0.673
44436W        W17504  41.721  31.029  12.907
44437W        W17505  39.040   1.326  13.311
44438W        W17506  36.434  33.632   0.698
44439W        W17507  33.020   9.889   2.501
44440W        W17508  27.750  17.078   0.303
44441W        W17509   6.734  12.082  12.596
44442W        W17510  24.271  19.116  14.448
44443W        W17511   1.490  16.813   0.774
44444W        W17512  24.502   6.357  12.634
44445W        W17513   8.615  21.178  13.494
44446W        W17514  24.589   3.517  10.568
44447W        W17515   4.920  37.097   1.680
44448W        W17516  11.269  23.188  12.077
44449W        W17517  21.126  42.300   4.655
44450W        W17518  23.481   3.814  14.311
44451W        W17519  16.694  41.343   3.814
44452W        W17520   2.187  33.486   1.869
44453W        W17521  16.098  40.356   4.555
44454W        W17522  15.180  27.518  13.646
44455W        W17523  14.747  25.290   2.370
44456W        W17524  40.322   3.222  10.677
44457W        W17525  38.844   9.464  14.087
44458W        W17526  23.733   4.283  14.443
44459W        W17527  41.355  29.453   1.700
44460W        W17528  35.341  42.471  13.436
44461W        W17529  34.615  33.893   2.848
44462W        W17530  28.977  31.393   1.174
44463W        W17531  41.674   9.389   4.747
44464W        W17532   7.423  43.334  11.540
44465W        W17533  37.543  18.506   1.306
44466W        W17534   5.353  19.476   3.342
44467W        W17535   9.024  35.824   2.680
44468W        W17536   3.770  21.060  14.338
44469W        W17537   6.843  34.631  10.737
44470W        W17538   6.726  21.614  14.817
44471W        W17539  40.140  40.511   0.833
44472W        W17540   6.834  10.244   2.855
44473W        W17541   2.425   5.782  11.450
44474W        W17542  25.224   1.921   4.437
44475W        W17543  13.389  12.777  13.780
44476W        W17544  26.694  16.825  10.777
44477W        W17545   2.732  11.997   2.042
44478W        W17546  27.235  21.817   1.747
44479W        W17547  41.261  28.108  10.574
44480W        W17548  43.750  28.885  13.760
44481W        W17549  23.162  19.979  12.028
44482W        W17550  12.659  10.907   1.404
44483W        W17551   9.603  11.731  14.067
44484W        W17552  15.982  43.416   3.217
44485W        W17553  26.047  18.671   4.491
44486W        W17554  21.592  27.550  12.485
44487W        W17555  33.417   2.032  11.032
44488W        W17556   0.706  33.981  11.050
44489W        W17557   1.209  11.263   0.929
44490W        W17558  15.754  40.303   3.270
44491W        W17559  33.949  29.029   3.899
44492W        W17560  35.829  36.462   3.718
44493W        W17561  43.884   0.835  13.808
44494W        W17562  30.490  41.255  13.922
44495W        W17563   7.451  12.809   0.047
44496W        W17564   8.053  38.495   1.983
44497W        W17565  32.668  41.911  11.151
44498W        W17566  44.235  31.417  12.526
44499W        W17567  33.362  23.741   2.099
44500W        W17568   3.956   9.333   0.166
44501W        W17569  40.917   0.317   0.314
44502W        W17570   8.906  15.331   1.235
44503W        W17571  20.089  24.670   0.461
44504W        W17572   7.224  41.055  14.340
44505W        W17573  14.160  34.473  14.406
44506W        W17574  26.947   2.855   3.483
44507W        W17575  10.348  38.493   1.769
44508W        W17576  28.677  30.451   4.528
44509W        W17577   4.661  38.975   4.136
44510W        W17578  41.553  33.405   1.275
44511W        W17579   2.436  23.928  11.489
44512W        W17580  24.950  21.591  12.438
44513W        W17581  26.035  19.631   4.193
44514W        W17582  34.665  14.907  12.993
44515W        W17583   7.093  30.858  13.917
44516W        W17584   7.853  16.400  13.049
44517W        W17585  38.932   1.047   2.200
44518W        W17586  40.449  40.071  14.853
44519W        W17587  38.027  26.529  13.424
44520W        W17588  31.695  20.144   2.347
44521W        W17589  16.220  34.437  12.453
44522W        W17590  27.989  34.997   0.377
44523W        W17591  13.586  19.564   4.595
44524W        W17592  42.029  20.828   2.227
44525W        W17593  34.340  34.017   4.203
44526W        W17594   2.391  29.444  13.899
44527W        W17595  12.066  33.342  10.973
44528W        W17596   9.191  38.801  13.862
44529W        W17597  29.410  11.815   0.446
44530W        W17598  26.247   4.727  13.987
44531W        W17599  23.065  41.924  13.434
44532W        W17600  19.943  38.232   4.413
44533W        W17601  22.454  22.263  10.019
44534W        W17602  11.670  20.266   3.629
44535W        W17603  16.875   1.041   0.872
44536W        W17604   9.737   8.170   3.349
44537W        W17605   8.511   5.518  11.562
44538W        W17606   1.396   1.832   0.471
44539W        W17607  26.430   3.295  13.523
44540W        W17608  16.347  20.197  14.630
44541W        W17609  28.965  15.749  10.208
44542W        W17610  19.742  41.945  11.611
44543W        W17611   5.288  32.743  14.529
44544W        W17612  28.066   2.646  14.014
44545W        W17613   7.857  25.598  13.552
44546W        W17614  15.744  40.920   1.837
44547W        W17615  15.561  36.067   2.486
44548W        W17616  17.826   3.213  14.120
44549W        W17617   0.818  15.495  14.882
44550W        W17618  37.519  33.056   4.984
44551W        W17619  21.571  10.898   1.607
44552W        W17620  16.153  35.444  13.176
44553W        W17621   6.631   8.792  10.476
44554W        W17622  43.204   2.326   2.873
44555W        W17623   7.328  22.986  13.994
44556W        W17624  22.737  38.360   3.774
44557W        W17625  42.813  20.763  14.321
44558W        W17626   7.746   5.273  14.050
44559W        W17627  16.503  12.618   2.186
44560W        W17628  43.546  37.420  10.785
44561W        W17629   7.801   5.166  13.021
44562W        W17630  38.617  26.665   0.890
44563W        W17631  12.671  19.588   2.958
44564W        W17632  27.729  34.488  14.506
44565W        W17633  14.671   3.012   2.256
44566W        W17634  33.005  28.227  14.354
44567W        W17635   8.797  12.676  10.972
44568W        W17636  12.082  21.955   2.781
44569W        W17637  16.741   2.908  11.448
44570W        W17638  26.333  30.817  11.119
44571W        W17639  43.981   1.939   4.533
44572W        W17640   7.482  43.752   0.549
44573W        W17641  24.951  26.235  11.883
44574W        W17642  38.588  28.118   1.944
44575W        W17643  41.400  43.392   4.682
44576W        W17644  26.050  38.731   4.568
44577W        W17645  16.866  10.322  14.059
44578W        W17646  23.088  43.561   1.280
44579W        W17647  41.837  42.457  11.588
44580W        W17648  15.491   5.313   4.234
44581W        W17649  31.705   2.189  13.484
44582W        W17650  40.811   6.910   5.480
44583W        W17651   1.990  24.186   4.096
44584W        W17652  34.865  14.382   4.142
44585W        W17653  40.352   9.342  13.301
44586W        W17654   4.592  39.366  11.658
44587W        W17655  33.170  41.960  11.095
44588W        W17656  26.184   8.554  13.138
44589W        W17657  44.057  43.690  11.917
44590W        W17658  36.096  31.952   4.091
44591W        W17659  30.541  44.860  11.438
44592W        W17660   5.602   1.851   1.864
44593W        W17661  37.560  22.520   1.641
44594W        W17662  19.062  44.198   3.649
44595W        W17663  29.050  19.200  14.010
44596W        W17664  10.726  12.207   0.365
44597W        W17665  44.293  33.148  13.069
44598W        W17666  40.752  34.452  14.515
44599W        W17667   2.197  33.408   3.694
44600W        W17668  31.136  28.661   2.525
44601W        W17669  17.735  39.944  14.069
44602W        W17670  35.345  15.920  10.272
44603W        W17671  27.589  37.365   0.654
44604W        W17672   8.427  27.715   4.535
44605W        W17673  31.985  23.354  13.336
44606W        W17674   9.685  25.711  14.096
44607W        W17675  18.608  29.172  11.944
44608W        W17676  34.045  22.172  13.229
44609W        W17677  29.631   1.376  14.257
44610W        W17678  43.361  32.192   4.838
44611W        W17679   8.580  34.641  14.448
44612W        W17680   5.181  30.930   4.905
44613W        W17681  36.929   2.876  13.863
44614W        W17682   9.831  25.691  12.587
44615W        W17683  16.222  41.095  11.945
44616W        W17684   7.458  24.644   1.356
44617W        W17685  32.899  18.998  12.383
44618W        W17686  30.411   7.926   0.361
44619W        W17687  32.926  12.101  10.479
44620W        W17688  29.782  35.342  12.516
44621W        W17689  43.586   8.440   5.625
44622W        W17690  27.660  33.799   4.222
44623W        W17691  15.691  28.538  14.888
44624W        W17692   1.063  42.256  13.521
44625W        W17693  22.101  19.549  14.726
44626W        W17694   0.993  27.568   3.293
44627W        W17695  11.325  17.582  12.056
44628W        W17696  41.320  42.440  11.604
44629W        W17697   7.922  38.510   3.290
44630W        W17698  37.982  22.543   4.045
44631W        W17699  22.934   8.080   1.842
44632W        W17700  16.248   5.707  14.007
44633W        W17701  41.636  35.335  13.314
44634W        W17702  41.064  42.728  12.429
44635W        W17703   0.594   9.203  13.900
44636W        W17704  22.126   1.044   5.108
44637W        W17705  26.574  37.892   0.252
44638W        W17706   1.804  40.412   3.692
44639W        W17707   1.454  42.878  14.520
44640W        W17708  11.305   4.430  11.131
44641W        W17709  41.369   7.777  13.067
44642W        W17710  31.507   0.778   3.255
44643W        W17711  20.741  15.616   0.438
44644W        W17712  14.923  12.864   1.156
44645W        W17713  13.253  10.923  13.872
44646W        W17714  17.757  38.297   2.792
44647W        W17715  13.966  41.867   5.037
44648W        W17716  32.560  36.082   4.122
44649W        W17717  14.132  18.590  11.667
44650W        W17718  24.122  16.698  14.853
44651W        W17719  15.147  38.861  13.108
44652W        W17720   7.896   1.497  13.836
44653W        W17721  23.203   4.220  14.453
44654W        W17722  28.692  27.559   1.367
44655W        W17723  27.445  17.049   4.071
44656W        W17724  34.303  39.834  11.025
44657W        W17725  43.276   5.450   2.439
44658W        W17726   9.280  40.004   0.368
44659W        W17727  29.547  10.690   2.832
44660W        W17728  27.906  15.610   4.657
44661W        W17729   4.982  40.330  14.531
44662W        W17730  41.850  23.252   2.454
44663W        W17731  21.319  38.660  11.961
44664W        W17732   2.903  43.859   0.777
44665W        W17733  13.340   7.266   3.388
44666W        W17734   1.321  17.151   3.512
44667W        W17735   5.935   4.250  11.471
44668W        W17736   1.270  36.339   0.047
44669W        W17737   2.837   2.472   0.810
44670W        W17738  17.032  36.974  12.009
44671W        W17739  10.083  44.435   0.859
44672W        W17740  21.563  42.523   4.417
44673W        W17741  34.991  17.244  12.588
44674W        W17742  18.608  40.692   0.324
44675W        W17743  29.913  39.588  11.770
44676W        W17744   6.619  25.994   1.396
44677W        W17745   0.711  44.417  11.447
44678W        W17746  34.441  22.116  13.539
44679W        W17747  25.323  34.447  12.968
44680W        W17748  26.586  42.573   4.473
44681W        W17749   4.275  28.951  12.604
44682W        W17750  41.736  37.996  12.666
44683W        W17751  37.257  28.664   0.059
44684W        W17752   3.792  22.194  12.525
44685W        W17753  24.937  34.275  14.407
44686W        W17754   3.881  26.046   3.400
44687W        W17755  37.001  27.106  11.460
44688W        W17756  38.423  44.739  13.357
44689W        W17757  44.306  14.611   4.672
44690W        W17758   7.309  27.606  11.509
44691W        W17759  32.223  40.749   4.057
44692W        W17760   9.785  13.263  14.383
44693W        W17761   4.364  10.243   0.826
44694W        W17762  24.911  32.904  10.645
44695W        W17763  20.830  40.290   1.272
44696W        W17764  20.113   9.634   1.879
44697W        W17765  35.202   8.237   4.839
44698W        W17766  42.593  29.692   1.248
44699W        W17767   5.299   9.321   4.702
44700W        W17768   5.487  20.472  12.429
44701W        W17769  40.860  38.495   3.242
44702W        W17770   7.996  26.028  13.296
44703W        W17771  16.413  34.702   1.350
44704W        W17772  15.122   1.476   3.051
44705W        W17773  29.029   8.891  14.350
44706W        W17774  38.063  35.005   2.965
44707W        W17775  10.815  14.528  12.644
44708W        W17776  10.998  18.344   0.503
44709W        W17777  14.999  20.195  14.379
44710W        W17778  38.380  13.271   2.087
44711W        W17779  11.882   9.728   3.770
44712W        W17780  17.736  37.593   0.850
44713W        W17781   7.513  32.011   0.670
44714W        W17782  44.891  32.501   1.382
44715W        W17783  32.565  29.450  13.468
44716W        W17784   9.144  24.909   1.218
44717W        W17785  21.171  39.004   1.244
44718W        W17786  31.444   8.171  13.851
44719W        W17787   2.455  15.194  12.443
44720W        W17788  21.149  43.027   1.911
44721W        W17789   0.850   8.344   1.458
44722W        W17790  21.103  41.930   3.870
44723W        W17791  25.408  33.710   0.804
44724W        W17792   3.798   7.481  14.809
44725W        W17793   5.154  27.044  12.753
44726W        W17794  26.978  33.893   2.589
44727W        W17795  41.968   7.345  10.695
44728W        W17796  36.238   4.439  13.846
44729W        W17797  43.916  14.904  14.431
44730W        W17798   8.858  12.682   0.137
44731W        W17799  12.739  20.017   1.680
44732W        W17800  44.382  25.126  11.437
44733W        W17801  39.080   2.728   0.032
44734W        W17802  11.052   5.293  12.565
44735W        W17803  25.867  13.726  14.513
44736W        W17804  16.117  42.306  12.922
44737W        W17805  37.575  10.156  10.769
44738W        W17806  44.514  36.021   0.003
44739W        W17807  22.552   2.369  14.405
44740W        W17808  40.587  37.448   2.837
44741W        W17809  18.660  12.173   4.224
44742W        W17810   0.707   1.863  11.398
44743W        W17811  34.907   0.381  11.531
44744W        W17812  41.547  41.806  12.507
44745W        W17813  34.512  41.974  12.639
44746W        W17814  29.984  34.142   2.657
44747W        W17815  31.333   5.682   4.775
44748W        W17816   1.686   7.932  11.123
44749W        W17817  16.470  27.242   3.847
44750W        W17818  20.597  28.409   2.433
44751W        W17819  29.651  25.218  11.237
44752W        W17820  11.251  39.580  12.558
44753W        W17821  40.614  16.552  11.498
44754W        W17822  15.588  38.888   1.867
44755W        W17823  31.044  27.919  12.016
44756W        W17824  33.913   3.939   3.941
44757W        W17825  34.939  37.901  12.306
44758W        W17826  26.685  34.982   2.980
44759W        W17827   1.677  25.719  12.938
44760W        W17828   0.730  16.020  13.072
44761W        W17829  14.142   9.139   2.762
44762W        W17830   4.671  32.517  13.549
44763W        W17831   6.607   7.295   1.297
44764W        W17832  43.306  19.136  12.430
44765W        W17833  44.812  40.075  13.869
44766W        W17834  32.188  31.164  13.713
44767W        W17835   0.677  38.960   2.710
44768W        W17836  14.881  36.847  14.903
44769W        W17837  44.316  26.077  13.543
44770W        W17838  22.921  13.115   0.802
44771W        W17839  43.001  26.504   4.890
44772W        W17840  11.387  25.404  12.876
44773W        W17841  20.868   2.022  12.153
44774W        W17842  14.115  25.553  14.305
44775W        W17843  17.598  30.906  11.286
44776W        W17844  18.262  20.055   1.569
44777W        W17845   0.987  23.503  14.435
44778W        W17846   7.584  40.444  11.699
44779W        W17847  41.768  40.341   4.284
44780W        W17848  21.026   0.179  13.321
44781W        W17849  30.468   4.551  14.988
44782W        W17850  11.751  16.155  12.010
44783W        W17851   4.397  38.537  12.832
44784W        W17852  17.448   3.310  12.343
44785W        W17853  28.436   6.350  11.194
44786W        W17854   5.323  15.482   4.197
44787W        W17855  12.421  37.280   2.241
44788W        W17856  34.522  28.142  11.116
44789W        W17857  41.386  16.821  10.518
44790W        W17858  32.819  21.287   0.293
44791W        W17859  31.718  32.460   3.824
44792W        W17860  29.568   7.340   1.178
44793W        W17861  42.116  20.865   1.304
44794W        W17862   1.479   2.166   3.668
44795W        W17863  37.467  25.898   4.102
44796W        W17864   3.715  14.703   2.900
44797W        W17865  10.339  34.894   3.700
44798W        W17866  44.566  40.387   2.004
44799W        W17867  30.732  21.135  14.094
44800W        W17868  25.260  21.558   3.166
44801W        W17869   8.660  38.928  13.106
44802W        W17870   4.865  13.386  12.388
44803W        W17871   9.644  39.265   9.591
44804W        W17872  26.641  15.884  11.563
44805W        W17873  43.924  21.040   2.407
44806W        W17874  42.375  41.847   4.423
44807W        W17875  21.172   2.653   0.674
44808W        W17876  13.184  36.866   2.441
44809W        W17877  13.444  25.572  13.665
44810W        W17878  26.053  31.632   0.459
44811W        W17879   0.030  11.329  12.100
44812W        W17880  32.982  44.380  10.524
44813W        W17881  36.536  36.138   4.113
44814W        W17882  34.794   7.343   4.910
44815W        W17883   5.374  11.804  11.968
44816W        W17884  25.077  26.359  13.685
44817W        W17885   7.928   5.008   1.917
44818W        W17886  22.442  17.800  14.296
44819W        W17887   6.170  33.112  14.364
44820W        W17888   6.122  17.433  13.512
44821W        W17889  21.294  41.646  14.107
44822W        W17890   1.395   4.306  11.208
44823W        W17891  24.578  25.758   2.284
44824W        W17892   4.674  31.679  11.552
44825W        W17893  18.314   8.249  11.881
44826W        W17894   2.485   0.750   3.733
44827W        W17895  23.247  35.382  12.862
44828W        W17896  12.083  23.134   1.702
44829W        W17897  20.802   1.864   4.460
44830W        W17898  29.446  32.904  14.071
44831W        W17899  29.316   3.366  13.856
44832W        W17900   5.743  33.667   3.304
44833W        W17901  33.061  26.698  12.078
44834W        W17902  41.536  21.673  13.344
44835W        W17903  18.031  42.449  12.003
44836W        W17904  30.843  20.604  10.760
44837W        W17905  28.552  15.652  11.292
44838W        W17906  24.561  37.768   3.751
44839W        W17907   2.975  33.480  13.928
44840W        W17908  12.446  16.735  11.975
44841W        W17909  13.771  22.313   4.105
44842W        W17910  41.276  25.117   4.100
44843W        W17911  22.927  22.279   3.198
44844W        W17912  10.238  41.355  14.701
44845W        W17913   0.026  18.210  11.208
44846W        W17914  26.061  30.615  14.962
44847W        W17915  22.741   3.948   0.930
44848W        W17916  32.168  31.684  13.541
44849W        W17917   9.871  41.080   0.563
44850W        W17918  42.495   0.399   2.099
44851W        W17919  25.341  42.186   3.215
44852W        W17920   8.207  13.790  13.414
44853W        W17921  44.861  37.803   1.963
44854W        W17922  36.608  34.170   1.929
44855W        W17923  13.469  38.143   0.287
44856W        W17924  23.611  44.360   4.259
44857W        W17925  29.877  16.846  13.488
44858W        W17926  27.199  21.648  13.994
44859W        W17927  13.079   5.328   1.648
44860W        W17928  19.004   1.390   1.758
44861W        W17929   5.485  33.465   3.696
44862W        W17930  36.772  16.686  12.897
44863W        W17931  33.167  28.018   3.649
44864W        W17932   3.054  33.955   0.942
44865W        W17933  22.655  27.573   1.772
44866W        W17934  43.554  35.148  13.773
44867W        W17935  13.732  24.035   0.874
44868W        W17936  36.464  41.205   2.278
44869W        W17937  23.987  29.684   2.504
44870W        W17938  32.993   2.902   3.557
44871W        W17939  34.944  35.903  14.913
44872W        W17940  10.729  11.394  11.881
44873W        W17941  29.931  18.580  14.891
44874W        W17942   1.699  41.727  13.771
44875W        W17943  39.411   4.711  11.451
44876W        W17944   9.237  13.165  12.921
44877W        W17945  14.014   5.705   1.315
44878W        W17946   6.905  11.437  11.463
44879W        W17947   6.154   0.915   4.457
44880W        W17948  34.138  42.868  12.113
44881W        W17949  17.582  38.929   3.339
44882W        W17950  39.087  13.117  14.570
44883W        W17951  21.710   4.324   1.342
44884W        W17952  42.718  40.883   0.493
44885W        W17953  43.297  39.200  10.671
44886W        W17954  28.621  11.306  13.606
44887W        W17955  33.556  30.422  10.147
44888W        W17956  16.029  16.562  13.043
44889W        W17957  19.720   0.413  14.525
44890W        W17958  35.416  27.055   4.368
44891W        W17959  43.297  15.659   1.413
44892W        W17960   3.044  37.805  13.562
44893W        W17961  36.460  29.617   2.237
44894W        W17962  19.202  18.764   0.475
44895W        W17963  38.302   3.715   1.344
44896W        W17964  21.237  21.681   1.181
44897W        W17965  30.028  20.320   3.316
44898W        W17966  20.642  19.921   4.268
44899W        W17967   9.160  39.838   4.622
44900W        W17968   6.382  18.178   2.202
44901W        W17969  30.268  22.642   4.611
44902W        W17970  25.001  25.775   0.545
44903W        W17971  25.109  11.931   5.158
44904W        W17972  18.398  16.076   3.829
44905W        W17973   5.883   8.882  12.171
44906W        W17974  11.772  37.761  14.774
44907W        W17975  39.842  13.676  10.657
44908W        W17976   6.797  38.376  14.024
44909W        W17977  36.731  34.783  14.693
44910W        W17978  36.576   5.006  10.675
44911W        W17979  15.620   1.680   2.861
44912W        W17980  20.124  10.314   3.306
44913W        W17981  39.635  29.948  14.046
44914W        W17982  13.117  29.011   1.869
44915W        W17983  11.374  31.100  11.594
44916W        W17984  39.553  33.511   2.449
44917W        W17985  19.622  13.669  12.538
44918W        W17986  29.700  14.643   4.875
44919W        W17987   5.696  41.015  12.656
44920W        W17988  25.034  43.817   1.008
44921W        W17989  17.209   2.758  11.633
44922W        W17990   0.938  43.747   1.310
44923W        W17991  11.315   5.637   0.715
44924W        W17992   8.634  22.516   0.758
44925W        W17993  36.318   1.713  12.266
44926W        W17994  12.480  33.711  14.801
44927W        W17995  25.644  10.136   5.040
44928W        W17996  23.506  21.753   4.401
44929W        W17997   5.600  13.747   4.728
44930W        W17998  23.617  18.990   3.699
44931W        W17999  12.726   5.848   0.528
44932W        W18000   5.191  27.695   0.767
44933W        W18001  41.386  24.527  12.036
44934W        W18002  26.409  42.664  11.850
44935W        W18003   5.851  13.133   4.382
44936W        W18004  41.612  42.469   0.954
44937W        W18005  44.900  27.876   0.881
44938W        W18006  21.151   1.452  13.012
44939W        W18007  41.390  34.090   0.765
44940W        W18008  42.006  38.313   2.601
44941W        W18009  31.585  43.808  10.644
44942W        W18010  25.145  32.985   3.570
44943W        W18011  28.074  28.564  13.445
44944W        W18012  22.181  17.550   0.320
44945W        W18013  15.803  29.458   1.774
44946W        W18014  43.428  40.922  14.272
44947W        W18015  40.348  39.286   0.325
44948W        W18016  20.267   0.913   0.536
44949W        W18017   5.231  31.058  13.564
44950W        W18018  37.760  24.603   2.404
44951W        W18019   8.496  16.072   3.784
44952W        W18020  13.747  16.437  11.066
44953W        W18021  29.076   4.370  13.858
44954W        W18022  37.469  41.227   4.173
44955W        W18023  17.480  20.285   2.072
44956W        W18024  18.053  17.139   1.880
44957W        W18025   4.762  28.743  12.651
44958W        W18026  12.041  44.708  11.907
44959W        W18027  28.484  36.886  13.614
44960W        W18028  38.359  21.583   3.929
44961W        W18029  34.052   6.753   0.963
44962W        W18030  29.424  36.238  11.513
44963W        W18031  33.616  37.530   4.602
44964W        W18032  17.451  43.180  13.943
44965W        W18033  39.398   6.290   4.717
44966W        W18034   6.455  16.767   0.313
44967W        W18035  14.308  38.783   0.449
44968W        W18036  34.128  20.700   1.251
44969W        W18037  13.341  13.809   3.856
44970W        W18038  35.245  19.191   3.381
44971W        W18039  11.443  41.528  13.040
44972W        W18040  27.057   3.220   4.678
44973W        W18041   4.684  15.363   2.101
44974W        W18042  22.719  23.332   0.442
44975W        W18043  25.512   9.482  11.256
44976W        W18044  17.457  31.222   4.839
44977W        W18045  16.921   9.824   0.699
44978W        W18046   4.643  22.682   2.291
44979W        W18047  40.955  38.796  10.793
44980W        W18048  24.012   2.440   3.364
44981W        W18049  26.208  39.476  12.432
44982W        W18050   8.982  10.820   2.346
44983W        W18051  11.731  13.565   0.332
44984W        W18052  11.623  20.801   3.715
44985W        W18053  20.677  40.741  12.863
44986W        W18054  33.005  36.416  11.104
44987W        W18055  34.628  16.043  10.846
44988W        W18056  10.748  33.057   4.580
44989W        W18057  16.090  22.441   3.315
44990W        W18058  30.639   1.413  14.303
44991W        W18059  10.808  36.651   3.843
44992W        W18060  25.533  15.346   3.944
44993W        W18061   6.889  14.203   0.887
44994W        W18062  27.418  38.522  13.755
44995W        W18063   7.035  39.238  14.285
44996W        W18064  33.476   9.715  11.887
44997W        W18065  22.686  38.499  13.848
44998W        W18066  11.628  19.235   1.691
44999W        W18067   9.915   7.925  14.047
45000W        W18068  17.247  36.051  11.476
45001W        W18069   2.567  31.656   4.365
45002W        W18070  23.173  41.916   4.369
45003W        W18071  18.165  13.141   1.572
45004W        W18072  33.114  30.650   1.798
45005W        W18073  40.811  20.629  12.917
45006W        W18074   5.325  40.949   3.343
45007W        W18075  17.739  29.427  11.673
45008W        W18076  29.400  22.270  10.627
45009W        W18077  40.767  43.402  10.598
45010W        W18078  17.851  33.551  14.770
45011W        W18079  34.621  29.689  12.487
45012W        W18080  33.548  22.558   2.846
45013W        W18081  24.136  44.483  11.181
45014W        W18082  30.040  22.290   2.828
45015W        W18083  39.106  17.274  13.304
45016W        W18084  31.960  19.490  11.625
45017W        W18085  26.553  23.208  12.199
45018W        W18086  14.367  28.213   0.735
45019W        W18087  43.393   1.449  13.038
45020W        W18088  33.664   8.298  12.333
45021W        W18089  21.269  15.919   4.129
45022W        W18090  39.519  17.898   4.866
45023W        W18091  25.174  32.593  11.815
45024W        W18092  31.631  20.227   3.292
45025W        W18093  21.694   1.897   4.097
45026W        W18094   1.960  30.693   3.218
45027W        W18095   3.750  29.989  12.928
45028W        W18096   1.347  19.768  10.871
45029W        W18097  26.166   3.370   3.872
45030W        W18098   3.426   8.806   4.906
45031W        W18099   2.900   1.836  11.103
45032W        W18100  44.242   7.760  11.117
45033W        W18101  41.185  34.022  12.225
45034W        W18102  20.517  17.204   4.382
45035W        W18103  41.390  27.471   3.531
45036W        W18104   2.209   8.173   0.867
45037W        W18105  44.902  39.354   4.050
45038W        W18106  33.082  33.711  13.900
45039W        W18107  21.518   7.771   2.669
45040W        W18108  26.464   7.146   2.117
45041W        W18109  27.092  32.195  12.060
45042W        W18110   8.447  29.030   3.763
45043W        W18111  12.619   1.466   4.872
45044W        W18112  42.289  12.652  12.373
45045W        W18113  11.281  28.891   4.180
45046W        W18114  16.292  25.943   4.033
45047W        W18115  34.504  21.089   4.255
45048W        W18116  26.947  15.039   4.106
45049W        W18117   3.874   7.629   4.854
45050W        W18118  19.262  16.889  14.819
45051W        W18119   8.849  25.398   5.003
45052W        W18120   3.959  13.220  14.396
45053W        W18121  40.613  42.535  13.353
45054W        W18122  20.040  24.749  11.662
45055W        W18123  12.133  24.218  11.647
45056W        W18124  36.880  17.486  14.786
45057W        W18125  37.583  12.298  11.873
45058W        W18126  29.059   8.491   2.953
45059W        W18127  24.490  16.542   0.230
45060W        W18128  11.786  17.207  12.488
45061W        W18129  14.510  44.217   3.593
45062W        W18130  26.492  21.000  11.093
45063W        W18131   0.232  25.967  14.421
45064W        W18132   9.652  44.094  12.371
45065W        W18133  21.200   6.241  12.373
45066W        W18134  26.187  19.742  13.468
45067W        W18135   9.222  36.867  10.614
45068W        W18136  14.745  36.050   1.857
45069W        W18137  41.816   1.325  14.749
45070W        W18138   4.534  10.401   4.581
45071W        W18139  31.203   0.634  10.655
45072W        W18140  12.094   6.867   3.840
45073W        W18141  30.005  34.402   4.425
45074W        W18142  23.278  31.978   4.004
45075W        W18143  41.789  16.674  12.494
45076W        W18144  27.051  31.823  11.666
45077W        W18145  39.443  22.615   2.171
45078W        W18146   3.297   4.545   2.362
45079W        W18147  14.176   4.722   3.252
45080W        W18148  31.647  24.292   0.657
45081W        W18149  19.722  13.154   2.884
45082W        W18150   5.749  42.599   0.441
45083W        W18151  12.339  39.282  12.632
45084W        W18152   4.633  44.011   3.943
45085W        W18153  29.072   2.915   2.844
45086W        W18154  34.551  25.720  12.098
45087W        W18155  26.419  15.204  13.560
45088W        W18156  36.783  20.616   0.803
45089W        W18157   2.424  20.612   4.708
45090W        W18158   2.188  37.998  11.064
45091W        W18159  10.380   0.924   2.404
45092W        W18160  13.566   1.990   1.389
45093W        W18161  24.473  34.917   0.182
45094W        W18162  24.472  21.320   0.777
45095W        W18163  13.181  15.670   3.128
45096W        W18164   6.126  28.407   4.545
45097W        W18165  18.378  30.876  10.703
45098W        W18166  30.839  14.385   3.283
45099W        W18167   2.820  10.821   0.426
45100W        W18168  35.535   1.738  14.078
45101W        W18169  22.942  38.885  11.587
45102W        W18170  12.346   7.912   4.224
45103W        W18171  29.138  40.452   2.154
45104W        W18172   7.490   6.819  11.278
45105W        W18173   1.555  13.964   2.988
45106W        W18174  17.669  39.094   4.777
45107W        W18175  10.846   4.929   2.344
45108W        W18176  26.097  41.327  10.301
45109W        W18177  29.948  34.386  13.329
45110W        W18178  13.657   4.680   1.829
45111W        W18179  14.767  18.061  10.678
45112W        W18180  33.507  13.320  12.159
45113W        W18181   1.171  39.581   0.694
45114W        W18182  22.464  41.945   3.632
45115W        W18183   6.352  18.628   3.679
45116W        W18184   4.808  10.336  10.379
45117W        W18185  32.475  10.672  12.055
45118W        W18186  42.763  15.555  11.962
45119W        W18187   2.653  44.789  12.462
45120W        W18188  34.467  28.774   3.253
45121W        W18189   0.571  42.770  14.381
45122W        W18190  34.510  11.709   0.932
45123W        W18191  17.816  43.078  12.946
45124W        W18192  42.857  31.956   4.597
45125W        W18193  20.248  38.479   0.717
45126W        W18194   7.781   5.163   3.358
45127W        W18195  11.366  33.220   0.718
45128W        W18196  30.362   4.137  11.956
45129W        W18197  32.834   6.412   2.555
45130W        W18198  21.669  38.663  12.327
45131W        W18199  31.853  16.051   3.745
45132W        W18200  26.176  19.125   4.273
45133W        W18201  34.896  37.429  11.408
45134W        W18202   8.831  26.872  11.661
45135W        W18203  28.025  34.527   4.652
45136W        W18204  34.935  27.617   2.944
45137W        W18205   7.784  41.219  14.278
45138W        W18206  14.875  24.923  12.609
45139W        W18207   3.073   3.920   0.910
45140W        W18208  10.222  13.961   1.458
45141W        W18209  17.819  38.645   3.770
45142W        W18210  41.737  21.192  10.621
45143W        W18211  42.402  44.488  14.000
45144W        W18212  41.762  43.801   2.730
45145W        W18213  43.432  31.157  11.908
45146W        W18214   3.942  14.134   1.691
45147W        W18215  20.557   4.724  11.367
45148W        W18216   0.545  44.430   0.871
45149W        W18217  29.111  10.776  12.408
45150W        W18218  28.585   0.777  11.929
45151W        W18219  17.131  39.283  10.881
45152W        W18220  39.218  27.950  14.772
45153W        W18221  35.543   4.702  12.039
45154W        W18222  25.884  23.432  10.306
45155W        W18223   4.932   1.199  11.185
45156W        W18224  41.246  33.089  12.873
45157W        W18225  30.169  36.844   2.135
45158W        W18226  15.131   2.953   0.144
45159W        W18227  36.339  15.107  14.356
45160W        W18228  38.078  44.339   0.320
45161W        W18229  40.505  15.752   3.331
45162W        W18230   7.775  30.493   4.247
45163W        W18231   9.803  36.449   4.468
45164W        W18232  24.083   2.268   2.449
45165W        W18233  38.594  15.837  13.403
45166W        W18234   6.993  43.813   0.391
45167W        W18235  39.887  38.263   2.144
45168W        W18236   5.647  16.800  12.539
45169W        W18237  27.716  18.181  10.692
45170W        W18238  10.243  34.869  10.738
45171W        W18239   4.385   3.399   1.928
45172W        W18240  13.050  36.776  12.002
45173W        W18241   5.402   7.607  13.568
45174W        W18242  23.077  43.548   4.672
45175W        W18243  28.446  16.778   1.872
45176W        W18244  16.851   4.735  12.852
45177W        W18245  23.194   4.263  13.036
45178W        W18246  17.162  24.980  12.473
45179W        W18247  22.443  32.224   1.296
45180W        W18248  21.831  20.179   1.452
45181W        W18249  22.924   9.861   2.753
45182W        W18250  25.030   1.904   3.191
45183W        W18251  39.531   8.835   5.020
45184W        W18252  43.710  39.901  12.828
45185W        W18253  10.237  10.279   1.683
45186W        W18254   3.285  22.109  12.264
45187W        W18255  23.673  21.602   1.224
45188W        W18256  25.217  32.604   1.194
45189W        W18257  11.584   6.655  14.430
45190W        W18258  44.194   0.819   3.395
45191W        W18259  24.372  31.717   0.883
45192W        W18260  29.694  17.005  10.160
45193W        W18261  19.481  31.548   2.757
45194W        W18262  10.807  13.139   0.379
45195W        W18263  27.245  27.020   0.465
45196W        W18264  10.776   8.728   0.981
45197W        W18265  30.156  44.451  13.905
45198W        W18266   9.202  10.847  11.578
45199W        W18267  19.577  29.520  13.782
45200W        W18268  20.692  25.448  14.418
45201W        W18269   6.539  10.344  12.853
45202W        W18270   3.160  19.712  12.102
45203W        W18271   9.263  25.172  10.208
45204W        W18272   5.225  13.898  13.520
45205W        W18273   1.460  28.189  14.466
45206W        W18274  17.647  20.617  14.354
45207W        W18275   3.218   9.626   2.270
45208W        W18276  32.017  33.650   2.908
45209W        W18277  13.522  10.751   1.315
45210W        W18278  40.543   8.911   0.498
45211W        W18279  28.487   4.509   4.208
45212W        W18280  21.515  39.167  14.895
45213W        W18281  28.458  19.225  11.062
45214W        W18282  15.807  22.708   1.911
45215W        W18283  27.503   9.068   3.205
45216W        W18284  17.288  40.785   1.620
45217W        W18285  42.364   7.353   4.900
45218W        W18286  10.362  33.597  13.491
45219W        W18287  23.037  18.181   4.844
45220W        W18288  23.733  18.770   1.222
45221W        W18289   2.009  15.161  14.459
45222W        W18290   3.218  22.157   4.585
45223W        W18291  26.325  37.215  14.802
45224W        W18292  32.128  15.065  10.765
45225W        W18293   7.597  13.687   0.276
45226W        W18294   1.013  40.617  11.933
45227W        W18295  22.458  36.946  14.014
45228W        W18296  37.861  16.569   3.558
45229W        W18297  42.566  25.467  11.590
45230W        W18298  43.493  29.093   3.744
45231W        W18299  37.423  15.198  10.709
45232W        W18300  31.046   8.867  11.198
45233W        W18301  18.404   4.857  11.179
45234W        W18302   5.861   0.004   0.929
45235W        W18303  22.003   2.010   3.180
45236W        W18304   5.752  10.375   4.282
45237W        W18305  30.610  32.453   4.528
45238W        W18306   3.101  28.450   1.001
45239W        W18307   1.311  19.285   4.696
45240W        W18308  21.676  41.877   2.569
45241W        W18309  14.769  39.579  11.960
45242W        W18310   9.749  37.907  14.700
45243W        W18311   3.459  29.936   1.038
45244W        W18312  35.381  33.830   1.275
45245W        W18313  22.982  26.407   1.273
45246W        W18314  21.687  38.972   1.297
45247W        W18315  36.246  38.397  13.746
45248W        W18316  20.801   5.224  11.236
45249W        W18317   2.438  12.734  11.726
45250W        W18318  40.210  19.306  11.239
45251W        W18319  31.429  11.336  10.769
45252W        W18320  10.504  40.573  14.810
45253W        W18321   9.733   4.729   1.843
45254W        W18322  15.549  21.427  11.460
45255W        W18323  11.927  19.899   2.176
45256W        W18324  27.813   6.994  14.115
45257W        W18325  28.950  25.800  12.425
45258W        W18326  17.748  27.435   2.696
45259W        W18327  23.222  33.552  14.868
45260W        W18328   7.059   6.672  11.041
45261W        W18329  31.860   1.920  12.105
45262W        W18330  22.003   7.954   2.665
45263W        W18331   9.037  23.748   4.348
45264W        W18332  44.734   4.921  14.519
45265W        W18333  28.156  26.162   4.169
45266W        W18334  32.004  25.246  11.530
45267W        W18335  17.614   7.880  12.983
45268W        W18336  19.247  13.139   3.409
45269W        W18337   5.263  30.527  13.554
45270W        W18338  36.478  23.727  14.772
45271W        W18339  14.881  16.620  12.451
45272W        W18340   1.836  13.112  14.855
45273W        W18341  33.609  37.271   0.767
45274W        W18342  14.801  37.998  11.088
45275W        W18343  14.403  15.022   0.830
45276W        W18344  28.271   5.242  10.719
45277W        W18345  31.048  38.254   1.233
45278W        W18346   9.873   6.308  12.565
45279W        W18347  23.073  23.656  11.996
45280W        W18348  30.889  27.724   0.883
45281W        W18349  13.373   8.917  14.066
45282W        W18350   5.098  13.733   4.928
45283W        W18351  32.195  21.104  10.683
45284W        W18352  20.076   3.504   1.260
45285W        W18353  33.573  25.294   0.180
45286W        W18354  31.693  28.053   0.008
45287W        W18355  18.990  25.067   1.881
45288W        W18356  21.306  41.539   3.220
45289W        W18357  42.778  29.478  11.479
45290W        W18358  10.722   8.157  11.832
45291W        W18359  28.089  43.452   0.315
45292W        W18360  35.044  23.319   2.867
45293W        W18361   3.729   3.814   2.353
45294W        W18362  23.586  24.884   0.508
45295W        W18363   9.918  30.170  12.835
45296W        W18364  36.836  12.031   1.916
45297W        W18365   8.897  33.137   3.175
45298W        W18366  17.314  21.835   4.585
45299W        W18367   3.691  20.197  14.170
45300W        W18368  39.386   3.016   1.997
45301W        W18369  17.990  13.113  10.605
45302W        W18370   3.703  11.207  12.415
45303W        W18371  24.288  17.859  12.965
45304W        W18372  24.488  23.314  12.037
45305W        W18373  27.461  22.575  14.845
45306W        W18374  33.342   4.509   5.153
45307W        W18375   3.896   2.913   3.421
45308W        W18376  40.981  33.440   2.197
45309W        W18377  43.932  21.115   0.880
45310W        W18378   8.748   8.467   3.028
45311W        W18379  17.497   8.824   2.750
45312W        W18380  26.457  42.590  14.123
45313W        W18381  27.152  44.281   4.347
45314W        W18382  37.410  11.889   3.209
45315W        W18383   4.620   6.057  11.422
45316W        W18384  28.003  30.912  11.138
45317W        W18385   8.191  36.833  10.574
45318W        W18386  34.931  22.032  14.943
45319W        W18387  29.533  19.057   3.346
45320W        W18388  27.982   1.799   2.315
45321W        W18389  27.899  10.072   2.702
45322W        W18390  25.170  13.518   1.462
45323W        W18391  38.512   2.943   1.917
45324W        W18392  38.429  32.028  13.962
45325W        W18393  14.584   9.337   0.507
45326W        W18394  25.774  13.272   2.768
45327W        W18395  12.046  21.146   4.587
45328W        W18396  18.078  19.771  13.385
45329W        W18397  39.404  42.939  10.936
45330W        W18398   9.968  18.828   0.786
45331W        W18399  14.281  30.506   0.321
45332W        W18400  16.792  18.125  14.806
45333W        W18401  41.233  35.360  10.809
45334W        W18402   7.876  35.161   1.196
45335W        W18403  41.998  22.531  10.706
45336W        W18404  40.089   1.834   1.753
45337W        W18405  17.664  29.031  10.969
45338W        W18406  18.109  39.345   4.775
45339W        W18407  43.814  19.150  12.892
45340W        W18408  14.825  12.148  10.926
45341W        W18409  31.574  35.832  11.261
45342W        W18410   8.290  23.370  13.080
45343W        W18411  16.788  43.328   1.108
45344W        W18412  21.026  24.791   2.636
45345W        W18413  37.404  29.161  13.414
45346W        W18414  27.899  20.040   3.403
45347W        W18415   1.193  12.982  11.810
45348W        W18416   9.130  22.589   0.647
45349W        W18417  25.563  28.407  14.561
45350W        W18418  37.883  17.202  12.475
45351W        W18419  29.499  32.498   0.424
45352W        W18420  38.349  29.334   0.958
45353W        W18421  24.199  12.322   1.508
45354W        W18422  27.882  21.142  12.741
45355W        W18423   0.826   8.116   1.020
45356W        W18424   9.914  14.181   2.824
45357W        W18425  17.741  16.809   4.073
45358W        W18426  10.921   4.425  14.353
45359W        W18427  29.592  33.459   5.174
45360W        W18428  35.752   2.885   1.413
45361W        W18429  14.744  34.925   1.845
45362W        W18430   6.442  38.805   1.611
45363W        W18431  41.205  38.878   2.155
45364W        W18432   9.209  24.607   4.388
45365W        W18433  24.283  33.894   0.293
45366W        W18434  13.268   5.917  10.380
45367W        W18435  26.024  15.584   4.993
45368W        W18436  30.926   9.823   1.352
45369W        W18437  42.927   5.657   4.374
45370W        W18438   0.279  33.711  12.145
45371W        W18439   4.168  29.057   1.847
45372W        W18440   5.476   7.877  12.676
45373W        W18441  38.436  21.494   0.808
45374W        W18442  13.321  23.432  10.649
45375W        W18443  28.915  15.071  11.842
45376W        W18444  10.261   3.364  13.795
45377W        W18445  10.682   2.482   0.068
45378W        W18446   4.785  20.274   4.354
45379W        W18447  38.588  40.279  13.646
45380W        W18448  17.669  39.561   4.994
45381W        W18449  41.404  33.570  13.026
45382W        W18450  24.600  41.621   0.317
45383W        W18451  18.875  29.439  13.583
45384W        W18452  19.974  39.815  11.977
45385W        W18453   2.470  28.079   4.996
45386W        W18454   7.126  17.265  12.413
45387W        W18455  13.096  31.685   3.429
45388W        W18456   1.002  11.197   1.407
45389W        W18457   2.061  26.518   2.191
45390W        W18458  16.155  26.742  11.604
45391W        W18459   3.363  27.365  12.174
45392W        W18460   2.202   5.133  14.325
45393W        W18461  17.579  42.485   3.754
45394W        W18462  15.336  11.150  13.375
45395W        W18463  36.958  31.655   1.266
45396W        W18464  17.143  23.608  13.328
45397W        W18465  39.998  42.439  14.153
45398W        W18466   3.117  24.539   2.664
45399W        W18467  41.571  15.193  10.658
45400W        W18468  26.159   3.753  12.891
45401W        W18469   4.857  20.073   1.421
45402W        W18470  26.117  11.898   0.508
45403W        W18471  37.525  42.443  12.112
45404W        W18472   5.250   7.247   4.061
45405W        W18473  19.561  23.237  12.823
45406W        W18474  18.777  42.754  12.950
45407W        W18475  33.574  27.672  10.369
45408W        W18476  12.890  37.184  13.389
45409W        W18477  20.201  19.045   1.908
45410W        W18478  40.442  21.822  12.433
45411W        W18479  17.903  16.097  11.416
45412W        W18480  37.016   6.288   2.604
45413W        W18481   2.910  31.721   0.794
45414W        W18482   1.244  40.290   2.524
45415W        W18483  17.254   5.644  13.073
45416W        W18484  44.343  27.468   1.610
45417W        W18485  33.260  38.464   2.203
45418W        W18486  18.302  22.447   0.867
45419W        W18487   0.504  13.471   1.145
45420W        W18488  32.972  28.099  12.487
45421W        W18489  29.064  15.132  10.454
45422W        W18490  34.430  21.555   1.817
45423W        W18491   9.168  12.272   4.526
45424W        W18492   9.269   6.894   1.194
45425W        W18493  11.803  21.321  14.003
45426W        W18494  32.095  37.399   1.425
45427W        W18495  20.019   9.811   4.164
45428W        W18496  21.546  27.931  12.802
45429W        W18497  21.238  31.211  14.605
45430W        W18498  14.343  39.345   1.092
45431W        W18499  21.196  37.423  14.937
45432W        W18500  28.560  36.973  12.124
45433W        W18501   8.237  17.217   0.185
45434W        W18502   7.267  36.346  13.038
45435W        W18503  37.432  39.230   3.124
45436W        W18504   5.777  30.099  14.826
45437W        W18505   7.782  29.851   3.919
45438W        W18506  29.469  34.718  13.898
45439W        W18507  11.142  25.541  10.335
45440W        W18508   2.369  13.601   2.219
45441W        W18509  15.255  16.861  11.688
45442W        W18510   7.205  35.465  13.071
45443W        W18511   6.247  42.041   4.872
45444W        W18512  27.045  32.062  11.196
45445W        W18513   4.239  26.760  13.433
45446W        W18514  38.368  12.717  13.356
45447W        W18515  10.711  31.146   4.417
45448W        W18516  15.053  32.515  10.588
45449W        W18517  24.187   5.813   3.894
45450W        W18518  13.239   3.836  14.417
45451W        W18519  15.993  16.892   0.005
45452W        W18520  35.719  27.429   4.598
45453W        W18521  22.867  39.114   4.175
45454W        W18522  13.257   8.449   4.118
45455W        W18523  39.802   1.379  14.877
45456W        W18524  38.131  20.532   3.184
45457W        W18525  24.860  32.730  11.438
45458W        W18526  15.655  28.665   1.901
45459W        W18527  40.043  25.167  11.358
45460W        W18528   1.915   9.806  14.899
45461W        W18529  40.962   3.801   1.955
45462W        W18530  10.904  15.376  13.843
45463W        W18531   4.260  21.128   4.202
45464W        W18532  28.233  17.720  12.604
45465W        W18533  11.655   8.840  14.819
45466W        W18534  37.874  11.635   0.856
45467W        W18535   5.898  17.296   3.904
45468W        W18536   7.786  16.056   4.597
45469W        W18537  33.326   9.784  14.239
45470W        W18538  14.080  28.156  13.534
45471W        W18539  33.945  15.537   1.746
45472W        W18540  43.756  17.036  12.126
45473W        W18541  26.639  30.806  10.287
45474W        W18542   9.845  19.172  12.969
45475W        W18543  30.922   3.176   2.851
45476W        W18544  28.396  21.662  11.254
45477W        W18545  20.950  28.585   1.467
45478W        W18546  12.582  15.301   1.642
45479W        W18547  40.565   3.699  10.726
45480W        W18548  34.066  14.140   1.374
45481W        W18549  27.079  35.394  12.941
45482W        W18550  40.297  18.301   0.350
45483W        W18551  21.616   6.166  12.692
45484W        W18552  33.838  35.976   1.121
45485W        W18553   4.144  36.321   0.496
45486W        W18554   0.536  15.891  13.531
45487W        W18555   3.138  17.456  10.641
45488W        W18556  26.626  16.455   4.084
45489W        W18557  35.059   6.921   4.701
45490W        W18558  12.136  43.859  10.915
45491W        W18559  37.278  29.519  14.801
45492W        W18560  28.463  11.942   3.874
45493W        W18561  32.570  33.840  13.580
45494W        W18562  19.196  35.517   0.726
45495W        W18563   6.839  41.902  14.378
45496W        W18564  39.823  22.618  12.084
45497W        W18565  34.899   7.406  11.678
45498W        W18566  43.086  44.763  12.083
45499W        W18567  26.056  14.159  11.647
45500W        W18568  21.492  25.235  11.592
45501W        W18569  12.210  21.702  14.549
45502W        W18570  12.991   6.871   4.155
45503W        W18571  22.836   3.753   3.190
45504W        W18572  44.012  25.361  12.181
45505W        W18573  42.225  18.355   3.653
45506W        W18574  20.122  39.290   4.586
45507W        W18575   1.990  40.354  14.036
45508W        W18576  29.746  31.807   1.167
45509W        W18577  40.965  35.894   0.494
45510W        W18578  28.544   1.212  12.202
45511W        W18579  32.375  36.563   4.111
45512W        W18580  21.858  40.402  14.366
45513W        W18581   1.367  37.526   1.674
45514W        W18582  21.139   1.645   1.390
45515W        W18583  30.623   3.019   4.596
45516W        W18584   7.320  41.994  13.102
45517W        W18585   3.143  44.450   4.161
45518W        W18586   7.236  38.540  12.318
45519W        W18587  32.025   6.032  13.386
45520W        W18588  18.603  12.376   3.238
45521W        W18589  44.090  22.667  11.240
45522W        W18590  43.488  41.257   1.227
45523W        W18591   1.246  40.048  13.513
45524W        W18592   7.871  19.966   1.788
45525W        W18593  12.344  20.695  13.441
45526W        W18594   9.506  35.544   0.686
45527W        W18595  29.456  36.862  14.541
45528W        W18596  32.055   7.303  12.815
45529W        W18597  21.007  25.561  11.175
45530W        W18598  22.297   5.742   2.813
45531W        W18599  36.625  20.736   2.377
45532W        W18600  42.773  19.323  11.241
45533W        W18601  18.518  15.511   1.401
45534W        W18602  19.090   0.229  10.917
45535W        W18603  28.132   4.523  11.172
45536W        W18604   5.787   5.209  12.499
45537W        W18605   5.268  19.308  14.448
45538W        W18606  33.103  17.068  11.843
45539W        W18607   0.182  23.392   4.090
45540W        W18608  32.404  28.067   2.175
45541W        W18609  10.431  32.860  13.951
45542W        W18610   6.917  16.016   0.505
45543W        W18611  44.553  37.096   0.898
45544W        W18612  40.550  42.346   3.717
45545W        W18613  20.873  10.682   2.409
45546W        W18614  11.931  11.788   5.075
45547W        W18615  44.299   7.258   3.769
45548W        W18616  29.084  25.597  10.546
45549W        W18617  42.864  19.523   9.901
45550W        W18618  35.138  30.101  12.062
45551W        W18619  22.085  37.928  13.021
45552W        W18620  21.467   7.440   3.680
45553W        W18621  20.122  42.598  10.559
45554W        W18622  41.368  37.920  13.043
45555W        W18623  37.093   4.372  13.047
45556W        W18624  23.152  38.390   2.560
45557W        W18625  40.292  15.526   2.448
45558W        W18626  15.085   3.434   0.416
45559W        W18627   1.380  37.493  14.754
45560W        W18628  35.914  43.290   3.670
45561W        W18629   0.389  43.333  10.587
45562W        W18630  13.723  38.069  13.311
45563W        W18631  31.580  12.926   2.729
45564W        W18632  13.014  13.628  10.604
45565W        W18633  26.043  26.183   3.807
45566W        W18634  27.138  28.542  10.744
45567W        W18635  16.165  42.784   4.622
45568W        W18636  25.912  12.582   1.729
45569W        W18637   7.697  12.220   1.446
45570W        W18638  23.434   5.282   3.741
45571W        W18639   6.914  11.106  12.388
45572W        W18640  15.251   0.059   3.243
45573W        W18641  23.359  10.395  13.378
45574W        W18642  21.364  10.445  13.455
45575W        W18643  37.324  23.517   4.025
45576W        W18644   0.006   8.710  10.600
45577W        W18645  34.477  24.026   3.645
45578W        W18646   2.816  32.975   3.864
45579W        W18647  38.599   0.756  13.474
45580W        W18648  22.217  36.033  11.944
45581W        W18649  25.246  14.029   1.335
45582W        W18650  32.128  36.516  10.613
45583W        W18651  12.327   8.180  14.447
45584W        W18652  16.578  18.651   2.161
45585W        W18653  23.622   0.937   0.774
45586W        W18654  24.079  23.124   2.321
45587W        W18655  20.942  37.531   4.958
45588W        W18656  30.982  34.842  13.330
45589W        W18657  36.641  43.252  13.332
45590W        W18658   4.808  22.719   2.781
45591W        W18659  37.096   2.013  10.717
45592W        W18660   3.208  41.366  12.466
45593W        W18661   3.372  23.931   1.171
45594W        W18662  10.679  28.322  14.369
45595W        W18663  12.208   6.401  10.705
45596W        W18664  36.721  41.551  11.175
45597W        W18665   5.217   0.862  13.861
45598W        W18666  20.118  22.061  11.074
45599W        W18667  36.263  28.861  14.406
45600W        W18668  32.547  37.016  14.309
45601W        W18669  23.704  17.649   4.062
45602W        W18670  39.090   4.312   4.623
45603W        W18671  21.645  44.764  10.113
45604W        W18672  29.441  16.389  11.486
45605W        W18673  43.440  15.719   3.181
45606W        W18674   8.103   7.377   1.134
45607W        W18675  29.707   1.808   0.471
45608W        W18676  15.032   2.152   2.371
45609W        W18677   6.503  39.451  11.400
45610W        W18678  27.855   1.770  13.905
45611W        W18679  10.581  24.011  12.331
45612W        W18680  10.507  43.584   4.204
45613W        W18681  37.209  12.318  12.744
45614W        W18682  14.024  21.273   1.315
45615W        W18683  19.118  38.286  11.173
45616W        W18684  10.657  12.748   3.044
45617W        W18685  13.541  33.980  11.573
45618W        W18686  11.266  33.038  13.852
45619W        W18687  14.118  32.327  11.800
45620W        W18688  29.663  41.658  13.049
45621W        W18689  33.004  11.878   2.807
45622W        W18690  31.642  19.656   4.046
45623W        W18691  44.936  29.680   3.978
45624W        W18692  14.679  26.816   3.308
45625W        W18693   2.091   5.429   0.765
45626W        W18694  15.752  11.909   4.186
45627W        W18695  11.071  15.343   1.801
45628W        W18696  44.490   0.392  12.041
45629W        W18697   7.695   0.212   2.153
45630W        W18698  30.071  17.705  14.540
45631W        W18699  21.047  14.675   3.627
45632W        W18700  28.690   5.443   3.847
45633W        W18701   1.343  31.559  12.523
45634W        W18702  37.530  28.480  10.631
45635W        W18703   4.195  21.339  14.161
45636W        W18704  14.318  19.217   3.925
45637W        W18705  20.110   9.127   1.668
45638W        W18706  15.683  11.129   2.116
45639W        W18707  15.830   9.502  11.116
45640W        W18708  43.393  41.316   0.238
45641W        W18709  23.936  16.819   1.360
45642W        W18710   1.692  36.115  14.377
45643W        W18711  17.503   0.397   4.172
45644W        W18712  11.993  44.740  13.080
45645W        W18713   2.311  39.743  13.699
45646W        W18714  10.373   8.757  11.581
45647W        W18715  43.070  18.234   4.195
45648W        W18716  37.454  10.197  10.267
45649W        W18717  18.568  20.720   1.486
45650W        W18718  29.483  30.727   0.731
45651W        W18719  26.871  15.675   4.425
45652W        W18720  35.957   7.416   1.734
45653W        W18721  19.947  41.098  14.296
45654W        W18722  23.751   1.441   3.621
45655W        W18723  29.512  12.805  13.577
45656W        W18724  41.514  43.997  12.115
45657W        W18725  38.940   2.917   2.268
45658W        W18726  26.912  14.809  14.831
45659W        W18727  39.348   2.453   3.292
45660W        W18728  21.555   0.669  10.186
45661W        W18729  38.040  29.589   3.786
45662W        W18730  34.756  21.096  12.109
45663W        W18731   2.563  43.299   3.507
45664W        W18732  34.654  44.226  13.085
45665W        W18733  30.943  13.235  14.864
45666W        W18734  15.156  18.351   4.661
45667W        W18735  13.217  31.996  14.645
45668W        W18736  24.205  16.696   2.294
45669W        W18737  25.560  35.625   0.567
45670W        W18738  13.847  33.079  14.036
45671W        W18739  10.660  20.405  13.146
45672W        W18740  17.122  22.036   0.378
45673W        W18741  33.064  26.725   3.165
45674W        W18742  38.725  14.216   2.133
45675W        W18743  34.883   2.808  12.788
45676W        W18744  15.442   9.573  12.016
45677W        W18745   7.797   6.409   3.587
45678W        W18746   3.911  37.500  10.566
45679W        W18747   7.349  22.709   2.856
45680W        W18748  40.413  24.229  11.539
45681W        W18749  39.147  32.526  13.234
45682W        W18750  24.389  26.478   4.151
45683W        W18751  12.129   5.848   2.298
45684W        W18752  11.884  19.205  13.085
45685W        W18753   7.173  23.621   2.136
45686W        W18754  24.128  40.524  13.554
45687W        W18755   0.762  43.053   1.833
45688W        W18756  44.377   2.579  10.564
45689W        W18757   7.689  30.437  13.481
45690W        W18758   6.913  25.188   1.844
45691W        W18759   2.770  33.563   2.633
45692W        W18760  29.426  11.684  12.600
45693W        W18761  11.283  32.125   3.142
45694W        W18762   4.747  33.476  11.585
45695W        W18763  38.978  43.062  11.164
45696W        W18764  25.199  43.348   4.602
45697W        W18765   6.177   9.786   3.796
45698W        W18766  39.346   7.626   3.246
45699W        W18767   4.813  30.938  12.889
45700W        W18768  17.782  10.405  12.158
45701W        W18769  24.422  21.617  11.505
45702W        W18770  34.260  12.163  14.995
45703W        W18771   1.746  12.184   1.790
45704W        W18772  37.035  17.699  10.734
45705W        W18773   3.685  22.363   4.400
45706W        W18774  13.834  37.671   2.443
45707W        W18775  31.794  33.584   3.747
45708W        W18776   4.674  23.567   2.142
45709W        W18777  22.233  17.580  12.434
45710W        W18778  33.420  43.058   1.336
45711W        W18779   3.464   4.669   3.759
45712W        W18780  34.649  30.112  10.640
45713W        W18781  41.943   1.775   4.964
45714W        W18782  18.172   9.622  14.931
45715W        W18783   6.960   1.009   2.470
45716W        W18784  40.313   9.116  13.757
45717W        W18785  18.713  18.830   3.660
45718W        W18786  34.626  33.343  10.267
45719W        W18787  13.761  32.356   3.813
45720W        W18788  35.566  35.965   2.974
45721W        W18789  36.029   1.458  11.573
45722W        W18790   1.197  42.081  11.871
45723W        W18791   9.775  20.481  11.197
45724W        W18792  41.894   0.293   5.057
45725W        W18793  25.030   4.811  14.465
45726W        W18794  20.941   5.211  12.057
45727W        W18795   4.420   8.399   5.032
45728W        W18796  23.142  38.375  11.091
45729W        W18797  29.949   7.767  11.683
45730W        W18798  24.983  37.042   3.093
45731W        W18799  19.273  29.626   0.245
45732W        W18800  28.910   5.138  13.340
45733W        W18801  12.582  37.869  13.963
45734W        W18802  21.226  23.820  12.917
45735W        W18803  26.941  41.368   2.247
45736W        W18804   3.932  26.942  14.888
45737W        W18805  23.950  28.613  10.829
45738W        W18806   5.466   0.318   1.028
45739W        W18807  12.378  27.570  10.556
45740W        W18808  37.313  11.728  10.703
45741W        W18809  32.432   7.416  11.542
45742W        W18810  22.328  21.498   2.020
45743W        W18811   6.233  18.305  13.299
45744W        W18812  21.203   2.308   5.108
45745W        W18813  13.578  22.544  12.964
45746W        W18814   5.496   7.122  12.050
45747W        W18815  41.910   4.402  14.686
45748W        W18816   7.384  39.284   3.257
45749W        W18817  25.067   2.743  12.864
45750W        W18818   0.237  16.739   2.173
45751W        W18819  29.395   5.983  12.342
45752W        W18820  41.259  25.026  11.968
45753W        W18821  29.195  43.954   1.432
45754W        W18822  12.329  26.011   3.348
45755W        W18823   4.807  28.987   4.223
45756W        W18824  43.858  34.508   1.235
45757W        W18825  44.334  27.854   1.200
45758W        W18826  12.274  22.473  13.092
45759W        W18827  19.547  18.152  14.254
45760W        W18828  26.697  11.350   1.075
45761W        W18829   1.940  34.985  10.646
45762W        W18830   5.899   8.175   1.161
45763W        W18831  15.797  19.767   1.863
45764W        W18832  44.862  26.268  14.615
45765W        W18833   0.839   1.268  12.682
45766W        W18834  22.469   4.150   0.006
45767W        W18835  11.675   4.165  13.830
45768W        W18836  27.970   3.481   0.853
45769W        W18837  19.575  34.530   3.368
45770W        W18838  25.895  23.101  14.313
45771W        W18839   4.816   4.907   1.404
45772W        W18840  34.511   5.309  11.147
45773W        W18841  33.478   7.900  11.470
45774W        W18842  21.268  12.053  11.211
45775W        W18843  17.456  38.951   0.307
45776W        W18844  17.320  21.594   4.122
45777W        W18845  14.026  35.637  12.067
45778W        W18846   7.251  34.599   3.221
45779W        W18847  17.053  32.003   4.495
45780W        W18848  21.556  27.763   3.870
45781W        W18849  34.583  34.067  10.614
45782W        W18850   8.329  23.577   0.338
45783W        W18851  24.139  38.904  13.485
45784W        W18852  28.857   2.180  12.949
45785W        W18853  11.286  17.547   2.201
45786W        W18854  27.039  34.542  13.551
45787W        W18855  38.019  24.758  12.980
45788W        W18856   5.141  23.130  13.807
45789W        W18857  19.822  31.968   1.024
45790W        W18858  24.914  28.024  13.824
45791W        W18859  27.331  24.505  13.878
45792W        W18860  32.920  12.309  13.002
45793W        W18861  36.013  43.624   3.250
45794W        W18862  21.539  20.188  13.496
45795W        W18863   1.443   8.471  11.165
45796W        W18864   0.735  26.766   2.720
45797W        W18865  13.419  44.826   4.602
45798W        W18866   4.263  34.331  13.996
45799W        W18867  18.886   4.510  10.464
45800W        W18868  24.192  10.807  12.418
45801W        W18869  11.385  10.798   0.247
45802W        W18870  30.158  11.241  12.625
45803W        W18871  15.865  13.867   4.163
45804W        W18872  28.026   8.805   2.190
45805W        W18873   7.404   9.568   2.327
45806W        W18874  10.979  12.837   3.865
45807W        W18875  23.327  31.902  10.758
45808W        W18876  28.545   3.909  11.945
45809W        W18877  16.199  20.082  12.374
45810W        W18878  13.251  13.876   4.366
45811W        W18879  39.510   6.730  14.824
45812W        W18880  21.571  28.959  11.918
45813W        W18881  19.187  28.673  13.409
45814W        W18882  32.140  39.516  13.923
45815W        W18883  34.657  40.046  12.072
45816W        W18884  22.185  33.741  12.906
45817W        W18885  16.718  26.052   0.315
45818W        W18886  20.612  17.597   2.684
45819W        W18887  30.068  31.519   4.645
45820W        W18888  17.722  15.814   4.176
45821W        W18889  30.369  24.548  12.405
45822W        W18890   8.484  11.817  11.058
45823W        W18891  23.442  35.014   0.020
45824W        W18892   2.577  42.443  13.029
45825W        W18893  12.258  37.066   4.231
45826W        W18894   6.817   4.224  11.657
45827W        W18895  42.732  19.531   4.471
45828W        W18896  40.062  31.318   1.471
45829W        W18897   5.212  24.381   1.252
45830W        W18898  20.621   1.322   1.927
45831W        W18899  41.372  31.860   0.642
45832W        W18900  29.648  41.606  14.384
45833W        W18901  28.095   9.435   1.146
45834W        W18902   3.153  13.996   1.380
45835W        W18903  33.900   6.765  13.611
45836W        W18904  41.360  19.160   0.768
45837W        W18905  43.370  24.726  13.858
45838W        W18906  30.840   1.191  10.694
45839W        W18907  22.641   8.601   1.470
45840W        W18908   4.970   9.422   2.460
45841W        W18909   0.932  10.759  11.069
45842W        W18910  13.510  40.326  12.243
45843W        W18911   6.647  24.534  11.706
45844W        W18912  12.468  33.456   4.203
45845W        W18913   8.220   7.144  12.899
45846W        W18914  11.132  24.503   3.441
45847W        W18915   3.956  17.317  12.114
45848W        W18916  18.401  27.226   3.300
45849W        W18917  21.685  10.644   0.299
45850W        W18918  32.155  28.305  11.150
45851W        W18919  34.549  14.736   1.762
45852W        W18920   7.239  37.763  13.827
45853W        W18921   7.265   4.399   3.257
45854W        W18922   1.302   8.725   2.608
45855W        W18923  17.123  17.846   4.681
45856W        W18924   3.443  25.086   0.576
45857W        W18925  23.744  19.152   1.849
45858W        W18926  25.675   2.553  11.027
45859W        W18927   2.749  15.315  14.853
45860W        W18928  19.493  18.695   1.750
45861W        W18929  19.830  39.932  14.232
45862W        W18930  12.116  14.359   0.768
45863W        W18931   6.299  30.331   1.031
45864W        W18932  18.021  41.512  11.117
45865W        W18933  15.058  43.372  13.977
45866W        W18934   1.410  31.962  13.486
45867W        W18935   6.711  44.857  14.590
45868W        W18936  25.147  29.099   3.637
45869W        W18937  12.343  34.958  12.825
45870W        W18938   6.011  14.152   2.409
45871W        W18939  42.838  36.734  11.706
45872W        W18940  30.593  20.857  14.501
45873W        W18941  42.390   0.004   3.915
45874W        W18942  10.702  10.755  13.922
45875W        W18943  32.039   8.115   4.535
45876W        W18944  38.637  15.625  14.483
45877W        W18945  33.667  38.973   3.714
45878W        W18946  11.419  32.698  11.583
45879W        W18947  29.163  40.577   1.296
45880W        W18948  42.263  25.011  13.924
45881W        W18949  11.327  22.127  11.775
45882W        W18950   2.261  31.937   2.205
45883W        W18951  35.563  36.280  14.010
45884W        W18952  41.795   5.290  14.895
45885W        W18953   6.688  29.535   0.951
45886W        W18954  16.615  44.908  10.636
45887W        W18955  15.887   7.187   2.370
45888W        W18956   7.877  18.544  12.850
45889W        W18957  11.252   3.763  12.831
45890W        W18958  20.565  16.594   3.615
45891W        W18959  19.155  39.861   0.456
45892W        W18960  34.688  12.555  13.051
45893W        W18961  35.467   2.227  12.500
45894W        W18962  19.908  13.851   0.963
45895W        W18963  16.641   7.447   4.323
45896W        W18964   2.244  13.637  11.644
45897W        W18965  21.363  29.970   4.294
45898W        W18966  36.509  17.201   3.737
45899W        W18967   5.470   0.503   1.520
45900W        W18968   4.367  15.355   1.450
45901W        W18969   9.771  39.913   1.465
45902W        W18970  11.639  43.385   1.776
45903W        W18971   5.907  30.745   2.444
45904W        W18972  42.782  40.380  10.454
45905W        W18973  29.998  36.612   1.706
45906W        W18974  20.654  34.607  12.011
45907W        W18975   9.365  27.941  10.461
45908W        W18976  11.221  15.268   4.335
45909W        W18977  18.994  11.484   3.341
45910W        W18978  31.410   9.234   1.927
45911W        W18979  36.827  30.447   0.638
45912W        W18980  28.023  37.141  14.357
45913W        W18981  39.558  28.747   0.248
45914W        W18982  14.306  19.597  13.361
45915W        W18983  13.046   2.782   1.033
45916W        W18984  13.701  37.231  12.981
45917W        W18985  41.228   9.793   0.377
45918W        W18986  27.697  25.166   3.189
45919W        W18987  25.192  12.376   2.607
45920W        W18988  20.987   7.943   0.765
45921W        W18989  44.331  38.085   1.676
45922W        W18990  28.660  13.291   4.509
45923W        W18991  40.004  21.040   1.407
45924W        W18992  20.221  31.022  10.707
45925W        W18993  37.315   2.960   0.777
45926W        W18994  33.872  10.737   1.910
45927W        W18995   6.973  29.958  13.366
45928W        W18996  38.275   6.238  13.372
45929W        W18997  34.468  13.993   0.140
45930W        W18998  21.620  10.169  14.383
45931W        W18999  25.538  17.570   4.188
45932W        W19000  36.949  37.479   4.122
45933W        W19001   5.716   0.626  12.095
45934W        W19002  26.890  24.648  12.108
45935W        W19003  33.585  36.976  12.158
45936W        W19004  30.937  41.337  13.560
45937W        W19005  38.913  36.411   2.256
45938W        W19006  34.750  31.618   3.690
45939W        W19007  36.898  43.480  11.906
45940W        W19008  26.797   1.976   2.887
45941W        W19009  22.691   4.353  12.919
45942W        W19010  43.420  43.752   2.430
45943W        W19011  35.176  21.687  13.434
45944W        W19012  27.205   6.432   0.529
45945W        W19013  29.955  12.911   3.887
45946W        W19014  11.665  36.074  14.108
45947W        W19015  30.730  18.587   4.072
45948W        W19016  17.144   8.797   1.063
45949W        W19017  44.522  44.367  10.970
45950W        W19018   2.227  37.441  12.119
45951W        W19019   8.806  29.979   4.725
45952W        W19020  36.788  35.130   1.355
45953W        W19021  29.505  40.017   0.312
45954W        W19022  40.157  15.945   2.769
45955W        W19023   1.868  18.640  11.412
45956W        W19024   5.935  25.715   3.178
45957W        W19025  42.609  40.134   4.250
45958W        W19026   6.746  15.678   3.690
45959W        W19027  38.932  34.127   0.850
45960W        W19028  20.250  26.028   0.195
45961W        W19029  33.937   0.952   4.781
45962W        W19030  32.596  39.450  14.902
45963W        W19031  21.628  37.520  11.145
45964W        W19032  32.712  30.410  10.667
45965W        W19033  36.549  27.340  14.186
45966W        W19034  43.558  19.707  11.069
45967W        W19035  31.252   4.018   3.733
45968W        W19036  44.423   2.848  14.670
45969W        W19037  28.683  23.912   4.045
45970W        W19038   9.701   3.355  14.519
45971W        W19039   7.902  31.428  14.268
45972W        W19040  36.575  42.559  11.254
45973W        W19041   0.991  35.408   2.390
45974W        W19042  16.513   0.883  14.497
45975W        W19043  29.037  42.525  10.954
45976W        W19044  25.034  42.950   0.415
45977W        W19045   0.260  37.477  13.312
45978W        W19046  37.730  32.986  10.044
45979W        W19047  31.938   8.504  14.957
45980W        W19048  29.219  19.669  12.062
45981W        W19049   2.250  43.712   2.655
45982W        W19050   4.754   4.374   4.180
45983W        W19051  34.095  34.591  13.976
45984W        W19052  43.944  43.450   0.526
45985W        W19053  22.755  14.552  13.425
45986W        W19054  29.858  11.785  14.524
45987W        W19055  10.139   2.307   2.213
45988W        W19056  39.817  12.243  12.612
45989W        W19057  22.789  33.349  12.171
45990W        W19058  12.933  33.224   4.185
45991W        W19059  12.423  26.379  14.255
45992W        W19060  15.101  13.240   3.906
45993W        W19061  42.559   8.938   1.682
45994W        W19062   4.284  23.217  14.232
45995W        W19063  27.175  33.151   4.151
45996W        W19064  19.978  40.280  10.716
45997W        W19065  37.912  24.780  10.219
45998W        W19066  44.357  35.072   4.706
45999W        W19067  15.393   7.791  14.916
46000W        W19068  26.730   0.986  13.720
46001W        W19069  22.044  26.223  13.591
46002W        W19070  12.873  22.102   4.638
46003W        W19071  27.278  29.182   4.887
46004W        W19072  43.838  36.343  12.947
46005W        W19073   3.884  37.128  14.244
46006W        W19074  41.638  19.171   4.863
46007W        W19075  18.365   1.469   2.845
46008W        W19076  24.383   6.179  14.938
46009W        W19077  31.361  34.963  10.990
46010W        W19078  34.970  32.940   3.029
46011W        W19079  14.265  26.474  11.221
46012W        W19080  28.203   2.796  11.866
46013W        W19081  18.025  13.633   0.286
46014W        W19082  34.053  23.040  13.328
46015W        W19083  40.557  25.092   0.996
46016W        W19084   3.781   3.253   1.680
46017W        W19085  44.734  23.549   3.071
46018W        W19086  24.695  23.211   4.071
46019W        W19087  13.665  15.606  12.596
46020W        W19088   8.149  36.647   1.251
46021W        W19089  26.146   3.343   4.386
46022W        W19090  42.024  39.933  10.769
46023W        W19091  19.716  37.505  11.646
46024W        W19092  43.383  37.998  14.749
46025W        W19093   7.472  34.683   2.768
46026W        W19094  36.973  39.036  13.112
46027W        W19095  37.524  27.074  12.730
46028W        W19096  16.165  25.714   2.292
46029W        W19097  16.852  30.232  11.150
46030W        W19098  34.705  27.971   3.863
46031W        W19099  29.977  44.931   1.179
46032W        W19100  39.978  23.630   3.177
46033W        W19101   9.218  10.752   0.296
46034W        W19102   0.405  13.122  14.911
46035W        W19103  13.067  22.326   4.107
46036W        W19104  20.924  17.852  12.388
46037W        W19105  15.212  26.048  10.464
46038W        W19106  29.870  10.308   2.877
46039W        W19107  13.137  41.033  14.923
46040W        W19108   9.789  18.521  13.798
46041W        W19109  43.312  16.233  11.135
46042W        W19110  40.933  16.718  13.285
46043W        W19111   2.993   2.356  11.384
46044W        W19112  39.737  10.180   0.568
46045W        W19113  37.244  14.214   1.784
46046W        W19114   0.379  19.568   5.078
46047W        W19115   8.724  30.705  11.989
46048W        W19116  11.957  21.623  13.171
46049W        W19117  23.990  41.664  12.532
46050W        W19118  30.882  18.244  12.896
46051W        W19119  12.356  26.671  10.616
46052W        W19120   0.262  35.261   2.074
46053W        W19121   9.860  42.004   2.405
46054W        W19122  17.631  34.516   2.433
46055W        W19123   0.215  20.196   4.952
46056W        W19124  40.573  33.101   4.233
46057W        W19125   8.366  12.546   4.184
46058W        W19126   8.607  42.958   2.632
46059W        W19127  35.409  30.158  13.568
46060W        W19128  34.866  10.987   2.336
46061W        W19129  20.613  25.528   2.441
46062W        W19130   6.990   4.350  12.980
46063W        W19131  12.837   3.662   0.862
46064W        W19132  40.854  18.632   3.449
46065W        W19133  21.487  15.366   4.634
46066W        W19134  19.407  41.932   4.856
46067W        W19135  18.490   7.783   4.193
46068W        W19136  18.042  27.603   3.357
46069W        W19137  31.542  38.554   1.965
46070W        W19138  29.408   1.935   1.278
46071W        W19139   0.293  17.649  13.557
46072W        W19140  13.768  36.028   1.985
46073W        W19141  39.490  37.651   9.980
46074W        W19142  34.371  33.891  12.938
46075W        W19143  22.635  20.295  12.989
46076W        W19144  14.217  37.006  13.745
46077W        W19145  19.818  12.781   4.158
46078W        W19146  19.134   0.864   3.706
46079W        W19147  24.469  13.789   3.689
46080W        W19148  22.047   7.328   1.348
46081W        W19149   4.535  43.480   0.422
46082W        W19150  28.131   2.424  13.476
46083W        W19151  11.448  16.536   2.272
46084W        W19152  35.643  23.045   1.329
46085W        W19153  20.171  14.402  11.239
46086W        W19154  43.211  35.831  11.191
46087W        W19155  13.106  27.397  12.807
46088W        W19156  34.464  16.548   1.451
46089W        W19157   3.852  28.043  11.617
46090W        W19158  40.523  17.530   3.108
46091W        W19159  21.009  30.830   4.147
46092W        W19160  21.684  26.127   4.818
46093W        W19161  31.443  22.660   1.929
46094W        W19162  21.913   2.894   3.800
46095W        W19163  22.725  23.751   3.689
46096W        W19164  38.069  15.764   1.830
46097W        W19165   3.981  15.779   2.133
46098W        W19166   1.795  26.008  12.345
46099W        W19167  21.006  10.942  11.154
46100W        W19168   9.263  40.043   1.414
46101W        W19169  42.461   9.591  11.137
46102W        W19170   1.454  29.097   4.504
46103W        W19171  27.489  39.044  13.781
46104W        W19172  41.378  32.427   1.378
46105W        W19173   9.696  26.616  12.493
46106W        W19174  42.470  37.070  13.411
46107W        W19175  28.466  19.628   1.209
46108W        W19176  42.239  17.116   4.526
46109W        W19177  33.507   0.845   5.071
46110W        W19178  12.600  15.839   0.343
46111W        W19179  39.481  15.204  12.089
46112W        W19180   5.218  40.811   0.259
46113W        W19181   9.879   6.325   3.166
46114W        W19182  40.121  19.588   2.646
46115W        W19183  25.812  23.472  13.471
46116W        W19184  29.571  32.954   0.745
46117W        W19185  35.364  43.236   4.594
46118W        W19186  33.543  17.215  13.087
46119W        W19187  15.015  27.598   2.379
46120W        W19188  14.620   6.817  13.269
46121W        W19189   3.322  27.861  12.315
46122W        W19190   2.438  33.512  14.832
46123W        W19191  35.073  28.140  11.112
46124W        W19192  35.557   7.094   3.813
46125W        W19193  42.885   5.273   0.386
46126W        W19194  10.913  16.842   3.336
46127W        W19195  35.477  12.342  11.996
46128W        W19196  16.819   8.796  11.538
46129W        W19197  13.397   8.837   0.415
46130W        W19198  22.160  14.767  11.461
46131W        W19199  25.410  26.676   0.324
46132W        W19200  26.658  19.918   5.159
46133W        W19201  41.479   1.062  10.175
46134W        W19202  22.235  25.477  14.902
46135W        W19203  17.059  38.401  10.932
46136W        W19204  44.985   5.825  11.824
46137W        W19205  25.964  40.598  14.929
46138W        W19206  13.195  10.020   3.220
46139W        W19207  17.196  28.991   2.783
46140W        W19208  40.810  31.495  12.839
46141W        W19209  32.287  23.963  14.081
46142W        W19210  35.615  15.237   3.269
46143W        W19211  33.822  29.102   1.264
46144W        W19212   6.240  31.774   0.327
46145W        W19213  16.912   0.353   1.299
46146W        W19214  31.625   1.774  11.121
46147W        W19215   8.604  14.612   1.799
46148W        W19216  31.880  33.570   4.568
46149W        W19217  27.525  44.470  12.445
46150W        W19218  36.008  37.776  11.124
46151W        W19219  32.102  15.303  14.521
46152W        W19220  27.604  18.543   0.575
46153W        W19221   6.389  35.349  13.266
46154W        W19222  27.779   8.686   4.949
46155W        W19223   7.158  10.652   2.797
46156W        W19224  13.881   7.426  11.306
46157W        W19225  35.253   8.425   2.447
46158W        W19226  22.064  28.005  13.371
46159W        W19227  42.939   4.562  13.614
46160W        W19228   2.924  18.762  14.456
46161W        W19229  18.918  12.818  13.454
46162W        W19230  12.854  34.983  12.991
46163W        W19231   3.846  44.304  10.721
46164W        W19232   3.761  38.112   0.735
46165W        W19233  14.175  29.413   4.116
46166W        W19234  36.282  40.011   0.667
46167W        W19235  35.149   4.265   0.420
46168W        W19236   2.461  11.741  12.990
46169W        W19237   1.498  39.963   3.845
46170W        W19238  33.602  30.217   3.990
46171W        W19239  43.980  38.390   1.905
46172W        W19240   7.854   0.007  11.196
46173W        W19241  10.763  41.166   4.162
46174W        W19242  15.129   7.416   0.674
46175W        W19243   0.494  35.639  10.789
46176W        W19244  21.229  14.185   3.577
46177W        W19245  37.491   9.389   4.397
46178W        W19246  31.687  26.415  12.435
46179W        W19247   5.308  21.823   4.549
46180W        W19248  30.076  32.907   4.076
46181W        W19249   9.706   6.938   4.110
46182W        W19250  23.660  39.119  13.431
46183W        W19251  15.793  29.544  12.471
46184W        W19252  16.759  41.858   1.398
46185W        W19253  38.443  36.291   3.131
46186W        W19254  10.591  35.002   4.691
46187W        W19255  22.285  44.171  12.918
46188W        W19256  22.261  32.582   3.232
46189W        W19257   0.977  41.453   4.246
46190W        W19258  19.993   7.860   2.429
46191W        W19259  38.523  27.146  12.968
46192W        W19260   2.245  42.849  12.341
46193W        W19261   3.254  26.826  13.325
46194W        W19262  37.660  17.997  12.172
46195W        W19263  36.581  43.955   2.393
46196W        W19264  11.093  29.624   0.374
46197W        W19265  25.745  44.408   4.648
46198W        W19266   1.324  35.830   4.864
46199W        W19267  20.242  20.744  11.520
46200W        W19268  10.308  42.202  13.911
46201W        W19269  35.888  41.893   3.344
46202W        W19270  16.963  34.552   5.159
46203W        W19271   1.747  32.535  13.067
46204W        W19272   2.430  17.262  13.439
46205W        W19273  39.123  44.747   3.188
46206W        W19274  33.526  27.488   4.156
46207W        W19275  16.862  34.401  12.594
46208W        W19276  14.976  25.030   1.426
46209W        W19277  38.051  20.010  13.030
46210W        W19278  10.550  32.931  10.778
46211W        W19279  43.944   6.792  12.080
46212W        W19280  21.973  35.329  13.752
46213W        W19281  42.775  28.638   4.527
46214W        W19282   7.924  34.744  13.914
46215W        W19283  32.478  15.301   2.814
46216W        W19284  36.895  24.742   4.537
46217W        W19285  20.195  13.890  13.085
46218W        W19286  40.978  20.308   2.049
46219W        W19287   7.478  39.798  12.518
46220W        W19288   9.289  40.768  14.416
46221W        W19289  28.360   6.833  13.984
46222W        W19290  13.793  30.905   2.339
46223W        W19291  10.818  26.028  11.208
46224W        W19292  15.263   9.998  10.451
46225W        W19293  20.250  24.257   3.670
46226W        W19294  38.203  33.017  10.778
46227W        W19295  27.551  12.601  11.842
46228W        W19296  39.445  34.122   3.766
46229W        W19297  16.641  40.978   0.803
46230W        W19298  43.836  12.482   0.267
46231W        W19299  30.862  13.492  13.328
46232W        W19300   3.938  17.884   3.586
46233W        W19301  11.792   2.446  12.521
46234W        W19302  36.944  36.418  13.948
46235W        W19303  34.080  41.842   4.041
46236W        W19304  34.231  31.006  13.922
46237W        W19305  12.475  20.262  14.576
46238W        W19306  36.264  20.572   0.784
46239W        W19307  31.859  33.654  11.094
46240W        W19308   4.261  27.914  12.701
46241W        W19309  31.738  15.254   2.207
46242W        W19310  37.397  41.064   2.919
46243W        W19311   3.336  14.493   0.360
46244W        W19312   5.910  35.361   0.625
46245W        W19313  25.155  11.441   2.446
46246W        W19314  36.840  21.823   3.759
46247W        W19315  43.164   0.740  10.763
46248W        W19316   8.727  39.094  13.610
46249W        W19317  15.343  41.030  11.132
46250W        W19318  38.593  38.465  10.562
46251W        W19319  34.477   0.301   2.731
46252W        W19320  41.777  37.573  14.513
46253W        W19321  29.625   6.940   3.667
46254W        W19322  28.644   2.729   3.176
46255W        W19323  37.076  20.738   3.187
46256W        W19324  33.658  25.564   1.823
46257W        W19325  23.668  40.456  13.336
46258W        W19326  33.016  40.791  11.133
46259W        W19327  15.616  37.657   1.256
46260W        W19328  13.029  31.505  14.694
46261W        W19329   7.466   4.858  14.566
46262W        W19330  38.369  25.127   0.052
46263W        W19331  32.896  30.139   2.466
46264W        W19332   6.039   1.127  13.771
46265W        W19333  31.998  35.055   4.631
46266W        W19334   1.873  37.943   2.646
46267W        W19335  13.175   9.210   4.578
46268W        W19336   8.138  10.260   9.863
46269W        W19337  38.000   0.065  13.391
46270W        W19338  12.714  14.872   1.889
46271W        W19339   0.885  22.163   3.389
46272W        W19340  27.686  24.048   0.810
46273W        W19341  23.711  44.230  12.762
46274W        W19342   7.573  17.656  13.315
46275W        W19343   2.338  19.135  13.874
46276W        W19344   2.846  12.021  11.070
46277W        W19345  41.527  20.644  11.575
46278W        W19346  27.666  31.264  14.790
46279W        W19347  20.725  41.511   0.236
46280W        W19348   0.504   6.645   1.920
46281W        W19349   5.687   2.984  12.013
46282W        W19350  33.820  21.268   0.020
46283W        W19351  34.052  38.282   0.526
46284W        W19352  17.223  17.196  10.594
46285W        W19353  31.094  38.119  14.001
46286W        W19354  42.811  15.317  11.100
46287W        W19355  11.168  40.321   0.809
46288W        W19356  12.156  25.469  12.379
46289W        W19357  18.651  39.415  13.376
46290W        W19358  25.538  26.460   3.109
46291W        W19359  19.657   5.695   0.563
46292W        W19360   0.733   4.034   2.284
46293W        W19361  31.118  23.226  13.867
46294W        W19362  36.266  28.226   2.472
46295W        W19363  41.309   3.199   1.419
46296W        W19364  32.960  40.994   2.702
46297W        W19365  33.004  37.101  13.308
46298W        W19366  33.941  29.629   2.461
46299W        W19367  40.421   7.868  10.014
46300W        W19368  43.721  26.551   4.172
46301W        W19369  21.332   7.046  11.751
46302W        W19370  25.581  20.057   1.512
46303W        W19371  37.839  13.562  11.656
46304W        W19372  42.954  24.515   4.143
46305W        W19373  18.786   4.380   4.598
46306W        W19374  36.024   6.310  12.354
46307W        W19375  37.052  24.432  12.707
46308W        W19376  20.542  41.496   4.576
46309W        W19377  32.863  31.146   4.447
46310W        W19378  10.684  17.075   9.970
46311W        W19379  32.338  34.147   1.366
46312W        W19380  14.874   6.797   0.755
46313W        W19381   4.896   3.308   1.439
46314W        W19382  11.130  38.310  14.015
46315W        W19383  11.665  16.190  13.132
46316W        W19384  31.081  14.059  13.830
46317W        W19385  16.623  27.869  14.796
46318W        W19386  26.170   8.196   1.405
46319W        W19387  38.801  32.031   2.352
46320W        W19388  28.575  22.944   4.510
46321W        W19389  28.493   8.105   2.366
46322W        W19390  23.792   1.196   4.645
46323W        W19391  10.730  33.346   4.143
46324W        W19392  29.526  40.961   4.194
46325W        W19393  13.067  33.991  10.756
46326W        W19394   6.240  17.274   4.276
46327W        W19395  43.180   0.979  11.248
46328W        W19396  25.641  11.640   2.592
46329W        W19397  10.089  28.162   1.961
46330W        W19398  42.954  16.785  13.914
46331W        W19399  35.964  36.372  11.387
46332W        W19400  33.015  43.403   3.330
46333W        W19401   5.947   6.180  14.478
46334W        W19402  44.003  39.846  10.695
46335W        W19403  36.269  17.324   3.263
46336W        W19404  32.163  37.013   0.198
46337W        W19405  33.025   5.179  13.602
46338W        W19406  36.815  20.700  14.419
46339W        W19407  10.625  23.110  13.384
46340W        W19408   2.850  23.195  13.033
46341W        W19409  22.665   4.613  10.722
46342W        W19410  29.463  44.703  12.428
46343W        W19411   7.423  40.910   2.871
46344W        W19412  41.984   2.967   2.261
46345W        W19413   7.279  20.740  11.990
46346W        W19414  38.490  37.088  11.519
46347W        W19415  11.427  36.441  10.215
46348W        W19416  29.596  22.094   3.584
46349W        W19417   2.706  16.025   4.595
46350W        W19418   3.847  36.436   4.710
46351W        W19419   8.421  17.374   4.381
46352W        W19420  16.596  38.944  11.886
46353W        W19421  25.898   9.318  10.942
46354W        W19422  36.817   1.145  11.947
46355W        W19423  15.267  41.395  14.963
46356W        W19424   4.914  21.964  11.515
46357W        W19425  34.071  37.794   1.400
46358W        W19426  23.425  21.469   2.941
46359W        W19427  20.488   1.675   2.288
46360W        W19428  41.463  11.585  12.144
46361W        W19429  12.833  10.440   4.989
46362W        W19430  44.888  23.678  10.883
46363W        W19431  32.020  37.365  13.321
46364W        W19432  18.633  37.103  11.054
46365W        W19433  39.010  16.698  13.809
46366W        W19434  25.042  42.982  11.211
46367W        W19435  37.926   2.009   2.270
46368W        W19436  13.930   8.538   0.447
46369W        W19437  43.498  36.932   3.315
46370W        W19438  29.113  26.427  14.803
46371W        W19439   9.301  34.710   4.242
46372W        W19440  30.608  39.619  11.279
46373W        W19441  26.246  39.861  13.265
46374W        W19442  13.970  19.744   1.813
46375W        W19443  19.720  34.420  13.191
46376W        W19444  27.558  25.430   3.673
46377W        W19445  26.723  31.346   3.397
46378W        W19446   6.869  21.711  14.269
46379W        W19447  10.811  33.967   1.973
46380W        W19448  12.660  33.869  11.056
46381W        W19449  38.617  28.966   4.016
46382W        W19450  33.525  17.185  12.157
46383W        W19451  16.306  30.351   4.961
46384W        W19452  22.314   7.376   2.275
46385W        W19453  18.691  19.072   2.258
46386W        W19454  25.957  10.781  11.646
46387W        W19455   3.687  32.221  12.570
46388W        W19456  11.050  12.712  14.319
46389W        W19457  32.745  33.025  11.153
46390W        W19458  41.971  20.313   2.200
46391W        W19459   5.858  38.052  11.400
46392W        W19460  31.897  19.002  12.610
46393W        W19461  24.193  19.608  12.289
46394W        W19462  23.706  18.785  11.513
46395W        W19463  36.064  42.484  12.089
46396W        W19464  32.964  39.936   0.483
46397W        W19465  26.005  42.308   3.747
46398W        W19466  36.307  44.496  11.159
46399W        W19467  43.116  19.136  13.169
46400W        W19468   2.424   2.463  12.075
46401W        W19469  18.323  16.397  14.985
46402W        W19470  11.157  37.469  12.970
46403W        W19471  16.176  39.939   2.851
46404W        W19472  32.472  33.679   2.252
46405W        W19473   9.820   3.861  14.559
46406W        W19474   8.565  38.904  11.001
46407W        W19475  14.687  10.839  14.336
46408W        W19476  20.304  31.546   4.016
46409W        W19477   6.239  36.913   3.451
46410W        W19478  40.273  21.066  10.693
46411W        W19479  20.172  27.948  11.243
46412W        W19480   7.827  42.993   0.735
46413W        W19481  34.660  21.238   1.476
46414W        W19482  39.470  14.728   4.017
46415W        W19483  32.318  12.140   1.262
46416W        W19484  41.030  12.131   1.429
46417W        W19485  43.415   2.675  11.521
46418W        W19486  13.899  31.919   4.519
46419W        W19487  33.941  38.710  10.166
46420W        W19488  35.674  13.969  13.368
46421W        W19489  13.827  39.462   0.260
46422W        W19490  31.203  20.070  11.984
46423W        W19491   4.213  41.380   4.351
46424W        W19492  16.650  20.189  10.879
46425W        W19493  20.257  31.766   3.399
46426W        W19494  30.477  22.107   2.609
46427W        W19495  13.320  29.946   4.329
46428W        W19496  26.575  30.959  13.584
46429W        W19497  11.751   3.986  10.922
46430W        W19498  22.130  31.074  10.560
46431W        W19499  38.807  27.045  14.178
46432W        W19500  22.066  14.703  10.958
46433W        W19501  33.387  14.278  13.953
46434W        W19502  32.891  24.989   1.622
46435W        W19503  24.039  28.567   4.960
46436W        W19504  43.586  32.644   4.609
46437W        W19505  19.275  43.198  13.899
46438W        W19506  18.878  18.569   2.351
46439W        W19507  18.112   6.283  13.176
46440W        W19508  39.268  13.129   0.451
46441W        W19509   0.366   8.277  14.077
46442W        W19510  18.042   4.487  12.628
46443W        W19511  32.621  19.118  11.572
46444W        W19512   8.398  27.017   4.748
46445W        W19513  40.831  27.078  13.389
46446W        W19514  17.516  10.378   4.087
46447W        W19515  31.627  39.684  11.104
46448W        W19516   8.667   4.672  11.851
46449W        W19517  26.710  17.560   0.709
46450W        W19518   0.012  18.729   2.538
46451W        W19519  22.440  43.732  13.129
46452W        W19520   6.608   9.206   1.836
46453W        W19521  22.624   1.203  13.870
46454W        W19522  43.316  23.121   3.676
46455W        W19523  21.083  33.864  14.037
46456W        W19524  32.904  13.632  10.810
46457W        W19525  17.068  18.044   3.249
46458W        W19526  24.207   6.733   3.651
46459W        W19527  43.927  38.074   2.429
46460W        W19528  34.454  10.720  10.966
46461W        W19529   6.047  40.896  11.161
46462W        W19530  41.486  44.521   0.377
46463W        W19531  10.102  32.552   4.694
46464W        W19532   8.405  16.748  12.590
46465W        W19533  31.978   8.640   2.225
46466W        W19534  25.842  28.430   4.071
46467W        W19535  42.533   8.240   3.817
46468W        W19536  17.757  34.346   1.429
46469W        W19537  26.202  14.694  12.441
46470W        W19538   8.504  20.828  11.594
46471W        W19539  41.392  35.330  12.088
46472W        W19540  30.542  30.233  11.183
46473W        W19541  11.631  25.399  13.558
46474W        W19542  21.962  39.979   0.453
46475W        W19543  12.663   8.128   0.396
46476W        W19544  22.696  30.478  12.983
46477W        W19545  40.304  10.113  13.871
46478W        W19546  26.406  22.448  13.571
46479W        W19547  24.060  29.611  14.556
46480W        W19548  42.966  15.563   3.547
46481W        W19549  34.259  31.864   3.282
46482W        W19550  24.983  13.471   3.614
46483W        W19551  37.928  23.194  12.157
46484W        W19552  36.332  10.417   4.311
46485W        W19553   3.831  13.625  11.497
46486W        W19554  22.705  11.089  12.976
46487W        W19555   3.512  14.205  11.516
46488W        W19556  29.983  21.718   4.210
46489W        W19557  40.214  34.093  13.126
46490W        W19558  28.100  21.323  11.978
46491W        W19559  24.084   1.673   0.435
46492W        W19560   6.057  35.194   9.815
46493W        W19561  15.108  35.613  11.236
46494W        W19562   2.318  11.648  11.686
46495W        W19563   3.027  20.107   2.145
46496W        W19564  31.923  25.536   4.107
46497W        W19565  35.945  27.343   3.680
46498W        W19566  20.935  28.646  13.489
46499W        W19567  42.769  14.340  13.984
46500W        W19568  41.551   1.078  11.914
46501W        W19569  31.895   8.193   4.054
46502W        W19570  32.359  13.762  11.514
46503W        W19571  19.049   8.731  11.628
46504W        W19572   8.561  15.783   2.361
46505W        W19573  39.869   0.227   4.107
46506W        W19574   3.824   6.393  11.514
46507W        W19575   7.406  31.143  11.458
46508W        W19576   4.385  13.591   2.351
46509W        W19577  19.753  28.784   0.325
46510W        W19578  14.822   4.192   4.903
46511W        W19579   7.030  27.200  13.849
46512W        W19580   3.848  23.195   1.093
46513W        W19581  41.840  38.246   4.580
46514W        W19582  43.334   3.708   0.506
46515W        W19583  25.570   5.990  10.661
46516W        W19584  36.034   5.226   4.807
46517W        W19585  27.088  42.612   1.850
46518W        W19586  42.511  38.174  12.063
46519W        W19587  15.325  34.953   4.380
46520W        W19588  29.538  15.777   3.733
46521W        W19589  12.770  40.873  11.768
46522W        W19590  16.585  42.026  11.542
46523W        W19591   4.032   2.792   1.699
46524W        W19592   7.147  11.833  11.166
46525W        W19593  10.003  35.513   0.758
46526W        W19594   1.688  19.807  13.630
46527W        W19595   2.283  22.710  11.191
46528W        W19596  29.483   6.379   1.258
46529W        W19597  24.409  20.157  11.557
46530W        W19598  31.430  26.452   1.402
46531W        W19599  13.246  24.676   4.258
46532W        W19600   8.299  22.484  14.353
46533W        W19601  33.572  24.478   1.006
46534W        W19602  14.887  18.086  14.953
46535W        W19603  40.494  27.591  13.895
46536W        W19604   9.789   8.484   1.774
46537W        W19605   1.710  21.666   2.763
46538W        W19606  10.196  44.571   3.229
46539W        W19607  40.447  27.747   3.810
46540W        W19608  44.578   2.125  13.280
46541W        W19609  34.659  15.896   4.203
46542W        W19610   6.283  19.587   4.619
46543W        W19611  43.908   7.207   4.125
46544W        W19612  25.188  35.495   2.361
46545W        W19613  17.618  38.195   1.382
46546W        W19614  24.912  40.783   0.354
46547W        W19615  16.709  28.853  12.003
46548W        W19616  39.531  28.022   2.372
46549W        W19617   6.441  24.551  14.347
46550W        W19618   7.291  19.560  14.417
46551W        W19619  31.651   9.579  14.751
46552W        W19620   9.176  20.760  10.932
46553W        W19621  13.392  38.628   0.064
46554W        W19622  41.200  32.109   2.699
46555W        W19623  44.540  30.139   0.032
46556W        W19624   7.300  44.798  14.053
46557W        W19625  12.417  37.339   3.790
46558W        W19626  21.081  42.723  11.680
46559W        W19627   9.261  38.734   2.400
46560W        W19628  41.563  40.271  14.750
46561W        W19629  10.723  32.407   2.286
46562W        W19630  17.677  10.198  11.157
46563W        W19631  31.156   7.462  14.916
46564W        W19632  44.992  14.039  12.510
46565W        W19633  34.086  11.411  12.993
46566W        W19634  30.915   0.820  10.270
46567W        W19635  31.999   7.290   2.729
46568W        W19636  36.605  44.464  12.617
46569W        W19637  21.241  18.980  12.941
46570W        W19638  31.106  17.967  10.131
46571W        W19639  20.161   7.806  10.734
46572W        W19640  30.905  24.717   3.352
46573W        W19641  22.127  44.731  14.381
46574W        W19642  42.321  10.894  11.446
46575W        W19643  44.915   7.803  13.142
46576W        W19644  16.288  20.351   4.027
46577W        W19645  11.913   5.227   4.767
46578W        W19646   9.441  36.803  14.303
46579W        W19647  19.395   0.271   0.064
46580W        W19648  11.983  29.113  11.493
46581W        W19649  35.764  10.704   2.479
46582W        W19650   9.130  35.081   3.353
46583W        W19651  36.181   1.067  10.385
46584W        W19652  15.844   4.284   1.937
46585W        W19653   6.872  37.347  13.903
46586W        W19654  38.875  31.167  12.978
46587W        W19655  42.786  24.498   2.673
46588W        W19656  43.077  20.262   4.127
46589W        W19657  16.130  32.053  13.788
46590W        W19658  34.195  44.421  11.874
46591W        W19659  38.854  16.390   2.474
46592W        W19660  23.815   1.972   3.509
46593W        W19661  19.288  39.189   1.321
46594W        W19662  18.727  43.255  13.883
46595W        W19663   6.439   4.377   4.853
46596W        W19664   7.978  25.695   2.731
46597W        W19665  21.222  11.629  14.464
46598W        W19666  10.644   0.589  12.931
46599W        W19667  14.539  13.197   1.157
46600W        W19668  36.076  33.640  13.027
46601W        W19669  39.244  15.072  14.370
46602W        W19670  24.412  25.586  11.712
46603W        W19671  28.748  22.099  11.508
46604W        W19672   3.949  25.957  13.905
46605W        W19673  39.556  34.432  11.871
46606W        W19674   9.515  15.118  12.084
46607W        W19675  33.336  28.618   3.188
46608W        W19676   2.224   8.332  10.627
46609W        W19677   2.845  35.671   3.278
46610W        W19678  19.782  29.609  11.249
46611W        W19679  24.418  42.751  10.813
46612W        W19680  12.272  17.181   0.489
46613W        W19681  26.404   4.429  13.157
46614W        W19682   0.413   2.515   2.547
46615W        W19683  19.109   0.847   2.585
46616W        W19684  18.429  11.566  11.946
46617W        W19685  17.573   7.173   0.725
46618W        W19686  33.622  18.462   3.563
46619W        W19687  26.710  29.638   2.316
46620W        W19688   2.708  14.783   3.642
46621W        W19689  16.575   5.829   2.163
46622W        W19690   2.095  33.502  13.013
46623W        W19691  38.974   1.955  10.685
46624W        W19692   9.476  11.654   1.542
46625W        W19693  18.819   3.414   3.658
46626W        W19694  25.079  33.830   2.362
46627W        W19695  18.350  39.382   3.668
46628W        W19696   9.463  18.368  10.971
46629W        W19697   6.277   6.217  10.753
46630W        W19698  33.450   8.379   4.535
46631W        W19699   4.763   1.862  13.560
46632W        W19700  15.728  20.345  13.043
46633W        W19701   3.870  40.555   3.201
46634W        W19702  37.329  17.333   4.131
46635W        W19703  32.238  25.937   1.414
46636W        W19704   3.399   4.229  13.776
46637W        W19705  17.724  39.389   0.346
46638W        W19706   6.114  25.865   1.471
46639W        W19707  15.148  15.889  11.537
46640W        W19708  32.997  29.947   3.467
46641W        W19709  41.355  18.809   2.841
46642W        W19710  24.397  23.179  10.765
46643W        W19711  14.144   5.231   3.658
46644W        W19712  15.937  37.837  11.691
46645W        W19713   5.400  34.182   0.705
46646W        W19714  41.591  42.844   5.091
46647W        W19715   6.267  25.395   2.417
46648W        W19716  31.134   6.162   2.266
46649W        W19717  19.479  33.995   1.608
46650W        W19718  32.671  17.327   1.370
46651W        W19719  10.411  26.572   2.908
46652W        W19720   5.308  25.065   4.112
46653W        W19721  12.280  27.189  13.745
46654W        W19722   6.887  16.502  12.544
46655W        W19723   0.748  37.154  12.992
46656W        W19724   9.746  18.230  14.224
46657W        W19725  29.643  27.279  11.935
46658W        W19726  36.519  16.907  12.432
46659W        W19727   6.390  12.616  14.235
46660W        W19728  16.064  13.185   4.516
46661W        W19729  38.820  39.302  11.449
46662W        W19730   6.039  28.087   5.001
46663W        W19731  25.477  18.179   1.389
46664W        W19732   2.566  13.295  10.672
46665W        W19733  13.265  30.958   1.888
46666W        W19734  23.463  15.988   9.667
46667W        W19735  21.282  31.713  13.378
46668W        W19736  33.617  44.962   2.349
46669W        W19737   4.382  29.637   1.125
46670W        W19738  10.925  37.321  12.523
46671W        W19739  30.622   7.918  13.487
46672W        W19740  27.105   3.407  12.004
46673W        W19741  21.319   4.719   0.495
46674W        W19742  12.759  26.657  10.956
46675W        W19743  36.858  18.136   2.613
46676W        W19744  26.655  17.916   4.150
46677W        W19745  38.844   4.744   4.803
46678W        W19746  10.205  33.003  10.391
46679W        W19747  42.851  42.972   1.819
46680W        W19748  21.015  43.835   1.142
46681W        W19749  24.097  18.150  14.098
46682W        W19750  40.313  21.479   0.226
46683W        W19751  32.966  41.264   0.809
46684W        W19752  36.451  13.623   4.641
46685W        W19753   8.329   8.881  14.402
46686W        W19754  22.074  37.954   0.179
46687W        W19755  16.411   8.458  11.520
46688W        W19756  43.492  30.924  14.822
46689W        W19757  24.935  16.248   0.375
46690W        W19758  23.210  11.285  11.346
46691W        W19759  36.282  11.295  14.167
46692W        W19760  21.333  21.027   2.314
46693W        W19761  11.455  34.899  11.248
46694W        W19762  17.899   4.992   3.387
46695W        W19763  37.724  42.399  12.592
46696W        W19764  28.144  38.782  12.021
46697W        W19765   0.814  21.724  12.029
46698W        W19766  15.968   9.528   0.324
46699W        W19767  24.477  37.344   4.678
46700W        W19768  29.172  41.249  11.164
46701W        W19769  19.803  38.386  11.610
46702W        W19770  10.327  17.482   3.695
46703W        W19771  37.628   6.948  10.299
46704W        W19772  14.202  23.953  13.072
46705W        W19773   2.708  40.492  12.514
46706W        W19774  31.207  44.010  12.453
46707W        W19775   7.722   2.189   1.041
46708W        W19776   0.662  40.936  11.519
46709W        W19777  35.421  30.310   4.464
46710W        W19778  25.534  36.055   2.930
46711W        W19779   0.537   0.204   2.309
46712W        W19780   7.557  33.536  14.499
46713W        W19781   8.829  12.921  14.670
46714W        W19782   7.936   6.100  11.539
46715W        W19783  19.349  22.577  13.512
46716W        W19784  22.479  11.006  12.074
46717W        W19785  33.995  38.259   3.783
46718W        W19786  37.877  12.163   0.922
46719W        W19787  12.172   2.729  12.272
46720W        W19788  38.767  22.559  14.633
46721W        W19789  16.506  37.418  12.612
46722W        W19790  10.101   9.164  14.549
46723W        W19791  13.144  15.031  12.038
46724W        W19792  17.156  26.206  11.163
46725W        W19793  25.809   4.965  13.889
46726W        W19794  24.317  10.678   1.406
46727W        W19795  28.219   7.208   1.280
46728W        W19796  19.302  25.829  13.605
46729W        W19797   5.199  22.521  11.411
46730W        W19798  40.166  18.866   3.155
46731W        W19799  25.153  15.537  12.848
46732W        W19800  19.249  18.876  12.641
46733W        W19801  27.226  42.224  13.405
46734W        W19802   6.340  13.088   3.207
46735W        W19803   1.889  18.075   1.246
46736W        W19804  18.671  21.152  14.722
46737W        W19805   1.546  23.657   2.783
46738W        W19806  43.893  31.847  12.321
46739W        W19807  32.060  22.011   0.959
46740W        W19808   3.932  11.312   1.847
46741W        W19809  19.123  17.391   0.510
46742W        W19810  36.530  10.875  14.287
46743W        W19811   1.764   8.640   3.363
46744W        W19812   0.432  36.524   2.018
46745W        W19813  37.864  28.909  13.437
46746W        W19814  16.584  38.064  13.189
46747W        W19815   2.011   4.718   2.764
46748W        W19816  10.076  10.262  14.229
46749W        W19817   9.790  23.680   0.759
46750W        W19818  25.941   5.910  14.409
46751W        W19819  27.541  10.377   5.033
46752W        W19820  27.719   5.974  11.158
46753W        W19821  20.368  12.795  11.536
46754W        W19822  26.516  23.496  11.773
46755W        W19823  37.077  34.035   1.656
46756W        W19824  42.753  13.282   4.530
46757W        W19825  43.787  40.463   0.627
46758W        W19826  15.014   0.288  13.943
46759W        W19827   4.124  11.122  13.334
46760W        W19828  38.522  38.543  11.468
46761W        W19829  37.248  13.814  14.936
46762W        W19830  23.835  30.792   3.298
46763W        W19831   3.050  28.279   0.513
46764W        W19832  24.051   9.222  11.149
46765W        W19833  19.253  20.169   2.707
46766W        W19834  30.871   2.634   2.738
46767W        W19835  41.743  27.934   0.688
46768W        W19836  21.116  36.952   0.703
46769W        W19837  25.428  10.279   5.512
46770W        W19838  19.228   0.472  10.461
46771W        W19839  15.794  28.413   4.571
46772W        W19840   1.931  33.453   0.723
46773W        W19841  12.329  12.630  14.924
46774W        W19842   2.468   7.193   2.530
46775W        W19843  11.164  31.049   0.214
46776W        W19844  14.256  42.490  13.818
46777W        W19845  10.646  28.350  10.457
46778W        W19846  27.601   8.898  14.578
46779W        W19847  12.393   7.392  10.915
46780W        W19848   1.452  27.744  11.470
46781W        W19849  18.777  41.740   1.344
46782W        W19850  40.205  41.358  12.223
46783W        W19851  24.298   3.411   4.728
46784W        W19852  17.834   3.250   1.591
46785W        W19853  35.037  15.139  12.039
46786W        W19854   1.889  29.897  13.046
46787W        W19855  38.508   6.383  14.360
46788W        W19856  12.737  23.606  14.271
46789W        W19857  35.949  29.621  13.390
46790W        W19858  29.628  41.585  12.509
46791W        W19859  27.493  11.344   0.823
46792W        W19860  44.752  23.367   2.203
46793W        W19861  33.035   5.716  12.414
46794W        W19862  37.175   8.423  11.446
46795W        W19863  29.165  31.332  11.419
46796W        W19864  14.554  32.325  10.510
46797W        W19865  11.682  40.336  12.809
46798W        W19866  30.682  29.851  14.115
46799W        W19867  10.320  41.613   9.909
46800W        W19868   8.404  35.811  10.650
46801W        W19869  29.933  27.149  11.544
46802W        W19870   7.689   4.887  12.076
46803W        W19871  40.833   6.203   0.919
46804W        W19872  35.979  11.093   1.142
46805W        W19873  33.479   9.687  13.380
46806W        W19874  39.645  36.807   4.613
46807W        W19875  20.029  19.215   0.487
46808W        W19876  25.335  12.114   4.722
46809W        W19877   2.725  39.492   2.685
46810W        W19878  27.212  26.505   1.729
46811W        W19879  41.333  27.453   4.071
46812W        W19880  26.636  19.007  12.379
46813W        W19881  37.973  42.739  12.955
46814W        W19882  17.241  38.340   2.322
46815W        W19883  27.922  35.502  14.017
46816W        W19884  10.114   3.882   4.536
46817W        W19885  34.114  38.184  12.896
46818W        W19886  26.705  38.282   1.723
46819W        W19887  10.334  11.393  11.563
46820W        W19888  21.194  22.018  11.306
46821W        W19889  32.146  40.894  12.175
46822W        W19890   2.750  17.861   2.205
46823W        W19891   4.733  37.315  14.858
46824W        W19892  43.941  27.255   2.375
46825W        W19893  26.114  35.892  12.081
46826W        W19894  33.431  32.629   2.196
46827W        W19895   2.752  17.668  13.493
46828W        W19896  39.373  41.799  13.959
46829W        W19897   2.480  38.807   5.408
46830W        W19898  12.231  12.247  12.016
46831W        W19899  34.625  41.287   1.207
46832W        W19900  23.196   1.903  14.069
46833W        W19901  37.007  25.714   3.619
46834W        W19902  37.358  13.374   3.386
46835W        W19903   1.305  33.150   2.627
46836W        W19904  25.618  27.721   1.215
46837W        W19905  26.658  44.067  13.789
46838W        W19906  29.087  21.557   3.646
46839W        W19907   6.584  33.537   3.621
46840W        W19908   4.378  17.262  13.386
46841W        W19909  44.322  30.013  10.295
46842W        W19910   1.670   8.041  11.979
46843W        W19911   8.683   4.691   0.858
46844W        W19912  43.122   8.081   3.260
46845W        W19913  32.997  43.706  14.738
46846W        W19914   1.792  21.475   3.244
46847W        W19915  10.266  24.081  12.727
46848W        W19916  18.617  14.158  14.719
46849W        W19917   8.628  26.122   3.725
46850W        W19918  26.280   1.898  12.464
46851W        W19919  37.882   1.001  11.419
46852W        W19920   6.863   3.975  10.545
46853W        W19921   9.638  17.284  14.957
46854W        W19922  42.293  13.242  10.703
46855W        W19923   7.028  12.632   0.302
46856W        W19924  31.843   2.434   0.423
46857W        W19925  34.179  12.401   3.244
46858W        W19926  27.892  27.982   1.820
46859W        W19927  22.404   5.850   3.313
46860W        W19928   6.418  27.442   3.631
46861W        W19929  19.917  37.501   3.379
46862W        W19930  17.220  34.001  14.362
46863W        W19931  42.882  25.755   3.631
46864W        W19932  12.908  19.960   2.687
46865W        W19933  31.036  44.695   0.353
46866W        W19934  17.795  29.423  12.619
46867W        W19935  18.711   2.802  12.528
46868W        W19936   7.876  32.372  12.485
46869W        W19937  23.463  36.872  13.868
46870W        W19938  31.487   8.726  14.357
46871W        W19939  30.178  33.901  11.083
46872W        W19940  44.705  18.284  14.422
46873W        W19941  24.983  40.317  11.542
46874W        W19942  25.488   7.145   4.133
46875W        W19943  18.156  40.278   1.321
46876W        W19944   3.748   7.055   0.991
46877W        W19945   4.402  17.798  13.483
46878W        W19946  25.054  28.589  12.946
46879W        W19947  14.654  40.003  14.214
46880W        W19948   4.920   9.094   3.736
46881W        W19949   7.980  22.768   4.041
46882W        W19950  23.097  38.007  10.266
46883W        W19951   6.370  28.063   4.111
46884W        W19952  15.284  13.156   2.988
46885W        W19953   1.097  37.046  11.116
46886W        W19954  44.294  25.676   3.539
46887W        W19955   7.008  40.127   5.232
46888W        W19956  20.707   6.539  13.057
46889W        W19957  37.420  39.353   3.775
46890W        W19958  24.244  37.471  12.045
46891W        W19959   4.236  43.549   2.654
46892W        W19960  30.640  28.119  12.914
46893W        W19961  10.597  39.432  14.925
46894W        W19962  14.171  11.350   1.400
46895W        W19963  30.557  44.342   2.161
46896W        W19964  42.550  25.949   0.909
46897W        W19965  17.338  36.977   2.721
46898W        W19966  38.731  43.239   2.348
46899W        W19967  23.729  13.196   2.713
46900W        W19968  30.400   0.446   0.435
46901W        W19969  20.503  18.195  13.780
46902W        W19970   4.740  20.829   0.921
46903W        W19971   7.774  43.701  12.029
46904W        W19972  15.220  28.948   2.574
46905W        W19973   7.845  21.095  12.282
46906W        W19974  12.612  42.366  13.731
46907W        W19975  11.947  19.260   0.394
46908W        W19976  31.834  20.530  11.707
46909W        W19977  23.213  29.210   4.549
46910W        W19978  41.965  19.219   3.073
46911W        W19979  26.111   4.258   1.907
46912W        W19980  13.835   1.318  12.422
46913W        W19981  41.788  36.895  11.323
46914W        W19982  29.417  35.694  14.843
46915W        W19983   6.156   1.349  12.446
46916W        W19984  29.813  42.801   0.427
46917W        W19985  13.857   5.074  11.296
46918W        W19986  35.403  15.701   3.210
46919W        W19987   2.455  21.063   2.814
46920W        W19988  38.262  18.180  11.026
46921W        W19989  10.836  42.740  12.530
46922W        W19990  29.442  10.806   2.320
46923W        W19991  24.450  13.366   0.808
46924W        W19992  29.212  27.284   4.313
46925W        W19993  34.548  35.082   3.188
46926W        W19994  20.143   3.431   2.228
46927W        W19995  18.789   2.031  14.421
46928W        W19996  16.849  23.749   0.842
46929W        W19997  32.733  44.443   0.213
46930W        W19998  14.610  25.412   1.354
46931W        W19999  19.563  26.571   1.351
46932W        W20000  25.915  40.922   4.232
46933W        W20001  43.202  42.915  11.207
46934W        W20002  10.598  20.186   2.791
46935W        W20003  14.658   0.708  13.478
46936W        W20004  21.043   2.980  11.364
46937W        W20005  14.422  43.243   1.934
46938W        W20006  38.810  13.731  14.716
46939W        W20007  11.285  38.070  14.476
46940W        W20008  24.188  20.701  14.031
46941W        W20009  10.690   2.760   4.224
46942W        W20010  34.392  10.780  14.900
46943W        W20011   1.708  34.070   4.163
46944W        W20012  14.404  33.553   2.696
46945W        W20013  12.611  36.689  14.713
46946W        W20014   9.204   8.319   0.354
46947W        W20015  21.667  16.012  12.888
46948W        W20016  38.342  12.640  13.860
46949W        W20017   9.757  13.015   3.565
46950W        W20018  31.460  24.703  14.882
46951W        W20019  14.260  43.917   0.924
46952W        W20020  36.996  13.795   2.642
46953W        W20021  12.196  14.519  14.764
46954W        W20022  11.755  29.727   4.195
46955W        W20023  37.427  39.271   1.240
46956W        W20024  15.554  20.031  10.130
46957W        W20025   1.087  36.396   2.520
46958W        W20026  40.138  34.116  14.051
46959W        W20027  23.603  40.022   2.456
46960W        W20028  36.623  44.517  13.166
46961W        W20029  20.192  21.484  12.339
46962W        W20030  18.194  12.305   4.381
46963W        W20031  34.327  32.008   2.329
46964W        W20032  34.964  23.609  14.697
46965W        W20033  27.292  38.020  10.761
46966W        W20034  43.561   1.713   1.716
46967W        W20035  32.400  14.269  11.622
46968W        W20036   2.912  12.714   4.377
46969W        W20037   8.258  44.732   4.554
46970W        W20038   3.482   4.137  10.715
46971W        W20039  19.763  31.948  12.515
46972W        W20040  15.296   3.841   0.191
46973W        W20041  35.633  11.125  11.519
46974W        W20042   2.541  26.723   0.527
46975W        W20043  10.182  26.201  13.763
46976W        W20044  30.537  26.070  14.648
46977W        W20045  14.331   9.058  12.530
46978W        W20046  33.931  14.712   1.298
46979W        W20047  33.845  12.856   3.100
46980W        W20048  28.901  38.958   3.078
46981W        W20049  11.229   3.934  11.048
46982W        W20050   3.703   7.932   3.266
46983W        W20051  32.089  43.962  12.626
46984W        W20052  24.187  14.923  14.124
46985W        W20053  26.429   9.838  11.914
46986W        W20054   9.743   2.401   1.729
46987W        W20055  26.584  35.340   0.475
46988W        W20056  14.919  42.646  10.668
46989W        W20057  17.264  24.555  10.592
46990W        W20058   7.803   1.482   4.153
46991W        W20059  21.962  30.598   3.801
46992W        W20060  28.152  36.122  12.850
46993W        W20061  24.441   3.313  11.109
46994W        W20062  32.114   9.367  14.713
46995W        W20063  22.631   0.006  10.437
46996W        W20064  17.198  28.121  14.882
46997W        W20065  40.346  14.188   0.981
46998W        W20066  36.975  17.667   3.687
46999W        W20067   5.849  35.426   2.672
47000W        W20068  37.324  22.463   3.286
47001W        W20069  39.243  39.260  10.771
47002W        W20070  27.100  42.315  11.172
47003W        W20071  11.213   8.451  13.944
47004W        W20072  33.095  21.191   3.643
47005W        W20073  40.017  34.482   2.214
47006W        W20074  24.580  19.954   4.979
47007W        W20075  13.646  13.554  12.527
47008W        W20076  11.165  26.454   2.293
47009W        W20077  30.527  19.443  12.154
47010W        W20078  20.479  16.376   0.221
47011W        W20079   2.966  30.510   0.379
47012W        W20080  36.019  24.867  10.650
47013W        W20081   7.357  27.772  14.953
47014W        W20082  12.879  37.084   2.082
47015W        W20083  28.632  42.323   0.827
47016W        W20084  42.246   5.614  14.735
47017W        W20085  36.998  13.161   4.164
47018W        W20086  29.716  37.610  11.568
47019W        W20087   8.135  20.734  14.818
47020W        W20088  40.331  32.979  12.915
47021W        W20089  35.885  13.682   4.009
47022W        W20090  27.971  44.562  13.611
47023W        W20091  35.942   1.236  13.413
47024W        W20092  20.325   0.344  11.636
47025W        W20093   7.280  30.664   1.384
47026W        W20094  26.505  16.137  12.016
47027W        W20095   3.775  38.413  11.910
47028W        W20096  11.379  12.213   3.274
47029W        W20097  42.172   8.818   0.838
47030W        W20098  17.878   0.926  11.042
47031W        W20099   0.506  24.960  13.663
47032W        W20100  13.895  44.435  11.618
47033W        W20101  24.781  35.448   3.329
47034W        W20102  34.407   2.302   3.887
47035W        W20103  44.055  18.811   0.324
47036W        W20104  42.938  22.090  14.783
47037W        W20105   5.337  41.881  13.628
47038W        W20106  20.910  34.512  10.267
47039W        W20107  12.107  41.352   3.888
47040W        W20108  18.173  24.047  11.686
47041W        W20109  16.340  39.737  12.878
47042W        W20110  13.711   8.293  14.528
47043W        W20111  11.563   2.347   4.057
47044W        W20112   0.874   5.422  13.903
47045W        W20113  43.517  39.348  14.385
47046W        W20114  13.615  28.222  11.166
47047W        W20115  13.389  32.015   3.700
47048W        W20116  39.483  35.715   0.475
47049W        W20117  21.222  25.038  13.804
47050W        W20118  30.711  28.151   3.685
47051W        W20119  43.396  24.600   1.876
47052W        W20120  15.980  26.938  11.161
47053W        W20121   4.960  20.130  12.115
47054W        W20122   3.406  33.541   4.243
47055W        W20123   1.413  25.882  11.977
47056W        W20124  44.478  33.689   4.203
47057W        W20125  35.068  28.365   3.325
47058W        W20126  33.510  16.376  12.797
47059W        W20127  22.842  41.814  10.207
47060W        W20128   0.374  20.830   1.691
47061W        W20129  32.660  35.365  14.788
47062W        W20130   2.907  11.214   1.690
47063W        W20131  38.457  32.346   4.596
47064W        W20132   8.388  39.275   3.303
47065W        W20133  35.305  31.903  11.939
47066W        W20134  13.607  15.964  10.793
47067W        W20135   2.922  41.985  11.203
47068W        W20136  25.705  20.306   2.449
47069W        W20137  33.929  43.065  13.426
47070W        W20138  12.693  31.741  10.331
47071W        W20139  11.182  14.672   1.796
47072W        W20140  18.701  26.048   1.046
47073W        W20141  29.400  28.655  14.998
47074W        W20142  12.315  21.586  13.539
47075W        W20143  31.085  34.878   2.107
47076W        W20144  38.075  17.553  13.467
47077W        W20145  15.192   3.706   2.217
47078W        W20146   7.781   4.286  14.872
47079W        W20147   7.005  37.396  12.511
47080W        W20148   8.611  19.111   4.339
47081W        W20149  17.129  13.224   2.884
47082W        W20150   6.846  15.527   3.199
47083W        W20151  41.286  37.974   2.122
47084W        W20152  39.865  25.630  11.170
47085W        W20153  10.187  16.071  13.510
47086W        W20154   4.725  36.472   2.109
47087W        W20155   6.831  17.683  10.976
47088W        W20156  40.157   5.168  11.500
47089W        W20157  30.454  38.429  10.620
47090W        W20158  32.391  17.168   0.941
47091W        W20159  33.914  15.146  13.131
47092W        W20160  18.635  36.466  14.842
47093W        W20161   0.984  13.854   1.896
47094W        W20162   9.121  40.050  14.860
47095W        W20163  35.944  22.402   4.805
47096W        W20164  14.850  10.403   2.720
47097W        W20165  17.320  42.795  14.410
47098W        W20166  43.800  38.990  12.883
47099W        W20167  24.018  42.576  13.846
47100W        W20168   2.262  17.651   2.201
47101W        W20169  28.990  39.836  11.353
47102W        W20170  29.434  32.381   3.832
47103W        W20171  35.112  35.583   3.482
47104W        W20172   2.881  30.099   4.154
47105W        W20173   4.740  43.963   0.404
47106W        W20174  29.631  20.249   1.323
47107W        W20175  33.067  35.552   4.363
47108W        W20176  31.370  18.239  12.722
47109W        W20177   0.657  22.553   0.444
47110W        W20178  40.405  35.964  13.294
47111W        W20179  27.949  25.331  14.763
47112W        W20180  17.689   6.424   4.551
47113W        W20181   7.848  11.650  11.891
47114W        W20182  25.218  42.347  13.375
47115W        W20183  38.902  11.102  14.516
47116W        W20184  17.811  30.482  14.708
47117W        W20185  27.608  23.260   3.911
47118W        W20186  42.245  15.229   3.161
47119W        W20187  30.215  14.037  10.697
47120W        W20188  20.929  29.020   1.116
47121W        W20189  10.648  20.794   2.807
47122W        W20190  30.643  15.586  11.637
47123W        W20191  23.608   8.125   0.315
47124W        W20192  14.996  32.007  10.689
47125W        W20193  20.518  20.716  10.514
47126W        W20194  21.573  32.630   0.940
47127W        W20195  31.446  36.386  14.771
47128W        W20196  31.560  36.528  12.778
47129W        W20197  36.551  43.319  11.556
47130W        W20198  21.205  22.115   0.544
47131W        W20199   3.793  34.477  11.040
47132W        W20200   3.325  22.920   1.344
47133W        W20201   0.140  27.920  13.602
47134W        W20202  24.619  27.700  13.536
47135W        W20203  39.949  14.625   3.838
47136W        W20204   9.741   1.477  12.343
47137W        W20205  12.368  23.543   1.883
47138W        W20206  34.791  37.654  11.861
47139W        W20207   8.641  15.606   0.703
47140W        W20208  27.504   2.751   0.158
47141W        W20209  13.863  13.342   3.228
47142W        W20210  25.577  29.586  10.713
47143W        W20211  30.838  24.657  13.850
47144W        W20212  34.308  24.607  14.345
47145W        W20213  23.605  37.275  10.223
47146W        W20214  15.469  26.110  11.355
47147W        W20215  18.241  34.405  10.614
47148W        W20216  14.870  30.123   4.200
47149W        W20217  14.225   1.215  12.854
47150W        W20218  15.265  37.140   1.045
47151W        W20219  31.526   7.827   1.015
47152W        W20220  12.303  15.742  11.147
47153W        W20221  31.142  21.707  14.894
47154W        W20222   6.654  37.614   4.281
47155W        W20223  23.524   5.015   0.464
47156W        W20224   4.187  15.755  12.845
47157W        W20225  34.184   7.763   1.314
47158W        W20226  10.856  21.114  11.712
47159W        W20227  38.111   1.931  10.414
47160W        W20228  31.841  29.491  14.844
47161W        W20229  21.661  15.237  14.109
47162W        W20230  36.957  20.008   1.348
47163W        W20231  34.481   7.960  13.974
47164W        W20232  21.471  36.027  14.961
47165W        W20233  14.343   7.189  12.166
47166W        W20234  34.588  13.200   1.931
47167W        W20235  13.203  24.952   0.831
47168W        W20236  32.623  26.278  10.918
47169W        W20237  11.480  21.172  10.302
47170W        W20238  22.268   3.362   4.644
47171W        W20239   6.505  28.499   2.213
47172W        W20240   1.794  35.577   3.240
47173W        W20241  34.409  14.608  13.322
47174W        W20242  28.469  15.148   0.250
47175W        W20243   6.417  34.403   3.848
47176W        W20244  33.061  39.302  12.546
47177W        W20245   9.344  27.696   3.820
47178W        W20246  11.377  12.321  13.435
47179W        W20247  24.086  15.632   2.222
47180W        W20248   6.258   9.215  10.345
47181W        W20249  17.939  34.352   4.242
47182W        W20250  11.401  25.423  12.363
47183W        W20251  44.311  14.712  12.309
47184W        W20252   5.926  15.628   0.919
47185W        W20253  36.902  31.900   3.720
47186W        W20254  26.505  29.928   4.894
47187W        W20255  13.837  39.498  11.805
47188W        W20256   1.265  42.378  11.466
47189W        W20257  13.475  35.241  14.219
47190W        W20258  21.999  36.674   4.161
47191W        W20259   8.305  10.432   2.114
47192W        W20260   4.018  14.899  11.988
47193W        W20261   4.028   3.252  14.937
47194W        W20262  40.463  33.428   2.433
47195W        W20263  18.184   8.829  13.986
47196W        W20264  41.403  14.632  13.937
47197W        W20265  44.158   0.277   3.588
47198W        W20266  15.887  14.767   0.246
47199W        W20267  41.383  14.902   0.846
47200W        W20268   0.487  39.329  13.737
47201W        W20269   1.782   4.270   2.672
47202W        W20270  24.712  39.462  11.122
47203W        W20271  14.134  11.393  13.988
47204W        W20272  40.931  43.614   3.263
47205W        W20273   0.834  40.816   1.065
47206W        W20274   5.773  18.163  11.498
47207W        W20275   9.840   3.760   4.087
47208W        W20276  26.674   7.885  12.534
47209W        W20277   4.377  39.554  13.008
47210W        W20278  38.008  10.844   3.888
47211W        W20279  22.859  27.366  13.683
47212W        W20280  32.087  23.114   0.202
47213W        W20281  16.850  41.712   1.893
47214W        W20282  41.274   3.725   2.354
47215W        W20283  23.110  12.064  11.242
47216W        W20284  42.957  38.406  14.191
47217W        W20285  33.425  37.747  14.764
47218W        W20286  13.903  27.116  12.165
47219W        W20287  41.291  14.191   3.196
47220W        W20288  13.313  41.394   2.756
47221W        W20289   5.511  31.821   4.603
47222W        W20290  40.096   2.023   2.957
47223W        W20291  22.197  26.202   2.691
47224W        W20292  28.754  44.185   0.533
47225W        W20293  34.026  17.172   3.321
47226W        W20294  40.722  44.840   4.592
47227W        W20295  34.517  44.853   0.163
47228W        W20296  10.387   2.422  12.851
47229W        W20297  42.245  39.596   1.825
47230W        W20298  18.272  19.134  14.609
47231W        W20299  24.215  25.139  11.879
47232W        W20300  14.660  31.938  13.504
47233W        W20301  14.640  11.907   2.704
47234W        W20302  38.568  35.909  13.375
47235W        W20303   0.030  10.092  10.095
47236W        W20304  26.098   0.729  14.516
47237W        W20305  40.843  22.785  12.966
47238W        W20306  33.542  29.996  10.478
47239W        W20307   1.619  31.312   4.180
47240W        W20308  25.742  40.206   3.618
47241W        W20309  29.626   9.152   1.898
47242W        W20310  20.030  36.813   2.599
47243W        W20311  41.291  18.496  11.447
47244W        W20312  33.253  37.027   2.764
47245W        W20313  31.235  13.536   1.375
47246W        W20314   4.166  44.066  11.900
47247W        W20315  35.999  22.148  13.323
47248W        W20316   1.886   1.870   4.949
47249W        W20317  39.598   4.034  11.589
47250W        W20318  32.714   2.800  12.833
47251W        W20319  42.458  20.571   1.550
47252W        W20320  10.133  12.554   4.256
47253W        W20321  44.260  34.685   2.849
47254W        W20322   3.831   7.405   4.096
47255W        W20323  31.958  27.376  12.032
47256W        W20324  27.023  43.696  13.556
47257W        W20325  35.558  39.537   2.845
47258W        W20326  20.025  27.976  13.502
47259W        W20327   1.214  26.425   4.158
47260W        W20328  15.393  23.037  14.026
47261W        W20329  30.017  13.904   5.142
47262W        W20330  37.014  10.174   1.959
47263W        W20331  40.292   4.257  12.045
47264W        W20332  31.135  38.348  13.329
47265W        W20333  17.095  23.455  10.849
47266W        W20334  25.006  29.598   2.285
47267W        W20335  33.891  33.452  12.787
47268W        W20336  38.545  37.172   0.959
47269W        W20337   1.767  23.564  13.322
47270W        W20338  16.865  21.736  11.983
47271W        W20339   0.438  38.557   0.860
47272W        W20340  38.109  16.929  11.078
47273W        W20341  33.130  14.111   3.584
47274W        W20342  34.834  24.518  12.592
47275W        W20343  28.802   4.136   3.285
47276W        W20344  27.249  41.812  14.883
47277W        W20345  15.232  42.519   1.464
47278W        W20346  35.652  25.665   0.014
47279W        W20347  19.101  38.392  14.382
47280W        W20348   5.147  35.902   1.715
47281W        W20349  42.976  30.710  10.567
47282W        W20350  38.965  25.438  10.711
47283W        W20351  16.790  43.468  13.529
47284W        W20352  23.305  15.324  11.207
47285W        W20353   0.413   9.648   4.669
47286W        W20354  36.969   3.436   1.406
47287W        W20355  29.044  13.651   3.373
47288W        W20356  38.886  43.241   0.420
47289W        W20357  43.404  10.044   3.133
47290W        W20358  10.074  38.454   1.344
47291W        W20359   8.252  36.910   1.817
47292W        W20360  14.186   5.680   3.399
47293W        W20361   0.580  14.136   2.087
47294W        W20362  10.302  41.853  11.133
47295W        W20363  21.067  26.474  14.895
47296W        W20364  44.026  36.750  12.680
47297W        W20365   2.773  19.251  14.216
47298W        W20366  31.828  36.826   5.277
47299W        W20367   5.462  35.301  14.276
47300W        W20368  25.214   7.717  14.752
47301W        W20369  19.504  13.116   2.418
47302W        W20370  13.134  41.714  11.919
47303W        W20371  17.336  26.631  10.422
47304W        W20372  26.624  26.663  10.469
47305W        W20373  20.400   4.723  13.500
47306W        W20374  22.498  20.624   2.702
47307W        W20375  34.668  43.768  11.227
47308W        W20376  35.034  19.731  12.808
47309W        W20377  20.836  22.003  13.574
47310W        W20378  10.003  41.420   3.317
47311W        W20379  38.458  35.402  13.809
47312W        W20380  19.086  31.098  12.849
47313W        W20381   1.147  39.290  13.269
47314W        W20382  10.666  21.597  11.589
47315W        W20383  20.585   0.852   1.219
47316W        W20384  37.828  12.913  14.956
47317W        W20385  44.439  16.807  11.103
47318W        W20386  26.415  14.220   3.799
47319W        W20387  17.121   1.827   1.439
47320W        W20388  25.983  19.399  11.515
47321W        W20389   7.440  25.306  13.403
47322W        W20390   6.977  27.619   0.281
47323W        W20391  24.422  34.846  11.568
47324W        W20392   5.373  13.215   4.644
47325W        W20393  27.745  37.597  14.299
47326W        W20394  13.556   4.663  13.002
47327W        W20395  27.681  17.548   4.123
47328W        W20396  27.745  18.570  11.129
47329W        W20397  37.346  38.473   3.806
47330W        W20398  23.254   4.785  12.962
47331W        W20399  36.427  43.705  14.069
47332W        W20400  35.876  28.772  13.222
47333W        W20401  14.869  20.492   3.746
47334W        W20402  38.589  19.489  13.602
47335W        W20403  37.007  40.399   4.391
47336W        W20404  11.900  14.292   5.044
47337W        W20405   5.465  37.934   3.598
47338W        W20406   8.505  37.660  13.401
47339W        W20407  34.619  27.505   2.298
47340W        W20408  26.088   2.993  12.425
47341W        W20409  30.513  15.632  13.280
47342W        W20410  31.131  29.926  13.857
47343W        W20411  34.839  21.641   3.563
47344W        W20412  18.205  44.985   4.576
47345W        W20413   7.400  31.905  11.096
47346W        W20414   9.115  35.021   1.417
47347W        W20415   1.565  42.045   4.028
47348W        W20416  26.072  37.990   9.688
47349W        W20417   1.305   6.458   1.290
47350W        W20418  43.044  17.135   2.352
47351W        W20419  38.950  23.521   3.255
47352W        W20420  43.284  37.034   2.857
47353W        W20421  39.581  32.629   1.330
47354W        W20422  34.986  30.430   1.233
47355W        W20423  42.213  37.972   4.802
47356W        W20424  11.757  17.366  10.667
47357W        W20425  29.562  44.026  11.477
47358W        W20426   5.255  24.002   2.298
47359W        W20427   5.202  14.135   4.627
47360W        W20428   7.563  12.747  10.611
47361W        W20429  25.558   2.964  12.979
47362W        W20430  17.999  35.147  12.598
47363W        W20431   4.841  10.845  14.922
47364W        W20432  18.796  34.424  14.809
47365W        W20433  30.110  31.151  12.961
47366W        W20434  39.896   9.742   3.650
47367W        W20435  21.075  39.862   4.651
47368W        W20436  34.359  43.967  11.584
47369W        W20437  25.886  19.486   2.609
47370W        W20438  15.834  21.117   5.071
47371W        W20439  18.117  35.514  12.259
47372W        W20440  44.439  19.501   4.986
47373W        W20441  16.311  44.914  13.828
47374W        W20442  29.117  38.349  10.943
47375W        W20443  21.503  34.856  12.293
47376W        W20444  31.685  32.009  12.862
47377W        W20445  36.140  39.173   2.215
47378W        W20446  25.928  24.418   4.241
47379W        W20447   6.697   5.995   1.829
47380W        W20448  30.118  27.466  11.169
47381W        W20449  15.062  23.492  13.042
47382W        W20450  41.565  32.088  13.114
47383W        W20451  44.230  13.056   2.895
47384W        W20452  24.263  25.547  10.707
47385W        W20453  43.402  37.945  11.753
47386W        W20454  39.851  17.086  13.883
47387W        W20455  14.340  34.446  10.544
47388W        W20456  11.893   3.320   4.086
47389W        W20457  30.244  25.758  12.475
47390W        W20458  15.116   8.728  14.936
47391W        W20459  32.267  41.889  13.140
47392W        W20460  13.597   7.159  12.611
47393W        W20461  32.445   9.723  11.562
47394W        W20462  36.524  32.398  10.713
47395W        W20463  13.039  25.541  12.287
47396W        W20464  29.634  19.668  13.523
47397W        W20465  26.518  34.514   3.167
47398W        W20466  26.722  26.897  10.926
47399W        W20467  37.063   6.448  13.769
47400W        W20468   8.223   0.448  12.381
47401W        W20469  17.353  16.676  10.719
47402W        W20470  21.756  39.380  12.786
47403W        W20471  31.511  44.227   4.337
47404W        W20472  16.119  31.029  12.842
47405W        W20473   3.632  41.607  13.866
47406W        W20474  13.129   8.341  10.625
47407W        W20475  35.805  29.738   2.645
47408W        W20476  26.578  42.803   2.307
47409W        W20477  18.165  19.287   4.632
47410W        W20478   5.712   0.413   3.415
47411W        W20479   2.748  35.993  14.326
47412W        W20480  39.934  10.243   1.033
47413W        W20481  11.411  19.221   4.511
47414W        W20482  14.237  40.219  13.983
47415W        W20483  42.424  36.012   3.815
47416W        W20484  41.140  35.314  13.473
47417W        W20485  42.578   0.281  10.025
47418W        W20486  30.008  42.236  10.808
47419W        W20487  33.462   4.514   2.807
47420W        W20488  39.057  37.470   0.445
47421W        W20489  43.832  37.716  11.158
47422W        W20490   0.393   6.274  10.919
47423W        W20491  19.052  35.453   3.255
47424W        W20492  33.125  41.227  14.858
47425W        W20493  21.745  23.143  12.153
47426W        W20494   2.244   1.088   1.164
47427W        W20495  22.103   0.711  12.890
47428W        W20496  15.035  11.180  12.101
47429W        W20497   6.787  16.535   1.357
47430W        W20498  40.320  19.251  14.919
47431W        W20499  21.307   6.016   2.770
47432W        W20500  36.811  18.175   3.602
47433W        W20501  27.171  11.287  12.513
47434W        W20502  36.489   7.099  13.316
47435W        W20503  16.000  22.525   2.376
47436W        W20504   7.475  37.075   5.059
47437W        W20505  39.004  14.064  13.360
47438W        W20506  30.699  33.318  13.467
47439W        W20507  32.958  22.573  14.576
47440W        W20508   5.865  25.757  12.909
47441W        W20509  31.677   9.927  11.068
47442W        W20510  26.477  17.067   0.795
47443W        W20511   5.223  10.307  14.398
47444W        W20512   0.002  21.106  13.577
47445W        W20513  39.862  18.694  13.433
47446W        W20514  27.452  29.986  13.774
47447W        W20515  35.601  12.749   2.258
47448W        W20516   9.970  13.318   3.201
47449W        W20517  10.781  21.944  13.044
47450W        W20518  35.856   8.982   1.963
47451W        W20519  26.032  40.096   1.864
47452W        W20520  11.635  41.588   4.580
47453W        W20521  12.742   8.317  13.002
47454W        W20522  44.878  35.180  11.249
47455W        W20523  35.855  31.109  10.630
47456W        W20524   0.947   0.451   1.920
47457W        W20525   8.910  12.352   1.771
47458W        W20526  38.574   6.742  13.997
47459W        W20527   3.412  16.539   0.168
47460W        W20528  38.987  12.101  13.089
47461W        W20529  21.023  23.761   0.764
47462W        W20530   7.750  25.666  14.073
47463W        W20531  25.564  42.198  14.382
47464W        W20532   8.189  21.102   2.798
47465W        W20533  24.706  25.429   3.402
47466W        W20534  21.644   7.735  14.929
47467W        W20535  38.415   5.842   2.719
47468W        W20536   3.500   6.649  12.956
47469W        W20537  15.656  26.710   9.900
47470W        W20538   3.747  39.985   2.743
47471W        W20539  30.401  28.824   1.181
47472W        W20540   0.265  37.555   2.688
47473W        W20541  37.256  14.733  13.545
47474W        W20542  19.577  18.628  11.020
47475W        W20543  42.591   1.304   1.115
47476W        W20544  44.770  37.574   2.439
47477W        W20545  10.433  10.725   4.595
47478W        W20546   3.477  29.860   2.765
47479W        W20547  25.518  17.105  14.826
47480W        W20548  33.298   7.345  12.139
47481W        W20549   7.240   5.642  12.484
47482W        W20550  35.338  21.513  11.535
47483W        W20551   9.207  11.966   1.918
47484W        W20552  42.316  40.599   0.327
47485W        W20553  32.019  20.762   2.779
47486W        W20554  38.289  14.103   1.186
47487W        W20555  35.859  25.086   4.226
47488W        W20556  26.126  10.392  13.306
47489W        W20557   7.787  13.310   5.055
47490W        W20558  27.944  40.021   1.808
47491W        W20559   6.969   0.469   3.556
47492W        W20560  44.530  35.124  11.607
47493W        W20561  16.681  40.596  13.020
47494W        W20562  35.059   3.487   3.746
47495W        W20563  37.714   2.293   5.081
47496W        W20564  19.714  40.573   0.458
47497W        W20565   8.661  15.648  13.309
47498W        W20566   6.558   0.794   2.732
47499W        W20567   7.751  15.106  11.962
47500W        W20568  13.979  25.488   4.449
47501W        W20569  36.952  37.437  13.995
47502W        W20570  32.999  36.949   0.857
47503W        W20571  20.461   2.607   4.480
47504W        W20572  32.572  32.391   2.736
47505W        W20573   0.529   5.784  13.601
47506W        W20574  17.794  27.110  14.776
47507W        W20575  20.003  30.929  12.735
47508W        W20576  12.903  17.719  13.019
47509W        W20577   3.421   0.565  10.663
47510W        W20578  26.666  11.200  12.384
47511W        W20579  15.312   4.336   4.154
47512W        W20580  10.506  42.676  13.848
47513W        W20581  41.802   8.814  10.531
47514W        W20582  21.318  24.468   2.312
47515W        W20583  14.726  30.114   2.853
47516W        W20584  13.562  37.772   3.558
47517W        W20585  33.686  30.863   0.936
47518W        W20586  22.680  32.538  13.086
47519W        W20587   4.974   1.277   2.446
47520W        W20588  19.252   2.398   0.763
47521W        W20589  27.707  14.748  11.246
47522W        W20590  24.797  21.921  11.243
47523W        W20591  25.559   0.063   1.673
47524W        W20592  42.654  44.284  10.145
47525W        W20593  29.090  43.419  11.483
47526W        W20594  44.301  34.992  14.732
47527W        W20595   1.304  29.225  13.038
47528W        W20596  25.737   8.780   0.758
47529W        W20597  25.944  22.608  13.853
47530W        W20598  16.853  39.394  11.705
47531W        W20599  36.394  37.353   3.811
47532W        W20600  19.949  28.387  11.363
47533W        W20601  25.703  32.208   3.070
47534W        W20602  36.377  22.741   4.087
47535W        W20603  32.423   9.382  11.151
47536W        W20604  38.285   3.281   2.720
47537W        W20605   2.923  43.487   4.821
47538W        W20606  20.830  12.738   4.169
47539W        W20607  38.312  43.974  11.702
47540W        W20608  12.996  28.134  12.508
47541W        W20609  27.133  14.326   1.426
47542W        W20610   8.534  26.330   3.218
47543W        W20611   8.830  22.913  12.042
47544W        W20612   0.407   9.019   0.143
47545W        W20613  14.211  30.367  14.435
47546W        W20614  29.218   0.201   4.751
47547W        W20615  22.730  40.936   4.132
47548W        W20616  16.615  20.121   2.180
47549W        W20617  38.361  12.379   0.860
47550W        W20618  29.745   0.766   3.295
47551W        W20619  37.815  31.297   1.859
47552W        W20620  31.891   1.245   0.011
47553W        W20621  30.753   1.139  13.866
47554W        W20622   5.674  42.979   2.236
47555W        W20623  19.065  39.799   2.236
47556W        W20624   8.228  11.582  10.648
47557W        W20625  38.272  36.623   1.685
47558W        W20626  38.088   7.705  14.922
47559W        W20627  27.684  36.975   1.692
47560W        W20628  36.114   5.302   2.491
47561W        W20629  30.751  33.615   3.688
47562W        W20630  27.355  37.398   0.191
47563W        W20631  36.929  16.395  11.132
47564W        W20632  44.888   2.719  12.467
47565W        W20633  21.548  13.241   3.440
47566W        W20634  41.606  33.094  12.455
47567W        W20635  30.084  32.743  12.073
47568W        W20636   7.837  44.556  10.248
47569W        W20637  28.483  42.866   3.668
47570W        W20638  20.493  13.659   1.656
47571W        W20639  39.335  32.969   1.675
47572W        W20640  21.965  38.247   3.368
47573W        W20641  33.333  27.766   0.936
47574W        W20642  24.601   0.913   0.027
47575W        W20643  22.211  12.874  11.535
47576W        W20644  15.328  28.625  11.462
47577W        W20645  30.546  31.401   4.879
47578W        W20646   6.692  44.839   1.073
47579W        W20647  13.508  31.369   1.682
47580W        W20648  44.787  10.432   1.475
47581W        W20649  17.987  28.173  14.292
47582W        W20650  19.369   0.923   3.216
47583W        W20651  21.812   9.136   1.295
47584W        W20652  32.988  10.320   2.793
47585W        W20653  30.087  27.038  12.816
47586W        W20654  10.628  23.064  10.728
47587W        W20655  18.741  19.361   1.803
47588W        W20656  33.660  36.981   0.209
47589W        W20657  38.921  14.537   3.223
47590W        W20658  25.446   0.973   4.078
47591W        W20659  34.929  41.216  13.846
47592W        W20660  39.474  17.535  13.559
47593W        W20661  21.973  21.810   0.668
47594W        W20662  38.477   7.744   3.136
47595W        W20663   1.517  13.063   0.303
47596W        W20664  34.847  14.825   3.112
47597W        W20665  40.119  33.874   1.274
47598W        W20666   5.254  18.181  11.380
47599W        W20667  31.668  14.283   3.713
47600W        W20668   4.457  32.274  13.107
47601W        W20669  26.527  41.806  12.804
47602W        W20670  27.410   5.670   0.306
47603W        W20671  35.018  34.309   4.151
47604W        W20672  36.805   5.688   3.816
47605W        W20673  14.276  27.432   0.422
47606W        W20674   1.505  15.156  11.872
47607W        W20675  18.105   8.318   4.774
47608W        W20676  27.885  18.704  10.650
47609W        W20677  38.998  31.534  13.359
47610W        W20678  12.266  34.535  12.499
47611W        W20679   8.559   7.844  12.524
47612W        W20680  19.479   2.807   3.009
47613W        W20681  13.280  36.604   0.273
47614W        W20682  32.697  39.566  11.301
47615W        W20683  14.836   0.512  12.958
47616W        W20684   6.185  13.308   2.736
47617W        W20685  17.483   6.303  14.409
47618W        W20686  25.434  24.823  11.126
47619W        W20687  29.417   6.663  14.862
47620W        W20688   3.258  17.769   4.789
47621W        W20689  16.719  22.922   2.406
47622W        W20690   2.303  11.604  14.004
47623W        W20691  12.153  22.712   4.470
47624W        W20692  26.545  30.010   4.351
47625W        W20693  30.845  41.786   2.755
47626W        W20694   7.361  44.244  10.983
47627W        W20695  14.300  37.771  14.359
47628W        W20696  42.987   2.842   3.262
47629W        W20697  30.095  24.145  13.993
47630W        W20698  17.269  27.089  14.811
47631W        W20699  44.952  19.643  12.815
47632W        W20700  19.792  37.753   4.221
47633W        W20701  21.500  12.319  12.559
47634W        W20702  24.471  12.836   3.652
47635W        W20703  29.195  14.260   2.242
47636W        W20704  37.073  12.772   2.337
47637W        W20705  14.669  11.152  14.825
47638W        W20706  27.574  18.687  12.371
47639W        W20707  10.217  29.936   0.634
47640W        W20708  26.902  35.059  10.327
47641W        W20709   8.409   7.803   0.408
47642W        W20710  43.045  34.951   2.281
47643W        W20711   5.036  31.284   0.236
47644W        W20712  42.914  43.416   5.032
47645W        W20713  19.058  19.742  11.010
47646W        W20714  36.632  34.569  13.614
47647W        W20715  13.082  20.754  12.873
47648W        W20716  28.909   1.319   3.906
47649W        W20717  43.433   2.987  14.955
47650W        W20718  36.129  38.819   2.718
47651W        W20719  39.641  25.675  13.873
47652W        W20720  42.856  34.349  11.990
47653W        W20721   5.453  12.714  12.517
47654W        W20722   4.830  41.037   4.462
47655W        W20723  28.047   8.339  14.070
47656W        W20724  16.329  43.287  10.983
47657W        W20725  12.660  27.085  10.661
47658W        W20726  44.282  27.188   4.756
47659W        W20727  29.749  32.604   2.090
47660W        W20728  12.226  43.230   3.600
47661W        W20729  18.037  38.889  13.547
47662W        W20730  18.147  23.775   1.435
47663W        W20731   8.826   9.425  13.896
47664W        W20732  39.495  20.974  12.736
47665W        W20733  26.706   8.604  13.884
47666W        W20734   0.792  16.318   0.392
47667W        W20735  22.674  18.742  12.985
47668W        W20736   2.439   9.009   2.732
47669W        W20737  13.728  26.939  14.879
47670W        W20738   9.437  10.288   0.374
47671W        W20739  22.677  43.580   2.948
47672W        W20740  29.866   9.387  14.792
47673W        W20741   7.752   2.433   1.474
47674W        W20742  40.829  40.582   3.368
47675W        W20743  14.035   4.108  11.644
47676W        W20744  35.262   2.310   4.368
47677W        W20745  10.375  23.673  11.940
47678W        W20746   9.935  43.484   0.848
47679W        W20747  37.079  38.287  13.511
47680W        W20748   5.498  23.625   1.670
47681W        W20749  15.267   7.419   4.179
47682W        W20750  43.880   5.257  14.901
47683W        W20751   3.960  16.678   2.073
47684W        W20752  20.986  15.273  13.661
47685W        W20753   5.072  29.030   1.346
47686W        W20754  19.082   8.729   4.755
47687W        W20755  32.649  42.351  10.574
47688W        W20756   4.229  44.942   1.387
47689W        W20757  16.111  43.816   2.840
47690W        W20758  20.266  35.922  11.948
47691W        W20759  10.918  11.850  14.542
47692W        W20760  26.664   8.597   0.875
47693W        W20761  28.643  42.480   3.340
47694W        W20762   1.129   0.411  13.149
47695W        W20763   8.192  19.078   0.547
47696W        W20764  31.991   5.546   3.004
47697W        W20765  29.077  18.777   0.065
47698W        W20766   2.261  17.595   0.193
47699W        W20767  33.402  44.561  13.821
47700W        W20768  33.906  37.161  11.321
47701W        W20769   6.209  23.212  11.128
47702W        W20770  16.758  12.860  11.165
47703W        W20771  29.104  41.975  13.600
47704W        W20772   5.010   2.301  14.860
47705W        W20773  10.201   4.503   1.876
47706W        W20774  10.649  38.913  13.514
47707W        W20775  29.982  26.299   2.760
47708W        W20776  32.420  37.364   2.856
47709W        W20777  17.775  33.501   4.627
47710W        W20778   1.011   2.281   1.938
47711W        W20779  31.529  26.676  13.285
47712W        W20780  18.879  15.180   1.503
47713W        W20781   5.174   2.321   3.120
47714W        W20782  38.048  12.149  10.610
47715W        W20783  13.915  24.049   1.441
47716W        W20784  44.232  33.899   0.559
47717W        W20785  20.737  12.317   4.703
47718W        W20786  34.839   8.842  12.499
47719W        W20787  19.122  35.555  12.466
47720W        W20788  23.451  26.665   1.252
47721W        W20789   3.614  42.063   1.008
47722W        W20790   2.936  12.986   1.897
47723W        W20791  29.562  39.914  11.985
47724W        W20792  24.413  16.556   4.087
47725W        W20793  15.107  21.795   3.845
47726W        W20794   3.873  17.139  14.468
47727W        W20795   9.774   7.655   3.394
47728W        W20796  13.034  24.870  11.109
47729W        W20797  21.411   6.372  14.800
47730W        W20798   0.140  10.102   1.265
47731W        W20799  11.835  29.503  14.766
47732W        W20800  18.293   0.325   2.791
47733W        W20801  43.256   3.285  12.122
47734W        W20802  37.635   1.304  13.405
47735W        W20803  25.030  24.062   2.369
47736W        W20804  23.452   6.244   1.660
47737W        W20805  12.856  35.425  12.678
47738W        W20806  10.717   4.487   1.198
47739W        W20807  14.657  19.438   4.603
47740W        W20808  25.202  39.650  10.210
47741W        W20809   2.228   0.982  14.479
47742W        W20810  20.543  39.488   3.148
47743W        W20811  44.990  15.803  11.370
47744W        W20812  37.768   4.638   0.382
47745W        W20813  32.931   0.510   0.320
47746W        W20814  42.585   5.722   1.381
47747W        W20815  37.838  25.005   4.175
47748W        W20816   2.810  14.335  12.038
47749W        W20817   6.205  19.779   4.131
47750W        W20818  29.945  35.395  11.668
47751W        W20819  13.032   8.314   1.912
47752W        W20820  39.936  19.860   3.055
47753W        W20821  36.959  16.472   3.199
47754W        W20822  21.760  25.992   1.834
47755W        W20823  29.539  36.127  12.556
47756W        W20824   7.860  12.392   4.164
47757W        W20825  42.131  41.317  11.187
47758W        W20826  18.728  32.885  13.344
47759W        W20827  16.241  40.873   2.392
47760W        W20828  31.672   2.046   2.668
47761W        W20829  27.482  14.274   1.947
47762W        W20830   1.260   6.450   1.815
47763W        W20831  40.107   3.441  13.345
47764W        W20832  17.023  35.491   4.593
47765W        W20833  17.087  14.264   1.883
47766W        W20834  24.063   9.623  10.764
47767W        W20835  32.890   9.737   3.429
47768W        W20836  40.005  28.929  12.554
47769W        W20837  22.556  36.369   3.712
47770W        W20838   1.708   7.468  11.959
47771W        W20839  30.471  30.631  14.925
47772W        W20840  36.588  33.075  12.518
47773W        W20841  19.033  42.688  12.466
47774W        W20842   8.373  26.340  11.130
47775W        W20843  38.830  39.776   1.722
47776W        W20844  12.359  14.699  10.649
47777W        W20845  29.118  24.930  14.970
47778W        W20846  27.542   1.535  13.392
47779W        W20847  31.691  18.107   4.666
47780W        W20848  16.135   3.471   3.790
47781W        W20849  11.868   2.349   3.168
47782W        W20850  32.825   0.046   0.107
47783W        W20851  31.700   4.396  11.122
47784W        W20852   0.551  20.131  11.658
47785W        W20853  30.593  18.492   1.788
47786W        W20854  11.503   3.193  11.884
47787W        W20855   6.373   1.446  13.981
47788W        W20856  12.342  24.161   3.055
47789W        W20857   5.366   9.804  14.381
47790W        W20858  40.013  29.656   3.658
47791W        W20859  18.331  23.070   3.875
47792W        W20860   0.953   2.344   4.540
47793W        W20861  16.503  13.015   3.412
47794W        W20862  19.360   3.902   3.147
47795W        W20863  11.092  12.729  14.853
47796W        W20864  10.450   7.328   0.013
47797W        W20865  38.932   4.214  13.647
47798W        W20866  38.582  32.400   1.321
47799W        W20867   4.480  19.368   2.249
47800W        W20868  22.028  16.184  13.363
47801W        W20869   1.701  42.346   0.972
47802W        W20870  15.631  42.498  12.889
47803W        W20871  19.565  22.782   1.696
47804W        W20872  28.719  18.784  11.192
47805W        W20873  23.600  35.984   4.048
47806W        W20874  44.128   7.597   5.161
47807W        W20875   1.966   8.239  12.375
47808W        W20876  35.957   4.682  14.716
47809W        W20877   3.390  18.342  12.501
47810W        W20878   0.836   7.490   1.987
47811W        W20879  36.767  44.258   1.900
47812W        W20880  40.590  10.875  12.077
47813W        W20881  43.932   6.540   2.374
47814W        W20882  14.076   9.559  11.958
47815W        W20883  18.808  21.438  13.950
47816W        W20884  24.695  11.349   1.878
47817W        W20885  11.166  15.305  12.893
47818W        W20886  18.749  35.841   4.919
47819W        W20887  35.770  29.592  11.920
47820W        W20888  25.723  19.019   0.332
47821W        W20889  41.379  15.418   0.879
47822W        W20890  39.889   8.121   0.279
47823W        W20891  15.394  17.781  14.896
47824W        W20892  42.606  43.226  14.238
47825W        W20893  10.529  36.826  11.392
47826W        W20894  19.189  18.183   4.942
47827W        W20895  35.109  38.873   4.581
47828W        W20896  23.934  12.696  13.367
47829W        W20897  37.508  12.694  12.917
47830W        W20898  17.446   5.092   1.564
47831W        W20899  15.278  38.504   1.663
47832W        W20900  36.114  40.321  14.404
47833W        W20901  10.348   1.112   3.258
47834W        W20902   9.496   9.439   1.404
47835W        W20903  41.388  15.610  10.871
47836W        W20904  11.805  30.653  14.990
47837W        W20905  23.112   1.160  12.100
47838W        W20906   6.821  13.469  11.590
47839W        W20907  22.757  40.487  13.486
47840W        W20908  37.393   7.470   2.740
47841W        W20909  38.182  38.597   3.338
47842W        W20910  33.748  25.168   5.097
47843W        W20911  21.021  44.528  11.043
47844W        W20912  39.418   8.334   3.526
47845W        W20913  15.719  15.175  14.917
47846W        W20914  20.749  22.725  11.155
47847W        W20915  12.669  11.396  11.417
47848W        W20916  38.836  30.805  13.381
47849W        W20917  38.352  17.736   3.690
47850W        W20918  35.979   6.936   4.072
47851W        W20919  31.002  25.240  12.870
47852W        W20920  22.118  40.526   1.703
47853W        W20921  40.491  11.873   4.099
47854W        W20922   0.761  37.734   3.293
47855W        W20923   3.689  32.588   2.945
47856W        W20924  43.967  36.341   4.625
47857W        W20925  18.002   8.726   0.823
47858W        W20926  31.819  11.600   3.397
47859W        W20927  12.041  19.175   2.676
47860W        W20928  35.558  25.506   3.787
47861W        W20929  13.230  39.437  12.521
47862W        W20930  16.198  13.845   0.766
47863W        W20931   9.409   6.686   4.442
47864W        W20932   6.770  37.852   2.769
47865W        W20933  33.609  28.023  12.165
47866W        W20934  42.456  37.486  13.729
47867W        W20935  11.165  10.262  14.399
47868W        W20936  29.176  28.904   2.896
47869W        W20937  11.617   7.831  10.988
47870W        W20938   6.083  33.446   3.641
47871W        W20939  30.147  43.406  14.965
47872W        W20940   8.162  39.001   3.704
47873W        W20941  32.166  10.326   0.669
47874W        W20942  34.146  24.380   0.806
47875W        W20943  23.494  24.754  11.874
47876W        W20944  32.826  33.432   1.908
47877W        W20945  19.784   9.691   4.642
47878W        W20946  10.692  21.869   0.187
47879W        W20947  37.242   4.662   1.461
47880W        W20948   4.713  30.894   3.295
47881W        W20949  44.467  38.040  10.967
47882W        W20950  36.876   4.568  10.588
47883W        W20951  14.166  34.904   4.244
47884W        W20952  37.612  39.907   3.640
47885W        W20953  25.128  14.230  13.647
47886W        W20954  18.113  14.788  12.177
47887W        W20955  26.682  44.317  12.910
47888W        W20956  16.700  24.989  13.899
47889W        W20957  28.421  44.334  13.459
47890W        W20958  24.758  18.716  12.466
47891W        W20959  26.619  16.171   3.555
47892W        W20960  40.696   5.307  11.622
47893W        W20961  26.612  32.383  11.107
47894W        W20962  37.543   5.366   4.284
47895W        W20963  40.295  15.073   3.920
47896W        W20964  30.434  39.006  13.828
47897W        W20965   6.983   7.976   3.663
47898W        W20966  33.640  24.176   2.308
47899W        W20967  37.061   1.782   4.076
47900W        W20968  28.527  42.516  13.036
47901W        W20969  15.231  16.901  12.183
47902W        W20970  10.311  30.630   3.738
47903W        W20971   7.355   2.781  14.028
47904W        W20972  12.145  30.436  13.379
47905W        W20973  23.443  22.971  10.586
47906W        W20974  39.356  15.439   4.754
47907W        W20975   2.290  35.576  13.623
47908W        W20976  21.958  44.765  11.915
47909W        W20977  43.034   6.319  12.003
47910W        W20978  42.849  36.419  12.090
47911W        W20979  17.166  37.304  14.996
47912W        W20980  24.486   0.908  14.060
47913W        W20981  11.922  41.704   2.210
47914W        W20982  29.285   7.365   3.702
47915W        W20983  15.713  36.787  14.325
47916W        W20984  37.547  15.167   0.761
47917W        W20985   3.678  36.651   5.142
47918W        W20986   4.256  22.298  13.943
47919W        W20987  28.141  23.129  10.883
47920W        W20988  19.025  18.354  14.262
47921W        W20989  25.818   5.719   4.678
47922W        W20990   2.286  40.060  13.312
47923W        W20991   5.780  31.654  10.815
47924W        W20992  20.188   0.270   2.387
47925W        W20993  32.962   4.362   2.814
47926W        W20994  35.928  34.139   3.302
47927W        W20995  39.608  27.310  10.733
47928W        W20996  37.434   7.892  11.089
47929W        W20997  43.792   5.930   1.069
47930W        W20998  17.749  39.443   3.390
47931W        W20999   7.913  19.208   3.350
47932W        W21000  21.199  18.089   3.864
47933W        W21001  30.576  43.828   0.509
47934W        W21002   1.334  15.092  11.402
47935W        W21003   5.643  36.048  11.849
47936W        W21004  38.852   1.530   1.277
47937W        W21005  43.550  38.022  12.747
47938W        W21006  10.721  39.794   3.800
47939W        W21007   0.448  15.149   4.601
47940W        W21008  27.083  19.815  10.763
47941W        W21009   3.726  11.434   2.793
47942W        W21010  37.288  44.538   4.567
47943W        W21011  26.651  37.412  11.198
47944W        W21012   7.165  18.992   2.919
47945W        W21013  15.197   3.216  11.484
47946W        W21014   4.344  26.747  10.820
47947W        W21015  10.748  43.150  10.590
47948W        W21016  18.080   2.924  14.460
47949W        W21017  34.567  39.814   3.103
47950W        W21018  10.195  43.884  12.379
47951W        W21019  14.734  35.939  13.374
47952W        W21020  34.037   3.965  13.418
47953W        W21021   3.775  28.306   0.300
47954W        W21022  44.428   9.930   4.168
47955W        W21023  12.537  38.313  12.891
47956W        W21024  35.929  33.085  10.778
47957W        W21025  26.982  20.440   1.194
47958W        W21026  32.944  37.743   2.262
47959W        W21027   1.071  42.880   4.376
47960W        W21028  25.161  20.721  11.010
47961W        W21029   1.195  43.458   2.809
47962W        W21030  43.834  17.323   9.848
47963W        W21031   2.356  38.590   4.273
47964W        W21032   3.786   0.768  12.605
47965W        W21033  42.255  28.504   4.598
47966W        W21034  31.988   6.900   1.744
47967W        W21035  16.165   4.827  14.825
47968W        W21036  24.828  15.066  11.444
47969W        W21037  28.145  33.455  10.697
47970W        W21038  44.486  40.938  14.370
47971W        W21039  10.972  31.530   4.198
47972W        W21040  23.059  41.030   3.739
47973W        W21041  13.477  12.114  12.541
47974W        W21042  32.103  34.135  11.752
47975W        W21043  43.217  40.041  14.747
47976W        W21044  24.606  15.077  13.860
47977W        W21045  17.980  15.527  13.887
47978W        W21046   0.293  28.899   4.179
47979W        W21047  38.352  33.676   4.032
47980W        W21048  36.410  30.115   0.737
47981W        W21049  29.619  36.466   3.950
47982W        W21050  12.339   1.324   2.605
47983W        W21051  27.616   6.627   1.333
47984W        W21052  23.977  17.745   0.840
47985W        W21053  17.361  20.090   4.187
47986W        W21054   3.308  24.224  14.081
47987W        W21055  23.506  28.153   1.375
47988W        W21056  13.393  31.544  11.876
47989W        W21057  34.920  27.684   0.427
47990W        W21058  39.994  31.827   2.673
47991W        W21059  17.191  20.696  11.111
47992W        W21060  23.664  24.380   0.369
47993W        W21061  36.084  18.608   1.404
47994W        W21062  41.892  10.062   1.729
47995W        W21063  29.150  15.034   3.596
47996W        W21064  33.484  43.489  10.815
47997W        W21065  39.919   6.741  12.123
47998W        W21066   5.070  34.526  11.167
47999W        W21067   3.314   8.663   4.305
48000W        W21068  20.964  14.454  12.573
48001W        W21069   0.918  11.603   2.126
48002W        W21070  36.151  37.012  13.942
48003W        W21071  39.680   4.884  12.426
48004W        W21072  13.073  22.471   3.283
48005W        W21073  20.105  28.390   0.745
48006W        W21074   4.941  37.378  10.008
48007W        W21075   6.374   7.620   0.895
48008W        W21076   3.003  16.864   0.367
48009W        W21077   0.072  25.718  11.547
48010W        W21078  27.586   0.755  13.892
48011W        W21079  44.242  42.388   0.332
48012W        W21080  34.068  28.462   1.925
48013W        W21081   0.474  12.608  14.957
48014W        W21082  11.157  20.057   3.675
48015W        W21083  15.737  25.663   4.267
48016W        W21084  21.966  10.603  11.104
48017W        W21085   5.804  28.127  14.538
48018W        W21086  24.635  14.236  12.404
48019W        W21087   3.315  43.320   4.496
48020W        W21088  15.272  25.265  11.212
48021W        W21089  10.151   1.116  10.182
48022W        W21090  40.107  39.514  13.691
48023W        W21091  35.838  43.971  13.689
48024W        W21092  18.707  22.235  14.275
48025W        W21093  39.927  38.983  13.583
48026W        W21094  15.305  25.910   0.242
48027W        W21095   5.841  34.155  13.857
48028W        W21096  44.733  41.371   0.383
48029W        W21097  44.285  44.410   3.397
48030W        W21098   9.363  36.338  11.363
48031W        W21099  30.625   3.883  12.866
48032W        W21100   0.432  42.076   1.220
48033W        W21101  12.740   3.819  14.240
48034W        W21102  29.374  35.033   1.678
48035W        W21103  32.619  29.910  14.951
48036W        W21104   8.869  15.823   1.459
48037W        W21105  20.277   4.154   2.871
48038W        W21106   6.920  15.275  13.401
48039W        W21107  17.869   5.054  13.957
48040W        W21108  42.321  18.087  14.577
48041W        W21109  10.373  42.507  12.457
48042W        W21110  36.388   6.149   4.104
48043W        W21111  43.052   4.113   0.666
48044W        W21112   0.775  36.477  14.867
48045W        W21113  19.063  13.971   5.068
48046W        W21114   1.303  12.243  12.414
48047W        W21115  10.678  30.150   0.806
48048W        W21116  22.210  36.031   4.586
48049W        W21117  16.030   8.819   3.550
48050W        W21118  11.900  37.401   3.727
48051W        W21119  14.585  44.404   0.014
48052W        W21120   7.363  42.028   1.703
48053W        W21121  32.104  19.012  11.594
48054W        W21122   8.899   2.754   0.736
48055W        W21123  43.397  33.854  10.720
48056W        W21124  37.372  38.312   2.265
48057W        W21125  40.313   4.905   0.448
48058W        W21126   3.791  29.098  13.335
48059W        W21127  38.989   0.533  13.172
48060W        W21128   8.039  44.787  14.976
48061W        W21129  40.977  32.839   1.303
48062W        W21130  12.473  18.613   2.172
48063W        W21131   3.782  32.963  14.884
48064W        W21132  23.756  14.366   0.339
48065W        W21133  20.202  27.735   1.567
48066W        W21134  43.534  30.173   2.692
48067W        W21135  22.768  36.127  12.911
48068W        W21136  34.542  30.637  11.880
48069W        W21137  27.092  42.862   2.285
48070W        W21138  13.518  31.579  14.799
48071W        W21139  30.667  21.523  11.310
48072W        W21140  14.448   7.318  13.043
48073W        W21141  39.968   9.012  11.486
48074W        W21142  14.723  41.496   1.754
48075W        W21143  12.321  20.190   2.316
48076W        W21144  39.827  43.398   1.236
48077W        W21145  21.250   5.783   3.708
48078W        W21146  25.976  12.167   3.199
48079W        W21147  25.173  41.454  13.091
48080W        W21148   2.960   3.069   4.495
48081W        W21149   2.086  16.427  12.174
48082W        W21150   4.628  33.955  11.511
48083W        W21151   0.238   3.806  13.943
48084W        W21152  44.491  32.910   1.979
48085W        W21153  21.548  17.293   4.070
48086W        W21154  17.558  26.046  13.507
48087W        W21155   9.017  15.393   2.834
48088W        W21156  38.421  31.825  13.476
48089W        W21157  39.927  25.743   4.368
48090W        W21158   4.167  15.668  12.351
48091W        W21159  10.635  43.211  12.482
48092W        W21160  27.894  13.716   1.941
48093W        W21161  37.877  44.846   0.479
48094W        W21162   9.391  17.580   4.627
48095W        W21163   2.295  39.910  14.664
48096W        W21164  23.874  11.821  13.531
48097W        W21165   0.327   9.972  12.949
48098W        W21166  43.250  11.726   4.138
48099W        W21167  20.793  26.551   1.782
48100W        W21168  18.032  22.960   4.375
48101W        W21169  37.089  11.876   1.480
48102W        W21170  19.988  23.174  12.541
48103W        W21171  15.185   9.640   2.268
48104W        W21172  16.638  18.573   2.665
48105W        W21173   1.919  14.336   2.845
48106W        W21174  43.285  24.256   2.241
48107W        W21175   4.250  34.957   3.643
48108W        W21176  25.726   9.474   1.342
48109W        W21177   9.743  32.439  12.453
48110W        W21178  39.660  12.465   2.761
48111W        W21179  40.760  20.045  12.948
48112W        W21180  21.091  17.977  11.539
48113W        W21181  25.550   1.687  14.455
48114W        W21182  39.956  28.169  12.044
48115W        W21183  23.632   9.824   2.297
48116W        W21184  28.271  31.087  11.576
48117W        W21185   9.208   8.794  13.085
48118W        W21186  43.997  33.908   4.318
48119W        W21187  41.895  16.820  14.345
48120W        W21188   8.365  30.051   2.127
48121W        W21189  41.081   4.563   4.529
48122W        W21190  22.210  13.858  13.935
48123W        W21191  42.736   9.699   0.446
48124W        W21192  44.273  24.445  12.038
48125W        W21193  22.284  14.217  10.903
48126W        W21194  23.692   2.018  11.526
48127W        W21195   4.813  15.255   4.264
48128W        W21196  18.976  11.705  14.412
48129W        W21197  23.805  28.055  10.841
48130W        W21198   0.366   6.243  10.408
48131W        W21199  36.745  43.203   0.764
48132W        W21200  10.786  19.207   9.961
48133W        W21201  30.591   2.163   2.643
48134W        W21202   6.979  42.418   2.331
48135W        W21203  24.778   4.777  14.924
48136W        W21204  13.748  20.044   4.716
48137W        W21205  44.220  24.646  14.124
48138W        W21206  29.118  42.425  13.336
48139W        W21207  14.269  28.143  12.260
48140W        W21208  16.557  32.575  14.411
48141W        W21209  44.753  28.449   1.862
48142W        W21210  17.402  29.568   4.539
48143W        W21211  44.935  13.244   2.131
48144W        W21212  12.736  26.599  12.332
48145W        W21213  33.617  11.856   1.397
48146W        W21214  30.033  13.571   2.955
48147W        W21215  17.345   4.721  12.758
48148W        W21216  25.248   9.772   5.019
48149W        W21217   7.096  44.482  12.547
48150W        W21218   2.808  13.524   1.829
48151W        W21219  20.317  23.061   0.521
48152W        W21220  41.437  42.066   4.080
48153W        W21221  11.230   9.684   4.674
48154W        W21222   4.056  33.077   0.908
48155W        W21223   6.341  10.565   0.826
48156W        W21224  26.719  16.922   4.950
48157W        W21225  19.906  18.263  11.095
48158W        W21226  29.713  40.519  14.477
48159W        W21227  37.540  19.784   3.252
48160W        W21228  27.978   9.217  12.353
48161W        W21229  18.561  25.476   4.893
48162W        W21230  36.571  17.211   0.711
48163W        W21231   7.713  33.376   0.549
48164W        W21232  35.705  12.608   0.115
48165W        W21233  43.414  34.378  14.501
48166W        W21234  13.579  16.643  12.500
48167W        W21235  38.882  44.818   0.406
48168W        W21236  18.697  12.633   2.772
48169W        W21237  36.481   4.142   1.395
48170W        W21238   4.730   2.576   4.492
48171W        W21239  26.973  17.054  10.383
48172W        W21240   8.442  23.113  14.885
48173W        W21241  10.429  30.678   0.538
48174W        W21242   8.630   0.746  12.205
48175W        W21243  28.414  44.264   2.878
48176W        W21244  39.063  14.086  12.358
48177W        W21245  21.833  38.780   3.404
48178W        W21246  31.896   6.485  12.413
48179W        W21247  41.049   6.076  12.942
48180W        W21248  43.389  38.939   0.158
48181W        W21249   0.493  12.689  13.780
48182W        W21250  39.363  39.972  10.536
48183W        W21251  12.834  41.691   2.061
48184W        W21252  37.511  15.714   4.461
48185W        W21253   2.589   1.351   0.754
48186W        W21254  15.108   2.973  13.348
48187W        W21255  35.061  18.382  14.876
48188W        W21256  35.733  21.679   0.342
48189W        W21257  22.538  19.814  10.597
48190W        W21258  37.647  22.223   4.587
48191W        W21259  11.846   6.410   0.653
48192W        W21260  38.457   9.117  12.883
48193W        W21261  29.430  23.168  10.392
48194W        W21262  32.582  10.888  12.966
48195W        W21263  26.390   6.904  12.463
48196W        W21264  12.304  33.609   0.296
48197W        W21265  13.361   0.945   0.840
48198W        W21266  23.226   1.474   2.319
48199W        W21267  36.545  43.384  12.468
48200W        W21268  12.258  32.632   4.115
48201W        W21269  32.067  35.944  11.372
48202W        W21270  42.398  35.166  12.058
48203W        W21271  25.815  30.696  12.955
48204W        W21272  19.748  32.242   2.308
48205W        W21273  40.932   7.638  14.719
48206W        W21274  15.037  27.908   1.392
48207W        W21275  14.255  31.213   3.189
48208W        W21276  23.247   5.329   3.246
48209W        W21277   5.216  14.911  10.608
48210W        W21278  25.950  24.601  13.011
48211W        W21279  34.352  40.332  11.199
48212W        W21280  13.832  20.683  12.009
48213W        W21281  32.678  43.711  11.067
48214W        W21282   2.546  18.974  13.402
48215W        W21283  26.923  39.912  11.584
48216W        W21284  39.302  38.445  11.123
48217W        W21285  21.963  14.267  14.827
48218W        W21286  44.320  39.490   3.368
48219W        W21287   4.242  32.021  11.436
48220W        W21288  34.941  10.747  10.832
48221W        W21289   1.288   1.998  14.012
48222W        W21290   3.543  18.188   4.683
48223W        W21291   2.834   3.837   0.433
48224W        W21292  40.961  31.178  12.457
48225W        W21293  13.247  21.184   3.145
48226W        W21294  25.611  39.758   1.894
48227W        W21295  38.232  20.266   2.733
48228W        W21296   4.716  22.118  12.530
48229W        W21297  26.004  34.813  11.939
48230W        W21298  28.246  34.185  12.948
48231W        W21299  37.010  26.891  12.507
48232W        W21300  23.892   7.250   4.675
48233W        W21301   5.857  42.917   2.731
48234W        W21302  39.280  30.812  14.322
48235W        W21303  39.528  31.216   4.273
48236W        W21304  13.164   7.885  11.280
48237W        W21305   4.453  33.504   4.129
48238W        W21306  19.368   0.493  11.536
48239W        W21307  28.711  23.529  12.775
48240W        W21308  43.656  42.998  13.142
48241W        W21309  41.915  12.141   1.820
48242W        W21310  32.334  33.535  14.449
48243W        W21311   9.021  31.180  11.031
48244W        W21312  43.948  36.505   0.337
48245W        W21313  22.708  40.415  11.123
48246W        W21314   0.668  39.914  14.888
48247W        W21315  31.998  23.601  12.870
48248W        W21316   4.338  23.677  12.958
48249W        W21317  22.709  13.156   2.792
48250W        W21318   1.710   6.117  10.778
48251W        W21319  30.076   7.125  13.399
48252W        W21320   3.881  38.748  12.951
48253W        W21321   1.066  41.510   4.804
48254W        W21322  32.672   8.989   3.657
48255W        W21323   0.419  16.369  13.306
48256W        W21324   6.046   9.657  10.136
48257W        W21325  43.234  17.334   1.911
48258W        W21326   3.693  20.229  11.604
48259W        W21327  26.446  38.499   4.297
48260W        W21328  33.490  24.849   4.770
48261W        W21329   3.428  22.677   3.161
48262W        W21330  18.259  41.224  13.625
48263W        W21331   9.726  21.470   1.167
48264W        W21332  31.012  19.239  12.260
48265W        W21333  32.909  25.153  12.568
48266W        W21334  13.258  16.890  10.840
48267W        W21335  43.277  25.432   1.310
48268W        W21336  31.688  33.153  12.999
48269W        W21337  19.311  36.644   3.623
48270W        W21338  43.094  42.985   2.806
48271W        W21339  12.742  38.487   3.164
48272W        W21340  24.372   9.678  12.010
48273W        W21341  21.837  15.539   2.789
48274W        W21342  42.864  14.269   2.389
48275W        W21343   1.003  22.233  10.199
48276W        W21344  18.172  35.017  12.105
48277W        W21345  30.364  26.492  14.416
48278W        W21346  28.517   7.472   3.207
48279W        W21347  31.140   4.737   2.682
48280W        W21348  18.517  27.758  12.453
48281W        W21349  17.160  31.434   1.252
48282W        W21350  25.426  41.383  12.631
48283W        W21351  20.756   0.769  14.355
48284W        W21352  41.531   8.318   3.924
48285W        W21353  11.329  10.293   3.275
48286W        W21354  44.307  29.606   5.035
48287W        W21355  27.565   0.019  12.423
48288W        W21356  38.468  36.069   3.633
48289W        W21357  29.269  39.822   1.676
48290W        W21358  29.504  20.007   3.261
48291W        W21359  26.934  17.232  14.798
48292W        W21360  17.410   2.403  14.407
48293W        W21361  12.292  14.107   4.739
48294W        W21362  25.573   0.994   4.585
48295W        W21363  42.309   9.786  10.670
48296W        W21364  27.632  34.981  14.728
48297W        W21365  37.278  31.266   2.569
48298W        W21366  19.245  39.486   4.631
48299W        W21367  34.358  33.493   1.463
48300W        W21368  32.969  17.129  13.403
48301W        W21369   0.260  44.257   2.113
48302W        W21370   1.651  20.094   3.293
48303W        W21371  36.959  19.355  11.691
48304W        W21372  18.267  15.533   0.349
48305W        W21373   4.013  41.482   2.778
48306W        W21374   2.130  19.622  13.833
48307W        W21375   7.599   4.829  13.366
48308W        W21376  42.462  42.293   4.172
48309W        W21377  24.163  44.358   3.710
48310W        W21378  31.427  41.565  14.834
48311W        W21379  41.112  43.022  11.953
48312W        W21380   0.847  43.374   2.415
48313W        W21381  13.198  39.986  10.708
48314W        W21382  13.665  32.483   4.339
48315W        W21383   4.681  38.837  11.621
48316W        W21384  42.775  28.065  12.889
48317W        W21385  38.558   2.960   0.911
48318W        W21386  11.059  36.436   3.076
48319W        W21387  20.823  29.599  11.593
48320W        W21388  11.365  26.656  10.601
48321W        W21389  32.917  17.029  14.989
48322W        W21390  15.115  18.743   4.078
48323W        W21391  43.036  11.760   0.976
48324W        W21392  24.237  16.807   2.784
48325W        W21393  15.718  37.085   3.644
48326W        W21394  27.610   7.437  14.915
48327W        W21395  35.155  18.621   2.259
48328W        W21396  23.354  24.777   5.025
48329W        W21397  35.934  12.610   1.194
48330W        W21398  24.265   2.203  12.592
48331W        W21399  20.660  43.901   3.290
48332W        W21400  17.303  32.111  12.890
48333W        W21401  28.424  37.337  12.903
48334W        W21402  20.319  21.466  14.799
48335W        W21403  28.977  14.225   4.614
48336W        W21404   0.996  35.531  14.545
48337W        W21405  32.106   2.707   1.404
48338W        W21406  41.303  13.838  12.428
48339W        W21407   9.722  40.307  10.132
48340W        W21408  40.174  39.752   4.694
48341W        W21409  11.051  29.543  14.391
48342W        W21410  29.438  31.064  12.339
48343W        W21411   3.288   9.660   3.875
48344W        W21412  39.548  24.085   3.762
48345W        W21413   0.872  11.781   4.604
48346W        W21414  23.906  10.742  12.919
48347W        W21415  37.471  41.774   4.157
48348W        W21416  37.579  43.901  13.038
48349W        W21417  24.576  13.373   1.875
48350W        W21418  42.294  35.441  13.688
48351W        W21419  41.782  44.781   2.191
48352W        W21420  42.331  23.038   2.520
48353W        W21421  16.123  11.681  11.960
48354W        W21422  17.038  21.648  14.816
48355W        W21423  41.606  17.148  12.470
48356W        W21424   9.241   1.568  14.931
48357W        W21425  28.142  36.574   4.660
48358W        W21426  13.127  42.345   2.690
48359W        W21427  25.998  12.541  14.322
48360W        W21428   7.167  43.122  12.337
48361W        W21429   5.602  41.373  14.341
48362W        W21430  38.324  28.717  11.105
48363W        W21431  14.551  43.966   2.803
48364W        W21432  34.218  10.365   1.996
48365W        W21433  37.891  28.121  10.631
48366W        W21434   7.417  26.137   1.871
48367W        W21435   7.844  28.386  13.982
48368W        W21436  26.101   4.802   3.785
48369W        W21437  31.842  22.714   3.278
48370W        W21438  26.451   9.606  13.727
48371W        W21439  32.924  21.413   0.802
48372W        W21440  15.558  44.234  13.106
48373W        W21441  11.092  35.603   4.444
48374W        W21442  21.588  41.860   4.083
48375W        W21443  27.116   2.151   0.647
48376W        W21444  36.013   4.860   1.683
48377W        W21445   9.182  41.580   9.934
48378W        W21446   6.999  10.163   0.049
48379W        W21447  37.351  42.744  11.521
48380W        W21448  11.176  32.642   2.263
48381W        W21449  19.779   1.263  14.839
48382W        W21450  23.176  16.735  14.978
48383W        W21451  26.913  10.165  10.669
48384W        W21452  28.626  42.754  14.829
48385W        W21453   8.801  16.204  15.000
48386W        W21454   2.953   7.837   1.806
48387W        W21455  23.189   8.221  11.200
48388W        W21456  29.108  24.684   0.560
48389W        W21457  25.954  20.730  12.529
48390W        W21458   0.335   9.696   2.213
48391W        W21459  20.068  30.250   0.282
48392W        W21460  34.786   7.318   3.194
48393W        W21461  14.278   4.058   4.135
48394W        W21462   8.342  25.232   0.259
48395W        W21463   9.447   0.725  14.705
48396W        W21464  32.525  28.586   0.481
48397W        W21465  15.488  27.409   2.352
48398W        W21466   0.314   0.544  13.580
48399W        W21467  32.202  17.242   3.872
48400W        W21468  25.390  41.971  14.843
48401W        W21469  10.751  40.116  11.469
48402W        W21470  14.611  14.644   3.845
48403W        W21471  13.203  41.003   3.916
48404W        W21472  10.164  42.368  12.925
48405W        W21473  33.662  44.709   3.610
48406W        W21474  28.436  43.314  13.511
48407W        W21475  28.688   8.320   4.247
48408W        W21476  12.314  13.192  14.312
48409W        W21477  33.444  25.192  12.437
48410W        W21478   6.812   3.914   1.158
48411W        W21479   2.468  42.872   1.692
48412W        W21480  24.982   6.290  12.829
48413W        W21481  39.244  14.182   2.100
48414W        W21482  34.781  31.798   2.175
48415W        W21483  18.068  23.220  11.999
48416W        W21484  39.357  36.382   5.018
48417W        W21485   3.660  43.929   3.139
48418W        W21486  10.781  19.882   0.733
48419W        W21487  22.061  10.748   1.741
48420W        W21488   8.896  10.772  12.727
48421W        W21489  11.666  26.613   1.160
48422W        W21490  28.129  10.712   0.434
48423W        W21491  16.721  14.306  12.050
48424W        W21492  25.456   5.310   0.186
48425W        W21493  11.682  16.162  11.086
48426W        W21494  27.061   3.951   0.906
48427W        W21495  22.711  13.173  14.205
48428W        W21496   7.227   4.854  10.502
48429W        W21497  12.360   7.338   3.155
48430W        W21498  31.906  36.870  12.914
48431W        W21499   3.408  29.424   3.716
48432W        W21500   8.292  20.237   4.353
48433W        W21501  26.560  33.051  12.105
48434W        W21502  33.534   1.556   3.306
48435W        W21503  16.103  34.040   4.837
48436W        W21504  40.392  37.507  14.924
48437W        W21505  10.404  26.104   1.384
48438W        W21506  20.477  16.587   2.715
48439W        W21507  39.822   7.889   3.304
48440W        W21508  19.948  13.054  12.971
48441W        W21509  19.014  40.526   1.839
48442W        W21510  42.993  44.340  12.898
48443W        W21511  21.062  17.965   0.916
48444W        W21512  10.269  40.393  14.347
48445W        W21513  26.676   1.977  13.063
48446W        W21514  31.140  32.427   2.406
48447W        W21515  20.107  44.957  11.935
48448W        W21516  24.980  21.911   0.317
48449W        W21517  12.271  37.213   0.291
48450W        W21518  10.604  28.519  11.369
48451W        W21519  35.960  37.824   1.780
48452W        W21520  19.585  26.201   0.985
48453W        W21521  11.185   0.328   3.434
48454W        W21522   8.568   5.691  10.537
48455W        W21523  37.423  20.309  14.829
48456W        W21524  38.920   9.769   4.076
48457W        W21525  41.415   2.405   3.341
48458W        W21526   7.694  20.213   2.213
48459W        W21527  33.045  41.267  11.380
48460W        W21528  10.746  21.422   3.614
48461W        W21529  41.971  37.203  10.511
48462W        W21530  44.411  28.580   4.810
48463W        W21531  40.737  19.647   3.695
48464W        W21532  41.729  15.459  14.481
48465W        W21533  29.637  36.605   0.377
48466W        W21534  17.668  33.892   2.815
48467W        W21535  27.423  22.491  10.770
48468W        W21536  20.018  30.917   1.651
48469W        W21537   6.802  16.668  13.519
48470W        W21538  31.034  44.969   4.433
48471W        W21539   4.157  16.465  12.641
48472W        W21540  33.951  21.314  12.552
48473W        W21541  29.876  15.301  12.074
48474W        W21542   2.934  37.053  13.107
48475W        W21543   6.497   1.886  12.621
48476W        W21544  25.465  38.542  10.975
48477W        W21545   3.930  34.128  10.688
48478W        W21546  23.966   1.371  13.097
48479W        W21547  24.157   8.663   2.415
48480W        W21548  26.561  32.638  10.665
48481W        W21549  39.290   2.470   4.231
48482W        W21550  15.136   6.958   2.887
48483W        W21551  29.473  16.525   1.789
48484W        W21552  17.594  20.046  12.911
48485W        W21553  25.114  26.469   1.433
48486W        W21554  35.328  17.805   2.442
48487W        W21555  32.692   4.191   0.363
48488W        W21556   3.747  23.271  12.084
48489W        W21557   3.254  37.772   2.232
48490W        W21558  36.046  43.920  12.877
48491W        W21559  13.212  18.312   4.512
48492W        W21560  12.387  36.019  10.703
48493W        W21561  26.700   1.966  10.339
48494W        W21562   1.487  22.748   4.518
48495W        W21563  41.044  30.894   2.337
48496W        W21564  24.339  20.657  10.363
48497W        W21565  30.514  11.131   1.207
48498W        W21566  27.490  41.527   1.070
48499W        W21567  20.330  36.459  13.759
48500W        W21568  23.229  39.481   0.688
48501W        W21569  38.299  23.089  11.343
48502W        W21570   5.186  33.593  11.811
48503W        W21571  41.904   3.759   3.546
48504W        W21572   3.861   8.185  10.672
48505W        W21573  10.708  11.631   0.862
48506W        W21574   9.813  31.430   2.173
48507W        W21575  21.175  37.911   4.536
48508W        W21576  15.036   7.968  11.343
48509W        W21577  43.003  36.566  10.740
48510W        W21578  39.861  36.183   1.839
48511W        W21579   8.274  16.819   4.281
48512W        W21580  40.519  33.098  10.537
48513W        W21581  12.067  40.527   2.648
48514W        W21582   6.243   9.777  14.052
48515W        W21583   2.984  17.033   3.220
48516W        W21584  41.256  10.548   3.316
48517W        W21585  16.161  43.981  10.748
48518W        W21586  41.360  30.314  13.422
48519W        W21587  32.565  39.014  13.149
48520W        W21588   3.410   6.494  14.269
48521W        W21589  11.594  24.501   1.983
48522W        W21590  24.806  33.255  14.391
48523W        W21591  11.295   6.804   3.580
48524W        W21592  44.264   9.451   1.438
48525W        W21593  19.238   1.461   1.037
48526W        W21594  43.351  28.575  14.798
48527W        W21595  13.169  43.667   2.740
48528W        W21596  21.682  27.971   1.738
48529W        W21597  39.336   8.269  11.153
48530W        W21598  29.963  29.936   3.719
48531W        W21599  36.847   0.200   4.817
48532W        W21600   6.360  13.701  11.630
48533W        W21601  40.838  10.284  12.775
48534W        W21602  24.274  13.754  14.904
48535W        W21603   1.367   5.302  11.557
48536W        W21604  36.560  36.630  10.827
48537W        W21605   1.243   0.951   3.315
48538W        W21606  42.590  31.672   1.268
48539W        W21607   1.455  42.045   0.494
48540W        W21608  15.367  20.322   3.656
48541W        W21609  39.024  42.811  12.454
48542W        W21610  25.217  34.715   3.401
48543W        W21611  13.055   8.164   1.406
48544W        W21612  44.779  10.815   2.842
48545W        W21613   0.012  31.793  13.939
48546W        W21614  11.264  13.644  12.562
48547W        W21615  40.233  13.741   3.770
48548W        W21616  19.767  25.028   3.385
48549W        W21617  27.367  19.067  11.965
48550W        W21618   6.171   2.043   0.940
48551W        W21619  30.372  34.729   0.840
48552W        W21620  29.262  40.273  14.460
48553W        W21621  24.818   6.831  12.100
48554W        W21622  17.652  15.877  12.048
48555W        W21623   9.685  44.376   3.281
48556W        W21624  26.662  40.234   4.063
48557W        W21625  27.454  21.994   3.455
48558W        W21626  32.421  30.518   4.504
48559W        W21627  11.862   9.801   2.842
48560W        W21628  15.026  23.698  11.493
48561W        W21629  14.214  24.459  10.722
48562W        W21630  44.441  43.132  14.937
48563W        W21631  35.531  31.332   4.501
48564W        W21632  24.643  39.969  13.984
48565W        W21633  37.808  42.481  11.660
48566W        W21634   5.451  31.365   3.412
48567W        W21635  21.731  33.614  14.969
48568W        W21636  27.038  28.977   4.089
48569W        W21637  38.629  19.236   1.369
48570W        W21638  29.836  12.837   2.160
48571W        W21639  10.965  27.700  12.995
48572W        W21640  33.853  44.431   0.315
48573W        W21641   2.903  10.743  12.647
48574W        W21642  10.190   9.833  13.913
48575W        W21643  20.070  33.941   3.858
48576W        W21644  20.337   1.047  13.481
48577W        W21645   2.157  36.000  13.370
48578W        W21646   1.897  42.739  13.821
48579W        W21647  25.402  27.643  12.983
48580W        W21648  29.717  24.050  12.084
48581W        W21649   4.706  31.017   5.094
48582W        W21650  41.504  16.989   2.459
48583W        W21651  39.466  37.543  10.897
48584W        W21652  31.754  11.828   4.937
48585W        W21653   6.793   0.118   3.177
48586W        W21654   2.646  33.452  11.886
48587W        W21655   4.668  29.136  14.954
48588W        W21656   5.987  35.545  12.020
48589W        W21657   8.846  41.954   3.227
48590W        W21658  10.177  23.166   1.943
48591W        W21659   1.955   4.854  12.580
48592W        W21660   5.796  42.336   4.814
48593W        W21661   6.256  36.711   4.473
48594W        W21662  37.877  23.500   5.061
48595W        W21663  37.902  30.224   1.869
48596W        W21664  26.153   7.363  12.054
48597W        W21665  31.369  44.559   1.293
48598W        W21666  25.016  43.513   3.702
48599W        W21667  23.539   4.730   4.420
48600W        W21668  10.847  16.711   1.409
48601W        W21669  16.019  10.833  10.674
48602W        W21670  23.588  37.125   2.647
48603W        W21671  25.690  12.572   3.038
48604W        W21672  38.498  42.345  11.020
48605W        W21673  31.982   0.679   2.814
48606W        W21674  37.971   0.797  10.472
48607W        W21675  39.150  21.222  10.250
48608W        W21676  40.366  25.561   3.335
48609W        W21677  29.042   8.687   4.157
48610W        W21678  19.200  33.355  11.345
48611W        W21679  39.037  19.484   1.199
48612W        W21680  29.849  17.169   4.207
48613W        W21681   2.331  19.453  10.627
48614W        W21682  20.627  32.059   1.156
48615W        W21683  39.628  42.749   3.346
48616W        W21684   2.890  39.943   0.945
48617W        W21685  14.527  39.959   0.878
48618W        W21686   3.242  29.653   1.410
48619W        W21687  29.181   9.365   2.301
48620W        W21688  17.250  22.639  13.268
48621W        W21689  19.173  10.697   4.781
48622W        W21690  10.219  33.461   1.250
48623W        W21691   4.025  34.974  13.535
48624W        W21692  12.866  32.605   1.370
48625W        W21693  42.331  37.162  12.024
48626W        W21694  35.177  10.389  10.026
48627W        W21695  13.605  37.638   2.928
48628W        W21696  16.201  44.693   2.611
48629W        W21697  23.560  44.998  14.835
48630W        W21698  14.704  30.128  12.909
48631W        W21699  26.622  38.970   3.389
48632W        W21700  16.768  23.256  13.307
48633W        W21701  31.416   9.755   4.379
48634W        W21702  43.030   8.834   2.951
48635W        W21703  26.388  27.493  12.980
48636W        W21704   2.355   1.912  14.333
48637W        W21705  27.967   2.188  12.999
48638W        W21706  44.377  38.463   3.253
48639W        W21707  19.221  25.526  11.630
48640W        W21708   6.907  24.757   4.304
48641W        W21709  28.110  11.585   2.832
48642W        W21710  32.010  32.591  13.436
48643W        W21711  43.249  10.880   3.535
48644W        W21712   6.624  28.043  11.514
48645W        W21713   4.288  15.632   3.448
48646W        W21714  42.192  32.906   0.817
48647W        W21715  42.283  11.320  13.669
48648W        W21716  10.667  37.505  14.516
48649W        W21717  39.772  13.661  13.443
48650W        W21718  22.316   1.753   2.695
48651W        W21719  30.867   2.426   0.313
48652W        W21720   4.027  28.732   5.012
48653W        W21721  16.629  15.355   0.399
48654W        W21722   1.207  10.382  12.049
48655W        W21723  13.580  31.430   1.181
48656W        W21724  33.583  18.191   3.099
48657W        W21725  35.432  30.018   4.031
48658W        W21726  40.035   4.638  12.999
48659W        W21727  44.948  32.443   0.861
48660W        W21728   8.307  22.092  12.122
48661W        W21729   2.493  16.747  12.065
48662W        W21730  35.008  22.588  14.952
48663W        W21731  28.570  37.651  14.786
48664W        W21732  41.057  13.263  13.418
48665W        W21733  27.067  26.095   3.203
48666W        W21734  15.781  13.617   0.987
48667W        W21735  22.725  31.721  13.297
48668W        W21736  35.687  25.593  12.069
48669W        W21737  12.146  23.573   1.422
48670W        W21738   9.169  40.700   1.851
48671W        W21739  19.508   4.697   4.139
48672W        W21740  32.898  10.603   1.982
48673W        W21741  26.978  16.792  11.397
48674W        W21742  40.905  23.668  10.875
48675W        W21743  34.677  28.481  13.832
48676W        W21744  15.612  19.654   0.471
48677W        W21745  26.244   0.688  11.936
48678W        W21746  10.737  18.566  10.727
48679W        W21747  35.677  31.088   3.663
48680W        W21748  42.016  38.602  10.417
48681W        W21749  39.518  38.397  12.891
48682W        W21750  19.865  23.506   0.290
48683W        W21751  25.537  33.191  12.889
48684W        W21752  41.937  20.096   4.298
48685W        W21753  25.564  12.107   2.848
48686W        W21754  40.227   2.189   4.352
48687W        W21755  43.878  41.834   4.174
48688W        W21756  28.604  34.052  11.662
48689W        W21757   8.628  32.487  14.027
48690W        W21758  33.395  11.208   4.235
48691W        W21759   8.206  42.758  14.254
48692W        W21760  27.271  16.339  11.529
48693W        W21761  37.875  13.751   4.231
48694W        W21762  23.486  10.849   4.070
48695W        W21763  26.520  20.129   1.352
48696W        W21764  30.436  12.090  12.937
48697W        W21765  23.489   8.336   0.925
48698W        W21766   9.843   8.445   3.772
48699W        W21767  25.937  14.212  14.412
48700W        W21768  42.221  15.664  11.910
48701W        W21769  18.653   1.415   4.120
48702W        W21770  41.044  41.529   4.663
48703W        W21771  12.024  12.764   2.233
48704W        W21772  43.123  18.409  12.422
48705W        W21773  42.303  44.896  13.725
48706W        W21774  18.504  40.856  11.910
48707W        W21775  44.324  25.866  11.967
48708W        W21776  43.463   9.010   0.381
48709W        W21777  32.221  15.425   2.261
48710W        W21778  21.196  28.690  12.488
48711W        W21779  21.070  13.825   0.355
48712W        W21780  27.069  44.208  13.486
48713W        W21781  37.506  44.937   1.792
48714W        W21782  27.659  21.029  11.155
48715W        W21783  24.709  17.318  12.150
48716W        W21784   3.302  30.495  14.755
48717W        W21785   7.753  32.632  12.888
48718W        W21786  24.460   1.292   1.307
48719W        W21787  16.663  44.718   1.620
48720W        W21788  19.260  29.630  11.236
48721W        W21789  30.068  35.145  12.135
48722W        W21790  10.876  24.134   0.036
48723W        W21791  31.583  27.439   1.320
48724W        W21792  39.996  21.575   0.643
48725W        W21793  44.426  43.396  11.707
48726W        W21794  30.705  19.241   1.389
48727W        W21795  29.260  24.952  11.913
48728W        W21796   2.961  42.971   4.768
48729W        W21797  10.183  43.620  11.154
48730W        W21798  36.809   5.321   1.729
48731W        W21799  24.941  36.220   4.255
48732W        W21800  20.345  10.211   1.409
48733W        W21801   4.818   4.030   4.581
48734W        W21802  26.509  33.114  12.893
48735W        W21803  39.004  34.383   0.374
48736W        W21804  32.854  25.669  12.534
48737W        W21805  30.332   0.199  14.952
48738W        W21806   5.670   1.514  12.461
48739W        W21807  38.571  27.915   3.840
48740W        W21808  33.973   4.425   3.719
48741W        W21809  44.357  30.704   0.360
48742W        W21810   5.742  12.354   3.218
48743W        W21811  16.752  13.948   2.214
48744W        W21812  33.009  10.713   2.470
48745W        W21813   2.528  16.828   1.752
48746W        W21814  34.470  36.035  12.548
48747W        W21815  30.016  10.741   3.156
48748W        W21816  40.484  35.008   2.227
48749W        W21817  39.500  37.968  13.815
48750W        W21818  17.801  24.254  12.626
48751W        W21819  34.543  17.264   2.004
48752W        W21820   3.467   7.626  11.042
48753W        W21821  39.536  25.489   3.522
48754W        W21822  23.351  11.813  13.410
48755W        W21823  41.834   9.004  13.515
48756W        W21824   1.465   6.659  12.024
48757W        W21825   6.859  20.712   2.353
48758W        W21826  13.992  28.190  12.694
48759W        W21827  13.767  34.387  11.394
48760W        W21828  38.951  35.070  13.459
48761W        W21829   1.191   0.832   0.175
48762W        W21830   0.138   2.786   3.360
48763W        W21831   7.782  28.015  10.661
48764W        W21832  43.224  33.509   3.921
48765W        W21833  35.868  32.321   0.847
48766W        W21834  34.711  21.156  14.688
48767W        W21835   9.880   4.522  11.454
48768W        W21836   1.333  44.789  11.427
48769W        W21837  26.507  35.517   4.542
48770W        W21838  42.856   0.972   0.367
48771W        W21839  44.212  39.549  11.577
48772W        W21840  32.684  19.655  13.743
48773W        W21841   8.301  15.488  14.559
48774W        W21842   2.512   3.690  12.679
48775W        W21843  29.571  26.843  10.710
48776W        W21844  26.025  44.262   1.906
48777W        W21845  12.393   6.173  14.891
48778W        W21846   1.872   4.876  13.409
48779W        W21847   6.882  30.981   1.808
48780W        W21848  12.290   4.212   0.861
48781W        W21849  24.441  11.868   2.748
48782W        W21850  15.068  13.583   4.748
48783W        W21851  10.341  38.838  14.432
48784W        W21852  37.465  10.477   0.289
48785W        W21853   9.457  43.847   0.445
48786W        W21854  21.107  22.902  11.511
48787W        W21855  28.192  42.744  10.957
48788W        W21856   6.806   4.504   3.494
48789W        W21857  40.294  10.455  12.079
48790W        W21858  37.966  11.165  12.600
48791W        W21859  41.044  44.588  14.748
48792W        W21860  38.574  41.403   4.795
48793W        W21861   5.835   8.180  12.387
48794W        W21862   1.488  41.710   2.752
48795W        W21863  36.129  21.162  10.749
48796W        W21864   8.430  42.767   5.085
48797W        W21865  37.895  44.083  10.404
48798W        W21866  38.921   2.231  14.906
48799W        W21867  41.065  25.985   4.979
48800W        W21868  43.882  11.209   0.069
48801W        W21869  32.431  37.302  14.778
48802W        W21870  36.548  29.473   3.192
48803W        W21871  12.711  28.007  10.613
48804W        W21872  23.366  44.819   3.429
48805W        W21873  25.086  10.215  11.792
48806W        W21874  35.590  34.104   2.843
48807W        W21875  31.460  37.791  12.548
48808W        W21876  41.718  18.221   5.058
48809W        W21877  34.115  13.289  11.540
48810W        W21878  32.932  31.327  11.529
48811W        W21879   8.640  11.384   4.451
48812W        W21880   8.371  16.451   1.152
48813W        W21881  37.325   2.708   2.191
48814W        W21882  17.837   6.690  13.396
48815W        W21883  44.967  16.815  11.147
48816W        W21884  25.143  44.938  11.564
48817W        W21885  18.781  31.365  12.500
48818W        W21886   1.698  24.242   2.777
48819W        W21887  22.985  37.179  12.792
48820W        W21888   7.923   7.563  10.675
48821W        W21889   1.841  35.572  13.347
48822W        W21890  10.883  18.412  12.427
48823W        W21891  36.709  19.511  11.242
48824W        W21892   4.008  15.790  14.788
48825W        W21893  32.378  14.974  12.606
48826W        W21894  32.919  36.037   0.809
48827W        W21895  10.722  32.316   4.074
48828W        W21896   5.310  13.758   3.929
48829W        W21897  38.450  26.992   4.151
48830W        W21898  23.493  31.081  14.360
48831W        W21899   2.680  24.617  14.657
48832W        W21900  16.688  28.913  13.947
48833W        W21901   9.869  18.048  11.009
48834W        W21902  23.761  13.203  12.485
48835W        W21903  15.813  39.678  11.085
48836W        W21904  21.048  33.642  11.471
48837W        W21905  39.107  43.946  14.510
48838W        W21906  37.339  35.514   3.998
48839W        W21907  22.158  34.062  13.339
48840W        W21908  26.137  16.011  14.702
48841W        W21909  44.250  15.573   4.654
48842W        W21910  10.832  39.838   2.003
48843W        W21911  13.301  37.348   2.143
48844W        W21912  28.241   5.357   3.195
48845W        W21913  13.411  17.732  14.768
48846W        W21914  20.770  39.333  12.959
48847W        W21915  23.264  20.056   2.586
48848W        W21916  19.671  23.642  12.530
48849W        W21917  42.288  33.137  11.908
48850W        W21918  19.678   9.764  12.008
48851W        W21919  23.785   2.168   4.271
48852W        W21920  41.814  28.935   0.352
48853W        W21921  33.394   9.854  12.378
48854W        W21922  10.327   9.140  13.092
48855W        W21923  31.419   1.674   3.546
48856W        W21924  33.263  20.326   3.826
48857W        W21925  39.523  11.007   4.069
48858W        W21926  39.995   5.354  11.027
48859W        W21927  42.511  34.909   4.178
48860W        W21928   2.472  41.578  10.501
48861W        W21929  10.661   7.658   3.663
48862W        W21930  44.505  24.719   0.380
48863W        W21931   2.778   7.868   3.291
48864W        W21932  20.147  28.725   1.160
48865W        W21933  36.384  36.294   0.830
48866W        W21934   4.789  29.848   2.368
48867W        W21935  33.481   1.983   4.369
48868W        W21936   4.563  12.140   1.882
48869W        W21937  40.495  12.005  14.588
48870W        W21938  41.516  34.935  13.617
48871W        W21939  18.894   2.905  13.872
48872W        W21940  44.933  40.759   2.003
48873W        W21941  15.320  41.896  12.617
48874W        W21942  28.304  36.310  11.063
48875W        W21943  40.206  36.973  11.004
48876W        W21944  27.552  17.915   1.806
48877W        W21945  28.812  10.408  12.619
48878W        W21946  23.249  31.461   0.287
48879W        W21947  33.465  22.569   4.651
48880W        W21948  41.235   5.105  14.953
48881W        W21949  44.584  37.928  14.356
48882W        W21950  40.685  24.400  14.949
48883W        W21951  17.187  14.826  13.927
48884W        W21952   1.346  36.972   3.194
48885W        W21953  21.622  44.837  13.904
48886W        W21954  30.119  17.208   1.906
48887W        W21955  14.362   1.937  13.006
48888W        W21956  10.338  23.178  13.799
48889W        W21957  33.346  16.724  13.147
48890W        W21958  13.757  31.934   0.959
48891W        W21959  39.332  30.609   3.164
48892W        W21960  25.848  35.645   1.667
48893W        W21961   1.671  36.065  13.471
48894W        W21962  31.332  38.753   4.022
48895W        W21963  22.548  39.261   2.807
48896W        W21964  14.695  36.548   4.709
48897W        W21965  31.086  17.550   0.423
48898W        W21966  18.172   1.032   4.695
48899W        W21967  34.811   8.360  13.113
48900W        W21968   7.804  13.890  14.432
48901W        W21969  21.467  36.595   4.922
48902W        W21970   3.511  11.874   4.195
48903W        W21971  17.640  32.547   4.317
48904W        W21972  44.465   8.183   0.067
48905W        W21973  11.422  14.287  13.319
48906W        W21974  20.186  23.999   4.226
48907W        W21975  14.317  44.458  10.434
48908W        W21976  39.864  41.940  11.636
48909W        W21977  42.352  44.913  14.960
48910W        W21978  32.027  26.991  13.189
48911W        W21979  39.071  19.227   4.843
48912W        W21980  22.693  38.364   2.790
48913W        W21981   1.039  34.704   4.761
48914W        W21982  40.771   2.920  10.720
48915W        W21983   2.189  38.415   4.734
48916W        W21984  37.040  30.960   4.359
48917W        W21985  30.814  24.285   4.582
48918W        W21986  14.385  38.280  10.984
48919W        W21987  19.501   6.478   3.702
48920W        W21988  41.399   0.565   0.460
48921W        W21989  17.104  20.681  14.447
48922W        W21990   7.259  18.728   0.238
48923W        W21991   8.452   5.731   3.203
48924W        W21992  26.763  39.880   1.425
48925W        W21993  42.026  35.868   1.255
48926W        W21994  14.659  38.965  10.298
48927W        W21995  43.804  24.637  11.288
48928W        W21996  41.108  24.794   4.433
48929W        W21997  39.603  18.374  14.429
48930W        W21998  37.051  12.699   0.325
48931W        W21999  44.573  20.699  12.024
48932W        W22000  25.509  43.388   2.679
48933W        W22001  18.857  25.693  13.389
48934W        W22002  26.862   0.863  13.088
48935W        W22003  14.147  19.154   1.911
48936W        W22004  22.200  27.904  12.577
48937W        W22005  11.066  31.399   3.268
48938W        W22006   0.438  29.757   4.517
48939W        W22007  37.948  34.876   4.823
48940W        W22008  21.691  42.074   0.893
48941W        W22009  43.780  14.777  10.578
48942W        W22010   0.234  34.690  10.748
48943W        W22011   0.476  35.072  11.860
48944W        W22012  34.949  12.773   0.474
48945W        W22013   5.457  18.070   4.294
48946W        W22014  19.132   8.235  10.662
48947W        W22015  30.012  29.217   1.868
48948W        W22016  40.034  32.579   3.144
48949W        W22017  13.051  43.871   0.182
48950W        W22018  21.202   8.807  14.487
48951W        W22019  36.976  22.856  13.978
48952W        W22020  14.063  24.559   0.078
48953W        W22021   6.852  40.995   1.159
48954W        W22022  43.436  34.597   2.078
48955W        W22023  40.097  42.975   2.202
48956W        W22024  17.101  24.584   4.849
48957W        W22025  37.591   5.906  14.426
48958W        W22026  20.327  29.299  13.410
48959W        W22027  44.009   0.313  13.943
48960W        W22028   2.159  23.751  14.031
48961W        W22029   8.945  18.317   4.974
48962W        W22030  27.629  35.746  12.016
48963W        W22031   8.286  15.215  11.768
48964W        W22032  22.571   1.763  14.866
48965W        W22033   2.796  10.269  13.438
48966W        W22034   2.912  43.522   3.177
48967W        W22035  33.298   5.969  13.306
48968W        W22036  33.094   3.063  13.039
48969W        W22037  25.497  32.890  12.056
48970W        W22038  44.129   3.558  14.512
48971W        W22039  12.205  10.821   1.190
48972W        W22040  17.683  31.632   4.623
48973W        W22041  18.653  19.535  13.406
48974W        W22042  21.995  34.162  11.115
48975W        W22043  18.527  38.053   1.109
48976W        W22044  36.991  40.274   2.859
48977W        W22045   9.332  10.179  12.399
48978W        W22046   6.424  27.703  13.005
48979W        W22047  44.574  43.663  13.947
48980W        W22048   4.694  27.954   1.290
48981W        W22049  22.636  15.506   3.278
48982W        W22050  28.222  20.215   0.430
48983W        W22051  29.455   5.805  14.756
48984W        W22052   6.460   8.303   3.220
48985W        W22053  39.569   6.659  10.178
48986W        W22054  38.474   3.996  12.936
48987W        W22055  16.438  41.242   1.241
48988W        W22056  37.429  21.328  13.215
48989W        W22057  33.050  36.418  10.558
48990W        W22058  33.520  25.180   3.865
48991W        W22059  39.328  39.328  11.285
48992W        W22060  19.695   2.293   2.803
48993W        W22061   3.828   8.384   2.366
48994W        W22062   4.464  23.060   3.597
48995W        W22063  30.149  21.420   1.069
48996W        W22064  42.829   6.130   4.162
48997W        W22065   6.418  33.152  13.423
48998W        W22066   9.146  36.274   2.918
48999W        W22067  41.251  38.957  14.897
49000W        W22068  22.491   5.309  12.877
49001W        W22069  41.902  30.235   2.042
49002W        W22070  29.494  15.607  10.998
49003W        W22071   5.228  11.639  14.746
49004W        W22072  25.527   4.005  14.021
49005W        W22073  21.934  44.371  11.023
49006W        W22074   5.199   5.948   3.449
49007W        W22075  20.121  11.171   4.948
49008W        W22076  43.829  29.625   0.910
49009W        W22077  37.331  22.062   2.954
49010W        W22078  16.640  27.894   0.974
49011W        W22079  26.928  34.897   3.867
49012W        W22080   4.848  13.127   1.328
49013W        W22081  33.432  32.800  13.303
49014W        W22082  27.217  40.894   2.285
49015W        W22083  44.801  19.157   3.845
49016W        W22084  30.619  26.667  11.970
49017W        W22085  33.383   2.417   0.461
49018W        W22086  32.983  17.688  13.511
49019W        W22087   7.788  14.106   0.029
49020W        W22088   3.984   0.995   2.793
49021W        W22089  31.081  42.754  13.332
49022W        W22090  33.873  24.136  13.046
49023W        W22091  15.641   7.100  13.335
49024W        W22092  37.874  24.059  14.781
49025W        W22093   3.286  32.095  13.546
49026W        W22094  28.707  32.911  13.495
49027W        W22095  43.801  22.205  12.463
49028W        W22096  13.373  22.109   4.455
49029W        W22097  44.750  13.296   0.775
49030W        W22098   6.272  38.765  12.366
49031W        W22099   2.397  44.904   1.182
49032W        W22100  17.698  13.562  12.737
49033W        W22101  29.966  40.317  12.339
49034W        W22102   2.356  11.954  14.369
49035W        W22103  21.969   9.666   0.400
49036W        W22104  44.822  41.917   2.337
49037W        W22105  42.910  16.352   4.341
49038W        W22106  12.846  42.762  13.970
49039W        W22107   5.144  28.982  12.351
49040W        W22108  35.115  13.666   3.192
49041W        W22109  19.462  16.224  12.572
49042W        W22110  18.972  29.907  14.818
49043W        W22111  18.162   6.365   3.693
49044W        W22112  17.179  34.314  13.908
49045W        W22113  13.480  14.212  14.593
49046W        W22114   8.623  18.787  11.589
49047W        W22115  12.739  31.880  14.427
49048W        W22116  17.743  33.813   0.507
49049W        W22117  11.373  41.134   1.795
49050W        W22118  41.931  10.710   2.825
49051W        W22119  37.357  20.772   1.373
49052W        W22120   3.002  18.939   2.737
49053W        W22121   2.396  39.828  10.917
49054W        W22122  35.955   3.469  10.672
49055W        W22123  32.347  18.533   4.213
49056W        W22124   8.875  35.965   4.354
49057W        W22125   4.676  11.245  12.360
49058W        W22126  40.317  39.997  13.857
49059W        W22127  38.527  13.566   1.664
49060W        W22128  15.333  12.526   1.226
49061W        W22129  20.099  34.420  11.328
49062W        W22130   0.882  33.363   2.380
49063W        W22131  34.981  43.496  13.465
49064W        W22132  23.673  42.251  12.380
49065W        W22133   7.452   2.268   4.673
49066W        W22134  22.483  29.197   0.296
49067W        W22135   2.175  21.725   4.177
49068W        W22136  35.901  40.998  11.645
49069W        W22137   8.746  40.015  14.369
49070W        W22138   4.235  28.131  14.061
49071W        W22139  30.309  40.467   5.022
49072W        W22140  11.262  10.462  13.053
49073W        W22141  19.892  38.308  14.139
49074W        W22142  20.926  37.538   1.871
49075W        W22143   3.391  10.142  14.401
49076W        W22144  13.770  39.031   3.204
49077W        W22145   7.292  25.927   2.349
49078W        W22146  16.150  11.138  11.084
49079W        W22147  34.829  25.804   2.224
49080W        W22148  26.897  19.047  11.579
49081W        W22149  44.872   6.474  11.636
49082W        W22150  21.067  40.314   4.971
49083W        W22151  39.362  27.399   3.757
49084W        W22152  38.586  22.799  11.718
49085W        W22153   2.964  35.841   0.726
49086W        W22154  34.613  23.190  14.555
49087W        W22155  37.746   7.688  11.498
49088W        W22156  18.217   9.906  10.439
49089W        W22157  16.678  38.628  14.987
49090W        W22158  31.340  31.289   3.539
49091W        W22159  29.343  13.136   1.675
49092W        W22160  31.002  25.792  10.924
49093W        W22161  13.869  30.908   3.329
49094W        W22162  36.896  32.629   1.233
49095W        W22163   2.898   5.455  10.635
49096W        W22164  29.201  42.406   2.626
49097W        W22165   0.013   7.581   0.919
49098W        W22166  38.706  15.693  10.631
49099W        W22167  39.967  39.355  12.684
49100W        W22168  26.965   4.028   4.123
49101W        W22169  22.982  24.625  11.233
49102W        W22170  22.027  32.049  14.314
49103W        W22171  37.558  20.035   4.485
49104W        W22172   3.838  21.321   1.138
49105W        W22173  44.555  14.846   4.232
49106W        W22174   1.674  31.946   0.179
49107W        W22175   1.165  35.008   3.657
49108W        W22176  28.110  35.041  10.967
49109W        W22177  24.803  36.404  14.230
49110W        W22178  40.226   7.246   3.856
49111W        W22179  30.946  21.592  11.742
49112W        W22180  29.184  35.124   2.255
49113W        W22181  18.543  39.861   1.417
49114W        W22182  33.181  30.998   0.033
49115W        W22183   6.722  18.101  10.662
49116W        W22184   6.858   0.373   1.815
49117W        W22185  12.768   8.635   1.192
49118W        W22186  43.081  27.630  11.281
49119W        W22187  19.809  42.044   4.537
49120W        W22188  40.880  31.719   2.567
49121W        W22189  28.533  36.690   2.778
49122W        W22190  15.552  31.133  10.646
49123W        W22191  25.442  41.753   2.917
49124W        W22192   0.777  17.138   1.784
49125W        W22193  10.728  39.435   0.974
49126W        W22194  15.647  22.027  14.401
49127W        W22195  34.790   8.398  14.014
49128W        W22196  37.979  20.136  11.504
49129W        W22197   3.288   8.927  12.418
49130W        W22198  42.310   8.738  10.664
49131W        W22199   6.250   3.794   0.430
49132W        W22200   0.495  44.976  12.355
49133W        W22201  25.749  23.829  14.868
49134W        W22202   4.821  27.046  13.950
49135W        W22203  30.580  31.038   2.345
49136W        W22204  20.261   2.477   0.997
49137W        W22205  38.418  25.973  10.774
49138W        W22206  30.027  29.680   4.234
49139W        W22207  19.373  23.331   0.259
49140W        W22208  44.221  38.940   5.033
49141W        W22209   8.823   6.380  11.248
49142W        W22210  33.861  20.040  11.344
49143W        W22211  20.809  33.373   4.490
49144W        W22212  21.281  34.242   4.449
49145W        W22213  20.998  44.339   1.943
49146W        W22214  23.222  34.164   4.622
49147W        W22215  25.235  17.122   4.594
49148W        W22216  20.129  20.472   3.743
49149W        W22217   1.733  15.746  10.206
49150W        W22218  35.906  30.630   5.150
49151W        W22219  38.664  26.123  12.139
49152W        W22220  17.585  21.988   1.821
49153W        W22221  12.489   6.272   4.038
49154W        W22222   4.985  36.103  12.941
49155W        W22223  11.842   9.089   1.439
49156W        W22224  32.903  22.294  12.306
49157W        W22225  16.298  23.696  14.560
49158W        W22226  19.091  11.430  10.957
49159W        W22227   4.338  41.532   1.511
49160W        W22228  31.661  31.939   3.868
49161W        W22229  42.232  40.556  12.908
49162W        W22230  28.922  13.717  10.769
49163W        W22231  30.011  37.406   3.333
49164W        W22232  39.076  37.942   1.731
49165W        W22233  20.281  31.044  13.678
49166W        W22234   6.206  29.594   1.736
49167W        W22235  44.053  24.082  10.767
49168W        W22236  13.162  38.140  11.698
49169W        W22237  24.403   0.868   3.824
49170W        W22238  38.632   5.880   1.425
49171W        W22239  39.071  44.405   4.187
49172W        W22240  18.792  32.954   1.769
49173W        W22241  25.430  27.678  11.325
49174W        W22242  10.712   9.844  13.895
49175W        W22243   9.440  43.919   3.437
49176W        W22244  27.220   9.454   0.205
49177W        W22245  16.018  33.084   0.097
49178W        W22246   6.504  17.714   0.290
49179W        W22247  22.171  18.677  14.770
49180W        W22248  35.564  37.182  13.562
49181W        W22249  30.693   4.508  11.153
49182W        W22250   5.394  22.190  14.355
49183W        W22251  37.474  16.845   2.316
49184W        W22252  36.887   3.654   3.723
49185W        W22253  23.718   1.419   0.850
49186W        W22254  10.172  41.921   0.867
49187W        W22255  36.380  36.386   1.335
49188W        W22256  24.077  40.391  13.050
49189W        W22257  33.088  40.023  14.463
49190W        W22258  23.037  11.840  12.921
49191W        W22259  28.128   0.047  11.148
49192W        W22260  15.286  25.718  14.758
49193W        W22261  25.601  19.813   3.003
49194W        W22262  15.977   7.059  13.764
49195W        W22263   3.641  33.899  13.376
49196W        W22264  27.597  24.498  14.318
49197W        W22265   0.892   7.609   4.595
49198W        W22266  43.690  22.509   2.796
49199W        W22267  14.178  17.053   1.192
49200W        W22268  42.201  10.602  11.022
49201W        W22269  43.304  33.468   2.500
49202W        W22270  42.200  11.604   2.260
49203W        W22271  19.372  30.012  13.871
49204W        W22272  28.649  41.811  12.485
49205W        W22273   6.499   2.950   3.200
49206W        W22274  14.776  41.408  14.805
49207W        W22275  29.797   3.031  14.543
49208W        W22276  34.004  10.953   4.048
49209W        W22277  28.669  38.453  11.585
49210W        W22278  17.554   2.905  14.446
49211W        W22279  41.464  36.957  10.705
49212W        W22280   2.196  15.357  14.926
49213W        W22281  19.495  30.662  13.610
49214W        W22282   9.332  38.948  10.804
49215W        W22283   5.265  28.857  12.836
49216W        W22284  37.016   7.754   4.687
49217W        W22285  38.846  15.858  12.458
49218W        W22286  31.336  19.317   3.305
49219W        W22287  22.972  21.325  13.267
49220W        W22288  42.380  18.799  12.043
49221W        W22289  35.602  40.411   4.426
49222W        W22290  27.728  38.959  13.333
49223W        W22291   9.581  22.618  11.448
49224W        W22292  13.857  16.123   3.258
49225W        W22293   4.156  23.529   4.724
49226W        W22294  19.762  30.291  10.568
49227W        W22295  34.063  17.251   0.378
49228W        W22296  41.381  13.560   9.999
49229W        W22297   8.238  35.557   3.353
49230W        W22298  16.403  23.172  12.956
49231W        W22299   6.513  41.007   3.355
49232W        W22300  43.416  23.260   1.280
49233W        W22301  32.718  19.715   2.839
49234W        W22302   5.935   1.127  11.205
49235W        W22303  42.324   2.702   3.063
49236W        W22304  18.048  37.392   3.508
49237W        W22305  35.960  38.446  14.239
49238W        W22306  17.008   4.418  11.735
49239W        W22307   9.646  12.728  12.805
49240W        W22308  39.345   2.947   3.477
49241W        W22309   3.770  22.625  12.808
49242W        W22310  19.296  43.787   3.400
49243W        W22311   4.887   6.374  14.952
49244W        W22312  31.705  19.456   1.845
49245W        W22313   4.438  42.654   1.523
49246W        W22314  21.520  29.405   1.277
49247W        W22315  24.391  10.661  12.846
49248W        W22316  33.472  13.830  14.810
49249W        W22317  41.921  16.069   3.949
49250W        W22318  10.393  31.089  13.381
49251W        W22319  39.739   1.208   1.450
49252W        W22320   7.257   6.822  14.359
49253W        W22321  10.975  22.426  10.956
49254W        W22322  20.954  27.985  14.483
49255W        W22323  30.313  19.163   4.846
49256W        W22324   9.714  24.482   1.828
49257W        W22325  39.409  41.297  13.997
49258W        W22326   9.202  12.168  14.417
49259W        W22327  16.354   0.369  12.972
49260W        W22328  42.540  32.367  10.526
49261W        W22329  25.150   2.716  14.010
49262W        W22330  19.180   3.910   1.404
49263W        W22331   2.055  40.460  13.532
49264W        W22332   8.858  25.489   0.489
49265W        W22333  26.428  39.851  11.620
49266W        W22334  22.551  37.579   2.438
49267W        W22335  40.881  32.549  12.323
49268W        W22336  31.422  16.796   0.004
49269W        W22337  42.943  29.995   0.925
49270W        W22338  16.752  38.424   2.821
49271W        W22339  36.834  27.562   3.940
49272W        W22340  31.074   4.217  13.098
49273W        W22341  24.689  16.053   3.903
49274W        W22342   3.981  37.136  14.762
49275W        W22343  36.558  29.383  10.799
49276W        W22344  38.628   2.406  14.197
49277W        W22345  11.186  43.844  10.375
49278W        W22346  12.703  31.022   0.351
49279W        W22347  43.023  22.985   4.117
49280W        W22348  35.963   0.138  10.772
49281W        W22349  17.559  13.771   3.944
49282W        W22350   5.198  25.526   3.919
49283W        W22351  13.601  13.757  13.004
49284W        W22352  36.995  18.202  10.917
49285W        W22353  10.784  18.657   3.311
49286W        W22354  27.009   5.657   0.973
49287W        W22355  37.359  38.276   0.750
49288W        W22356   2.351  16.079  10.414
49289W        W22357  12.417  40.169  13.062
49290W        W22358  24.006  35.332  13.374
49291W        W22359   6.507  11.320  11.774
49292W        W22360  29.616  14.088  10.348
49293W        W22361   8.448  18.695   2.654
49294W        W22362  21.008  23.688   1.712
49295W        W22363  22.996   0.749  10.123
49296W        W22364  39.051  25.576   2.679
49297W        W22365  19.497   5.169   2.785
49298W        W22366  36.109   2.139   1.912
49299W        W22367  28.936  27.068   2.650
49300W        W22368  15.086   6.730   0.286
49301W        W22369  27.179  27.753   3.185
49302W        W22370  43.800  36.339   2.650
49303W        W22371   6.146  30.218  12.895
49304W        W22372  28.839  44.373  14.748
49305W        W22373  39.859  30.165   3.693
49306W        W22374   3.439  10.809   3.169
49307W        W22375  39.742   5.930  13.820
49308W        W22376  29.240  22.298  14.924
49309W        W22377  39.786  29.824   2.851
49310W        W22378   0.757   0.874  14.898
49311W        W22379  26.205  16.488  13.030
49312W        W22380  39.833  12.994  13.963
49313W        W22381  21.695  15.168  14.997
49314W        W22382  40.365   3.823   4.846
49315W        W22383  35.313  13.574   0.292
49316W        W22384  12.748  41.248   0.230
49317W        W22385  15.312  15.827   4.014
49318W        W22386   4.547   1.484  14.817
49319W        W22387  25.511  20.119   3.917
49320W        W22388   7.588  24.435   1.836
49321W        W22389  32.065  43.772  12.146
49322W        W22390  31.208  36.524  11.331
49323W        W22391  26.702   4.008   0.523
49324W        W22392  18.857  17.760  13.810
49325W        W22393   8.674  18.291   4.544
49326W        W22394  21.496  17.584   1.734
49327W        W22395  25.753   7.814   1.999
49328W        W22396  23.408  15.038  13.507
49329W        W22397  17.836   6.204  14.830
49330W        W22398  20.537  43.432  14.426
49331W        W22399  23.256  11.653  14.292
49332W        W22400  39.531   4.892   0.824
49333W        W22401  22.251  25.162   0.386
49334W        W22402  17.178  33.467   1.313
49335W        W22403   7.213  30.186   3.619
49336W        W22404  35.440  31.696  14.324
49337W        W22405  28.995   6.925  10.738
49338W        W22406   1.463   3.917  11.551
49339W        W22407   6.139  33.419   1.839
49340W        W22408   4.829   8.187  10.527
49341W        W22409  33.355   6.406   3.625
49342W        W22410  20.115  29.826  12.051
49343W        W22411  30.360  40.095   4.055
49344W        W22412  13.694   9.753  13.340
49345W        W22413  44.280  27.964  10.932
49346W        W22414  18.166  41.738   0.331
49347W        W22415   6.646  13.938  11.263
49348W        W22416   1.748  36.279   0.269
49349W        W22417  18.582   2.921  14.300
49350W        W22418   5.694   5.417   1.334
49351W        W22419   8.424  22.396  12.776
49352W        W22420  20.789  42.776  14.696
49353W        W22421  39.286   9.817   4.844
49354W        W22422   0.207  10.157  12.491
49355W        W22423  26.295   1.228  14.380
49356W        W22424  34.637  22.563   3.055
49357W        W22425   6.845  25.796  13.879
49358W        W22426  37.618  43.260  14.180
49359W        W22427  24.257  24.603  11.724
49360W        W22428  13.983  16.778  10.365
49361W        W22429  29.417  32.383   3.061
49362W        W22430  21.383  22.187  14.459
49363W        W22431   2.770  17.456   3.008
49364W        W22432  17.494  15.221   2.739
49365W        W22433   5.589  15.297  11.293
49366W        W22434  36.434  34.306   2.415
49367W        W22435  23.123   2.751   3.155
49368W        W22436  41.332  34.863   1.799
49369W        W22437  42.031  11.270  12.502
49370W        W22438   6.749  19.140  11.416
49371W        W22439   6.607  39.576   1.871
49372W        W22440  30.413  28.597   4.776
49373W        W22441  26.300   3.414   2.764
49374W        W22442   2.821  18.547  13.407
49375W        W22443  24.259   7.672  14.497
49376W        W22444  39.837  18.636   4.320
49377W        W22445  28.067  39.048  14.258
49378W        W22446   2.981  33.945   2.916
49379W        W22447  19.679  43.500   5.092
49380W        W22448  18.736   7.930   1.840
49381W        W22449  17.328  11.696   0.786
49382W        W22450  24.156  15.908  13.902
49383W        W22451   9.744   3.419   1.566
49384W        W22452  13.263  20.785   1.308
49385W        W22453  38.916  21.983   1.450
49386W        W22454  34.478  14.878  14.415
49387W        W22455   6.413  25.659   3.346
49388W        W22456  11.698  39.465   2.107
49389W        W22457  24.832  42.753  13.315
49390W        W22458  22.770   7.163   2.134
49391W        W22459  41.487  11.877   1.784
49392W        W22460  31.017  16.187   2.939
49393W        W22461  18.498  13.162  10.598
49394W        W22462  44.993  44.760  14.618
49395W        W22463   0.544  31.102   0.332
49396W        W22464  28.123  16.972  11.254
49397W        W22465  43.046  42.295   4.220
49398W        W22466   4.922  37.928  11.215
49399W        W22467  38.336  17.278  10.748
49400W        W22468  20.047  42.646   3.726
49401W        W22469  11.793  13.380   0.820
49402W        W22470  19.520  11.484  12.401
49403W        W22471   0.518  35.977  11.374
49404W        W22472   8.840  30.231   0.788
49405W        W22473   9.877   6.181  11.046
49406W        W22474  13.889  39.353   1.394
49407W        W22475  24.218  39.653   2.233
49408W        W22476  43.779  43.496   3.258
49409W        W22477  38.998   8.838  13.492
49410W        W22478  43.149  16.942   3.680
49411W        W22479  37.958  13.312   2.395
49412W        W22480  30.748   7.881   0.835
49413W        W22481  30.668  31.071   0.805
49414W        W22482  43.841  18.223   4.551
49415W        W22483  32.601  38.586  11.044
49416W        W22484  21.733  31.036   4.628
49417W        W22485  42.307  14.597   2.762
49418W        W22486  37.400  35.115   0.276
49419W        W22487  23.049  25.029  13.530
49420W        W22488  19.087  19.200  13.953
49421W        W22489   4.809  28.526   2.863
49422W        W22490  36.388  16.046   1.463
49423W        W22491  25.714  35.416   3.264
49424W        W22492  35.657   4.312  11.133
49425W        W22493  41.322  26.190  10.613
49426W        W22494  14.778  11.021   0.759
49427W        W22495  15.277  14.354   0.671
49428W        W22496   8.079  31.021  13.024
49429W        W22497  24.169  16.414  12.987
49430W        W22498   8.148   0.512   4.372
49431W        W22499   8.107  14.075   1.263
49432W        W22500  23.242  41.480   2.742
49433W        W22501  13.088  44.295   3.552
49434W        W22502   6.619  35.582  11.095
49435W        W22503  44.808  13.853   4.447
49436W        W22504  23.880  36.515  13.828
49437W        W22505  10.416  11.977  14.590
49438W        W22506  19.585  13.454  14.400
49439W        W22507  25.245  36.476   2.874
49440W        W22508  19.190  17.658   2.447
49441W        W22509  17.791  16.716   3.554
49442W        W22510  27.411  12.135   3.110
49443W        W22511  17.680  37.796   2.778
49444W        W22512  25.988  20.567   3.895
49445W        W22513  15.097   1.928   3.307
49446W        W22514  10.766  14.517  11.626
49447W        W22515  23.153  29.956  12.488
49448W        W22516  11.109   7.796   4.691
49449W        W22517  31.597  15.029   3.081
49450W        W22518  27.214  10.560  14.337
49451W        W22519  36.038  32.656  13.066
49452W        W22520  29.178   3.797   4.206
49453W        W22521  11.776  36.320  11.465
49454W        W22522  28.628  28.159   0.895
49455W        W22523   7.320   8.345  12.542
49456W        W22524  37.908   2.770  13.617
49457W        W22525  33.735  34.987   0.259
49458W        W22526  11.302  32.184  12.488
49459W        W22527  30.823  33.918  12.901
49460W        W22528   5.785   9.050  12.702
49461W        W22529  34.662  25.586  12.962
49462W        W22530  17.839  25.470  11.939
49463W        W22531  43.848  36.431   3.179
49464W        W22532  26.046  43.426  10.550
49465W        W22533  36.918  13.784  10.922
49466W        W22534   0.319   1.519   0.247
49467W        W22535   0.371  40.510   0.870
49468W        W22536  19.802   7.350   0.007
49469W        W22537  33.179  19.792   1.221
49470W        W22538  24.234   4.106   3.566
49471W        W22539  32.892   9.149  12.055
49472W        W22540  22.102  20.000  11.873
49473W        W22541  40.444  42.563   2.095
49474W        W22542   4.974  19.603  13.355
49475W        W22543  38.209  29.920  13.147
49476W        W22544  17.025   7.664  14.325
49477W        W22545  38.652  38.293   3.290
49478W        W22546  22.139   6.682   0.458
49479W        W22547  36.069  40.269   2.899
49480W        W22548   5.825  14.709  12.764
49481W        W22549   9.150  15.291   2.014
49482W        W22550   8.197  39.100  10.707
49483W        W22551  40.528  34.038  10.641
49484W        W22552  38.591  19.889  14.383
49485W        W22553  12.555  34.135  10.617
49486W        W22554  14.316   1.817  14.609
49487W        W22555  33.356  44.817   1.916
49488W        W22556  37.656  14.013  11.513
49489W        W22557  40.424  32.353  14.454
49490W        W22558  13.200  44.971  13.545
49491W        W22559  18.508  25.546   4.395
49492W        W22560  29.430  10.324   3.709
49493W        W22561  35.364  39.390  12.115
49494W        W22562  27.242  40.059   4.104
49495W        W22563   9.815  31.363   0.292
49496W        W22564  36.251  32.044  13.693
49497W        W22565  10.793  38.739   0.908
49498W        W22566  13.713  28.578   3.296
49499W        W22567  41.502  28.504  10.799
49500W        W22568  21.072  21.617  12.353
49501W        W22569  35.459   0.208  13.954
49502W        W22570  19.577   4.655   2.858
49503W        W22571  39.470  33.566   2.941
49504W        W22572  39.889  35.866  10.697
49505W        W22573  40.874   2.826  11.207
49506W        W22574   1.820  17.339   3.291
49507W        W22575  12.765  27.655  12.498
49508W        W22576  27.157  24.770  14.285
49509W        W22577  42.780  27.215  11.080
49510W        W22578   5.421  39.007   9.928
49511W        W22579  24.219  28.125   9.876
49512W        W22580  26.163  34.022  11.557
49513W        W22581  19.035  25.271  12.069
49514W        W22582  32.637  17.734  12.896
49515W        W22583  34.633  40.316  11.629
49516W        W22584  26.817  18.661   3.683
49517W        W22585  20.473  40.175   0.313
49518W        W22586  10.281  14.111   1.948
49519W        W22587  27.159  35.844  13.820
49520W        W22588  16.787  44.803  12.039
49521W        W22589  32.666  37.913   0.262
49522W        W22590  27.132  12.162   4.133
49523W        W22591  40.817  42.923   3.733
49524W        W22592  11.272   0.882  12.120
49525W        W22593  25.651   7.254   0.947
49526W        W22594  28.004  26.003   1.173
49527W        W22595  42.936  27.463   1.229
49528W        W22596  42.191  16.653   1.624
49529W        W22597  27.946  30.080   3.894
49530W        W22598  14.341   6.962   4.188
49531W        W22599   4.224  15.030   0.461
49532W        W22600   5.895  11.200  12.917
49533W        W22601  29.858  13.097  11.345
49534W        W22602  12.054  33.106   4.189
49535W        W22603  12.825  17.421   3.219
49536W        W22604  13.389  12.037   2.297
49537W        W22605  24.076  16.341  10.202
49538W        W22606  23.929   3.380  11.183
49539W        W22607  11.184   6.611   2.670
49540W        W22608  33.510  16.066   1.317
49541W        W22609  16.273  29.586   1.643
49542W        W22610  25.995   6.554  12.437
49543W        W22611  28.126  19.590   2.199
49544W        W22612  44.443  42.968   0.987
49545W        W22613   8.283  43.796   0.063
49546W        W22614   9.162  42.415  10.926
49547W        W22615  16.525   8.094  12.054
49548W        W22616  26.115  11.073   3.304
49549W        W22617  13.676  39.795  10.621
49550W        W22618   6.814  43.932   1.320
49551W        W22619  11.616  33.914   0.055
49552W        W22620  43.018   7.380   3.652
49553W        W22621  43.380  22.369   4.115
49554W        W22622  34.339  18.605   2.135
49555W        W22623  35.468  20.567  14.829
49556W        W22624  16.181  15.154   1.941
49557W        W22625  28.515  30.549  10.640
49558W        W22626  19.519  13.504   1.707
49559W        W22627  13.626  11.283   4.759
49560W        W22628   9.222  29.473  14.331
49561W        W22629  39.397   9.867  13.102
49562W        W22630  19.803  15.316  14.038
49563W        W22631  15.691  20.080   4.036
49564W        W22632  25.976  33.183   4.914
49565W        W22633  17.551  36.120   1.682
49566W        W22634  26.972  43.097  14.260
49567W        W22635  44.386  23.741  12.539
49568W        W22636  28.482  34.350   2.294
49569W        W22637  27.345  35.412  14.846
49570W        W22638  32.950  43.346  10.838
49571W        W22639  43.344  14.199   2.211
49572W        W22640  36.199  44.409  12.907
49573W        W22641   9.548   5.897   3.985
49574W        W22642  34.443  27.897  10.664
49575W        W22643   1.336   2.395  10.618
49576W        W22644  11.029  19.147   2.931
49577W        W22645  26.883  11.233   2.288
49578W        W22646  22.265  28.074   3.359
49579W        W22647  21.470  30.711   3.903
49580W        W22648  42.427  22.815  10.577
49581W        W22649  39.921   5.659  12.046
49582W        W22650   2.844  17.110  14.908
49583W        W22651  23.165   1.459  12.530
49584W        W22652   8.632  10.169  14.200
49585W        W22653   8.392  41.247   4.431
49586W        W22654  26.731  24.186  14.805
49587W        W22655   1.908  25.063  11.389
49588W        W22656  34.358  30.114  12.488
49589W        W22657   9.773  30.576  13.830
49590W        W22658  25.827  18.344   3.545
49591W        W22659  10.649  24.725   3.414
49592W        W22660  25.607   4.678   1.333
49593W        W22661  23.211  31.592   2.216
49594W        W22662  24.102  14.328   5.082
49595W        W22663  25.215  40.954  14.941
49596W        W22664  26.259  37.617  14.463
49597W        W22665   9.356   2.915  12.512
49598W        W22666   7.571  18.795   1.264
49599W        W22667  26.998  27.152   0.009
49600W        W22668  30.880  15.655  14.673
49601W        W22669  41.276  39.923   1.874
49602W        W22670  41.980  43.823  12.310
49603W        W22671  44.223  21.943  10.773
49604W        W22672  20.531   0.237  12.129
49605W        W22673  34.321  20.718  13.926
49606W        W22674  24.653  20.438  11.123
49607W        W22675  13.187  11.174  12.544
49608W        W22676  10.342   5.305   2.949
49609W        W22677  24.045   2.825  10.538
49610W        W22678  25.153  43.264   3.260
49611W        W22679  17.404  35.339  10.472
49612W        W22680  26.589  31.389   4.837
49613W        W22681  33.047  37.044  14.478
49614W        W22682  36.583   4.748  12.435
49615W        W22683  33.392   5.067  13.974
49616W        W22684  15.352  14.250   4.641
49617W        W22685  35.903  15.642  14.837
49618W        W22686  22.067  13.161  11.978
49619W        W22687  20.350  30.036   4.173
49620W        W22688  42.944  11.271  12.883
49621W        W22689  43.413  40.304  12.484
49622W        W22690  19.157  13.435  13.903
49623W        W22691  31.944   4.061   2.621
49624W        W22692  24.952  15.783  11.564
49625W        W22693  37.786  16.046  11.025
49626W        W22694  22.388  40.553   0.756
49627W        W22695  35.264  16.193   0.907
49628W        W22696  18.310  33.933   3.591
49629W        W22697  33.495   1.820  13.457
49630W        W22698  33.063  18.572   3.697
49631W        W22699  13.097  19.006   2.753
49632W        W22700  17.222  13.262   0.002
49633W        W22701   5.435   4.225  10.615
49634W        W22702  19.137  10.184   3.468
49635W        W22703   7.739  32.880  12.403
49636W        W22704  40.557   0.930  11.126
49637W        W22705  32.438   4.131   0.842
49638W        W22706   1.398  35.609  12.207
49639W        W22707  42.979  26.647   3.562
49640W        W22708  21.504  10.613  11.429
49641W        W22709  20.533  19.793  10.638
49642W        W22710  26.569  37.589   1.229
49643W        W22711  18.568  41.325  12.662
49644W        W22712  32.238  14.108   4.588
49645W        W22713  25.749   7.571  13.994
49646W        W22714  27.074   1.624   0.520
49647W        W22715   6.758  15.395  12.921
49648W        W22716  24.549  14.710   4.713
49649W        W22717  11.408  19.019   3.282
49650W        W22718  41.582   6.106  13.808
49651W        W22719  27.244  19.269   3.201
49652W        W22720  25.583  20.755   4.158
49653W        W22721  23.908  39.356  13.815
49654W        W22722  36.628   9.810   3.703
49655W        W22723  41.426  34.523  13.939
49656W        W22724  33.708   5.431  13.796
49657W        W22725  40.944  23.188   0.419
49658W        W22726  16.163  42.272  12.400
49659W        W22727   4.823   0.783  12.450
49660W        W22728   1.869  21.035   4.650
49661W        W22729  20.671  43.237  13.955
49662W        W22730  11.801  18.746  11.489
49663W        W22731  17.142  33.357  11.246
49664W        W22732  44.424   3.528  13.065
49665W        W22733   6.227  28.924   2.382
49666W        W22734  17.366   3.794  12.466
49667W        W22735  39.028  11.336   1.813
49668W        W22736  16.009   3.487   0.428
49669W        W22737  44.838   9.371   4.539
49670W        W22738  14.571  22.206  13.282
49671W        W22739   3.320  26.334  13.508
49672W        W22740  17.630   9.712  13.804
49673W        W22741  43.061  13.965   5.145
49674W        W22742  11.061   5.340   0.382
49675W        W22743   2.326  18.783   1.349
49676W        W22744  11.575  16.228  12.560
49677W        W22745  23.313   6.373   4.763
49678W        W22746  23.174  19.702   3.929
49679W        W22747  31.162  39.461   4.640
49680W        W22748  22.153  34.180   0.754
49681W        W22749  28.498  40.535   2.936
49682W        W22750  37.926  23.901  13.884
49683W        W22751  43.089  12.618  14.043
49684W        W22752  32.576  41.982   2.332
49685W        W22753  25.271  39.301   1.770
49686W        W22754  44.707  16.710   1.370
49687W        W22755  30.582   8.353  10.740
49688W        W22756  24.105  23.167   0.445
49689W        W22757  42.830  40.139   2.336
49690W        W22758  44.150  13.327  11.138
49691W        W22759  41.007  22.289  12.087
49692W        W22760  32.477  38.627  12.063
49693W        W22761  34.519  32.859   3.268
49694W        W22762  16.832   9.202  14.996
49695W        W22763  24.980   7.826  13.258
49696W        W22764   0.390   4.036  12.446
49697W        W22765  25.537   9.769   0.471
49698W        W22766  24.224   9.250   0.079
49699W        W22767  37.895  31.555   1.170
49700W        W22768  39.486  24.254  12.505
49701W        W22769   6.566   1.999   2.347
49702W        W22770  42.060  11.187   4.593
49703W        W22771  13.934  17.374   2.767
49704W        W22772  20.152   9.591  14.035
49705W        W22773  22.734  26.023  11.137
49706W        W22774  16.047  41.723   2.857
49707W        W22775  11.130  18.319  13.789
49708W        W22776  30.035   9.605   4.565
49709W        W22777  11.355  39.826  11.604
49710W        W22778   8.580  37.752   3.806
49711W        W22779  25.502  16.652   4.732
49712W        W22780  15.089  20.745   0.800
49713W        W22781  22.160  39.251  14.405
49714W        W22782  38.515  16.666   0.514
49715W        W22783  11.736  44.881  11.248
49716W        W22784  41.460  44.957  14.036
49717W        W22785  16.525  10.795  10.629
49718W        W22786  24.213   1.900  14.303
49719W        W22787   6.433  15.985  10.776
49720W        W22788  21.989  34.887  12.414
49721W        W22789  11.945   3.389  13.760
49722W        W22790  33.101   2.436  14.379
49723W        W22791  28.039  35.875  11.131
49724W        W22792  32.559  33.839  11.841
49725W        W22793  40.478  16.517  14.376
49726W        W22794   6.295  34.074   0.790
49727W        W22795   4.639   6.819   3.749
49728W        W22796   4.307   2.076  13.414
49729W        W22797   0.034  37.384   1.688
49730W        W22798  44.819  40.835   0.298
49731W        W22799  29.084  34.968  11.435
49732W        W22800   5.874   9.392   2.315
49733W        W22801   8.119  20.237   0.550
49734W        W22802   6.936  27.260   2.618
49735W        W22803  28.557   5.956  14.365
49736W        W22804   8.266  24.430  14.706
49737W        W22805  13.796  24.911  11.567
49738W        W22806  11.785  30.703  12.543
49739W        W22807  36.518  14.374   0.018
49740W        W22808  38.677  43.047   0.965
49741W        W22809  15.857  14.997   4.229
49742W        W22810  37.623  14.672   1.931
49743W        W22811   1.281  16.421   4.164
49744W        W22812  16.948  18.722   3.055
49745W        W22813  11.509   9.035   4.154
49746W        W22814  15.797  42.221   0.209
49747W        W22815  44.436  20.667  12.541
49748W        W22816  29.299  29.993  11.588
49749W        W22817  20.093  38.562  11.188
49750W        W22818  44.890  20.452   4.240
49751W        W22819  22.467  12.363  10.522
49752W        W22820  42.377  14.706  10.252
49753W        W22821  20.073   7.787  14.903
49754W        W22822  24.221   5.704  14.811
49755W        W22823  12.030  22.733   1.340
49756W        W22824  40.037   1.078   0.222
49757W        W22825  38.722  40.143   2.807
49758W        W22826  43.186  31.410  13.334
49759W        W22827  44.719  26.064   2.267
49760W        W22828  42.678   2.355   1.415
49761W        W22829  37.452  43.404  12.000
49762W        W22830  29.889  12.737   0.695
49763W        W22831   1.015  25.667   1.424
49764W        W22832  15.997  39.666  11.589
49765W        W22833  38.503  44.916   0.728
49766W        W22834  10.620  35.063   2.335
49767W        W22835  22.943   6.668   3.386
49768W        W22836  19.715  10.676  14.890
49769W        W22837  19.748  30.704   4.288
49770W        W22838  14.941  30.888   2.535
49771W        W22839  14.832  16.556   4.527
49772W        W22840  18.078   6.832  14.621
49773W        W22841  22.714  12.721  14.977
49774W        W22842  32.363  17.207  11.263
49775W        W22843  11.736  22.518   0.361
49776W        W22844  29.693  35.459   2.700
49777W        W22845   0.728  24.692   3.816
49778W        W22846   3.879  36.479  12.440
49779W        W22847  24.992  31.580   4.858
49780W        W22848  21.212   7.146   0.378
49781W        W22849  24.418  10.822  14.749
49782W        W22850   7.855  43.771  13.349
49783W        W22851  29.625  20.974   2.626
49784W        W22852  19.994   8.916  12.392
49785W        W22853   9.751  22.083  10.894
49786W        W22854  31.894   6.408   3.053
49787W        W22855  37.310   1.987   1.808
49788W        W22856  30.129  36.611  11.900
49789W        W22857  23.504  32.070  12.937
49790W        W22858   3.713   2.204  14.341
49791W        W22859  24.461  38.081   2.221
49792W        W22860  14.770  21.900  11.308
49793W        W22861  42.129  14.155  10.202
49794W        W22862  43.370  32.056   4.195
49795W        W22863   4.716  38.698   4.559
49796W        W22864   9.850  23.617  10.500
49797W        W22865  39.256  25.218  12.465
49798W        W22866  39.514  39.200  12.490
49799W        W22867  42.381  14.621  13.174
49800W        W22868  29.790  28.053   4.135
49801W        W22869  27.611  24.013  14.496
49802W        W22870  31.024  33.719  11.657
49803W        W22871  37.791  39.451   3.411
49804W        W22872  16.231  30.091  12.046
49805W        W22873  17.560  18.703   2.194
49806W        W22874  44.194  30.363  13.900
49807W        W22875  38.314  32.407  10.388
49808W        W22876  30.650   3.516   4.433
49809W        W22877   4.692  39.899  13.366
49810W        W22878  26.153  17.620   2.388
49811W        W22879  36.552  37.177  14.907
49812W        W22880  16.675  37.599   3.542
49813W        W22881   6.146  40.533   2.727
49814W        W22882   9.418   5.099   1.208
49815W        W22883  25.515  17.685   1.597
49816W        W22884  22.588  15.788   2.458
49817W        W22885  42.891  38.021  14.588
49818W        W22886  18.499  15.627   4.551
49819W        W22887   6.658   0.766  10.737
49820W        W22888  42.343   9.824   1.785
49821W        W22889  21.119  21.599   1.682
49822W        W22890   2.925  14.842  14.891
49823W        W22891   7.764  12.959  13.727
49824W        W22892  40.915  16.909  11.151
49825W        W22893  12.041  24.803   2.513
49826W        W22894   7.261   6.749   4.219
49827W        W22895   4.202  41.940   1.813
49828W        W22896  32.721  32.153   1.965
49829W        W22897  16.752  38.857  13.752
49830W        W22898   4.175  40.858   2.878
49831W        W22899  27.534  19.412   0.367
49832W        W22900  19.905  20.947  11.148
49833W        W22901  31.179  15.701   2.795
49834W        W22902  18.286  33.076   1.769
49835W        W22903  12.257  22.164  11.372
49836W        W22904  44.458  42.271  11.208
49837W        W22905   6.660  39.059   3.235
49838W        W22906  44.855   0.410   4.240
49839W        W22907  27.831  31.643  12.912
49840W        W22908  26.679  21.272   1.431
49841W        W22909  36.854  44.267   3.725
49842W        W22910   8.916  41.281   0.635
49843W        W22911   8.890  36.264  11.232
49844W        W22912  35.949  33.346  13.972
49845W        W22913   1.784  42.269  13.081
49846W        W22914  17.686  33.334   2.311
49847W        W22915   3.892  43.974  11.096
49848W        W22916  19.742  29.947  13.015
49849W        W22917  16.494   0.858  10.757
49850W        W22918  15.990  35.469   0.826
49851W        W22919  25.693  17.689   2.098
49852W        W22920  41.307  38.452  13.634
49853W        W22921  13.664  44.979  11.568
49854W        W22922   9.909  28.871   3.877
49855W        W22923  41.368   3.497   1.845
49856W        W22924  30.724  19.621   0.778
49857W        W22925  13.245  39.056  11.439
49858W        W22926  44.729   4.760   4.874
49859W        W22927  33.978   0.730   0.342
49860W        W22928  19.040  36.827  11.974
49861W        W22929   4.610   7.274   4.692
49862W        W22930  38.970  13.196   4.374
49863W        W22931   4.130  23.205  12.849
49864W        W22932  32.023  35.385  12.082
49865W        W22933  42.221  20.498  11.114
49866W        W22934   2.661  17.580  14.859
49867W        W22935  16.114  33.929  12.536
49868W        W22936   2.326  16.754  13.360
49869W        W22937  36.537  13.197  12.991
49870W        W22938  42.932  37.850   1.858
49871W        W22939  23.611  19.645   5.919
49872W        W22940  43.756  39.220   2.680
49873W        W22941  31.261  30.407   0.196
49874W        W22942  14.175  27.580  12.126
49875W        W22943  14.433  38.832  14.355
49876W        W22944  16.273  36.434   0.706
49877W        W22945  39.663   2.356   2.364
49878W        W22946  33.590  26.884  14.439
49879W        W22947  17.197  40.891   2.111
49880W        W22948  33.191  16.663   1.896
49881W        W22949   6.021   0.875   2.020
49882W        W22950  39.316  25.978  13.559
49883W        W22951   1.289  40.364   0.196
49884W        W22952  14.003  11.617   3.440
49885W        W22953  16.530  28.885   3.296
49886W        W22954  29.572  19.063   1.801
49887W        W22955   7.149  33.977  12.900
49888W        W22956  27.282  22.011  11.624
49889W        W22957  44.387   3.853  13.534
49890W        W22958  23.912  17.673   2.766
49891W        W22959  37.792  23.168  14.500
49892W        W22960  21.037  26.254   1.368
49893W        W22961  39.858  26.469  10.557
49894W        W22962  19.713  26.683  12.031
49895W        W22963  26.383  15.141  12.670
49896W        W22964  15.632   6.118  11.075
49897W        W22965  21.233   1.346  10.599
49898W        W22966  38.091   7.370  14.500
49899W        W22967   4.869  13.642   1.223
49900W        W22968  44.940  23.606   1.761
49901W        W22969   5.214  26.711  14.724
49902W        W22970  10.115  19.997   2.743
49903W        W22971   8.306  26.202  12.063
49904W        W22972  32.698  40.952   4.075
49905W        W22973  13.389  31.868   2.741
49906W        W22974  13.397  32.200  11.067
49907W        W22975   1.683  25.726   2.754
49908W        W22976  24.532  12.119   2.291
49909W        W22977  11.605   6.753   3.984
49910W        W22978  29.468  23.174   3.614
49911W        W22979  32.663  20.193  10.671
49912W        W22980  44.622  29.663  13.413
49913W        W22981  44.255  44.325   4.577
49914W        W22982  38.760  41.189  14.677
49915W        W22983   4.292  13.247   4.117
49916W        W22984  26.904  29.551  14.545
49917W        W22985   8.290  23.105   4.612
49918W        W22986   4.718  42.948   2.261
49919W        W22987   0.258  40.501   2.315
49920W        W22988   5.423  40.792   1.640
49921W        W22989  17.496  43.877  12.803
49922W        W22990  42.388  19.113  13.336
49923W        W22991  29.001  41.371  10.676
49924W        W22992  21.633  44.960  14.433
49925W        W22993  23.644  23.382   0.550
49926W        W22994  33.470  10.093   0.874
49927W        W22995  37.941   5.038   3.252
49928W        W22996  30.097  29.074   0.502
49929W        W22997  13.295  13.884  12.326
49930W        W22998  27.488  10.737   3.774
49931W        W22999  18.073  11.383   2.365
49932W        W23000  38.390  44.370   0.751
49933W        W23001  12.404  19.622   2.038
49934W        W23002  40.559  28.669   0.916
49935W        W23003  37.900   9.221  14.457
49936W        W23004  22.671   7.802  11.118
49937W        W23005  36.347  21.825  14.441
49938W        W23006   5.122   3.881  14.386
49939W        W23007   0.628   5.508  12.022
49940W        W23008  18.002  39.880  11.017
49941W        W23009  34.460  35.128  14.735
49942W        W23010  11.799  11.708   0.767
49943W        W23011  37.314  40.414   0.518
49944W        W23012   8.415  27.203   3.299
49945W        W23013  38.417   9.555   0.345
49946W        W23014   0.066  42.851   3.364
49947W        W23015  17.148   3.312   3.303
49948W        W23016  19.611  15.310  13.309
49949W        W23017   6.240   4.094   3.866
49950W        W23018  34.651  32.413  11.101
49951W        W23019  31.679  15.861   1.194
49952W        W23020  18.629  33.385  11.050
49953W        W23021   9.323  31.862  14.880
49954W        W23022   7.574  44.327   0.725
49955W        W23023  33.537  20.162   0.551
49956W        W23024  44.932  11.114  14.516
49957W        W23025   0.775   7.467  12.036
49958W        W23026  32.600  16.132   4.213
49959W        W23027  44.540  29.165  13.466
49960W        W23028  44.293  33.170   3.294
49961W        W23029  24.685  24.063  14.247
49962W        W23030  23.314  16.531   3.648
49963W        W23031   1.787   8.247  13.313
49964W        W23032   3.775  29.537  11.480
49965W        W23033  16.523   3.538  12.172
49966W        W23034  41.508  35.861   4.269
49967W        W23035  18.650  25.231  13.507
49968W        W23036  33.186   5.183  10.692
49969W        W23037  31.047  27.532   1.350
49970W        W23038  25.118  26.658   0.762
49971W        W23039  16.659  40.109  11.985
49972W        W23040  44.428   1.310  14.791
49973W        W23041  24.017   0.409  10.896
49974W        W23042  12.736  22.683  10.388
49975W        W23043  42.857  29.066   1.912
49976W        W23044  36.401  25.880  13.998
49977W        W23045  38.816  20.947  14.941
49978W        W23046   1.059  32.928  13.414
49979W        W23047   0.502  11.855   1.884
49980W        W23048  32.046  31.674   4.111
49981W        W23049   0.260  38.111   0.726
49982W        W23050  36.951  33.645   1.309
49983W        W23051  28.511  33.291   2.306
49984W        W23052   9.652  15.843  12.770
49985W        W23053  29.670   1.648   0.951
49986W        W23054  29.664  14.358  11.818
49987W        W23055  25.599  41.393  12.100
49988W        W23056   5.400  11.150  12.990
49989W        W23057  33.338  26.528  11.187
49990W        W23058   2.787  38.054   1.403
49991W        W23059  14.133  19.660  14.443
49992W        W23060  39.365  11.316  13.256
49993W        W23061  14.260  32.177  10.928
49994W        W23062  25.225  40.771   1.914
49995W        W23063  21.630   5.828   1.757
49996W        W23064  37.865  25.116   0.301
49997W        W23065   0.934   0.849  13.361
49998W        W23066  34.803  42.302  10.886
49999W        W23067  14.983  22.591   2.128
50000W        W23068  28.711   9.798  11.370
50001W        W23069   4.965  25.234   4.790
50002W        W23070   5.056  31.964   0.646
50003W        W23071  30.960  37.124   4.131
50004W        W23072  23.657  17.579  10.919
50005W        W23073  31.905   0.200   2.982
50006W        W23074   7.310  31.632  13.341
50007W        W23075  28.407  36.549   1.135
50008W        W23076  30.075  30.017  14.702
50009W        W23077   0.710  39.245  14.355
50010W        W23078  36.187  30.184  12.959
50011W        W23079  43.054  36.655   3.664
50012W        W23080  31.781  35.814  12.811
50013W        W23081  22.531  25.139  10.758
50014W        W23082  27.897  23.715   4.570
50015W        W23083   1.384  12.406  12.908
50016W        W23084   1.762  43.810   4.395
50017W        W23085  27.722  41.640   2.375
50018W        W23086  35.828  14.508  11.672
50019W        W23087  13.313   0.397  10.644
50020W        W23088  11.770  39.275  11.615
50021W        W23089  32.916  25.642  14.453
50022W        W23090  30.935  18.202   1.401
50023W        W23091  24.181  37.382   0.534
50024W        W23092   5.129  40.582  13.938
50025W        W23093  16.628  26.921   3.402
50026W        W23094   5.939  44.952  14.565
50027W        W23095   3.816   1.044  14.841
50028W        W23096  29.928  17.808  12.102
50029W        W23097  34.244  11.529   4.156
50030W        W23098  16.802  33.687  11.504
50031W        W23099  37.459  35.922  14.942
50032W        W23100  23.275  11.161  14.490
50033W        W23101  26.045   6.306   3.230
50034W        W23102  11.616  43.848   2.043
50035W        W23103   8.201  16.134  10.856
50036W        W23104  27.870  25.203   4.098
50037W        W23105  12.095  19.058  14.492
50038W        W23106  11.662  20.137  11.128
50039W        W23107  16.376   1.544  12.136
50040W        W23108  23.209   5.959   0.744
50041W        W23109  13.727  26.891  14.239
50042W        W23110   9.905  14.768   1.213
50043W        W23111   2.501  10.114  10.278
50044W        W23112   0.202  20.260  14.824
50045W        W23113  18.162  43.553  11.162
50046W        W23114  16.468  36.123  10.990
50047W        W23115  10.424   5.698   0.964
50048W        W23116  41.002  36.459   1.150
50049W        W23117  38.599   3.586  11.126
50050W        W23118  26.942   5.955   1.398
50051W        W23119  13.952   5.526   1.808
50052W        W23120  26.665  15.541  14.275
50053W        W23121  14.606   0.433   2.103
50054W        W23122  43.454  29.276   0.628
50055W        W23123   1.890   7.409   3.682
50056W        W23124  11.354  12.794  11.991
50057W        W23125   3.449  17.318   0.701
50058W        W23126  37.680  40.362   0.880
50059W        W23127  40.866  14.201   1.346
50060W        W23128  44.095  39.130  11.164
50061W        W23129  34.542  37.278   3.507
50062W        W23130  20.565   2.173   3.190
50063W        W23131  30.382   3.269  11.632
50064W        W23132  44.997  16.267   3.079
50065W        W23133  21.500  12.345   3.733
50066W        W23134   9.232  38.987   4.406
50067W        W23135  24.804  41.084  10.200
50068W        W23136  22.262  26.493  10.638
50069W        W23137   3.207   1.777  14.913
50070W        W23138   1.972  20.189   2.881
50071W        W23139  18.489  32.960   1.321
50072W        W23140  32.598  20.111   2.526
50073W        W23141  23.501   1.734   4.441
50074W        W23142  33.112   2.198  13.539
50075W        W23143   2.381  16.592   1.039
50076W        W23144   4.263  33.644  11.662
50077W        W23145  15.077  17.085  12.621
50078W        W23146  34.137  35.399  14.309
50079W        W23147   5.632  34.174   3.315
50080W        W23148  35.632   0.749   2.261
50081W        W23149   2.300  12.675   0.018
50082W        W23150  28.290   8.250   4.588
50083W        W23151  17.273   0.882   4.051
50084W        W23152  28.446  27.549  13.902
50085W        W23153   9.235  22.653  14.668
50086W        W23154  20.861   8.324  13.029
50087W        W23155  36.974   2.159   1.415
50088W        W23156  44.391  30.601  14.847
50089W        W23157   2.320  29.833   2.333
50090W        W23158  42.790  31.419   0.336
50091W        W23159   4.663  28.515  13.430
50092W        W23160  17.900   6.204   2.216
50093W        W23161  36.046  27.016   0.476
50094W        W23162  14.685  10.515   0.678
50095W        W23163  35.858  37.092   3.256
50096W        W23164  19.129  14.220  12.890
50097W        W23165  18.771  41.757  11.882
50098W        W23166  40.112  22.837  14.903
50099W        W23167   8.154  39.030   0.324
50100W        W23168   5.992  39.291   4.668
50101W        W23169  36.427  29.390  14.341
50102W        W23170   5.865  40.752  14.896
50103W        W23171  39.297  22.505  11.911
50104W        W23172  28.864  42.033   0.441
50105W        W23173  36.964  44.401   3.206
50106W        W23174  12.233  31.823   1.424
50107W        W23175  19.901   8.861   4.132
50108W        W23176   1.890  20.831  11.949
50109W        W23177  39.039   4.183   0.501
50110W        W23178  33.834  27.676   0.789
50111W        W23179  41.398  24.197  13.417
50112W        W23180  20.232   1.634  10.507
50113W        W23181  41.002  37.588   4.448
50114W        W23182  23.060   5.252   2.729
50115W        W23183  22.973  34.939   2.805
50116W        W23184  32.425  29.911   2.782
50117W        W23185  13.097  41.072  10.558
50118W        W23186  14.641   2.184   1.324
50119W        W23187  33.173  14.295  12.588
50120W        W23188  26.433  29.963  11.178
50121W        W23189  12.606  39.947   0.456
50122W        W23190  43.392   5.749  13.809
50123W        W23191  39.480  13.744  13.896
50124W        W23192  12.518  29.758  14.502
50125W        W23193  34.899  20.049   3.636
50126W        W23194  34.613   6.371  14.560
50127W        W23195   0.389   8.300   4.458
50128W        W23196  28.545   3.957   1.730
50129W        W23197  27.354  18.682  14.750
50130W        W23198  39.133   0.174  12.778
50131W        W23199   2.862  19.557   1.441
50132W        W23200  26.386  24.519  13.895
50133W        W23201  33.955  43.718   0.903
50134W        W23202   1.390  19.694  14.538
50135W        W23203  26.283   9.270   0.320
50136W        W23204  19.825  21.061   2.744
50137W        W23205  32.963  13.698   0.766
50138W        W23206   5.158  41.359   4.217
50139W        W23207  43.892   6.529  11.651
50140W        W23208  17.335  42.484  11.363
50141W        W23209   8.023  41.027   2.248
50142W        W23210   7.879  25.148   2.252
50143W        W23211  21.315  41.904  11.939
50144W        W23212  38.059  27.635   2.258
50145W        W23213  42.516  33.945   2.859
50146W        W23214  12.174  26.181   1.813
50147W        W23215  23.017  15.995  13.491
50148W        W23216  12.159  20.260   3.195
50149W        W23217  10.163  14.246  11.234
50150W        W23218   3.978  14.336  14.608
50151W        W23219  32.644  41.917  11.725
50152W        W23220  12.454  39.447   4.505
50153W        W23221  23.978  19.253   2.798
50154W        W23222  24.141  30.768  11.198
50155W        W23223  43.028  39.537  12.930
50156W        W23224  32.514  30.815   0.367
50157W        W23225  24.014  11.513   4.491
50158W        W23226  13.278  17.993  13.351
50159W        W23227  42.250  14.305  13.938
50160W        W23228   0.232  19.806   0.126
50161W        W23229  35.313  27.935  11.547
50162W        W23230  10.226  32.532   0.240
50163W        W23231  18.226  28.154   1.431
50164W        W23232  24.104  26.773   3.827
50165W        W23233  16.081  39.906   2.258
50166W        W23234   7.326  13.304   4.218
50167W        W23235   2.204   6.396   0.952
50168W        W23236   4.852  35.382  14.956
50169W        W23237  27.941  21.761   3.724
50170W        W23238   6.207  41.628  11.543
50171W        W23239  24.921  12.303  13.903
50172W        W23240  11.388   3.991   0.740
50173W        W23241  28.437   1.553   2.309
50174W        W23242  15.627  19.634  11.672
50175W        W23243  33.943  26.867   1.719
50176W        W23244  26.673  35.668  12.812
50177W        W23245  41.212  31.907  11.812
50178W        W23246  10.296  27.460   0.738
50179W        W23247  41.525  22.751   3.366
50180W        W23248  38.374  11.286  11.556
50181W        W23249  37.597  15.684   2.769
50182W        W23250  22.939   4.670  14.458
50183W        W23251  30.211   9.708   0.050
50184W        W23252  29.068  37.218   4.519
50185W        W23253  38.560  34.974   0.998
50186W        W23254  19.372  42.380   4.557
50187W        W23255   4.729  44.810   1.490
50188W        W23256  14.569  40.988   0.032
50189W        W23257  33.659   7.406  10.723
50190W        W23258  29.336  17.276  12.488
50191W        W23259  44.150  17.552   3.764
50192W        W23260  13.703  19.126  13.859
50193W        W23261  13.780  14.758   2.513
50194W        W23262  21.144   7.634  12.497
50195W        W23263  11.948  44.185  11.952
50196W        W23264  26.033  25.488  14.787
50197W        W23265   2.929  28.432  10.756
50198W        W23266  44.957  15.999   0.808
50199W        W23267  39.841  33.317   4.141
50200W        W23268   0.305  37.942  10.600
50201W        W23269   4.251  27.011   3.616
50202W        W23270  29.552   9.642   3.246
50203W        W23271  36.423  34.845   2.456
50204W        W23272  22.718  41.572  14.416
50205W        W23273  23.238   3.243  14.274
50206W        W23274  35.770  42.842  12.497
50207W        W23275  13.497  16.293  11.505
50208W        W23276  29.892  34.518   0.880
50209W        W23277  12.016  10.257  14.052
50210W        W23278  13.388  20.052  12.592
50211W        W23279   6.030  43.911   0.421
50212W        W23280  34.257   3.813   2.902
50213W        W23281  23.134  34.919  11.494
50214W        W23282   6.094  15.293  11.426
50215W        W23283   2.079  43.425   3.686
50216W        W23284  39.827  11.940  12.161
50217W        W23285   2.018  35.510   2.759
50218W        W23286  37.353  33.314   1.292
50219W        W23287  15.563   9.910  14.008
50220W        W23288  31.820  31.948   3.143
50221W        W23289   9.753  16.326   3.400
50222W        W23290  25.457  11.868   2.171
50223W        W23291  33.628  37.099   2.105
50224W        W23292  22.189  18.253  14.332
50225W        W23293  38.372  21.698   4.431
50226W        W23294  42.388  28.393  10.714
50227W        W23295  28.307  33.394  14.301
50228W        W23296  43.519   6.193  13.541
50229W        W23297  34.588  39.404  12.929
50230W        W23298  33.478  14.696   4.172
50231W        W23299  29.755  42.319   2.656
50232W        W23300  21.605   7.278   1.626
50233W        W23301  25.233  40.447   9.811
50234W        W23302  23.659  38.074  11.525
50235W        W23303   2.896  28.196   4.731
50236W        W23304  33.047  23.679   2.719
50237W        W23305  28.136  32.415   1.361
50238W        W23306  31.683  27.112   3.067
50239W        W23307  43.406   4.169  13.728
50240W        W23308  11.709  43.899  10.624
50241W        W23309  12.869  23.961  11.227
50242W        W23310  14.837  42.980  13.089
50243W        W23311  41.409  37.071  12.534
50244W        W23312  23.042   6.503  11.518
50245W        W23313   9.143  37.786  13.826
50246W        W23314  16.548   2.689   2.887
50247W        W23315  39.983  41.828   4.151
50248W        W23316  28.564  24.960   4.913
50249W        W23317  30.982  28.778  12.022
50250W        W23318  34.879  18.033   2.873
50251W        W23319  16.047  28.105   3.332
50252W        W23320  17.054  16.669  12.982
50253W        W23321  30.715  21.244  12.724
50254W        W23322  44.775   1.656  13.039
50255W        W23323  23.663  37.541   1.409
50256W        W23324   6.163  16.518   2.774
50257W        W23325  18.557  24.013  14.506
50258W        W23326  22.093  18.183   2.849
50259W        W23327  15.646  41.979   4.564
50260W        W23328  34.224  14.385  14.850
50261W        W23329  38.757  25.298  11.168
50262W        W23330  31.532  33.328  12.507
50263W        W23331  12.056   9.939   1.776
50264W        W23332  29.944  31.006   1.579
50265W        W23333  18.216  33.803  14.525
50266W        W23334  22.751  21.769   1.888
50267W        W23335  13.298  35.466  13.624
50268W        W23336   2.993  19.987   1.134
50269W        W23337  13.351   6.476   4.216
50270W        W23338   1.784  17.239  14.943
50271W        W23339   6.358  32.108  13.481
50272W        W23340  37.572  41.461   4.597
50273W        W23341   3.282  37.261  11.229
50274W        W23342  16.295  16.034  12.007
50275W        W23343  19.003  15.650   4.654
50276W        W23344  37.820  22.218   2.863
50277W        W23345   7.332  28.177   4.298
50278W        W23346   1.964  31.452   3.756
50279W        W23347  31.868   2.957   2.717
50280W        W23348  18.775  10.189  12.069
50281W        W23349  34.232  40.954  11.048
50282W        W23350  22.577  36.305   0.409
50283W        W23351  37.753  44.989  14.415
50284W        W23352   7.201  39.947  12.941
50285W        W23353  12.633  22.811  12.919
50286W        W23354  15.166  27.068   3.439
50287W        W23355  28.247   0.279  12.558
50288W        W23356  21.929  40.623  11.565
50289W        W23357  42.218  17.051   2.751
50290W        W23358  24.888   9.762  11.980
50291W        W23359  21.813   2.030   1.801
50292W        W23360   1.999  19.999   4.374
50293W        W23361  44.220  30.386   2.735
50294W        W23362  31.407  32.555  14.724
50295W        W23363   6.600  22.712   3.684
50296W        W23364  32.270  38.415   3.248
50297W        W23365   4.881  28.903   0.415
50298W        W23366  44.825  29.237  14.828
50299W        W23367   7.208  16.655  14.209
50300W        W23368  28.507  40.522  12.017
50301W        W23369  29.921  36.339   1.271
50302W        W23370   5.899   0.170  11.983
50303W        W23371  44.099   4.315   0.698
50304W        W23372  21.065   1.391  13.993
50305W        W23373  17.252  22.715  13.798
50306W        W23374  31.597   4.160  12.559
50307W        W23375  43.458  31.546  11.571
50308W        W23376  10.876  35.550  12.207
50309W        W23377   1.722  26.469  11.987
50310W        W23378  26.551   9.079   2.284
50311W        W23379  33.375   7.289   2.672
50312W        W23380  28.150  11.421   2.289
50313W        W23381  35.116  27.693   5.125
50314W        W23382  30.399   9.888  11.526
50315W        W23383  37.491   4.247   2.226
50316W        W23384  11.509  44.487  11.928
50317W        W23385   9.496  35.310   1.544
50318W        W23386   2.045  44.010   0.173
50319W        W23387  25.148  11.805  13.897
50320W        W23388  14.544  13.957  13.482
50321W        W23389  28.724  36.173  10.761
50322W        W23390  37.113  28.204  13.115
50323W        W23391  26.454  15.882   5.065
50324W        W23392  31.120  26.691   0.776
50325W        W23393  31.978  26.945   3.843
50326W        W23394  18.157  31.189  11.052
50327W        W23395  22.072   3.339   0.959
50328W        W23396  18.348  36.928  11.516
50329W        W23397  33.403   4.393  14.824
50330W        W23398  22.337  26.690   2.649
50331W        W23399  23.315  35.523   0.063
50332W        W23400  27.943  26.205  10.710
50333W        W23401  42.878  12.601  11.144
50334W        W23402  27.928  21.837  11.122
50335W        W23403  31.138  13.406  12.407
50336W        W23404  10.196  40.339   2.391
50337W        W23405  41.912  26.635   1.433
50338W        W23406  20.514  23.731  11.933
50339W        W23407  30.018  26.172  12.742
50340W        W23408  33.588  41.888   3.381
50341W        W23409  15.402  41.527   1.325
50342W        W23410  44.841  23.749  13.332
50343W        W23411   5.963  22.658  13.874
50344W        W23412  42.796  26.756   2.247
50345W        W23413  42.907  19.099   4.674
50346W        W23414  33.679  15.982  10.239
50347W        W23415  19.270  38.722  12.976
50348W        W23416  11.227  44.670  11.524
50349W        W23417   0.474  21.148  10.253
50350W        W23418  11.659  42.723  13.518
50351W        W23419  14.853   8.312   4.200
50352W        W23420  23.048   0.915  13.998
50353W        W23421  37.293  29.915  14.439
50354W        W23422   1.011   4.578  10.519
50355W        W23423  20.500  20.215   0.039
50356W        W23424  10.071  29.202  11.102
50357W        W23425  10.385  41.017  13.425
50358W        W23426  17.110  23.729   2.287
50359W        W23427   3.708  37.035  10.494
50360W        W23428  18.180  41.142  11.441
50361W        W23429   2.446  39.481  14.387
50362W        W23430  16.596  42.528   0.807
50363W        W23431   8.685  19.306   2.933
50364W        W23432   1.400  40.546   4.612
50365W        W23433  11.927  11.186   1.917
50366W        W23434   9.907  12.394   2.206
50367W        W23435  18.473  21.660   0.122
50368W        W23436   8.230  31.490   0.311
50369W        W23437  10.576   3.250  11.915
50370W        W23438   0.936  15.273  10.620
50371W        W23439  26.943  20.967  11.422
50372W        W23440  40.283  16.209  11.189
50373W        W23441  33.020  43.878   0.232
50374W        W23442  38.663  13.873  14.233
50375W        W23443  41.407  42.989   2.826
50376W        W23444  29.110  25.091  10.649
50377W        W23445  42.049   2.830  12.056
50378W        W23446  34.917  31.049  11.796
50379W        W23447  17.517  17.217  12.018
50380W        W23448  44.691   5.756   2.239
50381W        W23449  13.588  19.200   2.899
50382W        W23450  44.618  20.675  14.291
50383W        W23451  31.391   9.869  14.382
50384W        W23452   2.850  13.696   4.216
50385W        W23453  44.106   6.705  12.963
50386W        W23454  10.453  30.117  10.990
50387W        W23455  35.618  37.433   1.877
50388W        W23456  24.667   8.730  13.546
50389W        W23457   0.094  15.329  11.630
50390W        W23458  10.539  25.969   2.216
50391W        W23459  28.506  17.228  12.088
50392W        W23460  41.941   1.337  12.865
50393W        W23461  41.835  29.654  14.047
50394W        W23462  29.325  37.932   2.245
50395W        W23463   2.375   0.326   2.864
50396W        W23464  15.861   0.244   0.567
50397W        W23465  32.219  18.062  13.015
50398W        W23466  19.382  18.605  14.005
50399W        W23467  21.130  13.280  14.323
50400W        W23468  24.703   0.761   2.878
50401W        W23469  24.317  44.714  12.096
50402W        W23470  11.756  35.969  12.105
50403W        W23471  32.362  22.951  13.959
50404W        W23472  35.470  27.046  10.660
50405W        W23473  22.539   0.474  12.703
50406W        W23474   3.416  34.935  10.701
50407W        W23475  33.035  35.411  12.128
50408W        W23476  42.921   9.898   3.329
50409W        W23477  17.809  26.862   2.681
50410W        W23478  21.984  13.160  13.363
50411W        W23479  27.683   1.290  13.921
50412W        W23480  25.485   4.322   3.265
50413W        W23481  16.877   6.238   2.359
50414W        W23482   6.744  23.956  10.701
50415W        W23483   0.745  44.296   2.274
50416W        W23484  27.718   4.978  11.898
50417W        W23485  27.775   2.445   3.381
50418W        W23486  28.847  27.060   1.674
50419W        W23487   0.452  37.081  12.392
50420W        W23488   4.889  29.195   4.697
50421W        W23489  16.548  34.639   3.850
50422W        W23490  16.563  17.790  11.032
50423W        W23491   0.940  44.513   2.707
50424W        W23492  31.439  12.176  10.615
50425W        W23493  16.304   0.827  14.007
50426W        W23494  22.795   5.031   5.068
50427W        W23495   4.235  34.207  11.712
50428W        W23496   9.368  32.448   4.200
50429W        W23497  20.410   8.752  12.670
50430W        W23498   5.328  15.839  11.960
50431W        W23499  12.291  11.284   1.406
50432W        W23500  22.672  34.937  11.221
50433W        W23501   7.699  16.634   0.375
50434W        W23502  21.245  20.450   0.390
50435W        W23503   1.992  41.719   5.043
50436W        W23504  35.388   5.986   1.318
50437W        W23505  15.681  15.916  14.836
50438W        W23506   9.281  15.486   4.564
50439W        W23507  23.554  18.470   3.689
50440W        W23508   9.369  26.024  14.453
50441W        W23509  14.730  43.925   4.731
50442W        W23510   8.134  40.859  14.789
50443W        W23511  10.295  14.805  11.532
50444W        W23512  44.930  36.346  13.420
50445W        W23513  22.576  44.804   5.054
50446W        W23514  24.512   1.345  14.722
50447W        W23515  28.953   1.739  12.681
50448W        W23516  34.978  43.017  10.124
50449W        W23517  30.977  28.373   4.084
50450W        W23518  37.370  17.602  13.890
50451W        W23519  20.122  37.851  13.983
50452W        W23520  43.681  16.290   3.685
50453W        W23521  10.126  36.984  12.356
50454W        W23522  29.487   9.416  11.373
50455W        W23523  12.707  43.429   3.747
50456W        W23524  16.637  21.351  14.372
50457W        W23525  39.392  40.369   3.881
50458W        W23526  31.450  33.609  12.968
50459W        W23527  35.156  39.890  14.360
50460W        W23528  21.134  21.488  11.442
50461W        W23529  29.448  32.159   2.112
50462W        W23530  36.082  30.118   1.251
50463W        W23531  33.279  32.407  14.727
50464W        W23532   1.447  27.433  13.962
50465W        W23533   0.810  35.892   2.554
50466W        W23534  37.984   1.862  13.936
50467W        W23535  40.052  33.328  10.597
50468W        W23536  33.353  16.283   3.732
50469W        W23537  14.644  26.853  13.451
50470W        W23538  26.102   9.159   1.217
50471W        W23539  35.528  40.358  11.538
50472W        W23540  20.357  33.857   1.437
50473W        W23541   6.669  11.968   0.777
50474W        W23542   5.900  30.402  10.771
50475W        W23543   7.900  39.039   3.258
50476W        W23544  25.426  23.276   3.701
50477W        W23545   4.923  36.364  14.724
50478W        W23546  35.121  44.520  14.332
50479W        W23547  13.746  32.112   1.952
50480W        W23548   3.743  16.635  12.380
50481W        W23549  26.559  39.097  13.855
50482W        W23550  11.203  27.609  10.468
50483W        W23551  20.304  38.009  13.517
50484W        W23552  19.365  14.858   2.827
50485W        W23553  35.842  13.328   3.640
50486W        W23554  15.971  24.761  11.604
50487W        W23555  34.491   5.733   3.296
50488W        W23556   8.253  14.319   3.160
50489W        W23557  18.652  39.579   3.233
50490W        W23558  43.230  42.961   2.213
50491W        W23559  16.503  27.582  11.665
50492W        W23560  10.544   9.395  11.964
50493W        W23561   4.768  27.262   1.699
50494W        W23562  25.086   6.424  13.904
50495W        W23563  29.418   7.868  10.608
50496W        W23564  25.154  12.533  12.353
50497W        W23565   0.465   7.099   1.648
50498W        W23566  26.969  24.296   4.277
50499W        W23567  30.939   3.234   4.093
50500W        W23568  24.264  27.964   0.846
50501W        W23569  36.969  40.570   3.267
50502W        W23570   0.995  12.529  11.748
50503W        W23571   2.019  29.101  12.545
50504W        W23572  42.055  28.477   0.850
50505W        W23573  23.677  24.229  13.193
50506W        W23574  22.116   8.183   5.019
50507W        W23575   8.820  38.763   4.631
50508W        W23576  43.363  10.783   4.520
50509W        W23577  36.869  40.034  14.837
50510W        W23578  35.098  38.918   2.755
50511W        W23579  39.936  43.003  11.729
50512W        W23580  21.272  17.357   5.038
50513W        W23581   9.129  13.596   0.161
50514W        W23582  40.267  11.107   0.967
50515W        W23583  24.015  13.566  14.414
50516W        W23584  24.950  31.099   4.605
50517W        W23585  12.740  22.212  11.128
50518W        W23586   5.145  32.221   4.543
50519W        W23587  25.508  27.852   3.615
50520W        W23588  17.185   6.683   2.362
50521W        W23589  39.813   7.778   5.570
50522W        W23590  11.106   5.783  12.480
50523W        W23591  11.620   3.637   1.441
50524W        W23592  43.430  25.254   2.463
50525W        W23593  32.640  26.390  14.628
50526W        W23594  18.656  26.197  11.151
50527W        W23595   6.333   3.010   1.334
50528W        W23596  14.150   8.276  14.828
50529W        W23597  28.886  44.441   2.877
50530W        W23598  33.973  35.352   3.820
50531W        W23599  29.092  16.293   0.252
50532W        W23600  32.892  37.462   4.111
50533W        W23601  20.112   4.676   3.723
50534W        W23602  17.081  29.811  11.334
50535W        W23603   9.765  12.063   3.812
50536W        W23604  33.436  11.251  10.252
50537W        W23605  33.467   5.894   2.389
50538W        W23606  38.806   2.240   2.769
50539W        W23607  32.177  16.082   1.258
50540W        W23608  41.713  18.821  11.590
50541W        W23609  40.862  16.783  11.932
50542W        W23610  22.223  35.657  11.026
50543W        W23611   0.677  15.358   1.830
50544W        W23612   2.678  11.627  12.547
50545W        W23613  10.438  10.288  13.864
50546W        W23614   1.694   3.293   5.172
50547W        W23615  36.796  12.566   0.889
50548W        W23616   6.615  11.555  12.459
50549W        W23617   9.585  34.835   1.364
50550W        W23618   8.570  21.721  11.516
50551W        W23619  23.271   5.231   1.857
50552W        W23620  39.893  18.195  10.747
50553W        W23621  35.788   6.821  14.496
50554W        W23622   5.452  17.720   0.351
50555W        W23623  28.949  12.441   0.912
50556W        W23624  13.094  21.271  14.272
50557W        W23625   8.616  42.818  12.299
50558W        W23626  15.171  16.634   3.160
50559W        W23627  18.659  13.649   4.952
50560W        W23628  25.685  12.819  13.999
50561W        W23629  27.983  33.976  13.377
50562W        W23630  29.075  28.085  12.160
50563W        W23631  11.164  14.076  14.050
50564W        W23632  41.037  13.326   2.615
50565W        W23633  42.312  13.185   2.313
50566W        W23634  18.649   8.974   4.561
50567W        W23635  12.623   0.848  11.715
50568W        W23636  27.373   2.010  13.592
50569W        W23637  32.148   4.985  10.679
50570W        W23638  44.716  29.186   0.715
50571W        W23639  30.984  20.006   4.376
50572W        W23640  25.011  28.609   3.629
50573W        W23641  14.138  18.083   1.308
50574W        W23642  31.629  21.144   2.818
50575W        W23643  11.363  41.187  11.600
50576W        W23644  22.112  43.991   2.849
50577W        W23645   3.414  43.143   4.949
50578W        W23646  27.715  34.435  11.647
50579W        W23647  31.052  18.597   2.763
50580W        W23648   9.384  44.436   4.203
50581W        W23649  38.329  34.513   1.151
50582W        W23650   9.597   3.977   3.163
50583W        W23651  29.748  33.527  11.297
50584W        W23652  17.994   3.798   3.836
50585W        W23653   3.054   1.542   0.909
50586W        W23654  26.702   1.871   9.774
50587W        W23655   9.856   2.017   4.981
50588W        W23656  18.349  11.360   4.782
50589W        W23657  40.525   8.938  14.890
50590W        W23658  22.529  23.953  14.250
50591W        W23659  44.641   2.419   0.315
50592W        W23660   6.344  19.475  12.330
50593W        W23661  42.367  10.441   2.788
50594W        W23662   4.427   4.959   1.730
50595W        W23663  10.153  11.564   2.076
50596W        W23664  32.547  25.701   2.585
50597W        W23665  17.597  39.929   4.633
50598W        W23666  28.042   9.851   3.600
50599W        W23667  29.654   1.969  12.875
50600W        W23668   0.897  29.183  12.366
50601W        W23669   3.991  41.871  13.576
50602W        W23670  11.147   6.866   0.314
50603W        W23671  16.910  25.759  11.160
50604W        W23672  40.374  30.233   4.953
50605W        W23673  41.267   3.748   1.383
50606W        W23674   5.203  15.536  12.980
50607W        W23675  30.577  21.663   0.811
50608W        W23676  38.202   0.069   1.683
50609W        W23677  35.413  14.391   4.177
50610W        W23678  30.041  27.594   4.112
50611W        W23679   7.028  10.892   2.363
50612W        W23680  17.592   9.526  10.961
50613W        W23681  39.905   7.490   0.033
50614W        W23682  30.536  15.614   0.777
50615W        W23683  30.734  34.616  10.670
50616W        W23684  30.482   5.637  14.056
50617W        W23685  31.921  36.980  10.697
50618W        W23686  14.833  29.527   0.596
50619W        W23687  36.871  27.097   3.049
50620W        W23688  16.572  34.555   4.370
50621W        W23689  20.413  38.158   1.455
50622W        W23690   8.214  12.808  13.924
50623W        W23691   5.169  20.660   3.673
50624W        W23692  19.693  13.993  10.580
50625W        W23693  16.155   5.361   3.457
50626W        W23694   9.760  43.589  12.460
50627W        W23695   8.703  10.146   2.863
50628W        W23696   4.091  28.546   0.711
50629W        W23697   0.635  27.625   1.913
50630W        W23698  43.029  36.924  12.600
50631W        W23699  23.668  28.927   1.696
50632W        W23700  34.614  30.208   2.551
50633W        W23701  39.147  41.524  14.372
50634W        W23702  44.952  39.441  14.970
50635W        W23703  17.246   6.932  11.387
50636W        W23704  42.796  16.645   3.917
50637W        W23705  31.689  11.776   2.257
50638W        W23706   1.844  10.130   2.196
50639W        W23707  30.215  36.037   4.452
50640W        W23708  15.660   8.725   5.514
50641W        W23709  29.902   2.391   4.152
50642W        W23710  20.037   7.899   0.791
50643W        W23711  40.610  12.683  11.108
50644W        W23712   5.280  28.920   3.927
50645W        W23713  18.949  43.374   0.743
50646W        W23714  12.895  40.345  12.921
50647W        W23715  35.889  25.537   1.946
50648W        W23716  22.926  18.057  12.985
50649W        W23717  43.303  30.353   0.764
50650W        W23718  18.515  14.549   3.748
50651W        W23719  32.647  14.535  12.012
50652W        W23720  27.555   6.153   0.301
50653W        W23721   1.336  20.263   4.569
50654W        W23722  38.388  37.549   1.970
50655W        W23723   8.246  27.778  10.839
50656W        W23724  31.593  23.734   1.772
50657W        W23725   6.287  12.118  14.061
50658W        W23726  43.673  10.868  11.108
50659W        W23727  44.808  36.855   0.437
50660W        W23728   3.060  35.548  10.905
50661W        W23729  42.875  40.605   0.996
50662W        W23730  17.223  38.341   0.793
50663W        W23731  24.747  24.555  13.565
50664W        W23732  16.832   9.345   0.484
50665W        W23733  42.618  11.102   1.361
50666W        W23734  33.500  31.965   1.837
50667W        W23735  34.895   3.182   4.135
50668W        W23736  25.177   8.723  11.518
50669W        W23737   5.151  25.669  12.180
50670W        W23738  34.358  39.874  11.549
50671W        W23739  44.509   1.747  12.387
50672W        W23740  18.367  29.469   3.378
50673W        W23741  17.176  37.549   3.364
50674W        W23742   2.414  28.151   2.672
50675W        W23743  44.460  10.248  14.202
50676W        W23744  10.210   1.147  14.375
50677W        W23745  19.292  21.793  14.066
50678W        W23746  11.663  22.821  14.917
50679W        W23747  13.532  28.906  11.693
50680W        W23748  27.572  11.712  10.955
50681W        W23749   5.866  28.641   1.468
50682W        W23750  19.270  27.507  13.332
50683W        W23751  36.096  42.778  11.169
50684W        W23752  31.716  11.205  13.757
50685W        W23753  12.816  32.455   2.773
50686W        W23754  13.719  15.108   3.750
50687W        W23755  24.529  34.967   2.226
50688W        W23756   3.311  10.635  10.605
50689W        W23757  41.865   8.908   3.780
50690W        W23758  29.721   2.961  11.935
50691W        W23759  22.493  31.523  11.639
50692W        W23760  23.283  14.824  14.002
50693W        W23761   7.854  15.696   3.566
50694W        W23762  34.683  42.956   3.242
50695W        W23763  39.313  28.529  14.826
50696W        W23764  30.952  39.097  12.400
50697W        W23765  40.974  39.581   3.146
50698W        W23766   6.752  28.997   2.294
50699W        W23767   4.359  33.893  12.117
50700W        W23768  44.254  11.192  10.857
50701W        W23769  16.321   9.238   0.028
50702W        W23770  16.835   5.249   0.874
50703W        W23771  43.278  22.188  10.449
50704W        W23772  19.480  36.439   1.057
50705W        W23773  19.093   6.238   4.833
50706W        W23774   4.025  40.320   0.042
50707W        W23775  41.455   0.964  11.097
50708W        W23776  38.443  25.431  10.739
50709W        W23777  36.409  43.307   3.196
50710W        W23778  25.300  13.792  14.880
50711W        W23779  26.211  39.729  11.133
50712W        W23780  27.404   6.950  14.434
50713W        W23781  41.612  40.343   1.932
50714W        W23782  39.760   6.945  11.467
50715W        W23783  43.305  28.139  12.967
50716W        W23784  29.140  10.688  12.930
50717W        W23785   6.567  15.938   0.079
50718W        W23786   0.690   6.421  13.914
50719W        W23787  30.465   9.616   1.476
50720W        W23788  16.208  35.473   3.426
50721W        W23789   4.515  10.952  10.966
50722W        W23790   4.862  41.263  11.063
50723W        W23791  15.922  18.509   0.913
50724W        W23792  32.375  19.249  11.160
50725W        W23793  24.749  19.768   4.519
50726W        W23794   1.287  15.805   9.892
50727W        W23795  35.495   1.743  12.674
50728W        W23796  24.083  41.933  14.612
50729W        W23797   5.257  11.135  10.565
50730W        W23798  31.257  27.009   2.745
50731W        W23799  43.606  11.913   2.410
50732W        W23800  16.236  21.026   0.850
50733W        W23801  11.816  44.892  14.057
50734W        W23802  28.473   4.880  10.984
50735W        W23803  11.194  11.821  13.379
50736W        W23804  17.217  41.125  10.533
50737W        W23805  10.854   1.478   0.262
50738W        W23806  34.139   7.253  13.757
50739W        W23807  36.109  42.271  14.494
50740W        W23808  17.750  14.125   4.906
50741W        W23809  44.503  39.550  12.884
50742W        W23810  28.632  44.063  13.086
50743W        W23811  34.406   5.684  12.848
50744W        W23812   9.728   6.391   4.092
50745W        W23813   8.117  21.189  13.556
50746W        W23814  19.741  37.475   2.499
50747W        W23815   1.773   4.229  14.617
50748W        W23816  43.558  36.607   3.709
50749W        W23817  41.509   8.400  14.124
50750W        W23818  36.436  38.888  10.429
50751W        W23819   8.563   2.106   0.035
50752W        W23820  38.849  21.326   1.680
50753W        W23821   3.598  25.455  13.831
50754W        W23822  42.355  19.616   2.451
50755W        W23823   6.053  43.402   0.398
50756W        W23824  18.787  14.993   2.394
50757W        W23825  12.114  29.934   3.921
50758W        W23826  29.620  33.405   0.401
50759W        W23827  40.455  14.153  10.241
50760W        W23828  35.831   0.858   3.644
50761W        W23829  10.772  26.665  14.368
50762W        W23830  20.978  22.623   4.162
50763W        W23831  31.006  10.133  11.007
50764W        W23832   8.168  23.533  12.582
50765W        W23833  28.069  12.162   1.810
50766W        W23834  22.769  20.571   4.263
50767W        W23835  34.096   1.444  11.148
50768W        W23836  41.018  11.824  12.003
50769W        W23837  14.736   9.799  13.473
50770W        W23838  41.298  12.772  12.688
50771W        W23839  21.175  36.426  14.804
50772W        W23840  16.761   5.781   2.625
50773W        W23841  38.757  41.937   0.912
50774W        W23842  38.091  37.379  14.242
50775W        W23843  26.170  36.727   2.690
50776W        W23844  41.584  26.975  11.668
50777W        W23845  29.923  30.470  11.927
50778W        W23846   3.705  35.963  12.392
50779W        W23847  25.802   9.383   2.640
50780W        W23848   6.940  21.101  12.534
50781W        W23849  38.267  14.087   4.970
50782W        W23850  15.691  34.822  11.079
50783W        W23851  42.795   0.810  14.003
50784W        W23852  26.346  13.668  14.348
50785W        W23853  14.854  44.321   0.461
50786W        W23854  12.984  26.535  14.047
50787W        W23855   9.553   5.569   1.381
50788W        W23856  16.258  34.172   3.844
50789W        W23857   2.001   1.402   3.547
50790W        W23858  31.121   2.682  10.772
50791W        W23859   3.477  21.506  11.443
50792W        W23860  15.118  26.209   4.629
50793W        W23861  15.464  30.886   2.650
50794W        W23862  24.648   5.083   3.391
50795W        W23863  29.218   1.808  11.100
50796W        W23864  30.411  12.340  14.866
50797W        W23865   4.726  22.372  11.240
50798W        W23866  13.911  11.531  14.900
50799W        W23867  30.599   6.196   2.323
50800W        W23868  10.854   9.666   3.188
50801W        W23869  29.668  13.787   3.739
50802W        W23870  31.603  42.685  13.137
50803W        W23871  31.730  16.881   1.268
50804W        W23872  34.137  37.129  13.515
50805W        W23873  30.003  36.160  12.121
50806W        W23874  20.524   1.284  14.302
50807W        W23875  38.343   9.610   4.120
50808W        W23876  12.948   7.263   3.811
50809W        W23877   8.553   9.758   1.892
50810W        W23878  23.939  25.020   3.961
50811W        W23879  17.324   6.761  11.870
50812W        W23880  23.216   9.728   4.562
50813W        W23881  32.585  17.806   4.614
50814W        W23882   5.352  17.242  10.902
50815W        W23883  24.933  20.594  12.440
50816W        W23884  34.076  24.134   4.196
50817W        W23885   9.311  38.047   3.319
50818W        W23886  10.447  31.843   2.793
50819W        W23887  19.582  36.649  12.501
50820W        W23888  34.839   6.799  13.477
50821W        W23889  39.029  15.676  11.023
50822W        W23890  18.064   6.827  12.891
50823W        W23891  12.774   0.745  12.187
50824W        W23892  13.531  43.435  10.682
50825W        W23893  43.368  23.741  14.233
50826W        W23894   3.853   5.299  10.640
50827W        W23895  17.135   9.204   3.302
50828W        W23896  15.206  38.799   0.107
50829W        W23897  30.337  32.100   2.594
50830W        W23898   1.886  36.388   1.169
50831W        W23899  23.151  28.085   1.963
50832W        W23900   7.737   2.469  13.388
50833W        W23901  18.719  36.666   1.391
50834W        W23902   4.980  44.344  14.465
50835W        W23903  13.899  16.061   4.612
50836W        W23904  35.613  14.433  14.831
50837W        W23905  34.079   0.444  12.462
50838W        W23906  41.344  19.566  14.271
50839W        W23907   8.973  20.621   1.820
50840W        W23908  37.070  20.031   3.701
50841W        W23909  33.262  20.685   3.452
50842W        W23910  13.675  13.983   4.618
50843W        W23911  17.194  15.083   1.393
50844W        W23912  28.698  25.997  12.014
50845W        W23913  15.326  19.787  14.890
50846W        W23914   8.837  12.323  10.564
50847W        W23915   4.702  10.137  11.648
50848W        W23916   9.687  28.102   4.768
50849W        W23917  39.356   9.640   4.361
50850W        W23918  27.110  26.839  10.471
50851W        W23919   5.394  41.866  12.604
50852W        W23920  43.323  38.616  11.183
50853W        W23921  29.614   4.811  13.808
50854W        W23922  25.226  27.019  14.925
50855W        W23923  18.780  34.353   1.742
50856W        W23924   2.263  30.158   1.887
50857W        W23925  10.777  10.922   2.185
50858W        W23926  39.992   2.412  14.406
50859W        W23927  22.788  14.163  10.778
50860W        W23928  29.672  19.160   1.260
50861W        W23929  12.182  13.875   0.431
50862W        W23930   1.015  44.430   3.665
50863W        W23931  22.734  18.524   3.317
50864W        W23932  37.376  27.763   2.673
50865W        W23933  44.941   4.142  12.684
50866W        W23934  14.876  38.909  12.569
50867W        W23935  40.805  22.982   1.030
50868W        W23936   1.828  44.232   3.608
50869W        W23937  22.381  22.205  10.543
50870W        W23938  20.667  25.973   1.113
50871W        W23939  35.620  18.389   3.867
50872W        W23940  18.630   1.325  12.508
50873W        W23941  34.560  17.330   0.497
50874W        W23942  11.660  34.824   1.554
50875W        W23943  32.008  31.472   0.040
50876W        W23944  32.066  15.855  12.215
50877W        W23945  16.048  37.735   2.725
50878W        W23946  25.222  30.862  12.596
50879W        W23947  17.543  27.500   3.179
50880W        W23948  29.124   3.897   0.678
50881W        W23949  28.944  41.275   0.819
50882W        W23950   4.097   7.173   4.746
50883W        W23951  30.897   3.641  14.443
50884W        W23952  13.996  43.641  11.867
50885W        W23953  27.643   7.016   0.778
50886W        W23954  21.518  39.272   1.691
50887W        W23955  40.971  30.527  13.113
50888W        W23956  32.613  21.142   2.346
50889W        W23957   3.914   9.865  11.437
50890W        W23958  40.898  28.672  13.949
50891W        W23959   0.988  26.934  11.682
50892W        W23960   7.913  27.529  10.524
50893W        W23961  43.054  30.931   1.160
50894W        W23962  20.256  29.216  11.159
50895W        W23963  38.793  39.428  12.610
50896W        W23964  20.585   1.755   4.965
50897W        W23965  28.068  17.167  13.060
50898W        W23966  22.730  39.462   4.533
50899W        W23967  20.073  33.200  13.005
50900W        W23968  36.649  41.033  14.831
50901W        W23969   2.953  10.181   0.017
50902W        W23970  35.385   0.358   0.809
50903W        W23971  16.073  16.539   0.376
50904W        W23972  31.882   6.240  12.877
50905W        W23973  12.711  19.155  10.159
50906W        W23974  27.258   2.725   0.663
50907W        W23975  36.904  35.293  11.271
50908W        W23976  36.154  36.103   0.399
50909W        W23977   7.746  11.698   3.636
50910W        W23978  29.275  39.571  10.582
50911W        W23979  37.812  37.017   3.194
50912W        W23980  22.748   7.852   0.853
50913W        W23981  16.239  16.518  14.743
50914W        W23982  31.345  27.713   2.855
50915W        W23983  10.729  35.317   0.378
50916W        W23984  37.398   9.882  13.941
50917W        W23985  27.653  18.263  11.568
50918W        W23986  44.836  12.374   2.849
50919W        W23987  24.710  17.002   2.877
50920W        W23988  21.544  11.946   4.581
50921W        W23989  19.525   4.506  14.358
50922W        W23990  30.485  34.153  10.713
50923W        W23991   4.888   8.042  14.518
50924W        W23992   9.589   0.537   4.669
50925W        W23993  27.644  21.178  13.544
50926W        W23994  42.808   9.169  10.595
50927W        W23995  34.616  40.447  12.920
50928W        W23996  42.433  27.974  11.609
50929W        W23997  39.010  38.088  12.215
50930W        W23998  14.937   3.676  10.174
50931W        W23999  28.946   4.674  10.785
50932W        W24000  16.696   8.871   1.815
50933W        W24001  19.810  30.696   1.185
50934W        W24002  11.236  34.339  14.878
50935W        W24003  31.969   4.768  13.907
50936W        W24004  24.007  38.404  10.614
50937W        W24005  27.636   8.105   0.448
50938W        W24006  15.829   1.269   1.381
50939W        W24007  11.447  33.973   1.385
50940W        W24008  11.925  13.494  14.468
50941W        W24009  16.158  25.084  13.955
50942W        W24010  14.172   6.012  10.382
50943W        W24011   7.741  18.568   4.156
50944W        W24012  18.045  29.006  12.783
50945W        W24013  19.473   6.037   4.006
50946W        W24014  14.238  12.075   2.433
50947W        W24015  28.759   0.409  14.991
50948W        W24016  42.105  18.003   1.825
50949W        W24017  23.175  19.042  10.461
50950W        W24018   9.703  13.750  10.726
50951W        W24019  11.626   9.039   3.203
50952W        W24020  29.470  43.746   3.663
50953W        W24021  16.087  21.989  13.509
50954W        W24022  19.511   5.217  10.639
50955W        W24023  41.959   8.664  13.917
50956W        W24024  36.888  33.140   2.366
50957W        W24025   4.043  26.155   2.568
50958W        W24026  35.979  21.577   3.669
50959W        W24027  19.243  32.025  10.693
50960W        W24028  19.237   4.885   2.228
50961W        W24029  37.967  16.190   3.207
50962W        W24030  39.848  19.607   3.542
50963W        W24031  21.654   5.289  12.453
50964W        W24032  38.268  14.100   4.427
50965W        W24033   4.688  33.830   3.320
50966W        W24034  38.927  40.310  14.066
50967W        W24035  20.104   6.161   2.403
50968W        W24036   6.671  21.185  14.489
50969W        W24037  26.640  40.009  14.830
50970W        W24038   1.284   9.212   2.870
50971W        W24039   3.177  17.104  13.790
50972W        W24040  21.292  29.450  13.975
50973W        W24041  31.643   5.256   3.256
50974W        W24042  27.207  10.824   0.307
50975W        W24043  32.494  36.277  11.179
50976W        W24044  41.740   2.817  12.490
50977W        W24045   3.372  13.204   0.299
50978W        W24046  26.923  23.767  12.043
50979W        W24047  12.715  37.596   3.433
50980W        W24048  19.099  13.608  12.643
50981W        W24049  39.191  41.122   4.179
50982W        W24050  26.578   2.513   0.266
50983W        W24051  13.591   8.569   3.173
50984W        W24052  37.605  33.989   4.898
50985W        W24053  35.306  40.959  13.527
50986W        W24054  43.407  20.308   4.528
50987W        W24055   2.318  12.912  10.391
50988W        W24056  12.572   2.686  13.822
50989W        W24057  44.184  35.323  12.065
50990W        W24058   3.917  25.664   0.127
50991W        W24059  25.953  30.403  10.410
50992W        W24060  40.286   3.462   1.740
50993W        W24061   2.551  25.782   4.660
50994W        W24062   6.738  16.073  12.228
50995W        W24063   3.935  30.492   3.120
50996W        W24064  22.601  17.209   3.693
50997W        W24065  30.744  38.193   1.984
50998W        W24066  16.211  13.639  10.706
50999W        W24067  24.657  12.164   1.298
51000W        W24068  14.608  30.025   4.657
51001W        W24069  32.475  16.947  13.461
51002W        W24070   2.001  23.227  10.819
51003W        W24071   4.426  25.933   1.230
51004W        W24072  30.607  27.659  12.118
51005W        W24073  11.109  39.375   2.314
51006W        W24074   7.259  24.721  12.373
51007W        W24075  15.235  17.540  13.074
51008W        W24076   8.800  27.184  14.000
51009W        W24077  27.902   4.169  12.908
51010W        W24078  31.886  15.693  14.945
51011W        W24079  12.175  11.410  10.715
51012W        W24080  43.312  24.970   3.276
51013W        W24081   1.513  29.010  12.151
51014W        W24082  12.706  15.470   0.753
51015W        W24083  43.939   0.439  10.875
51016W        W24084  24.067  43.872  13.794
51017W        W24085  33.038  33.164   3.813
51018W        W24086  25.523  41.221   2.894
51019W        W24087   4.282  22.511  13.452
51020W        W24088  12.820  29.582  14.921
51021W        W24089  42.925  24.435  13.900
51022W        W24090   5.763  30.943   3.337
51023W        W24091  38.746  40.727  13.847
51024W        W24092  25.937  28.891  13.883
51025W        W24093   5.159  30.371  11.243
51026W        W24094   6.203  16.241   3.223
51027W        W24095  41.018  13.790   2.364
51028W        W24096  21.110  11.756   2.883
51029W        W24097  14.790  10.719  12.190
51030W        W24098  13.324  25.524  14.813
51031W        W24099   1.549  18.054  11.089
51032W        W24100  39.298  41.316  13.498
51033W        W24101  37.808  41.333   3.783
51034W        W24102  28.009  30.586  13.299
51035W        W24103  40.792  13.395  12.979
51036W        W24104  39.913  42.482   2.221
51037W        W24105  27.953  26.081   3.693
51038W        W24106  22.164  25.074  14.355
51039W        W24107  43.768  24.290   0.003
51040W        W24108   1.660  27.784   0.963
51041W        W24109  11.566  29.430  14.323
51042W        W24110   8.872  21.128   4.080
51043W        W24111   9.860   9.782  11.896
51044W        W24112  24.175  33.438  10.797
51045W        W24113  21.504  12.242   1.908
51046W        W24114  13.179  40.563   1.163
51047W        W24115  11.072  22.182  13.401
51048W        W24116  38.205  15.618  14.771
51049W        W24117   3.418  24.698  10.730
51050W        W24118  37.567   2.190   0.130
51051W        W24119  18.085  44.352   3.160
51052W        W24120  18.712  36.886  14.440
51053W        W24121  11.656  37.370  12.899
51054W        W24122  10.682  17.640   0.402
51055W        W24123  37.007  15.956   3.309
51056W        W24124  36.483   2.226  12.416
51057W        W24125  37.833  42.894   4.859
51058W        W24126  16.897  35.345  13.384
51059W        W24127  35.236  32.153  10.567
51060W        W24128   3.998   8.473  13.844
51061W        W24129  29.232   3.850   3.232
51062W        W24130  19.136  40.613  11.497
51063W        W24131  26.973   9.111   9.830
51064W        W24132   6.227  13.845   0.249
51065W        W24133  12.198  32.962  11.280
51066W        W24134  28.911  13.316   2.650
51067W        W24135   0.534  35.174  10.493
51068W        W24136  31.643  28.175   1.774
51069W        W24137  12.212  42.203  14.036
51070W        W24138   2.413  24.272   1.329
51071W        W24139   8.026  12.534  13.532
51072W        W24140  31.696  27.943  13.012
51073W        W24141  14.264  18.209  11.358
51074W        W24142  13.668  30.952   4.781
51075W        W24143  43.855  29.117   0.944
51076W        W24144  44.326   4.490   5.133
51077W        W24145   2.908   6.665   0.491
51078W        W24146   7.364  29.192   4.306
51079W        W24147  39.620  33.630  13.044
51080W        W24148  13.784  21.619  10.955
51081W        W24149  23.451  33.912  11.281
51082W        W24150  27.970  36.541  11.594
51083W        W24151  30.973  14.668  10.806
51084W        W24152  39.494  16.320  12.160
51085W        W24153  21.215  24.288  12.596
51086W        W24154  38.840  11.104   1.391
51087W        W24155  40.968  35.883   3.513
51088W        W24156  36.040  13.822   1.033
51089W        W24157  34.842   9.638  11.042
51090W        W24158   4.652   0.967  10.807
51091W        W24159  17.080  36.545   2.897
51092W        W24160  27.621  40.850  14.242
51093W        W24161  41.937  17.105   1.741
51094W        W24162  33.108  12.782  14.201
51095W        W24163   8.338  17.323  14.306
51096W        W24164  21.275  21.597   3.095
51097W        W24165  18.570  32.364  13.351
51098W        W24166  28.195   2.398   1.136
51099W        W24167  34.061  20.251  12.372
51100W        W24168  17.009  40.890  14.914
51101W        W24169  28.941  44.145  13.485
51102W        W24170  33.951  28.189   1.323
51103W        W24171   8.718   1.992  11.685
51104W        W24172   1.720  18.241   3.652
51105W        W24173  27.702   0.455   1.755
51106W        W24174   5.337   1.770   3.150
51107W        W24175  29.095   5.685  12.962
51108W        W24176  19.301  13.743  12.013
51109W        W24177  37.494  13.079   2.332
51110W        W24178  31.491   7.157  11.112
51111W        W24179   4.525   1.695  13.050
51112W        W24180   4.793  15.120   1.258
51113W        W24181  32.652   7.881   0.224
51114W        W24182   5.358  41.070  14.806
51115W        W24183  33.709   0.205  10.878
51116W        W24184  36.895  15.111  13.577
51117W        W24185  39.760  27.513  11.219
51118W        W24186  38.026   2.402   1.466
51119W        W24187  34.844  37.781   0.612
51120W        W24188   6.217  27.568   4.106
51121W        W24189  30.515   3.456   1.857
51122W        W24190  14.435   5.389   1.899
51123W        W24191  33.130   3.828  13.662
51124W        W24192  30.103  11.565   2.898
51125W        W24193  10.195  12.846   3.292
51126W        W24194  43.063  13.294  13.418
51127W        W24195  39.264  44.488  12.964
51128W        W24196  15.621  21.839   4.513
51129W        W24197  44.511  16.083   4.767
51130W        W24198  35.370  11.472   0.324
51131W        W24199  23.663  18.805   2.394
51132W        W24200  33.073   8.313   3.283
51133W        W24201   2.543  40.899   0.555
51134W        W24202  28.046  19.309  12.985
51135W        W24203  11.881  12.764   4.195
51136W        W24204  35.006  29.509  14.540
51137W        W24205  33.113  31.626  13.947
51138W        W24206  34.193  29.044  10.623
51139W        W24207  22.721  29.693  12.443
51140W        W24208  34.428  32.357   3.273
51141W        W24209   1.775  43.805   3.893
51142W        W24210  33.883  31.177  11.860
51143W        W24211  23.452  31.292  14.857
51144W        W24212  31.377   8.898   3.220
51145W        W24213   4.419  42.015  12.624
51146W        W24214  16.754  24.194   3.607
51147W        W24215  23.638  10.974  11.232
51148W        W24216  32.320   7.855  12.475
51149W        W24217  40.491   9.462   1.245
51150W        W24218  24.119   6.617   4.999
51151W        W24219   9.827  18.677  14.887
51152W        W24220  40.748  24.422   1.810
51153W        W24221   9.084   1.487   3.277
51154W        W24222   2.985  37.485   2.754
51155W        W24223  28.697  28.049  11.014
51156W        W24224  41.837   2.690  11.465
51157W        W24225  24.606  19.028  11.459
51158W        W24226  40.287  42.341  12.469
51159W        W24227  39.025  20.526  12.120
51160W        W24228   0.544   9.324   0.949
51161W        W24229  29.581  32.018  12.523
51162W        W24230  23.757  24.503   3.739
51163W        W24231  41.453  40.871  12.428
51164W        W24232  32.074  11.276  11.635
51165W        W24233   6.660  22.091  12.481
51166W        W24234  29.757  32.313   1.214
51167W        W24235  34.417   0.823   2.676
51168W        W24236  11.276  39.901  12.112
51169W        W24237  26.286  27.483  11.584
51170W        W24238  34.891  27.057   3.144
51171W        W24239   2.773  28.615  12.308
51172W        W24240  12.335  26.432  11.953
51173W        W24241  19.009  31.376   2.702
51174W        W24242   3.332   2.319   4.411
51175W        W24243  19.707  40.403  11.163
51176W        W24244  43.534  19.536   0.270
51177W        W24245   0.736  10.375  14.519
51178W        W24246   9.728  16.527  11.549
51179W        W24247  40.281  36.626  12.519
51180W        W24248   8.815  36.662  13.513
51181W        W24249  12.590  15.141  13.243
51182W        W24250   4.533  37.097   0.832
51183W        W24251  34.527  25.330   1.222
51184W        W24252  33.353  34.605  12.553
51185W        W24253   6.230  12.576   3.161
51186W        W24254  14.094  23.742   3.078
51187W        W24255  24.359  35.624  14.240
51188W        W24256  41.844  41.625  14.777
51189W        W24257  13.202  27.892  12.894
51190W        W24258  40.011  15.824  11.897
51191W        W24259  31.817   3.420  13.434
51192W        W24260  21.649  39.866  14.149
51193W        W24261  41.403  25.961   4.095
51194W        W24262  17.716  20.438   3.677
51195W        W24263  35.987   3.459  12.797
51196W        W24264  31.485  35.919   0.078
51197W        W24265  11.091   7.906  13.030
51198W        W24266   7.538  25.027  11.999
51199W        W24267  32.378  43.303  11.010
51200W        W24268   9.976  33.540   2.661
51201W        W24269   7.274  23.907   4.381
51202W        W24270  43.754   6.900   5.078
51203W        W24271  37.321  27.424   0.730
51204W        W24272  30.541  34.203   1.792
51205W        W24273   5.328   2.849   1.845
51206W        W24274  43.751  41.134   2.308
51207W        W24275  43.418  16.873   1.718
51208W        W24276   9.759  28.323   1.423
51209W        W24277  44.541  27.038  12.417
51210W        W24278  38.036  37.577  13.248
51211W        W24279  14.566  29.882  13.350
51212W        W24280  28.657  21.455  12.502
51213W        W24281  18.254   2.168  14.841
51214W        W24282  32.394  31.948  14.011
51215W        W24283  17.280  44.493   4.051
51216W        W24284  38.100  37.918  11.200
51217W        W24285  44.400   6.263  12.982
51218W        W24286  25.762  26.676   4.699
51219W        W24287  14.136  16.635   3.166
51220W        W24288   6.397  28.001   2.135
51221W        W24289  16.634  31.333  14.017
51222W        W24290  35.700  24.508   3.561
51223W        W24291  19.978  21.352   4.160
51224W        W24292  21.732   9.632   2.240
51225W        W24293  42.487   1.451  11.984
51226W        W24294  32.906  23.678  12.581
51227W        W24295  30.536  29.195   4.152
51228W        W24296  40.353  13.200   3.815
51229W        W24297  22.297  38.766  14.478
51230W        W24298  42.910  10.236  11.464
51231W        W24299  35.584  34.081   3.681
51232W        W24300  12.310   1.029  11.125
51233W        W24301  20.249  12.099  11.220
51234W        W24302  22.156  20.653  13.556
51235W        W24303  42.133  41.056  12.985
51236W        W24304   3.369  39.876  14.775
51237W        W24305  31.174  33.999   2.341
51238W        W24306  17.604  24.225  13.801
51239W        W24307  40.594   5.863   1.458
51240W        W24308  36.514  18.595  11.470
51241W        W24309  20.647  43.740  13.736
51242W        W24310  26.147  38.042  13.119
51243W        W24311  43.788  43.790   2.791
51244W        W24312   3.363  26.477   3.684
51245W        W24313  22.757  25.387   9.898
51246W        W24314  11.148  31.917   5.036
51247W        W24315  20.567  30.425   2.331
51248W        W24316  39.593  23.295   0.432
51249W        W24317  42.589  11.215   4.688
51250W        W24318  12.537   8.875   3.368
51251W        W24319  28.301  36.487  13.312
51252W        W24320  28.729   1.263  12.689
51253W        W24321  30.464   9.566   3.742
51254W        W24322   8.632   9.963  11.151
51255W        W24323  44.238   5.379   2.761
51256W        W24324  43.869  11.667  11.560
51257W        W24325   2.815  42.334   1.529
51258W        W24326  23.466  24.758   3.396
51259W        W24327  35.659  38.477  12.512
51260W        W24328  19.717  19.164   1.628
51261W        W24329  15.711  33.820   2.714
51262W        W24330  17.203  31.387  12.496
51263W        W24331   3.303  34.416  10.680
51264W        W24332  42.806  16.102  12.013
51265W        W24333  38.813  11.432   3.568
51266W        W24334  43.435   3.801  13.338
51267W        W24335  12.326  34.513  13.089
51268W        W24336  25.492  13.130  11.650
51269W        W24337   3.290   5.366   4.304
51270W        W24338   3.763   4.868   9.812
51271W        W24339  30.507  37.364  13.954
51272W        W24340   3.260  23.939   2.672
51273W        W24341  39.162  18.316   9.962
51274W        W24342  22.080  14.812  13.033
51275W        W24343   1.325  17.892  13.905
51276W        W24344  11.127  44.267  12.877
51277W        W24345  22.392  11.715  11.610
51278W        W24346  33.488  35.947   3.816
51279W        W24347  34.144   5.434   2.261
51280W        W24348  19.278  38.819   4.733
51281W        W24349  37.949  11.566  12.908
51282W        W24350  27.564   5.669  10.712
51283W        W24351  25.418  39.934   2.706
51284W        W24352  38.369   0.894   4.196
51285W        W24353  42.080  34.361  14.770
51286W        W24354  30.688  44.558  14.510
51287W        W24355  17.336  10.771  11.078
51288W        W24356  24.704  37.446   4.206
51289W        W24357  29.685  34.650   1.623
51290W        W24358  41.418  10.290   1.719
51291W        W24359   1.716   9.413  11.055
51292W        W24360  21.573  19.283   2.200
51293W        W24361  26.632  39.589  13.911
51294W        W24362  26.528  30.607   0.262
51295W        W24363  20.048  15.864  12.822
51296W        W24364   6.300  15.315   0.829
51297W        W24365  43.281  19.601  13.407
51298W        W24366  21.970   2.149  12.335
51299W        W24367   0.107  22.167  12.429
51300W        W24368   1.908  22.001   1.445
51301W        W24369  28.098  24.708   4.902
51302W        W24370  28.467  33.493   0.686
51303W        W24371   7.456  11.942  12.133
51304W        W24372   6.139  36.543   2.142
51305W        W24373  34.672  13.881   4.185
51306W        W24374  16.354  13.354  13.974
51307W        W24375  16.367  43.256  14.394
51308W        W24376   7.850  28.102   4.650
51309W        W24377   7.785  11.662  14.380
51310W        W24378  22.653  33.057  13.928
51311W        W24379  14.095  19.850   0.920
51312W        W24380  21.343  23.604   4.648
51313W        W24381  31.913  20.702  14.983
51314W        W24382   1.594   0.835  12.778
51315W        W24383  15.022   0.294   3.910
51316W        W24384  27.092  14.403  12.469
51317W        W24385  44.264  17.800   2.150
51318W        W24386  30.639  14.123   1.228
51319W        W24387  35.614  21.373   4.021
51320W        W24388   2.417  20.653  11.217
51321W        W24389  44.425   2.629  13.362
51322W        W24390  36.895  37.990   4.066
51323W        W24391  34.701  41.908   4.868
51324W        W24392  15.259  17.076  10.406
51325W        W24393  42.162  43.073  10.648
51326W        W24394   5.656  22.698  11.608
51327W        W24395  29.428  35.466   1.356
51328W        W24396  22.121   7.227   3.248
51329W        W24397  25.992  18.112   2.277
51330W        W24398  43.636   2.256   0.471
51331W        W24399   0.174  38.861   2.701
51332W        W24400  27.817   9.951  14.360
51333W        W24401  30.057  44.915  13.644
51334W        W24402  33.356  21.027   1.766
51335W        W24403  15.157  21.705  11.646
51336W        W24404   0.010  38.549  14.954
51337W        W24405  27.247   8.270  10.770
51338W        W24406  14.682  26.739   2.471
51339W        W24407  43.235   4.930   2.350
51340W        W24408  35.084   2.908  14.910
51341W        W24409  27.686  32.065   2.816
51342W        W24410  20.526  28.245   0.327
51343W        W24411   1.561   8.349   2.855
51344W        W24412  25.948  31.195   2.198
51345W        W24413  24.042   0.111   4.211
51346W        W24414  20.687  27.165   4.200
51347W        W24415  39.907  17.054  14.937
51348W        W24416  44.416   5.740   0.260
51349W        W24417  20.778   0.055   4.107
51350W        W24418  28.994  18.265  11.555
51351W        W24419   8.211  30.980   3.664
51352W        W24420  30.210   1.287   1.824
51353W        W24421  34.201  28.642   3.682
51354W        W24422  22.713  28.649   0.262
51355W        W24423  19.097  32.542  13.304
51356W        W24424   7.417   1.412  14.982
51357W        W24425  22.541  19.927  11.490
51358W        W24426  30.284  15.752   4.419
51359W        W24427   8.314  36.403   0.752
51360W        W24428  35.148  33.139   4.989
51361W        W24429  15.549  24.092  12.605
51362W        W24430  29.081  29.330  14.214
51363W        W24431  25.876  40.857   2.752
51364W        W24432  31.799  20.528  13.357
51365W        W24433  21.161  42.355  14.679
51366W        W24434  20.698  44.332   3.670
51367W        W24435  38.243  16.046  13.741
51368W        W24436  38.927  25.056  10.347
51369W        W24437  33.625  19.627  13.823
51370W        W24438  29.543  27.911   3.278
51371W        W24439  31.089  13.883   4.216
51372W        W24440  16.074  11.382   0.865
51373W        W24441  38.370  17.411   0.679
51374W        W24442  11.569  15.045   0.419
51375W        W24443  16.320   1.522  14.754
51376W        W24444   5.449  13.501   0.376
51377W        W24445  39.762  16.969   3.679
51378W        W24446  27.647   2.300  14.897
51379W        W24447  28.134  16.183  11.860
51380W        W24448  31.426  42.858   4.905
51381W        W24449  37.201   1.331   4.523
51382W        W24450  10.971  11.072   4.198
51383W        W24451  28.733   4.370   3.763
51384W        W24452  16.139  31.952   1.299
51385W        W24453  25.390  11.575  11.429
51386W        W24454  37.582  13.861   0.998
51387W        W24455  23.011  41.944  12.503
51388W        W24456   2.060   5.224  12.245
51389W        W24457  29.329   5.459  13.430
51390W        W24458   9.931  20.653   1.800
51391W        W24459   8.678  31.542  10.866
51392W        W24460   7.321  32.571  10.752
51393W        W24461  22.668  34.975  13.449
51394W        W24462  26.926  18.190  13.778
51395W        W24463  42.264   1.058  10.849
51396W        W24464  12.442  44.346  13.124
51397W        W24465   3.339  44.512  12.377
51398W        W24466  27.121  39.130  11.189
51399W        W24467  20.090  13.611   1.996
51400W        W24468  33.123   5.251   3.176
51401W        W24469  12.171   2.037  13.255
51402W        W24470  25.027   1.179  14.964
51403W        W24471  23.627   9.677   1.278
51404W        W24472  41.612  40.181   1.424
51405W        W24473  18.787   1.250   2.618
51406W        W24474  15.768  34.334   2.698
51407W        W24475  36.851  10.365   4.340
51408W        W24476  24.689  44.703  14.332
51409W        W24477  12.181  25.237   2.746
51410W        W24478  38.357  39.728  14.981
51411W        W24479  17.090  10.348   4.645
51412W        W24480  12.314  36.485   1.298
51413W        W24481  15.414  19.811   0.933
51414W        W24482  36.399  12.172   2.871
51415W        W24483   5.640  17.737  12.661
51416W        W24484   3.202  43.759   1.221
51417W        W24485  11.833  19.314  14.032
51418W        W24486  30.030  22.448  11.211
51419W        W24487  28.220   2.955   2.866
51420W        W24488  42.036  38.874  13.487
51421W        W24489  30.629  40.902  13.550
51422W        W24490  42.242  37.534  13.271
51423W        W24491  37.766   5.796   3.296
51424W        W24492   3.327   9.418  12.624
51425W        W24493   2.534  32.458   3.902
51426W        W24494  36.058  39.500  10.926
51427W        W24495   3.934  33.984  12.960
51428W        W24496  11.854  42.227  12.563
51429W        W24497  43.656  11.124   3.258
51430W        W24498  22.261   6.205  14.338
51431W        W24499  30.733  38.511   4.732
51432W        W24500  43.247  19.497   3.697
51433W        W24501  24.603  15.248   0.798
51434W        W24502  28.023   7.779  14.999
51435W        W24503  33.275  24.160   3.775
51436W        W24504  11.275  15.749  10.926
51437W        W24505  22.069  37.157   1.420
51438W        W24506  32.108  37.765   2.666
51439W        W24507  33.638  35.460   2.716
51440W        W24508  14.496  11.331  12.889
51441W        W24509  30.662  24.390   5.072
51442W        W24510  37.647  11.487  10.114
51443W        W24511  37.044  11.690  14.805
51444W        W24512  33.783  36.424   4.972
51445W        W24513  35.390   7.135  14.734
51446W        W24514   2.988  34.445   2.781
51447W        W24515  16.650  28.512  13.598
51448W        W24516  19.528  13.745   4.888
51449W        W24517  21.315  22.060  12.679
51450W        W24518  43.718   3.518   0.770
51451W        W24519  29.559   0.677   4.299
51452W        W24520  40.812   3.387   2.661
51453W        W24521  23.769  29.981   3.164
51454W        W24522  38.876  21.505   1.195
51455W        W24523  24.561  18.117  12.545
51456W        W24524  25.131  11.953   1.182
51457W        W24525  39.851  14.878   1.829
51458W        W24526   7.311  38.583   0.761
51459W        W24527  40.076  44.015   1.839
51460W        W24528  22.653   7.744  13.937
51461W        W24529   6.830  20.497  12.035
51462W        W24530  21.809  37.079  14.031
51463W        W24531   6.182  34.857   3.770
51464W        W24532   5.006   8.621   4.560
51465W        W24533  25.059  41.354  14.454
51466W        W24534  31.621  41.592   2.602
51467W        W24535   7.362   0.261  14.304
51468W        W24536   6.026   4.258   1.031
51469W        W24537  37.794  38.978   1.716
51470W        W24538  42.911  23.468   0.520
51471W        W24539  29.718  12.102  12.421
51472W        W24540  26.488  38.600  13.850
51473W        W24541  33.051  12.707   1.143
51474W        W24542  42.389   5.699   4.279
51475W        W24543   8.812  31.832  11.338
51476W        W24544  26.232  13.365  11.160
51477W        W24545  32.252  41.931  12.080
51478W        W24546  40.884  17.875   4.303
51479W        W24547   8.764  19.021  11.144
51480W        W24548  18.675  33.093  14.362
51481W        W24549  27.073  34.398   3.894
51482W        W24550  16.066  29.173   0.040
51483W        W24551  36.746  27.727   1.979
51484W        W24552   1.671   5.375   3.593
51485W        W24553   8.426  13.033   2.375
51486W        W24554  39.539  42.041   1.244
51487W        W24555  38.269  39.199   1.804
51488W        W24556  23.650  14.201   3.744
51489W        W24557  13.204  30.937  12.963
51490W        W24558  18.550  20.546  14.389
51491W        W24559  43.579  28.044   0.499
51492W        W24560  15.164   0.149   4.769
51493W        W24561  44.375   6.176   2.317
51494W        W24562  20.236  27.936  10.260
51495W        W24563  10.678  22.967  12.031
51496W        W24564   3.665   0.722   3.208
51497W        W24565   5.411  18.873   4.686
51498W        W24566   2.398   8.958  12.625
51499W        W24567  24.713  42.399   1.942
51500W        W24568  36.978   4.903  12.148
51501W        W24569  11.090  29.943  13.533
51502W        W24570   2.801  22.943   4.606
51503W        W24571  26.418  18.715   1.171
51504W        W24572  41.981  12.585   3.148
51505W        W24573  27.537  16.162  13.874
51506W        W24574  35.573   5.496  14.505
51507W        W24575  39.338  37.069   2.728
51508W        W24576  41.762  18.569  12.875
51509W        W24577   7.352   7.168   4.513
51510W        W24578   4.424  39.803  12.532
51511W        W24579  30.148  39.782   1.464
51512W        W24580  37.552   3.816  14.811
51513W        W24581  30.011   7.686  14.559
51514W        W24582  15.681  37.349   3.187
51515W        W24583  14.312  19.106   4.824
51516W        W24584  44.520   7.924  11.514
51517W        W24585  11.883   5.819  12.316
51518W        W24586  13.634  29.988   1.392
51519W        W24587   4.722  12.353   0.947
51520W        W24588  28.275  16.684  11.890
51521W        W24589  36.500  16.926   1.146
51522W        W24590  32.558  22.055   2.815
51523W        W24591  39.444  36.456  12.783
51524W        W24592  21.193  30.874   0.866
51525W        W24593  16.382   8.659   2.237
51526W        W24594  26.708  25.039   0.001
51527W        W24595   6.650  44.620   3.187
51528W        W24596   3.453  21.761   0.073
51529W        W24597  19.496  42.971  11.622
51530W        W24598  31.959  44.521  11.036
51531W        W24599  32.656  40.851  14.899
51532W        W24600  22.034   7.982   3.918
51533W        W24601  27.151  12.608   1.947
51534W        W24602  32.048   4.526   3.781
51535W        W24603  18.603   5.883  14.404
51536W        W24604  11.816   5.743   0.898
51537W        W24605  10.732   1.162  14.319
51538W        W24606  37.659  13.198   4.825
51539W        W24607  42.977  12.635   1.197
51540W        W24608   7.427  36.561  11.496
51541W        W24609  26.268  40.544   4.298
51542W        W24610  40.932  40.763  11.669
51543W        W24611  35.595  40.212  12.026
51544W        W24612   2.432   9.158  14.414
51545W        W24613  35.116  37.433  10.138
51546W        W24614  44.999  29.369   3.112
51547W        W24615  26.081   0.883   4.540
51548W        W24616  11.232  40.928   4.031
51549W        W24617  40.470  17.725  12.984
51550W        W24618  17.703   5.919   4.660
51551W        W24619   0.384  15.243   0.430
51552W        W24620  31.378  18.569  14.452
51553W        W24621  40.175  29.174   2.426
51554W        W24622  40.851   5.671   1.016
51555W        W24623  17.482  40.909   1.149
51556W        W24624   0.684  31.615  11.177
51557W        W24625   6.216  28.429   1.143
51558W        W24626   0.216  23.573   3.254
51559W        W24627  38.932  27.000  14.677
51560W        W24628  39.523  13.732   3.302
51561W        W24629  43.478  11.911   2.928
51562W        W24630  25.961  43.433   2.411
51563W        W24631  10.894  19.646  13.346
51564W        W24632  29.105  38.557  13.806
51565W        W24633  25.582  27.882   4.645
51566W        W24634  26.531  27.146  13.322
51567W        W24635  12.430  38.525  14.734
51568W        W24636   7.271  41.427   5.094
51569W        W24637  38.747  42.362  12.477
51570W        W24638  25.202  19.843  10.437
51571W        W24639  13.274   9.240  11.247
51572W        W24640  18.773   6.688   4.143
51573W        W24641  16.318  18.389  13.437
51574W        W24642  40.884  25.685  12.190
51575W        W24643  35.363  10.879   0.620
51576W        W24644  39.976  15.743   3.201
51577W        W24645  37.530   9.841  12.924
51578W        W24646  43.425   9.011   4.215
51579W        W24647  42.834  22.296  11.163
51580W        W24648  39.107  36.854   4.646
51581W        W24649  12.843   3.459  13.396
51582W        W24650   8.462  30.048  13.390
51583W        W24651  33.403  25.026  12.920
51584W        W24652   9.860  20.149   2.096
51585W        W24653  29.502  32.947  12.168
51586W        W24654  13.334  36.096  11.367
51587W        W24655  40.705  15.572   5.008
51588W        W24656  44.497  25.294   4.716
51589W        W24657  30.600  26.226   0.137
51590W        W24658  31.642   3.694   3.792
51591W        W24659  41.225  28.414  14.762
51592W        W24660  42.775  43.218  13.318
51593W        W24661   4.249  34.120  14.872
51594W        W24662  11.307  16.825   2.687
51595W        W24663  38.034   9.159  13.540
51596W        W24664  41.306  44.473   2.228
51597W        W24665  18.764  41.857   4.598
51598W        W24666  25.793  29.125   0.843
51599W        W24667  10.695  43.721  12.504
51600W        W24668  12.548   2.867  11.339
51601W        W24669  43.356  17.291  10.533
51602W        W24670  28.484   9.217  13.622
51603W        W24671  35.835  38.786   0.856
51604W        W24672  25.312  32.172   1.525
51605W        W24673  35.873   2.965  12.933
51606W        W24674   5.939  15.161  13.555
51607W        W24675  32.649  24.533   1.366
51608W        W24676  21.620  14.095   2.359
51609W        W24677  12.282   3.180  12.487
51610W        W24678  11.709  13.848   3.191
51611W        W24679  26.730   5.426   4.624
51612W        W24680  36.585  22.591   0.904
51613W        W24681  13.146  43.779  12.301
51614W        W24682  26.094  23.321   3.217
51615W        W24683  36.064  36.609  11.828
51616W        W24684  12.726  32.413   1.855
51617W        W24685  16.064   9.997  11.068
51618W        W24686   4.274  25.222   3.231
51619W        W24687  40.850  13.824   1.760
51620W        W24688   1.717  12.707   2.834
51621W        W24689  35.171  18.525   3.710
51622W        W24690  36.676  20.226  14.575
51623W        W24691  43.774  12.335   2.808
51624W        W24692  27.478  18.023   3.147
51625W        W24693  30.980  41.005  13.991
51626W        W24694  12.067  19.050   0.886
51627W        W24695   4.812  25.519   4.260
51628W        W24696  36.528  29.881   1.295
51629W        W24697  22.568   0.881  11.479
51630W        W24698  16.189   3.406   1.356
51631W        W24699  23.237  41.890   0.326
51632W        W24700  16.889  40.847   3.776
51633W        W24701  25.335   6.703  11.359
51634W        W24702  34.429  35.113   4.711
51635W        W24703  16.159  12.908   0.928
51636W        W24704   5.993  39.398  11.475
51637W        W24705  42.843  43.157  14.743
51638W        W24706  29.691   5.457   4.727
51639W        W24707  36.816   2.954  13.022
51640W        W24708  39.023  34.825  13.011
51641W        W24709   1.494  29.772   4.107
51642W        W24710   8.615  44.325  12.575
51643W        W24711  42.192  24.394   2.938
51644W        W24712  19.334  14.185   3.835
51645W        W24713   0.144  43.011  11.869
51646W        W24714  12.176  36.952  13.482
51647W        W24715  20.936  41.951   0.443
51648W        W24716   5.468   9.915  11.435
51649W        W24717  15.991  12.903  11.056
51650W        W24718  15.915  40.857   4.632
51651W        W24719  16.767  26.069  10.790
51652W        W24720   3.341   5.132  10.693
51653W        W24721  39.574   6.335  10.756
51654W        W24722  19.030   7.260  11.579
51655W        W24723  31.824  26.501   4.055
51656W        W24724  44.173  37.977   4.537
51657W        W24725   0.995  13.333  11.437
51658W        W24726  32.905  12.341  11.521
51659W        W24727  39.105   7.566   1.736
51660W        W24728  19.535  31.037  12.466
51661W        W24729  32.697  41.309   3.532
51662W        W24730  29.067  32.632  12.894
51663W        W24731  42.091  12.602   0.466
51664W        W24732  29.366  12.746  14.558
51665W        W24733   8.174   2.376  11.255
51666W        W24734  40.798  13.155   0.443
51667W        W24735  17.308   7.226  14.397
51668W        W24736   4.530  34.007  14.411
51669W        W24737  12.585  11.787   2.341
51670W        W24738  32.429  17.390  10.795
51671W        W24739  39.955  40.460  11.630
51672W        W24740   7.277  31.829  13.814
51673W        W24741  41.129  41.101   2.384
51674W        W24742  32.639  28.519  12.651
51675W        W24743   8.845  40.846  12.929
51676W        W24744  26.147  41.329   4.025
51677W        W24745  19.222  16.601   4.914
51678W        W24746  12.269  35.017  12.299
51679W        W24747   9.089   1.514  13.512
51680W        W24748  20.258  33.465   4.077
51681W        W24749   6.160  43.554   4.402
51682W        W24750  39.336  15.240  11.109
51683W        W24751   8.731  16.089  13.552
51684W        W24752  25.191   4.996   4.053
51685W        W24753  15.241   3.787  12.140
51686W        W24754  20.481  24.524  13.461
51687W        W24755   9.381  36.453  14.856
51688W        W24756  19.844  23.250   1.863
51689W        W24757  25.660  31.838  13.864
51690W        W24758  22.455  13.025   3.252
51691W        W24759  26.464  36.425   0.764
51692W        W24760  13.548  11.575   2.159
51693W        W24761  42.085  17.804  11.081
51694W        W24762  25.253  37.924   0.760
51695W        W24763   8.746  35.268  14.819
51696W        W24764  10.163  18.053  14.512
51697W        W24765  20.997   5.429   1.207
51698W        W24766  26.187  24.189  11.832
51699W        W24767  28.461  22.180   2.684
51700W        W24768   4.566   6.989  11.649
51701W        W24769  43.842  34.142   0.309
51702W        W24770  10.830   2.897   3.157
51703W        W24771  40.717  25.897  14.405
51704W        W24772  17.605   3.446  10.639
51705W        W24773  12.834  28.597  12.576
51706W        W24774   3.156  37.515   4.585
51707W        W24775  23.996  37.326   2.907
51708W        W24776  21.300  13.393  13.811
51709W        W24777  27.454  35.770   3.781
51710W        W24778   8.253   6.695   0.060
51711W        W24779  44.998  16.053   2.166
51712W        W24780  12.768  14.375   1.813
51713W        W24781  10.027  13.874   2.363
51714W        W24782  18.495  22.214  13.795
51715W        W24783  24.541  23.225  12.895
51716W        W24784   4.871  21.545   4.911
51717W        W24785  33.626  27.390  14.416
51718W        W24786  31.333   1.410  10.886
51719W        W24787  42.798   9.260   2.681
51720W        W24788  35.915  14.521   2.303
51721W        W24789  28.027  10.000   1.030
51722W        W24790  19.657  24.139  12.388
51723W        W24791  25.866  26.676  13.370
51724W        W24792  28.164   7.786   2.006
51725W        W24793  41.553  36.271  14.491
51726W        W24794  28.482   8.908   1.907
51727W        W24795   3.353  28.930   3.713
51728W        W24796  24.692  13.879   1.970
51729W        W24797  12.102  31.572   3.332
51730W        W24798  27.057  19.566  13.804
51731W        W24799  17.480  11.560  13.918
51732W        W24800   9.836  17.005   4.999
51733W        W24801  22.322  23.136  14.460
51734W        W24802  16.240  15.011   0.567
51735W        W24803  41.261  23.908  13.848
51736W        W24804  20.590  37.540   3.616
51737W        W24805  14.556  17.132  12.454
51738W        W24806  29.736  17.072  11.931
51739W        W24807   3.371  44.454   2.054
51740W        W24808  11.106  22.242   3.117
51741W        W24809  24.144  22.985   1.813
51742W        W24810  42.575  20.635  11.539
51743W        W24811   3.731  12.702   2.247
51744W        W24812  44.886   6.083  14.870
51745W        W24813  35.097  41.573  14.672
51746W        W24814  29.668  25.458  13.065
51747W        W24815   4.920  18.246  11.747
51748W        W24816  24.911  25.268   0.386
51749W        W24817  22.498  42.375   4.398
51750W        W24818   4.250  30.715   4.356
51751W        W24819   6.759  15.686   9.961
51752W        W24820  37.609  27.446  11.719
51753W        W24821  30.437  43.508  10.462
51754W        W24822  43.023   4.956   1.687
51755W        W24823  20.184   0.742  14.462
51756W        W24824  44.344  29.479  14.752
51757W        W24825  22.306  10.300   4.128
51758W        W24826  20.137  18.670  12.111
51759W        W24827  21.237  23.901   1.222
51760W        W24828  26.006  12.604  12.584
51761W        W24829  34.436  15.359  13.070
51762W        W24830  32.127   6.139  11.271
51763W        W24831  28.102  31.394   1.399
51764W        W24832  21.902  11.342   0.972
51765W        W24833  37.340  13.401  10.965
51766W        W24834  36.343  10.871   1.437
51767W        W24835  15.008  28.437   1.343
51768W        W24836  31.201   5.394  12.472
51769W        W24837   8.650   7.174   3.744
51770W        W24838  20.729  18.059  11.970
51771W        W24839  37.611  38.469  11.965
51772W        W24840  31.980  14.511   0.368
51773W        W24841   1.013  26.099   1.776
51774W        W24842  36.115  35.551  14.294
51775W        W24843  22.580   5.105  13.387
51776W        W24844  18.189  28.634  11.907
51777W        W24845  32.922  33.460   2.423
51778W        W24846  41.282  30.625   4.121
51779W        W24847   3.197  39.965   1.743
51780W        W24848  19.066   8.127   0.589
51781W        W24849  19.147   1.911  11.551
51782W        W24850  20.827  21.131  12.965
51783W        W24851  40.921  12.631   1.619
51784W        W24852  41.954  13.715   5.578
51785W        W24853  17.459   7.814   4.134
51786W        W24854  28.622   3.010   0.776
51787W        W24855  40.347  22.926   1.251
51788W        W24856  23.565  24.181   4.173
51789W        W24857   1.615  22.783   0.992
51790W        W24858  43.715   7.289   0.716
51791W        W24859  24.667  35.020   2.711
51792W        W24860  19.204  43.850   2.901
51793W        W24861  29.657  33.818  13.962
51794W        W24862   3.674  11.715   3.735
51795W        W24863  38.405  11.804  11.437
51796W        W24864   1.753  41.800  12.870
51797W        W24865  21.357  10.066   5.345
51798W        W24866  16.100   9.330  11.521
51799W        W24867   1.445   6.670   0.843
51800W        W24868  15.060   8.773   3.124
51801W        W24869  44.528  36.218   1.378
51802W        W24870  19.240   0.865  13.422
51803W        W24871  36.483  41.333  14.417
51804W        W24872  29.072  36.593  10.654
51805W        W24873  24.676  29.166  10.752
51806W        W24874  15.942   6.543  13.775
51807W        W24875  36.383  26.490  11.395
51808W        W24876  38.798  29.500  13.780
51809W        W24877  35.618   1.267   1.752
51810W        W24878  31.386  19.490  14.368
51811W        W24879  44.400  43.615   2.864
51812W        W24880  19.356  36.418  11.987
51813W        W24881  16.850   1.387   0.457
51814W        W24882  33.613   9.396  11.451
51815W        W24883   6.645  39.975   0.975
51816W        W24884  30.058  30.057   3.173
51817W        W24885   3.725  39.746  13.482
51818W        W24886  19.094  26.261  13.803
51819W        W24887  22.970  35.385  11.404
51820W        W24888   9.232  39.923  10.651
51821W        W24889  30.140  20.483   1.462
51822W        W24890  17.693   0.093   3.658
51823W        W24891  40.995  14.220  13.422
51824W        W24892  35.326  20.828   3.858
51825W        W24893  29.909  41.906   2.927
51826W        W24894  38.294  35.053  11.536
51827W        W24895  24.705   5.732   0.522
51828W        W24896  20.538   2.064  13.906
51829W        W24897  17.259  38.019  13.841
51830W        W24898   3.256  20.874  14.882
51831W        W24899  29.942  37.657   1.868
51832W        W24900  25.703   0.338  11.160
51833W        W24901  40.266  13.691   2.832
51834W        W24902  40.876  26.462  10.217
51835W        W24903  32.334  23.656   2.242
51836W        W24904  31.730   1.936   1.231
51837W        W24905  32.537  19.318  12.049
51838W        W24906  43.126   5.655   4.855
51839W        W24907  29.515  29.200   1.013
51840W        W24908  37.849  17.976  13.700
51841W        W24909  44.632  34.904   3.608
51842W        W24910  44.331  33.161  14.388
51843W        W24911  10.393   7.721   2.695
51844W        W24912  26.425  22.330   1.300
51845W        W24913  43.916   5.744  12.013
51846W        W24914  29.882  30.133  12.315
51847W        W24915  24.041  36.975  13.960
51848W        W24916  19.567  20.157   2.305
51849W        W24917  13.376  13.640   0.993
51850W        W24918  30.582  26.516   1.717
51851W        W24919   7.198  14.798  13.139
51852W        W24920  30.438  35.494   3.869
51853W        W24921  10.097  35.914   3.835
51854W        W24922  28.924  11.874   5.195
51855W        W24923  15.047  38.580  11.533
51856W        W24924  19.593   5.372  11.536
51857W        W24925  19.943  13.675   4.568
51858W        W24926   8.756  29.866  11.635
51859W        W24927  17.043   9.366  11.704
51860W        W24928  41.308  29.634  11.764
51861W        W24929  27.450  14.217  13.413
51862W        W24930  21.799   2.911   5.137
51863W        W24931   8.256  19.498  11.625
51864W        W24932  29.682   6.306   2.830
51865W        W24933  32.606  38.167  11.798
51866W        W24934  10.029  37.371  13.329
51867W        W24935  34.568  24.950   2.377
51868W        W24936  27.155  25.727   1.225
51869W        W24937  20.729   8.590   3.780
51870W        W24938  37.785   9.705   1.551
51871W        W24939  35.132  41.342   2.225
51872W        W24940  16.878  33.661  12.586
51873W        W24941  17.189  35.815  14.875
51874W        W24942  44.734  14.795  12.562
51875W        W24943  17.389  30.961  10.734
51876W        W24944  26.972  16.086  13.076
51877W        W24945   9.348  18.573   2.813
51878W        W24946  28.704  42.331  13.645
51879W        W24947  37.826  44.420  14.870
51880W        W24948  18.242  19.534   1.309
51881W        W24949  14.762  26.241  11.487
51882W        W24950  26.132  10.921  11.170
51883W        W24951  17.805  26.178   3.102
51884W        W24952   4.169  35.124   1.405
51885W        W24953   5.878   5.685   2.764
51886W        W24954  37.413   6.104  12.419
51887W        W24955  25.211  14.077   2.376
51888W        W24956  36.114   7.327   2.260
51889W        W24957  37.120  36.892  13.831
51890W        W24958  36.718  12.804  11.142
51891W        W24959  10.320   9.142  12.564
51892W        W24960   6.834  18.484   0.856
51893W        W24961   4.212  18.592   2.287
51894W        W24962   4.777  42.281  14.879
51895W        W24963  22.978  35.504   1.889
51896W        W24964  41.549   1.738  12.545
51897W        W24965  41.257  29.129  14.365
51898W        W24966  40.793   5.742  13.238
51899W        W24967  19.242   9.472  12.386
51900W        W24968   5.457  44.141  13.317
51901W        W24969   9.738   5.427   0.850
51902W        W24970  20.958  44.066  13.410
51903W        W24971  29.638   8.641   0.423
51904W        W24972   8.584  18.015   3.185
51905W        W24973  28.018  20.202   1.797
51906W        W24974  26.314  22.625   3.691
51907W        W24975  33.932   1.853   1.225
51908W        W24976   4.373  25.343  11.682
51909W        W24977  29.910  25.137   2.092
51910W        W24978  40.775  11.362  12.015
51911W        W24979  39.780   8.818   2.273
51912W        W24980  28.660  12.265   4.927
51913W        W24981  19.024  36.891   4.217
51914W        W24982  33.170  23.812  13.506
51915W        W24983  28.506  17.337  11.222
51916W        W24984  40.996  30.881   1.447
51917W        W24985  24.182  30.630  14.778
51918W        W24986  44.162  12.341  11.598
51919W        W24987  13.199  13.467  13.252
51920W        W24988  20.668  32.531   0.951
51921W        W24989   1.759   3.821   3.838
51922W        W24990   9.917  11.075  11.580
51923W        W24991  27.200  43.609  11.568
51924W        W24992  34.048   4.823  10.745
51925W        W24993   5.316  16.268  13.784
51926W        W24994  19.169  21.101  14.922
51927W        W24995   3.729  16.747  11.493
51928W        W24996  38.570  33.017  11.740
51929W        W24997  23.482  20.590   2.872
51930W        W24998  11.687  43.913   3.052
51931W        W24999   1.010  42.975   2.748
51932W        W25000  28.170   0.485  12.043
51933W        W25001  21.567  42.287  10.862
51934W        W25002  30.030  30.838  10.669
51935W        W25003   8.147  29.426   3.896
51936W        W25004  39.502   5.354   4.705
51937W        W25005  16.133  10.755  13.013
51938W        W25006  23.983  21.899  11.626
51939W        W25007  11.872  35.948  10.718
51940W        W25008   3.485  13.378  11.188
51941W        W25009  31.144  12.008  13.458
51942W        W25010  21.724  17.535  13.900
51943W        W25011   6.781  15.581   1.209
51944W        W25012  27.544  43.988  14.783
51945W        W25013   4.360  37.422   3.771
51946W        W25014  23.187  38.327   2.059
51947W        W25015  21.176  22.573  12.325
51948W        W25016   1.458   6.876   2.734
51949W        W25017  42.689  22.658   1.913
51950W        W25018   5.609  18.574   1.313
51951W        W25019   5.317   8.172  12.292
51952W        W25020  24.629  32.536  13.352
51953W        W25021  29.972  21.554  14.451
51954W        W25022  31.675  22.557  10.896
51955W        W25023  32.903   8.820   3.205
51956W        W25024  40.276  26.951   0.922
51957W        W25025   8.419   4.684   1.321
51958W        W25026  18.102  26.716   1.302
51959W        W25027   8.234   2.998   3.755
51960W        W25028  18.958  41.357   4.555
51961W        W25029  26.661  37.616  14.808
51962W        W25030   1.441   1.236   2.411
51963W        W25031  20.589  19.867   0.875
51964W        W25032  42.900   8.942  11.822
51965W        W25033  12.185  16.381  13.283
51966W        W25034  24.826  18.213   0.553
51967W        W25035  14.341  16.691  11.706
51968W        W25036  12.176  13.370   1.280
51969W        W25037  21.744  21.454   2.349
51970W        W25038   2.193   2.270  13.990
51971W        W25039  32.819  17.833   3.289
51972W        W25040   1.433  17.921   2.899
51973W        W25041  38.346  20.494   1.686
51974W        W25042  18.148  16.720   0.887
51975W        W25043  44.310   6.777  14.910
51976W        W25044  43.900  27.691   1.416
51977W        W25045  34.134  26.593  14.041
51978W        W25046  39.719   6.200   0.381
51979W        W25047   9.845  10.880  12.545
51980W        W25048  23.655   8.933   2.571
51981W        W25049  19.044   6.749   3.691
51982W        W25050  34.323   4.862   3.722
51983W        W25051  25.989   5.708  10.712
51984W        W25052   9.396  14.710   2.160
51985W        W25053   7.965   2.987  13.451
51986W        W25054  38.426  22.692   4.820
51987W        W25055  17.081  18.813  10.540
51988W        W25056  17.102  36.054  13.385
51989W        W25057   8.695  24.236  11.515
51990W        W25058   5.395  42.765  12.149
51991W        W25059  44.860  35.711  14.120
51992W        W25060   9.296  33.628  10.711
51993W        W25061   5.795  43.861  12.471
51994W        W25062  17.882  16.645  12.602
51995W        W25063  17.819   0.484  14.345
51996W        W25064  38.569  43.338  11.323
51997W        W25065  18.750  15.175   4.597
51998W        W25066  20.709   5.787  10.426
51999W        W25067  18.136  16.482   4.037
52000W        W25068  26.618  18.792   0.250
52001W        W25069   1.317  19.518  13.953
52002W        W25070  22.534   9.787   3.089
52003W        W25071  31.495  44.283   3.837
52004W        W25072  40.273  19.627   2.142
52005W        W25073  25.164   5.500   4.183
52006W        W25074  33.651   7.391  13.900
52007W        W25075  36.580  36.591   3.141
52008W        W25076  38.311  25.011  10.994
52009W        W25077  23.187  37.521   2.502
52010W        W25078  29.370   1.413  12.859
52011W        W25079  32.636  20.239   2.028
52012W        W25080  25.815   4.918  14.949
52013W        W25081  42.279  43.869   0.730
52014W        W25082   8.154  26.132  11.565
52015W        W25083  36.462  28.365  10.948
52016W        W25084  20.851  19.743  13.872
52017W        W25085  24.108   3.637  12.446
52018W        W25086  41.871  41.320  10.751
52019W        W25087  20.339  41.872  13.290
52020W        W25088  38.795  24.598   4.867
52021W        W25089  44.045  11.277   3.626
52022W        W25090   6.941   8.467  13.560
52023W        W25091  14.700  21.065  12.474
52024W        W25092   6.142  14.570   4.865
52025W        W25093  24.944  44.014   3.786
52026W        W25094  34.885   1.511  14.782
52027W        W25095  41.532  13.723  13.911
52028W        W25096  36.283   4.935  12.838
52029W        W25097  39.535  35.126   3.755
52030W        W25098  32.640  42.532   5.119
52031W        W25099  12.201  40.409  11.153
52032W        W25100   2.352  21.075  13.517
52033W        W25101  33.356   7.146  11.070
52034W        W25102  31.288  43.800   1.617
52035W        W25103  43.093  24.489  12.475
52036W        W25104  25.046  32.560  12.325
52037W        W25105  36.582  24.672   2.768
52038W        W25106  33.177  25.474   0.808
52039W        W25107   2.381  35.196   0.958
52040W        W25108  36.476  20.787  11.706
52041W        W25109   5.434  14.392  11.857
52042W        W25110  14.373  29.166   3.696
52043W        W25111  26.210  38.136   0.957
52044W        W25112  13.820  10.955   0.939
52045W        W25113  32.632  12.810   0.753
52046W        W25114  19.253   5.641   4.242
52047W        W25115  36.871  25.777   4.127
52048W        W25116  15.744  19.533   3.304
52049W        W25117  24.212  41.610   3.599
52050W        W25118  15.351   4.101   1.848
52051W        W25119  34.012  23.656  12.136
52052W        W25120  44.905   6.270  10.660
52053W        W25121  28.928  40.528  14.791
52054W        W25122   6.666  39.092  11.039
52055W        W25123  16.601  42.495   4.612
52056W        W25124  39.517  18.762  14.770
52057W        W25125  36.018   7.653  11.905
52058W        W25126  26.472   5.336  12.069
52059W        W25127  11.282  21.238  14.504
52060W        W25128  32.159  26.164   4.259
52061W        W25129  34.662  27.943   2.623
52062W        W25130  20.815  31.451   4.127
52063W        W25131  38.550  15.306  13.369
52064W        W25132  11.205  23.388   1.337
52065W        W25133  20.643  43.254  12.490
52066W        W25134   3.940  29.997  13.408
52067W        W25135  40.767   8.128  14.802
52068W        W25136  34.150   2.465  14.364
52069W        W25137  31.306  18.364   2.360
52070W        W25138  30.605  25.171  11.134
52071W        W25139  35.336   8.228  12.884
52072W        W25140   2.863  28.976  11.896
52073W        W25141   3.683  14.119  12.101
52074W        W25142  12.892   9.816  13.064
52075W        W25143  12.894  39.418  13.502
52076W        W25144  27.385   9.618  14.597
52077W        W25145  37.400  43.981   0.732
52078W        W25146  27.445   7.136  12.084
52079W        W25147  39.410  31.685   4.419
52080W        W25148  19.040   3.986  10.458
52081W        W25149  28.904  30.755  12.649
52082W        W25150  22.552  17.406  14.617
52083W        W25151   5.916  12.136  12.060
52084W        W25152  42.215  22.286   2.783
52085W        W25153  24.617  25.090  13.549
52086W        W25154  33.025  27.738  10.566
52087W        W25155  29.021   3.636  12.044
52088W        W25156  31.887  21.606  14.217
52089W        W25157  14.659  29.638   4.079
52090W        W25158  12.935  33.316   5.001
52091W        W25159   6.481  10.459   1.815
52092W        W25160  11.312   2.889  14.419
52093W        W25161   0.965  33.385  13.868
52094W        W25162  24.103  33.206  11.290
52095W        W25163  17.606   6.268   1.743
52096W        W25164  22.916  21.322   2.863
52097W        W25165  35.469  39.431   0.321
52098W        W25166  35.989  26.023  12.020
52099W        W25167  10.434  21.166  14.026
52100W        W25168  10.712   7.759   2.139
52101W        W25169  44.309  26.613   3.660
52102W        W25170   3.611  37.909   1.200
52103W        W25171  31.150  37.326   4.573
52104W        W25172  32.967   4.939   1.009
52105W        W25173  43.840  10.870   2.836
52106W        W25174  17.618  16.274  12.372
52107W        W25175   3.905  25.738  12.987
52108W        W25176   5.907  21.636   1.785
52109W        W25177  31.574  17.327  12.127
52110W        W25178  31.440  31.497  12.029
52111W        W25179  32.561  23.987  11.619
52112W        W25180  14.254  12.764  10.610
52113W        W25181  40.344   8.777  14.401
52114W        W25182  19.090   2.984   3.377
52115W        W25183  19.049  44.295   4.146
52116W        W25184  32.018  38.923   2.373
52117W        W25185  42.762  18.285   3.753
52118W        W25186  25.136  27.645   0.524
52119W        W25187  35.610  37.772   3.267
52120W        W25188  35.313  19.582  13.429
52121W        W25189  36.107  27.628  14.243
52122W        W25190  22.583  21.272   3.714
52123W        W25191  39.434   2.832   1.496
52124W        W25192  43.390  10.725   2.612
52125W        W25193  39.994   6.120   4.219
52126W        W25194  43.354  28.563   1.349
52127W        W25195  41.288  34.280  10.852
52128W        W25196  27.181  26.178  12.611
52129W        W25197   2.191  13.815   3.642
52130W        W25198  15.661   1.796  14.579
52131W        W25199  44.816   3.007  11.212
52132W        W25200  41.191   0.938   2.218
52133W        W25201   1.703   6.184   1.839
52134W        W25202  39.887  41.498   4.989
52135W        W25203  24.177   6.831  10.817
52136W        W25204  26.229  43.839  12.074
52137W        W25205  25.005  26.001   3.761
52138W        W25206  10.104  42.330  10.370
52139W        W25207   2.623   0.239  12.699
52140W        W25208  23.150   7.365  10.951
52141W        W25209  36.281  35.449   4.846
52142W        W25210  44.953   3.674  14.846
52143W        W25211  39.943  23.238   1.287
52144W        W25212  14.815   8.557  11.465
52145W        W25213   8.002  32.685   1.764
52146W        W25214   4.840  31.474  12.892
52147W        W25215  10.762  37.263  11.119
52148W        W25216  20.203  22.947  14.060
52149W        W25217  27.421  17.236  14.924
52150W        W25218  40.096   7.814  11.130
52151W        W25219  41.869   8.685   5.119
52152W        W25220  32.535  38.340   3.702
52153W        W25221  19.580  28.414  13.029
52154W        W25222   1.279  15.740  14.760
52155W        W25223  26.999  28.414   4.184
52156W        W25224  22.661  17.308  12.543
52157W        W25225  44.872  37.882   3.780
52158W        W25226  34.105  23.166   0.487
52159W        W25227  21.219   6.417   1.423
52160W        W25228  12.076  36.403   3.202
52161W        W25229  29.730  41.834   2.443
52162W        W25230   9.681  16.062   1.969
52163W        W25231   5.905  33.098  11.962
52164W        W25232  20.901  43.291   2.793
52165W        W25233   1.429  22.885  12.343
52166W        W25234  35.584  26.009  11.245
52167W        W25235  29.895  39.414  13.646
52168W        W25236   2.672  27.385  12.956
52169W        W25237  42.264  29.154  12.286
52170W        W25238  15.516  41.521  11.137
52171W        W25239  18.190   9.306   2.267
52172W        W25240  34.521  28.833   0.742
52173W        W25241  41.922   9.315   0.239
52174W        W25242   1.063  29.109   4.849
52175W        W25243  24.964  37.510   2.883
52176W        W25244  29.606  11.627   2.727
52177W        W25245   3.419  24.965   2.767
52178W        W25246   7.148  36.455   2.796
52179W        W25247   5.365  13.783   1.901
52180W        W25248  10.117   2.139  11.635
52181W        W25249  21.256  43.251  13.085
52182W        W25250  44.460  39.484   5.335
52183W        W25251  26.594   7.643  12.081
52184W        W25252  39.597   5.780   4.096
52185W        W25253  38.458  16.783  10.669
52186W        W25254  42.322  44.107  12.559
52187W        W25255  30.895  37.639   4.247
52188W        W25256   3.691  32.413  11.606
52189W        W25257  24.016   4.822  10.400
52190W        W25258  36.399  36.963  12.048
52191W        W25259  38.483  25.119   2.758
52192W        W25260  24.238   9.147   1.401
52193W        W25261  32.530  37.363  11.095
52194W        W25262  39.611   9.180   4.562
52195W        W25263  11.157   8.731  14.935
52196W        W25264  29.369  26.703  11.174
52197W        W25265  42.745  11.582   4.227
52198W        W25266  17.912  29.480   4.540
52199W        W25267  32.142  21.259   2.790
52200W        W25268   0.656  20.655   0.620
52201W        W25269  33.612   9.181   0.375
52202W        W25270   8.116   2.876   2.943
52203W        W25271  13.952  37.450  13.881
52204W        W25272  25.962  27.623  14.593
52205W        W25273  33.442  16.258   4.620
52206W        W25274   3.182  29.585   0.472
52207W        W25275  36.982  35.018  13.779
52208W        W25276  25.084   0.036   1.417
52209W        W25277  29.690  20.070   2.324
52210W        W25278   9.610  23.606  14.789
52211W        W25279  36.563  27.136   0.450
52212W        W25280  18.196  19.245   2.313
52213W        W25281  30.919  30.765  11.704
52214W        W25282  17.119  24.152   1.420
52215W        W25283  20.674  24.752  12.102
52216W        W25284   8.331  16.297   0.175
52217W        W25285   1.865  23.662  14.448
52218W        W25286  12.538  39.493   0.889
52219W        W25287  11.687  20.896  14.458
52220W        W25288  16.685  24.403  14.833
52221W        W25289  37.910  35.502  13.887
52222W        W25290  34.891  29.832  11.466
52223W        W25291  15.598  43.966  11.860
52224W        W25292  24.977  44.735  12.816
52225W        W25293  40.417  38.983  10.716
52226W        W25294  12.263  23.635   4.305
52227W        W25295  21.010  30.637   0.441
52228W        W25296  33.751   3.428  12.559
52229W        W25297  14.400  16.730  13.783
52230W        W25298  15.642  16.755  13.519
52231W        W25299   7.552  38.043   2.476
52232W        W25300   7.946  39.932   1.828
52233W        W25301  12.825  42.759   1.523
52234W        W25302  13.764   2.250   0.844
52235W        W25303  23.182  36.984   4.920
52236W        W25304  10.716  22.199   3.917
52237W        W25305  42.884  41.619   5.112
52238W        W25306  37.003  41.230  14.256
52239W        W25307  38.374  36.154   1.850
52240W        W25308  36.637   7.822  13.882
52241W        W25309  24.583  31.840   2.185
52242W        W25310  10.982   4.419   0.206
52243W        W25311  42.507  30.053   2.919
52244W        W25312  32.905  39.788   2.797
52245W        W25313  22.168  37.571  10.742
52246W        W25314  25.170  21.449  14.595
52247W        W25315  22.206  43.824   4.074
52248W        W25316  32.866  22.540   3.197
52249W        W25317   1.730  15.586  11.077
52250W        W25318  39.070  19.129  11.080
52251W        W25319   3.059  18.088  13.503
52252W        W25320  30.283  29.821  11.394
52253W        W25321  28.130   3.262   4.716
52254W        W25322   4.728  39.453  13.939
52255W        W25323  10.166  20.749   4.394
52256W        W25324  27.145  38.453  11.550
52257W        W25325  37.268  16.223   3.668
52258W        W25326  40.825  41.063   0.302
52259W        W25327   6.738  10.564  10.928
52260W        W25328  17.996  12.250   1.539
52261W        W25329   8.581   5.443   4.085
52262W        W25330  43.343  17.628  10.943
52263W        W25331  43.898  28.574   3.611
52264W        W25332   3.564  27.438   1.725
52265W        W25333  27.511   0.624   2.213
52266W        W25334  27.468   7.664  12.892
52267W        W25335  31.331  11.407   2.398
52268W        W25336  16.825  20.100  14.883
52269W        W25337   7.229  21.219  13.412
52270W        W25338  11.458  21.668  11.062
52271W        W25339  35.895  37.066  11.953
52272W        W25340  38.027  30.881   0.505
52273W        W25341  15.649  17.824  12.910
52274W        W25342  32.173   1.120   5.024
52275W        W25343  39.758  39.059   2.064
52276W        W25344   7.754  34.044  10.914
52277W        W25345  13.254  40.823   2.162
52278W        W25346  35.125   6.991  12.930
52279W        W25347  35.925  30.569   1.029
52280W        W25348   9.934   5.927   0.907
52281W        W25349  29.335   4.352  10.666
52282W        W25350  19.027   7.241   1.169
52283W        W25351  37.818   8.700   2.353
52284W        W25352  18.148  14.096  10.578
52285W        W25353  22.240  42.564   3.300
52286W        W25354  34.933  42.403   4.105
52287W        W25355  12.403  43.028   1.289
52288W        W25356  43.907  35.842   2.729
52289W        W25357  12.320  18.333  13.450
52290W        W25358  43.705  31.626   0.990
52291W        W25359   7.106  22.579   3.772
52292W        W25360  27.302  41.286  13.396
52293W        W25361   5.575   9.847   1.367
52294W        W25362  23.878  37.778   5.409
52295W        W25363   9.558  36.955   3.683
52296W        W25364  29.718  22.694  10.577
52297W        W25365  10.604  17.759  14.459
52298W        W25366  31.072   4.476   3.607
52299W        W25367  13.338   8.726   1.809
52300W        W25368   4.640  29.253   1.791
52301W        W25369  20.501  13.765  14.773
52302W        W25370   8.141  24.302   4.763
52303W        W25371  12.753   9.965   0.961
52304W        W25372  36.564  23.344   2.838
52305W        W25373  23.511  14.889   3.218
52306W        W25374  42.963  33.098  10.473
52307W        W25375  34.435  27.954   1.347
52308W        W25376  22.261  23.166   4.522
52309W        W25377  40.378   2.830  11.561
52310W        W25378  38.708  39.335   0.006
52311W        W25379  26.521  18.046   0.814
52312W        W25380  35.476  14.923  13.374
52313W        W25381   0.027  42.787  14.293
52314W        W25382  18.149  15.891   2.270
52315W        W25383  12.681   5.652  13.840
52316W        W25384  20.680  24.246   3.367
52317W        W25385   6.610   6.889   1.851
52318W        W25386  16.415   8.476   3.626
52319W        W25387   3.935  35.880   3.367
52320W        W25388  11.883  41.720  13.361
52321W        W25389  17.872  25.612   3.140
52322W        W25390  31.656  11.731   1.728
52323W        W25391  30.613  19.162  14.938
52324W        W25392   7.771  13.181   0.320
52325W        W25393  29.953  19.440  13.981
52326W        W25394  18.640  43.517   3.573
52327W        W25395  27.870   4.413   0.841
52328W        W25396  11.414   9.268  14.980
52329W        W25397  24.205  33.481  13.933
52330W        W25398  22.701  33.587  13.969
52331W        W25399  14.338  30.031   4.187
52332W        W25400   3.713  30.454  13.371
52333W        W25401   9.394   0.840  11.238
52334W        W25402  20.207  44.753  12.415
52335W        W25403   1.613  30.826   4.008
52336W        W25404   1.648  35.959  11.893
52337W        W25405  30.158   7.835   2.823
52338W        W25406  28.649  39.079  10.265
52339W        W25407  43.097  11.142   4.806
52340W        W25408  20.979  16.117   4.520
52341W        W25409  36.632  24.413  13.019
52342W        W25410  44.919   4.267   4.142
52343W        W25411  12.185  17.711   1.506
52344W        W25412  36.885  38.978   4.923
52345W        W25413  25.941  34.626  14.309
52346W        W25414  32.898  38.742  11.609
52347W        W25415  43.550  30.961  13.409
52348W        W25416  12.094  39.535  10.336
52349W        W25417  40.520  19.608  11.521
52350W        W25418  23.555  36.126   2.229
52351W        W25419  44.402  39.891   3.066
52352W        W25420  38.760  17.196   2.882
52353W        W25421  38.062  42.466   1.381
52354W        W25422  12.714  18.440   4.601
52355W        W25423  20.481  34.876   1.301
52356W        W25424   0.599  37.295  10.925
52357W        W25425  28.135  40.192   4.520
52358W        W25426  19.892  30.403   1.609
52359W        W25427  23.276  29.946   3.097
52360W        W25428  25.896  37.970   5.558
52361W        W25429  19.570   9.580  11.506
52362W        W25430   4.888  44.273  13.136
52363W        W25431  42.490  18.972  10.925
52364W        W25432  22.475   1.822   5.048
52365W        W25433   2.289  42.330  12.425
52366W        W25434  21.516   7.234   2.137
52367W        W25435  21.852   2.878  11.038
52368W        W25436  24.415  32.062  14.903
52369W        W25437  42.681  20.299  11.112
52370W        W25438  27.997  14.298  11.446
52371W        W25439  20.617  40.627   0.926
52372W        W25440  25.020  12.243   4.231
52373W        W25441   1.908   3.251  13.712
52374W        W25442  43.868  28.007   0.952
52375W        W25443  12.741  10.902  14.484
52376W        W25444   3.522  17.565   3.677
52377W        W25445   5.829  11.271   4.363
52378W        W25446  36.496  25.597  11.464
52379W        W25447   1.012  31.314   2.446
52380W        W25448  18.253  19.620   3.353
52381W        W25449  13.194  19.712   4.900
52382W        W25450   1.191  12.075  11.560
52383W        W25451   3.019  19.217   2.273
52384W        W25452  17.399  27.481   4.171
52385W        W25453   2.945  27.126  10.650
52386W        W25454  38.495  44.427  10.831
52387W        W25455  20.986  16.708   2.722
52388W        W25456  34.054   4.789  12.709
52389W        W25457  21.735  18.518   4.547
52390W        W25458  12.604  42.557   0.199
52391W        W25459   9.591  40.790  11.150
52392W        W25460  19.056  44.610  13.046
52393W        W25461   3.488  20.194   2.343
52394W        W25462  17.180  24.683  12.909
52395W        W25463  34.342  17.720   4.119
52396W        W25464  13.068  38.926   1.853
52397W        W25465  15.197   0.792  14.859
52398W        W25466  16.366   1.246   2.662
52399W        W25467  21.630  29.474   3.223
52400W        W25468  15.625  39.153   2.873
52401W        W25469  18.016  33.634   0.882
52402W        W25470  41.335  38.448  14.889
52403W        W25471   5.998   2.243  13.020
52404W        W25472   1.503   2.902   4.078
52405W        W25473  42.880  17.566  10.725
52406W        W25474   6.722   3.010   4.515
52407W        W25475  18.997  30.633   3.304
52408W        W25476  11.855   3.450  14.779
52409W        W25477  11.249  19.748  14.934
52410W        W25478   2.264  27.085  12.852
52411W        W25479  41.851  17.547  10.628
52412W        W25480  39.111  15.579   0.309
52413W        W25481  23.088  17.064  11.131
52414W        W25482  40.010  39.575   3.186
52415W        W25483  19.766  40.956   1.894
52416W        W25484  22.865  19.576  12.174
52417W        W25485  39.204  39.471   0.875
52418W        W25486  24.627  21.539   0.306
52419W        W25487   6.858  34.801  12.709
52420W        W25488  30.111  31.618  14.340
52421W        W25489  14.069   4.358   2.011
52422W        W25490   7.770  39.022   9.872
52423W        W25491  15.325  10.370  14.002
52424W        W25492  18.301  10.897  12.815
52425W        W25493  16.444  14.086   0.358
52426W        W25494  22.707  18.004   3.307
52427W        W25495  21.999  35.869   1.818
52428W        W25496  39.633  34.035   1.226
52429W        W25497  11.662  21.205  13.032
52430W        W25498  37.538  13.288  14.003
52431W        W25499  41.934  13.434  12.966
52432W        W25500  44.223  24.294   4.566
52433W        W25501  17.572   5.181  12.860
52434W        W25502  19.440  28.964  14.734
52435W        W25503  31.417   4.390  11.617
52436W        W25504  23.980   2.245  10.702
52437W        W25505  34.101  23.995  14.482
52438W        W25506  32.592  18.321  13.740
52439W        W25507   4.736  17.416   2.096
52440W        W25508   5.713   0.785   4.690
52441W        W25509   4.912  17.044  10.707
52442W        W25510  10.217  24.004   1.307
52443W        W25511   8.131  38.510  12.068
52444W        W25512  32.878  24.039  11.206
52445W        W25513  41.060  35.386   0.347
52446W        W25514   2.413   0.997   1.659
52447W        W25515   4.483  11.189   3.745
52448W        W25516  32.061   4.304   4.631
52449W        W25517  41.526   6.262  11.920
52450W        W25518  12.693  31.649  12.917
52451W        W25519  32.052  24.610   0.660
52452W        W25520  27.115  31.295  14.298
52453W        W25521  16.006  29.949   2.811
52454W        W25522  38.262  17.080   2.823
52455W        W25523   0.355   0.964   0.202
52456W        W25524  24.637  21.038  13.586
52457W        W25525  16.799  38.297  13.582
52458W        W25526  20.050   6.406   1.195
52459W        W25527  42.339  11.120  14.206
52460W        W25528   5.994  10.527  10.077
52461W        W25529  27.475  28.715   2.111
52462W        W25530  32.592  30.472  13.522
52463W        W25531   0.829  33.579   5.388
52464W        W25532  38.850  33.430   3.193
52465W        W25533  38.388  26.615  12.097
52466W        W25534  33.457  36.492  10.857
52467W        W25535   2.020  41.406   2.118
52468W        W25536  34.895   0.404   4.108
52469W        W25537   4.928  27.928   0.000
52470W        W25538  16.675  13.203  13.439
52471W        W25539  39.259  17.618   3.387
52472W        W25540  25.475  33.993  12.126
52473W        W25541  13.795  21.187  11.879
52474W        W25542   6.965  32.861  11.576
52475W        W25543  34.903  13.168   3.105
52476W        W25544  20.323  17.614   4.087
52477W        W25545  44.535  40.843  13.425
52478W        W25546  21.703  36.037   4.556
52479W        W25547  18.571  12.834  14.486
52480W        W25548   9.761  44.932  10.921
52481W        W25549  13.138  34.939   4.449
52482W        W25550  19.161  13.151  11.346
52483W        W25551  36.820  33.401  11.694
52484W        W25552  22.017  31.588   4.892
52485W        W25553  24.826  10.588   1.535
52486W        W25554   5.877  21.018   4.096
52487W        W25555  28.047  19.206  10.749
52488W        W25556  22.516   8.240  10.912
52489W        W25557   1.474   0.296  11.582
52490W        W25558   2.811  41.273  14.339
52491W        W25559  20.666  16.594  12.982
52492W        W25560  21.503  25.969   3.302
52493W        W25561  40.922  23.678   1.312
52494W        W25562  27.101   8.260   3.345
52495W        W25563   6.123  26.114   2.808
52496W        W25564  25.666   2.810   0.378
52497W        W25565  43.073  38.550   2.224
52498W        W25566  40.833  20.677  14.951
52499W        W25567   4.275  41.934  10.400
52500W        W25568  41.094  22.655  10.791
52501W        W25569  38.070  42.046  11.703
52502W        W25570  10.254  12.115  13.568
52503W        W25571  18.549   8.388  14.000
52504W        W25572  17.813  40.046  13.107
52505W        W25573  34.023  30.791  13.429
52506W        W25574  26.265  36.879   1.799
52507W        W25575  12.274  35.837  11.166
52508W        W25576   7.955  27.965   2.688
52509W        W25577  12.561   3.284  12.949
52510W        W25578  22.901  39.967  13.388
52511W        W25579  41.442  28.681   1.227
52512W        W25580  15.765   1.349  13.863
52513W        W25581  18.176  21.994  10.827
52514W        W25582  34.024  11.664  13.431
52515W        W25583  30.166   5.451  13.145
52516W        W25584  33.485  24.785  11.581
52517W        W25585  20.374  19.543  11.067
52518W        W25586  42.350  19.210  12.376
52519W        W25587  42.472  35.425  14.166
52520W        W25588  30.604  11.418  12.420
52521W        W25589  32.129  22.788   3.710
52522W        W25590  24.097  31.480   1.953
52523W        W25591  44.005  20.546  10.749
52524W        W25592  43.373  30.079  13.037
52525W        W25593  32.249  25.905  13.923
52526W        W25594   0.570  15.587   3.499
52527W        W25595   7.809  14.221   3.383
52528W        W25596   0.594  26.841  14.422
52529W        W25597  22.742  17.102   1.825
52530W        W25598  11.340  34.037  12.655
52531W        W25599  43.018  37.696   3.829
52532W        W25600  30.628  24.762   1.352
52533W        W25601  18.686  24.872  11.780
52534W        W25602  11.395   4.846   3.539
52535W        W25603   2.573   6.412  12.193
52536W        W25604  16.331  12.878   1.419
52537W        W25605  20.121  28.687  13.831
52538W        W25606   5.849  14.098  11.926
52539W        W25607  34.875  26.151   4.357
52540W        W25608  14.689  40.792   1.449
52541W        W25609  40.842   1.979   1.445
52542W        W25610  44.727  10.868  14.111
52543W        W25611  11.244  15.285   3.820
52544W        W25612  21.719  43.366   3.799
52545W        W25613  44.421  37.993   2.620
52546W        W25614   0.361   1.960   3.250
52547W        W25615  43.933  20.449  11.655
52548W        W25616  29.982   6.230   4.237
52549W        W25617  28.975  14.653  10.706
52550W        W25618   2.812  32.726  11.082
52551W        W25619   3.554  37.711  12.627
52552W        W25620   2.721  11.849   2.899
52553W        W25621  41.558  42.677  14.956
52554W        W25622  12.118  14.824   4.146
52555W        W25623   4.656  35.462   3.706
52556W        W25624  20.225   7.632   0.381
52557W        W25625  30.522   7.128   3.214
52558W        W25626  20.546  25.181   0.823
52559W        W25627   9.494   2.382  12.538
52560W        W25628   2.815  19.846  13.543
52561W        W25629  12.644   9.375  11.481
52562W        W25630   3.850  33.106  10.644
52563W        W25631  21.518  34.436  11.863
52564W        W25632  37.586  27.694   4.655
52565W        W25633   4.192   9.087   1.971
52566W        W25634  44.200  41.749   4.617
52567W        W25635  38.435   2.682  12.351
52568W        W25636  23.020  17.217  14.750
52569W        W25637  26.663  23.348   1.203
52570W        W25638  18.132  38.472  11.157
52571W        W25639  12.325   7.355  11.431
52572W        W25640  24.583  33.093  12.973
52573W        W25641   5.316  21.150   1.324
52574W        W25642  37.406   2.196  11.489
52575W        W25643  35.097  18.593   0.797
52576W        W25644   5.482  42.824   3.069
52577W        W25645   5.800  41.346   3.756
52578W        W25646  16.265  20.636  12.463
52579W        W25647  43.956   1.396  10.786
52580W        W25648  20.220  24.042  13.436
52581W        W25649   6.412  42.519  11.874
52582W        W25650  24.137  13.232   0.395
52583W        W25651  19.671  43.071  12.110
52584W        W25652  21.747  30.328  12.950
52585W        W25653   3.295  21.078   0.357
52586W        W25654  38.815  10.630  11.576
52587W        W25655   2.471  39.807  12.875
52588W        W25656  41.622  25.224  14.476
52589W        W25657  35.642  29.603   0.829
52590W        W25658  11.940  25.027  10.498
52591W        W25659  20.199  39.577   4.146
52592W        W25660  39.963   2.294   0.855
52593W        W25661  17.740  40.587   1.454
52594W        W25662  32.570  14.685  13.984
52595W        W25663  43.907  11.289   1.009
52596W        W25664  12.899  29.583   3.705
52597W        W25665   8.295  17.676   2.893
52598W        W25666  30.663  18.095   3.188
52599W        W25667  42.658  14.178   1.665
52600W        W25668  17.721  43.989   2.645
52601W        W25669   8.051  20.780  11.387
52602W        W25670  33.845  26.430  14.441
52603W        W25671  32.384  24.281  11.181
52604W        W25672  35.517  40.981   2.217
52605W        W25673   0.962  41.569   1.886
52606W        W25674  22.617  38.630  10.794
52607W        W25675  26.894   7.416   1.402
52608W        W25676  33.497  27.462  12.895
52609W        W25677  15.248  18.782   2.298
52610W        W25678   4.721  16.058  14.823
52611W        W25679  27.705   1.595  10.668
52612W        W25680  32.544  33.321  13.553
52613W        W25681  10.329  31.025  11.569
52614W        W25682  39.386  15.066   1.932
52615W        W25683   9.193  16.226   0.696
52616W        W25684  23.748  44.511  14.944
52617W        W25685  34.908   5.190  14.523
52618W        W25686  35.604  33.202   5.225
52619W        W25687  38.596  14.921   3.227
52620W        W25688  11.571   3.548  11.078
52621W        W25689  16.253   2.426  12.644
52622W        W25690   2.920   8.914   4.968
52623W        W25691  24.057  35.666   3.215
52624W        W25692  31.597  38.668   1.455
52625W        W25693  10.242  40.776  13.001
52626W        W25694   3.467  22.759   4.046
52627W        W25695  22.411  12.641  14.522
52628W        W25696  33.018   8.178   4.739
52629W        W25697  37.697  28.898   0.198
52630W        W25698  29.837  34.361  12.403
52631W        W25699  40.881  27.630  12.068
52632W        W25700  11.369  40.850   1.361
52633W        W25701  16.783  40.019  12.939
52634W        W25702  18.551   6.943  12.743
52635W        W25703  21.528  35.112  11.501
52636W        W25704  16.315  17.004   0.411
52637W        W25705  36.754  35.012   4.106
52638W        W25706  44.984  43.543   1.564
52639W        W25707  39.515  22.482   0.303
52640W        W25708  22.539  18.335  11.118
52641W        W25709  37.329  37.962   3.213
52642W        W25710   3.200  34.686   1.869
52643W        W25711  39.351  15.247  13.893
52644W        W25712   4.352  10.261  11.266
52645W        W25713  24.499   8.207  11.201
52646W        W25714   5.732  41.813  13.307
52647W        W25715   9.835  44.350  14.829
52648W        W25716  31.598  27.530  11.670
52649W        W25717   6.235  40.420  11.036
52650W        W25718  11.402  14.281   5.075
52651W        W25719   9.920  24.457   3.669
52652W        W25720  23.494   9.525  12.357
52653W        W25721   7.130  35.076  11.592
52654W        W25722  21.755  44.021  10.682
52655W        W25723  44.018   2.040   0.875
52656W        W25724  38.666  40.304  10.687
52657W        W25725  14.724  42.150   3.146
52658W        W25726  10.805  40.583  12.863
52659W        W25727   7.367  27.733   0.853
52660W        W25728  42.834  33.358   4.655
52661W        W25729  35.042  30.097  14.778
52662W        W25730  32.259   1.164  10.892
52663W        W25731  41.976  44.361   3.846
52664W        W25732  23.974  24.688  12.129
52665W        W25733  14.828  44.725  11.399
52666W        W25734  18.182  39.095  14.244
52667W        W25735  16.591  28.476   0.626
52668W        W25736  41.390  26.618  14.381
52669W        W25737  13.806   2.862   0.461
52670W        W25738  27.996  18.458   2.373
52671W        W25739  19.653  21.801  13.689
52672W        W25740  36.584  42.065   1.445
52673W        W25741  12.769  36.902   2.988
52674W        W25742   5.798   5.371   2.310
52675W        W25743   1.569  40.432  13.754
52676W        W25744  19.880  14.849   2.858
52677W        W25745  11.123   5.874  14.730
52678W        W25746  12.869  29.500  12.406
52679W        W25747   0.416  32.075   0.338
52680W        W25748  36.155  12.593   3.098
52681W        W25749  37.941  18.286  11.404
52682W        W25750  39.818  11.220   0.763
52683W        W25751  15.447   5.235  11.065
52684W        W25752   7.437   6.682   4.728
52685W        W25753  30.114  17.735  10.837
52686W        W25754  12.446  38.770  13.894
52687W        W25755  27.187  12.486  10.761
52688W        W25756   1.332   0.863  12.336
52689W        W25757   4.008  37.061   1.695
52690W        W25758  22.021  37.540   1.052
52691W        W25759  12.876  24.559   2.758
52692W        W25760  32.460  11.152  14.337
52693W        W25761  42.428   4.552  13.529
52694W        W25762  34.467   9.443   4.170
52695W        W25763   6.403  41.938   3.885
52696W        W25764  33.592  13.167  11.668
52697W        W25765   1.711  39.914  13.874
52698W        W25766  21.801   3.094  14.986
52699W        W25767   2.631  21.235   9.968
52700W        W25768  23.179  27.662   0.305
52701W        W25769   0.291  38.486  11.386
52702W        W25770   0.305  38.857  12.002
52703W        W25771  42.571  32.437   4.584
52704W        W25772  41.777  27.145  13.880
52705W        W25773  42.668  39.032   4.646
52706W        W25774  36.982  40.781   2.806
52707W        W25775  35.605  12.435  13.852
52708W        W25776  43.343  21.212   1.832
52709W        W25777  38.590  23.175   0.304
52710W        W25778  39.223  24.649  10.708
52711W        W25779  33.896  12.425  14.738
52712W        W25780  25.590   7.366  14.440
52713W        W25781  10.282  23.037   4.628
52714W        W25782   6.606  12.473  10.459
52715W        W25783  10.906   6.354  14.815
52716W        W25784  32.164  28.476   1.919
52717W        W25785  24.789   8.937  11.126
52718W        W25786  11.715  15.089  14.426
52719W        W25787   9.720  38.119  10.676
52720W        W25788  22.169   9.964  12.334
52721W        W25789   6.022  29.123   1.591
52722W        W25790  28.956  36.249   3.603
52723W        W25791  29.505  37.756  14.289
52724W        W25792   5.358   4.430  12.569
52725W        W25793  26.980  27.443  12.947
52726W        W25794  30.467  23.510   3.776
52727W        W25795   8.132  25.165  14.305
52728W        W25796  31.465  41.408  11.585
52729W        W25797  37.914  35.858   1.420
52730W        W25798  37.743  22.752   3.255
52731W        W25799  26.480  24.737   0.738
52732W        W25800  19.718  20.877  12.111
52733W        W25801  18.504   0.429  10.475
52734W        W25802  24.773   4.759  13.002
52735W        W25803  26.953  30.034  14.729
52736W        W25804   4.478  28.116  14.882
52737W        W25805  39.326  27.610  12.858
52738W        W25806  18.346  44.630   4.968
52739W        W25807  35.359  20.980   3.355
52740W        W25808  41.233  13.224  11.463
52741W        W25809  32.580  21.436   1.431
52742W        W25810  44.665  41.497   1.401
52743W        W25811   1.773  30.494   3.666
52744W        W25812  20.571  25.581   3.463
52745W        W25813   0.431  30.141  11.090
52746W        W25814   2.399  39.304   3.686
52747W        W25815  39.395  25.451  14.327
52748W        W25816   3.982  27.099   2.863
52749W        W25817  21.296  43.201   5.019
52750W        W25818  29.249  38.296  12.471
52751W        W25819  23.793  16.710  13.710
52752W        W25820  18.671  19.537  14.496
52753W        W25821  23.862  32.897  11.715
52754W        W25822   4.219  16.282  13.476
52755W        W25823  30.496  16.640  13.173
52756W        W25824  29.417  20.157   2.757
52757W        W25825   7.276   6.276   3.401
52758W        W25826   4.757  31.101   2.041
52759W        W25827   3.049   9.357  10.650
52760W        W25828   4.167  43.795   3.834
52761W        W25829  40.440  15.179  12.139
52762W        W25830  39.722  12.796  12.464
52763W        W25831  12.779  27.553  10.869
52764W        W25832  41.376   6.341  10.902
52765W        W25833  30.505   7.165   0.896
52766W        W25834   1.907   5.166   4.227
52767W        W25835  23.696  29.570  13.290
52768W        W25836  41.873  33.508   4.867
52769W        W25837  26.179  18.804   1.621
52770W        W25838  19.541   1.288   4.466
52771W        W25839   9.943  14.262   0.009
52772W        W25840  24.923  16.782  13.519
52773W        W25841  11.523  18.317   0.394
52774W        W25842  10.823   1.099   4.189
52775W        W25843  32.952  31.416  12.478
52776W        W25844   9.196  35.594  13.719
52777W        W25845  25.021  20.117   3.186
52778W        W25846  17.742  32.000  11.188
52779W        W25847  17.631   3.362   4.740
52780W        W25848  19.680  10.011   1.799
52781W        W25849  13.177  26.714   5.002
52782W        W25850  30.826  21.071  11.060
52783W        W25851  21.274  43.839  11.971
52784W        W25852   6.973  16.849  12.162
52785W        W25853  14.214  35.866   1.187
52786W        W25854   4.929  39.852   4.186
52787W        W25855  43.909  35.846   4.795
52788W        W25856  39.804  25.406  14.735
52789W        W25857  44.433  43.030  10.759
52790W        W25858  19.095  40.300  14.629
52791W        W25859  12.563  29.020  10.782
52792W        W25860  36.531  34.878   3.287
52793W        W25861  34.970  28.454   3.820
52794W        W25862   3.411  40.656  11.374
52795W        W25863  19.964  10.419   2.835
52796W        W25864  44.247  33.946  11.888
52797W        W25865  37.760  26.950  13.224
52798W        W25866  28.394  31.425  12.076
52799W        W25867   8.745  10.865   0.468
52800W        W25868  10.263  28.759   2.620
52801W        W25869  23.990  33.878  14.405
52802W        W25870  39.543  31.033   0.359
52803W        W25871  10.392  19.163  10.350
52804W        W25872  21.123  11.619   3.716
52805W        W25873  35.336  40.858   4.272
52806W        W25874  30.836  27.231  12.429
52807W        W25875  24.195  37.347  13.601
52808W        W25876  17.859   3.707   0.748
52809W        W25877  16.334  11.631   0.485
52810W        W25878  15.526   1.899   4.156
52811W        W25879   2.502  18.327  10.857
52812W        W25880  22.700  16.299   4.707
52813W        W25881  22.246   4.863  12.945
52814W        W25882  33.089  25.396  12.114
52815W        W25883   1.490  13.693   1.986
52816W        W25884  21.156   6.071   0.547
52817W        W25885  18.140  25.697  10.671
52818W        W25886  18.512  20.613  10.494
52819W        W25887  23.652   8.425   2.675
52820W        W25888   0.233  32.381  14.951
52821W        W25889  12.362  30.693   0.514
52822W        W25890  40.607   5.276   0.269
52823W        W25891  39.436   5.565  11.958
52824W        W25892   0.268  40.797  11.213
52825W        W25893  42.865  14.252   4.727
52826W        W25894  35.492   9.825   1.257
52827W        W25895  27.059  18.031   1.462
52828W        W25896  13.105   8.791   2.268
52829W        W25897  39.989  22.908   4.322
52830W        W25898   0.970  35.794  13.470
52831W        W25899  31.433  26.070   3.315
52832W        W25900   2.924  20.085  11.800
52833W        W25901  20.448  42.118   0.439
52834W        W25902  31.773  23.653   3.443
52835W        W25903  20.224  22.207   3.806
52836W        W25904  16.662  10.387   3.230
52837W        W25905  35.601  27.596  10.690
52838W        W25906  27.083  44.736  12.467
52839W        W25907  29.636  12.123   4.848
52840W        W25908  27.401  35.914  14.619
52841W        W25909  34.949  34.144  12.475
52842W        W25910  17.551  11.063  12.580
52843W        W25911   3.279  24.636   0.804
52844W        W25912  33.891  30.433   4.603
52845W        W25913  44.726  32.059   4.089
52846W        W25914  24.866  44.496  13.885
52847W        W25915   2.926  36.178   3.195
52848W        W25916  20.543  43.273   3.159
52849W        W25917  18.536   8.794   4.051
52850W        W25918  10.297  23.169  11.123
52851W        W25919  12.566  33.401  10.860
52852W        W25920  33.648  16.179   4.147
52853W        W25921  40.856  28.702   4.423
52854W        W25922  41.838  23.271  11.158
52855W        W25923  19.009   0.060  12.792
52856W        W25924  44.470  31.614  11.481
52857W        W25925  25.001  24.230   3.272
52858W        W25926   6.164  20.721   1.904
52859W        W25927  14.017  14.333   3.313
52860W        W25928   7.716  28.294  11.649
52861W        W25929  35.004  44.383  13.443
52862W        W25930  12.311  22.601  14.617
52863W        W25931  34.439   8.244  13.485
52864W        W25932  18.235   3.926   0.383
52865W        W25933  16.249  32.566   0.883
52866W        W25934  35.418   5.180   3.210
52867W        W25935  34.461  33.599   0.726
52868W        W25936   7.762  22.233   3.294
52869W        W25937  28.597  30.557  13.070
52870W        W25938  39.006  17.573  13.944
52871W        W25939  33.573   4.688   2.207
52872W        W25940   5.220  26.215  10.747
52873W        W25941  16.852  39.082  14.729
52874W        W25942  22.017   9.664  11.528
52875W        W25943  12.881   4.522  12.551
52876W        W25944  28.922   3.751  14.715
52877W        W25945   8.673  42.271  12.111
52878W        W25946  10.676  29.383   4.232
52879W        W25947  30.333  42.925   0.504
52880W        W25948  42.407  43.074  12.556
52881W        W25949   2.363   1.745   3.671
52882W        W25950  38.846   3.742   0.329
52883W        W25951  24.047  21.115   2.268
52884W        W25952  40.972  20.850   1.117
52885W        W25953  10.269  13.168   1.013
52886W        W25954  15.395   7.299  12.901
52887W        W25955  20.029  38.792  12.989
52888W        W25956  20.326  27.631  10.882
52889W        W25957  13.555  10.372   2.702
52890W        W25958  25.709  31.887   1.726
52891W        W25959  33.022  28.547   2.779
52892W        W25960   9.615  30.940   0.006
52893W        W25961   0.509  18.535   1.140
52894W        W25962  43.720  17.887   0.679
52895W        W25963  18.074  10.380   0.524
52896W        W25964   6.920  22.843  13.619
52897W        W25965  37.336   5.285  14.788
52898W        W25966  19.769  43.354  13.870
52899W        W25967  20.097  38.279  12.894
52900W        W25968  18.685  16.008   2.322
52901W        W25969  30.695   0.707  10.780
52902W        W25970  25.764   6.733   3.353
52903W        W25971  30.898   2.407  11.162
52904W        W25972  35.986  18.186  14.814
52905W        W25973   9.164  31.638   4.771
52906W        W25974  37.825  32.519   0.875
52907W        W25975   9.926  12.958  13.984
52908W        W25976   3.452  43.801   0.778
52909W        W25977  39.811  39.109   4.074
52910W        W25978  42.254  15.920  12.663
52911W        W25979  37.508  18.108  14.988
52912W        W25980  18.828  41.683   3.431
52913W        W25981  37.324   1.465   0.869
52914W        W25982  23.953  20.407  11.557
52915W        W25983  34.940   4.277  14.406
52916W        W25984  44.937  13.337  14.059
52917W        W25985  39.881  26.629   0.914
52918W        W25986  17.818  35.312   2.644
52919W        W25987  13.526  33.847  13.547
52920W        W25988  31.167  32.600   2.890
52921W        W25989  26.513  28.175   4.254
52922W        W25990  29.703  13.161  10.676
52923W        W25991   6.236  38.465  10.567
52924W        W25992  30.849  26.081  13.800
52925W        W25993  43.835  24.017  13.615
52926W        W25994  27.783   2.762   0.621
52927W        W25995  19.792  18.836   4.628
52928W        W25996  40.166   4.140  11.065
52929W        W25997   1.833  19.595  10.774
52930W        W25998   4.579  16.630   4.340
52931W        W25999  30.839  24.687  12.129
52932W        W26000  36.280  19.573   4.535
52933W        W26001  36.792  17.622   2.385
52934W        W26002  18.192  13.787  13.887
52935W        W26003  24.977   6.675  14.414
52936W        W26004  26.816  27.770   4.096
52937W        W26005  44.314  19.096  11.176
52938W        W26006  27.009  38.923   2.662
52939W        W26007  28.083  25.936   4.635
52940W        W26008  42.452  14.262  14.420
52941W        W26009  18.694  24.920   4.992
52942W        W26010  41.857  13.053   4.074
52943W        W26011  31.564  23.598  13.156
52944W        W26012   3.429  35.824  14.930
52945W        W26013   8.720  27.435  11.659
52946W        W26014  16.608  29.366  14.226
52947W        W26015  37.454   2.855   3.122
52948W        W26016  33.067  19.336   0.220
52949W        W26017  35.977   3.951   0.324
52950W        W26018  19.768   9.508  14.442
52951W        W26019   3.839   3.926   0.281
52952W        W26020  35.876  12.230  14.807
52953W        W26021   9.640  33.064   1.735
52954W        W26022   2.478  21.977  13.675
52955W        W26023  37.069  15.261   0.524
52956W        W26024  43.505  11.460   4.886
52957W        W26025  41.501  23.257  10.576
52958W        W26026  33.425  24.974   3.379
52959W        W26027  41.779  31.739   0.971
52960W        W26028  31.109  43.759  12.013
52961W        W26029  13.568  27.419  14.988
52962W        W26030  41.361  12.859  13.281
52963W        W26031   7.631  12.423   2.358
52964W        W26032  25.255  10.347  13.185
52965W        W26033  28.078  33.608   4.452
52966W        W26034   2.729  13.793   3.690
52967W        W26035  36.324  42.793   3.197
52968W        W26036  28.932  37.799   4.970
52969W        W26037   2.946   1.589  10.651
52970W        W26038  38.848  19.298   3.256
52971W        W26039  22.894  27.203   3.702
52972W        W26040  10.454  18.635  11.147
52973W        W26041   8.797  40.831   1.340
52974W        W26042  12.822  39.430   0.461
52975W        W26043  26.594   7.375  12.543
52976W        W26044  36.183  13.153  13.853
52977W        W26045   7.975  23.802   3.235
52978W        W26046  13.850  36.513   3.668
52979W        W26047   7.458  29.944  11.143
52980W        W26048  40.825  23.595  13.945
52981W        W26049  34.590  38.418  10.528
52982W        W26050  33.036  44.722  11.794
52983W        W26051  41.133  22.667  14.721
52984W        W26052  26.438  34.914  12.182
52985W        W26053  28.613  13.057   1.348
52986W        W26054   2.565  28.168   0.362
52987W        W26055  31.836  41.213  13.664
52988W        W26056  44.018  37.005   0.914
52989W        W26057  12.541   5.932  11.948
52990W        W26058  31.073  21.802   0.873
52991W        W26059  33.121  22.209  13.203
52992W        W26060  31.694  26.637  11.769
52993W        W26061  33.130  41.628   3.494
52994W        W26062   4.736  23.470   3.330
52995W        W26063   5.342   9.182  14.509
52996W        W26064  22.136   9.615  11.019
52997W        W26065  23.048  43.960   2.924
52998W        W26066   7.110  26.503  10.657
52999W        W26067   3.086  39.497  11.674
53000W        W26068  16.468   2.797  12.906
53001W        W26069  22.773  40.290   0.425
53002W        W26070   6.179  36.367   3.673
53003W        W26071  25.171   6.841   1.779
53004W        W26072  43.822  20.788  14.394
53005W        W26073  33.138  21.945  11.096
53006W        W26074  36.846  11.151   4.532
53007W        W26075  41.813   8.696  14.427
53008W        W26076  18.734   1.325  10.220
53009W        W26077   3.382  41.637   3.593
53010W        W26078   5.691   8.205  11.074
53011W        W26079  31.105  20.074  10.650
53012W        W26080  10.872   1.189   1.173
53013W        W26081  38.250  40.017   4.414
53014W        W26082   8.301  35.116   0.884
53015W        W26083  16.373   4.668  13.012
53016W        W26084  42.968  33.384  11.675
53017W        W26085  14.119  16.327  12.474
53018W        W26086  15.942  13.331  12.640
53019W        W26087  22.689   8.808   4.550
53020W        W26088  22.261  41.005  11.516
53021W        W26089   6.821   8.252  12.627
53022W        W26090   5.400   9.171   2.379
53023W        W26091  26.411   6.813  14.373
53024W        W26092  37.846   3.827  13.528
53025W        W26093   1.666  38.412   4.738
53026W        W26094   0.311  33.122   0.482
53027W        W26095  24.070  19.257   3.681
53028W        W26096   2.025  10.242   4.257
53029W        W26097  16.980  12.276   1.947
53030W        W26098   7.844   1.058   4.986
53031W        W26099  16.192  12.117   1.365
53032W        W26100  29.557  29.995  14.883
53033W        W26101  36.271  17.683  12.055
53034W        W26102   2.958  42.415  10.538
53035W        W26103  44.409   1.576  10.572
53036W        W26104  12.345  23.060   3.639
53037W        W26105  42.759  37.360  11.820
53038W        W26106   1.969  29.696   4.367
53039W        W26107  43.545   1.406  12.101
53040W        W26108  37.107  35.034  10.848
53041W        W26109  41.042  19.811  13.366
53042W        W26110  42.522   4.686   3.159
53043W        W26111  23.931  37.724  11.249
53044W        W26112  11.946  33.469  11.603
53045W        W26113   2.030  43.237  14.002
53046W        W26114  36.495  15.762  13.732
53047W        W26115  11.836  36.767   2.921
53048W        W26116  17.265  35.479  13.749
53049W        W26117  15.494  31.549   1.368
53050W        W26118  30.982  30.625   2.674
53051W        W26119   2.857  39.152   3.961
53052W        W26120  26.023  21.594   2.649
53053W        W26121  23.015  31.317   2.675
53054W        W26122  29.205  26.017  11.948
53055W        W26123  17.544  23.718  10.731
53056W        W26124  22.927  30.003   1.748
53057W        W26125   6.943  32.374   1.960
53058W        W26126  12.283  24.899   1.235
53059W        W26127  42.427  36.767  12.989
53060W        W26128  22.071  18.499   3.832
53061W        W26129   9.690  21.357  10.804
53062W        W26130   6.510  18.867  11.007
53063W        W26131  10.240  18.199  11.313
53064W        W26132  12.163  35.351   1.032
53065W        W26133  12.886  14.338   2.698
53066W        W26134  32.447  23.082   1.127
53067W        W26135  22.603  44.724   3.707
53068W        W26136   7.379   2.470   0.780
53069W        W26137   3.957  42.813   1.672
53070W        W26138   5.777   1.847  11.691
53071W        W26139  42.120  12.707  10.516
53072W        W26140  28.544   3.155   2.445
53073W        W26141   2.406   0.198  13.803
53074W        W26142  23.559  15.364   0.486
53075W        W26143  22.052  27.595  13.970
53076W        W26144  23.805  19.582  11.016
53077W        W26145  18.728   5.329  12.532
53078W        W26146  10.207  34.819  13.880
53079W        W26147  14.866  24.102   3.224
53080W        W26148  11.875   2.166  12.092
53081W        W26149  42.499  38.089   2.713
53082W        W26150  27.188  33.060  13.462
53083W        W26151  31.428  29.528   4.364
53084W        W26152   9.177   0.304  14.002
53085W        W26153  33.460  17.425  10.888
53086W        W26154  38.299  25.818  14.281
53087W        W26155   9.223  21.072   9.950
53088W        W26156   4.850   9.191  12.738
53089W        W26157  22.647   5.406   4.259
53090W        W26158  27.944   9.643   1.943
53091W        W26159   8.553  18.078  12.058
53092W        W26160  39.330  12.833   4.506
53093W        W26161  39.843  33.122   1.703
53094W        W26162  12.138   5.700  12.914
53095W        W26163  20.714  31.911   4.955
53096W        W26164   1.478  32.577  11.565
53097W        W26165  25.688  29.500   0.495
53098W        W26166  21.834   5.170   3.218
53099W        W26167  28.497  30.926  12.006
53100W        W26168  31.481  14.840   1.294
53101W        W26169  25.046  29.644  11.975
53102W        W26170  19.812  15.280  11.116
53103W        W26171  26.618   5.398  12.580
53104W        W26172  38.837   2.019   1.417
53105W        W26173  37.451  23.498   1.207
53106W        W26174  42.760  39.042  12.907
53107W        W26175  20.769  27.953   3.117
53108W        W26176  26.635   8.453   4.597
53109W        W26177  31.990  35.936   1.818
53110W        W26178  38.317  30.558  10.483
53111W        W26179  16.774   6.692   2.658
53112W        W26180  40.521  17.058  10.741
53113W        W26181  20.810  36.591   3.579
53114W        W26182   2.896  38.106   3.089
53115W        W26183  39.967   2.785  12.992
53116W        W26184  30.944  25.117   0.140
53117W        W26185  13.177  43.316   2.314
53118W        W26186  16.023   0.975  13.568
53119W        W26187  43.544  27.709  14.839
53120W        W26188   2.486   3.881   1.776
53121W        W26189  13.711   0.062   3.685
53122W        W26190  12.702   8.875  14.795
53123W        W26191  41.001  10.229   0.659
53124W        W26192   3.886  22.054  11.214
53125W        W26193  20.581  21.629  12.629
53126W        W26194  26.669  40.439  10.954
53127W        W26195  17.857  10.722   4.954
53128W        W26196  32.695  10.181   3.197
53129W        W26197  43.544  34.868  13.333
53130W        W26198  39.290  24.422  12.066
53131W        W26199  19.313   6.576  12.971
53132W        W26200   8.196  14.734   4.512
53133W        W26201  19.480  13.549   4.338
53134W        W26202  15.594  37.747   1.777
53135W        W26203  25.077  44.836   0.513
53136W        W26204   6.182  36.916   1.592
53137W        W26205   8.651   7.404  13.037
53138W        W26206  30.031  15.846  13.282
53139W        W26207  24.041   8.851  14.326
53140W        W26208  11.866  17.788  13.895
53141W        W26209   1.952  14.153  14.205
53142W        W26210  16.483  19.839  14.285
53143W        W26211  19.667  10.899  11.162
53144W        W26212  26.077  23.475   0.093
53145W        W26213  28.257  34.420  11.675
53146W        W26214   4.831  13.589  12.871
53147W        W26215   9.635  24.544   4.099
53148W        W26216  11.052   3.841  12.353
53149W        W26217  17.567   4.840   0.274
53150W        W26218  41.907  36.083  12.910
53151W        W26219  20.562  19.308   2.180
53152W        W26220  44.210  23.111   4.700
53153W        W26221  15.768   5.690   2.727
53154W        W26222  26.274   0.247  11.154
53155W        W26223  16.045  41.252   1.576
53156W        W26224  26.761   8.933   4.733
53157W        W26225  10.160  19.864  13.869
53158W        W26226   6.313  43.788  14.097
53159W        W26227  12.289   7.670  14.330
53160W        W26228   6.843   4.721  11.576
53161W        W26229  41.771   3.791   2.219
53162W        W26230  36.060  10.127  12.448
53163W        W26231  11.591  30.939  12.031
53164W        W26232   8.513   2.308  12.983
53165W        W26233  39.828  18.231   0.510
53166W        W26234   9.327  40.934  13.161
53167W        W26235  17.935  30.216   1.809
53168W        W26236  21.662  27.060  12.630
53169W        W26237   8.710  23.064   1.735
53170W        W26238   8.888  27.222   2.277
53171W        W26239   3.445  22.604  12.423
53172W        W26240  18.140  42.074   0.969
53173W        W26241  14.812  20.035  12.703
53174W        W26242  29.405  20.634   2.985
53175W        W26243  33.192   0.022  12.600
53176W        W26244  29.686   6.809   2.154
53177W        W26245  28.925  21.966  11.997
53178W        W26246   2.352  32.210   9.992
53179W        W26247  37.282  36.303   0.940
53180W        W26248  13.778  17.754   3.126
53181W        W26249  24.210  34.340   4.370
53182W        W26250  11.349   6.612  12.500
53183W        W26251  31.242   6.195   0.703
53184W        W26252  10.632  17.944   1.207
53185W        W26253  33.599  32.726  13.796
53186W        W26254  16.712   8.917   0.794
53187W        W26255  35.427  12.586   0.551
53188W        W26256  28.400   0.217   2.660
53189W        W26257  32.598  18.447   1.061
53190W        W26258  14.610   3.412  12.877
53191W        W26259  31.610   9.797  11.942
53192W        W26260  20.750   1.796  14.345
53193W        W26261   7.911  24.016   1.834
53194W        W26262  37.958  19.499   3.081
53195W        W26263   0.143  21.072   4.913
53196W        W26264  10.305   9.330   4.983
53197W        W26265  14.654  23.682  10.650
53198W        W26266  39.491  31.683  10.730
53199W        W26267  24.224  12.742   4.094
53200W        W26268  20.022   5.317   4.529
53201W        W26269  25.225  41.598   0.688
53202W        W26270  44.451  34.644  13.397
53203W        W26271   8.328   9.852   3.615
53204W        W26272   6.764  36.803   2.749
53205W        W26273  32.696  44.082   1.012
53206W        W26274  42.477  15.696   3.329
53207W        W26275  40.837  13.156  11.128
53208W        W26276  37.540   7.493  10.325
53209W        W26277  28.976  13.819   4.221
53210W        W26278  13.583  37.125  12.107
53211W        W26279  29.652   5.371  13.021
53212W        W26280  22.824  21.284   0.428
53213W        W26281  22.073  34.170  14.173
53214W        W26282  38.385  26.808   2.000
53215W        W26283  21.893  35.449  13.272
53216W        W26284   5.953  43.019   1.192
53217W        W26285  31.681  13.227   2.322
53218W        W26286  42.223  38.520   1.710
53219W        W26287  19.591  27.815  13.696
53220W        W26288  16.613  22.900   1.148
53221W        W26289   3.258  16.801  12.483
53222W        W26290  14.803  29.992   0.818
53223W        W26291  20.157  14.578  10.762
53224W        W26292  11.217  28.266  10.835
53225W        W26293  36.901  37.524   1.375
53226W        W26294  31.480  31.424   4.026
53227W        W26295  36.826  42.918  12.476
53228W        W26296  25.586  41.616   2.395
53229W        W26297  14.853  39.978   3.235
53230W        W26298   0.648   3.230   5.014
53231W        W26299  29.130  24.706   2.842
53232W        W26300  16.119   6.227   4.682
53233W        W26301   0.374  43.835  14.324
53234W        W26302  16.986   9.305  12.567
53235W        W26303  29.428   0.895  14.551
53236W        W26304   5.158   6.111   0.314
53237W        W26305  40.277  35.426   1.565
53238W        W26306  18.248  21.051  14.992
53239W        W26307   1.285  27.939  14.888
53240W        W26308   9.926  41.740   4.563
53241W        W26309  24.269  41.587   1.316
53242W        W26310  35.624  16.618   1.897
53243W        W26311   5.120   9.382   1.981
53244W        W26312  14.206  34.107   4.573
53245W        W26313  40.821  17.159   3.786
53246W        W26314  36.838  42.707   3.710
53247W        W26315   5.302  34.314  13.956
53248W        W26316   4.341  34.023  12.654
53249W        W26317  41.803  18.998   2.640
53250W        W26318  19.008  36.049  13.946
53251W        W26319   6.499  27.095   4.048
53252W        W26320  27.729   5.876   2.238
53253W        W26321  10.190  42.389   2.623
53254W        W26322  19.803  38.574   3.792
53255W        W26323  28.695  40.415   0.242
53256W        W26324   3.925  25.015  11.666
53257W        W26325  28.012  26.003  14.113
53258W        W26326   4.195  20.365  10.560
53259W        W26327  38.364  13.196   3.633
53260W        W26328  12.010   8.463   5.103
53261W        W26329  17.866  18.161   2.943
53262W        W26330   4.751   7.671  10.694
53263W        W26331  29.880  41.978   1.832
53264W        W26332  11.608   7.927  12.456
53265W        W26333  42.347  13.668   4.606
53266W        W26334  43.254  18.081   2.373
53267W        W26335  28.768  37.821  13.449
53268W        W26336  12.570   2.713   1.241
53269W        W26337  32.327  20.667  11.758
53270W        W26338  12.789  30.045  11.470
53271W        W26339  16.067  18.575  12.442
53272W        W26340  37.023  41.368  11.546
53273W        W26341  13.200  30.446   4.315
53274W        W26342  21.289   2.404  10.652
53275W        W26343  29.676  33.636   4.117
53276W        W26344  34.697  33.133   0.850
53277W        W26345   2.752   5.820   2.303
53278W        W26346   5.963  20.246  11.070
53279W        W26347  16.615   7.783  13.997
53280W        W26348  29.179  15.785   3.356
53281W        W26349  16.706  32.203  10.612
53282W        W26350   5.346   2.314   1.838
53283W        W26351  14.371  31.107   1.181
53284W        W26352  22.788   6.693   1.942
53285W        W26353  26.934  41.863  12.091
53286W        W26354  43.459  16.099   1.208
53287W        W26355  13.149  13.725  14.626
53288W        W26356  14.662  43.513   4.406
53289W        W26357  12.685  12.872   1.617
53290W        W26358  42.439  34.034   3.830
53291W        W26359  28.161  38.452  10.695
53292W        W26360  38.368  30.851   1.328
53293W        W26361  37.395   9.955   1.306
53294W        W26362  26.866  26.844   1.924
53295W        W26363  19.157  36.428   1.592
53296W        W26364  31.681  44.225  12.428
53297W        W26365  15.695  42.472   4.412
53298W        W26366  35.362  27.856  13.792
53299W        W26367   6.772  22.495   0.504
53300W        W26368  10.678  28.436   2.704
53301W        W26369  21.967  27.684  12.173
53302W        W26370  42.118  15.139  12.479
53303W        W26371  44.789   0.765   0.534
53304W        W26372  30.434  41.387   4.540
53305W        W26373  22.059   9.544   2.691
53306W        W26374  23.652   0.733  11.085
53307W        W26375  32.348  42.311  11.000
53308W        W26376  33.349  21.056  13.433
53309W        W26377  10.891  41.817  12.390
53310W        W26378  23.150  32.482   1.731
53311W        W26379  34.353  25.158  13.039
53312W        W26380  20.048  15.247  13.581
53313W        W26381  19.761  36.067  10.562
53314W        W26382  32.075  35.451  13.585
53315W        W26383  19.169  26.804  12.059
53316W        W26384  30.885  22.564   3.351
53317W        W26385  36.556  35.925   0.136
53318W        W26386  40.081  17.303   1.214
53319W        W26387  43.889  30.689  14.107
53320W        W26388  15.931  15.203   0.936
53321W        W26389  17.242  34.292   1.529
53322W        W26390  38.884   2.396  12.459
53323W        W26391  32.900   0.565  14.129
53324W        W26392  30.289   6.275  11.531
53325W        W26393  22.341   6.868   2.160
53326W        W26394   1.161  19.723   4.318
53327W        W26395  20.127  32.947  14.985
53328W        W26396   6.745  37.812   1.817
53329W        W26397  19.585  10.767  12.175
53330W        W26398  13.232  14.573  14.261
53331W        W26399  22.005  29.142  10.702
53332W        W26400  43.798   9.481   3.682
53333W        W26401  31.952  38.670   4.172
53334W        W26402  10.559  22.830   3.400
53335W        W26403  35.398  19.805   0.289
53336W        W26404  41.406  28.440  12.471
53337W        W26405  43.382  30.431  10.708
53338W        W26406  25.778  27.258  12.865
53339W        W26407  37.133   7.992   4.245
53340W        W26408  20.067  10.157  12.504
53341W        W26409  20.788  29.837  12.829
53342W        W26410  30.384  12.681   3.616
53343W        W26411   0.290  20.913  12.761
53344W        W26412  39.334   6.326   1.262
53345W        W26413  32.056  30.351  12.625
53346W        W26414  26.116   7.780  11.108
53347W        W26415   1.834  15.226  11.471
53348W        W26416  17.260   9.138  13.396
53349W        W26417  18.807  11.286   4.317
53350W        W26418  16.601  11.163   0.306
53351W        W26419  11.673  23.316   0.740
53352W        W26420  38.564  42.390   1.225
53353W        W26421  31.573  34.404   0.429
53354W        W26422   4.695  14.132   1.307
53355W        W26423  24.576  10.830   4.859
53356W        W26424  34.349  37.399  12.422
53357W        W26425  12.172   8.446  13.828
53358W        W26426  22.031   2.390  14.356
53359W        W26427   2.776  37.476  11.852
53360W        W26428  44.993  21.767   0.451
53361W        W26429  17.724  21.704  11.882
53362W        W26430  37.551  44.274   0.335
53363W        W26431  16.627   5.181   3.459
53364W        W26432  25.171   5.291   2.735
53365W        W26433  13.742   8.807  14.589
53366W        W26434  39.265  36.947  11.935
53367W        W26435   4.861  33.541   4.713
53368W        W26436  18.438  20.275  12.790
53369W        W26437  16.169  30.708   0.836
53370W        W26438   6.824  34.915   3.245
53371W        W26439  30.361  27.775   3.714
53372W        W26440  21.183  21.083   1.815
53373W        W26441  40.757  38.644   5.201
53374W        W26442  33.591  39.868   4.509
53375W        W26443  36.046  42.310   2.753
53376W        W26444  24.095  20.937  13.405
53377W        W26445  43.766  23.782  14.998
53378W        W26446   4.241  23.220   1.855
53379W        W26447   8.907  31.568  12.105
53380W        W26448  11.702  11.137  13.054
53381W        W26449  16.565  16.717  13.832
53382W        W26450  11.558  23.060  14.397
53383W        W26451  41.240  19.123   0.275
53384W        W26452  36.170   3.224   4.708
53385W        W26453  33.569  10.212  14.428
53386W        W26454  20.867  28.604   0.333
53387W        W26455  38.021  11.321  10.950
53388W        W26456  32.397  24.046   2.712
53389W        W26457  26.222  35.548   3.305
53390W        W26458  25.189  20.556  13.844
53391W        W26459   2.659  29.987   4.633
53392W        W26460   5.838  14.851  11.392
53393W        W26461  17.302  33.463  10.766
53394W        W26462  28.125  28.396  14.400
53395W        W26463  21.839  29.905   3.454
53396W        W26464  43.270  26.992  10.190
53397W        W26465  42.839  22.987   0.273
53398W        W26466  34.342  33.783  11.406
53399W        W26467  38.562   3.329   0.492
53400W        W26468  15.441  38.869  14.652
53401W        W26469  38.348   1.434   1.293
53402W        W26470  14.134  14.594  11.951
53403W        W26471   8.599  23.573  14.489
53404W        W26472  13.822  23.284   2.265
53405W        W26473  43.642  14.014  12.362
53406W        W26474  19.792  44.731  13.794
53407W        W26475   2.550  41.513   1.183
53408W        W26476  20.232   1.212   3.413
53409W        W26477  20.047  41.914   3.189
53410W        W26478  25.065  25.602   2.833
53411W        W26479   4.682   6.902  13.533
53412W        W26480   5.276  20.036  13.159
53413W        W26481   0.309  28.959   1.297
53414W        W26482  40.395  33.704   3.634
53415W        W26483   9.322   9.217   0.977
53416W        W26484   4.649  40.801  13.840
53417W        W26485  23.613  28.587   2.695
53418W        W26486  20.492  29.495   4.697
53419W        W26487  30.421  19.653   1.206
53420W        W26488  10.678  33.438   0.311
53421W        W26489  30.158  14.076  12.517
53422W        W26490  20.963  13.039  10.445
53423W        W26491  28.924  33.631   4.611
53424W        W26492  31.460  35.420  12.601
53425W        W26493  22.667  20.724  13.575
53426W        W26494  17.159  31.677   3.500
53427W        W26495  21.094  28.238  10.714
53428W        W26496  27.623  43.363   0.508
53429W        W26497  36.325  11.780   0.388
53430W        W26498   6.688   2.583   0.398
53431W        W26499  33.735  42.066  14.358
53432W        W26500  16.233  16.070   3.151
53433W        W26501  31.484  34.467  11.079
53434W        W26502  24.944   9.720  10.672
53435W        W26503  15.220  12.799  14.368
53436W        W26504  12.856  29.270  11.180
53437W        W26505  14.326  44.316   4.049
53438W        W26506   3.449  13.240  14.416
53439W        W26507  18.571  22.812   1.718
53440W        W26508  43.441   3.417   2.372
53441W        W26509  13.369  30.579  11.838
53442W        W26510   2.924   1.200  11.877
53443W        W26511  24.212   9.608   4.964
53444W        W26512  25.636  31.210   4.059
53445W        W26513  21.808  12.253   0.483
53446W        W26514  12.603  40.998  14.783
53447W        W26515  27.658  31.536   2.231
53448W        W26516  18.385  18.347  11.124
53449W        W26517  37.216  32.642   5.172
53450W        W26518  42.216   0.211  11.678
53451W        W26519  40.035  12.689  11.165
53452W        W26520  15.190  18.038  12.703
53453W        W26521  42.924  25.916  14.937
53454W        W26522  10.749  37.444   4.150
53455W        W26523   8.859   7.372  10.254
53456W        W26524  36.397  27.493  12.852
53457W        W26525  38.472  11.162  10.678
53458W        W26526  22.512  18.678   0.782
53459W        W26527   3.794  33.288   1.469
53460W        W26528  42.887   8.899   3.734
53461W        W26529  16.168  13.388   2.161
53462W        W26530  36.491  36.195   4.734
53463W        W26531  13.588   4.312   3.626
53464W        W26532   3.518   0.260  14.946
53465W        W26533  25.124  31.437  10.918
53466W        W26534  10.965  21.972  12.165
53467W        W26535   9.386   8.132  14.078
53468W        W26536  17.060  21.673  14.299
53469W        W26537  10.909  32.010   0.573
53470W        W26538  23.436  15.120   0.032
53471W        W26539  18.761  29.707  11.128
53472W        W26540   7.765   4.287   3.210
53473W        W26541  21.548  41.078   0.685
53474W        W26542  14.566  36.575   0.680
53475W        W26543  38.866  17.622   0.001
53476W        W26544  29.534   3.939   3.810
53477W        W26545  23.123  31.892  13.540
53478W        W26546  40.911  39.828  11.579
53479W        W26547  15.290  38.077   2.459
53480W        W26548   4.511  13.771   0.314
53481W        W26549  16.476  25.049   2.859
53482W        W26550   1.043  20.205   4.132
53483W        W26551  35.023  12.173   2.778
53484W        W26552   9.669   4.002   0.490
53485W        W26553   7.862  44.489  11.153
53486W        W26554  16.197  28.627  10.371
53487W        W26555   7.206  25.487  14.870
53488W        W26556  35.937  20.026  14.313
53489W        W26557   0.469  38.254  10.977
53490W        W26558   3.815  44.520   4.910
53491W        W26559  23.784   2.454   0.205
53492W        W26560  23.305   8.150   4.426
53493W        W26561  25.018  31.898   2.414
53494W        W26562  33.985   3.952   4.464
53495W        W26563  13.754  35.466  10.311
53496W        W26564  27.259  23.510  13.350
53497W        W26565  31.913  17.114  11.538
53498W        W26566  39.800  30.103  13.300
53499W        W26567  26.935  30.622  10.706
53500W        W26568  15.772  44.978  13.998
53501W        W26569  17.095  44.718  11.635
53502W        W26570  28.013   4.418   2.245
53503W        W26571   5.610  32.540  14.897
53504W        W26572  44.036  16.765  12.449
53505W        W26573  17.163   9.636  13.552
53506W        W26574  37.365  28.559  12.828
53507W        W26575  24.523  25.572  13.277
53508W        W26576  19.052   1.155  11.064
53509W        W26577   1.394  30.514   4.549
53510W        W26578  15.561   0.850   1.191
53511W        W26579  17.280  19.509  11.902
53512W        W26580  33.895   9.556   4.579
53513W        W26581  15.715   8.125   2.685
53514W        W26582  34.901   1.802  13.452
53515W        W26583   0.131  20.770  14.967
53516W        W26584  29.931  31.528  13.842
53517W        W26585   1.924   8.929  11.894
53518W        W26586   2.038  27.989   2.330
53519W        W26587   3.847   0.337  12.360
53520W        W26588  11.241  12.233  14.295
53521W        W26589  31.993   6.435  13.786
53522W        W26590  18.014  24.696   1.467
53523W        W26591   6.353  13.203   4.173
53524W        W26592  23.533  17.847  12.517
53525W        W26593  26.013  44.012  13.558
53526W        W26594  25.031   0.521  14.401
53527W        W26595  37.360  25.727  12.559
53528W        W26596  25.501   7.415   1.748
53529W        W26597  10.919  10.673   3.134
53530W        W26598  13.194  10.681  14.338
53531W        W26599   2.966  21.559  11.467
53532W        W26600   6.588  21.597   4.762
53533W        W26601  11.408  23.088   0.359
53534W        W26602  10.666   7.134  13.926
53535W        W26603  30.861  10.822   0.951
53536W        W26604   2.072  31.834   4.609
53537W        W26605  14.153  35.419   1.449
53538W        W26606  39.117  39.325  12.994
53539W        W26607   4.842  24.048  13.407
53540W        W26608  41.888  13.517   9.906
53541W        W26609   1.445   1.932  10.852
53542W        W26610  18.796  27.923   2.119
53543W        W26611   8.618  28.906   1.966
53544W        W26612  10.786   5.634   0.059
53545W        W26613  13.400  16.285   3.544
53546W        W26614  10.243  39.401   1.238
53547W        W26615   1.897  29.512   2.454
53548W        W26616   6.972   5.065   2.823
53549W        W26617  41.690  36.337   4.159
53550W        W26618  21.717  35.814  14.547
53551W        W26619  16.976   9.669   4.080
53552W        W26620  23.189  20.528  12.889
53553W        W26621   3.733  14.292   1.240
53554W        W26622  19.137  10.662  13.058
53555W        W26623  25.716  36.621   0.297
53556W        W26624  10.805  25.022   3.828
53557W        W26625   7.837  39.640   1.411
53558W        W26626  14.782   0.903   0.998
53559W        W26627  17.895  40.294   4.913
53560W        W26628  39.768   9.184   2.683
53561W        W26629  20.672  15.758   2.964
53562W        W26630  23.968  39.614   3.657
53563W        W26631  14.670   8.572   1.268
53564W        W26632  24.579  16.129  12.446
53565W        W26633  18.247  26.249  10.696
53566W        W26634  13.185  29.647   4.739
53567W        W26635  44.899  29.329   1.442
53568W        W26636  13.118   3.761  11.571
53569W        W26637  34.060  37.779   0.461
53570W        W26638  12.094  11.858   2.207
53571W        W26639  38.289   5.246   1.961
53572W        W26640  11.219  17.466   4.960
53573W        W26641   2.891  23.281  10.882
53574W        W26642  22.004  33.666  11.200
53575W        W26643  26.126  10.181   1.409
53576W        W26644  36.520   5.032   4.766
53577W        W26645   5.173   9.113   4.200
53578W        W26646  36.476  13.730  12.988
53579W        W26647  13.658  28.015  14.042
53580W        W26648  11.925  18.116  14.366
53581W        W26649  41.327  37.132  11.183
53582W        W26650  26.269  14.354   2.404
53583W        W26651  28.093  36.760  12.816
53584W        W26652  39.450  40.484   4.910
53585W        W26653   9.647  44.766   1.589
53586W        W26654  43.002  20.556  13.900
53587W        W26655  42.448   8.962  12.497
53588W        W26656  15.216  33.974   1.259
53589W        W26657   7.606  20.243  10.664
53590W        W26658   5.732  15.573   3.856
53591W        W26659  32.581  17.796  13.824
53592W        W26660  33.077  11.470  14.894
53593W        W26661  36.671  31.264   5.050
53594W        W26662   3.749   2.540   4.653
53595W        W26663  14.869  11.284   4.233
53596W        W26664  20.683   6.367   3.302
53597W        W26665  39.932   0.839  10.690
53598W        W26666  17.011  13.163   4.227
53599W        W26667  34.496  22.720   0.784
53600W        W26668   0.402   8.792  14.144
53601W        W26669  41.960  41.024   2.633
53602W        W26670  37.502   3.192   0.339
53603W        W26671  18.025  24.258   3.299
53604W        W26672   3.949  11.039   0.938
53605W        W26673  43.457  13.774  14.026
53606W        W26674  44.051  19.094  11.608
53607W        W26675  33.036  21.111  13.890
53608W        W26676  19.582  39.266  11.510
53609W        W26677  40.437  16.050  14.589
53610W        W26678  27.942  41.513   1.339
53611W        W26679  25.102  39.126  10.992
53612W        W26680  18.799  14.293   0.171
53613W        W26681   4.726  14.716  10.654
53614W        W26682  30.449  25.552  14.526
53615W        W26683  16.195   2.562   4.653
53616W        W26684  12.878  12.305   0.502
53617W        W26685  15.327  42.888  12.982
53618W        W26686   5.869   5.880  10.667
53619W        W26687  35.092   7.690  13.651
53620W        W26688  16.436  12.354  12.791
53621W        W26689  28.494  14.320   3.684
53622W        W26690  38.736  29.877  11.678
53623W        W26691   3.202  20.794   1.666
53624W        W26692  21.181  44.370  13.808
53625W        W26693   8.670  42.975   4.574
53626W        W26694   2.371   4.517   0.927
53627W        W26695   0.403  21.215  14.818
53628W        W26696  44.238  16.047  13.772
53629W        W26697  17.115  42.934  11.300
53630W        W26698   7.346  18.542  12.951
53631W        W26699   9.905  39.301   0.858
53632W        W26700  28.153   6.209  10.539
53633W        W26701  41.131  16.259  10.660
53634W        W26702  32.890  13.518  12.144
53635W        W26703   7.876  36.578   4.875
53636W        W26704  28.426  22.710  13.007
53637W        W26705  38.283  22.399  11.959
53638W        W26706  30.898   7.449   1.720
53639W        W26707  37.840   4.738  11.936
53640W        W26708  32.037  39.884   0.426
53641W        W26709  30.060  44.286  11.627
53642W        W26710   6.429   3.475  12.958
53643W        W26711  40.369  41.819   0.473
53644W        W26712  40.334  10.601   3.268
53645W        W26713  37.418   3.221  11.426
53646W        W26714  37.904  26.540  12.291
53647W        W26715  27.337   1.986  14.609
53648W        W26716  39.478  30.664  14.936
53649W        W26717  44.811  35.365   4.765
53650W        W26718  30.904  42.161   0.944
53651W        W26719  44.301  14.654  12.833
53652W        W26720   7.000  16.130   3.680
53653W        W26721  34.983  23.519  13.816
53654W        W26722   9.385  20.411  13.309
53655W        W26723  30.826  12.365  11.524
53656W        W26724   7.725  18.262   2.434
53657W        W26725  18.551  37.553  12.014
53658W        W26726  26.993  10.404   1.866
53659W        W26727  39.533  39.125   4.523
53660W        W26728  28.158  42.734   3.275
53661W        W26729  12.158  16.116  10.477
53662W        W26730  30.281   8.102   5.059
53663W        W26731  36.417  24.223   0.950
53664W        W26732  20.640  19.329  12.488
53665W        W26733   6.285  27.404   1.307
53666W        W26734  20.238  10.886  11.967
53667W        W26735  34.923  34.888  14.714
53668W        W26736  18.509  20.578   2.880
53669W        W26737   0.781  28.765   4.472
53670W        W26738  44.245   2.810   0.691
53671W        W26739  35.591   8.398   0.649
53672W        W26740  28.041   1.509  13.484
53673W        W26741  42.706  33.391  12.113
53674W        W26742  37.782  13.893  12.488
53675W        W26743   5.333  35.290   2.633
53676W        W26744  27.403   3.901  14.941
53677W        W26745  31.765   4.664  14.953
53678W        W26746   4.181  19.757   2.132
53679W        W26747  37.376   9.284  14.535
53680W        W26748  29.860  19.269  11.489
53681W        W26749  18.174  31.084  12.577
53682W        W26750  41.785   3.121   2.742
53683W        W26751  40.453  17.510   2.134
53684W        W26752   3.953  33.986   1.953
53685W        W26753  27.354  16.259  13.390
53686W        W26754  15.823  27.049  14.882
53687W        W26755  29.627   2.928  14.046
53688W        W26756  44.220  15.508  11.179
53689W        W26757   9.360  11.080  13.432
53690W        W26758  36.805   8.070   2.439
53691W        W26759  13.412  20.770  13.887
53692W        W26760  18.991  23.186  11.649
53693W        W26761  20.529   0.811  11.619
53694W        W26762  18.899  34.993  10.587
53695W        W26763   0.324  35.568  12.069
53696W        W26764  22.543  14.795   4.737
53697W        W26765   5.100  15.232   0.155
53698W        W26766  10.925   2.718   1.884
53699W        W26767  24.342  18.724  14.818
53700W        W26768  22.524  18.858  11.055
53701W        W26769   6.267  43.344   3.460
53702W        W26770  12.655  38.567   3.665
53703W        W26771  33.488   1.467   1.478
53704W        W26772  10.435  21.416   3.181
53705W        W26773  30.627   6.963  14.445
53706W        W26774  31.948   6.886  14.059
53707W        W26775  41.373  37.004  11.668
53708W        W26776  33.825  23.717  11.098
53709W        W26777  23.572   9.738   0.746
53710W        W26778  11.104  25.073  12.591
53711W        W26779  24.225  36.876   2.671
53712W        W26780  23.985  24.192  10.496
53713W        W26781  17.668  37.660  14.000
53714W        W26782  35.641  41.428   3.111
53715W        W26783  40.583   4.140   3.856
53716W        W26784   9.360  27.044  10.557
53717W        W26785  25.488  42.230   0.289
53718W        W26786   3.929  34.093   2.841
53719W        W26787  34.718  35.037   0.194
53720W        W26788  39.600  40.474  13.744
53721W        W26789   2.239  22.258  10.506
53722W        W26790   6.036  16.811   4.076
53723W        W26791  21.642  19.963  13.977
53724W        W26792  21.876  20.009  14.710
53725W        W26793   6.826  39.714  11.704
53726W        W26794  26.648  26.448   4.923
53727W        W26795   6.216  24.619  11.941
53728W        W26796   6.213  37.526   4.609
53729W        W26797  39.263  13.595  10.595
53730W        W26798  31.430  25.797   0.375
53731W        W26799  13.261  12.167  11.106
53732W        W26800  19.298  39.326   2.206
53733W        W26801   4.211  38.834  14.361
53734W        W26802   2.414  33.169   4.087
53735W        W26803   7.375   3.253  13.307
53736W        W26804   3.656   9.353  13.907
53737W        W26805   3.276  31.011  14.967
53738W        W26806  17.439   4.361   0.551
53739W        W26807  26.468  38.627  12.961
53740W        W26808   8.996   0.334   4.565
53741W        W26809  11.215  22.635  12.014
53742W        W26810   9.880  44.281  11.924
53743W        W26811  30.459  15.859  10.748
53744W        W26812  25.213  11.050  11.389
53745W        W26813  32.923  21.980   1.694
53746W        W26814  14.172  26.249   4.720
53747W        W26815  11.540  27.032  11.496
53748W        W26816   5.749  11.003  14.353
53749W        W26817  25.886  23.194   1.631
53750W        W26818  10.176  21.130   0.429
53751W        W26819  24.219  42.259  10.765
53752W        W26820  27.466  35.529  12.583
53753W        W26821  16.308   1.019  14.966
53754W        W26822  32.286  23.001   0.653
53755W        W26823  26.407  15.877   3.156
53756W        W26824  31.942  24.109   2.949
53757W        W26825  42.886  40.980   4.075
53758W        W26826  15.285   4.798   0.492
53759W        W26827   9.802  13.141  13.534
53760W        W26828  30.348  18.098  12.056
53761W        W26829  34.048  30.878  11.457
53762W        W26830  36.356   1.124  14.081
53763W        W26831  29.034  23.907   4.888
53764W        W26832  33.095  26.488   1.738
53765W        W26833  19.865  17.045   3.224
53766W        W26834   7.337  12.568  14.322
53767W        W26835  27.963  39.084  12.420
53768W        W26836  32.222  24.152   4.918
53769W        W26837  40.991   7.297   2.889
53770W        W26838  31.921   0.789   4.113
53771W        W26839  23.017  18.119  10.981
53772W        W26840   9.714   0.327   2.362
53773W        W26841  37.308  34.137   4.161
53774W        W26842  15.689  26.093   4.586
53775W        W26843   6.108   1.742   4.591
53776W        W26844  27.311  15.364  12.393
53777W        W26845  15.082  14.837   3.819
53778W        W26846  16.730  43.224   1.641
53779W        W26847  37.779   2.311  13.813
53780W        W26848  29.782   7.433   3.726
53781W        W26849   0.921  34.043   0.003
53782W        W26850  34.890   9.651   2.742
53783W        W26851  39.025  25.997  14.885
53784W        W26852  33.971  29.352  13.467
53785W        W26853  28.030  15.864  10.471
53786W        W26854  37.480  31.148  12.104
53787W        W26855  40.331  20.271   1.671
53788W        W26856  28.686  16.534  13.711
53789W        W26857  41.451  22.969  11.002
53790W        W26858  25.246  31.441  10.423
53791W        W26859   0.918  16.148  14.063
53792W        W26860  35.763  29.148   3.227
53793W        W26861  11.779  27.137   1.810
53794W        W26862  17.813  19.015   4.385
53795W        W26863  19.130  39.427   0.100
53796W        W26864   1.259  17.610  13.262
53797W        W26865  22.986   0.264  11.841
53798W        W26866  41.779  43.977  10.830
53799W        W26867  35.308  41.272   4.577
53800W        W26868  29.954  20.243   4.188
53801W        W26869  21.600  19.560   4.703
53802W        W26870  14.970  27.723  11.632
53803W        W26871  23.301  14.873   1.279
53804W        W26872  13.355   1.921  12.979
53805W        W26873   6.170  32.075   3.574
53806W        W26874  28.732  32.141   1.337
53807W        W26875  26.173  16.624   2.687
53808W        W26876  23.768  13.708  14.850
53809W        W26877  35.556  21.703  13.827
53810W        W26878  31.109  21.013   0.315
53811W        W26879   3.703  31.877  14.697
53812W        W26880   0.567  39.461   1.475
53813W        W26881  21.673  42.511  14.860
53814W        W26882  14.574   7.733   3.036
53815W        W26883  42.321  15.699  10.462
53816W        W26884  41.452  15.571   2.271
53817W        W26885  44.176  18.524  12.783
53818W        W26886  30.933   9.272   0.331
53819W        W26887  43.958  33.505   0.266
53820W        W26888   9.872  20.626   3.218
53821W        W26889   8.849   0.692   3.808
53822W        W26890   2.227  20.999   5.015
53823W        W26891   7.524  20.482  12.986
53824W        W26892  32.058   1.768   4.228
53825W        W26893  22.493  21.919  11.883
53826W        W26894   8.288   8.396  11.605
53827W        W26895  16.791  26.368  14.920
53828W        W26896  39.435  22.673   4.458
53829W        W26897  27.053  33.078  13.971
53830W        W26898  38.045   4.939   2.333
53831W        W26899   9.864  19.101   5.063
53832W        W26900   3.038  12.627   3.037
53833W        W26901  26.136  38.877   2.682
53834W        W26902   5.252   5.943   1.721
53835W        W26903  28.031  14.244  12.383
53836W        W26904  27.434  35.692   4.284
53837W        W26905  25.039  15.420  13.867
53838W        W26906  35.607  27.987  11.113
53839W        W26907  30.165   0.439   3.322
53840W        W26908  23.946  22.659  14.253
53841W        W26909  17.031  21.828   3.767
53842W        W26910  43.913   0.722   1.824
53843W        W26911  41.733  24.986   1.707
53844W        W26912  22.447   5.369   4.883
53845W        W26913  32.369  32.189  14.970
53846W        W26914  14.323  23.063   4.317
53847W        W26915   6.891  34.435   3.579
53848W        W26916  22.560  17.124  10.668
53849W        W26917  31.128  16.666   2.692
53850W        W26918  22.120  10.898  12.488
53851W        W26919  34.634  20.081   4.810
53852W        W26920  32.920  30.602   4.355
53853W        W26921  40.896   4.683   3.709
53854W        W26922  23.148  23.266   4.454
53855W        W26923   4.725  18.726   4.643
53856W        W26924  14.647   5.490   3.655
53857W        W26925  15.848   7.109   3.800
53858W        W26926  20.586  28.631   2.885
53859W        W26927  38.511  34.392   3.188
53860W        W26928  18.884   7.839  12.391
53861W        W26929  35.094  18.079   0.916
53862W        W26930  11.962  27.877  11.968
53863W        W26931  20.029  16.506   3.621
53864W        W26932  33.128  19.141  10.419
53865W        W26933   1.855  32.078  14.345
53866W        W26934   3.880  22.431  11.580
53867W        W26935   0.480  27.012   2.139
53868W        W26936   7.708  14.867   0.818
53869W        W26937   4.688   0.734   1.879
53870W        W26938  22.688  42.990  12.058
53871W        W26939   8.125   8.174   2.492
53872W        W26940  34.943   7.999   2.373
53873W        W26941  23.973  38.827  13.964
53874W        W26942  33.745  23.237  14.080
53875W        W26943  38.569   3.738  13.945
53876W        W26944  17.135  29.155  14.863
53877W        W26945  25.192  16.206   1.757
53878W        W26946   0.530  11.566  12.344
53879W        W26947  17.630  11.786  14.923
53880W        W26948  44.854  21.969  13.362
53881W        W26949  41.567  38.178   1.131
53882W        W26950  23.222  22.252  13.570
53883W        W26951  44.799  40.977  11.067
53884W        W26952   4.903  14.469   1.776
53885W        W26953   3.326  39.408  11.240
53886W        W26954  36.291  19.583  10.320
53887W        W26955  42.450  16.234   9.694
53888W        W26956  28.759  35.800   0.001
53889W        W26957   6.477  42.537   2.216
53890W        W26958  39.973  22.409   4.146
53891W        W26959  29.194  43.780   4.790
53892W        W26960  20.550  31.186   1.424
53893W        W26961  26.262  29.851   2.322
53894W        W26962   7.870  32.280   5.294
53895W        W26963  27.594  31.859  11.983
53896W        W26964   7.772  23.720   4.360
53897W        W26965  43.809  28.037  13.911
53898W        W26966  11.108  39.299  11.068
53899W        W26967  36.126  15.299   3.224
53900W        W26968  17.787   3.433  11.125
53901W        W26969   5.206  32.986  11.025
53902W        W26970  16.562   7.996  13.075
53903W        W26971  34.658   7.402  12.465
53904W        W26972  18.336   9.002   2.673
53905W        W26973  27.707  17.562   3.183
53906W        W26974  20.234  40.881   2.741
53907W        W26975  34.345   8.804   3.631
53908W        W26976   6.715  16.207   0.955
53909W        W26977  29.649  21.462  14.903
53910W        W26978   5.442  26.026   0.039
53911W        W26979   7.752  38.825   1.713
53912W        W26980  36.115  21.512   4.188
53913W        W26981  20.185  33.465  11.192
53914W        W26982   6.380  20.780   4.066
53915W        W26983  23.965  42.837  11.600
53916W        W26984  19.861  12.383   3.004
53917W        W26985   3.467  35.156   1.829
53918W        W26986  17.758  25.038  11.171
53919W        W26987  38.034  27.069  12.386
53920W        W26988  44.336  14.806  14.738
53921W        W26989  41.821   4.282   0.671
53922W        W26990  39.252  38.304   4.148
53923W        W26991  20.995   1.371   4.626
53924W        W26992  32.970   1.652   2.696
53925W        W26993  10.278  30.143   4.078
53926W        W26994  11.943   5.272  13.544
53927W        W26995  26.757   6.813   3.514
53928W        W26996  22.383  41.794   5.058
53929W        W26997  28.773  25.982   3.215
53930W        W26998  44.296  16.949   9.887
53931W        W26999  32.652  13.439   0.214
53932W        W27000   6.698  42.113  11.165
53933W        W27001  20.160  42.933   3.308
53934W        W27002   5.904  32.043  12.991
53935W        W27003   5.430   9.781  12.791
53936W        W27004  17.759  21.639   3.322
53937W        W27005  14.136   6.643   2.925
53938W        W27006  16.831  33.198   4.132
53939W        W27007  34.009  35.906  14.403
53940W        W27008  43.819  15.201   4.217
53941W        W27009  22.205  37.115   2.821
53942W        W27010  31.503  40.771  14.371
53943W        W27011  28.512   1.352  11.193
53944W        W27012  31.656  14.564  12.914
53945W        W27013  15.585  29.692   2.682
53946W        W27014  32.656  10.167  10.724
53947W        W27015  33.514  41.854   4.332
53948W        W27016  40.731   1.400  11.579
53949W        W27017   1.384  30.433   2.407
53950W        W27018   3.208  24.202   1.799
53951W        W27019  25.122   5.323   3.247
53952W        W27020  41.266  43.524  12.102
53953W        W27021  41.970  15.964   2.731
53954W        W27022  41.544  44.073  14.403
53955W        W27023  42.250  31.594   2.681
53956W        W27024  16.251   4.347  12.375
53957W        W27025  42.448  31.196  13.970
53958W        W27026  30.951  21.567  13.491
53959W        W27027  25.037  17.818   4.887
53960W        W27028  32.549  35.597   2.380
53961W        W27029  36.515  11.757   3.702
53962W        W27030  37.069  43.823   4.701
53963W        W27031  33.938  41.849  11.941
53964W        W27032  18.606   6.383   1.639
53965W        W27033   2.825  31.270   3.488
53966W        W27034  31.784  28.204  13.744
53967W        W27035  24.012  28.165  12.935
53968W        W27036  28.484   5.810   2.911
53969W        W27037   5.878  39.395  11.981
53970W        W27038  36.148  18.984  13.017
53971W        W27039  42.064  15.264  10.710
53972W        W27040  16.942  36.381   2.392
53973W        W27041  33.455  41.534  12.554
53974W        W27042  18.079  38.488   3.178
53975W        W27043  23.158  15.786  14.976
53976W        W27044  34.540  11.201  14.609
53977W        W27045  43.539  14.635  11.039
53978W        W27046  16.468  35.433   1.399
53979W        W27047  26.068   0.390   4.743
53980W        W27048  19.532   6.994  12.455
53981W        W27049  15.388  34.489  12.900
53982W        W27050   5.934  42.352  11.119
53983W        W27051  17.309  30.078  10.961
53984W        W27052  42.443  36.785   1.242
53985W        W27053  17.340  19.137  14.861
53986W        W27054  36.631  16.748  10.896
53987W        W27055  33.953   2.553   3.866
53988W        W27056  22.646  27.012  11.937
53989W        W27057  40.049  30.509   2.136
53990W        W27058  21.026  34.463  11.691
53991W        W27059   7.340  35.292  14.392
53992W        W27060   0.325  23.639  12.575
53993W        W27061  17.735  17.222   3.726
53994W        W27062  11.094  41.273  14.997
53995W        W27063  14.363  13.140  12.911
53996W        W27064  37.455  13.422   0.764
53997W        W27065   9.803  23.504  12.015
53998W        W27066   1.727   5.236   1.727
53999W        W27067  31.468   7.311   0.953
54000W        W27068  30.034  35.626   3.579
54001W        W27069  30.222   7.167  14.766
54002W        W27070  10.363   0.212   1.425
54003W        W27071   7.748  31.002   3.451
54004W        W27072  36.408  41.864   3.423
54005W        W27073   4.501  44.980  14.454
54006W        W27074  14.866  32.952  12.833
54007W        W27075  40.294  30.609   0.784
54008W        W27076  27.505  15.183  10.628
54009W        W27077   3.683   9.215   2.707
54010W        W27078  26.506  42.000  11.328
54011W        W27079  16.067  44.754  12.323
54012W        W27080   5.757  26.203   1.234
54013W        W27081  35.522  16.187   4.504
54014W        W27082  12.306  27.037   0.478
54015W        W27083  19.734   2.787  12.334
54016W        W27084  28.000  13.175  11.541
54017W        W27085   4.448  37.054   4.158
54018W        W27086  15.365  41.288   0.468
54019W        W27087  34.333  42.526  10.945
54020W        W27088  16.290  11.219   2.821
54021W        W27089  20.512  11.701  12.519
54022W        W27090  35.155  39.915  12.129
54023W        W27091  23.929  23.097   0.951
54024W        W27092  36.004  31.372   4.258
54025W        W27093  21.672  19.558   1.789
54026W        W27094  15.499   2.477  11.940
54027W        W27095  41.519   7.811  11.138
54028W        W27096  23.049  19.330   4.288
54029W        W27097  32.876  31.016   2.592
54030W        W27098  39.540  44.866   1.072
54031W        W27099   7.485  11.802   3.215
54032W        W27100  27.749  30.039   1.933
54033W        W27101   1.477  34.602   2.505
54034W        W27102  12.084   7.637   2.326
54035W        W27103  28.279   5.339   2.686
54036W        W27104  27.962  17.346  14.388
54037W        W27105  44.489  19.809  11.949
54038W        W27106  21.790   5.859   2.749
54039W        W27107  27.462  16.516   4.110
54040W        W27108  41.915  12.697  14.973
54041W        W27109   8.649  11.741  12.300
54042W        W27110  20.533  35.496   1.778
54043W        W27111   6.677  29.627   1.900
54044W        W27112   4.346  22.957   4.480
54045W        W27113   4.800   6.093  14.519
54046W        W27114   9.764  12.764   2.579
54047W        W27115   7.235  19.188   0.491
54048W        W27116  34.589  10.158   2.294
54049W        W27117  33.996  31.621   0.791
54050W        W27118  15.621  20.590  11.923
54051W        W27119  30.611  10.134  10.664
54052W        W27120   2.305  14.326   1.763
54053W        W27121  21.023  25.267  12.461
54054W        W27122  18.483  42.909   1.812
54055W        W27123  15.342   3.970  12.604
54056W        W27124  26.673  10.679   2.187
54057W        W27125  23.788   0.084   3.623
54058W        W27126   9.081   2.998   1.333
54059W        W27127   3.555  26.643   3.223
54060W        W27128   8.348  21.628  13.368
54061W        W27129   2.064  15.900  12.067
54062W        W27130  36.894  43.065  10.160
54063W        W27131   6.525  19.360  10.950
54064W        W27132  15.094  40.459  13.415
54065W        W27133  18.204  20.996   4.097
54066W        W27134  26.902  33.545   3.964
54067W        W27135  19.499  35.604  11.113
54068W        W27136   5.437  43.557  11.483
54069W        W27137  18.511  36.287   1.664
54070W        W27138  34.944  25.638   0.230
54071W        W27139  42.502  40.382  13.341
54072W        W27140  18.136  32.527   0.798
54073W        W27141   3.231  38.982  14.964
54074W        W27142  16.682  37.951  12.714
54075W        W27143  21.735  37.599  13.978
54076W        W27144  34.697  43.699  12.915
54077W        W27145  30.687  22.185  11.819
54078W        W27146  41.439  20.964  11.974
54079W        W27147  39.852   8.634  13.420
54080W        W27148  37.891  16.123   2.332
54081W        W27149  10.165   0.816   0.455
54082W        W27150  27.625   7.400  12.485
54083W        W27151  30.946  44.973  11.153
54084W        W27152  44.490  15.354   4.227
54085W        W27153   8.737   7.488   4.158
54086W        W27154  38.385   8.435   4.546
54087W        W27155  24.495  18.223   4.774
54088W        W27156  25.682  10.666  12.496
54089W        W27157   2.227  22.662  13.940
54090W        W27158   5.874   1.258  14.257
54091W        W27159  16.969  26.681  14.331
54092W        W27160  33.040   8.850  14.849
54093W        W27161  33.562  30.058   4.460
54094W        W27162  10.716  32.820   4.107
54095W        W27163  26.183  11.367   3.729
54096W        W27164   2.288  32.362   0.485
54097W        W27165  28.016   7.643   2.472
54098W        W27166  24.853   3.382   3.709
54099W        W27167  24.652   4.704   1.365
54100W        W27168  16.511  14.876  11.182
54101W        W27169  18.829  37.865  13.537
54102W        W27170  17.609  32.092   1.400
54103W        W27171   5.348  25.670  13.055
54104W        W27172  23.967  27.691   2.150
54105W        W27173  11.376  15.598  13.831
54106W        W27174   2.530  37.921  12.636
54107W        W27175  32.699  31.465   3.092
54108W        W27176  31.508  31.466  11.191
54109W        W27177  15.540   0.759   3.745
54110W        W27178   3.368  35.413   1.346
54111W        W27179  11.747   2.701  12.004
54112W        W27180  25.157  33.810  13.427
54113W        W27181  23.522  38.529  14.419
54114W        W27182  24.101  35.820   4.014
54115W        W27183  33.172  12.630  10.734
54116W        W27184  24.154  15.937  12.249
54117W        W27185  15.988  24.143   0.499
54118W        W27186   1.817  36.569  10.569
54119W        W27187  15.706  34.079   1.097
54120W        W27188  16.368  23.199  13.981
54121W        W27189  40.585   6.802  12.455
54122W        W27190  16.108  12.655   0.455
54123W        W27191  25.458   9.166  12.577
54124W        W27192  22.183  12.809  10.662
54125W        W27193  11.214  11.254   0.486
54126W        W27194  19.108   8.862   2.205
54127W        W27195   7.567  34.504   2.297
54128W        W27196  24.191  43.407  14.010
54129W        W27197  28.296  23.915   3.662
54130W        W27198  23.123  12.253  13.524
54131W        W27199  36.197  36.256  10.937
54132W        W27200  44.954  29.103  11.432
54133W        W27201  39.116  42.244  13.928
54134W        W27202  29.152  18.221  10.529
54135W        W27203   3.732   6.464  14.997
54136W        W27204  11.556   5.228   0.497
54137W        W27205  42.336  14.445  14.938
54138W        W27206   4.435  11.244   0.861
54139W        W27207   2.756  10.669  14.162
54140W        W27208  10.156  22.238  12.113
54141W        W27209  12.794  10.425   4.146
54142W        W27210  15.143  22.230  14.381
54143W        W27211  31.502   4.944   0.456
54144W        W27212  44.987  16.778   2.968
54145W        W27213  28.173  17.950  13.483
54146W        W27214  35.417  26.245   1.670
54147W        W27215  33.487  33.168   4.926
54148W        W27216   8.039  35.538   4.673
54149W        W27217  44.342  10.622  13.845
54150W        W27218  30.860  37.145  12.049
54151W        W27219  33.141  21.747   3.679
54152W        W27220  40.556   6.435  14.886
54153W        W27221   2.293   6.594  13.792
54154W        W27222  29.657  18.060   2.584
54155W        W27223  42.177  36.906  13.841
54156W        W27224  14.713  17.054  11.833
54157W        W27225  37.228   3.351  13.026
54158W        W27226  22.785  31.081  11.552
54159W        W27227   0.383  27.696  14.403
54160W        W27228  35.937  32.529   4.287
54161W        W27229  13.745  19.579   4.097
54162W        W27230   5.176  33.955   4.678
54163W        W27231   4.935  27.771   1.714
54164W        W27232  41.970  36.994  12.801
54165W        W27233   3.782  36.117   2.896
54166W        W27234  23.980  33.118   0.029
54167W        W27235  37.832  29.635   1.117
54168W        W27236  28.751   1.360  14.106
54169W        W27237  41.725  39.180  10.302
54170W        W27238  34.905  10.147  13.902
54171W        W27239  33.232  38.856   3.475
54172W        W27240  10.725  26.124   5.029
54173W        W27241   7.716  30.053  11.585
54174W        W27242   6.343  30.783   0.109
54175W        W27243  19.999  44.878   2.735
54176W        W27244  33.967  41.553   1.785
54177W        W27245  11.862   0.226  14.452
54178W        W27246  24.018   5.686  13.814
54179W        W27247  22.038   8.418   2.934
54180W        W27248  16.783   1.400  10.899
54181W        W27249  38.474  35.817   1.481
54182W        W27250   2.729  21.078  10.496
54183W        W27251  13.369  35.938   1.697
54184W        W27252  33.528  20.867  13.893
54185W        W27253  31.219  42.880  13.855
54186W        W27254   7.263  41.078  12.223
54187W        W27255  39.804   5.423  14.181
54188W        W27256  24.290  26.468   1.063
54189W        W27257  31.387  27.146  12.446
54190W        W27258  30.009  16.179   1.327
54191W        W27259  40.886  21.510  12.433
54192W        W27260   8.308  15.295  13.620
54193W        W27261  18.039  41.474  12.938
54194W        W27262   8.117  23.851  14.419
54195W        W27263  28.258  38.992  13.300
54196W        W27264  38.405  28.850   0.731
54197W        W27265   3.771  23.665   1.420
54198W        W27266  18.791  39.134  10.121
54199W        W27267  26.910  19.492   1.279
54200W        W27268  28.054  10.857  10.119
54201W        W27269  18.501   1.851   3.167
54202W        W27270  31.987  34.528  11.069
54203W        W27271  17.156  38.038   1.223
54204W        W27272   0.637   2.332  14.987
54205W        W27273   0.951   7.198   2.385
54206W        W27274   3.991  44.801  12.898
54207W        W27275  23.028  29.262   0.855
54208W        W27276   2.466  37.499   2.963
54209W        W27277  39.456  18.050  13.536
54210W        W27278  28.637  18.118  12.517
54211W        W27279  21.744  39.548  11.827
54212W        W27280  25.733  39.269   1.999
54213W        W27281   6.685  36.023  11.963
54214W        W27282  16.194   7.265   1.345
54215W        W27283  14.181  40.613   0.767
54216W        W27284  20.205  12.201   3.613
54217W        W27285  13.156  20.075   0.862
54218W        W27286   9.053  19.716   4.722
54219W        W27287   5.201  28.537   0.588
54220W        W27288  33.077  44.868  10.381
54221W        W27289  20.728  29.935   2.465
54222W        W27290  23.564  18.707   4.142
54223W        W27291   8.625  38.723   5.498
54224W        W27292   4.875  25.191  13.517
54225W        W27293  23.579  31.379   1.870
54226W        W27294  37.387  24.022   0.524
54227W        W27295  43.747   3.147  13.334
54228W        W27296  39.288  26.432   1.752
54229W        W27297  34.351   1.725   4.760
54230W        W27298  33.934   5.375   0.911
54231W        W27299  12.050  39.121   4.285
54232W        W27300   2.807  28.366  14.543
54233W        W27301  36.456  33.579  14.695
54234W        W27302  18.347  21.756  13.542
54235W        W27303  39.872  14.220   1.256
54236W        W27304  19.788  26.991  11.544
54237W        W27305  30.176  34.082   0.963
54238W        W27306  21.387  32.618  12.524
54239W        W27307  25.434  33.949  13.996
54240W        W27308  35.832  10.926   1.620
54241W        W27309  16.613  30.862   1.889
54242W        W27310  34.494  17.522  12.457
54243W        W27311  13.940  20.521   4.590
54244W        W27312  41.772  39.821   1.780
54245W        W27313  15.373  31.100  14.275
54246W        W27314   6.863  39.547  10.865
54247W        W27315  21.281  16.645   2.078
54248W        W27316  29.701  15.944  10.604
54249W        W27317   8.717  28.017   1.864
54250W        W27318  31.012  14.542   1.438
54251W        W27319  17.333  40.117  12.439
54252W        W27320  10.287  32.900   4.359
54253W        W27321  22.895  21.171  13.764
54254W        W27322  18.858  35.483  14.520
54255W        W27323  38.582  22.064   4.111
54256W        W27324  10.796  25.987  12.118
54257W        W27325   5.474  18.137   1.610
54258W        W27326  13.891  39.901   2.905
54259W        W27327   4.229  21.966   4.512
54260W        W27328  36.377  12.290   1.947
54261W        W27329  20.628  33.097   2.138
54262W        W27330  25.213   3.874   1.033
54263W        W27331  39.984  22.551  11.537
54264W        W27332  41.833  15.147   0.813
54265W        W27333   7.421  34.952  11.195
54266W        W27334  41.857  39.024   4.184
54267W        W27335  13.617  23.317   0.187
54268W        W27336  19.081  37.342  12.042
54269W        W27337  10.339  34.374   3.730
54270W        W27338  21.036   2.877  10.567
54271W        W27339  29.782  20.230  12.417
54272W        W27340   6.213  17.661  11.991
54273W        W27341   7.928  16.689   0.851
54274W        W27342   4.654   4.801  14.407
54275W        W27343  13.365  20.602   3.792
54276W        W27344  37.471   5.267  12.991
54277W        W27345  26.880  14.518   4.163
54278W        W27346  35.404  42.947   2.245
54279W        W27347   0.288  28.471  12.021
54280W        W27348  30.342   0.453  13.151
54281W        W27349  27.889  35.959   5.119
54282W        W27350  12.365  37.490  11.526
54283W        W27351  23.178  20.118   3.580
54284W        W27352  15.165  36.809   4.677
54285W        W27353   7.798  15.067   0.355
54286W        W27354  17.769  18.267  14.912
54287W        W27355  34.943  31.054   2.822
54288W        W27356  27.338  17.115  12.595
54289W        W27357  38.796  30.414  13.721
54290W        W27358  10.589   3.924   0.643
54291W        W27359  42.303  16.255  13.052
54292W        W27360  41.402  40.514  11.834
54293W        W27361  29.531  16.606   0.884
54294W        W27362  44.260  16.662  14.406
54295W        W27363  21.670   6.336  10.662
54296W        W27364   0.920  43.787  11.140
54297W        W27365  17.059  22.560  10.726
54298W        W27366   2.838  20.477   1.859
54299W        W27367  15.321   6.915  12.069
54300W        W27368   8.185  15.099   3.727
54301W        W27369  23.212  11.234  13.078
54302W        W27370  13.662  29.587   3.210
54303W        W27371  18.706  14.183   3.038
54304W        W27372  13.418   6.324  14.925
54305W        W27373  21.804   7.405   0.714
54306W        W27374   9.759  40.297  12.027
54307W        W27375  34.959  36.806   4.717
54308W        W27376  30.142  30.988  11.145
54309W        W27377  30.002  16.562   1.757
54310W        W27378  15.829   0.295  12.944
54311W        W27379   4.648   6.699   0.679
54312W        W27380  18.091  29.583   1.643
54313W        W27381  25.602  42.294  11.653
54314W        W27382  28.955   4.457  12.473
54315W        W27383  20.536  42.285  14.087
54316W        W27384   4.813  21.707   4.410
54317W        W27385  37.814  26.726   3.823
54318W        W27386  39.864   3.745   2.131
54319W        W27387  26.935  26.669   9.995
54320W        W27388  11.410   8.903   2.700
54321W        W27389   4.183  42.495  12.485
54322W        W27390  43.580   2.935   2.304
54323W        W27391  27.658  44.305   4.225
54324W        W27392  21.048   4.274   0.493
54325W        W27393  26.471  37.173  12.059
54326W        W27394  10.175   0.255  12.583
54327W        W27395  16.476  40.723   1.263
54328W        W27396  25.444  17.235   1.883
54329W        W27397   4.883  42.613  14.494
54330W        W27398  16.266  25.253  12.447
54331W        W27399  44.664  40.002   9.967
54332W        W27400  18.369  25.677  12.467
54333W        W27401  14.027  42.228  10.793
54334W        W27402  12.335   2.235   3.374
54335W        W27403  33.526  40.850   1.900
54336W        W27404  17.234  40.420   2.350
54337W        W27405  34.355  33.590   3.796
54338W        W27406  30.290  25.200   4.555
54339W        W27407   2.622  37.280  14.753
54340W        W27408   0.962  36.877  14.265
54341W        W27409  30.618  31.688  10.797
54342W        W27410  42.838  26.526  12.288
54343W        W27411  41.329   9.378  11.163
54344W        W27412  44.714  27.106  14.375
54345W        W27413  26.989  41.249   4.566
54346W        W27414  31.509   4.443  12.124
54347W        W27415  40.757  27.134   0.896
54348W        W27416  23.785  26.241   1.274
54349W        W27417  30.168  11.370  11.164
54350W        W27418  29.460  38.062  12.930
54351W        W27419  20.983  11.843  13.361
54352W        W27420  27.202  13.756  13.534
54353W        W27421   4.194  41.488   3.322
54354W        W27422  31.694  33.636  12.083
54355W        W27423  41.744  36.541   2.304
54356W        W27424  25.513  14.660   4.680
54357W        W27425   3.323  32.958  10.674
54358W        W27426  38.796   4.390   1.903
54359W        W27427  30.377  32.180  14.979
54360W        W27428  18.100  31.142   3.520
54361W        W27429  26.133   4.885   2.635
54362W        W27430  11.520  23.481   2.230
54363W        W27431  26.127   0.236  12.904
54364W        W27432   6.910  24.203  13.526
54365W        W27433  11.111  19.036  11.647
54366W        W27434  16.004  11.719   3.719
54367W        W27435  40.810  37.504   3.307
54368W        W27436   0.293  15.814   1.193
54369W        W27437  11.378  21.760   0.785
54370W        W27438  33.075  32.478   3.391
54371W        W27439  36.826  37.388  14.498
54372W        W27440  24.960  20.707   4.589
54373W        W27441  42.912  39.685  11.202
54374W        W27442   5.665  31.522   1.434
54375W        W27443  24.191  36.805  10.710
54376W        W27444  27.665  28.518  10.763
54377W        W27445  34.446  16.769  14.207
54378W        W27446  36.871  34.491  13.035
54379W        W27447  24.579   1.910   0.389
54380W        W27448   1.486  24.550   3.625
54381W        W27449  25.674   4.860   4.673
54382W        W27450  12.275  33.296   0.746
54383W        W27451  40.015  31.103   0.161
54384W        W27452  12.108   2.923   1.343
54385W        W27453  32.495  26.935   3.828
54386W        W27454  26.219  37.793   1.866
54387W        W27455  36.163  34.256  12.174
54388W        W27456   6.725  31.185   4.137
54389W        W27457  43.449  35.125  12.887
54390W        W27458   1.864  41.351   2.606
54391W        W27459   8.968  18.384   3.293
54392W        W27460  26.478  41.941  12.310
54393W        W27461  37.769   1.322   2.751
54394W        W27462  18.066  29.422   1.146
54395W        W27463  13.532  40.541   3.648
54396W        W27464  14.248  16.582  12.905
54397W        W27465   8.076  36.586   2.204
54398W        W27466   5.725   2.898  13.453
54399W        W27467  18.823  29.985  10.687
54400W        W27468   9.376  31.668  13.405
54401W        W27469   4.164  14.142   0.307
54402W        W27470  17.307  32.887   1.846
54403W        W27471  40.849   6.892   9.789
54404W        W27472  44.029  44.414   2.962
54405W        W27473  34.485  11.337   2.539
54406W        W27474   7.730  29.124  11.456
54407W        W27475   3.827  41.345  13.465
54408W        W27476  34.827  40.946   0.328
54409W        W27477  26.148  17.745   4.315
54410W        W27478  23.691  37.540   2.347
54411W        W27479  39.818   7.256   2.385
54412W        W27480   1.470  14.389  14.268
54413W        W27481   0.403  37.316   4.892
54414W        W27482  21.037  19.616   1.513
54415W        W27483  21.116  31.931   0.939
54416W        W27484  22.835  29.400  14.263
54417W        W27485  35.461  43.008   3.729
54418W        W27486  44.027  39.128  13.389
54419W        W27487   3.333  17.943  10.716
54420W        W27488  34.143   7.366  12.512
54421W        W27489  43.047  38.888  13.328
54422W        W27490  40.854  43.487   2.343
54423W        W27491   1.999   0.116   0.904
54424W        W27492   7.374  30.666  12.351
54425W        W27493  35.984  22.148   3.134
54426W        W27494  17.832  40.872  14.771
54427W        W27495  42.967  13.857  10.636
54428W        W27496  23.007  34.043  14.792
54429W        W27497  18.701   8.331   4.266
54430W        W27498  27.149  23.401   2.218
54431W        W27499   8.868  39.954  11.577
54432W        W27500  27.620  22.140  12.214
54433W        W27501  43.264  11.989  12.560
54434W        W27502   0.924  25.682  14.976
54435W        W27503  25.186   4.064   4.997
54436W        W27504  43.084  20.049  13.998
54437W        W27505  18.910  44.533  10.598
54438W        W27506  16.272  42.512   4.195
54439W        W27507  35.883  10.665  10.639
54440W        W27508  15.516  40.436   1.425
54441W        W27509  11.614  28.155  13.110
54442W        W27510  20.361  28.168   4.395
54443W        W27511  44.052  34.371  11.679
54444W        W27512  29.204   8.870  12.412
54445W        W27513  33.400  20.666  10.777
54446W        W27514  31.568  43.796   0.070
54447W        W27515  44.873   6.106   3.185
54448W        W27516  23.644  43.542   3.629
54449W        W27517  44.041   4.250  10.647
54450W        W27518  40.846   3.275   3.650
54451W        W27519  10.235  35.160   4.342
54452W        W27520  35.384  27.378  14.022
54453W        W27521  43.783   7.552   2.646
54454W        W27522  22.741  28.107  11.916
54455W        W27523  21.802  25.265   0.102
54456W        W27524  11.105  24.905   1.309
54457W        W27525  12.336   9.844  10.721
54458W        W27526  42.317   7.323  11.473
54459W        W27527   8.390  32.546  10.671
54460W        W27528  23.193   6.671  13.604
54461W        W27529  42.103   4.996   3.142
54462W        W27530  38.540  41.369   0.536
54463W        W27531   8.630  27.428   4.170
54464W        W27532  12.566  32.613   2.310
54465W        W27533  44.716  24.031   4.565
54466W        W27534  32.065   1.200   2.802
54467W        W27535   4.339  13.585   4.766
54468W        W27536  44.174  17.554  14.278
54469W        W27537  15.467  15.459  14.087
54470W        W27538  12.393  24.438   2.617
54471W        W27539  11.323  31.390  12.017
54472W        W27540  18.256  33.919   4.093
54473W        W27541  20.240  40.340   4.560
54474W        W27542  13.277  22.947   3.363
54475W        W27543   3.502  19.251   2.470
54476W        W27544  30.642  44.305   0.301
54477W        W27545   5.654  22.070   4.862
54478W        W27546  31.902  44.833  12.300
54479W        W27547  41.342  38.431  13.133
54480W        W27548  35.350  29.415  14.175
54481W        W27549   0.192  35.775   3.883
54482W        W27550  19.259   8.546   0.818
54483W        W27551  35.932  15.115   4.226
54484W        W27552   9.619  22.469   1.302
54485W        W27553   7.750  30.011   4.916
54486W        W27554  18.660  23.789   0.980
54487W        W27555  40.980  17.831  14.557
54488W        W27556  11.380  21.616   2.394
54489W        W27557  44.993  36.312   3.715
54490W        W27558  25.148  39.299   2.275
54491W        W27559  18.578  14.147  13.749
54492W        W27560   6.006  31.949   4.524
54493W        W27561  42.517  34.142  13.530
54494W        W27562  21.068  33.513   3.579
54495W        W27563  25.720  22.256  11.576
54496W        W27564  10.267  26.553   0.107
54497W        W27565  17.734  12.170   4.582
54498W        W27566  44.044  33.926  11.395
54499W        W27567  18.763   5.657  15.000
54500W        W27568  21.606  10.728  12.300
54501W        W27569  29.396  10.655   4.871
54502W        W27570  24.258  16.647  11.038
54503W        W27571  17.493   7.427  13.940
54504W        W27572  34.582  11.167  14.022
54505W        W27573  24.491   9.868  14.492
54506W        W27574  34.440  19.126  11.268
54507W        W27575  14.925  18.708   0.245
54508W        W27576  10.923  15.586   1.340
54509W        W27577   9.060  23.085  13.398
54510W        W27578  22.000   9.350   4.538
54511W        W27579   0.199   5.248  13.192
54512W        W27580  18.554  40.065  13.994
54513W        W27581  17.264  17.527   2.302
54514W        W27582  15.666   0.908   0.025
54515W        W27583  33.585  44.925  10.293
54516W        W27584   8.611  33.872  11.507
54517W        W27585  24.326  12.524  12.119
54518W        W27586  40.267   7.591   1.466
54519W        W27587  43.571  27.367  11.483
54520W        W27588  25.917  27.627   2.705
54521W        W27589  18.199  39.456   4.289
54522W        W27590   8.273  27.859  14.567
54523W        W27591  19.702  31.090  10.746
54524W        W27592  21.287  24.583  14.093
54525W        W27593  24.011  38.029   9.811
54526W        W27594  44.469  12.853  10.285
54527W        W27595   1.524  24.693   2.189
54528W        W27596  35.912  36.011  12.439
54529W        W27597  36.341  38.471  13.203
54530W        W27598  14.818  18.041   3.619
54531W        W27599  28.048  37.836   1.166
54532W        W27600   1.773  31.483  13.552
54533W        W27601  19.703  37.315   0.998
54534W        W27602  11.791  25.259   3.347
54535W        W27603  37.361   8.673   4.525
54536W        W27604  28.094  21.216  13.802
54537W        W27605  22.928  10.797  14.329
54538W        W27606  43.783  35.585  13.573
54539W        W27607  16.062  13.110  12.183
54540W        W27608  32.965  27.668  11.091
54541W        W27609  29.663  25.993  10.959
54542W        W27610  30.831  20.821  13.241
54543W        W27611   0.939   7.106   4.624
54544W        W27612  10.203  24.939   1.363
54545W        W27613   0.224   9.544  13.802
54546W        W27614  44.323  30.835  10.681
54547W        W27615  38.416  21.616  12.567
54548W        W27616   3.863  30.638   0.489
54549W        W27617  26.079   9.461  13.356
54550W        W27618  30.507  16.598   0.849
54551W        W27619  38.418   2.819  12.867
54552W        W27620  41.338  15.127  11.106
54553W        W27621   1.437  17.129   0.355
54554W        W27622  27.762  24.597  12.956
54555W        W27623  44.919   6.247  12.630
54556W        W27624   4.807  17.645   4.750
54557W        W27625  43.132  15.744  14.895
54558W        W27626  20.976  24.748  12.538
54559W        W27627  39.458   2.511   1.918
54560W        W27628  24.760  32.750  14.407
54561W        W27629  10.880  23.924  11.921
54562W        W27630   4.273  43.344   4.703
54563W        W27631  20.247   2.959  13.606
54564W        W27632  26.388  38.237  10.975
54565W        W27633  30.861  35.925  13.931
54566W        W27634  35.795  33.800  13.840
54567W        W27635   7.942   9.787  10.536
54568W        W27636  25.425  34.782   0.195
54569W        W27637  34.059  42.013   3.556
54570W        W27638  27.754   6.169   2.653
54571W        W27639  18.839  40.480  13.996
54572W        W27640  17.774  24.609  11.962
54573W        W27641  41.728  27.648   4.328
54574W        W27642  34.575   0.746  13.100
54575W        W27643   3.301  28.672  11.999
54576W        W27644   7.984  10.598   4.887
54577W        W27645  31.325  26.651   4.789
54578W        W27646  38.418  41.912   1.335
54579W        W27647  21.378  35.079  12.733
54580W        W27648  33.699  30.385   1.105
54581W        W27649   2.109  38.018   2.171
54582W        W27650  18.632  42.555   0.375
54583W        W27651  36.949  18.629  11.184
54584W        W27652  21.333  34.102  11.495
54585W        W27653   2.845  18.339  14.749
54586W        W27654  10.533   9.224   0.298
54587W        W27655  41.008  40.627  13.546
54588W        W27656  37.771  13.764  14.902
54589W        W27657  18.577  17.723   1.698
54590W        W27658  26.043  26.730   0.903
54591W        W27659  40.989  25.805   0.377
54592W        W27660  16.748  15.295  11.012
54593W        W27661  27.481  43.900  13.415
54594W        W27662   4.316  39.835   0.355
54595W        W27663  32.354  41.348  13.777
54596W        W27664  40.914  39.301  10.698
54597W        W27665  34.890  32.062  14.930
54598W        W27666   3.482   1.258   2.370
54599W        W27667   3.970   4.229   1.213
54600W        W27668  10.897  44.692   4.334
54601W        W27669  31.027  26.035  14.872
54602W        W27670   6.994  22.669   4.277
54603W        W27671  41.016  25.197  12.892
54604W        W27672  22.643   7.741  12.493
54605W        W27673   1.879  29.615  13.907
54606W        W27674  41.528  26.786   0.699
54607W        W27675   3.004  26.483  11.939
54608W        W27676   1.664  30.647  14.048
54609W        W27677   3.691  28.684  11.083
54610W        W27678   3.955  30.965  11.966
54611W        W27679  31.003  24.095   0.441
54612W        W27680  23.686  28.971   4.552
54613W        W27681  17.967  43.359   4.639
54614W        W27682   5.397  28.472   0.113
54615W        W27683   4.306  10.615   3.665
54616W        W27684  27.028   4.757   1.629
54617W        W27685  17.232   4.371  10.752
54618W        W27686  33.401  20.726   4.142
54619W        W27687   2.029  38.847   2.553
54620W        W27688  24.977  39.486  12.965
54621W        W27689   1.946  28.594  14.930
54622W        W27690  44.748   3.229  11.695
54623W        W27691  27.715  13.820   3.709
54624W        W27692  17.859  41.268   2.667
54625W        W27693  18.167   0.405  12.488
54626W        W27694  40.589   1.649   0.864
54627W        W27695  17.731   4.788   2.272
54628W        W27696  40.499  37.647   3.689
54629W        W27697  21.399   8.851  12.974
54630W        W27698  10.548  12.402   4.514
54631W        W27699  13.842  38.723   0.781
54632W        W27700  25.505  25.656   0.397
54633W        W27701  24.728  27.520  12.616
54634W        W27702  31.655  32.602   1.255
54635W        W27703  23.179   4.137   0.323
54636W        W27704  18.793   9.394  11.635
54637W        W27705  41.031   4.715  13.113
54638W        W27706  14.236  11.868  11.105
54639W        W27707   0.381  28.365  13.876
54640W        W27708   1.760  34.398  12.870
54641W        W27709  14.577   9.651   3.646
54642W        W27710  22.592  22.594  13.721
54643W        W27711  30.050  24.018   3.928
54644W        W27712   3.361  11.531  10.467
54645W        W27713  19.809  25.723   0.922
54646W        W27714  43.926  36.335  14.002
54647W        W27715  14.520  20.791   2.696
54648W        W27716  19.110  10.252  14.287
54649W        W27717  42.466   5.965   1.836
54650W        W27718  43.900  41.571   2.013
54651W        W27719  34.522  37.868  13.706
54652W        W27720  17.570  31.094   0.422
54653W        W27721  24.173  41.999   4.020
54654W        W27722  10.815  41.924  11.878
54655W        W27723  13.914  44.886   0.347
54656W        W27724   6.841  10.412   0.891
54657W        W27725   3.244   6.837   4.401
54658W        W27726  18.113  21.578  10.494
54659W        W27727  35.348  14.276  11.613
54660W        W27728  17.190  34.977  13.132
54661W        W27729  40.361   4.970   4.581
54662W        W27730  14.811  38.587  13.411
54663W        W27731   4.721   8.184   2.821
54664W        W27732   3.430  31.302   0.913
54665W        W27733  32.323  19.527  14.146
54666W        W27734  41.718   5.826  13.306
54667W        W27735  18.740  31.849  13.402
54668W        W27736  44.202   8.294   0.497
54669W        W27737   9.633  40.037  14.524
54670W        W27738  10.162  13.077   2.755
54671W        W27739  30.667  29.765  11.050
54672W        W27740  18.628  23.009  14.821
54673W        W27741  36.635  40.556   1.515
54674W        W27742  36.982  19.293   3.280
54675W        W27743  21.711  17.788   2.379
54676W        W27744  38.475  22.496   3.801
54677W        W27745  28.520  26.661   1.479
54678W        W27746  19.033  15.133  14.356
54679W        W27747  28.139  23.776   3.176
54680W        W27748   9.703   0.293   3.747
54681W        W27749   8.925  16.588  10.409
54682W        W27750  40.045   2.467   0.259
54683W        W27751  32.817  28.723  13.580
54684W        W27752   6.904  38.593  13.555
54685W        W27753  43.870  29.958  12.920
54686W        W27754  14.921  32.192   2.642
54687W        W27755   0.936  31.658  14.724
54688W        W27756  13.067  12.366  12.355
54689W        W27757  25.125  28.710  14.506
54690W        W27758   0.839   8.118  10.738
54691W        W27759  15.819  27.421  10.184
54692W        W27760  12.762  26.668  14.928
54693W        W27761  21.167  19.266  11.081
54694W        W27762  22.528  24.071  14.754
54695W        W27763   6.838   8.389   4.689
54696W        W27764  39.389  39.514   0.376
54697W        W27765   3.937  31.051  11.458
54698W        W27766  44.449  30.628  12.933
54699W        W27767  14.112  13.715   4.613
54700W        W27768  32.520  28.744  11.878
54701W        W27769  30.222  31.898   1.379
54702W        W27770   2.824  27.208  12.054
54703W        W27771  34.522  27.494   3.932
54704W        W27772  11.513  12.655   2.336
54705W        W27773   0.778  24.359  11.370
54706W        W27774  40.766   1.470   1.309
54707W        W27775  42.003   0.847   4.539
54708W        W27776  25.541  25.451   1.669
54709W        W27777  18.191  37.691  13.043
54710W        W27778  42.566  26.486   3.235
54711W        W27779   3.303   2.348   2.509
54712W        W27780  15.405  14.764   3.403
54713W        W27781   0.633  44.171   0.421
54714W        W27782  44.244  23.498   2.305
54715W        W27783  16.680   4.448   2.838
54716W        W27784   4.864  15.169  11.361
54717W        W27785  27.225  16.745   0.741
54718W        W27786  21.167  44.000   0.667
54719W        W27787  33.517   2.847   3.848
54720W        W27788   8.316  18.357  14.306
54721W        W27789  42.263  21.483  14.558
54722W        W27790  29.402  35.675  12.286
54723W        W27791  13.343   3.180   1.124
54724W        W27792  35.005  35.986   4.650
54725W        W27793  13.337   0.841   3.288
54726W        W27794  19.582  34.642   5.059
54727W        W27795  40.825  30.608  10.697
54728W        W27796  30.357  27.576  14.800
54729W        W27797  14.968  21.751   2.386
54730W        W27798   3.264  11.642   4.584
54731W        W27799  35.813  36.854   1.673
54732W        W27800  25.371  42.733  11.532
54733W        W27801  23.973  13.267  11.586
54734W        W27802  23.725  15.580   1.844
54735W        W27803  33.509  10.441  13.945
54736W        W27804  39.001  18.818  10.029
54737W        W27805   1.758  42.315  14.120
54738W        W27806  44.118  12.813  14.088
54739W        W27807   7.665  43.876   3.347
54740W        W27808  22.519  14.024   0.933
54741W        W27809  42.228  15.635  14.512
54742W        W27810  39.584  24.684   1.743
54743W        W27811   7.211   1.655  11.639
54744W        W27812   5.655  35.122  12.090
54745W        W27813  39.942   2.693  11.268
54746W        W27814  42.966  27.545   4.204
54747W        W27815  29.328   2.371  12.943
54748W        W27816  44.667  20.975   0.038
54749W        W27817  23.037  17.262   2.377
54750W        W27818   0.829  19.038   3.621
54751W        W27819   9.253   6.723   3.436
54752W        W27820  41.316  20.477  11.130
54753W        W27821   0.772  40.346  12.718
54754W        W27822  42.034   9.766  12.520
54755W        W27823  26.218  41.784   4.287
54756W        W27824  25.299  20.217   2.764
54757W        W27825  33.299  11.045  12.461
54758W        W27826  37.988  34.401   3.188
54759W        W27827   3.896  36.590   0.896
54760W        W27828  25.260  31.106   1.701
54761W        W27829   2.239  43.481   0.381
54762W        W27830  22.931   5.416   3.756
54763W        W27831  18.664  10.480   4.780
54764W        W27832  31.156  19.588  10.232
54765W        W27833  31.079   1.681   1.956
54766W        W27834  21.491  39.473   1.211
54767W        W27835   1.261  42.474   0.181
54768W        W27836   0.019  35.332   1.291
54769W        W27837  14.120   4.517   0.701
54770W        W27838  33.376  30.981  12.140
54771W        W27839  12.465  41.316  13.966
54772W        W27840   1.819  27.051  12.539
54773W        W27841  23.578  12.218  11.089
54774W        W27842  44.821   4.330   1.283
54775W        W27843  16.579  39.881  12.437
54776W        W27844  19.337  16.606   4.375
54777W        W27845  11.130  44.287   4.626
54778W        W27846  27.164  34.410  12.218
54779W        W27847  35.002  39.591  13.949
54780W        W27848  22.044   7.434   2.761
54781W        W27849   6.292  22.124   4.302
54782W        W27850  37.071   4.131   3.761
54783W        W27851  12.757  35.667  14.798
54784W        W27852  25.042  35.515  11.568
54785W        W27853  24.434   7.805  10.917
54786W        W27854  23.489   2.003   2.102
54787W        W27855  29.972   3.758  12.026
54788W        W27856   2.872  16.029  14.061
54789W        W27857  11.804   7.433  14.608
54790W        W27858  11.664  22.690   1.722
54791W        W27859  18.673  26.147   0.021
54792W        W27860  18.180  31.838   0.076
54793W        W27861  29.636  30.489  10.647
54794W        W27862   3.160  25.137  14.562
54795W        W27863  16.949  27.789   2.432
54796W        W27864  19.077  28.492  11.459
54797W        W27865  30.197  33.078  11.658
54798W        W27866  14.926  31.338  12.159
54799W        W27867  42.910  10.430   1.747
54800W        W27868  34.554  39.356  14.712
54801W        W27869   0.885   5.691   3.944
54802W        W27870  24.245  11.296  14.910
54803W        W27871  43.267  13.309  10.833
54804W        W27872  39.927  37.710   1.884
54805W        W27873   4.848   7.422  13.263
54806W        W27874  11.145  23.922  10.616
54807W        W27875  15.037  35.327   1.363
54808W        W27876  12.788  26.906   3.310
54809W        W27877  10.692  37.047  10.625
54810W        W27878  17.450  25.339   1.765
54811W        W27879  21.428  44.511  14.251
54812W        W27880  15.901  34.505  12.930
54813W        W27881   8.671  33.870  13.941
54814W        W27882  28.989   4.772   4.426
54815W        W27883   1.476  42.683   2.697
54816W        W27884  42.398  43.592  12.545
54817W        W27885  10.084  15.581  12.511
54818W        W27886  19.084  35.887  11.208
54819W        W27887  15.716  42.422  14.320
54820W        W27888  24.235  24.641  13.626
54821W        W27889  21.022  11.230   2.776
54822W        W27890  29.466  37.533  12.022
54823W        W27891   3.819  19.652   1.731
54824W        W27892   7.933   0.817   1.566
54825W        W27893  34.107  24.665   1.770
54826W        W27894  10.856  42.711   4.205
54827W        W27895  16.084   7.603  11.028
54828W        W27896  35.718  41.780   1.867
54829W        W27897  16.354  10.115  10.187
54830W        W27898  30.443  20.108   4.284
54831W        W27899  26.575  40.345   1.170
54832W        W27900   3.616   4.401   0.255
54833W        W27901  20.756  42.810   3.050
54834W        W27902   7.926   4.104  10.528
54835W        W27903   8.632  18.094  13.080
54836W        W27904   4.408  11.118  14.757
54837W        W27905   8.518  40.379  10.755
54838W        W27906  16.260  26.678   3.131
54839W        W27907  41.525  41.292   3.388
54840W        W27908  40.031  42.474   3.871
54841W        W27909  16.843  14.881   0.286
54842W        W27910  30.844  35.989  12.400
54843W        W27911   3.109  11.238  14.856
54844W        W27912  43.882  40.084  13.509
54845W        W27913  37.505   4.399   0.790
54846W        W27914  25.147  35.932  14.818
54847W        W27915   5.840  19.656   3.338
54848W        W27916  14.128  32.337  14.284
54849W        W27917  13.194  16.269   1.256
54850W        W27918   6.913  20.845   4.618
54851W        W27919  13.608  29.019  10.838
54852W        W27920  43.138  31.616   0.016
54853W        W27921  25.214   0.748  11.978
54854W        W27922  33.731  14.723   3.713
54855W        W27923  32.339  21.165  11.860
54856W        W27924  40.854  21.345   0.959
54857W        W27925  27.247  10.805   1.596
54858W        W27926  36.474  34.504   1.299
54859W        W27927  12.562  35.484   4.676
54860W        W27928  38.659  13.174   1.351
54861W        W27929  31.650  21.390   1.449
54862W        W27930  39.827  21.165   0.925
54863W        W27931  39.388  44.504  10.174
54864W        W27932  33.702   6.838   2.780
54865W        W27933   3.299  26.503   2.799
54866W        W27934  34.856  35.828  10.594
54867W        W27935   6.242  26.960  14.123
54868W        W27936  30.470   8.918   4.393
54869W        W27937  12.134  37.477   1.818
54870W        W27938  24.321   8.856   3.318
54871W        W27939  28.867  31.089   0.311
54872W        W27940  37.666   4.930  14.650
54873W        W27941  39.302   5.460  13.985
54874W        W27942  35.577  36.451  11.715
54875W        W27943  41.944   9.021  11.866
54876W        W27944  29.142  23.929   2.398
54877W        W27945   0.722  36.556   4.100
54878W        W27946  30.640  40.289   1.677
54879W        W27947   5.966  14.128   3.976
54880W        W27948  12.139   8.798   0.645
54881W        W27949  44.857  17.200  11.445
54882W        W27950  20.309  26.175   1.697
54883W        W27951  13.236   0.649  11.364
54884W        W27952  28.567  21.518   3.401
54885W        W27953  42.985  31.996   1.347
54886W        W27954  12.559  25.608  12.065
54887W        W27955  15.439  15.129   0.811
54888W        W27956  23.735  17.288   0.908
54889W        W27957  17.183   2.536  13.969
54890W        W27958  10.080  18.599  12.093
54891W        W27959  26.665  40.435   2.148
54892W        W27960   7.182  10.656  10.658
54893W        W27961  11.077  38.903   4.656
54894W        W27962   4.266  14.156   4.647
54895W        W27963  29.361  13.931  11.081
54896W        W27964   1.108   9.622  11.635
54897W        W27965  20.342  17.641  11.139
54898W        W27966   1.667   8.818  11.456
54899W        W27967  16.340  23.028  13.474
54900W        W27968  28.639  24.457   1.772
54901W        W27969   0.889  44.214   5.136
54902W        W27970  10.369  10.092   2.156
54903W        W27971   9.258  29.474  12.166
54904W        W27972  32.658  28.109  11.129
54905W        W27973  17.224  33.445  11.743
54906W        W27974  22.453  32.105   3.439
54907W        W27975  27.261  38.461   4.182
54908W        W27976  21.195  16.432   4.169
54909W        W27977   0.389   4.977  12.097
54910W        W27978  22.520  26.469   2.215
54911W        W27979  27.456   7.632   1.353
54912W        W27980  15.246   4.432  11.265
54913W        W27981  42.468   0.290  14.639
54914W        W27982   8.384  33.100   3.269
54915W        W27983  12.159  14.436   3.825
54916W        W27984  14.871  13.400  14.253
54917W        W27985   9.737   4.768  14.997
54918W        W27986  14.231  14.384   1.608
54919W        W27987  24.059  25.733   0.051
54920W        W27988  18.600  28.707   4.442
54921W        W27989   1.196  41.214  14.336
54922W        W27990   0.901   3.387  13.083
54923W        W27991  28.487   7.498  12.092
54924W        W27992  32.913  11.015  10.497
54925W        W27993  38.165   9.886  11.972
54926W        W27994   5.398  13.802   0.855
54927W        W27995  24.646   0.126  11.380
54928W        W27996  40.032  16.015  13.240
54929W        W27997  24.723  14.806   0.532
54930W        W27998  34.515  39.465  13.799
54931W        W27999  42.235  12.424   4.607
54932W        W28000  31.070  15.256  11.667
54933W        W28001   2.521  11.625  11.216
54934W        W28002  20.486  34.110  12.884
54935W        W28003   5.723  38.242  14.704
54936W        W28004   2.392  23.141  12.109
54937W        W28005  29.980  13.857  11.122
54938W        W28006   9.203   0.800   0.415
54939W        W28007  34.761   5.762   2.224
54940W        W28008  39.822  34.351   2.681
54941W        W28009  33.514  44.191   3.557
54942W        W28010   0.542  22.567   3.313
54943W        W28011  30.173  31.621   2.264
54944W        W28012  28.912  41.623  11.446
54945W        W28013  17.452  37.225   4.946
54946W        W28014  40.565  43.293   4.021
54947W        W28015   4.783  32.138  13.887
54948W        W28016  14.731   3.496   0.823
54949W        W28017  12.264  16.646   3.638
54950W        W28018  13.650  18.672   2.141
54951W        W28019  32.633  21.343  12.897
54952W        W28020   8.634  12.958   5.279
54953W        W28021  42.813  43.687  14.804
54954W        W28022   1.404  28.705  11.697
54955W        W28023   1.166   8.312   4.046
54956W        W28024  17.805  43.225   1.931
54957W        W28025  43.947   7.003   0.295
54958W        W28026   3.818  29.971   3.180
54959W        W28027   6.195   3.824  14.254
54960W        W28028  24.221  14.338   4.574
54961W        W28029  10.097  25.057   2.235
54962W        W28030  23.003  27.108   2.834
54963W        W28031  10.726   6.872   0.870
54964W        W28032  38.963  24.566  11.144
54965W        W28033  42.764  37.544   4.266
54966W        W28034  40.805  11.251   2.176
54967W        W28035  11.272  17.282   5.453
54968W        W28036  43.800  44.806  12.985
54969W        W28037  26.183   3.845   0.410
54970W        W28038  40.522  20.545   2.595
54971W        W28039  36.677  15.581   9.990
54972W        W28040  28.256  39.749   1.459
54973W        W28041  12.191  27.490   3.115
54974W        W28042   2.025  41.527   0.389
54975W        W28043   4.370  22.911  12.458
54976W        W28044  32.689   9.334   4.056
54977W        W28045  38.406   4.622   2.612
54978W        W28046  16.457   3.818   3.569
54979W        W28047  31.179  40.320  13.028
54980W        W28048   0.564  31.494   4.124
54981W        W28049  17.349  44.330   2.664
54982W        W28050  39.499  16.312   4.413
54983W        W28051  30.629  25.217   3.290
54984W        W28052   5.381  24.500   0.333
54985W        W28053  42.963  31.510  11.472
54986W        W28054  26.463   8.169   3.653
54987W        W28055  33.748  12.112  11.124
54988W        W28056   0.944  14.488   4.196
54989W        W28057  38.540   0.741   2.355
54990W        W28058  27.139  29.306  10.353
54991W        W28059  42.900  33.865  12.423
54992W        W28060  15.274  35.400   3.457
54993W        W28061  26.853  18.709  14.786
54994W        W28062  42.380  23.323  12.370
54995W        W28063  22.932  11.167  12.213
54996W        W28064  29.172  27.940   3.736
54997W        W28065  14.799  36.534   2.179
54998W        W28066  42.418   2.221   0.978
54999W        W28067  12.269  44.818   4.165
55000W        W28068  32.371  25.607  11.537
55001W        W28069  24.201  18.441  12.327
55002W        W28070  38.052  20.060   4.339
55003W        W28071  29.699  38.913  12.850
55004W        W28072   4.952  37.930  12.489
55005W        W28073  33.552  29.515  10.258
55006W        W28074  12.081  36.532   1.774
55007W        W28075  25.056  32.608   3.149
55008W        W28076   1.850  37.754  12.874
55009W        W28077  44.965  15.182  14.561
55010W        W28078   3.227   5.198  13.562
55011W        W28079  13.839  35.494   3.735
55012W        W28080  20.245   8.448   3.165
55013W        W28081  18.781  23.718   2.267
55014W        W28082  43.271  29.598  11.544
55015W        W28083  32.552  23.056   4.427
55016W        W28084  18.796  39.099  13.844
55017W        W28085   2.384  44.063   4.675
55018W        W28086  38.262  18.227  13.530
55019W        W28087  31.202  10.251   3.249
55020W        W28088  21.737  19.032   1.766
55021W        W28089  23.597  11.318   4.262
55022W        W28090  29.624  25.996   0.409
55023W        W28091  19.743  11.198  11.575
55024W        W28092   7.790  29.966   4.417
55025W        W28093  13.902  37.242  14.967
55026W        W28094   0.210   1.523  11.143
55027W        W28095  33.075   2.289   4.377
55028W        W28096  43.756  18.141   1.448
55029W        W28097  39.389  21.455   3.553
55030W        W28098  43.853   3.044   1.775
55031W        W28099   2.834  13.780   4.723
55032W        W28100  41.198  16.114   2.278
55033W        W28101  17.859  32.903   4.043
55034W        W28102  23.351  37.454  12.543
55035W        W28103   6.234  26.989   0.427
55036W        W28104   3.019  32.722   3.044
55037W        W28105  13.797  29.503   2.174
55038W        W28106  44.439  11.292  10.399
55039W        W28107   4.811   4.380   1.433
55040W        W28108  39.798  24.548   0.923
55041W        W28109   0.459   3.854  11.966
55042W        W28110  22.269  45.000   3.187
55043W        W28111  21.802  35.945  13.125
55044W        W28112  39.388  25.478  11.010
55045W        W28113   6.644  31.127  11.131
55046W        W28114  41.739  44.330   0.971
55047W        W28115   9.786  21.251  11.855
55048W        W28116  37.987  12.210   0.419
55049W        W28117  31.055  19.013  11.588
55050W        W28118  34.952  33.126  10.640
55051W        W28119  23.955   0.245   1.842
55052W        W28120  23.120  23.672   2.838
55053W        W28121  42.741  22.556   4.218
55054W        W28122  35.896  13.340   2.756
55055W        W28123  43.250  39.366  11.457
55056W        W28124  44.773   5.824   4.129
55057W        W28125  18.151  16.500  11.656
55058W        W28126   6.902  41.939  10.285
55059W        W28127   9.843  17.981   1.856
55060W        W28128  44.978  25.619   2.199
55061W        W28129  17.424   6.360  11.431
55062W        W28130  42.291   3.874   2.161
55063W        W28131  16.172  34.335  13.742
55064W        W28132  25.168  43.559  12.032
55065W        W28133   0.044  39.093  11.604
55066W        W28134   7.143  28.660  14.472
55067W        W28135   4.836  18.325  12.907
55068W        W28136  15.643  18.441   2.275
55069W        W28137  19.077  23.283  13.027
55070W        W28138  18.565  14.571  12.130
55071W        W28139  25.182  21.953   0.806
55072W        W28140  40.315  38.546  11.140
55073W        W28141   1.737   5.506  12.535
55074W        W28142   2.255  30.236  11.565
55075W        W28143  15.604  25.674   1.609
55076W        W28144  42.502   9.971  12.401
55077W        W28145  18.513  31.997   4.968
55078W        W28146  21.717  10.462  11.872
55079W        W28147  12.371   7.504   1.849
55080W        W28148  37.650   9.872  12.329
55081W        W28149   9.760  22.600   2.676
55082W        W28150   6.763  24.602  13.223
55083W        W28151  44.767  18.276  12.492
55084W        W28152  40.555  39.861   3.268
55085W        W28153  37.720  32.070   4.049
55086W        W28154  32.578  40.786  10.329
55087W        W28155  12.385  18.985   0.435
55088W        W28156  10.153  35.741  14.014
55089W        W28157  44.663  20.168  13.447
55090W        W28158   4.428   9.738  11.453
55091W        W28159  33.273   2.916  14.308
55092W        W28160  42.167  38.552  13.864
55093W        W28161  23.782  21.136   2.829
55094W        W28162   5.836  28.496  13.634
55095W        W28163  42.129   3.433  11.158
55096W        W28164  11.426  30.198  11.436
55097W        W28165  35.966  39.102  10.593
55098W        W28166  13.017  32.967   2.213
55099W        W28167  44.850  36.218   5.067
55100W        W28168  39.281   3.499   2.845
55101W        W28169  42.581  17.887   2.036
55102W        W28170  43.312  36.283   1.391
55103W        W28171   9.693  34.460  12.846
55104W        W28172  40.366  36.485   4.157
55105W        W28173  18.665   5.165   1.726
55106W        W28174  13.803  27.725  11.166
55107W        W28175  33.142   4.046   2.211
55108W        W28176  12.248  42.491  14.479
55109W        W28177  32.020  41.538  12.845
55110W        W28178   6.168  40.429   3.786
55111W        W28179  28.270  33.351   3.194
55112W        W28180   5.865  25.356  12.527
55113W        W28181  24.661  11.671  13.793
55114W        W28182  28.620  23.985   3.178
55115W        W28183  29.973  22.777  12.696
55116W        W28184  10.013  34.530   2.778
55117W        W28185  40.133   0.362  12.469
55118W        W28186  24.760  39.471  14.010
55119W        W28187   1.239  25.110   2.158
55120W        W28188  27.476  18.021  11.994
55121W        W28189  37.685  14.560   3.620
55122W        W28190  32.384  21.673  11.919
55123W        W28191  25.553  22.808   1.482
55124W        W28192  35.282  11.140  13.415
55125W        W28193   3.488  16.612  11.080
55126W        W28194  22.748   4.863  12.943
55127W        W28195  31.578  28.592   0.271
55128W        W28196  16.697   2.622  11.007
55129W        W28197  11.167  18.515  10.308
55130W        W28198  36.040   2.401  10.728
55131W        W28199  37.564   4.728   2.401
55132W        W28200  29.190   9.965  13.423
55133W        W28201  34.802  38.619  14.002
55134W        W28202  33.072  41.494  10.904
55135W        W28203   0.738  36.276  13.380
55136W        W28204  38.405  30.211  10.854
55137W        W28205  24.129  32.035   2.284
55138W        W28206   5.321   1.020   1.620
55139W        W28207  28.323  23.012   5.066
55140W        W28208  28.058  28.874   3.058
55141W        W28209  24.426   3.454   4.227
55142W        W28210  14.698  13.044  10.749
55143W        W28211  18.274  18.462   2.805
55144W        W28212   2.124  28.631  12.929
55145W        W28213  14.410  20.985  10.636
55146W        W28214  36.801   9.293   1.711
55147W        W28215  19.828   5.454  14.252
55148W        W28216  22.791  17.706  10.751
55149W        W28217  40.611  36.572   1.468
55150W        W28218  20.291   2.995   1.099
55151W        W28219  18.030  22.054   1.513
55152W        W28220  15.019  13.733  13.048
55153W        W28221  23.252   2.496   1.431
55154W        W28222  37.252  16.081  13.508
55155W        W28223  10.637  40.559   2.798
55156W        W28224  20.075  44.514  11.104
55157W        W28225   8.330  16.223   2.507
55158W        W28226   2.418   4.762  12.306
55159W        W28227  24.411  34.186  11.145
55160W        W28228   4.710  41.830  11.914
55161W        W28229  44.243  29.895   1.842
55162W        W28230  32.562   1.713   2.388
55163W        W28231  14.999  19.487   0.819
55164W        W28232  37.121  16.929  13.352
55165W        W28233  24.469  23.558   4.568
55166W        W28234   3.141  15.709   0.855
55167W        W28235   9.028  33.713  14.508
55168W        W28236  23.215  31.008   3.091
55169W        W28237  33.375  22.020   1.953
55170W        W28238  42.491  43.484   4.660
55171W        W28239   9.196   7.502  11.041
55172W        W28240  21.363  22.802   0.092
55173W        W28241  18.087  29.873   0.496
55174W        W28242  34.583   0.040   1.395
55175W        W28243  26.115  15.772  11.980
55176W        W28244   0.461   0.971   1.354
55177W        W28245  19.675  26.348   2.319
55178W        W28246   1.550  43.358   3.732
55179W        W28247  41.330   9.914  13.759
55180W        W28248  29.465  26.647   2.389
55181W        W28249  41.880  43.803  11.817
55182W        W28250   6.616  28.210  12.907
55183W        W28251   7.457   1.458  12.032
55184W        W28252  35.053   4.828  12.159
55185W        W28253   5.341  34.877  13.987
55186W        W28254   1.869  11.878   5.155
55187W        W28255  35.117  31.579   2.611
55188W        W28256  14.584  23.413   3.754
55189W        W28257  29.408  18.448  11.820
55190W        W28258  40.387  23.936  10.184
55191W        W28259  25.118  11.257   1.204
55192W        W28260  27.570  14.019  11.623
55193W        W28261  28.602  35.592   2.697
55194W        W28262  37.066  41.079   3.310
55195W        W28263   2.396  42.957  13.130
55196W        W28264  11.473  20.733   1.855
55197W        W28265  24.783  23.519   3.174
55198W        W28266  37.884  35.479  12.948
55199W        W28267  44.838  37.363  13.581
55200W        W28268  30.542  32.595  14.720
55201W        W28269   3.864  11.726   0.333
55202W        W28270  24.532  32.558  10.420
55203W        W28271   1.219   3.405   4.948
55204W        W28272  27.755  15.258  13.862
55205W        W28273  15.746   9.690  12.953
55206W        W28274   0.688  35.717   3.783
55207W        W28275   6.786   4.852  13.055
55208W        W28276  18.533   0.229  14.889
55209W        W28277  38.122  28.981  13.885
55210W        W28278  34.933  30.479   2.834
55211W        W28279  32.706  32.809   3.645
55212W        W28280  10.131  39.213   0.390
55213W        W28281  15.120  18.274   2.210
55214W        W28282  26.356  24.098   2.789
55215W        W28283   9.514  44.959   2.662
55216W        W28284  12.141  24.082  10.725
55217W        W28285  34.935   7.303   3.868
55218W        W28286  19.610  18.281   3.660
55219W        W28287  24.686  42.862   4.058
55220W        W28288  29.408  15.876   0.358
55221W        W28289  41.880   1.629  12.112
55222W        W28290   3.320  30.962   2.792
55223W        W28291  31.630  34.940   2.211
55224W        W28292  19.134  41.089   0.982
55225W        W28293  14.870   9.802   1.873
55226W        W28294  42.093  28.605  13.550
55227W        W28295  43.712  35.834  14.015
55228W        W28296  34.002  16.297  12.941
55229W        W28297  29.913  23.687  13.057
55230W        W28298  41.376  40.641   4.015
55231W        W28299  23.718  23.466  14.403
55232W        W28300  31.434  33.350  13.991
55233W        W28301   2.494  38.987  14.187
55234W        W28302  40.331  25.004  13.993
55235W        W28303  12.722  17.971  12.264
55236W        W28304  10.785  40.170   4.130
55237W        W28305  35.604   2.714  12.538
55238W        W28306  10.241  44.354  14.493
55239W        W28307  25.403   9.081   3.187
55240W        W28308  15.868  16.265  13.478
55241W        W28309  35.779  38.127   0.296
55242W        W28310   4.508  37.903  14.580
55243W        W28311  25.914  30.578   1.532
55244W        W28312   9.900  37.879   2.687
55245W        W28313  40.796  20.296  11.106
55246W        W28314   5.288  27.968  11.198
55247W        W28315  29.416  14.713   0.825
55248W        W28316  35.524  10.304   4.869
55249W        W28317  19.092  21.068  13.529
55250W        W28318  37.770   0.619   4.069
55251W        W28319  29.015  37.469   1.790
55252W        W28320  10.632   8.345   4.235
55253W        W28321  12.427  18.648  11.650
55254W        W28322   2.210  25.188   0.001
55255W        W28323  11.236   2.926  12.827
55256W        W28324  33.315  33.869  10.590
55257W        W28325  22.404  14.079  10.432
55258W        W28326  18.495   4.685  12.496
55259W        W28327  43.366  14.322   3.944
55260W        W28328   8.429   2.743   2.003
55261W        W28329  20.536  42.399   1.315
55262W        W28330  26.302  19.061   3.288
55263W        W28331  32.719   7.392   3.552
55264W        W28332  29.172  34.870   2.802
55265W        W28333  30.945  43.919   0.831
55266W        W28334   9.677  27.457  11.626
55267W        W28335   8.514  29.181  13.846
55268W        W28336  37.164  17.832   4.171
55269W        W28337   1.678  12.668  12.413
55270W        W28338  10.192   0.616   3.262
55271W        W28339  38.851   8.546   5.071
55272W        W28340  13.343  41.429  11.494
55273W        W28341  24.356   3.663  13.319
55274W        W28342  38.299  30.110   4.590
55275W        W28343  30.663  16.236  11.977
55276W        W28344  26.181  21.815   3.392
55277W        W28345  16.513  29.682  13.340
55278W        W28346  13.250  28.363  13.871
55279W        W28347  37.111  20.811  14.007
55280W        W28348   0.393  17.641   0.355
55281W        W28349  14.257   8.347  13.010
55282W        W28350  11.866  30.778  13.072
55283W        W28351  25.685  25.142  14.951
55284W        W28352   5.292  15.209   1.263
55285W        W28353  38.669   0.826   1.811
55286W        W28354  17.519   8.340  13.834
55287W        W28355  25.485  36.922   2.949
55288W        W28356  23.979  36.477   0.151
55289W        W28357  12.637   5.064   1.671
55290W        W28358   1.756  14.153   0.269
55291W        W28359  25.220  31.644   1.509
55292W        W28360  14.805   3.380   3.115
55293W        W28361   4.754  18.230  14.817
55294W        W28362  38.908   5.390   0.862
55295W        W28363  19.725  34.555  11.662
55296W        W28364   4.859   5.351  12.877
55297W        W28365  22.656   0.233   0.994
55298W        W28366  40.574  38.471  10.708
55299W        W28367  19.253   4.732  10.092
55300W        W28368  21.318  38.011   4.033
55301W        W28369  14.241   7.766   1.620
55302W        W28370   3.534  38.151  11.255
55303W        W28371  29.985  11.048  10.816
55304W        W28372  37.262   1.860  14.472
55305W        W28373  22.144  26.804  14.543
55306W        W28374  40.350  31.374  13.048
55307W        W28375  17.120  11.351  12.578
55308W        W28376   9.015  37.680  11.435
55309W        W28377  37.745  34.977  14.759
55310W        W28378  20.629  23.706  13.569
55311W        W28379   8.238   7.683  12.909
55312W        W28380  42.735  43.218   4.233
55313W        W28381  17.457  36.054  11.965
55314W        W28382  20.614  12.864   0.682
55315W        W28383   4.400   5.780  14.661
55316W        W28384  15.716  13.545  10.473
55317W        W28385  25.153  10.301   5.079
55318W        W28386  39.005  37.568  10.172
55319W        W28387  20.042   8.913   3.194
55320W        W28388  15.183  24.496  11.489
55321W        W28389  15.749  15.117  12.583
55322W        W28390   4.245   2.551   0.257
55323W        W28391  20.003  42.914  11.729
55324W        W28392  22.678   7.956   0.332
55325W        W28393  35.921  30.991   2.418
55326W        W28394  30.073   0.707   2.899
55327W        W28395  26.195  39.320  13.431
55328W        W28396  11.412   8.880   1.232
55329W        W28397  25.188  10.535   1.928
55330W        W28398  23.318  27.086  13.796
55331W        W28399  21.524  41.979   3.583
55332W        W28400  41.963  22.239   4.584
55333W        W28401  36.882  41.636  10.552
55334W        W28402  38.344  30.898  14.311
55335W        W28403  40.523  24.758  13.391
55336W        W28404   1.561  38.004  14.393
55337W        W28405  27.086  42.901   3.197
55338W        W28406  29.269  12.679   3.353
55339W        W28407  20.100  14.746   3.293
55340W        W28408  25.745   4.304   3.708
55341W        W28409   3.907  37.945   3.594
55342W        W28410  43.417   6.237  14.076
55343W        W28411  12.957  17.043  10.452
55344W        W28412  35.660  38.939   2.313
55345W        W28413   7.579  34.401  10.125
55346W        W28414  34.491  15.590  14.947
55347W        W28415  13.745  41.934   0.794
55348W        W28416  22.147  36.891   2.324
55349W        W28417  23.159  40.264   3.641
55350W        W28418  28.368   7.907   4.186
55351W        W28419  31.381   2.928   1.926
55352W        W28420  23.179  23.942  12.462
55353W        W28421  34.455   8.863   0.583
55354W        W28422  14.183   5.131  10.300
55355W        W28423  28.516  37.621   3.339
55356W        W28424  20.647  34.077   2.332
55357W        W28425  19.093  35.994  12.200
55358W        W28426   5.413  43.749   0.877
55359W        W28427   8.972  37.654  10.928
55360W        W28428   8.820  26.458   1.759
55361W        W28429   2.753  17.086  11.585
55362W        W28430  15.642  36.022  10.659
55363W        W28431  23.454   2.736  13.050
55364W        W28432  12.124  13.151   4.811
55365W        W28433  36.046  16.116  11.395
55366W        W28434  15.155  11.720  13.893
55367W        W28435  29.102  27.075  10.758
55368W        W28436  37.175  18.993   2.874
55369W        W28437  40.316  33.515   4.117
55370W        W28438   0.895  26.152  14.056
55371W        W28439  11.056  24.169  12.385
55372W        W28440  30.117  14.852   3.160
55373W        W28441  44.972  31.317   0.338
55374W        W28442  40.471  42.794   1.236
55375W        W28443  35.446   8.533   0.177
55376W        W28444  28.183  17.819  14.404
55377W        W28445  37.249  24.034   4.044
55378W        W28446   1.347  20.944   1.293
55379W        W28447   9.922  17.477   1.701
55380W        W28448   8.846   6.754  13.547
55381W        W28449  21.686   6.881  12.101
55382W        W28450  18.986  19.531  10.554
55383W        W28451  29.067  38.436   3.741
55384W        W28452  27.191  11.679  13.749
55385W        W28453  17.670   8.824  14.004
55386W        W28454  24.472  21.171  10.749
55387W        W28455  42.001   5.506   2.539
55388W        W28456  42.110  14.900  13.519
55389W        W28457  20.798  42.959   4.637
55390W        W28458  13.610  24.124   1.871
55391W        W28459  16.692  27.228  12.910
55392W        W28460  36.547  27.510   1.205
55393W        W28461   9.246   7.249   4.202
55394W        W28462  44.741   1.442  14.361
55395W        W28463  23.921   9.927   2.724
55396W        W28464  25.164  34.148  12.506
55397W        W28465   2.254  14.656   3.390
55398W        W28466  27.873  27.970   0.328
55399W        W28467  25.244  35.228   3.417
55400W        W28468  32.369  37.839  11.003
55401W        W28469   2.885  17.838   2.686
55402W        W28470  33.971  34.103  12.154
55403W        W28471  40.170  26.194  12.597
55404W        W28472  40.451  43.073   5.014
55405W        W28473  42.423   4.008  13.495
55406W        W28474  29.052  11.181  10.141
55407W        W28475   0.646   2.772   4.585
55408W        W28476   6.374  29.932  10.245
55409W        W28477  40.778  34.551   3.426
55410W        W28478  24.146  28.396   2.664
55411W        W28479  16.645  12.685  13.168
55412W        W28480  31.515  33.557  14.748
55413W        W28481  32.095  40.135  11.610
55414W        W28482  14.747  35.251   3.176
55415W        W28483   2.114  35.500  10.608
55416W        W28484  10.865  41.644   2.539
55417W        W28485  11.107  19.604   0.464
55418W        W28486   8.730  22.283  13.400
55419W        W28487   0.280  39.814  13.851
55420W        W28488  27.877  32.653  11.095
55421W        W28489  29.162   5.453  11.582
55422W        W28490   6.355   3.631  12.063
55423W        W28491  44.740  15.913  13.838
55424W        W28492  26.645   2.392   4.639
55425W        W28493  20.361  41.907   1.355
55426W        W28494  32.578  17.763   3.756
55427W        W28495  18.288  43.876  12.587
55428W        W28496  44.355  19.847  12.869
55429W        W28497  10.707  13.001   2.152
55430W        W28498  34.337  43.837   0.526
55431W        W28499  22.638  44.999  12.492
55432W        W28500   4.457  19.076  10.690
55433W        W28501   1.797  23.508   0.427
55434W        W28502  37.880   7.411   0.832
55435W        W28503   8.163   5.837  10.839
55436W        W28504  10.547   6.839   1.353
55437W        W28505  36.167  36.084  10.270
55438W        W28506  44.931  36.842   3.842
55439W        W28507   9.864  22.654  14.433
55440W        W28508   9.582  23.102   3.933
55441W        W28509  27.944  26.408  13.512
55442W        W28510  32.917  27.415  14.034
55443W        W28511  17.983  24.168  12.155
55444W        W28512  29.011   0.346  14.048
55445W        W28513   8.904  13.572  12.940
55446W        W28514  39.935  20.292   3.966
55447W        W28515   6.334  33.310   0.327
55448W        W28516  30.565  16.219  13.968
55449W        W28517  25.761  22.158  10.629
55450W        W28518   3.835  24.450   3.301
55451W        W28519  34.113  39.962   4.469
55452W        W28520  37.867  20.769  14.336
55453W        W28521  23.076  18.143   0.718
55454W        W28522  28.546  17.119   3.659
55455W        W28523  19.758   4.885   2.426
55456W        W28524  34.491   2.935   2.820
55457W        W28525  34.919   4.846   4.519
55458W        W28526  12.729  31.529   3.789
55459W        W28527  21.618   4.722  13.455
55460W        W28528  36.965  29.998  11.674
55461W        W28529   3.415  14.711  14.886
55462W        W28530   6.750   4.609   2.975
55463W        W28531  41.865  11.108  14.414
55464W        W28532  18.841   7.233  14.549
55465W        W28533  40.296   2.045  13.969
55466W        W28534  28.153  17.733  11.526
55467W        W28535  19.795  29.553  14.272
55468W        W28536  30.116   7.030  12.054
55469W        W28537   9.555  26.155  12.704
55470W        W28538  38.953   7.921   4.283
55471W        W28539  17.689  16.314   4.234
55472W        W28540  41.247  38.589  14.107
55473W        W28541  32.138  40.611  11.376
55474W        W28542  28.912  29.386   1.868
55475W        W28543   1.452  14.229   4.030
55476W        W28544  33.885  36.782   3.712
55477W        W28545  11.868  11.864   4.564
55478W        W28546  20.809   1.058  10.758
55479W        W28547  26.093  37.025  13.112
55480W        W28548  27.237  33.611   2.919
55481W        W28549   9.803  32.218   4.398
55482W        W28550  43.777   5.122   3.556
55483W        W28551  21.185  19.471  11.587
55484W        W28552  19.012  23.505  10.743
55485W        W28553  17.033  19.722   0.165
55486W        W28554   2.621  39.972  14.265
55487W        W28555  25.926  40.859   1.309
55488W        W28556  39.419  13.948   1.136
55489W        W28557   8.975  36.358  11.733
55490W        W28558   6.724  11.429  13.344
55491W        W28559  30.258  16.620   1.304
55492W        W28560  33.859  28.512  11.710
55493W        W28561  15.802  38.336   0.478
55494W        W28562  42.902  41.046   1.778
55495W        W28563  11.671   6.390   3.638
55496W        W28564  30.129  16.704  14.501
55497W        W28565  27.678  23.208   1.004
55498W        W28566  28.071  26.903  14.333
55499W        W28567  21.233  19.175   1.785
55500W        W28568   4.971  10.165  13.003
55501W        W28569  18.260  29.822  11.175
55502W        W28570  20.690   6.404   4.710
55503W        W28571   2.483  25.488  12.916
55504W        W28572  40.600  34.135   4.516
55505W        W28573  34.064  12.883  13.413
55506W        W28574  23.024  14.692   2.964
55507W        W28575  35.484  20.063   0.773
55508W        W28576   5.488  37.001   0.793
55509W        W28577  32.971  10.414  14.667
55510W        W28578  30.146  36.623   2.603
55511W        W28579  44.227  26.587   4.182
55512W        W28580  17.869  37.600  10.624
55513W        W28581  23.428  14.691  11.156
55514W        W28582  26.140  35.500   0.263
55515W        W28583  32.842  15.104  10.360
55516W        W28584  14.438  33.381   3.364
55517W        W28585   5.398  22.172  11.723
55518W        W28586  29.825  40.545   2.945
55519W        W28587   2.012  43.317   2.360
55520W        W28588  14.820  23.796   2.073
55521W        W28589  16.314  19.261  12.156
55522W        W28590   4.327  35.864  14.545
55523W        W28591  27.520  34.239  10.764
55524W        W28592   8.832  29.389   3.359
55525W        W28593  35.871  28.442  12.846
55526W        W28594  35.284  43.947   0.437
55527W        W28595  24.197   3.549  11.599
55528W        W28596  22.863  41.362  11.416
55529W        W28597   0.898  30.823   3.389
55530W        W28598  10.290  35.344  11.637
55531W        W28599  41.275  33.014   2.206
55532W        W28600  41.496  28.244  11.552
55533W        W28601  14.878  12.427  12.605
55534W        W28602  27.333  13.073  12.542
55535W        W28603  12.784   4.211  10.970
55536W        W28604  44.754  34.880  14.483
55537W        W28605  24.871  19.563   1.005
55538W        W28606   8.759   4.757  12.802
55539W        W28607  16.832  16.222   1.307
55540W        W28608   8.042  27.187   0.861
55541W        W28609   0.988  25.526   2.358
55542W        W28610  44.685  23.277   4.052
55543W        W28611  32.932  43.827   3.636
55544W        W28612  25.069  37.854   5.029
55545W        W28613  20.436   8.248  12.446
55546W        W28614  21.760  12.662  11.458
55547W        W28615  31.681  25.987   4.248
55548W        W28616   6.771  43.807  11.991
55549W        W28617  18.305  43.428   1.841
55550W        W28618   6.771  18.242   0.336
55551W        W28619  17.053  13.246   0.872
55552W        W28620  28.658  15.316   0.957
55553W        W28621  27.189   3.339  10.929
55554W        W28622  23.697   7.552   2.188
55555W        W28623  18.645  30.038   1.230
55556W        W28624   2.434   9.086  11.194
55557W        W28625  22.540  19.795  13.014
55558W        W28626  41.181  38.765   3.560
55559W        W28627  26.656   2.637   4.153
55560W        W28628  39.932  29.676  11.981
55561W        W28629  10.924   4.727  10.923
55562W        W28630   7.628  30.918  12.723
55563W        W28631  35.548  40.822   4.760
55564W        W28632  22.219  20.634  11.247
55565W        W28633  25.554  37.992  14.869
55566W        W28634  20.813  24.650  13.841
55567W        W28635  24.710   6.196   2.524
55568W        W28636  22.229  26.222   1.837
55569W        W28637  26.354  27.320  13.775
55570W        W28638  29.659  25.988  13.062
55571W        W28639  44.470  21.192  14.306
55572W        W28640  24.284  44.144  11.939
55573W        W28641  10.306  37.306   2.162
55574W        W28642  11.911  38.452  14.797
55575W        W28643   2.025  21.751   1.891
55576W        W28644  37.977   4.420   2.337
55577W        W28645  27.959   2.698  13.072
55578W        W28646  40.359  24.714   2.777
55579W        W28647  34.510  34.643  14.926
55580W        W28648  27.942  30.947  11.952
55581W        W28649   6.346  40.044  12.828
55582W        W28650  41.429  30.519   2.337
55583W        W28651  21.253  22.035   1.942
55584W        W28652   0.897  23.103  12.131
55585W        W28653  25.403  23.520   0.797
55586W        W28654  35.559   9.673  14.121
55587W        W28655   4.834   3.011  13.400
55588W        W28656  36.861  17.552   0.979
55589W        W28657  14.354  39.337   0.251
55590W        W28658  18.017  15.758  12.423
55591W        W28659  31.121  26.926  13.522
55592W        W28660  28.590  41.452   2.438
55593W        W28661   2.339  19.980  14.767
55594W        W28662  15.826  18.124  14.997
55595W        W28663  19.330   3.807   0.756
55596W        W28664  10.722  27.849  12.138
55597W        W28665  44.294  30.190   3.229
55598W        W28666  14.764  37.386   1.719
55599W        W28667  12.651  33.076   3.420
55600W        W28668  26.601  25.646   0.509
55601W        W28669  37.356   5.739   3.685
55602W        W28670  33.902  16.645  11.338
55603W        W28671   7.244  21.828   0.613
55604W        W28672   6.441  18.631  11.451
55605W        W28673  43.197  40.491   5.035
55606W        W28674  24.901   8.362   1.455
55607W        W28675  25.345  43.370  12.916
55608W        W28676  29.556   7.181   1.813
55609W        W28677  19.832  39.100  14.520
55610W        W28678  17.589  26.227   1.805
55611W        W28679  23.828  42.076  11.103
55612W        W28680  37.272  30.512   4.084
55613W        W28681  29.479  14.634  14.931
55614W        W28682   2.805  27.446   2.216
55615W        W28683  11.893  12.175   3.340
55616W        W28684   2.276  21.756   0.985
55617W        W28685  16.277  10.733   4.486
55618W        W28686  37.690  23.989   5.035
55619W        W28687  14.333  26.078  14.406
55620W        W28688  32.893  27.722   3.327
55621W        W28689   3.340  29.183  10.501
55622W        W28690  36.843  15.101  11.572
55623W        W28691  22.088  22.189   0.294
55624W        W28692  22.089  35.059   4.768
55625W        W28693   6.526  14.561   4.517
55626W        W28694   8.726  33.289   1.630
55627W        W28695  17.614  18.747  13.390
55628W        W28696  42.252  19.565  13.082
55629W        W28697  27.444  33.967  14.359
55630W        W28698  11.011  35.988  13.542
55631W        W28699  40.875   5.048   4.603
55632W        W28700  11.326  27.234  12.155
55633W        W28701  38.892  40.940   0.519
55634W        W28702  19.054  26.163  13.290
55635W        W28703   0.082  17.708   1.741
55636W        W28704   5.672  39.030   0.444
55637W        W28705  40.513  43.928  13.163
55638W        W28706  22.685  28.915  12.865
55639W        W28707  36.036  44.444  14.414
55640W        W28708  35.082  30.912   2.106
55641W        W28709  40.575   6.334   3.342
55642W        W28710  36.185  28.884  12.013
55643W        W28711   3.761  43.230   2.481
55644W        W28712  29.185   6.445  13.484
55645W        W28713  13.565  35.053   3.691
55646W        W28714  32.613   1.420   1.268
55647W        W28715   6.805  44.504   2.266
55648W        W28716  16.143   2.939   3.676
55649W        W28717  27.177  16.753  14.826
55650W        W28718  42.495  36.066  12.504
55651W        W28719   1.466  26.449  11.129
55652W        W28720  38.341  20.077  13.930
55653W        W28721   7.960  21.098   3.959
55654W        W28722   1.942  25.394  14.328
55655W        W28723  25.835  13.671  12.576
55656W        W28724   7.838   5.430  10.856
55657W        W28725  19.802  14.744  13.294
55658W        W28726  27.925  19.229   1.759
55659W        W28727   6.394  22.020   0.729
55660W        W28728  41.258   0.537   2.532
55661W        W28729  44.180  12.206   0.506
55662W        W28730   3.897  41.823   1.403
55663W        W28731  25.956  41.341   2.604
55664W        W28732  38.940  39.138   2.466
55665W        W28733   7.879  34.445  10.576
55666W        W28734  39.456  22.048   0.012
55667W        W28735   8.622   8.003  11.657
55668W        W28736  23.923  11.194  13.821
55669W        W28737  42.563  21.253   3.683
55670W        W28738  27.074  26.649   1.257
55671W        W28739   5.667  25.193  11.014
55672W        W28740  19.612   9.189  12.614
55673W        W28741  13.359  22.489   3.725
55674W        W28742  18.127  22.706  13.329
55675W        W28743  16.797   0.404  10.643
55676W        W28744  18.312   0.376  14.398
55677W        W28745  40.312  22.665   0.742
55678W        W28746  27.435  43.297   3.240
55679W        W28747  25.471   7.807   2.458
55680W        W28748  25.705  34.409  13.336
55681W        W28749  23.483  26.949   1.842
55682W        W28750  12.698  34.943  11.998
55683W        W28751  18.957  40.969  13.370
55684W        W28752   5.246  22.481  13.373
55685W        W28753  27.996   3.674  13.007
55686W        W28754   6.428  14.317  10.792
55687W        W28755  34.410  32.766   0.491
55688W        W28756   1.679  39.414  14.104
55689W        W28757  17.257  12.510  10.725
55690W        W28758  21.042   9.063  10.642
55691W        W28759  15.823  14.327  14.697
55692W        W28760  13.284   8.567  14.418
55693W        W28761   3.172  28.670  13.375
55694W        W28762  19.769  31.562  13.346
55695W        W28763  24.152  15.813  10.938
55696W        W28764  20.246  44.704   0.940
55697W        W28765  11.574  43.468  10.361
55698W        W28766   3.462  22.030   0.527
55699W        W28767  33.972  15.770  14.838
55700W        W28768  17.339  15.781   0.606
55701W        W28769  21.676   7.724   1.394
55702W        W28770  38.443  40.447  14.364
55703W        W28771  42.560  40.512   2.589
55704W        W28772  34.384  32.618  12.489
55705W        W28773  21.143  41.869   4.376
55706W        W28774  40.203  25.222   5.044
55707W        W28775  16.169   1.407   2.213
55708W        W28776  15.179  26.018   1.494
55709W        W28777   3.803  44.227   1.914
55710W        W28778  32.722  14.282   4.581
55711W        W28779  34.649  18.787  14.017
55712W        W28780  28.196  10.312  14.417
55713W        W28781  44.170  44.979  12.646
55714W        W28782  39.558  19.267  11.177
55715W        W28783  34.882  26.111  12.919
55716W        W28784  44.746  16.742  14.383
55717W        W28785  42.872  32.390  13.476
55718W        W28786  42.370  33.904  12.401
55719W        W28787  13.096  26.970  10.302
55720W        W28788  39.527  42.498  11.165
55721W        W28789  12.240  18.570   4.719
55722W        W28790  31.792   3.907   0.375
55723W        W28791  17.954  39.300  12.485
55724W        W28792   2.304  14.338  11.192
55725W        W28793  34.737   8.097   0.488
55726W        W28794  26.422  34.024   1.461
55727W        W28795  35.273  12.827   3.211
55728W        W28796  23.991  12.117  12.061
55729W        W28797  43.880  25.903   3.753
55730W        W28798  24.772  23.974   3.668
55731W        W28799   6.428  20.196   0.391
55732W        W28800  39.514  36.553   3.539
55733W        W28801  35.612  10.778  13.573
55734W        W28802  15.085  17.415   0.859
55735W        W28803  28.349  31.633   0.433
55736W        W28804  13.534  16.837  11.277
55737W        W28805  14.776  22.561   0.782
55738W        W28806  31.702  14.239  12.500
55739W        W28807  36.145  43.155  13.228
55740W        W28808   4.807   5.065   4.666
55741W        W28809  33.753  25.123   2.620
55742W        W28810  30.652  41.754   0.794
55743W        W28811  32.314  25.642   0.240
55744W        W28812  43.230  30.303   1.770
55745W        W28813  12.707  26.929   1.980
55746W        W28814  28.570  33.868  12.671
55747W        W28815  24.511  24.812  12.150
55748W        W28816  19.995  43.441  11.980
55749W        W28817  31.395  22.542  14.724
55750W        W28818  19.541  25.678  14.459
55751W        W28819   3.176  19.227  11.912
55752W        W28820  33.614  35.431   1.795
55753W        W28821  17.116  19.652   4.096
55754W        W28822  38.976  19.382   2.305
55755W        W28823  37.385  31.929   9.837
55756W        W28824  39.294  22.165  11.033
55757W        W28825  44.053  31.934  11.409
55758W        W28826   0.273   3.429   1.706
55759W        W28827  40.597  25.482  14.120
55760W        W28828  14.734  37.434  12.072
55761W        W28829  10.356   7.810  13.721
55762W        W28830   0.968  23.622   3.700
55763W        W28831   9.424   2.002   3.791
55764W        W28832  38.227   5.999   3.169
55765W        W28833  36.554  32.704   0.336
55766W        W28834  39.935   9.475   3.191
55767W        W28835  32.387   8.234   1.198
55768W        W28836  30.769  37.911   1.551
55769W        W28837  34.554  29.703   2.672
55770W        W28838   1.378  31.454   1.809
55771W        W28839   7.118  24.476  11.933
55772W        W28840  25.381  42.538   2.203
55773W        W28841  18.741  29.637   0.336
55774W        W28842  28.603   3.986   0.688
55775W        W28843  35.081  44.542  11.400
55776W        W28844  38.494  28.544   2.238
55777W        W28845   0.958   9.955  14.318
55778W        W28846   8.863  42.321   3.794
55779W        W28847  44.357   0.432   4.498
55780W        W28848  16.525  25.124   3.370
55781W        W28849   2.363   5.047  11.872
55782W        W28850   5.404  35.862  13.362
55783W        W28851  17.137  32.044  10.830
55784W        W28852  16.768  11.282   4.603
55785W        W28853  30.016  19.801   3.360
55786W        W28854  30.439  40.296  13.740
55787W        W28855   2.773  15.749  10.320
55788W        W28856  32.027  33.851   1.005
55789W        W28857  26.673  18.009   1.809
55790W        W28858  42.334  34.427  12.571
55791W        W28859  38.497  14.322  11.590
55792W        W28860  27.433   9.591  11.998
55793W        W28861   7.310   5.249  10.829
55794W        W28862   3.319  21.691   0.882
55795W        W28863  15.617  26.018  12.986
55796W        W28864  23.586  16.087  10.979
55797W        W28865  14.256  29.433   2.395
55798W        W28866  11.767   0.385  11.516
55799W        W28867  44.367  25.214   3.287
55800W        W28868  26.982  38.117   0.503
55801W        W28869  44.412  33.873  11.010
55802W        W28870  22.450  40.816  12.911
55803W        W28871   4.821  28.820   0.950
55804W        W28872  40.315  13.677  10.989
55805W        W28873   9.407   1.840  11.022
55806W        W28874  39.454  16.661  12.620
55807W        W28875  30.402  44.374  11.213
55808W        W28876  19.208  40.412   0.464
55809W        W28877   6.846   8.742   4.267
55810W        W28878  19.751  39.254   2.844
55811W        W28879  21.540  43.253   2.470
55812W        W28880  35.385  25.574  12.480
55813W        W28881  23.433  11.648   2.946
55814W        W28882  27.638  13.663   1.263
55815W        W28883  26.720  11.199  11.517
55816W        W28884  18.353  17.269   2.365
55817W        W28885  17.985  43.999   2.184
55818W        W28886  42.147   0.386  12.534
55819W        W28887   4.936  30.248   1.779
55820W        W28888  14.575  34.608  11.164
55821W        W28889  36.016  11.047   3.141
55822W        W28890  27.014  25.480   3.588
55823W        W28891  41.787  33.276   0.811
55824W        W28892  30.668  39.599  10.759
55825W        W28893  11.519  29.109  14.981
55826W        W28894  40.130  16.871  12.876
55827W        W28895  13.913   8.753   4.533
55828W        W28896  24.235  17.469  12.070
55829W        W28897  18.387   5.186  13.863
55830W        W28898  40.444  20.969   2.266
55831W        W28899   7.122  18.738  13.377
55832W        W28900  44.969  21.671   3.198
55833W        W28901  27.409   0.294   3.092
55834W        W28902  33.126  19.058  13.129
55835W        W28903  28.943  10.851  10.549
55836W        W28904   1.743  30.930  11.564
55837W        W28905  22.864  32.544   0.414
55838W        W28906  23.960  38.660   2.726
55839W        W28907  38.542   1.268  13.389
55840W        W28908  17.154  24.509   3.806
55841W        W28909  30.707  43.633  13.283
55842W        W28910  42.597  39.028   0.832
55843W        W28911  33.207  42.115   5.007
55844W        W28912  38.950  25.288  12.057
55845W        W28913   0.754  31.684   2.136
55846W        W28914   1.147  44.878  10.430
55847W        W28915   2.007  39.345   1.802
55848W        W28916  35.468   5.182  11.889
55849W        W28917  14.469  36.061  12.940
55850W        W28918  33.992  19.007  11.478
55851W        W28919  36.795   2.688   4.037
55852W        W28920  21.581  20.501  13.907
55853W        W28921  37.934   3.289  13.510
55854W        W28922  36.966  21.493  13.450
55855W        W28923  23.257  13.821   2.453
55856W        W28924  37.382  28.993  12.539
55857W        W28925  37.610   5.828  11.226
55858W        W28926  44.967  23.228  13.471
55859W        W28927  27.190   6.549   4.307
55860W        W28928  33.507  36.867   4.842
55861W        W28929  42.906  19.236  12.104
55862W        W28930  23.175   0.760   4.289
55863W        W28931  31.545   0.930  10.874
55864W        W28932  39.245  41.244  14.788
55865W        W28933  16.318  23.693   2.768
55866W        W28934  27.070  39.511   0.870
55867W        W28935   9.370  33.414  14.828
55868W        W28936  16.733  29.356  11.986
55869W        W28937  37.361  20.236  13.783
55870W        W28938  33.651   0.269   3.627
55871W        W28939   9.595   0.554  11.601
55872W        W28940   6.955  33.152  11.993
55873W        W28941  18.636  43.722   4.838
55874W        W28942  27.255  27.962  10.171
55875W        W28943  36.395  34.333   4.211
55876W        W28944   6.701   5.933  11.210
55877W        W28945  42.489  26.063  11.567
55878W        W28946  10.872   9.828  10.571
55879W        W28947  28.140  30.672   3.675
55880W        W28948  43.788  24.414   3.714
55881W        W28949  31.982  13.972   5.010
55882W        W28950  41.694  32.249   0.850
55883W        W28951  41.657  28.053  10.239
55884W        W28952  37.033   9.008   2.199
55885W        W28953  32.339  32.987  13.964
55886W        W28954  26.431  43.985   0.266
55887W        W28955  36.774   1.443   0.907
55888W        W28956  30.741  24.176  14.984
55889W        W28957   9.744  23.140  11.645
55890W        W28958  36.497   3.626   1.422
55891W        W28959  30.152  25.402   0.744
55892W        W28960  29.778   3.005   3.491
55893W        W28961  43.035  11.400   0.364
55894W        W28962  21.688   6.311   3.001
55895W        W28963   1.366  39.795  11.202
55896W        W28964  26.028  31.126  14.776
55897W        W28965   2.311  39.749   1.634
55898W        W28966  17.637  32.926   2.674
55899W        W28967  19.260  27.010  10.713
55900W        W28968  34.075  15.722  13.888
55901W        W28969  15.154   9.203   4.379
55902W        W28970  32.001  31.793   1.420
55903W        W28971  36.078  32.438  11.072
55904W        W28972  27.147  19.220   4.108
55905W        W28973  21.198  41.602  12.325
55906W        W28974  40.033  13.767   3.294
55907W        W28975  25.814   9.892  11.115
55908W        W28976  34.631  40.464   0.428
55909W        W28977  14.862  34.109  13.962
55910W        W28978  29.475   1.936   0.013
55911W        W28979   6.612   8.202   2.212
55912W        W28980   0.517  22.656   3.823
55913W        W28981   8.618  44.628   3.836
55914W        W28982  37.436  39.374  10.340
55915W        W28983  24.798  13.844  15.000
55916W        W28984   4.315  26.914   1.297
55917W        W28985  25.036  15.757   3.415
55918W        W28986   4.625  18.893   2.206
55919W        W28987  44.979  35.857   1.431
55920W        W28988  44.733  34.074  10.605
55921W        W28989  12.410  16.004  12.329
55922W        W28990  15.194  38.128   3.358
55923W        W28991  24.673   5.936  12.212
55924W        W28992  21.108   3.650   4.237
55925W        W28993  39.060  19.769  13.550
55926W        W28994  34.913  15.799   2.131
55927W        W28995  33.990  15.811   4.038
55928W        W28996   3.459  12.940   1.879
55929W        W28997  35.724  17.453   2.376
55930W        W28998  14.568  15.613   2.880
55931W        W28999  10.290  39.605   0.714
55932W        W29000   8.797  24.627   0.900
55933W        W29001  24.134  20.253   1.360
55934W        W29002  26.464   4.429   2.244
55935W        W29003  38.960  42.261   4.937
55936W        W29004  22.647  32.878   4.282
55937W        W29005  21.039  32.060  14.288
55938W        W29006  29.391  44.843  10.861
55939W        W29007   4.721  38.966   3.229
55940W        W29008  14.959   4.901  14.012
55941W        W29009  35.548   0.758  13.082
55942W        W29010   2.284  32.436   2.892
55943W        W29011  32.218  27.631  14.363
55944W        W29012  34.687  31.779   5.364
55945W        W29013  16.815  37.005   2.692
55946W        W29014  17.973  27.790  11.459
55947W        W29015  33.585   9.339   3.602
55948W        W29016  13.738  35.963   2.514
55949W        W29017   5.427   6.426   4.148
55950W        W29018  35.566  28.681  14.833
55951W        W29019  41.432   8.724  14.887
55952W        W29020  41.463   3.991   3.701
55953W        W29021  20.057  44.953   0.545
55954W        W29022   3.377  31.432  14.459
55955W        W29023  16.774   9.364   3.660
55956W        W29024  21.468  20.014   3.801
55957W        W29025  40.108   4.337  13.999
55958W        W29026  11.784   1.867  10.548
55959W        W29027  13.851  13.184  13.080
55960W        W29028  35.370   9.362   2.865
55961W        W29029  18.048  17.653   1.799
55962W        W29030  15.996  13.724   1.470
55963W        W29031   3.732  39.457  13.918
55964W        W29032   8.879  36.916  12.995
55965W        W29033  25.052  23.655  10.996
55966W        W29034  37.575   4.678  13.823
55967W        W29035   0.954  13.671  13.144
55968W        W29036   9.663  44.314   4.603
55969W        W29037  14.764  28.546   1.951
55970W        W29038  38.775  26.078  14.257
55971W        W29039  37.206   4.951  14.405
55972W        W29040   2.589   4.283   0.483
55973W        W29041  21.059  17.915   0.007
55974W        W29042  16.906  25.737   3.780
55975W        W29043  22.524  29.565  14.894
55976W        W29044  34.553  31.736   4.642
55977W        W29045   0.818  37.791  10.726
55978W        W29046  42.963  16.054   1.389
55979W        W29047  15.507  11.729  10.775
55980W        W29048  27.825  22.139  12.694
55981W        W29049   5.228  32.989  12.449
55982W        W29050  43.343   8.686  13.146
55983W        W29051  30.875  28.216  11.107
55984W        W29052  29.469  10.946  10.671
55985W        W29053  38.025  42.986   4.042
55986W        W29054  24.140  19.566  11.768
55987W        W29055  11.668  28.886  14.314
55988W        W29056   9.277  43.423   1.018
55989W        W29057  34.823  25.977   3.335
55990W        W29058   9.386   6.306  13.062
55991W        W29059  29.510   4.431  13.139
55992W        W29060  20.569  23.944   1.856
55993W        W29061  17.976  31.627  11.452
55994W        W29062   9.237   5.210  14.383
55995W        W29063  34.997  29.199   4.268
55996W        W29064  26.504  18.185   1.329
55997W        W29065  33.010  26.320  11.686
55998W        W29066   8.292  15.133  11.271
55999W        W29067  34.612  18.119  10.684
56000W        W29068  23.264  34.503   2.920
56001W        W29069   8.331  39.836   1.434
56002W        W29070   8.883  39.443  11.504
56003W        W29071  18.660  23.283  12.687
56004W        W29072   9.964  17.588   2.214
56005W        W29073  10.706  43.847   1.142
56006W        W29074   8.583  10.303  10.769
56007W        W29075  27.466  28.025  12.067
56008W        W29076  44.628  15.449  11.447
56009W        W29077  21.694  11.225   5.000
56010W        W29078  39.157  17.737  11.449
56011W        W29079   0.031   1.911  13.440
56012W        W29080  26.490  11.869  10.173
56013W        W29081   4.666  27.991   0.434
56014W        W29082  22.118   4.405   4.793
56015W        W29083  12.285  32.059   3.201
56016W        W29084  15.379  13.859   3.829
56017W        W29085  23.448  20.572  11.484
56018W        W29086   3.726  38.116  14.830
56019W        W29087  24.710  12.868   1.933
56020W        W29088   0.864   4.271   4.178
56021W        W29089  40.541  34.446  12.637
56022W        W29090  10.220  44.946  13.374
56023W        W29091  25.002   4.481   4.266
56024W        W29092  38.872  10.701   0.386
56025W        W29093   5.216  40.524  13.416
56026W        W29094  43.427  41.460   5.137
56027W        W29095   4.942  27.287  13.506
56028W        W29096  35.971  14.889  13.502
56029W        W29097   6.205   2.121  13.486
56030W        W29098  36.674   0.446  11.882
56031W        W29099  29.215  17.974   0.754
56032W        W29100   8.691  28.364   4.168
56033W        W29101  14.832  40.506  14.221
56034W        W29102  21.661  36.077  14.090
56035W        W29103   2.334  12.028  10.916
56036W        W29104  35.791  29.170  12.191
56037W        W29105  13.341  23.133   0.949
56038W        W29106   8.203  38.967  11.339
56039W        W29107  12.240  33.989   3.168
56040W        W29108  37.879  30.469  14.768
56041W        W29109  42.708  36.346   1.001
56042W        W29110  16.301  10.611  12.494
56043W        W29111  44.738  20.034  14.935
56044W        W29112  21.747  11.818  10.921
56045W        W29113   9.819  10.128   0.725
56046W        W29114   9.763  18.797   2.571
56047W        W29115  19.632   6.373   4.832
56048W        W29116  23.353  16.360   2.758
56049W        W29117   0.043   7.196  11.132
56050W        W29118  21.282  44.832   4.127
56051W        W29119  17.740  20.841  13.394
56052W        W29120   1.394  35.889   0.270
56053W        W29121  22.753  33.673   3.815
56054W        W29122  23.073  37.930   0.742
56055W        W29123   5.186  44.583  10.764
56056W        W29124  12.262  24.075  14.648
56057W        W29125   6.210   3.822   3.436
56058W        W29126  33.301  29.635   4.550
56059W        W29127  14.127  11.677  14.452
56060W        W29128  37.578  27.626   3.335
56061W        W29129  44.292   6.359   4.387
56062W        W29130  39.781  41.438   2.874
56063W        W29131  24.970  11.709  10.538
56064W        W29132  26.314  43.823  11.552
56065W        W29133  18.323   6.823   4.965
56066W        W29134  15.863  17.027   5.254
56067W        W29135  14.130  41.014   3.177
56068W        W29136  24.209  14.470  13.179
56069W        W29137  40.044  37.218   4.504
56070W        W29138   2.291  18.294   2.935
56071W        W29139  25.952  22.063   3.797
56072W        W29140  33.911  16.511   0.875
56073W        W29141   0.966  36.988  14.799
56074W        W29142   0.771  21.353   2.377
56075W        W29143  13.366  28.663  12.457
56076W        W29144  42.471   4.199   1.361
56077W        W29145   1.273  21.704  14.981
56078W        W29146  37.046  39.080   2.306
56079W        W29147  10.269  21.189   3.625
56080W        W29148  10.086  39.367  12.008
56081W        W29149  26.776  42.961  11.648
56082W        W29150  14.176  23.492  10.698
56083W        W29151  33.525  40.341   4.293
56084W        W29152   3.920  32.614  14.493
56085W        W29153  18.663   2.819   0.238
56086W        W29154   1.721  16.806  10.420
56087W        W29155  26.436  12.293  11.091
56088W        W29156  18.172  39.853  13.739
56089W        W29157   3.367  32.654   2.130
56090W        W29158   9.627  12.828   1.613
56091W        W29159  26.969  25.916   0.266
56092W        W29160  32.555  11.652  12.071
56093W        W29161  19.324  10.793   0.517
56094W        W29162  30.647   9.784   4.910
56095W        W29163  35.183  41.405  12.328
56096W        W29164  40.036  34.667  14.984
56097W        W29165   7.080  31.387   2.728
56098W        W29166  19.692  34.268   2.633
56099W        W29167   6.642   1.531  11.584
56100W        W29168  17.604  40.513  11.040
56101W        W29169   2.034  23.958  13.526
56102W        W29170   1.750  11.382   4.410
56103W        W29171  44.424  37.576   4.723
56104W        W29172  36.787  10.631   1.333
56105W        W29173   3.695   9.315   0.816
56106W        W29174  17.610  44.172   1.801
56107W        W29175  20.111   7.608  13.803
56108W        W29176   6.304   9.329  12.915
56109W        W29177  26.913   3.217  14.296
56110W        W29178   8.523  10.666  13.157
56111W        W29179  19.589  36.865   0.748
56112W        W29180  17.762  33.432   1.295
56113W        W29181   0.261  28.568   0.420
56114W        W29182  27.956  18.817   1.422
56115W        W29183  19.155   3.346   4.252
56116W        W29184   5.296  29.423  12.532
56117W        W29185   9.832  14.591  13.780
56118W        W29186  20.241  41.039   0.856
56119W        W29187  41.130  36.829   4.556
56120W        W29188  14.353  35.366  11.774
56121W        W29189  40.544  11.551   0.980
56122W        W29190  25.350  39.295   3.286
56123W        W29191  14.168  30.724  14.874
56124W        W29192  31.497   8.470   3.881
56125W        W29193  38.754   8.316   1.573
56126W        W29194   7.711  17.069   3.189
56127W        W29195  17.571  37.937   1.821
56128W        W29196  42.398  12.886   3.228
56129W        W29197  39.291   1.525   0.780
56130W        W29198  26.093  42.896   2.111
56131W        W29199   9.450  39.392  12.925
56132W        W29200  18.655  39.417   4.594
56133W        W29201  19.224  15.746   4.184
56134W        W29202  25.964  28.056   1.371
56135W        W29203  39.878  20.800  13.056
56136W        W29204  32.044  19.144  12.117
56137W        W29205  44.541  41.553   2.534
56138W        W29206   2.349   8.137  13.002
56139W        W29207  16.117  30.061   4.574
56140W        W29208  34.368  23.158   0.021
56141W        W29209  17.136  12.199   1.460
56142W        W29210  21.540   1.438  11.924
56143W        W29211   1.286  41.967   3.167
56144W        W29212  17.233  40.255  11.336
56145W        W29213  33.903  25.133   1.742
56146W        W29214  42.081  24.799   4.026
56147W        W29215   7.838  37.061  14.578
56148W        W29216   9.901   7.295  12.535
56149W        W29217  33.407   9.659  12.857
56150W        W29218  28.187  41.238   3.267
56151W        W29219  42.310  17.920   3.947
56152W        W29220  19.194  26.225  11.178
56153W        W29221  28.881  39.456   2.916
56154W        W29222   8.844  40.989  11.610
56155W        W29223  24.156  43.376   2.862
56156W        W29224  34.350  30.479  13.850
56157W        W29225  18.472  26.496   0.394
56158W        W29226   5.375  40.539  14.839
56159W        W29227   8.275  26.091  10.683
56160W        W29228  15.507  29.997  12.430
56161W        W29229  29.683  18.525  10.962
56162W        W29230  30.046  39.932   2.330
56163W        W29231  11.379   7.646  10.576
56164W        W29232   8.420  13.354   3.229
56165W        W29233  22.986   2.449   2.413
56166W        W29234  29.003   4.614  13.367
56167W        W29235  42.328  30.128  14.341
56168W        W29236  29.536  32.053  11.574
56169W        W29237   3.197   5.943  12.128
56170W        W29238  35.817  34.496   0.049
56171W        W29239  22.548  32.959   0.463
56172W        W29240  11.056  44.899  14.592
56173W        W29241  30.672  20.236  12.521
56174W        W29242  40.940   7.104  11.957
56175W        W29243  34.647  11.177  11.552
56176W        W29244  31.418  14.480  13.779
56177W        W29245  17.423   6.769   3.902
56178W        W29246  44.000  15.346   3.754
56179W        W29247  28.131   8.839  13.798
56180W        W29248  14.544  34.071  13.519
56181W        W29249  34.649  32.420   4.998
56182W        W29250  33.619  19.541   1.269
56183W        W29251  32.417  43.241   4.618
56184W        W29252  25.888   5.402  11.115
56185W        W29253  27.942  27.174  11.482
56186W        W29254  15.075  25.509   1.626
56187W        W29255  43.255  28.182  12.013
56188W        W29256  11.989  32.117  13.769
56189W        W29257  16.059  37.617   3.990
56190W        W29258  18.526  32.331  11.563
56191W        W29259  31.764  28.913   3.666
56192W        W29260   2.222  25.566   2.785
56193W        W29261  11.928  26.491  14.349
56194W        W29262   4.625  44.354   1.712
56195W        W29263  14.392  11.121   0.449
56196W        W29264  35.908   6.849  11.998
56197W        W29265  44.966  37.168   3.446
56198W        W29266  38.503  14.835  13.161
56199W        W29267   7.755   3.355  10.120
56200W        W29268  33.263  33.131  10.985
56201W        W29269  14.577   0.864   2.873
56202W        W29270  37.112  18.272   1.602
56203W        W29271   1.264  43.913  14.698
56204W        W29272  42.947  32.125  10.726
56205W        W29273  40.090  38.327  11.561
56206W        W29274  35.262  13.015   0.820
56207W        W29275  26.074  25.001   1.525
56208W        W29276  12.726  42.557   2.007
56209W        W29277  29.558  24.703   0.885
56210W        W29278  13.695   0.844  12.611
56211W        W29279  18.204  20.700  13.585
56212W        W29280  44.940   3.446   1.240
56213W        W29281  21.756  28.035   2.572
56214W        W29282   0.577  30.691  12.801
56215W        W29283  44.206  23.741  13.850
56216W        W29284  25.225   9.388  11.947
56217W        W29285   9.466   6.836  14.326
56218W        W29286  35.436  15.582  14.544
56219W        W29287  10.347  25.061  12.919
56220W        W29288  12.036  19.551   1.130
56221W        W29289  42.973   1.913  11.475
56222W        W29290  32.092  35.906  12.392
56223W        W29291  24.982  27.136   2.631
56224W        W29292  16.603   5.473  10.642
56225W        W29293   0.358   9.183   3.843
56226W        W29294   3.241  26.931  11.919
56227W        W29295  27.725  34.456   1.757
56228W        W29296  19.103  44.295   5.161
56229W        W29297  27.240   4.776  11.017
56230W        W29298  31.590  21.028   0.724
56231W        W29299  34.414  30.966   3.227
56232W        W29300  42.344  21.145  10.641
56233W        W29301  17.997  14.958  11.021
56234W        W29302  34.559  44.879  12.907
56235W        W29303  10.153   0.700  10.637
56236W        W29304  35.081  38.523  13.161
56237W        W29305  25.999  18.519  10.688
56238W        W29306   3.189  14.032  11.140
56239W        W29307  30.621  10.702   2.722
56240W        W29308  18.316  22.763  12.001
56241W        W29309  31.002  33.892   1.875
56242W        W29310   9.975  36.042  13.144
56243W        W29311  21.595  16.800  11.810
56244W        W29312   5.668   5.729  14.635
56245W        W29313  23.600  28.863  11.190
56246W        W29314   6.612  12.261   2.260
56247W        W29315  32.821   4.159   4.065
56248W        W29316   1.922  13.422   1.211
56249W        W29317  18.314   3.708  12.931
56250W        W29318  24.023   8.396   0.232
56251W        W29319  28.029  25.647  12.338
56252W        W29320   3.171  44.898  13.341
56253W        W29321   0.157   9.253  12.547
56254W        W29322  13.085  20.006  13.459
56255W        W29323  12.268   9.971   4.789
56256W        W29324  22.291  21.202  10.215
56257W        W29325  15.062  32.492   3.392
56258W        W29326  32.832   3.227  14.375
56259W        W29327  18.753   6.753   2.315
56260W        W29328  32.975  30.423  12.593
56261W        W29329  25.534  37.355   1.585
56262W        W29330  10.913  10.699  14.397
56263W        W29331   3.194  26.165  12.680
56264W        W29332   4.299  41.301   0.041
56265W        W29333  27.218  16.721   2.253
56266W        W29334  24.150  11.622  12.059
56267W        W29335  32.715  37.393   0.752
56268W        W29336  43.603  19.235   4.657
56269W        W29337   7.791  16.709  11.378
56270W        W29338  22.604   1.977  13.103
56271W        W29339  29.071  31.458  10.437
56272W        W29340  14.785  40.275   4.150
56273W        W29341   5.592   8.389   0.326
56274W        W29342  39.464  18.093  12.387
56275W        W29343  27.719  15.619  14.519
56276W        W29344  11.110   2.894  13.392
56277W        W29345  16.652  20.585  14.779
56278W        W29346   1.502  18.433   2.825
56279W        W29347  16.733   7.140   3.916
56280W        W29348  40.063  15.385  10.274
56281W        W29349   3.270  23.221  11.778
56282W        W29350  41.445  27.381  11.008
56283W        W29351  37.936  41.539   4.232
56284W        W29352   1.539   7.341  13.245
56285W        W29353  42.282  28.242  11.195
56286W        W29354  26.176  36.214   2.725
56287W        W29355  43.049   1.724  14.829
56288W        W29356  33.124   7.812  11.999
56289W        W29357  11.071  23.004  11.633
56290W        W29358   9.595  32.845  12.144
56291W        W29359  22.270  36.896   4.876
56292W        W29360  21.834  35.039   0.807
56293W        W29361  12.914  10.838   0.938
56294W        W29362  16.075  36.047  13.954
56295W        W29363   5.925  15.909   1.406
56296W        W29364  22.085  24.108  10.679
56297W        W29365  25.200  30.624   4.773
56298W        W29366  25.666  16.183   4.475
56299W        W29367   7.915  42.948   3.263
56300W        W29368  44.192   4.252  12.001
56301W        W29369  21.644  31.164  10.690
56302W        W29370  39.787   4.883   0.313
56303W        W29371  13.939  23.202  13.394
56304W        W29372   6.707  25.035   1.310
56305W        W29373   4.896  39.761  14.816
56306W        W29374   8.074  16.795   4.787
56307W        W29375  12.261  11.887  12.981
56308W        W29376  22.044   8.570  12.197
56309W        W29377  42.990  22.052  11.582
56310W        W29378   9.737  24.896  14.711
56311W        W29379   3.741  35.131   1.096
56312W        W29380   8.721  26.053  13.225
56313W        W29381  43.677  28.169   1.406
56314W        W29382  18.630  28.616  12.656
56315W        W29383  18.758  30.917  14.840
56316W        W29384  44.459  31.102  14.957
56317W        W29385  35.785   9.871   4.959
56318W        W29386   0.018  37.313   0.349
56319W        W29387  24.099   6.808  13.768
56320W        W29388  28.030   5.242  14.305
56321W        W29389  19.221  24.361  13.332
56322W        W29390  44.646  18.026   0.877
56323W        W29391   4.504  41.523  12.891
56324W        W29392  10.178  18.629   4.085
56325W        W29393  15.774  33.492  11.144
56326W        W29394  10.327  27.493  14.254
56327W        W29395  28.000  17.745  10.693
56328W        W29396   9.539  39.786  10.237
56329W        W29397  21.577   6.789   1.867
56330W        W29398  24.659  16.986   5.068
56331W        W29399  37.532  39.534  11.364
56332W        W29400   9.622   2.338  10.967
56333W        W29401   9.346  12.072  13.741
56334W        W29402  22.393  44.855   4.578
56335W        W29403  10.873  24.127  14.492
56336W        W29404  22.543  43.322  12.839
56337W        W29405  38.618   7.384   1.748
56338W        W29406  44.505  18.721  12.414
56339W        W29407  18.690  19.779   1.459
56340W        W29408   0.299   1.056  13.799
56341W        W29409  16.681  23.281   0.680
56342W        W29410  19.515   0.667   1.667
56343W        W29411  33.950  32.540   4.414
56344W        W29412  30.183  38.335   3.291
56345W        W29413   1.333  39.487  11.781
56346W        W29414  35.411   9.767   3.205
56347W        W29415  15.114  15.803   2.667
56348W        W29416  31.236  32.057   4.141
56349W        W29417  20.569  27.585  12.436
56350W        W29418  26.128  36.370  13.950
56351W        W29419  27.001  15.845   1.253
56352W        W29420  10.325  30.596  11.148
56353W        W29421   4.051  23.335   4.258
56354W        W29422  42.432  25.434  10.819
56355W        W29423  33.474  40.063   0.227
56356W        W29424   8.472  40.271  11.845
56357W        W29425  34.584  39.740   4.623
56358W        W29426  44.612   8.950  11.329
56359W        W29427  17.136  11.277   0.008
56360W        W29428  15.110   2.896  11.098
56361W        W29429  19.680  40.538   3.275
56362W        W29430   8.135  41.463   1.980
56363W        W29431  24.267  38.613   2.292
56364W        W29432  29.522  17.138   0.885
56365W        W29433   0.658  23.054  14.318
56366W        W29434  27.765   9.149  14.029
56367W        W29435  42.839  20.530   2.346
56368W        W29436  31.385   1.782   3.045
56369W        W29437  32.539   3.859  11.382
56370W        W29438  14.670  15.764  13.622
56371W        W29439  11.141   8.023  10.884
56372W        W29440  30.209   9.806  12.990
56373W        W29441  41.473  22.948   2.090
56374W        W29442   7.181   7.143   0.059
56375W        W29443  37.546  44.505  11.091
56376W        W29444  43.276   1.774  11.875
56377W        W29445  14.728  35.990   1.335
56378W        W29446   9.851  12.362  11.930
56379W        W29447  39.397  22.208   1.455
56380W        W29448  24.087  10.387   0.895
56381W        W29449  20.345   1.480  12.636
56382W        W29450   9.318  22.799   3.578
56383W        W29451  13.470   6.440   2.514
56384W        W29452   8.651  23.418  12.128
56385W        W29453  37.589  15.161   2.204
56386W        W29454  18.343   7.325   0.271
56387W        W29455  25.993  44.980  11.478
56388W        W29456  31.982  13.204  12.025
56389W        W29457  15.959  17.883  10.377
56390W        W29458  25.676  13.910   1.996
56391W        W29459   3.044  41.357   1.204
56392W        W29460   4.974  24.937   2.253
56393W        W29461  26.090  15.880  11.496
56394W        W29462  20.565  25.542   2.948
56395W        W29463  34.839  44.385   9.954
56396W        W29464  19.432  42.694   4.977
56397W        W29465  19.807   3.247   2.795
56398W        W29466  14.372  29.156   1.288
56399W        W29467  32.200  32.875   3.341
56400W        W29468  32.479   4.773   3.629
56401W        W29469  32.490   9.855  13.398
56402W        W29470  30.209  28.791   3.960
56403W        W29471  30.136  10.430   1.846
56404W        W29472  39.726  22.063  13.282
56405W        W29473  35.953  31.996   0.022
56406W        W29474  37.728  14.775  10.661
56407W        W29475  30.897   2.937  11.199
56408W        W29476   7.714  36.334   1.923
56409W        W29477  12.191   2.712   2.909
56410W        W29478  13.983   0.238  11.126
56411W        W29479   1.243   4.948   0.512
56412W        W29480  29.995  14.631   1.852
56413W        W29481  15.523  42.775  12.478
56414W        W29482   6.864   6.628   0.427
56415W        W29483  18.625  41.192   1.250
56416W        W29484  41.843  18.400   4.537
56417W        W29485  28.210   7.651   4.621
56418W        W29486  21.114  31.510   2.204
56419W        W29487  40.021  28.104   3.766
56420W        W29488   8.079  15.292   1.099
56421W        W29489  40.768   2.501  12.420
56422W        W29490  22.169  39.552  11.503
56423W        W29491  35.533  30.477  10.604
56424W        W29492  18.027  42.383  11.048
56425W        W29493  34.346  37.972  10.685
56426W        W29494  10.146  34.807   4.925
56427W        W29495  15.039   3.341  13.802
56428W        W29496  10.260  22.334  11.591
56429W        W29497  12.004  12.840   3.109
56430W        W29498  37.412  40.989   3.738
56431W        W29499  42.812  35.922  12.946
56432W        W29500   9.198  13.552  10.656
56433W        W29501  12.857  25.987   3.428
56434W        W29502  18.567   9.268  14.886
56435W        W29503  35.183  14.838   3.546
56436W        W29504  34.969  18.103  12.940
56437W        W29505  43.709  16.057  12.073
56438W        W29506   7.787  26.748  11.138
56439W        W29507  17.321  22.440  12.447
56440W        W29508   7.348  14.240   4.130
56441W        W29509   4.278  35.299  13.888
56442W        W29510  42.377  42.258   3.256
56443W        W29511  15.747   2.218   2.863
56444W        W29512  23.142   8.128   3.932
56445W        W29513  17.496  15.013   0.167
56446W        W29514  36.956  30.694   1.096
56447W        W29515   0.851  42.197   0.008
56448W        W29516  44.336  27.925  12.486
56449W        W29517   8.445  37.069  13.907
56450W        W29518  39.541  39.875   2.364
56451W        W29519  34.430  19.752  14.956
56452W        W29520  36.832  33.351  10.586
56453W        W29521  33.027   1.740   1.266
56454W        W29522  30.432  38.900  14.809
56455W        W29523   8.114   5.167   4.100
56456W        W29524  10.123  22.985   3.764
56457W        W29525   0.860  18.744  12.938
56458W        W29526  22.077  42.760   1.458
56459W        W29527  12.638  38.108  12.032
56460W        W29528  44.354  38.081  13.864
56461W        W29529  16.347  38.502  10.012
56462W        W29530  21.130  33.921   2.078
56463W        W29531   0.913  22.571  14.446
56464W        W29532   0.910   9.353   9.892
56465W        W29533  14.436  20.225  14.298
56466W        W29534  21.724  33.995   4.593
56467W        W29535  41.366  32.959  13.376
56468W        W29536  12.146   4.534   3.634
56469W        W29537  37.946  36.725   5.072
56470W        W29538  14.378  31.151   1.708
56471W        W29539  16.808   8.118  13.563
56472W        W29540  11.371  18.893  11.229
56473W        W29541  35.480   2.710  10.737
56474W        W29542  42.224  32.172   3.856
56475W        W29543   5.868  23.531  11.986
56476W        W29544  16.853   0.929  11.116
56477W        W29545  34.952  36.625   1.202
56478W        W29546   0.190  11.259   3.117
56479W        W29547  30.465   6.618   1.674
56480W        W29548  42.681  43.631  11.771
56481W        W29549  24.065  23.045   3.282
56482W        W29550  18.944  12.201   0.234
56483W        W29551  10.089  37.996   3.727
56484W        W29552   3.582   2.873  12.871
56485W        W29553   5.665  39.935  11.887
56486W        W29554  23.989  13.593   4.514
56487W        W29555  42.601  41.756  10.535
56488W        W29556  19.383  18.411  12.888
56489W        W29557  43.053  28.575  11.014
56490W        W29558   4.491  21.196   0.396
56491W        W29559  24.559   6.153  13.109
56492W        W29560  25.589  28.386   0.060
56493W        W29561  22.063  22.255   1.409
56494W        W29562  21.546  37.054  14.914
56495W        W29563  13.232  18.787   4.666
56496W        W29564  17.280   2.537   4.979
56497W        W29565  11.087   6.276  13.350
56498W        W29566  31.825   5.447   3.724
56499W        W29567  21.187  41.407   0.522
56500W        W29568  24.734   3.659   1.697
56501W        W29569  23.720   5.880   0.723
56502W        W29570  14.927  22.777   0.332
56503W        W29571   9.757   1.786   2.419
56504W        W29572  29.124  22.657   2.823
56505W        W29573  24.417  35.423   2.920
56506W        W29574  41.986  29.121  11.658
56507W        W29575  17.692  16.747  12.134
56508W        W29576  22.138  19.125   0.330
56509W        W29577   8.231  28.790  11.052
56510W        W29578  22.449  16.167   1.647
56511W        W29579   3.475  23.219   0.742
56512W        W29580  38.866   8.642  14.370
56513W        W29581   0.187  19.614  13.270
56514W        W29582  22.124  36.056   2.755
56515W        W29583   1.038  34.098  14.428
56516W        W29584  19.308  21.272  13.963
56517W        W29585  42.436  19.000  11.443
56518W        W29586  34.371  31.494   5.066
56519W        W29587  13.743  13.784   0.413
56520W        W29588  33.740  21.693  12.155
56521W        W29589   4.673  18.016   1.308
56522W        W29590  38.336  26.191   3.088
56523W        W29591   4.683  22.970  11.958
56524W        W29592  35.478  42.833  10.704
56525W        W29593  31.518  19.739  11.735
56526W        W29594   0.893  22.287   3.888
56527W        W29595  24.273  21.327   3.693
56528W        W29596   9.329   9.684  12.603
56529W        W29597  20.995  36.574  10.796
56530W        W29598  11.725  29.173   1.952
56531W        W29599   9.206   8.990   5.008
56532W        W29600  12.927  28.094   0.575
56533W        W29601  25.339  41.567   4.601
56534W        W29602  27.689  19.554   0.843
56535W        W29603  13.065  31.491  13.835
56536W        W29604  38.967  14.955  13.393
56537W        W29605  44.728  33.385   1.938
56538W        W29606  16.635   3.304   3.689
56539W        W29607   4.823  30.421   1.287
56540W        W29608  40.002  32.641   1.668
56541W        W29609  31.580  36.946  14.317
56542W        W29610  20.736  11.821  10.808
56543W        W29611   6.641   6.960   3.645
56544W        W29612  31.355  29.145   2.576
56545W        W29613  21.178  38.353  13.607
56546W        W29614  31.590  44.553  14.519
56547W        W29615  37.076  10.176   3.419
56548W        W29616  42.773  13.366  14.497
56549W        W29617  17.255   5.584   0.833
56550W        W29618   3.312  39.407   3.908
56551W        W29619  27.348  24.091   3.982
56552W        W29620  13.939  42.797   4.204
56553W        W29621  36.471  22.780   1.423
56554W        W29622  38.392  22.194  13.287
56555W        W29623   3.447  10.366  14.935
56556W        W29624   7.146  16.608   4.609
56557W        W29625  44.782  28.956   2.318
56558W        W29626   8.488  17.967  11.304
56559W        W29627   6.368  12.757   4.986
56560W        W29628  32.941  36.001   1.951
56561W        W29629  36.844   4.176  13.459
56562W        W29630  14.643   4.882  10.235
56563W        W29631  38.481  40.080  11.448
56564W        W29632  23.165   8.736   2.752
56565W        W29633  19.655   1.511  13.583
56566W        W29634  34.412  11.178   0.941
56567W        W29635  29.369  17.250   3.978
56568W        W29636  39.996   5.932  10.189
56569W        W29637  10.305  44.310  10.587
56570W        W29638  27.404  11.044  11.987
56571W        W29639   4.005   8.963  13.063
56572W        W29640  28.527  20.511   3.905
56573W        W29641  14.132  29.258   0.829
56574W        W29642  33.677  15.162  12.638
56575W        W29643   2.484  24.506   2.338
56576W        W29644  37.517  21.451   0.180
56577W        W29645   0.398  14.363  14.345
56578W        W29646  17.602  11.145   2.983
56579W        W29647  37.420  30.617  11.971
56580W        W29648  28.600  23.721  13.283
56581W        W29649   2.719  27.928  14.000
56582W        W29650  32.837  26.732   1.326
56583W        W29651  41.727  40.429  12.833
56584W        W29652  40.777   2.901   4.312
56585W        W29653  35.101  34.090  10.679
56586W        W29654   8.643  17.005  14.011
56587W        W29655  13.483   1.841   0.674
56588W        W29656  34.116  27.192  11.000
56589W        W29657  23.632  33.405   1.341
56590W        W29658  37.797   2.857  10.495
56591W        W29659  44.736  27.757  11.056
56592W        W29660  30.705  24.046  12.888
56593W        W29661  23.087  35.928  13.904
56594W        W29662   8.741  17.084   0.269
56595W        W29663  36.562   2.292   4.721
56596W        W29664  40.052  33.514  11.077
56597W        W29665  11.879  11.057   3.246
56598W        W29666  33.956   3.496   4.236
56599W        W29667   2.233  14.803   1.375
56600W        W29668  32.575   1.913   1.486
56601W        W29669  14.243   9.366   3.364
56602W        W29670  42.737   5.749  10.620
56603W        W29671  23.104  25.383  13.980
56604W        W29672  27.951  17.621   2.713
56605W        W29673  33.981   2.827  12.860
56606W        W29674  39.718   0.746   4.168
56607W        W29675   3.162  38.785  10.617
56608W        W29676  39.401  26.799   0.800
56609W        W29677  43.767  36.794  14.919
56610W        W29678  29.487  30.224  12.002
56611W        W29679  34.597  20.524  11.139
56612W        W29680  15.286  32.041  11.918
56613W        W29681   7.171  44.313   2.636
56614W        W29682  30.946   3.971  13.560
56615W        W29683  32.966  26.494   2.665
56616W        W29684  41.173  16.073  11.510
56617W        W29685  28.604  26.631   4.844
56618W        W29686  40.894  42.561   4.575
56619W        W29687  29.640   3.871   1.439
56620W        W29688   2.653  21.103   4.677
56621W        W29689   8.864  29.408  11.425
56622W        W29690  42.913  38.444  10.938
56623W        W29691   2.065  17.650  14.730
56624W        W29692  39.289  39.975   1.917
56625W        W29693   6.260  41.513  14.989
56626W        W29694  41.031   2.868  14.843
56627W        W29695  44.534  29.953   3.605
56628W        W29696  43.782  27.843   4.923
56629W        W29697  24.123   5.910  11.510
56630W        W29698  30.034  41.934  13.795
56631W        W29699  24.028  41.051  11.017
56632W        W29700  10.585  23.228   3.738
56633W        W29701  24.226  21.642  14.490
56634W        W29702  25.366  14.116   4.682
56635W        W29703  17.047  27.857   4.175
56636W        W29704   9.640  17.144   1.375
56637W        W29705  39.947   8.621   1.814
56638W        W29706  13.883  37.417  12.461
56639W        W29707  39.090  28.653  13.513
56640W        W29708   3.207  19.477  10.669
56641W        W29709   0.981   0.822   1.440
56642W        W29710  32.621   7.600  12.857
56643W        W29711  35.133  12.792  12.903
56644W        W29712  41.282   3.350  11.672
56645W        W29713   7.656  43.859   2.324
56646W        W29714  11.737  27.930  11.513
56647W        W29715  29.055  25.416  11.034
56648W        W29716  43.207  33.130  12.865
56649W        W29717  38.521  44.080  12.195
56650W        W29718  41.004  40.130   3.154
56651W        W29719  17.604   1.498  13.032
56652W        W29720  25.822  17.025  13.839
56653W        W29721  39.520  13.589   0.239
56654W        W29722  34.931   8.542   2.865
56655W        W29723  23.154  27.214  14.605
56656W        W29724  12.771  18.450  14.882
56657W        W29725   4.171  26.803   4.105
56658W        W29726  22.731  40.066   2.259
56659W        W29727   0.635  31.741  11.943
56660W        W29728  28.519  26.472  12.069
56661W        W29729  23.057  16.301   4.043
56662W        W29730   4.425  42.876  13.042
56663W        W29731  27.453  39.908  10.506
56664W        W29732  35.397  36.146  12.512
56665W        W29733   9.296  21.513   1.457
56666W        W29734  31.126  20.984   2.780
56667W        W29735  42.446  30.615  14.508
56668W        W29736  30.414  14.694  12.355
56669W        W29737  24.003  16.626   1.837
56670W        W29738  14.747  39.338   3.781
56671W        W29739  28.929  40.228   1.675
56672W        W29740  39.591   6.358   1.764
56673W        W29741  19.539  20.019  13.780
56674W        W29742  40.805  17.056  14.066
56675W        W29743  26.702  28.517  12.893
56676W        W29744   1.352   7.755   4.772
56677W        W29745  25.386  35.588  13.500
56678W        W29746  29.197  38.344  13.339
56679W        W29747  25.722  27.966  14.302
56680W        W29748  23.529   9.131  11.133
56681W        W29749   1.921  22.063   3.833
56682W        W29750   1.438  31.204   0.321
56683W        W29751  33.803  20.328   2.251
56684W        W29752  30.626  25.139  12.070
56685W        W29753  18.309  39.851  13.252
56686W        W29754  19.522  13.523  13.547
56687W        W29755  11.666  25.758  10.325
56688W        W29756  15.619   9.425  13.811
56689W        W29757  17.856  40.763   2.902
56690W        W29758  18.128  18.967   2.750
56691W        W29759  36.535  32.649  11.139
56692W        W29760  12.043  11.500  12.369
56693W        W29761   0.337  43.240   0.165
56694W        W29762  16.602  42.171   1.792
56695W        W29763  36.066  29.949   0.359
56696W        W29764  38.869   3.495  10.682
56697W        W29765  24.716   5.249   0.735
56698W        W29766  33.143  17.545  12.100
56699W        W29767  42.233  42.073   2.341
56700W        W29768   1.852  21.931  10.604
56701W        W29769   5.762  25.489   1.669
56702W        W29770   5.874   6.794   4.196
56703W        W29771  19.011  27.924   3.417
56704W        W29772  18.752  27.701  11.093
56705W        W29773  17.552  24.453   1.343
56706W        W29774   0.202  31.334   2.971
56707W        W29775  21.930  21.276   2.867
56708W        W29776   7.349  32.117   1.155
56709W        W29777   9.581  20.540  13.900
56710W        W29778  12.627   1.953  11.226
56711W        W29779  15.292  14.330  10.528
56712W        W29780   5.212  38.076  12.054
56713W        W29781  17.673  36.735  13.392
56714W        W29782  33.514  20.177  13.098
56715W        W29783  21.339  37.456   5.323
56716W        W29784  43.936  15.242  14.049
56717W        W29785  18.195   3.862  13.467
56718W        W29786  44.963  39.838   0.297
56719W        W29787  29.079   4.729  10.263
56720W        W29788  44.781  33.560  11.218
56721W        W29789  32.093  18.690   1.861
56722W        W29790  40.880   1.566  12.804
56723W        W29791   6.836  17.180   3.715
56724W        W29792  33.918  28.536  10.620
56725W        W29793  13.807   8.907  10.503
56726W        W29794  15.399   3.876  10.050
56727W        W29795  28.066  41.956   4.535
56728W        W29796  12.647   5.720   0.007
56729W        W29797  18.522  33.054  11.469
56730W        W29798  37.048  13.292  12.917
56731W        W29799  33.123  24.609   1.887
56732W        W29800   2.769  34.875  14.495
56733W        W29801  37.486  44.572  14.074
56734W        W29802  11.946  31.380   4.268
56735W        W29803   3.714  15.764  10.525
56736W        W29804   0.217   7.744  14.959
56737W        W29805   0.986  13.603   4.524
56738W        W29806   0.350   5.215   0.682
56739W        W29807  21.519  19.510  10.672
56740W        W29808  22.684   7.736  14.866
56741W        W29809  38.566   3.868  14.882
56742W        W29810  35.534  34.146   0.865
56743W        W29811  11.724  33.680  12.559
56744W        W29812  10.921  18.140  14.238
56745W        W29813  33.193  43.198   1.828
56746W        W29814  44.126   8.284   3.197
56747W        W29815   6.359  37.543  13.865
56748W        W29816  24.482   4.734   3.047
56749W        W29817  16.364  40.094  11.559
56750W        W29818  38.060   1.644  14.742
56751W        W29819  11.748   1.382  14.389
56752W        W29820  42.621  37.789   0.468
56753W        W29821   5.680  28.098  12.496
56754W        W29822  37.959  32.494  10.781
56755W        W29823  13.280  18.075  11.534
56756W        W29824  31.536  24.528  14.381
56757W        W29825  32.240  25.119  14.841
56758W        W29826  17.228  44.687   2.321
56759W        W29827  35.392  20.029  12.571
56760W        W29828  39.359  21.944   3.698
56761W        W29829  44.472   7.411   4.230
56762W        W29830  32.507  14.825  14.477
56763W        W29831  42.584  16.095  10.718
56764W        W29832   9.971  29.023   0.219
56765W        W29833   7.822  11.164  11.672
56766W        W29834  29.672  17.783   1.353
56767W        W29835   5.259   8.706   3.160
56768W        W29836   9.242  43.541   4.733
56769W        W29837  29.526  42.851   1.918
56770W        W29838  24.173  18.737  12.740
56771W        W29839  30.555  14.190  13.438
56772W        W29840  31.079  27.372   4.257
56773W        W29841  44.648  25.239  14.982
56774W        W29842  27.371  18.187  13.483
56775W        W29843  29.618  41.987   1.384
56776W        W29844  41.258  44.260  10.792
56777W        W29845  23.084  42.454  13.553
56778W        W29846  44.346  30.226  11.997
56779W        W29847   7.851  22.263  14.914
56780W        W29848  42.772  18.544  10.767
56781W        W29849  42.496   9.621   2.249
56782W        W29850  21.975   0.202   2.244
56783W        W29851  22.233   5.316  11.543
56784W        W29852  18.921   6.989  14.073
56785W        W29853  41.996  21.264  12.977
56786W        W29854   5.175  12.621  12.103
56787W        W29855   1.720  43.503  14.376
56788W        W29856  34.049  42.901   0.892
56789W        W29857  37.824  32.147  12.970
56790W        W29858  37.941  39.597  11.054
56791W        W29859  17.075  29.603   1.316
56792W        W29860  30.104  25.955   4.854
56793W        W29861  14.981  44.453  12.314
56794W        W29862  34.121  11.198  11.444
56795W        W29863  12.671  16.999  14.942
56796W        W29864  35.849  37.896   3.780
56797W        W29865  12.753  36.183  14.833
56798W        W29866  20.847  13.591   2.505
56799W        W29867   6.209  23.522   1.037
56800W        W29868  22.323  38.776   2.134
56801W        W29869  43.475  41.793   1.818
56802W        W29870  11.212  34.869  13.975
56803W        W29871   8.859  33.166  11.136
56804W        W29872   5.159   3.863   3.608
56805W        W29873   7.381  29.644   0.444
56806W        W29874  10.929  44.015   3.555
56807W        W29875   1.927  26.432  13.352
56808W        W29876  14.257  24.551   4.149
56809W        W29877  16.661  27.238   1.789
56810W        W29878   4.461  37.421  11.465
56811W        W29879  12.202   8.798   4.536
56812W        W29880  40.965   4.064  12.384
56813W        W29881  11.194  35.447  12.610
56814W        W29882  24.849  17.217  11.231
56815W        W29883  34.641  23.430   4.679
56816W        W29884   9.565  38.387  11.479
56817W        W29885  23.233  19.078   3.291
56818W        W29886   7.305  21.044  13.911
56819W        W29887  30.423  13.018  11.919
56820W        W29888  24.318  30.081   2.274
56821W        W29889   4.542  28.992   1.364
56822W        W29890   3.188   9.733   4.893
56823W        W29891  41.931   4.825   0.042
56824W        W29892  19.204  18.917  11.216
56825W        W29893  21.749  31.068   3.676
56826W        W29894  21.017  35.153   0.352
56827W        W29895  29.186   1.268   1.932
56828W        W29896  18.655  35.680   4.054
56829W        W29897  11.853  31.145   3.576
56830W        W29898   1.373  33.913  13.078
56831W        W29899  28.064   5.686  10.566
56832W        W29900  30.540   2.689   2.336
56833W        W29901  10.367  39.434  12.465
56834W        W29902  43.531  12.374  11.050
56835W        W29903  20.583   1.560  13.875
56836W        W29904   9.788  24.679   4.567
56837W        W29905  33.932  17.595   2.812
56838W        W29906  31.893  26.747  14.231
56839W        W29907   8.923  43.934   2.723
56840W        W29908  41.866  36.343   0.990
56841W        W29909  28.189  35.759  12.045
56842W        W29910  19.001   1.881   1.911
56843W        W29911  26.520  23.022  10.749
56844W        W29912  10.637   4.435  12.483
56845W        W29913  14.685  28.150  11.381
56846W        W29914  24.021  44.921  12.467
56847W        W29915  17.669  13.488  13.249
56848W        W29916  11.864  17.266  13.342
56849W        W29917  39.027  14.385   3.787
56850W        W29918  38.060  10.605   3.284
56851W        W29919  36.632   3.316   4.976
56852W        W29920  34.187  26.761   2.312
56853W        W29921  37.471  37.922   4.706
56854W        W29922  22.831  28.536  11.549
56855W        W29923  22.131  11.130  10.534
56856W        W29924  27.507  38.786   2.626
56857W        W29925  14.218  42.181  13.370
56858W        W29926  17.674  18.739   0.714
56859W        W29927   4.226  40.725  14.165
56860W        W29928  21.162   5.642  10.612
56861W        W29929  11.240  27.462  12.609
56862W        W29930  17.341  19.568  11.060
56863W        W29931  16.357  21.217  13.965
56864W        W29932  38.089  18.758  13.360
56865W        W29933  34.960  40.431   5.090
56866W        W29934  28.122   6.228  14.743
56867W        W29935  39.406  15.765  13.292
56868W        W29936  22.012  26.323  12.084
56869W        W29937  20.634   9.912   2.689
56870W        W29938  15.338  18.384   3.717
56871W        W29939  41.926  16.593   4.119
56872W        W29940  37.885   8.926   1.885
56873W        W29941   5.920  37.292  14.951
56874W        W29942  28.869  32.483  13.752
56875W        W29943  19.779  42.552   2.816
56876W        W29944  44.568  31.011  12.467
56877W        W29945  29.182   3.928   1.189
56878W        W29946   3.006  36.042  11.593
56879W        W29947   9.155  22.586  10.051
56880W        W29948   6.251  18.748  12.936
56881W        W29949  44.738  12.384  14.900
56882W        W29950   9.253  19.584  10.397
56883W        W29951   1.717  27.428   4.056
56884W        W29952  25.702  21.878   1.680
56885W        W29953  22.979  31.693   0.676
56886W        W29954  33.851   0.255   0.443
56887W        W29955  37.019  10.005   0.917
56888W        W29956   6.781  19.658  12.685
56889W        W29957  37.982   6.042  11.584
56890W        W29958  43.999  15.162  14.981
56891W        W29959  39.922  44.934   2.829
56892W        W29960  40.330   7.962   4.170
56893W        W29961  34.566  17.712  14.174
56894W        W29962  18.808  30.997   4.623
56895W        W29963   3.596  18.557   0.248
56896W        W29964  34.652  39.484   1.277
56897W        W29965   8.153  37.966  13.957
56898W        W29966  44.482  37.282   0.342
56899W        W29967  19.778  44.668  10.690
56900W        W29968  38.311  29.189   4.995
56901W        W29969  18.703  24.437   2.786
56902W        W29970  15.616  29.998   0.471
56903W        W29971  26.598  20.889  14.115
56904W        W29972  38.342  16.349  12.858
56905W        W29973  32.632  42.847  12.925
56906W        W29974   9.327  10.834  10.675
56907W        W29975  21.519  15.731   2.418
56908W        W29976  16.493  30.970   2.785
56909W        W29977  41.467  44.601  14.428
56910W        W29978  39.296   1.516   3.131
56911W        W29979  32.373  34.888  11.874
56912W        W29980   4.671   7.437   1.225
56913W        W29981  35.423  16.285   1.404
56914W        W29982  22.792  25.733   3.750
56915W        W29983   3.257  15.025   1.232
56916W        W29984  28.484  29.393   0.340
56917W        W29985  33.769  12.200   0.197
56918W        W29986   0.958   0.621   2.814
56919W        W29987  14.119   4.324   3.631
56920W        W29988   1.494  39.308   1.925
56921W        W29989   3.738  20.519   2.687
56922W        W29990  21.958  44.422  14.011
56923W        W29991  22.975  25.611  12.035
56924W        W29992  35.393  20.209  14.451
56925W        W29993  16.296  10.635  11.953
56926W        W29994  23.994   9.959   3.583
56927W        W29995  24.107   6.872   0.259
56928W        W29996   3.599  27.046   0.345
56929W        W29997  16.057  37.501   1.484
56930W        W29998  35.357  39.029  11.466
56931W        W29999  36.056  39.337   2.727
56932W        W30000   1.887  17.673  10.998
56933W        W30001  10.147  34.081   3.325
56934W        W30002  12.136  30.529  10.469
56935W        W30003  42.297   7.338   3.322
56936W        W30004  21.101   8.108   2.526
56937W        W30005  27.974  34.019   1.947
56938W        W30006   1.512  30.687   0.359
56939W        W30007  23.124  20.811   0.762
56940W        W30008   5.329  39.024  12.058
56941W        W30009   7.426  28.912  12.854
56942W        W30010  32.672  34.301   1.749
56943W        W30011  24.561  13.792  11.125
56944W        W30012  42.258  34.333   4.673
56945W        W30013  25.667   1.949  13.050
56946W        W30014   5.661  16.944  14.331
56947W        W30015  39.703   7.228  12.964
56948W        W30016  38.098  31.537  12.509
56949W        W30017  28.673  10.832   1.680
56950W        W30018  15.092   9.618   3.640
56951W        W30019  13.197  28.180  14.742
56952W        W30020   5.845  13.187   4.886
56953W        W30021  22.191  29.967   4.304
56954W        W30022  42.422  32.017   4.855
56955W        W30023  14.583   8.081   4.581
56956W        W30024   3.742  11.840  11.680
56957W        W30025  30.400   6.124   1.829
56958W        W30026  44.770   6.170  14.036
56959W        W30027  19.618   0.017  14.205
56960W        W30028  11.224  35.784  14.003
56961W        W30029  35.063   1.857   3.839
56962W        W30030   7.407  17.984   3.813
56963W        W30031  28.904  41.070   3.703
56964W        W30032  12.232   5.927  13.938
56965W        W30033  16.298  41.867  14.615
56966W        W30034  44.934  10.013   2.401
56967W        W30035  36.993  21.466   4.156
56968W        W30036  42.907  15.641  12.890
56969W        W30037   1.976  38.918  14.154
56970W        W30038   8.384  27.963   2.366
56971W        W30039  36.123   3.303  14.482
56972W        W30040  12.779  41.976   2.802
56973W        W30041   9.726  25.833  10.596
56974W        W30042  26.761   4.669  11.918
56975W        W30043  11.794  12.578  14.103
56976W        W30044  39.015   5.299   2.369
56977W        W30045   9.851  23.517  11.018
56978W        W30046  28.615   2.616  11.560
56979W        W30047  30.147  34.102  12.006
56980W        W30048   1.924  21.579  12.500
56981W        W30049   4.817  16.604  10.470
56982W        W30050  38.323   7.050  10.775
56983W        W30051  14.305  31.382  11.552
56984W        W30052   6.126  13.846  13.943
56985W        W30053  10.127  32.478  11.308
56986W        W30054  17.162  23.636   5.194
56987W        W30055  35.157  38.691   2.286
56988W        W30056   4.652  31.430  14.896
56989W        W30057  35.892  28.421   4.661
56990W        W30058  10.839  17.144   4.768
56991W        W30059  15.718   5.685  11.330
56992W        W30060  22.644  29.833  14.463
56993W        W30061  27.576  26.941   3.295
56994W        W30062   1.398  44.775   2.077
56995W        W30063  29.403  23.789   5.261
56996W        W30064  43.158  43.607  13.524
56997W        W30065  10.545  22.677  12.601
56998W        W30066   4.253   2.294  14.361
56999W        W30067  34.420  37.923   3.889
57000W        W30068   0.931  24.142  14.777
57001W        W30069   3.867   6.249  14.330
57002W        W30070  11.135  37.088  11.431
57003W        W30071  10.396  17.559   1.458
57004W        W30072  29.074  28.818  14.233
57005W        W30073  29.400   2.458   1.279
57006W        W30074  44.137  16.250  14.722
57007W        W30075  35.606  17.880   4.802
57008W        W30076  22.069  29.620  12.017
57009W        W30077  18.638   9.757  13.412
57010W        W30078  44.533  17.571   4.627
57011W        W30079  35.214  40.390   4.070
57012W        W30080  23.485   3.480  11.877
57013W        W30081  42.407  11.360   1.814
57014W        W30082  34.219  34.304  11.565
57015W        W30083   7.722   1.474  11.078
57016W        W30084  10.185  13.601   1.958
57017W        W30085  18.228  14.530   0.360
57018W        W30086  26.564  34.442   3.695
57019W        W30087  40.841  28.118  11.911
57020W        W30088   5.668  32.693  13.796
57021W        W30089  33.464  40.496  11.475
57022W        W30090  37.685  40.894   4.530
57023W        W30091   5.221  19.883  14.539
57024W        W30092   0.359  25.970  12.815
57025W        W30093  29.005  22.438  14.423
57026W        W30094  31.857   9.289   1.583
57027W        W30095  36.612   3.304   4.413
57028W        W30096  37.506  37.519  13.330
57029W        W30097  11.355  24.981   0.316
57030W        W30098  17.716  21.144  14.366
57031W        W30099  27.398   4.899  10.539
57032W        W30100  43.156   2.529   1.431
57033W        W30101  18.356  22.549   2.663
57034W        W30102   8.563   7.319  12.550
57035W        W30103  10.540  19.172  14.569
57036W        W30104  10.622  42.133  13.088
57037W        W30105  13.604  44.709  14.948
57038W        W30106   4.459  17.408   0.417
57039W        W30107  13.712  10.666  12.997
57040W        W30108  34.957  21.808   0.996
57041W        W30109  28.129  43.238  14.847
57042W        W30110  18.949  39.382  10.599
57043W        W30111   6.821  22.514   2.831
57044W        W30112  12.153  20.041  11.967
57045W        W30113  20.204  16.065  12.187
57046W        W30114  40.745  41.393  12.423
57047W        W30115   4.614  37.369   5.014
57048W        W30116  34.411   1.882  13.547
57049W        W30117   3.777   6.975  14.893
57050W        W30118   1.038   9.122   0.986
57051W        W30119  19.534  10.074  12.498
57052W        W30120  21.948  38.935  12.953
57053W        W30121  26.615  22.912  13.605
57054W        W30122  10.390  28.614   3.874
57055W        W30123  29.951  38.535   1.920
57056W        W30124  13.365  40.540  14.666
57057W        W30125  20.475  28.914   1.960
57058W        W30126  39.112  14.378  10.812
57059W        W30127  16.384   9.148   2.143
57060W        W30128  19.049  20.231  11.076
57061W        W30129  23.657   9.143   1.387
57062W        W30130  31.629  16.911  13.595
57063W        W30131   0.399  24.549  14.370
57064W        W30132  19.751  29.674   0.911
57065W        W30133  39.452  44.732   2.785
57066W        W30134   2.728  27.975   0.824
57067W        W30135  27.267   9.473  11.127
57068W        W30136  39.854  28.461   1.391
57069W        W30137   6.642   2.447   3.268
57070W        W30138  22.570  29.434  12.017
57071W        W30139  10.985  32.646  10.762
57072W        W30140  23.548  44.741  12.399
57073W        W30141   6.254  34.377   2.953
57074W        W30142  34.114  22.225  11.111
57075W        W30143  14.896   2.468   4.337
57076W        W30144  33.568  22.503   3.669
57077W        W30145  20.264  33.541  13.797
57078W        W30146  15.143  33.388  14.721
57079W        W30147  42.343  27.432  13.518
57080W        W30148   0.925   8.856  14.777
57081W        W30149   6.419  41.467   3.103
57082W        W30150  41.757  18.296  11.586
57083W        W30151  12.575  23.401  12.929
57084W        W30152  43.277   8.202   2.749
57085W        W30153  35.035   4.006  10.735
57086W        W30154   6.398  15.294   1.957
57087W        W30155  19.278  40.992   0.003
57088W        W30156  25.464  39.829  14.484
57089W        W30157  38.168  43.709  12.125
57090W        W30158  15.981  18.453   4.193
57091W        W30159  16.916  22.002   4.253
57092W        W30160  31.090   2.888  11.676
57093W        W30161  44.541  12.401   0.883
57094W        W30162   1.474  24.708   1.294
57095W        W30163   1.475  28.692  11.190
57096W        W30164  32.906  22.175  11.508
57097W        W30165   0.444  19.514  10.393
57098W        W30166  20.290  35.895   4.083
57099W        W30167  16.405  32.253  11.031
57100W        W30168   5.698  39.726   0.025
57101W        W30169  31.879  14.690  13.410
57102W        W30170  19.305  20.042   4.125
57103W        W30171  20.607  36.934   1.199
57104W        W30172  15.760  21.685  11.870
57105W        W30173   7.858   7.232   2.301
57106W        W30174  16.600  22.466   3.249
57107W        W30175  34.960  43.501   4.822
57108W        W30176  33.043  27.220   4.613
57109W        W30177  33.269   6.208   4.181
57110W        W30178  14.813  31.385   0.502
57111W        W30179  14.313   0.299  10.701
57112W        W30180   6.246  43.750  12.692
57113W        W30181   5.683  14.254   4.864
57114W        W30182   5.774  13.736   3.701
57115W        W30183  40.815  25.233   3.233
57116W        W30184   9.205  13.067   0.023
57117W        W30185  25.568  14.961  14.820
57118W        W30186   2.301  28.561   4.480
57119W        W30187  37.887  23.155   4.690
57120W        W30188  21.335   7.698   5.334
57121W        W30189   4.545  17.261  11.022
57122W        W30190   1.054  16.243  10.702
57123W        W30191  33.931  42.625  10.116
57124W        W30192  42.222  25.932   3.655
57125W        W30193  33.912   1.472   4.683
57126W        W30194   7.719  42.442   0.427
57127W        W30195  35.499  26.887  14.143
57128W        W30196  23.174  20.549   2.433
57129W        W30197  44.097  32.147   2.792
57130W        W30198  38.752   7.790  10.899
57131W        W30199  19.141  26.141   2.845
57132W        W30200  34.892  20.825   3.185
57133W        W30201  21.726  14.044  13.973
57134W        W30202  21.541  44.731   3.661
57135W        W30203  27.775   9.785  14.872
57136W        W30204  17.257  19.978   1.430
57137W        W30205  15.741  13.071  14.592
57138W        W30206  27.643  16.200   0.306
57139W        W30207  16.566  19.483   1.363
57140W        W30208  44.041  20.171   4.243
57141W        W30209  34.554  39.037   1.531
57142W        W30210   2.455  27.141  11.357
57143W        W30211   6.300  22.915  10.024
57144W        W30212  18.003  41.727   3.622
57145W        W30213  14.343  10.331   1.398
57146W        W30214  19.583  18.103   4.153
57147W        W30215  28.176   7.777  11.180
57148W        W30216  34.495  42.527   3.793
57149W        W30217  31.303  38.517  14.416
57150W        W30218   3.641  40.484   0.960
57151W        W30219  25.599   9.605   3.119
57152W        W30220   6.028  33.014   3.913
57153W        W30221  26.674   1.632  13.590
57154W        W30222   1.481   6.168   2.838
57155W        W30223  15.630  10.235  13.585
57156W        W30224  12.797  35.855  14.286
57157W        W30225   4.957  29.517   3.314
57158W        W30226  15.132  18.852   4.589
57159W        W30227  25.214  38.312  11.645
57160W        W30228  21.805  32.900   1.756
57161W        W30229  26.121  29.249   1.786
57162W        W30230   9.715  10.824   1.852
57163W        W30231  44.871  20.639  12.896
57164W        W30232  22.183  22.595   3.753
57165W        W30233  30.801  15.767   4.281
57166W        W30234  42.430  29.964   0.821
57167W        W30235   7.756  10.511   0.801
57168W        W30236  32.897  31.943  14.791
57169W        W30237  37.288  14.443  12.116
57170W        W30238  16.726  26.462  11.225
57171W        W30239   8.820   8.955  10.878
57172W        W30240  44.812  39.423  12.469
57173W        W30241  18.834  11.482   4.891
57174W        W30242  21.689  33.519   1.288
57175W        W30243  12.468  40.310   0.088
57176W        W30244  13.268  33.537   0.099
57177W        W30245   8.162   6.123  13.040
57178W        W30246  23.641  11.386  13.385
57179W        W30247  30.866  18.981  12.677
57180W        W30248   3.769  15.276  14.043
57181W        W30249  14.631  11.786  13.056
57182W        W30250  24.501  38.430  13.382
57183W        W30251  36.934  22.724  11.046
57184W        W30252  38.422  35.821  11.977
57185W        W30253  20.473  13.648  10.993
57186W        W30254  18.177  37.667  14.454
57187W        W30255  35.348   5.325  13.294
57188W        W30256   4.332  18.071   2.237
57189W        W30257  12.754   6.909   4.644
57190W        W30258  24.695  12.061   0.346
57191W        W30259   7.249  32.454   0.730
57192W        W30260  24.153  34.592   0.629
57193W        W30261  20.146  18.818   2.385
57194W        W30262  42.003  29.394   3.067
57195W        W30263  38.000  19.779  14.373
57196W        W30264  27.193  24.508   3.745
57197W        W30265  32.956   8.331   0.950
57198W        W30266  15.322  44.170   2.281
57199W        W30267  34.158   7.588  12.040
57200W        W30268  30.267  35.509   4.924
57201W        W30269  33.205   5.646  13.762
57202W        W30270   4.721  25.233   0.283
57203W        W30271  43.032  34.365  10.685
57204W        W30272  34.664  15.712   4.703
57205W        W30273  15.197  11.935   1.740
57206W        W30274   3.444  35.013   2.740
57207W        W30275  39.927  30.534   4.896
57208W        W30276  39.208  34.675   4.500
57209W        W30277  26.200   3.960   2.338
57210W        W30278   6.003   6.241  12.840
57211W        W30279  37.980  35.927  12.626
57212W        W30280  30.523  34.535  14.215
57213W        W30281   6.801  26.288   3.516
57214W        W30282  31.683  44.904  13.323
57215W        W30283  36.212  33.375   3.888
57216W        W30284  16.525  29.149   1.941
57217W        W30285  43.365  24.139  12.835
57218W        W30286  38.667  18.783   3.243
57219W        W30287   8.115  26.469   4.564
57220W        W30288   4.479  39.909   3.262
57221W        W30289  31.000  43.796   3.254
57222W        W30290  20.213   2.925  13.106
57223W        W30291  21.600   6.231   2.334
57224W        W30292  18.070  14.783  14.120
57225W        W30293  11.606  21.413   4.637
57226W        W30294  42.282  28.713   0.462
57227W        W30295   9.196  37.320   0.826
57228W        W30296  21.147  40.969  12.905
57229W        W30297  16.473  24.652  11.606
57230W        W30298  43.544  23.102  12.012
57231W        W30299  36.473  34.608  11.481
57232W        W30300  41.298  18.213   4.171
57233W        W30301  21.423  13.728   1.358
57234W        W30302   9.447  44.826   3.484
57235W        W30303  14.736  28.603  13.940
57236W        W30304  42.222   4.143   0.344
57237W        W30305  21.715  22.801   2.784
57238W        W30306   8.473  25.697   1.403
57239W        W30307  19.345  37.088  11.618
57240W        W30308  27.946  19.887   2.636
57241W        W30309  29.404  11.685   3.563
57242W        W30310  25.267  36.019   4.632
57243W        W30311   7.239   9.822  12.247
57244W        W30312  19.596  35.615  14.572
57245W        W30313  22.651   1.407  12.401
57246W        W30314  39.233  36.555  14.911
57247W        W30315  35.813  44.503  12.015
57248W        W30316  11.837  18.495  14.798
57249W        W30317  38.030  10.513   4.709
57250W        W30318  12.920   5.875   3.751
57251W        W30319  10.710  14.184  14.484
57252W        W30320  36.490   9.800   1.552
57253W        W30321  30.910   9.828  11.479
57254W        W30322   8.622   1.243  11.094
57255W        W30323  20.074  10.720   4.645
57256W        W30324  43.063  39.908   0.348
57257W        W30325   3.847  12.112  12.726
57258W        W30326  15.110  33.517   4.034
57259W        W30327   3.815   5.017  11.464
57260W        W30328   0.554  40.600  13.539
57261W        W30329  26.615   5.820   2.160
57262W        W30330  25.177  35.586   1.266
57263W        W30331   8.658  23.403   4.394
57264W        W30332   2.843  39.623  11.215
57265W        W30333  33.146   6.886  10.648
57266W        W30334  43.483  42.455   4.429
57267W        W30335  33.442  37.372  12.453
57268W        W30336  43.286  35.035   1.797
57269W        W30337  38.812  27.072   3.225
57270W        W30338  36.867  35.519   4.255
57271W        W30339  40.904  32.953   2.995
57272W        W30340   1.731   5.868   2.256
57273W        W30341  32.529  32.794  13.503
57274W        W30342  13.034  20.753   0.377
57275W        W30343  13.947   2.542  12.035
57276W        W30344  24.476   7.502  10.513
57277W        W30345  27.744  23.115   4.963
57278W        W30346  37.269  26.049  13.371
57279W        W30347  10.352  43.843   4.674
57280W        W30348   8.926  13.211   2.303
57281W        W30349  42.769  12.430  10.656
57282W        W30350  32.114   8.325  10.572
57283W        W30351  20.280  42.301   4.508
57284W        W30352   2.501  43.089  10.339
57285W        W30353  11.404   0.437  12.954
57286W        W30354  25.604  15.112  14.006
57287W        W30355  44.805   4.496  13.522
57288W        W30356  34.915  25.328   2.473
57289W        W30357  21.626  32.609  14.836
57290W        W30358  37.055  10.726   0.109
57291W        W30359  42.126   0.426   3.698
57292W        W30360  12.762  42.251   4.459
57293W        W30361  27.902  39.276   0.731
57294W        W30362  30.029  23.328   2.420
57295W        W30363   4.331  23.974   3.758
57296W        W30364   4.157   6.251   4.441
57297W        W30365  19.552  43.205  14.376
57298W        W30366  43.921  40.575   0.132
57299W        W30367  10.784  28.772  14.584
57300W        W30368  11.079  42.132   2.633
57301W        W30369  16.094   3.673   4.947
57302W        W30370  29.959   4.488   0.926
57303W        W30371   2.020  36.374  13.979
57304W        W30372  36.983  17.077  13.825
57305W        W30373  30.147  13.478  11.960
57306W        W30374   9.708   0.050  11.459
57307W        W30375  36.070  34.176  10.724
57308W        W30376   3.721  24.671   1.059
57309W        W30377  16.187  24.125   3.462
57310W        W30378  15.373  20.707  11.494
57311W        W30379  44.614  44.015   4.222
57312W        W30380  27.455  19.222  11.346
57313W        W30381  29.021  34.533   4.495
57314W        W30382  28.377  22.813  12.137
57315W        W30383  40.532  44.159   4.016
57316W        W30384  28.935  34.096   2.126
57317W        W30385   2.954  14.334   3.703
57318W        W30386  38.861  22.310   2.853
57319W        W30387  24.708  16.056   4.716
57320W        W30388  25.698   3.996  12.888
57321W        W30389   8.235  23.624   4.614
57322W        W30390  35.329  34.525  12.378
57323W        W30391  20.676  38.434  13.499
57324W        W30392   3.682  13.943  10.525
57325W        W30393  40.407  35.540   2.315
57326W        W30394  31.370  11.109   4.154
57327W        W30395   6.229  25.045  11.623
57328W        W30396   0.395  40.413  13.060
57329W        W30397  42.727  17.387   2.024
57330W        W30398   4.937   0.550  10.630
57331W        W30399  23.809  18.818  10.601
57332W        W30400  43.247  37.483  11.920
57333W        W30401  36.453  36.540  11.309
57334W        W30402  39.921  34.157   1.757
57335W        W30403  44.266  42.659  12.141
57336W        W30404  31.108  12.315   4.917
57337W        W30405  42.462  39.949  11.017
57338W        W30406  43.221   8.143   2.190
57339W        W30407   8.186  10.612  10.623
57340W        W30408  33.164  28.615  12.599
57341W        W30409   7.644   5.090   0.489
57342W        W30410  30.829   9.461  13.690
57343W        W30411   6.639  12.818   4.557
57344W        W30412  12.756   2.249  14.028
57345W        W30413  32.148  39.283   1.190
57346W        W30414   3.226  22.222   0.963
57347W        W30415  25.454  15.312   4.453
57348W        W30416  30.904  11.087  11.978
57349W        W30417  33.762  43.369  11.227
57350W        W30418  28.099  22.974   4.240
57351W        W30419  28.901  42.912   4.715
57352W        W30420   4.821  39.118   0.630
57353W        W30421   3.305  32.067  11.595
57354W        W30422  12.255  34.941   3.656
57355W        W30423  28.101  32.938   2.277
57356W        W30424  18.635   7.517   3.779
57357W        W30425  21.825  40.342   3.683
57358W        W30426  16.849  35.854   0.300
57359W        W30427  12.117  19.127   1.807
57360W        W30428  35.617  15.186  11.177
57361W        W30429  16.855  19.803  13.509
57362W        W30430  28.360  43.722   4.188
57363W        W30431  23.356  32.635   0.289
57364W        W30432  28.856  20.565   2.952
57365W        W30433  17.475  12.228  14.717
57366W        W30434  36.937   7.240  11.985
57367W        W30435   7.221  11.417   2.463
57368W        W30436  32.034  23.209  12.421
57369W        W30437  16.196  29.557  12.840
57370W        W30438   4.825   3.137  11.462
57371W        W30439  37.027  42.959   4.133
57372W        W30440   5.671   8.120   3.921
57373W        W30441  11.584   5.813  11.559
57374W        W30442  43.079  32.988  13.890
57375W        W30443  39.488  31.766   0.761
57376W        W30444  38.327   0.073  13.775
57377W        W30445  25.524  27.831  11.830
57378W        W30446  28.215  18.423   2.927
57379W        W30447  16.354  30.469   0.393
57380W        W30448  39.319  30.482  12.109
57381W        W30449   3.513   0.370   2.198
57382W        W30450  12.571  31.132  12.003
57383W        W30451  12.847  11.843  14.798
57384W        W30452  13.431  18.787   0.427
57385W        W30453  31.456  42.070   3.264
57386W        W30454  13.074  33.052  11.490
57387W        W30455  29.364   8.132  12.041
57388W        W30456   0.427  19.026   1.315
57389W        W30457  43.494  12.091  13.054
57390W        W30458  31.390  40.030  14.890
57391W        W30459  12.576   4.222  12.851
57392W        W30460  31.479  13.378   3.670
57393W        W30461   3.209  17.289   4.563
57394W        W30462  25.530  33.082  14.851
57395W        W30463  37.591  17.213   1.344
57396W        W30464   2.430  28.157   1.281
57397W        W30465   7.324  14.822   0.384
57398W        W30466  39.384  28.851   3.758
57399W        W30467  35.360  33.630   4.995
57400W        W30468   9.711  11.282  14.320
57401W        W30469  10.189  13.400   4.715
57402W        W30470  40.298   7.114   2.261
57403W        W30471  44.350   2.464  11.527
57404W        W30472  23.568   8.710  13.619
57405W        W30473  21.283  33.443   4.051
57406W        W30474  33.071  29.056   2.917
57407W        W30475  24.141  35.564   1.198
57408W        W30476  36.831   9.768   3.219
57409W        W30477  19.123   9.982   1.211
57410W        W30478  24.093   4.866   1.184
57411W        W30479  24.498  27.047  12.549
57412W        W30480  28.866  24.473   3.218
57413W        W30481   7.037  40.904  14.801
57414W        W30482  23.039  24.554   3.244
57415W        W30483   8.346  13.705  13.935
57416W        W30484  44.228  17.743  10.969
57417W        W30485  10.830   3.310  11.487
57418W        W30486  15.125  40.826   0.528
57419W        W30487  15.436  11.661  13.424
57420W        W30488  27.975  18.325  14.458
57421W        W30489  10.758  11.773  11.205
57422W        W30490  12.660  39.089   4.822
57423W        W30491   2.747   0.231  12.206
57424W        W30492   7.955  30.606  13.917
57425W        W30493  36.058   3.445  13.812
57426W        W30494  14.894  10.088   2.303
57427W        W30495  17.286   2.289   2.875
57428W        W30496  17.023  16.776  11.621
57429W        W30497  41.539  38.221   2.798
57430W        W30498  36.824   6.236  12.782
57431W        W30499  39.368   9.914  10.687
57432W        W30500  19.453   4.345  14.901
57433W        W30501   0.025  12.676   0.194
57434W        W30502  24.653  40.476   2.315
57435W        W30503  22.947   4.417   2.819
57436W        W30504  32.655  32.283   3.612
57437W        W30505  15.661   9.878   2.245
57438W        W30506   5.257  20.069   0.624
57439W        W30507   3.962   9.673   0.595
57440W        W30508  18.611   1.860  12.433
57441W        W30509  36.207   4.784   5.060
57442W        W30510  39.997   8.935   4.110
57443W        W30511  24.176  12.727   0.583
57444W        W30512  31.151  35.417   4.693
57445W        W30513  31.085  22.132   3.160
57446W        W30514  22.569  30.572   3.700
57447W        W30515  30.141  14.872  13.425
57448W        W30516  12.900  12.756   0.781
57449W        W30517   5.650  22.789   2.232
57450W        W30518  24.736   0.921  14.531
57451W        W30519   9.669  11.365   1.933
57452W        W30520  12.806  42.919   0.502
57453W        W30521  17.170  33.562   4.111
57454W        W30522  15.372  38.769  12.579
57455W        W30523  16.765  16.645  11.021
57456W        W30524  23.015  11.811  13.846
57457W        W30525  25.136  37.998  12.920
57458W        W30526  33.229  18.223  11.396
57459W        W30527  10.696  23.685   0.250
57460W        W30528  44.408  20.748   1.860
57461W        W30529  30.469  17.709  14.874
57462W        W30530  36.109  11.797   4.584
57463W        W30531  40.756  15.866   2.113
57464W        W30532  42.105  29.526  11.951
57465W        W30533  41.532  21.541   4.590
57466W        W30534  42.543  16.561  11.462
57467W        W30535  38.349  35.105   1.977
57468W        W30536   3.238  28.498   1.989
57469W        W30537  16.600   6.362  11.161
57470W        W30538  24.158  24.619  10.769
57471W        W30539  30.879  43.943   3.759
57472W        W30540  28.755  28.617   4.298
57473W        W30541  19.557   8.471  12.904
57474W        W30542  29.170  34.304  13.766
57475W        W30543   7.050  40.297  10.388
57476W        W30544  20.137  43.468  10.353
57477W        W30545  26.650  41.064  13.926
57478W        W30546  20.999   5.374   2.120
57479W        W30547  30.982  40.581  12.593
57480W        W30548  12.041  35.115   2.650
57481W        W30549  38.521   0.231  11.450
57482W        W30550   9.706  33.383   1.311
57483W        W30551   8.931  39.549   2.417
57484W        W30552   9.368  23.588  10.711
57485W        W30553  38.162  18.312  12.807
57486W        W30554  27.825  10.274  13.761
57487W        W30555  15.364   0.755   2.426
57488W        W30556  35.868  11.082  12.325
57489W        W30557   6.422  35.422   1.786
57490W        W30558  28.201  36.046  10.007
57491W        W30559  12.913  11.210  13.605
57492W        W30560  44.684  35.653   1.039
57493W        W30561  22.563  21.951   1.413
57494W        W30562  11.367  13.868  13.038
57495W        W30563  38.146   1.443  14.275
57496W        W30564  19.673  43.777  11.216
57497W        W30565  32.907  16.210   4.655
57498W        W30566   1.459  14.604   1.802
57499W        W30567  41.123   2.925   3.908
57500W        W30568  44.184   0.882  11.650
57501W        W30569  43.063  25.042  14.208
57502W        W30570  19.616  44.784   1.781
57503W        W30571  13.641  23.491  14.714
57504W        W30572  29.046  44.820  14.035
57505W        W30573  41.911  34.873   0.897
57506W        W30574  43.651  23.089  14.935
57507W        W30575  36.212  24.102   2.275
57508W        W30576  13.157   2.373   3.718
57509W        W30577  15.390  23.891   3.282
57510W        W30578  24.524  42.692   3.568
57511W        W30579  14.206  31.700  13.385
57512W        W30580  28.480  19.088  11.553
57513W        W30581  13.466   0.201  11.109
57514W        W30582  44.429  38.822  13.291
57515W        W30583  27.479  24.529  14.815
57516W        W30584  38.815   2.220   4.089
57517W        W30585  40.079  38.606   1.335
57518W        W30586  42.469  18.375   1.864
57519W        W30587  22.177  40.953   0.467
57520W        W30588  13.388  31.069   0.847
57521W        W30589  25.945  35.395  13.862
57522W        W30590  30.074  17.948   1.010
57523W        W30591  14.355   4.945  12.654
57524W        W30592  44.469  12.054  11.138
57525W        W30593  25.588  25.220   4.576
57526W        W30594   3.401  32.514  10.360
57527W        W30595  15.058   4.804   1.000
57528W        W30596  29.661  40.862   0.873
57529W        W30597   3.411  34.394   1.441
57530W        W30598  17.442  43.577   2.823
57531W        W30599  15.348   7.419  12.006
57532W        W30600  36.307  13.627   3.720
57533W        W30601  21.782  13.593   2.233
57534W        W30602  37.206  24.798   1.792
57535W        W30603  44.922  44.840   0.110
57536W        W30604  26.909   0.275   3.267
57537W        W30605   6.642  44.596  13.790
57538W        W30606  13.061  25.633  14.352
57539W        W30607  35.518  12.303  10.675
57540W        W30608  21.533  39.422  10.465
57541W        W30609  24.001  21.549  10.531
57542W        W30610  27.989  14.717  14.919
57543W        W30611  37.894  12.902  14.012
57544W        W30612  30.709  17.748   1.280
57545W        W30613   2.466  14.320  12.523
57546W        W30614  10.368  14.694   5.100
57547W        W30615   8.765  24.872  14.044
57548W        W30616   6.359  27.246  11.151
57549W        W30617  22.072  12.380  14.908
57550W        W30618   6.916  32.420  14.363
57551W        W30619  13.817   5.295  13.455
57552W        W30620  39.213  36.040  14.788
57553W        W30621  34.791   2.021  14.790
57554W        W30622  25.157  31.697   0.054
57555W        W30623  26.092  12.459  14.896
57556W        W30624  40.583  41.815   3.517
57557W        W30625  28.179  28.990   2.548
57558W        W30626  27.891  24.013  14.055
57559W        W30627   4.872   5.078   0.902
57560W        W30628   2.253   9.235  12.202
57561W        W30629  17.558  38.328  11.027
57562W        W30630  20.082  29.898  10.653
57563W        W30631  39.036  35.068  11.130
57564W        W30632  30.949  41.427  11.651
57565W        W30633  31.505   0.775  13.270
57566W        W30634  31.835  37.276   1.902
57567W        W30635  32.307  38.862   0.917
57568W        W30636  19.092  43.451   1.262
57569W        W30637  16.113  19.729  13.874
57570W        W30638  11.775  13.533  10.072
57571W        W30639  19.756  38.898   0.377
57572W        W30640  19.015  36.348  10.980
57573W        W30641  40.376  13.671  13.801
57574W        W30642  18.173   0.006  10.702
57575W        W30643   3.571   4.182  11.922
57576W        W30644  34.128  20.184   0.980
57577W        W30645  18.215  35.414   4.092
57578W        W30646  27.084   0.559  10.780
57579W        W30647  32.856  30.031   0.917
57580W        W30648  39.245  28.895   0.725
57581W        W30649  37.002  29.499   3.742
57582W        W30650  21.161  10.750   1.962
57583W        W30651  35.342   5.728   3.823
57584W        W30652  24.773  19.158  14.363
57585W        W30653   3.917  13.408   2.857
57586W        W30654   3.351   9.553  13.516
57587W        W30655  42.717  13.688   0.356
57588W        W30656  20.714   9.682  11.064
57589W        W30657  26.384  27.566   1.839
57590W        W30658  42.728   1.711  11.090
57591W        W30659  35.316   8.045  14.270
57592W        W30660   5.393  30.855   0.274
57593W        W30661  11.351  12.185   2.174
57594W        W30662  12.305  21.724   1.074
57595W        W30663  43.811   4.670   2.259
57596W        W30664  16.709  42.014   0.904
57597W        W30665   8.929   7.865   0.504
57598W        W30666  25.752  21.685  13.974
57599W        W30667  13.532  20.488   0.959
57600W        W30668  43.809  30.336   3.112
57601W        W30669  29.598  28.165  14.770
57602W        W30670   6.264  13.711   2.430
57603W        W30671  20.999  27.110   3.218
57604W        W30672  43.075  12.708  10.286
57605W        W30673   5.933  23.141  11.571
57606W        W30674  40.058  36.541   0.568
57607W        W30675  35.634  16.191   3.869
57608W        W30676  40.786   5.096  12.089
57609W        W30677  10.916  10.114   4.654
57610W        W30678  10.349  36.721   4.081
57611W        W30679  11.214  44.769  10.547
57612W        W30680  29.126   5.364   1.192
57613W        W30681  11.732  37.095   4.661
57614W        W30682  42.623   2.239   2.231
57615W        W30683  18.651   7.878  11.938
57616W        W30684  37.281   3.951   4.524
57617W        W30685   8.461  44.330  11.686
57618W        W30686  13.612   8.829   2.305
57619W        W30687   9.251  12.642  10.299
57620W        W30688   1.471  39.008  11.601
57621W        W30689  37.912  20.246   1.917
57622W        W30690  37.902   4.495   1.271
57623W        W30691   3.922  39.805  13.007
57624W        W30692   0.327  36.052  10.499
57625W        W30693  19.243   9.785  10.569
57626W        W30694  31.912  10.747   0.909
57627W        W30695   5.835   8.883   2.385
57628W        W30696  24.588   0.812   4.295
57629W        W30697   0.188   9.885   1.743
57630W        W30698  27.420  37.280  11.174
57631W        W30699  30.132  24.441   3.647
57632W        W30700   2.493  23.997  14.395
57633W        W30701  43.231  15.603  10.969
57634W        W30702  35.530  32.093  13.571
57635W        W30703  25.986  22.543   4.071
57636W        W30704   1.299  23.038  10.646
57637W        W30705  25.906   0.253  14.345
57638W        W30706  22.175   0.643   4.260
57639W        W30707  14.837   9.076   0.897
57640W        W30708  18.374  15.891  11.136
57641W        W30709  38.127  41.530  11.590
57642W        W30710   6.428  14.710  11.107
57643W        W30711  33.070  36.723   4.553
57644W        W30712  38.991  19.617   2.771
57645W        W30713   6.238   3.069  11.994
57646W        W30714  15.178  31.315   2.722
57647W        W30715  16.141  26.685   2.224
57648W        W30716  29.937  44.903   1.694
57649W        W30717  29.317  11.824  10.675
57650W        W30718  23.875  27.258   3.659
57651W        W30719  14.743   5.766   2.731
57652W        W30720   4.841  35.925  14.441
57653W        W30721  22.749  43.829  14.341
57654W        W30722  29.236  34.443  12.204
57655W        W30723  37.069  25.772  12.984
57656W        W30724  13.635  10.507   4.057
57657W        W30725   1.404  34.045  13.589
57658W        W30726  36.032  22.271   3.749
57659W        W30727  23.253  38.382   4.669
57660W        W30728  28.184   8.571  14.756
57661W        W30729   4.116   8.712  11.118
57662W        W30730  10.879  33.252  12.907
57663W        W30731  22.012  26.732   3.053
57664W        W30732  43.036  31.361   0.779
57665W        W30733   5.251  15.771   3.751
57666W        W30734  29.131  12.025   4.746
57667W        W30735  42.393   5.972   0.061
57668W        W30736   6.499  15.218   9.911
57669W        W30737  27.162  38.059   1.570
57670W        W30738  32.038  25.827  14.384
57671W        W30739  14.693  10.601  11.702
57672W        W30740   4.773  27.111  10.103
57673W        W30741  28.919  19.243  12.773
57674W        W30742  44.209  21.126   1.425
57675W        W30743  28.522  33.957   0.433
57676W        W30744  16.658  21.134   4.442
57677W        W30745  16.711  30.610   1.403
57678W        W30746  34.840  11.463  14.963
57679W        W30747   7.421  22.747  13.535
57680W        W30748  17.813  34.864   3.680
57681W        W30749  19.125  33.337  10.852
57682W        W30750  20.619  15.365   2.317
57683W        W30751  27.071  22.392   0.714
57684W        W30752  42.840   0.973   4.734
57685W        W30753   0.858   4.857  13.425
57686W        W30754  30.467  39.293  14.482
57687W        W30755   1.231  21.126  12.777
57688W        W30756  42.731  18.227   2.385
57689W        W30757   9.756  40.343   5.041
57690W        W30758   5.282  24.602   1.733
57691W        W30759  34.985  13.871  11.574
57692W        W30760  36.526   2.697  11.459
57693W        W30761  11.792   6.778   4.879
57694W        W30762  42.791  23.066  14.464
57695W        W30763   2.697  17.114   4.588
57696W        W30764  25.979   8.265  12.771
57697W        W30765  28.237  39.279  12.843
57698W        W30766  13.077  16.545   3.126
57699W        W30767   7.617  36.919  10.677
57700W        W30768   5.646  26.208  11.203
57701W        W30769   9.755  13.583  13.967
57702W        W30770  31.133  25.523  13.288
57703W        W30771  28.068   8.291  12.099
57704W        W30772  34.102  13.095   1.757
57705W        W30773  42.238  22.586   4.100
57706W        W30774  34.278   3.903   3.575
57707W        W30775  33.508  30.907   3.681
57708W        W30776   4.281  20.082  12.972
57709W        W30777  23.291  27.189   0.111
57710W        W30778  33.431  41.099  10.989
57711W        W30779   1.438  18.800  10.639
57712W        W30780  18.335  12.359  14.021
57713W        W30781   1.802  32.125   4.278
57714W        W30782   5.110  23.558  14.111
57715W        W30783  29.412  18.571  12.863
57716W        W30784   8.374  40.024   0.344
57717W        W30785  29.992   7.099   4.075
57718W        W30786   2.889  37.353  10.871
57719W        W30787  13.756  44.423   1.882
57720W        W30788  44.959   0.997  11.015
57721W        W30789  20.134  31.969   4.325
57722W        W30790   4.981  24.617  11.507
57723W        W30791   8.123  13.701  12.372
57724W        W30792  23.714   4.535   0.284
57725W        W30793  31.329   8.143  14.348
57726W        W30794  29.483  19.632  10.763
57727W        W30795  29.059  13.660  12.847
57728W        W30796  44.317  20.012   4.952
57729W        W30797  17.853   8.087  13.489
57730W        W30798  42.925  17.539  11.668
57731W        W30799  15.708   1.344   0.310
57732W        W30800  42.245  41.438   2.751
57733W        W30801   5.659  44.380  13.778
57734W        W30802  42.775  32.594  14.923
57735W        W30803  36.819   5.630   0.274
57736W        W30804  36.944  17.877   0.608
57737W        W30805   3.739  19.370  11.458
57738W        W30806  12.047  18.701   2.460
57739W        W30807   3.433  21.440   3.609
57740W        W30808   0.701  37.631   4.549
57741W        W30809   4.255  11.184   2.827
57742W        W30810  20.272   4.445   3.295
57743W        W30811  42.841  14.277  12.685
57744W        W30812  35.082  36.568  11.555
57745W        W30813   7.020   8.818   2.613
57746W        W30814  44.308  25.413   1.496
57747W        W30815   9.416  22.906  13.874
57748W        W30816  43.268  38.970   3.844
57749W        W30817  17.543  19.651   0.245
57750W        W30818  21.084  10.446  10.941
57751W        W30819  18.673  13.038   0.780
57752W        W30820  44.544  16.720  12.918
57753W        W30821  23.720   6.794  14.865
57754W        W30822  13.319  40.047   3.612
57755W        W30823   8.695  34.005   4.233
57756W        W30824  28.930  29.959   3.603
57757W        W30825  22.629   7.415   0.323
57758W        W30826  15.337  25.178  12.766
57759W        W30827  27.232   2.763  10.364
57760W        W30828  22.225  10.527   0.835
57761W        W30829  43.599   2.887  11.995
57762W        W30830  44.850  35.606  10.939
57763W        W30831  20.759  25.041   2.202
57764W        W30832  31.087  41.452   4.571
57765W        W30833   2.501  26.608   3.219
57766W        W30834  34.882  31.353   0.290
57767W        W30835  27.201  36.133   5.045
57768W        W30836   7.425  37.562  10.603
57769W        W30837  23.881  20.999   4.964
57770W        W30838  26.648   8.557   2.288
57771W        W30839   2.870  32.118   0.398
57772W        W30840  41.046  44.557   3.418
57773W        W30841  10.260  27.688   1.881
57774W        W30842   9.755  22.127  11.402
57775W        W30843  17.663  39.952   3.610
57776W        W30844   7.673   3.440  12.198
57777W        W30845  23.004  12.225  12.211
57778W        W30846   4.721  41.340   0.715
57779W        W30847  29.086  33.635   3.466
57780W        W30848  31.502   3.446  10.603
57781W        W30849  24.676  37.149   2.659
57782W        W30850   0.903  21.061  13.457
57783W        W30851  30.100  30.530  13.552
57784W        W30852  32.636  37.047  12.435
57785W        W30853  17.800  12.106  13.242
57786W        W30854  22.170  12.352  11.552
57787W        W30855  26.616   3.636  14.460
57788W        W30856  33.882  14.063  11.994
57789W        W30857  12.438  17.266   1.420
57790W        W30858  30.125  21.560   0.560
57791W        W30859  26.534   1.134   4.126
57792W        W30860   1.524  35.512  14.336
57793W        W30861  38.197  35.058   2.479
57794W        W30862  27.176   9.896  13.126
57795W        W30863  18.442  27.481   2.263
57796W        W30864  24.266  27.642   0.365
57797W        W30865  35.064  16.286   2.210
57798W        W30866   9.214  42.998  13.973
57799W        W30867  43.785  22.108   4.368
57800W        W30868  10.345  38.464   3.714
57801W        W30869  22.980  15.294   1.181
57802W        W30870   7.451  41.241  10.538
57803W        W30871  41.778   3.250  12.196
57804W        W30872  44.712   7.153   0.917
57805W        W30873   2.351   3.670  10.342
57806W        W30874  20.986  40.158   0.268
57807W        W30875   1.920  31.052   2.725
57808W        W30876  25.686  15.868   4.056
57809W        W30877  12.166  14.131   4.235
57810W        W30878   0.473  11.138   4.625
57811W        W30879  31.864  27.874   1.325
57812W        W30880  26.015  32.993  12.935
57813W        W30881  10.897  38.421   4.099
57814W        W30882   6.741  37.586  13.484
57815W        W30883   4.663  16.672   2.771
57816W        W30884  20.449  44.206  13.349
57817W        W30885  40.887  11.209  14.293
57818W        W30886   1.825   2.563  14.223
57819W        W30887  35.924  25.781  10.740
57820W        W30888  16.814  31.943  13.361
57821W        W30889  14.418  33.803  13.946
57822W        W30890  31.175  44.819  12.111
57823W        W30891  40.499  33.540  10.787
57824W        W30892   5.728  27.649  13.837
57825W        W30893  44.002  19.562   1.893
57826W        W30894  11.781  41.726  12.560
57827W        W30895  37.836  16.533  12.882
57828W        W30896   9.397   5.800   0.940
57829W        W30897  42.987   3.413   2.586
57830W        W30898  32.418  20.644   3.668
57831W        W30899  16.049  21.631  12.449
57832W        W30900   6.127  14.233  14.340
57833W        W30901  20.819  23.070   1.885
57834W        W30902  22.091  17.346  14.390
57835W        W30903  19.032  32.392  10.387
57836W        W30904   0.631  33.670  14.205
57837W        W30905   3.734  23.430   3.455
57838W        W30906  35.888  17.562  13.578
57839W        W30907  27.533  15.316   3.101
57840W        W30908  18.791  25.516  14.877
57841W        W30909  24.973  14.634   0.970
57842W        W30910  18.020  10.856  13.727
57843W        W30911  24.968   6.872   4.516
57844W        W30912  26.885  44.817   0.753
57845W        W30913   0.142  11.130  11.631
57846W        W30914  44.925  42.190   1.464
57847W        W30915  26.474   4.171   0.084
57848W        W30916  34.476  24.026  11.034
57849W        W30917  35.241   5.457  14.914
57850W        W30918  20.790  26.035   1.844
57851W        W30919  23.709   5.257   0.989
57852W        W30920  12.102  28.529  12.468
57853W        W30921  20.029  38.582   2.226
57854W        W30922  25.187  15.015   1.265
57855W        W30923  38.748  12.372   3.580
57856W        W30924  40.114  41.931  14.274
57857W        W30925   7.360  18.133  12.531
57858W        W30926  35.632   3.052  14.460
57859W        W30927  28.540  15.136  12.231
57860W        W30928  34.330  25.915  14.819
57861W        W30929   2.816  25.160   1.440
57862W        W30930  25.496  38.945  13.807
57863W        W30931  22.755  36.929   4.114
57864W        W30932  12.783   8.406  14.968
57865W        W30933  28.274   3.572   0.440
57866W        W30934  18.728  23.243   3.560
57867W        W30935   1.350  36.315   0.592
57868W        W30936  30.150  41.304   1.373
57869W        W30937  42.280   7.705  14.035
57870W        W30938  38.884  11.021   2.197
57871W        W30939   8.471   0.711  11.428
57872W        W30940  24.154  39.836   3.227
57873W        W30941  42.829  25.328   4.490
57874W        W30942  20.270  33.630   2.349
57875W        W30943  31.702  40.785   4.110
57876W        W30944  12.617  21.961   2.786
57877W        W30945  42.958  34.527   0.357
57878W        W30946   7.449  27.409  13.620
57879W        W30947   5.409  25.733  14.442
57880W        W30948  23.550  12.344   0.594
57881W        W30949  43.876  43.549   1.936
57882W        W30950  27.127  27.203   3.317
57883W        W30951   7.905  35.175  14.820
57884W        W30952  20.832  22.976  13.479
57885W        W30953  19.500  37.363   0.533
57886W        W30954  13.033  40.361  11.757
57887W        W30955  14.901  22.252  12.889
57888W        W30956   5.796   5.211  13.806
57889W        W30957  20.414  40.439  14.827
57890W        W30958   7.231  34.510   1.472
57891W        W30959  38.564  15.051   2.024
57892W        W30960  32.848  14.584   5.008
57893W        W30961  27.988  28.489  10.310
57894W        W30962  22.513  34.927  14.846
57895W        W30963  36.870   7.563   2.362
57896W        W30964  34.134  16.715   3.601
57897W        W30965  12.901  14.024   3.629
57898W        W30966   8.787   3.769  11.862
57899W        W30967  16.553  40.087  14.919
57900W        W30968  24.187  13.336   3.532
57901W        W30969  11.439  20.302   5.009
57902W        W30970  36.582   7.325  10.318
57903W        W30971  11.786  20.605   3.252
57904W        W30972  35.516  35.598   2.616
57905W        W30973  42.756  26.562   1.766
57906W        W30974  18.674  27.643  14.279
57907W        W30975   2.802  24.893  14.250
57908W        W30976   0.164  39.299   4.882
57909W        W30977  40.642  41.968  14.204
57910W        W30978  40.593  35.674   3.839
57911W        W30979  26.335  18.674   4.049
57912W        W30980  36.912  24.732   0.469
57913W        W30981   5.202  24.107  12.450
57914W        W30982  10.476  18.469   3.704
57915W        W30983  14.278  37.370   1.937
57916W        W30984  17.704   1.239   3.159
57917W        W30985  20.725   7.274  12.466
57918W        W30986   2.848  23.099   0.004
57919W        W30987  20.110   6.913  10.593
57920W        W30988  21.601  10.270  12.567
57921W        W30989  39.652  24.699  13.967
57922W        W30990  24.268  31.274  11.151
57923W        W30991  18.233  29.929   3.142
57924W        W30992  34.076  18.203   3.369
57925W        W30993  32.524  35.896   1.647
57926W        W30994   5.735  39.004  13.453
57927W        W30995  41.808  43.483  10.638
57928W        W30996   8.181   3.451   4.073
57929W        W30997  17.944  35.915  11.972
57930W        W30998  29.606  14.874   2.856
57931W        W30999   0.881  33.905   2.359
57932W        W31000  29.639  39.892   0.816
57933W        W31001  26.605  44.394   3.317
57934W        W31002  34.906  41.556  11.810
57935W        W31003  29.543  38.395  14.576
57936W        W31004   1.495  18.340   1.929
57937W        W31005   7.027  15.364  11.332
57938W        W31006  18.283  44.458   1.149
57939W        W31007  25.659  12.202  14.712
57940W        W31008  16.628  42.424  11.941
57941W        W31009  14.596   7.664  13.850
57942W        W31010  35.511  25.584  11.581
57943W        W31011   6.671  32.483  14.942
57944W        W31012  18.636  34.594   4.216
57945W        W31013  12.635  25.731  12.574
57946W        W31014   4.336  18.641   3.814
57947W        W31015   9.139   9.717   1.173
57948W        W31016  19.001  12.207   0.739
57949W        W31017  28.829  18.324   0.039
57950W        W31018   4.132  43.955   3.335
57951W        W31019  23.416  13.701   4.546
57952W        W31020  12.226   0.225  10.665
57953W        W31021  31.812  21.533  11.926
57954W        W31022  29.413  42.484  12.929
57955W        W31023  32.088   8.759  11.601
57956W        W31024  12.336  15.997   3.273
57957W        W31025  12.376  23.221   3.166
57958W        W31026  21.222  41.963  11.092
57959W        W31027  21.327  40.075  10.253
57960W        W31028  26.153  27.683  13.449
57961W        W31029  16.683   6.957   4.454
57962W        W31030  21.117  21.014  13.449
57963W        W31031  34.629  24.505   0.693
57964W        W31032  17.581  30.002  14.797
57965W        W31033  14.337   0.819   2.381
57966W        W31034  27.209  39.464   2.903
57967W        W31035   9.752  11.786  13.552
57968W        W31036   8.921  28.168  12.001
57969W        W31037   1.243   1.498   2.867
57970W        W31038  32.899  25.031   0.784
57971W        W31039  26.681  40.818   3.136
57972W        W31040  14.293   3.213   3.238
57973W        W31041  22.331  33.416   0.301
57974W        W31042  33.570   5.969   3.418
57975W        W31043  36.526   3.338   0.984
57976W        W31044   8.739  10.846  14.966
57977W        W31045  11.912  28.472   0.751
57978W        W31046   9.118  42.953   1.213
57979W        W31047  44.761  38.017  10.522
57980W        W31048  21.299  20.728  11.132
57981W        W31049  31.675  38.968   0.482
57982W        W31050  16.664  43.481  10.637
57983W        W31051  33.046  19.092   1.928
57984W        W31052  21.589  19.786   2.276
57985W        W31053  36.059  27.868   3.738
57986W        W31054  32.422  26.000   3.585
57987W        W31055   7.051  41.057   2.507
57988W        W31056  33.186   3.630   0.028
57989W        W31057  36.806   8.116  11.728
57990W        W31058   4.983  42.081  11.514
57991W        W31059  29.113  18.004   3.895
57992W        W31060   3.101  42.446  13.049
57993W        W31061  16.033  22.354   1.150
57994W        W31062  27.179  17.175  11.686
57995W        W31063   2.958   3.197   2.203
57996W        W31064  20.814  37.413  11.710
57997W        W31065  31.023  17.514   5.180
57998W        W31066  26.466  21.425  14.747
57999W        W31067  25.150  33.375   4.378
58000W        W31068  32.342   6.683   2.377
58001W        W31069  30.533   5.482   4.323
58002W        W31070  27.965  10.388   3.756
58003W        W31071   8.218   7.734   3.196
58004W        W31072   9.057  33.542   1.951
58005W        W31073  41.547  38.000  10.606
58006W        W31074  25.178  38.128  10.194
58007W        W31075   6.679  35.120  10.830
58008W        W31076  28.065   0.201  10.651
58009W        W31077  38.959   6.976  10.408
58010W        W31078   9.626  27.025   1.497
58011W        W31079  29.621   4.016   0.236
58012W        W31080  20.074  41.485  13.969
58013W        W31081  23.139  31.435   1.128
58014W        W31082  33.450   4.267   3.791
58015W        W31083  37.036  44.538  13.831
58016W        W31084  11.763  26.462   1.664
58017W        W31085  16.685  20.648   4.215
58018W        W31086  44.853  11.681   3.163
58019W        W31087  30.699  17.554   3.066
58020W        W31088  26.213  17.207   1.243
58021W        W31089  38.312  10.678  11.527
58022W        W31090   1.391  20.310  14.350
58023W        W31091  26.461  26.578   3.223
58024W        W31092  35.572   4.237  12.554
58025W        W31093   6.452  43.489   2.309
58026W        W31094  19.723  25.697  13.362
58027W        W31095   5.418  17.974   0.851
58028W        W31096  37.843  41.852   4.853
58029W        W31097  41.740  13.379   0.221
58030W        W31098   3.256  13.192   0.843
58031W        W31099  33.060   3.939   0.959
58032W        W31100  12.756  12.121  12.005
58033W        W31101  18.817  27.545   1.319
58034W        W31102  40.559  39.777   0.272
58035W        W31103  12.346  29.371  13.744
58036W        W31104  37.595  27.329  12.218
58037W        W31105  40.351  33.456  12.485
58038W        W31106  44.852  23.687  11.389
58039W        W31107  21.600  20.107  12.124
58040W        W31108  26.682  12.620   5.730
58041W        W31109  12.615  25.283   4.140
58042W        W31110  35.791  21.176  11.212
58043W        W31111  16.582  22.407  10.569
58044W        W31112  21.154  20.506   1.869
58045W        W31113  31.109  19.760  11.073
58046W        W31114   4.926  21.386  11.408
58047W        W31115  17.119  38.190   4.068
58048W        W31116  21.039  43.409   4.575
58049W        W31117  11.882   2.976   2.176
58050W        W31118  22.502   7.671   2.688
58051W        W31119  18.211  16.064   4.343
58052W        W31120   5.767  18.761  12.119
58053W        W31121   6.951  42.160   3.813
58054W        W31122  12.713  11.277  14.095
58055W        W31123  44.349   3.921   4.225
58056W        W31124  40.030  26.970  10.657
58057W        W31125   8.520  33.591   1.972
58058W        W31126  22.666  43.245  11.369
58059W        W31127  16.310   1.315  11.634
58060W        W31128  19.575  28.371   1.360
58061W        W31129   1.181  23.727  13.899
58062W        W31130  22.559  41.251   3.180
58063W        W31131  28.120  27.447  13.469
58064W        W31132   8.336   1.457   3.732
58065W        W31133  30.927  11.083   3.130
58066W        W31134  12.733   7.910   1.737
58067W        W31135  11.208  18.609   3.575
58068W        W31136  43.856  17.546  14.699
58069W        W31137  13.928  23.558   0.984
58070W        W31138  32.128  44.145  13.111
58071W        W31139  35.037  23.273  11.209
58072W        W31140   6.738  13.927   0.123
58073W        W31141  34.738  19.125   3.326
58074W        W31142   6.301  38.245  12.422
58075W        W31143   4.756  23.217  11.143
58076W        W31144  29.494  11.686  11.553
58077W        W31145  27.549   5.921  12.304
58078W        W31146   4.487   4.473  11.616
58079W        W31147  35.392   7.595   0.436
58080W        W31148   1.830  33.450   1.235
58081W        W31149   9.403  24.804  11.180
58082W        W31150  14.150  34.938   2.294
58083W        W31151   6.700  28.145   2.900
58084W        W31152  12.961  16.792  12.085
58085W        W31153  27.209  26.928   3.768
58086W        W31154  33.342   6.415  11.598
58087W        W31155   0.455  22.145   2.694
58088W        W31156  10.409  15.147   0.827
58089W        W31157  17.016  34.875  12.136
58090W        W31158  43.922  39.605  11.148
58091W        W31159  24.062  22.210   1.286
58092W        W31160  44.009  30.205   0.003
58093W        W31161  33.481  42.307   4.608
58094W        W31162  31.688  34.904  10.555
58095W        W31163  11.109   9.363   2.838
58096W        W31164  12.579  43.616   0.011
58097W        W31165  36.853  23.142   0.701
58098W        W31166  15.231  28.559   3.851
58099W        W31167  41.700   6.735   3.087
58100W        W31168  24.410  30.179  13.418
58101W        W31169   7.715  27.397   4.054
58102W        W31170   3.598   5.969  11.772
58103W        W31171  43.560  37.118  12.060
58104W        W31172   0.242  28.098   1.219
58105W        W31173  33.500   2.264   2.263
58106W        W31174  21.421  33.841   2.498
58107W        W31175   7.126  31.159  12.953
58108W        W31176   7.232  26.175  11.644
58109W        W31177  17.117  41.429   4.487
58110W        W31178   0.702  23.736  12.917
58111W        W31179   9.871  20.097   4.348
58112W        W31180   4.224  12.352  12.996
58113W        W31181  12.182  16.870  12.426
58114W        W31182  31.709  30.549  11.903
58115W        W31183  19.156  33.941   0.509
58116W        W31184  19.510  27.476  10.670
58117W        W31185  22.452  22.535   2.337
58118W        W31186  27.109   3.894  11.725
58119W        W31187  23.911  27.103  12.959
58120W        W31188  34.608  35.515  12.668
58121W        W31189  18.481   3.504   2.316
58122W        W31190   2.804  29.831  14.308
58123W        W31191   1.929  33.787   4.597
58124W        W31192  43.421  27.579   4.528
58125W        W31193   0.430   5.953   3.243
58126W        W31194  35.523  37.397  12.974
58127W        W31195  27.916  19.555   1.322
58128W        W31196  31.002   5.730   4.385
58129W        W31197  22.985  38.358  11.567
58130W        W31198  24.164   7.370   4.194
58131W        W31199  20.143  32.034  12.892
58132W        W31200  29.546  31.372   4.582
58133W        W31201   3.309  34.891  13.889
58134W        W31202  39.070  22.632  12.801
58135W        W31203  31.120  29.974  12.912
58136W        W31204   3.746  29.001  11.481
58137W        W31205  36.569  13.259   1.539
58138W        W31206  32.634   5.012  13.932
58139W        W31207  15.090  36.138  11.313
58140W        W31208  11.025  12.592   2.157
58141W        W31209  14.886  19.666  12.143
58142W        W31210  17.596  38.945  12.616
58143W        W31211  26.849  15.853  12.370
58144W        W31212  40.558  27.068  12.626
58145W        W31213  36.496  39.353  11.155
58146W        W31214  42.939  26.566  13.794
58147W        W31215  19.770  43.814   4.293
58148W        W31216  18.638  27.067  14.086
58149W        W31217  17.053  29.884   1.957
58150W        W31218   0.230   6.468  14.872
58151W        W31219   6.675  20.680  10.717
58152W        W31220  30.231  38.529   4.601
58153W        W31221  20.870   2.885   4.704
58154W        W31222  19.077  29.916  12.389
58155W        W31223  19.344   2.709  14.019
58156W        W31224  16.867  35.920   4.365
58157W        W31225   7.770  15.880  13.135
58158W        W31226  26.399   5.348   2.198
58159W        W31227  12.564  24.661   0.389
58160W        W31228   6.618   4.680   4.445
58161W        W31229  22.619  29.444  12.873
58162W        W31230  13.908  17.529   3.574
58163W        W31231  26.542  32.365   0.243
58164W        W31232  27.691  29.455  11.192
58165W        W31233  28.170  31.411   2.368
58166W        W31234  20.252  22.050  14.455
58167W        W31235   7.194  25.004   3.484
58168W        W31236   2.479  30.130  12.014
58169W        W31237  25.648  11.186  12.517
58170W        W31238  13.637  19.739  14.626
58171W        W31239   1.869  12.169  12.973
58172W        W31240  13.053  17.249  12.866
58173W        W31241  22.181  10.527   2.849
58174W        W31242  22.040  12.762   3.105
58175W        W31243   6.968   6.110   1.260
58176W        W31244  42.034   9.364   3.235
58177W        W31245  10.815   5.790   0.558
58178W        W31246  24.051  32.100  12.098
58179W        W31247  12.319   7.752   4.712
58180W        W31248  21.243  31.368   0.099
58181W        W31249  35.069  34.888  13.786
58182W        W31250  42.055   9.309   0.736
58183W        W31251  18.980  41.361  13.026
58184W        W31252   6.279  28.083  10.831
58185W        W31253  39.053  10.066  14.184
58186W        W31254  32.375   6.945   2.857
58187W        W31255  24.030  22.802  13.272
58188W        W31256  33.584  42.520   3.597
58189W        W31257  33.009  44.457   1.937
58190W        W31258   6.841   3.850   4.094
58191W        W31259  29.870  28.613  14.778
58192W        W31260  20.739  28.132   3.734
58193W        W31261   8.817  10.871   4.513
58194W        W31262   1.082  29.521  11.064
58195W        W31263  21.317  24.179  12.105
58196W        W31264  35.017   7.465   1.747
58197W        W31265   7.253  40.323  10.888
58198W        W31266  44.443  30.498  14.337
58199W        W31267   4.825   4.238  13.872
58200W        W31268  19.106   9.372   2.100
58201W        W31269   1.197  42.215  10.547
58202W        W31270  38.868  41.766   0.416
58203W        W31271  25.087  12.606   1.699
58204W        W31272  24.665  36.801   3.525
58205W        W31273  26.936   6.848   4.645
58206W        W31274  19.474  27.109   3.185
58207W        W31275  17.489   9.285  12.816
58208W        W31276  20.657  12.763  10.762
58209W        W31277  14.377  34.548   1.527
58210W        W31278  16.175  15.655   2.133
58211W        W31279  29.184  32.573  12.372
58212W        W31280  43.375  17.291   1.386
58213W        W31281  11.497  38.253   2.450
58214W        W31282   1.987  29.731   1.945
58215W        W31283  33.777  12.895  13.849
58216W        W31284  30.899  12.609   3.644
58217W        W31285  11.883  34.277  13.824
58218W        W31286  44.541  37.107  12.278
58219W        W31287  27.885  43.211   2.276
58220W        W31288   6.879  16.766  10.739
58221W        W31289  25.213  37.654  13.513
58222W        W31290  30.664  44.656   4.196
58223W        W31291   0.723  25.746  11.068
58224W        W31292  33.449  40.505  12.484
58225W        W31293  13.648  19.013  14.832
58226W        W31294  36.843  11.465   1.262
58227W        W31295   9.312  24.060  12.602
58228W        W31296  31.551  28.121   0.507
58229W        W31297  12.396  29.553  13.231
58230W        W31298  13.707  37.047  11.179
58231W        W31299  19.104  32.949   4.535
58232W        W31300   8.258  13.804   0.849
58233W        W31301   2.434   1.254  11.537
58234W        W31302  11.083  28.032   0.906
58235W        W31303  39.405  44.992   0.538
58236W        W31304  18.157  12.783  12.763
58237W        W31305   1.449  35.829  14.756
58238W        W31306  20.707   9.123  12.899
58239W        W31307  14.686   9.863   4.464
58240W        W31308  23.709  27.433   1.773
58241W        W31309  42.777  43.036   4.707
58242W        W31310  36.575  31.447  12.931
58243W        W31311  14.065  13.551  12.804
58244W        W31312   2.853  30.321  10.742
58245W        W31313  27.055  42.447  12.958
58246W        W31314  17.209  44.964   4.880
58247W        W31315  38.613  14.327   0.830
58248W        W31316  39.102  16.129  10.583
58249W        W31317  34.594  40.564   2.212
58250W        W31318   0.358   5.906   4.173
58251W        W31319  15.178  34.579  14.016
58252W        W31320  24.458  41.378  12.543
58253W        W31321  27.942  17.944   2.246
58254W        W31322  22.515  33.091  10.673
58255W        W31323   7.320  15.096   3.163
58256W        W31324  31.627  33.379  11.622
58257W        W31325  39.413  32.981  14.435
58258W        W31326   2.833  12.296  10.609
58259W        W31327  21.491  27.774   2.212
58260W        W31328  40.959   5.931   4.186
58261W        W31329  19.700  38.559  12.662
58262W        W31330  19.973  27.160   3.304
58263W        W31331  11.180  12.065  12.498
58264W        W31332   6.103  11.493  12.548
58265W        W31333  16.054  25.214   3.179
58266W        W31334  43.239  27.653  11.861
58267W        W31335  22.434   5.955  11.143
58268W        W31336  40.115  16.621  11.466
58269W        W31337  30.854  29.359  10.821
58270W        W31338  16.337  24.982  11.233
58271W        W31339  42.698  36.331   4.159
58272W        W31340  44.415  15.620   9.923
58273W        W31341  11.615  25.937  13.565
58274W        W31342  22.251  23.789   4.875
58275W        W31343  10.264  17.083  12.572
58276W        W31344  19.759  32.117   0.512
58277W        W31345   4.717   1.038   4.568
58278W        W31346  35.113   6.579  11.802
58279W        W31347   6.956  30.012   0.298
58280W        W31348   4.081  35.688   2.876
58281W        W31349  36.218  15.131   1.786
58282W        W31350   4.929   2.278   4.884
58283W        W31351  37.010  42.852  11.114
58284W        W31352  24.002  21.577   2.536
58285W        W31353  25.457  24.715  13.070
58286W        W31354  34.272  44.890  14.708
58287W        W31355  32.510  33.919   4.741
58288W        W31356  22.608  12.578  11.725
58289W        W31357  12.608   4.596  13.992
58290W        W31358  29.671  15.769   3.175
58291W        W31359   3.071  27.197   0.238
58292W        W31360  33.471  20.344  14.125
58293W        W31361  32.099   1.836  13.399
58294W        W31362   1.355  16.118   2.678
58295W        W31363   6.310  13.178   4.679
58296W        W31364  36.593  37.338  11.745
58297W        W31365  12.849  24.194   3.172
58298W        W31366  30.694  12.787  14.965
58299W        W31367  14.237  33.174  12.316
58300W        W31368  16.293  41.735   1.152
58301W        W31369  23.508  24.327  12.718
58302W        W31370   0.798   0.281  12.680
58303W        W31371  21.676  30.360   1.157
58304W        W31372   4.921  16.172  14.114
58305W        W31373  38.877  27.131  10.911
58306W        W31374  18.533  22.235  12.063
58307W        W31375  30.534  23.016  14.025
58308W        W31376  19.986  28.079  13.008
58309W        W31377  25.016  12.619  13.368
58310W        W31378  35.470  11.064   4.291
58311W        W31379  25.622  28.144  11.441
58312W        W31380   9.797  25.590   4.415
58313W        W31381  22.195  43.576   3.145
58314W        W31382  28.674  10.309  14.745
58315W        W31383   0.908   2.317   1.414
58316W        W31384  34.605   3.901  12.607
58317W        W31385  40.063  20.177  14.972
58318W        W31386  24.576   9.618   0.234
58319W        W31387   8.441  32.373   1.721
58320W        W31388  40.243  24.853   4.328
58321W        W31389  17.539  18.148  13.987
58322W        W31390  33.125  34.575   3.752
58323W        W31391  20.209  34.546  12.856
58324W        W31392  22.018  35.456   0.543
58325W        W31393  31.977   9.824   3.915
58326W        W31394  16.028  16.442   4.098
58327W        W31395  13.141  23.142  11.400
58328W        W31396  41.033   0.093  14.848
58329W        W31397  15.486  43.757  12.849
58330W        W31398  10.476  30.910  12.876
58331W        W31399  31.673   2.458   1.308
58332W        W31400  33.361  15.493   0.376
58333W        W31401  17.549  42.846  12.568
58334W        W31402  31.528  20.099   4.319
58335W        W31403  33.360   1.305  12.336
58336W        W31404   3.919  40.089   0.679
58337W        W31405  42.811  26.208  10.678
58338W        W31406  20.049  22.757   1.889
58339W        W31407  17.614  44.958   1.243
58340W        W31408  11.399  15.641   2.134
58341W        W31409  32.539  42.734   4.631
58342W        W31410  26.559  34.778   4.667
58343W        W31411  36.230  32.631  14.891
58344W        W31412  35.411   3.138   4.045
58345W        W31413  38.994  31.795   1.889
58346W        W31414  21.112   9.175   2.686
58347W        W31415   4.891   4.203   3.274
58348W        W31416  34.274   3.504  11.062
58349W        W31417  36.778  32.912  14.903
58350W        W31418  36.372  35.360  13.007
58351W        W31419  36.235  22.944   2.796
58352W        W31420  44.776  15.831   1.711
58353W        W31421   1.339   5.282  13.686
58354W        W31422  32.399  33.136   0.894
58355W        W31423  18.050  24.421   2.339
58356W        W31424  14.238  16.066   2.428
58357W        W31425  12.691   3.633  11.820
58358W        W31426   9.694   8.912   4.753
58359W        W31427  21.080  30.205   1.596
58360W        W31428  38.277  29.355   3.350
58361W        W31429  41.286  42.899   0.941
58362W        W31430  30.713  32.677   3.678
58363W        W31431  15.100  39.496  14.313
58364W        W31432  36.766  12.360  14.551
58365W        W31433   3.199  22.173  11.759
58366W        W31434  27.920  37.256  12.890
58367W        W31435  33.184  11.897  12.847
58368W        W31436  24.184   0.320  14.802
58369W        W31437  11.709  42.443   1.285
58370W        W31438   0.920   9.194  13.526
58371W        W31439  36.658  15.603   1.261
58372W        W31440  39.890  44.924   0.191
58373W        W31441  37.949   7.269  11.087
58374W        W31442  24.543  11.835   0.840
58375W        W31443  32.194  31.088   0.692
58376W        W31444  25.927  27.744  12.985
58377W        W31445  14.561  36.843  11.160
58378W        W31446  17.196   5.177   4.879
58379W        W31447  33.403  26.679  11.692
58380W        W31448  11.772  28.463   3.825
58381W        W31449  33.394  27.987   2.672
58382W        W31450  36.927  34.905   0.217
58383W        W31451  15.839  38.580   4.543
58384W        W31452  29.084  34.673   3.655
58385W        W31453   6.434   2.143   0.343
58386W        W31454  20.610  11.852   4.549
58387W        W31455  36.536  21.526  12.775
58388W        W31456   7.197   3.885  12.083
58389W        W31457  37.095  21.330  13.958
58390W        W31458  28.177  19.047  14.972
58391W        W31459  40.531  10.555   2.792
58392W        W31460  18.795   9.468   4.609
58393W        W31461  40.296   4.811   2.451
58394W        W31462  13.200  25.093   5.076
58395W        W31463  17.293  35.577   0.327
58396W        W31464  19.737   6.143   2.761
58397W        W31465  11.212  44.976  13.564
58398W        W31466  11.605   7.101   0.393
58399W        W31467   4.753  24.184  11.656
58400W        W31468   9.403  28.399   0.760
58401W        W31469  19.257  18.608  12.171
58402W        W31470  21.541  21.529   0.547
58403W        W31471   9.930  10.091  11.475
58404W        W31472  38.132  34.418   4.660
58405W        W31473  38.080   4.303   3.695
58406W        W31474  24.992  15.213   3.080
58407W        W31475  14.695  14.444  12.592
58408W        W31476  32.755  41.806  13.063
58409W        W31477  28.544  22.066  13.762
58410W        W31478  32.580  38.368  14.968
58411W        W31479  13.840   2.825   4.649
58412W        W31480  33.971  33.061   4.221
58413W        W31481  20.252  34.855   4.270
58414W        W31482  32.486  27.610  11.302
58415W        W31483  30.257  27.165  13.389
58416W        W31484  10.834  31.858   3.178
58417W        W31485   5.937  16.813   0.198
58418W        W31486  14.636   6.733   2.778
58419W        W31487   6.739   9.720   1.890
58420W        W31488   6.766  10.500  10.384
58421W        W31489   4.397  16.648  12.024
58422W        W31490  38.378  29.756   4.141
58423W        W31491  41.715  17.875  13.437
58424W        W31492  14.852  43.060   5.131
58425W        W31493  34.550  23.573   0.689
58426W        W31494   9.641  12.813   3.085
58427W        W31495  41.605  36.960  14.928
58428W        W31496  31.611  41.904  11.548
58429W        W31497  13.332  19.301  10.726
58430W        W31498  17.261  24.031   3.604
58431W        W31499  20.497  31.683   2.793
58432W        W31500   2.915  37.440  14.353
58433W        W31501   0.304  24.523  11.458
58434W        W31502  19.389  44.335  10.619
58435W        W31503  21.745  14.534   2.909
58436W        W31504  32.064  13.809   0.765
58437W        W31505  39.899  21.613   1.162
58438W        W31506  11.317  26.062  12.908
58439W        W31507  33.655   2.842  14.731
58440W        W31508  25.230   8.177  10.835
58441W        W31509  41.232  33.905   2.247
58442W        W31510   5.065  20.124   3.576
58443W        W31511  32.278  31.966  12.843
58444W        W31512  15.489   7.904   3.538
58445W        W31513  29.848   9.905   2.549
58446W        W31514   3.409   2.503  13.558
58447W        W31515  24.792  26.962  13.034
58448W        W31516  27.441  12.977   0.338
58449W        W31517   4.637  22.188   1.781
58450W        W31518  18.769  32.569  12.882
58451W        W31519  16.775  31.036   0.007
58452W        W31520  32.253  10.123   0.203
58453W        W31521   3.929  15.311  10.802
58454W        W31522  29.508  33.967  12.430
58455W        W31523  33.603  11.186   3.118
58456W        W31524  12.057   6.861   0.384
58457W        W31525  14.667  44.985  11.002
58458W        W31526   4.671   1.531   0.998
58459W        W31527  30.986  42.628   0.785
58460W        W31528  28.679  37.566  11.618
58461W        W31529  39.549  27.147   0.091
58462W        W31530  25.228  32.831   0.707
58463W        W31531  16.736   4.021   3.139
58464W        W31532  25.224  18.890   0.327
58465W        W31533  17.206  11.878   2.194
58466W        W31534  36.070   6.242   0.504
58467W        W31535  40.994  21.208   0.046
58468W        W31536  12.382   2.761  11.800
58469W        W31537  14.581  29.323  13.343
58470W        W31538  13.303  39.842   3.122
58471W        W31539   6.173  44.792  12.498
58472W        W31540  10.079  11.815  11.503
58473W        W31541  22.142  18.076   2.339
58474W        W31542   5.696   4.366   1.424
58475W        W31543  44.425  42.214   1.654
58476W        W31544  27.628  16.333  14.800
58477W        W31545   6.167   4.507  11.949
58478W        W31546  34.986  31.464   4.632
58479W        W31547  19.968  26.631   3.656
58480W        W31548   9.941   4.471   0.388
58481W        W31549  37.102   4.642  12.577
58482W        W31550   5.913  38.370   4.234
58483W        W31551  14.375  13.746   3.762
58484W        W31552  19.792  18.861   2.813
58485W        W31553  32.337  20.569  13.276
58486W        W31554  44.403  27.563  11.389
58487W        W31555  15.780  24.662   0.704
58488W        W31556  35.436   3.421  12.098
58489W        W31557   4.475  22.728   0.650
58490W        W31558  32.304   9.601   0.193
58491W        W31559  18.615  38.980  10.596
58492W        W31560  39.792  24.486  14.442
58493W        W31561  27.936   6.169  13.040
58494W        W31562  14.648  18.268  13.442
58495W        W31563  15.314  44.912  14.889
58496W        W31564  14.556   6.977   3.715
58497W        W31565  13.106  37.650  12.986
58498W        W31566  26.999  10.897  13.514
58499W        W31567  28.924  23.486  11.845
58500W        W31568   1.758  40.113   1.800
58501W        W31569  44.472   2.338  13.782
58502W        W31570  25.613  13.145   0.056
58503W        W31571  41.788  13.028  10.744
58504W        W31572  26.039  14.623   4.549
58505W        W31573   0.333  34.523  13.717
58506W        W31574  30.048   2.816   2.169
58507W        W31575  39.850  24.492   3.663
58508W        W31576  38.929   1.428  10.693
58509W        W31577  13.317   7.151  13.388
58510W        W31578   0.878  15.878   4.718
58511W        W31579  23.804  38.089  13.476
58512W        W31580  14.606   5.500   3.138
58513W        W31581  25.618  31.869   1.237
58514W        W31582  10.839  33.613   3.716
58515W        W31583  13.605  13.810   3.286
58516W        W31584  13.339  22.545   0.606
58517W        W31585   3.735  38.312   2.650
58518W        W31586   3.199  21.728  10.433
58519W        W31587  26.174   7.421  13.337
58520W        W31588  31.431  43.803   4.609
58521W        W31589   7.902  11.684   1.408
58522W        W31590  42.546  14.696  11.940
58523W        W31591  41.908  24.252  14.189
58524W        W31592   8.413  36.224   1.328
58525W        W31593  28.992  35.343  14.835
58526W        W31594  38.572  14.246   2.672
58527W        W31595  20.521  39.984  11.113
58528W        W31596  27.642  15.580   1.263
58529W        W31597  21.721  34.288   3.611
58530W        W31598   3.018  26.613   3.236
58531W        W31599  23.153  30.206  13.830
58532W        W31600  42.379  35.353  11.580
58533W        W31601  31.306  41.963   0.650
58534W        W31602  27.706  12.636   1.299
58535W        W31603  16.275  34.465   2.547
58536W        W31604  40.693  26.371   2.169
58537W        W31605  36.863  39.524  14.886
58538W        W31606  42.021  28.979   2.784
58539W        W31607   2.738  26.662  10.665
58540W        W31608   3.322  18.031   2.872
58541W        W31609   5.432  25.339   5.004
58542W        W31610  36.766  17.222   0.246
58543W        W31611   7.520  19.542   0.231
58544W        W31612  22.799  39.837   1.473
58545W        W31613  28.751  43.666   1.358
58546W        W31614  11.760  10.696   1.944
58547W        W31615  31.220  10.658   3.947
58548W        W31616  28.162  19.781   0.821
58549W        W31617  19.677  32.242  12.966
58550W        W31618  31.779  33.137  12.058
58551W        W31619  26.783  39.657   2.697
58552W        W31620  38.739  25.589   3.561
58553W        W31621  24.145  11.974   1.940
58554W        W31622  30.151  11.849  13.311
58555W        W31623  23.983  17.467  12.521
58556W        W31624  42.758  43.705   4.098
58557W        W31625  21.268  43.287  14.761
58558W        W31626  41.029  26.239   0.674
58559W        W31627   1.754  20.575   1.219
58560W        W31628   6.294  25.357  10.370
58561W        W31629  26.438   5.438  10.737
58562W        W31630  34.432  35.989   4.833
58563W        W31631  25.734  19.122  14.446
58564W        W31632  31.196  32.504  12.024
58565W        W31633  43.882   0.335  10.382
58566W        W31634  36.012  38.335   1.847
58567W        W31635  17.374  14.416   3.716
58568W        W31636  14.312   1.598  11.949
58569W        W31637  40.756  23.193   1.497
58570W        W31638  30.468  17.105   0.697
58571W        W31639  30.169   4.385   2.787
58572W        W31640  19.182  21.003  11.505
58573W        W31641  13.733  10.661   3.212
58574W        W31642  24.708  37.548  13.386
58575W        W31643  14.788  40.523  12.089
58576W        W31644   3.002   3.901   1.810
58577W        W31645  37.029  29.550   0.615
58578W        W31646  17.243  18.836  14.286
58579W        W31647  27.063  24.057  11.619
58580W        W31648   5.883  13.100  12.113
58581W        W31649  19.144  27.512   3.736
58582W        W31650   5.357  32.651   4.332
58583W        W31651  37.130  28.561   3.061
58584W        W31652  27.604  15.619  10.311
58585W        W31653  29.650  18.800   4.188
58586W        W31654   6.681  29.119   3.714
58587W        W31655  26.478  36.024   3.124
58588W        W31656   5.651  20.537  10.750
58589W        W31657   6.259  28.492  13.952
58590W        W31658   5.709  37.432  12.003
58591W        W31659   1.851  15.144   1.381
58592W        W31660  11.995  22.463   0.824
58593W        W31661  37.514  35.671  14.248
58594W        W31662  23.634  38.312  13.951
58595W        W31663  41.512  26.815   2.851
58596W        W31664   4.155  40.466   0.968
58597W        W31665  42.105  39.582  11.175
58598W        W31666  44.414  13.696   4.138
58599W        W31667  19.206  35.875   2.321
58600W        W31668  36.876  37.459  11.155
58601W        W31669  32.120  18.496   0.160
58602W        W31670  21.580  36.569   3.359
58603W        W31671  30.840  39.565   0.394
58604W        W31672   3.372  35.552   2.260
58605W        W31673  16.203  23.207  14.467
58606W        W31674  39.807  20.561  14.257
58607W        W31675  43.404  16.762  14.823
58608W        W31676  35.571  24.976  13.342
58609W        W31677   8.123   3.813  12.378
58610W        W31678  38.428  18.033   1.923
58611W        W31679   9.950  35.205   1.293
58612W        W31680  20.538  33.590  11.575
58613W        W31681  28.999   1.907   3.089
58614W        W31682  41.504  36.286   1.350
58615W        W31683  29.589  32.864   3.783
58616W        W31684  12.130  31.527   0.781
58617W        W31685  41.641  21.022   4.638
58618W        W31686  42.795  12.348  14.372
58619W        W31687  43.048  42.147  14.731
58620W        W31688   6.434   2.271   3.721
58621W        W31689  17.542   2.878   4.581
58622W        W31690   5.929   0.404   1.250
58623W        W31691  19.479  27.071   1.013
58624W        W31692  17.715  43.299  11.195
58625W        W31693  27.978  25.803  14.571
58626W        W31694  12.064   8.147   2.256
58627W        W31695  28.663  17.897   4.163
58628W        W31696  25.957  14.655   2.105
58629W        W31697  14.409  44.499  11.693
58630W        W31698   9.330  22.099  10.608
58631W        W31699   8.946  27.838   3.314
58632W        W31700  43.291  37.498   1.001
58633W        W31701  38.268  44.821  11.569
58634W        W31702  40.503  38.290  13.514
58635W        W31703  21.611  33.519   4.819
58636W        W31704   1.523  26.386   3.732
58637W        W31705   0.711   3.076  10.825
58638W        W31706  13.086   4.489   2.770
58639W        W31707  13.884  39.516  13.281
58640W        W31708   6.300   9.556   2.086
58641W        W31709  13.368  16.202  13.350
58642W        W31710   3.545  36.598   2.959
58643W        W31711  25.693  42.693  14.353
58644W        W31712  28.960  43.569   0.244
58645W        W31713  27.162  33.933  14.873
58646W        W31714   2.416  20.706  11.747
58647W        W31715   4.549  32.443   3.324
58648W        W31716   3.602  16.485   2.846
58649W        W31717  39.383  16.763  11.947
58650W        W31718   9.931  43.962  10.836
58651W        W31719  34.235  26.633   3.827
58652W        W31720  24.053  36.469  11.973
58653W        W31721  40.295   6.543   4.331
58654W        W31722   9.394  44.137   2.919
58655W        W31723   9.468  43.481  13.827
58656W        W31724   3.259  20.525   0.283
58657W        W31725  22.121  14.438   0.295
58658W        W31726  20.582   5.581   2.862
58659W        W31727  19.144   0.339   1.480
58660W        W31728  17.030  41.957  13.052
58661W        W31729  37.360  20.674  14.453
58662W        W31730  36.340  17.416  12.489
58663W        W31731  32.070  34.068  10.883
58664W        W31732  37.217  16.616   0.691
58665W        W31733   0.285  10.849   2.788
58666W        W31734  13.255  12.918   4.116
58667W        W31735  34.636  13.257  10.810
58668W        W31736   3.456  31.355   4.675
58669W        W31737  19.011   8.775  12.476
58670W        W31738  24.951  31.007   2.149
58671W        W31739  10.419  14.844   1.299
58672W        W31740  20.774   0.326   2.896
58673W        W31741   6.362  26.034  13.873
58674W        W31742  42.981  39.215  13.819
58675W        W31743  21.806  34.847  13.659
58676W        W31744  18.443   5.362   0.318
58677W        W31745  29.825  10.010   1.965
58678W        W31746  25.277  23.958   1.851
58679W        W31747  34.772  12.207   2.289
58680W        W31748  22.059  38.294   4.597
58681W        W31749   0.399  28.171  12.926
58682W        W31750  43.992   6.958  14.221
58683W        W31751  28.637  27.929   3.721
58684W        W31752  28.504  26.638  14.368
58685W        W31753  24.617  14.257   3.994
58686W        W31754  21.020  29.720   4.606
58687W        W31755  41.090   8.970  13.956
58688W        W31756   4.807   8.170   9.916
58689W        W31757  43.933  17.578   3.282
58690W        W31758  29.477   2.027   2.879
58691W        W31759  14.491  42.429  10.895
58692W        W31760  43.524   0.347  11.610
58693W        W31761  40.947  23.773  12.889
58694W        W31762  30.955  38.332   0.344
58695W        W31763  18.079   7.176   4.582
58696W        W31764  42.269  26.236   4.521
58697W        W31765   6.318  27.575  12.503
58698W        W31766  15.665  12.106   2.106
58699W        W31767  26.523  28.411  14.604
58700W        W31768  26.136  17.797  14.288
58701W        W31769   2.152  17.129  12.154
58702W        W31770   7.670  31.375   0.352
58703W        W31771  38.546  25.058  13.021
58704W        W31772  32.666  38.031  12.304
58705W        W31773  39.896  13.368  11.069
58706W        W31774  26.930  31.789   0.884
58707W        W31775  21.087  29.272  10.770
58708W        W31776  11.653   2.887   3.154
58709W        W31777   4.707   2.977   1.072
58710W        W31778  39.563  22.955  10.619
58711W        W31779  13.764  33.760  14.698
58712W        W31780  15.750  31.959   4.642
58713W        W31781  16.726  24.704  13.447
58714W        W31782  21.047  34.138   0.127
58715W        W31783  24.192  11.819   1.389
58716W        W31784  12.203   2.720  14.506
58717W        W31785  37.549  32.842   3.532
58718W        W31786  38.021  12.074  12.976
58719W        W31787  21.619  15.057  10.917
58720W        W31788  37.983  41.942   1.639
58721W        W31789  42.426  39.312  14.254
58722W        W31790   7.737  13.738  13.947
58723W        W31791  38.790  15.333  12.449
58724W        W31792  28.518   2.835   1.246
58725W        W31793  15.617  36.865   0.775
58726W        W31794  22.560  43.319  14.332
58727W        W31795   6.945  14.180   2.416
58728W        W31796  34.687  42.981  14.883
58729W        W31797  31.395  18.123   3.645
58730W        W31798  35.027  17.110  13.137
58731W        W31799  21.609  13.271  14.554
58732W        W31800   8.388  28.471  11.975
58733W        W31801  13.779  33.896  13.092
58734W        W31802  44.933   2.439  13.516
58735W        W31803   6.218   3.452  11.597
58736W        W31804  16.640  40.353   3.754
58737W        W31805  18.204  37.285   0.824
58738W        W31806  44.755  14.910  10.735
58739W        W31807  44.014   0.556  14.920
58740W        W31808  38.506  20.671  12.675
58741W        W31809  17.799  28.737  13.225
58742W        W31810  12.690   8.842  13.021
58743W        W31811  25.418  22.441  12.480
58744W        W31812  14.616   2.902   4.141
58745W        W31813  44.717  35.151   0.883
58746W        W31814   1.285  19.735   3.276
58747W        W31815  15.272  32.974  10.720
58748W        W31816  17.168  44.062   4.331
58749W        W31817  33.681   5.307  10.764
58750W        W31818   8.940  10.698   1.446
58751W        W31819  31.708  27.111  10.986
58752W        W31820  13.632  33.161  11.251
58753W        W31821  29.788   3.493   3.708
58754W        W31822   3.669  20.053  13.201
58755W        W31823  16.120  40.955   0.959
58756W        W31824  41.348  27.637  14.460
58757W        W31825  41.526  42.684   3.255
58758W        W31826  18.411   0.727   3.133
58759W        W31827  31.426  44.319  11.558
58760W        W31828  24.705   5.813   2.169
58761W        W31829  12.922  12.865  14.052
58762W        W31830  31.255  15.104   2.269
58763W        W31831  12.258  20.105  11.468
58764W        W31832  11.152  29.553   2.702
58765W        W31833  18.817  25.573   3.435
58766W        W31834   9.542  24.710  11.662
58767W        W31835  35.998  23.280   0.300
58768W        W31836  28.560  30.265   0.867
58769W        W31837  19.219   6.771   1.390
58770W        W31838   8.384  34.569   4.585
58771W        W31839   7.042  20.645  12.965
58772W        W31840  25.188  33.390   3.265
58773W        W31841  34.931  32.924   4.132
58774W        W31842  15.633  34.551  14.350
58775W        W31843   4.235  33.968   2.392
58776W        W31844  39.531  10.448   1.865
58777W        W31845  24.551   4.316  14.871
58778W        W31846  35.093  37.832   4.546
58779W        W31847   9.770   8.739  14.817
58780W        W31848  39.329  38.252  14.546
58781W        W31849  42.950   4.978  12.799
58782W        W31850  31.042  33.465   1.005
58783W        W31851  27.699   4.802   4.279
58784W        W31852  37.261  36.337   3.686
58785W        W31853  11.224  35.627  11.468
58786W        W31854  30.061  13.529   0.252
58787W        W31855  31.022  24.483   2.625
58788W        W31856  10.299  38.479   4.704
58789W        W31857  37.916  30.526   4.945
58790W        W31858  36.160  13.170   4.677
58791W        W31859  40.061  27.731  13.562
58792W        W31860  28.582  36.037  12.559
58793W        W31861  33.797  19.346  14.946
58794W        W31862  40.966  41.737   4.190
58795W        W31863   2.857  21.167  13.328
58796W        W31864  35.608   1.146  11.692
58797W        W31865  40.473  21.775   3.669
58798W        W31866  14.493  38.536  13.861
58799W        W31867  23.779   5.146   1.901
58800W        W31868  30.456  38.599   4.130
58801W        W31869  39.605  37.890  14.819
58802W        W31870  20.246   6.970   3.169
58803W        W31871  22.748  12.725   0.503
58804W        W31872  25.418  16.338  11.068
58805W        W31873   7.714  26.111   4.558
58806W        W31874  25.148  18.784  12.852
58807W        W31875  35.253  11.647  12.002
58808W        W31876  18.869   6.303  13.010
58809W        W31877  26.678  26.473   1.580
58810W        W31878  28.050  32.137  13.788
58811W        W31879  14.119  44.520   0.887
58812W        W31880  19.285  25.303  13.455
58813W        W31881  23.705  21.446  11.613
58814W        W31882  22.481  24.023   2.295
58815W        W31883  20.694   7.753  10.730
58816W        W31884  20.707  27.676   3.995
58817W        W31885  41.112   6.119   1.872
58818W        W31886  18.030  35.495   2.180
58819W        W31887  31.198  10.230   2.311
58820W        W31888  24.702   5.650  13.184
58821W        W31889  24.932  26.419  14.429
58822W        W31890   3.873  10.680  11.574
58823W        W31891  29.720  28.571   4.047
58824W        W31892  42.716   9.361  11.546
58825W        W31893  27.708  39.432  10.655
58826W        W31894  15.049  40.004   0.865
58827W        W31895  33.594   6.742  14.493
58828W        W31896  40.941  11.777   4.913
58829W        W31897  24.648  19.678  11.545
58830W        W31898  41.541  23.565  14.413
58831W        W31899   4.140  14.002   2.149
58832W        W31900  27.634  43.523   1.933
58833W        W31901   3.877  42.317   2.459
58834W        W31902  32.869  21.885  11.976
58835W        W31903   0.336  22.953  14.703
58836W        W31904  42.398  10.335   1.736
58837W        W31905  17.298  16.614   0.741
58838W        W31906  28.115   4.751  10.623
58839W        W31907  33.588  24.286  11.560
58840W        W31908  35.412  34.367   0.356
58841W        W31909  33.507   0.649   0.872
58842W        W31910  37.972  11.196   0.275
58843W        W31911  37.470   3.464   2.692
58844W        W31912  13.813  29.508  10.795
58845W        W31913   5.791  37.025  13.381
58846W        W31914  29.051  37.598  14.957
58847W        W31915  17.528  19.413   3.655
58848W        W31916  32.204  29.813  13.531
58849W        W31917  15.433  13.450   5.117
58850W        W31918  27.764  38.996   2.193
58851W        W31919   3.724  37.817  10.926
58852W        W31920  24.013  19.222  12.610
58853W        W31921  41.390  43.895   4.982
58854W        W31922  15.193  39.266   1.240
58855W        W31923  43.006  28.450   4.088
58856W        W31924  10.403  43.336   0.994
58857W        W31925  20.812  14.849  13.392
58858W        W31926  39.417   8.250   3.018
58859W        W31927  36.572  30.882   1.395
58860W        W31928  16.898  37.040  13.005
58861W        W31929  30.509  35.582   0.520
58862W        W31930  34.555  29.421   4.128
58863W        W31931  23.567  40.889   3.706
58864W        W31932   0.289  33.818   1.783
58865W        W31933   2.459  11.644  14.761
58866W        W31934  11.274   5.918   1.704
58867W        W31935  10.989   8.294  14.661
58868W        W31936  24.071  21.279   1.156
58869W        W31937   6.036   1.652  12.075
58870W        W31938  43.745   4.710   0.754
58871W        W31939  24.707  44.562   1.810
58872W        W31940  36.392  42.204   1.909
58873W        W31941   0.057  30.660  12.048
58874W        W31942  36.051  20.874   0.430
58875W        W31943  41.360   6.668   4.782
58876W        W31944   6.687  13.772   3.178
58877W        W31945   0.488   1.170   4.465
58878W        W31946  13.179   5.106   4.441
58879W        W31947   3.784   0.952   3.752
58880W        W31948  30.693  37.339   0.784
58881W        W31949   0.985  12.752  10.831
58882W        W31950   2.028  41.495   1.186
58883W        W31951   6.418  29.437   4.696
58884W        W31952  10.722  32.960   2.352
58885W        W31953  34.037  34.849  14.859
58886W        W31954  32.414  41.870   1.831
58887W        W31955  13.816   9.202   3.763
58888W        W31956  26.074  27.694   4.759
58889W        W31957  19.632   3.984   1.717
58890W        W31958   6.580  21.803  13.837
58891W        W31959   5.663   9.301   2.791
58892W        W31960   4.020  28.535  11.504
58893W        W31961  14.066  15.524  10.197
58894W        W31962  36.513   0.436  11.410
58895W        W31963   9.641  40.788  11.977
58896W        W31964   5.787  27.207   2.369
58897W        W31965   8.501  27.842   5.029
58898W        W31966  33.729  12.841   5.014
58899W        W31967  17.143   7.871  14.824
58900W        W31968  43.462   0.444   4.049
58901W        W31969  27.497  30.480  13.471
58902W        W31970  19.106  32.441  11.887
58903W        W31971  39.391   5.316  14.476
58904W        W31972  33.512  19.799   3.315
58905W        W31973  15.797  35.476  14.797
58906W        W31974  42.460  19.587   1.007
58907W        W31975  15.923  34.591  12.021
58908W        W31976  29.967   7.331   2.757
58909W        W31977  38.915  29.672   4.830
58910W        W31978  21.908  17.829  13.415
58911W        W31979  44.700  31.919   1.041
58912W        W31980  29.707  38.881  11.135
58913W        W31981  29.951   2.542   3.338
58914W        W31982  17.753   8.457   4.368
58915W        W31983   0.981  43.861  13.585
58916W        W31984  10.641  21.694   4.037
58917W        W31985  19.763  35.701   4.059
58918W        W31986  30.570  44.230   1.284
58919W        W31987   0.088  30.594   0.792
58920W        W31988   9.702  12.737  10.594
58921W        W31989  44.457  12.012   3.804
58922W        W31990   7.858  37.053   2.320
58923W        W31991   3.378   9.862  14.870
58924W        W31992  22.514  17.335  14.100
58925W        W31993  40.510  14.187   3.658
58926W        W31994   9.501   7.715  11.442
58927W        W31995  20.702  13.415   0.480
58928W        W31996  34.840   7.715   3.570
58929W        W31997  41.781  39.822   2.662
58930W        W31998  33.357  43.270  12.182
58931W        W31999   8.401  18.511   3.154
58932W        W32000   2.040  20.741  13.271
58933W        W32001  41.427  33.913  11.178
58934W        W32002  25.793  33.053  13.445
58935W        W32003  28.789   1.040  13.326
58936W        W32004   7.234  10.957  12.909
58937W        W32005  37.551  41.929  12.056
58938W        W32006  21.983   6.451   0.894
58939W        W32007  38.106  24.662   0.017
58940W        W32008  14.164  10.597   4.547
58941W        W32009  33.896  11.847   0.913
58942W        W32010  40.638  13.763   9.555
58943W        W32011  29.958  11.797   1.170
58944W        W32012  34.781   5.747  11.947
58945W        W32013  33.109  43.381   3.828
58946W        W32014  35.858  16.725  13.421
58947W        W32015  32.991  23.608   4.803
58948W        W32016  30.034  30.865  11.626
58949W        W32017  26.661  14.700   3.734
58950W        W32018  14.301  35.473   4.496
58951W        W32019   7.263  31.103   3.689
58952W        W32020   4.335  25.845   0.401
58953W        W32021  24.974  33.009  13.971
58954W        W32022  41.930  34.293  11.069
58955W        W32023   6.953  39.749  14.372
58956W        W32024  36.982   1.056   3.122
58957W        W32025  27.202  14.203   2.395
58958W        W32026  34.865  12.634   2.952
58959W        W32027  26.628  11.010   3.268
58960W        W32028   0.464   6.481   4.999
58961W        W32029   4.698  39.050  14.335
58962W        W32030  17.369  18.998  10.969
58963W        W32031   2.528   9.173   4.685
58964W        W32032   1.225  21.552   2.637
58965W        W32033  21.285  21.692  11.883
58966W        W32034  15.198  38.076   1.941
58967W        W32035  25.102   6.229  10.629
58968W        W32036  32.657   0.493  11.937
58969W        W32037  39.421  44.710  13.432
58970W        W32038  43.393  35.361  13.329
58971W        W32039  36.821  42.980   3.283
58972W        W32040  10.303  13.883   0.950
58973W        W32041  30.124  10.078  12.520
58974W        W32042  34.585  44.449  10.680
58975W        W32043  25.005  25.078  10.567
58976W        W32044  22.256  34.837  11.539
58977W        W32045  35.419  21.004  11.520
58978W        W32046  20.517  37.704  14.369
58979W        W32047  11.509   1.770  12.067
58980W        W32048   4.293   1.561  13.526
58981W        W32049  33.134  25.485   1.763
58982W        W32050  32.093  33.093  13.448
58983W        W32051  41.495   0.456  14.127
58984W        W32052  40.068   9.765  11.966
58985W        W32053  11.519  41.359   2.232
58986W        W32054   1.921  31.488   0.026
58987W        W32055   1.608  41.355   4.983
58988W        W32056  37.962  21.605  11.684
58989W        W32057  18.209  40.360  11.613
58990W        W32058  34.139  23.644   3.808
58991W        W32059  20.174  10.218   1.880
58992W        W32060  42.916  20.592   1.289
58993W        W32061  22.034  39.979   1.757
58994W        W32062   2.958  25.389   2.384
58995W        W32063  13.999  26.161  14.810
58996W        W32064  24.433  41.346  13.564
58997W        W32065  42.275  26.308   4.018
58998W        W32066  14.238  17.227  11.534
58999W        W32067   5.916   0.106  14.000
59000W        W32068  29.517  23.251  14.253
59001W        W32069  29.926  25.704  10.606
59002W        W32070  34.119   1.571  14.449
59003W        W32071  34.528  42.872  11.684
59004W        W32072  33.333  40.811   1.417
59005W        W32073  24.208  43.750   1.873
59006W        W32074  29.857  33.842   4.573
59007W        W32075   4.634   5.941   0.842
59008W        W32076  22.718  37.212   5.032
59009W        W32077  17.708  36.155  14.021
59010W        W32078  27.231   3.030   5.148
59011W        W32079  43.022   1.058   1.316
59012W        W32080  28.894   4.230  12.954
59013W        W32081   5.835  19.062  13.256
59014W        W32082  30.986   0.935  13.425
59015W        W32083  16.595   6.709   0.352
59016W        W32084   0.713  24.746  12.464
59017W        W32085  26.910  42.064   0.332
59018W        W32086   7.311  16.219   4.125
59019W        W32087   4.405  20.226   2.119
59020W        W32088  29.744  12.578   4.235
59021W        W32089  31.913   6.848   0.302
59022W        W32090   2.148  28.597  14.005
59023W        W32091  43.088  10.845   0.737
59024W        W32092  43.010  28.935  14.815
59025W        W32093  33.891  18.347   0.396
59026W        W32094   9.209  12.931  10.747
59027W        W32095  41.760   0.764   0.814
59028W        W32096  27.158  32.442   1.490
59029W        W32097  40.165   5.787  14.452
59030W        W32098  38.877  27.918  14.330
59031W        W32099  22.079   3.026  13.972
59032W        W32100  17.893   5.340   3.785
59033W        W32101  29.622  19.669  11.748
59034W        W32102  13.077  17.881  10.729
59035W        W32103   9.368  20.627   2.914
59036W        W32104  17.795  37.035   1.748
59037W        W32105  22.685  19.298   3.707
59038W        W32106  24.054  25.290  14.790
59039W        W32107  17.014   9.502  14.316
59040W        W32108  43.015  26.948  14.795
59041W        W32109  41.911  22.193   1.564
59042W        W32110  23.788  40.162  12.139
59043W        W32111  30.853  43.003   0.482
59044W        W32112   1.765  40.916   2.878
59045W        W32113  17.133   2.717   0.435
59046W        W32114   9.277   7.694   5.092
59047W        W32115  22.098  28.964   2.372
59048W        W32116  21.144   4.676  13.605
59049W        W32117   6.281  29.064  14.348
59050W        W32118   5.012  21.054   5.078
59051W        W32119  26.018  41.784   3.803
59052W        W32120  15.914   4.929   3.127
59053W        W32121  23.209  27.917  12.596
59054W        W32122  31.915  18.685  10.692
59055W        W32123   4.907  18.600   3.113
59056W        W32124   5.835  28.722   0.353
59057W        W32125  22.298  40.579  13.748
59058W        W32126  18.199  41.946  13.807
59059W        W32127  30.493  38.539   0.447
59060W        W32128   4.950   5.657  11.489
59061W        W32129  38.485   6.116   2.291
59062W        W32130  22.008  43.841   3.567
59063W        W32131   8.908  10.905  14.471
59064W        W32132  11.108   4.225  12.022
59065W        W32133  36.054   9.843  11.973
59066W        W32134  36.262  40.466  14.919
59067W        W32135   0.526   8.736   2.291
59068W        W32136   6.196  21.786   2.660
59069W        W32137  11.704   2.612   2.717
59070W        W32138  24.554   9.585  14.072
59071W        W32139  33.131  11.312   0.824
59072W        W32140  16.882  19.989  13.978
59073W        W32141  31.694  33.998   3.114
59074W        W32142  33.336  22.047  12.123
59075W        W32143  25.629  22.707  12.929
59076W        W32144  22.668  12.065   3.245
59077W        W32145  11.474  11.248  12.601
59078W        W32146   9.388   6.669   0.746
59079W        W32147   0.285  31.334   1.491
59080W        W32148  14.690  36.067   2.905
59081W        W32149  26.519   8.193  11.048
59082W        W32150  41.879  41.752   4.168
59083W        W32151  23.185  33.522   4.075
59084W        W32152  40.503  22.983   2.108
59085W        W32153  26.962  11.446  14.719
59086W        W32154  21.898  23.228   2.587
59087W        W32155   2.780   2.725  13.600
59088W        W32156  17.730  10.268   2.748
59089W        W32157  31.094  42.276   2.288
59090W        W32158   2.659  38.292  11.801
59091W        W32159  34.172  44.962  11.019
59092W        W32160  43.490  11.482  10.718
59093W        W32161  13.171  22.262  11.455
59094W        W32162  14.836  32.634   0.022
59095W        W32163   4.201  29.475  14.198
59096W        W32164   7.688  22.691   2.266
59097W        W32165  10.686  12.645   2.535
59098W        W32166  44.681   8.725   1.948
59099W        W32167  14.271  15.284   3.383
59100W        W32168  33.478  16.322   2.787
59101W        W32169  31.938  16.348  12.363
59102W        W32170   5.327  31.541  11.083
59103W        W32171  10.202  23.476   2.834
59104W        W32172  41.512   7.221   4.273
59105W        W32173  19.789  22.297   1.834
59106W        W32174   0.232  35.569  11.248
59107W        W32175   0.483  12.114  13.725
59108W        W32176  38.858  10.121   3.176
59109W        W32177  14.224  16.555  14.737
59110W        W32178   6.379  33.125   5.127
59111W        W32179  16.154  18.630  14.360
59112W        W32180  37.532  19.871   2.750
59113W        W32181  13.277  23.176   4.371
59114W        W32182   8.899  21.948   4.382
59115W        W32183   4.757  13.504   4.162
59116W        W32184  32.024  27.168  14.572
59117W        W32185   9.918  40.937  12.373
59118W        W32186   8.420  14.641  13.958
59119W        W32187   6.433  14.110   4.227
59120W        W32188   4.165   1.223  12.630
59121W        W32189  32.504  37.819   4.338
59122W        W32190  18.699  26.853   4.793
59123W        W32191  42.702   7.033   3.393
59124W        W32192  22.713  33.776  11.930
59125W        W32193  11.281  31.326  13.307
59126W        W32194   2.254  35.761   3.678
59127W        W32195  37.386   6.688  10.702
59128W        W32196  25.085   2.385  11.553
59129W        W32197  13.861  32.914   4.091
59130W        W32198  16.692  12.378  11.961
59131W        W32199  29.992  38.042  12.844
59132W        W32200  20.657  29.981  14.182
59133W        W32201  20.144  37.173   1.290
59134W        W32202  33.831   1.323  12.146
59135W        W32203  18.685  44.937   3.678
59136W        W32204   1.774  22.342  13.930
59137W        W32205  13.873  32.699  11.551
59138W        W32206  26.534  15.375   3.188
59139W        W32207  11.364  33.944   3.841
59140W        W32208  44.780  38.415   3.789
59141W        W32209  37.313  20.341   4.079
59142W        W32210  24.719   2.152  14.924
59143W        W32211  38.760  10.853  10.364
59144W        W32212  10.253  24.241  10.996
59145W        W32213   0.972  39.814  14.471
59146W        W32214  41.100  25.155   2.785
59147W        W32215  26.718  14.793  12.419
59148W        W32216  29.668  40.278   2.155
59149W        W32217   2.399  21.410   1.839
59150W        W32218  38.701  11.510   3.063
59151W        W32219  34.336  30.488  12.872
59152W        W32220  40.146  21.605   2.196
59153W        W32221  10.844  43.340   1.237
59154W        W32222   5.223  12.380   3.294
59155W        W32223  33.923   2.250  11.644
59156W        W32224  41.465  36.351  13.018
59157W        W32225  11.752  22.397  11.898
59158W        W32226  42.091  43.669   1.632
59159W        W32227  39.802  44.477  12.918
59160W        W32228  43.030  37.277   1.797
59161W        W32229  38.716  30.958   3.949
59162W        W32230  39.979  20.998  14.484
59163W        W32231  25.281  12.117  10.659
59164W        W32232  38.624  12.911  14.414
59165W        W32233  31.198  13.708  10.470
59166W        W32234  15.142  43.790   1.993
59167W        W32235  26.918  43.321   4.837
59168W        W32236  28.241   2.950  14.419
59169W        W32237   1.614   7.405   2.758
59170W        W32238  13.888  17.091  14.433
59171W        W32239  40.332  25.035   2.342
59172W        W32240  12.768  44.043  14.782
59173W        W32241  18.293  44.405   2.081
59174W        W32242  44.044  15.212  10.784
59175W        W32243  21.456  39.482   4.667
59176W        W32244   6.968  15.622  14.684
59177W        W32245  14.793  39.927  12.857
59178W        W32246   3.291  14.280  12.980
59179W        W32247  15.101  30.888   3.054
59180W        W32248  43.975  24.775  14.624
59181W        W32249  22.923  15.619  14.523
59182W        W32250  36.943   8.507   4.289
59183W        W32251  14.827  10.198   1.442
59184W        W32252  13.497  22.733   1.471
59185W        W32253  37.581  44.932   0.927
59186W        W32254  17.019  41.490   4.978
59187W        W32255   6.641  42.874  12.944
59188W        W32256  42.537  32.477   3.284
59189W        W32257  12.939  32.103   1.495
59190W        W32258   3.644  31.471   1.378
59191W        W32259  33.873   8.310   0.196
59192W        W32260  38.815  16.195   1.420
59193W        W32261   5.951  39.500  14.620
59194W        W32262  13.843  20.474  13.937
59195W        W32263  22.034  12.236   1.861
59196W        W32264  24.168   8.208  13.804
59197W        W32265  37.529  42.822   4.023
59198W        W32266  34.528  15.152   3.458
59199W        W32267  26.265  34.376  11.170
59200W        W32268  27.648  29.657   1.378
59201W        W32269   8.636   3.820  12.341
59202W        W32270  10.968  11.590   4.054
59203W        W32271  28.280  30.950  14.483
59204W        W32272  12.226   4.235   4.563
59205W        W32273  42.539  13.857  13.940
59206W        W32274  14.858  31.506  10.443
59207W        W32275  36.138  27.942  11.131
59208W        W32276   0.009  34.437   1.676
59209W        W32277   1.946   8.628   5.140
59210W        W32278  35.147  43.122   3.361
59211W        W32279  13.782  44.283  13.143
59212W        W32280  23.917  11.395  11.118
59213W        W32281  38.213   0.235   2.943
59214W        W32282  37.940  41.975   1.132
59215W        W32283   8.714   2.982  10.646
59216W        W32284  42.304  14.240  11.867
59217W        W32285  11.280  30.465  14.355
59218W        W32286  21.476  42.890   3.833
59219W        W32287   9.778  15.229  14.457
59220W        W32288  39.410  33.274  14.918
59221W        W32289  21.097  21.566   4.435
59222W        W32290   3.044  14.232  10.665
59223W        W32291  18.661   7.653  13.363
59224W        W32292  10.908  39.786  13.850
59225W        W32293   5.863  35.948   2.706
59226W        W32294   9.210   9.625  11.187
59227W        W32295   7.017   1.023   3.387
59228W        W32296  25.113  13.645   4.493
59229W        W32297  24.676  44.416  14.786
59230W        W32298  34.273  31.488   2.299
59231W        W32299  27.177  14.703   0.430
59232W        W32300  16.009  27.735  11.468
59233W        W32301  26.488  39.883   0.293
59234W        W32302   8.346  23.473  14.049
59235W        W32303  40.138   4.731   4.183
59236W        W32304  15.693   6.910   1.251
59237W        W32305  16.109  25.139  10.802
59238W        W32306  42.477  15.131   4.596
59239W        W32307  12.664   9.358  12.941
59240W        W32308   8.105  44.349  12.530
59241W        W32309  23.673  11.354  11.572
59242W        W32310  17.437  39.093   1.346
59243W        W32311  37.457  25.271   1.728
59244W        W32312   8.273  33.041   4.588
59245W        W32313  20.064   5.569  12.472
59246W        W32314  31.907  12.616   2.459
59247W        W32315  30.255  21.266  12.462
59248W        W32316  43.859  40.397  13.933
59249W        W32317   1.404  10.323   4.195
59250W        W32318  10.075   8.484  13.481
59251W        W32319   7.912  31.098   1.710
59252W        W32320  22.511   1.896   3.251
59253W        W32321  14.087  30.228  14.922
59254W        W32322   4.764  40.757  13.255
59255W        W32323  16.186  31.136  14.213
59256W        W32324   0.830  19.025  13.524
59257W        W32325  30.549   6.016   5.085
59258W        W32326  40.322  24.534  14.496
59259W        W32327  20.361  16.252   4.569
59260W        W32328  42.723  20.641   4.123
59261W        W32329  41.838   7.905   3.773
59262W        W32330  25.093  21.395   0.103
59263W        W32331  40.076  18.089   1.827
59264W        W32332  44.413  28.554   3.315
59265W        W32333  24.253  34.962  14.046
59266W        W32334  11.133  31.194  13.796
59267W        W32335  30.117   4.972  13.859
59268W        W32336  34.418  12.186   3.757
59269W        W32337  43.495   4.841   1.890
59270W        W32338  35.581   1.893  12.129
59271W        W32339  22.545  32.927   2.258
59272W        W32340   2.293   6.955   1.786
59273W        W32341  17.594   5.783  14.487
59274W        W32342  15.875   1.875   2.035
59275W        W32343  19.055  13.325  13.390
59276W        W32344   6.888  20.973   4.102
59277W        W32345  21.933  11.901  11.549
59278W        W32346   3.368  34.141   4.440
59279W        W32347  41.681  27.219   2.565
59280W        W32348  27.924  30.625   5.131
59281W        W32349  25.632   8.900   4.567
59282W        W32350  13.253  27.994   2.215
59283W        W32351  22.751  31.141   3.852
59284W        W32352  44.868   5.959   0.377
59285W        W32353  31.561   2.241   0.830
59286W        W32354  37.634  21.637   3.153
59287W        W32355   7.231  30.623   3.922
59288W        W32356  30.844  27.961  11.551
59289W        W32357   8.414  43.660   1.904
59290W        W32358  38.484   1.052  13.908
59291W        W32359  34.021  32.602  14.072
59292W        W32360   2.993   5.377   3.221
59293W        W32361  22.759  15.265   4.641
59294W        W32362  38.837  28.537  13.048
59295W        W32363  14.256   4.250   0.284
59296W        W32364  35.459  36.447   2.800
59297W        W32365  34.368   7.757   3.789
59298W        W32366  21.594   7.432  11.545
59299W        W32367  20.018  13.051  11.797
59300W        W32368  22.044   0.878  14.948
59301W        W32369  33.127  41.805   0.776
59302W        W32370   5.242   0.986   4.621
59303W        W32371  13.716  44.854   0.861
59304W        W32372  16.565  23.558  10.843
59305W        W32373  39.807  39.831  13.396
59306W        W32374  23.892  20.097  10.726
59307W        W32375  44.257  26.906  11.983
59308W        W32376  43.790  37.307  14.921
59309W        W32377  44.315  40.770   2.836
59310W        W32378  25.119  41.775   2.233
59311W        W32379   9.763  12.190  10.618
59312W        W32380   7.785   7.423  12.932
59313W        W32381  12.829  16.072  12.604
59314W        W32382  21.588  23.134  11.283
59315W        W32383  33.190  32.929  14.420
59316W        W32384  29.577  25.070  12.700
59317W        W32385  17.776  43.514  13.666
59318W        W32386  22.485  27.687  12.208
59319W        W32387  39.507   5.360  13.215
59320W        W32388  39.602  29.922   3.322
59321W        W32389  31.992  30.737   4.694
59322W        W32390   0.741  21.082  12.580
59323W        W32391  22.431  10.767   4.962
59324W        W32392   4.870  29.733   1.861
59325W        W32393  31.702  36.397  11.473
59326W        W32394  20.135  15.311   2.141
59327W        W32395  34.396  38.709  14.288
59328W        W32396  34.915   4.769  14.225
59329W        W32397  42.586  10.843   1.827
59330W        W32398  28.110  23.140   0.730
59331W        W32399   8.770   0.368   3.397
59332W        W32400  11.618   0.909  13.126
59333W        W32401  30.508  16.780   4.859
59334W        W32402  18.259   0.891  13.506
59335W        W32403  13.153  16.038  13.831
59336W        W32404  12.079  12.020  12.474
59337W        W32405  34.447   0.894   0.507
59338W        W32406  21.169   9.100  13.689
59339W        W32407  30.609  40.807   1.642
59340W        W32408  12.638  43.406   4.615
59341W        W32409   8.442  27.997  11.790
59342W        W32410   0.263  26.581  10.328
59343W        W32411   0.535  34.931   3.255
59344W        W32412   3.154  10.138   2.340
59345W        W32413  32.444   9.736   3.187
59346W        W32414  43.858   6.924  11.329
59347W        W32415  17.048  40.898  13.250
59348W        W32416  10.268  43.559   2.871
59349W        W32417  19.032  31.012   1.716
59350W        W32418   8.425  43.269  12.512
59351W        W32419   8.744  18.640   4.155
59352W        W32420   6.187  27.490   2.180
59353W        W32421  12.141  40.960  14.491
59354W        W32422   8.184  18.224   4.692
59355W        W32423  13.711   7.621   0.368
59356W        W32424   2.904   8.318   2.989
59357W        W32425  28.632   7.129  14.880
59358W        W32426  33.432  24.277  13.445
59359W        W32427  34.419   4.775   2.138
59360W        W32428  35.682   5.937  12.093
59361W        W32429  26.392  42.857  11.322
59362W        W32430  40.783  23.608  14.905
59363W        W32431  20.946  32.933   4.710
59364W        W32432  18.574   6.816  14.411
59365W        W32433   9.065  11.781  14.085
59366W        W32434   2.292   4.771   1.482
59367W        W32435  42.487  23.100   1.752
59368W        W32436   5.407  11.090  11.076
59369W        W32437  21.591  23.421  10.459
59370W        W32438  17.313   9.406  14.932
59371W        W32439   3.490   7.355  14.000
59372W        W32440   4.360   3.321  14.517
59373W        W32441  39.990  27.636  14.079
59374W        W32442  21.777   9.897  10.755
59375W        W32443  13.748  36.794  10.733
59376W        W32444  31.919  12.815  13.626
59377W        W32445  43.933  37.812  14.001
59378W        W32446  17.284  41.369   1.252
59379W        W32447   6.706  10.106  11.184
59380W        W32448   4.486  11.617  12.077
59381W        W32449  30.003  14.800  12.034
59382W        W32450  35.147   2.280  14.194
59383W        W32451  21.656  19.122  14.408
59384W        W32452  26.016  22.745   4.536
59385W        W32453  36.378  19.703  12.890
59386W        W32454   5.884  25.661   0.355
59387W        W32455  10.632  33.866   4.196
59388W        W32456  44.404  10.812   1.434
59389W        W32457  20.115  14.597   3.778
59390W        W32458   3.651   8.158   4.675
59391W        W32459  17.604  41.970   3.333
59392W        W32460  15.205  14.740   1.014
59393W        W32461  28.591   4.922   2.684
59394W        W32462  44.366  40.077   1.650
59395W        W32463  22.838  24.700  10.618
59396W        W32464  20.171  36.209  12.388
59397W        W32465  40.822  16.254  11.849
59398W        W32466  20.756  38.543   2.730
59399W        W32467  18.153   1.763   2.325
59400W        W32468  26.599  15.202   1.036
59401W        W32469  23.167  36.623   1.049
59402W        W32470  15.664  18.518   1.373
59403W        W32471  38.965  34.353   5.028
59404W        W32472  40.690   4.770   1.377
59405W        W32473  14.698  24.525  12.943
59406W        W32474   6.713   2.157   4.138
59407W        W32475  29.964  28.992  10.917
59408W        W32476  30.792  33.860  11.219
59409W        W32477  18.399  30.596   3.770
59410W        W32478  25.150   0.687  14.886
59411W        W32479   2.153  44.184  11.503
59412W        W32480   0.862  21.360  13.037
59413W        W32481  34.170  26.684  12.006
59414W        W32482  34.299  20.572   2.273
59415W        W32483  17.371  13.702  14.560
59416W        W32484  16.124  32.530  13.473
59417W        W32485  10.240  43.430  12.142
59418W        W32486  10.276  42.900   4.704
59419W        W32487  43.545  36.613  13.756
59420W        W32488  18.164  12.092  13.607
59421W        W32489  20.717  10.753  14.913
59422W        W32490  31.093   8.505   4.223
59423W        W32491   7.460  29.102   0.252
59424W        W32492  38.691  27.380  13.399
59425W        W32493  11.671  19.593  12.377
59426W        W32494  23.046   7.387   0.010
59427W        W32495  44.056   2.833  10.221
59428W        W32496  40.549  20.816   1.686
59429W        W32497  18.179  34.993   1.386
59430W        W32498  40.006  16.645  14.145
59431W        W32499  31.401  22.824  11.850
59432W        W32500  16.668  35.063   1.048
59433W        W32501  26.916  28.950   0.290
59434W        W32502  20.405  22.752   1.131
59435W        W32503  28.680   6.741   4.753
59436W        W32504  25.744  38.511   2.301
59437W        W32505  11.846   0.475   4.817
59438W        W32506   8.537   1.015   0.957
59439W        W32507   1.309   9.338  10.676
59440W        W32508  41.310  34.553   4.930
59441W        W32509  11.295   9.573  11.076
59442W        W32510   4.795  19.499  10.710
59443W        W32511  30.871  38.016   3.568
59444W        W32512  44.856  16.173   1.316
59445W        W32513  42.419  43.187   5.085
59446W        W32514  28.210  12.789  13.064
59447W        W32515  38.047   0.871   9.729
59448W        W32516   0.493  41.101  12.549
59449W        W32517   2.829  19.085  11.494
59450W        W32518  15.618  39.284  11.594
59451W        W32519  17.986  14.285  12.876
59452W        W32520   2.504  15.763  14.934
59453W        W32521  39.833  34.968  12.562
59454W        W32522  41.766  43.294   1.822
59455W        W32523  33.196  32.663  11.162
59456W        W32524  40.518  24.339  12.059
59457W        W32525   6.214   4.718  10.268
59458W        W32526  24.196  32.484  10.831
59459W        W32527  32.899  36.511   4.116
59460W        W32528  41.476  31.083   1.340
59461W        W32529  14.676  40.130  13.310
59462W        W32530   1.117  39.814  10.761
59463W        W32531  43.492  37.051  14.525
59464W        W32532  19.239  29.425  12.593
59465W        W32533  18.758  40.088   3.180
59466W        W32534   4.735  20.011  10.665
59467W        W32535  29.917   4.804  12.468
59468W        W32536  35.427  39.407   4.712
59469W        W32537  35.581  13.719   2.634
59470W        W32538  16.357   1.296   1.337
59471W        W32539  34.663  10.624  12.355
59472W        W32540  24.737  17.318  12.996
59473W        W32541   5.666  43.492   1.820
59474W        W32542   2.758  26.853  13.010
59475W        W32543  20.278  42.202   3.566
59476W        W32544  25.339  22.622   5.173
59477W        W32545  13.485  16.563   2.318
59478W        W32546  26.342  10.564   3.268
59479W        W32547   2.695  43.451  11.188
59480W        W32548   1.295  14.866  12.963
59481W        W32549   6.890  23.420   1.771
59482W        W32550  33.723   7.788   0.170
59483W        W32551  37.357  44.738   0.459
59484W        W32552  19.537  34.716   2.896
59485W        W32553  26.243   6.253   1.958
59486W        W32554   8.434  28.984  11.984
59487W        W32555  31.158  11.144  11.139
59488W        W32556  18.561  38.863  13.442
59489W        W32557  44.798  43.283   3.208
59490W        W32558  20.229  25.008  11.184
59491W        W32559  20.988  25.759   3.235
59492W        W32560  19.319  11.126  11.909
59493W        W32561  34.139  16.632  13.302
59494W        W32562  23.135  26.622   0.806
59495W        W32563  29.125   2.473   4.705
59496W        W32564  11.273   6.230   1.237
59497W        W32565   7.281  36.251   0.666
59498W        W32566  28.412  13.613   1.815
59499W        W32567  30.468  14.787  10.716
59500W        W32568  23.179  30.869  14.728
59501W        W32569   1.329  42.538  13.191
59502W        W32570  38.768  31.359   2.732
59503W        W32571   3.146  43.951   3.925
59504W        W32572  29.862  12.448  14.076
59505W        W32573  30.615   0.692   3.211
59506W        W32574  10.341   7.465   0.516
59507W        W32575   9.730  18.653  12.858
59508W        W32576  41.390  28.005   2.003
59509W        W32577  42.358  22.394   1.017
59510W        W32578   1.938  17.081   4.178
59511W        W32579  43.151  21.046   1.383
59512W        W32580  41.862   5.722   0.170
59513W        W32581  41.640   9.260  12.501
59514W        W32582   1.231  20.691   3.020
59515W        W32583  18.718  39.230   2.860
59516W        W32584  14.774  24.923   3.550
59517W        W32585  35.968   3.169  14.961
59518W        W32586  30.966  11.803  12.401
59519W        W32587  40.215  43.239  14.379
59520W        W32588   2.542  30.160   0.960
59521W        W32589  31.499  34.936  13.431
59522W        W32590  11.969  42.692  10.934
59523W        W32591   1.812  11.456  12.585
59524W        W32592   7.811  44.708   4.278
59525W        W32593  14.238  36.834   4.796
59526W        W32594  11.249  42.505  12.318
59527W        W32595  38.977  35.326  12.942
59528W        W32596  12.283   2.265  12.538
59529W        W32597  23.040  20.178   4.071
59530W        W32598  37.451  38.987  11.975
59531W        W32599   2.620  12.364   2.857
59532W        W32600   3.000   4.069  13.484
59533W        W32601  12.634  21.378  13.916
59534W        W32602  12.375  32.195   2.728
59535W        W32603   9.207  39.261   5.261
59536W        W32604  21.802  26.077  14.070
59537W        W32605  19.718  22.955   3.683
59538W        W32606   5.765  41.815  11.289
59539W        W32607  43.034  19.202   2.840
59540W        W32608   6.466  40.974  13.981
59541W        W32609  27.670  15.707   0.415
59542W        W32610  19.543  15.535  10.715
59543W        W32611  10.889   5.260  11.234
59544W        W32612  17.028  27.687  14.016
59545W        W32613   7.651  22.558  13.995
59546W        W32614  13.099  38.180  12.942
59547W        W32615  18.974  15.692  12.888
59548W        W32616  40.672  17.366  11.113
59549W        W32617  33.817   8.869   3.574
59550W        W32618  20.046  13.323   0.912
59551W        W32619  21.462  14.219  13.537
59552W        W32620   8.206   6.687   2.712
59553W        W32621  24.212  17.072   1.011
59554W        W32622  15.621  32.585   0.762
59555W        W32623   4.852  12.608   1.387
59556W        W32624  26.983  35.965   2.238
59557W        W32625   4.293  25.474   2.669
59558W        W32626  36.454  35.766   4.475
59559W        W32627  39.472  37.802  14.312
59560W        W32628  39.552  20.650   4.143
59561W        W32629  18.219   0.045  12.060
59562W        W32630  34.719  19.479   1.079
59563W        W32631  16.837  10.114   2.823
59564W        W32632  44.621   5.845  12.792
59565W        W32633  42.548  20.784  13.850
59566W        W32634  22.340  24.646  11.486
59567W        W32635   0.406  22.181   3.665
59568W        W32636  35.911   6.474  11.132
59569W        W32637  39.964   0.326  12.946
59570W        W32638  16.798  35.644  13.936
59571W        W32639  38.831  28.202  13.461
59572W        W32640  24.642  36.296   3.494
59573W        W32641   9.802   4.444   3.088
59574W        W32642   6.198  44.460   3.407
59575W        W32643  27.528   0.666   3.702
59576W        W32644  38.559  17.257   2.406
59577W        W32645  16.141  17.845  11.683
59578W        W32646   9.949  32.035   0.234
59579W        W32647   9.511  34.388  12.237
59580W        W32648  39.334  22.660  10.243
59581W        W32649  24.992   5.728  11.429
59582W        W32650   5.495   9.704   0.826
59583W        W32651  15.626  40.168   0.054
59584W        W32652   9.269  16.273   4.248
59585W        W32653  32.642   8.467   2.900
59586W        W32654  20.898  38.390  10.224
59587W        W32655  24.200  27.474   2.901
59588W        W32656  19.561  28.944  13.078
59589W        W32657  26.408   0.351  14.319
59590W        W32658   7.497  32.860  11.564
59591W        W32659  31.263  25.157   4.642
59592W        W32660  31.647  38.017   0.438
59593W        W32661   9.223   2.246  11.285
59594W        W32662  20.456  32.535   2.940
59595W        W32663  27.574  26.732   1.406
59596W        W32664   5.937   4.558   0.446
59597W        W32665   7.078  39.979  14.921
59598W        W32666  11.778  28.071   1.207
59599W        W32667   6.758  39.578   1.328
59600W        W32668  14.487  38.274   2.218
59601W        W32669   9.883  21.651   4.794
59602W        W32670   6.511  25.968   0.066
59603W        W32671  35.443   7.997  10.626
59604W        W32672   9.227  25.958   0.382
59605W        W32673  20.563  13.875   0.268
59606W        W32674   5.470  27.685   3.073
59607W        W32675  20.688   6.863   3.404
59608W        W32676  28.352  30.401   2.115
59609W        W32677  16.631  34.465   2.936
59610W        W32678  11.742  28.955  13.309
59611W        W32679  15.349  19.319   2.249
59612W        W32680   1.364   7.667  12.889
59613W        W32681  11.207  10.747   0.743
59614W        W32682  24.507  18.820  12.004
59615W        W32683   9.099  23.436  14.669
59616W        W32684  13.344  24.184   3.341
59617W        W32685   4.532   8.668  12.064
59618W        W32686  25.167   3.988  13.606
59619W        W32687  36.866  24.572  14.489
59620W        W32688   6.815  23.435  10.729
59621W        W32689   6.656  26.463  12.458
59622W        W32690   3.409  31.466   3.643
59623W        W32691  39.955  38.301  13.856
59624W        W32692  31.496   6.288  14.466
59625W        W32693   2.476  40.354  11.646
59626W        W32694  12.947  10.208  11.084
59627W        W32695  29.234   8.347   1.490
59628W        W32696  35.471  36.934  14.503
59629W        W32697  25.470  11.341   4.446
59630W        W32698  41.433  18.722   5.103
59631W        W32699   4.471  39.505  14.407
59632W        W32700  43.833  29.445  12.983
59633W        W32701  20.446  31.164   2.780
59634W        W32702  19.320  11.384   4.177
59635W        W32703  28.248  38.952   1.246
59636W        W32704   1.689  38.598  13.269
59637W        W32705  33.557  15.915  13.006
59638W        W32706   9.768  42.917  13.237
59639W        W32707   5.822  25.676  11.103
59640W        W32708   3.972  14.614   3.750
59641W        W32709  19.007  14.771  14.931
59642W        W32710  44.398   5.181  14.864
59643W        W32711  37.289   4.477  10.923
59644W        W32712   3.440  40.065   2.232
59645W        W32713  22.651  11.858  10.718
59646W        W32714   8.648   7.554  14.420
59647W        W32715   4.384   8.598   2.843
59648W        W32716   5.804   6.747  11.478
59649W        W32717  33.808  35.884   1.627
59650W        W32718   0.423  17.478   4.066
59651W        W32719  40.368  14.015   4.355
59652W        W32720  44.064  17.681  11.626
59653W        W32721   2.472  37.356  10.579
59654W        W32722  37.646  21.474  12.108
59655W        W32723  22.740   5.716  12.033
59656W        W32724   7.283  42.607  12.269
59657W        W32725  41.911  15.004   4.087
59658W        W32726  32.469  37.569  14.322
59659W        W32727  15.047   0.386   2.713
59660W        W32728  15.256  41.239   3.133
59661W        W32729  28.685  13.807   2.773
59662W        W32730  44.295  27.952  10.411
59663W        W32731  16.605  38.491   4.123
59664W        W32732  39.228  23.146  12.453
59665W        W32733  30.109   2.375  10.736
59666W        W32734  32.934  11.589   1.786
59667W        W32735   7.401  24.687  14.431
59668W        W32736   6.243  32.539   3.825
59669W        W32737  32.943  14.980   1.362
59670W        W32738  25.093  22.944  12.758
59671W        W32739   7.286  13.859  12.329
59672W        W32740  15.302  44.198   0.233
59673W        W32741  26.130  24.553  12.545
59674W        W32742  27.173  27.872   0.083
59675W        W32743  38.934  25.113   1.882
59676W        W32744  40.697  10.300  11.615
59677W        W32745  36.383  28.645   2.192
59678W        W32746  21.939  24.626   1.446
59679W        W32747  36.213  15.792  10.087
59680W        W32748  33.305  15.275  10.539
59681W        W32749  28.038  18.000  14.860
59682W        W32750  12.738  23.563   4.559
59683W        W32751  37.432   0.008   2.676
59684W        W32752  32.676  38.135  11.293
59685W        W32753   7.542  12.552   3.772
59686W        W32754  23.093   9.498   3.088
59687W        W32755  29.697  33.391   0.967
59688W        W32756   5.086  30.886   1.363
59689W        W32757  13.030  19.734   3.693
59690W        W32758  33.908  25.943   4.013
59691W        W32759  35.418  34.576  11.017
59692W        W32760  18.536  19.560  11.705
59693W        W32761   9.913  30.215  14.193
59694W        W32762  40.848  20.621   3.753
59695W        W32763  26.224  42.348   3.271
59696W        W32764  25.022  41.306   0.291
59697W        W32765  13.348  35.745  14.179
59698W        W32766  35.319  10.822   1.615
59699W        W32767  30.457  44.263   0.765
59700W        W32768   0.538  20.243  14.437
59701W        W32769  10.238  40.275  12.211
59702W        W32770  12.674  12.151   4.141
59703W        W32771  42.293  36.302   1.319
59704W        W32772  11.750  10.097  13.595
59705W        W32773  12.122  22.006   3.679
59706W        W32774   4.639  38.416   3.602
59707W        W32775  40.550  20.242  14.039
59708W        W32776   4.462  44.003  13.078
59709W        W32777   7.502  39.476   9.962
59710W        W32778  40.395  24.511  10.604
59711W        W32779  32.551  35.503  14.306
59712W        W32780  43.637  14.263   3.036
59713W        W32781  29.416  36.431  13.829
59714W        W32782  21.191  20.251   4.626
59715W        W32783   2.515  42.822   4.058
59716W        W32784  12.526   9.191   2.819
59717W        W32785  40.748  17.672   0.801
59718W        W32786  44.867  18.777  14.379
59719W        W32787   8.526  34.590   0.272
59720W        W32788  10.065  32.509  13.848
59721W        W32789  36.930   0.932   0.906
59722W        W32790  21.158  14.501  13.056
59723W        W32791   5.005  27.589  10.092
59724W        W32792  24.069  29.546  13.937
59725W        W32793   8.096   4.846   0.402
59726W        W32794   0.483  32.293   0.939
59727W        W32795   0.914  23.924  10.261
59728W        W32796  17.090  43.628  11.437
59729W        W32797  10.285   3.081   4.290
59730W        W32798  11.371  41.791   4.132
59731W        W32799  42.905   5.823  11.917
59732W        W32800   7.512  16.118   3.676
59733W        W32801  43.309  37.528  13.437
59734W        W32802  32.460  19.423  10.355
59735W        W32803  35.832   0.245   0.552
59736W        W32804  31.376  31.353   1.186
59737W        W32805  14.791  36.311  14.891
59738W        W32806  23.106  38.833   3.361
59739W        W32807  22.175  15.855  13.012
59740W        W32808  28.420   9.156  12.665
59741W        W32809  39.816  16.995   0.459
59742W        W32810  42.048   7.432   3.766
59743W        W32811  21.122  21.599   0.241
59744W        W32812  28.474  14.192   5.200
59745W        W32813  44.661   3.858   1.414
59746W        W32814  19.896   2.746   2.694
59747W        W32815  38.871  11.068  13.130
59748W        W32816   4.302  19.512   5.003
59749W        W32817   5.912   1.936  14.845
59750W        W32818  17.979   5.916  12.339
59751W        W32819   5.414  25.008   4.606
59752W        W32820  35.671  43.199   5.048
59753W        W32821   5.164  36.088  10.887
59754W        W32822  18.406  43.067   5.064
59755W        W32823  16.390  21.114  13.034
59756W        W32824  11.718  31.435   1.968
59757W        W32825  40.057  20.993  15.000
59758W        W32826  38.086  27.173  14.718
59759W        W32827  14.361  17.263  13.489
59760W        W32828  31.893   7.470   3.223
59761W        W32829   5.215  24.205   3.293
59762W        W32830  17.871  19.536  11.109
59763W        W32831  41.369  11.251   4.065
59764W        W32832  20.331  41.530   1.016
59765W        W32833  11.409  34.386  13.039
59766W        W32834  27.447  32.911   2.856
59767W        W32835  39.031  36.125  13.480
59768W        W32836  24.232  14.114   1.263
59769W        W32837  14.753  17.077  10.571
59770W        W32838  33.673  40.873   3.338
59771W        W32839  44.998   8.169   3.199
59772W        W32840  36.210  26.185   0.423
59773W        W32841   7.480  28.747  14.070
59774W        W32842   8.336  43.954  13.123
59775W        W32843  39.932   8.180  14.372
59776W        W32844   6.360  16.841   2.247
59777W        W32845  11.779  26.263   0.233
59778W        W32846  15.198  37.449  13.005
59779W        W32847  32.581  40.081  11.949
59780W        W32848  21.775  43.810  12.000
59781W        W32849  21.964   3.891   3.686
59782W        W32850  23.948  41.351  13.758
59783W        W32851  13.057  32.480   2.307
59784W        W32852   6.296  38.595   0.693
59785W        W32853  15.065  32.065  13.841
59786W        W32854  24.016  22.395  11.523
59787W        W32855   2.626   9.652  11.920
59788W        W32856  30.756  31.948   1.310
59789W        W32857   1.732  30.643   0.918
59790W        W32858  41.886  12.347   3.606
59791W        W32859  10.414  38.306   4.225
59792W        W32860   0.201  10.243   2.794
59793W        W32861   3.284  15.005   0.429
59794W        W32862  14.650  41.161   5.123
59795W        W32863  16.646   2.231   3.707
59796W        W32864  42.222  44.915   0.921
59797W        W32865  14.672  11.885   1.702
59798W        W32866  10.261  37.861  14.525
59799W        W32867   0.302  16.136   0.349
59800W        W32868   4.714  11.082  10.481
59801W        W32869  18.810  39.394   1.346
59802W        W32870  16.116  22.747  13.838
59803W        W32871  36.124   1.357  14.847
59804W        W32872  14.114  43.358  14.156
59805W        W32873  16.487  31.912   0.267
59806W        W32874   8.661  17.310   2.745
59807W        W32875  28.577  20.613   0.244
59808W        W32876  33.075  31.517   2.697
59809W        W32877  13.664  33.789   3.751
59810W        W32878   4.713  19.784   1.829
59811W        W32879  26.435  31.476  14.995
59812W        W32880   5.406  42.252   1.334
59813W        W32881   8.365  35.401   0.143
59814W        W32882  28.652   3.218   2.971
59815W        W32883  15.192  43.274  11.530
59816W        W32884   3.363   3.835   0.474
59817W        W32885  29.432   5.271   2.199
59818W        W32886  14.243  34.069   2.793
59819W        W32887   3.630  15.583  13.655
59820W        W32888  36.890  30.252   1.899
59821W        W32889   0.334  44.679  13.818
59822W        W32890  10.091  29.644   2.206
59823W        W32891  34.362  19.068   2.376
59824W        W32892   9.870   1.976   0.272
59825W        W32893   3.986  24.212  14.783
59826W        W32894   9.408  11.487  10.373
59827W        W32895  22.005  11.426  12.480
59828W        W32896   8.808  10.430  13.777
59829W        W32897  19.778  35.062   4.450
59830W        W32898  42.403   2.773  11.689
59831W        W32899   6.872  18.734   3.396
59832W        W32900  32.588  33.282  11.619
59833W        W32901  12.033  22.254   3.237
59834W        W32902  36.919  39.892   4.194
59835W        W32903  29.963   4.517   3.270
59836W        W32904   0.292  21.602  13.864
59837W        W32905  35.464  38.771   1.837
59838W        W32906  18.264  26.448   0.871
59839W        W32907   9.471  30.570  13.016
59840W        W32908   8.636  31.966  13.767
59841W        W32909   5.193  23.507  11.182
59842W        W32910  20.191  35.392   4.190
59843W        W32911  32.850  19.077   4.806
59844W        W32912  40.252   1.586  11.498
59845W        W32913  15.688  28.905  12.914
59846W        W32914  14.728   6.267  12.349
59847W        W32915  35.083  16.772  10.702
59848W        W32916  34.454  14.438  11.892
59849W        W32917  26.226   8.349  10.625
59850W        W32918  24.387  14.292   1.816
59851W        W32919  27.536   0.564   4.569
59852W        W32920  29.533  44.330   4.617
59853W        W32921   3.718  40.371  12.196
59854W        W32922  29.174  17.033  13.292
59855W        W32923  14.407   2.878   4.618
59856W        W32924  33.351  40.841  14.585
59857W        W32925  41.353  14.347  12.504
59858W        W32926  39.677  22.001   0.491
59859W        W32927  37.826  10.080   2.414
59860W        W32928   3.305  44.448   4.699
59861W        W32929  21.724  36.613   2.195
59862W        W32930  31.046  23.150   0.827
59863W        W32931  36.625  34.574   2.848
59864W        W32932  37.635  19.851  11.160
59865W        W32933  19.453   5.934   4.625
59866W        W32934  17.875  38.523  12.807
59867W        W32935  23.941   9.403   1.780
59868W        W32936  34.035  37.523   4.306
59869W        W32937  11.966  13.672   4.807
59870W        W32938  40.025  37.506  14.535
59871W        W32939   9.628  34.947  14.766
59872W        W32940  19.115  27.464   3.210
59873W        W32941  13.593  39.549   1.912
59874W        W32942   2.298  44.540   2.197
59875W        W32943   0.954  19.486  11.129
59876W        W32944  13.668  28.640   0.270
59877W        W32945   0.743   0.703  10.694
59878W        W32946  27.520  14.264  11.175
59879W        W32947  26.694  34.845   0.361
59880W        W32948  34.285   8.299   1.277
59881W        W32949  13.168  23.918  10.769
59882W        W32950  18.030  25.534  13.944
59883W        W32951  25.146  21.148  11.316
59884W        W32952  18.761  35.956  10.738
59885W        W32953  25.200  29.953  10.687
59886W        W32954  17.351  15.793  11.105
59887W        W32955  30.971   0.916   4.008
59888W        W32956  36.541  42.346   3.264
59889W        W32957  24.159  41.544   4.633
59890W        W32958  21.647  42.383   3.930
59891W        W32959  18.153  34.921   1.894
59892W        W32960  34.039  11.716   0.170
59893W        W32961  24.568  25.560  13.783
59894W        W32962   9.896  36.652  12.023
59895W        W32963  29.573   8.985   2.389
59896W        W32964  37.932  10.291   0.162
59897W        W32965  36.336  44.374   4.718
59898W        W32966  31.886  36.583   0.008
59899W        W32967  23.078  10.303   1.126
59900W        W32968   2.206   1.191  10.674
59901W        W32969  26.163   9.301   3.790
59902W        W32970  11.244  21.505  12.939
59903W        W32971  23.034  19.138   2.196
59904W        W32972   4.786  41.488   0.208
59905W        W32973  40.365  17.007   2.124
59906W        W32974   4.851  32.518   0.497
59907W        W32975  42.952   6.132  11.530
59908W        W32976  38.817  42.736   0.323
59909W        W32977  26.602  24.203   2.267
59910W        W32978  34.879  33.226   4.566
59911W        W32979  39.235   4.396   0.085
59912W        W32980  26.637  20.954  13.522
59913W        W32981  27.123   6.966   3.995
59914W        W32982   5.259  16.094  14.800
59915W        W32983  20.298  40.888   3.777
59916W        W32984  34.880  15.193   3.821
59917W        W32985  40.816  14.438  12.049
59918W        W32986  28.948  26.675   1.177
59919W        W32987  36.571  44.018  14.998
59920W        W32988   8.752   8.152  13.478
59921W        W32989   2.408  21.053  10.904
59922W        W32990   8.834  22.213   9.867
59923W        W32991  32.345  13.237  11.595
59924W        W32992  43.783  32.078   4.544
59925W        W32993  24.997  29.601   3.706
59926W        W32994  22.132  20.229   4.943
59927W        W32995   2.584  25.589  13.759
59928W        W32996   6.384  40.969  12.044
59929W        W32997   8.207   0.275  11.444
59930W        W32998   9.305  34.118  14.647
59931W        W32999  20.304   7.393   1.796
59932W        W33000  17.209  20.288  10.774
59933W        W33001  44.848  28.539  10.663
59934W        W33002  31.619  21.286  12.948
59935W        W33003  20.664  34.375  12.473
59936W        W33004  27.215  29.116   3.619
59937W        W33005  33.925  43.716  11.536
59938W        W33006   2.301  33.322   1.390
59939W        W33007  25.522  12.319  11.112
59940W        W33008  11.735  21.485   0.390
59941W        W33009  38.452  23.110  13.819
59942W        W33010  20.412  16.090   3.700
59943W        W33011  20.245  27.482  14.251
59944W        W33012  38.682   7.597   0.893
59945W        W33013  15.685  42.784   4.830
59946W        W33014  44.428  12.117  14.091
59947W        W33015  36.436  35.268  10.458
59948W        W33016  43.189  44.930   0.830
59949W        W33017  23.933  29.774  11.109
59950W        W33018  17.194  36.317   0.844
59951W        W33019  21.050  22.516  14.787
59952W        W33020  13.627  10.735  13.539
59953W        W33021  41.825  27.665   3.310
59954W        W33022  14.794   8.204   3.008
59955W        W33023  16.182  31.550  12.650
59956W        W33024  34.084  29.935  10.708
59957W        W33025  12.009  14.650  13.875
59958W        W33026  30.465  13.340  13.014
59959W        W33027   9.275  18.177   0.870
59960W        W33028  27.915   0.309  14.742
59961W        W33029  39.373  28.350   3.734
59962W        W33030   2.446  33.500  13.932
59963W        W33031  14.412   4.851  13.997
59964W        W33032  40.243  29.331  11.063
59965W        W33033  43.304  36.528   2.758
59966W        W33034  30.955  15.642   3.779
59967W        W33035  40.716  33.197  14.882
59968W        W33036  31.345  22.748   3.280
59969W        W33037   4.497  12.809   0.735
59970W        W33038  10.389  15.670  12.047
59971W        W33039  20.975  18.092  13.977
59972W        W33040  32.534   6.790   1.010
59973W        W33041   8.639  31.445  10.193
59974W        W33042  22.813  11.558  10.313
59975W        W33043  42.920  40.019   0.862
59976W        W33044  16.582  30.392   0.881
59977W        W33045  20.018  37.852  14.492
59978W        W33046  27.272   2.359  11.881
59979W        W33047  24.026  25.114   0.313
59980W        W33048  14.836  24.319   2.251
59981W        W33049  35.095  26.882   5.242
59982W        W33050  21.330  32.415   4.227
59983W        W33051  20.309  43.308   1.362
59984W        W33052  17.690   6.022   1.289
59985W        W33053   8.759  21.453  13.042
59986W        W33054  23.969  41.111   4.452
59987W        W33055  40.050  22.035   0.891
59988W        W33056  11.308   7.349  11.630
59989W        W33057  27.730   8.861   0.904
59990W        W33058  38.930  22.489   4.137
59991W        W33059  10.753   7.869  12.581
59992W        W33060  11.114  34.948   2.290
59993W        W33061  18.434  10.052  14.377
59994W        W33062   6.858   4.791   0.731
59995W        W33063  24.654  37.456  12.842
59996W        W33064  16.155  28.592   4.150
59997W        W33065  41.138   4.385  11.609
59998W        W33066  33.353  11.393  14.007
59999W        W33067  24.603   3.522   0.437
60000W        W33068  22.278  43.243   2.761
60001W        W33069  12.408  14.806   0.160
60002W        W33070  40.322  27.030  12.161
60003W        W33071  20.147  40.373   3.114
60004W        W33072  40.573  35.881  12.824
60005W        W33073   7.220   5.816  12.004
60006W        W33074  14.358   0.955  14.844
60007W        W33075  14.283   4.794  12.150
60008W        W33076  18.753   4.724  13.854
60009W        W33077  21.092   4.161  11.977
60010W        W33078  13.116  43.432  14.926
60011W        W33079  19.211  42.061  13.939
60012W        W33080  10.240  35.838  10.574
60013W        W33081  29.921  28.702  12.571
60014W        W33082  42.394  13.453   1.432
60015W        W33083   4.862  34.125   9.996
60016W        W33084  18.938   5.398   0.448
60017W        W33085  41.310  36.045   3.147
60018W        W33086  21.475  17.592   0.838
60019W        W33087  21.805  43.076   2.870
60020W        W33088  34.972  32.073   2.776
60021W        W33089  33.566  16.101  12.371
60022W        W33090  44.999   4.837  10.304
60023W        W33091   0.846  44.007   2.706
60024W        W33092  14.791  37.843   3.462
60025W        W33093  40.536  10.515  10.322
60026W        W33094   2.500  41.450   4.696
60027W        W33095  28.120  27.576  12.182
60028W        W33096  39.306   7.263  12.610
60029W        W33097  39.907   6.623   0.142
60030W        W33098   2.519  25.187   3.198
60031W        W33099  44.867  25.472   0.754
60032W        W33100  38.834  33.590   0.823
60033W        W33101  42.925  30.525   3.793
60034W        W33102  10.080  44.219  12.744
60035W        W33103  43.970  19.502   0.953
60036W        W33104   6.529  27.521   2.839
60037W        W33105  31.827  44.922  12.834
60038W        W33106  14.284  22.996  10.563
60039W        W33107  15.555   6.961  10.727
60040W        W33108  37.114  17.665  11.603
60041W        W33109   0.069  26.105   4.440
60042W        W33110  15.519  14.713  14.819
60043W        W33111  34.747  37.933  11.403
60044W        W33112  17.220  27.456   2.745
60045W        W33113  30.939   3.676   2.621
60046W        W33114  44.037  37.118  14.509
60047W        W33115  37.050  29.365   3.229
60048W        W33116  34.892  41.884   1.430
60049W        W33117  21.476  10.788  10.937
60050W        W33118  26.897  22.255   4.190
60051W        W33119  28.375  29.458  14.809
60052W        W33120  22.967  13.595  14.455
60053W        W33121   5.263  19.380  12.388
60054W        W33122   4.766  12.590   2.217
60055W        W33123  21.178  25.468  12.018
60056W        W33124   1.173  39.362   4.767
60057W        W33125  21.030  14.077  10.400
60058W        W33126  21.308  16.651   0.337
60059W        W33127  11.515  12.618  14.538
60060W        W33128  19.246  42.558  11.526
60061W        W33129  13.111   7.962   0.581
60062W        W33130  11.735  22.757  12.858
60063W        W33131  34.911   4.891   0.632
60064W        W33132   4.009   5.501   3.055
60065W        W33133   1.026  20.289   0.372
60066W        W33134  32.366  31.086   4.638
60067W        W33135  34.103  39.564  13.018
60068W        W33136  30.113  42.829   3.883
60069W        W33137  10.463  39.850   1.143
60070W        W33138  25.620  33.913   1.621
60071W        W33139   5.713  10.246   0.201
60072W        W33140  44.856   8.917  11.788
60073W        W33141  17.480   5.867  12.242
60074W        W33142  38.872  41.236  13.929
60075W        W33143  14.820  19.728   4.982
60076W        W33144  22.003  22.410  14.813
60077W        W33145   0.784   9.088   4.169
60078W        W33146  36.750  29.941   3.903
60079W        W33147  15.852  32.722  12.088
60080W        W33148   1.033  21.094   2.749
60081W        W33149  44.387  16.782  12.010
60082W        W33150  33.125  18.171  11.887
60083W        W33151   6.273  14.726   3.386
60084W        W33152  11.271   0.921  13.515
60085W        W33153  34.447   5.686   4.894
60086W        W33154  12.097  41.848   4.595
60087W        W33155  24.077  44.594   4.192
60088W        W33156  10.382   1.180  11.595
60089W        W33157  22.715  20.853   0.178
60090W        W33158   4.769  32.002  10.514
60091W        W33159  32.485  31.939   4.415
60092W        W33160  20.119  14.877  13.944
60093W        W33161   1.843   4.314  11.437
60094W        W33162  37.181   7.755   0.416
60095W        W33163  42.980  33.161   4.191
60096W        W33164  41.677  28.957   2.003
60097W        W33165   3.939  37.606   3.973
60098W        W33166  43.940  38.386  10.706
60099W        W33167   7.194   7.987  13.512
60100W        W33168   2.728  38.279  12.309
60101W        W33169   7.198  38.232  11.919
60102W        W33170  30.287   7.646   0.777
60103W        W33171  19.564   8.193   1.937
60104W        W33172  44.389  43.780   1.686
60105W        W33173  37.942  35.442  14.907
60106W        W33174  30.535  42.415   2.204
60107W        W33175  31.326  30.054   1.928
60108W        W33176   6.878   9.646  11.402
60109W        W33177  44.947   2.728   2.474
60110W        W33178  25.636  30.486   2.203
60111W        W33179  13.072  34.260  12.135
60112W        W33180  16.682  29.851  12.090
60113W        W33181  20.326  16.728  10.485
60114W        W33182   9.136  21.295   0.816
60115W        W33183  33.518  11.558   4.624
60116W        W33184  12.207  22.634  12.607
60117W        W33185  29.252  15.209  11.405
60118W        W33186  39.583  17.219   1.793
60119W        W33187   5.690  17.695   1.272
60120W        W33188  36.902  31.232   0.329
60121W        W33189   6.311  31.036  14.284
60122W        W33190   2.789   7.291   0.784
60123W        W33191  41.760  17.075  13.855
60124W        W33192  20.996  27.621  12.119
60125W        W33193  15.265  37.415  12.093
60126W        W33194  34.479  33.889   2.347
60127W        W33195  14.955  19.477   3.566
60128W        W33196  19.173  11.873   2.437
60129W        W33197  22.090   1.259  10.700
60130W        W33198  42.844  17.271  13.022
60131W        W33199  11.831  34.703  12.282
60132W        W33200   0.366  31.427  14.013
60133W        W33201  27.715   8.614   3.845
60134W        W33202  27.547   4.988  12.411
60135W        W33203  36.117  18.217   3.196
60136W        W33204   7.254  11.841   2.764
60137W        W33205  29.118   9.802  12.121
60138W        W33206  32.650  16.550  13.759
60139W        W33207  41.125  17.281  12.488
60140W        W33208  29.977  10.913   1.099
60141W        W33209  14.318   0.989   0.818
60142W        W33210  18.260  39.374   1.631
60143W        W33211  15.671   6.131   1.803
60144W        W33212   1.945  39.879  12.974
60145W        W33213  12.911  14.544  12.401
60146W        W33214   9.443  19.120  10.543
60147W        W33215   7.649   2.747   0.368
60148W        W33216  11.936   0.221  12.026
60149W        W33217  43.200  43.444  12.461
60150W        W33218   0.868  30.153   1.287
60151W        W33219  15.048  26.025   2.855
60152W        W33220  43.343   5.244  11.395
60153W        W33221  13.989  34.504  12.381
60154W        W33222  31.462   8.367  14.787
60155W        W33223   7.439  19.664   2.852
60156W        W33224   3.848  32.402  10.601
60157W        W33225  38.099   9.139  12.434
60158W        W33226   7.393  17.343   2.375
60159W        W33227  35.197  33.136  11.099
60160W        W33228  41.745  23.812  11.112
60161W        W33229   9.313  16.151  12.282
60162W        W33230  18.956  27.198  11.114
60163W        W33231  24.011  15.068   3.166
60164W        W33232  28.733  10.301   1.705
60165W        W33233  23.529  24.811  12.988
60166W        W33234  14.035  12.318  10.475
60167W        W33235  39.991  10.994   3.243
60168W        W33236  23.577  25.076  14.834
60169W        W33237  11.180  42.404   3.538
60170W        W33238   3.226  33.187   4.652
60171W        W33239  19.159  32.524   1.462
60172W        W33240  27.463  19.598  12.014
60173W        W33241  41.951  16.613   2.636
60174W        W33242  21.752  32.774   3.667
60175W        W33243  23.945  11.954  14.897
60176W        W33244  20.036  34.401   4.117
60177W        W33245  19.723  37.112  11.263
60178W        W33246   0.828  10.447  14.026
60179W        W33247  28.674  32.591  11.316
60180W        W33248  18.476  18.757  14.918
60181W        W33249  30.562  17.059   3.171
60182W        W33250  29.731   1.255   0.590
60183W        W33251   3.875  34.445   3.243
60184W        W33252  39.932  44.319  11.384
60185W        W33253  38.140   7.926   3.838
60186W        W33254  31.986  24.541   2.045
60187W        W33255  41.907  13.160   3.176
60188W        W33256  44.505   7.817  14.337
60189W        W33257   0.033  44.823  11.999
60190W        W33258  19.655  29.968   0.415
60191W        W33259  13.185  13.186   0.805
60192W        W33260   4.824   0.527   4.291
60193W        W33261  38.766  10.882  14.047
60194W        W33262  26.025  11.964   0.016
60195W        W33263  19.516   3.917  10.679
60196W        W33264  23.461  16.850  12.899
60197W        W33265   1.060  16.549  11.468
60198W        W33266   1.851  34.658  14.410
60199W        W33267  29.143  33.672   1.814
60200W        W33268   9.987  30.443  10.224
60201W        W33269  37.751  39.826   4.510
60202W        W33270  25.004  34.322   4.581
60203W        W33271  39.570  15.624   0.545
60204W        W33272  36.335   8.730  10.555
60205W        W33273  40.996  44.430  11.894
60206W        W33274  38.907   9.215  13.118
60207W        W33275   1.490  36.944  12.571
60208W        W33276  39.099  38.042   0.856
60209W        W33277   9.394  19.331  12.647
60210W        W33278  13.298  25.940   1.773
60211W        W33279  18.690  30.424  11.570
60212W        W33280  34.039  40.802   2.315
60213W        W33281   3.337  14.292  12.446
60214W        W33282  41.024  19.504   0.565
60215W        W33283   9.811  35.899   2.386
60216W        W33284  26.165   7.389  10.653
60217W        W33285   7.709  33.968  10.395
60218W        W33286  44.743   7.206   3.294
60219W        W33287  17.587   7.296  10.783
60220W        W33288  15.860  20.959  14.827
60221W        W33289  23.576  17.733   3.174
60222W        W33290   0.351  22.078   1.280
60223W        W33291  37.013  19.004  14.081
60224W        W33292  19.965   0.014   3.719
60225W        W33293  43.759  19.748  13.323
60226W        W33294  43.802  42.385  10.533
60227W        W33295  21.612  42.773  11.006
60228W        W33296   9.456  36.974  13.806
60229W        W33297  20.677  11.137  12.023
60230W        W33298   9.574  40.144  14.023
60231W        W33299  34.719  29.154   1.775
60232W        W33300  24.595   8.114  13.009
60233W        W33301  44.514  38.445   4.260
60234W        W33302  31.648   9.458  12.572
60235W        W33303  43.308  24.253   4.682
60236W        W33304  13.741  14.336   0.367
60237W        W33305   4.955  18.951  10.633
60238W        W33306   6.783   0.567  11.207
60239W        W33307  17.847   8.177  12.618
60240W        W33308  25.887  42.303  12.991
60241W        W33309  33.746  19.701   2.765
60242W        W33310  42.791  27.947  14.944
60243W        W33311  19.742  15.042  12.886
60244W        W33312   6.818   7.952   0.810
60245W        W33313  23.654  23.494   3.606
60246W        W33314  17.684   1.466  10.401
60247W        W33315  21.960   8.923   3.070
60248W        W33316  40.437  33.569  10.271
60249W        W33317  24.162  10.178   1.381
60250W        W33318  22.538  28.132  10.881
60251W        W33319  12.858  40.129   2.267
60252W        W33320  20.108  14.391  13.069
60253W        W33321  16.296   2.982  11.691
60254W        W33322   8.939  10.169   4.145
60255W        W33323  33.026  38.277   0.320
60256W        W33324   3.236  40.489   1.809
60257W        W33325  18.123  34.438  12.966
60258W        W33326  36.964  19.563  12.159
60259W        W33327  43.977  16.488  11.973
60260W        W33328   0.352  19.196  13.545
60261W        W33329  43.339   3.788   1.007
60262W        W33330  33.661  32.150  11.517
60263W        W33331  10.168  29.850   3.649
60264W        W33332   8.100  10.137  10.898
60265W        W33333   0.255  36.445  14.779
60266W        W33334  28.093  19.236  13.968
60267W        W33335  16.630   8.702  12.901
60268W        W33336  21.014  41.726  10.665
60269W        W33337  19.552  22.449   0.670
60270W        W33338   0.738  17.539   0.735
60271W        W33339  10.120  28.515  14.369
60272W        W33340  13.139  28.569  14.355
60273W        W33341   8.545  10.045  12.038
60274W        W33342  14.279   7.599  13.447
60275W        W33343  24.180  11.422   3.662
60276W        W33344  11.288  36.626  11.276
60277W        W33345  25.614   8.328   4.583
60278W        W33346  31.627  19.019  14.305
60279W        W33347  11.548   1.441   2.256
60280W        W33348  29.593  21.061   1.601
60281W        W33349  21.542   2.147   0.226
60282W        W33350  16.684  11.934  11.139
60283W        W33351  40.025  38.763  14.564
60284W        W33352   2.876   5.114   0.301
60285W        W33353   6.856  20.990   1.497
60286W        W33354  26.088  44.503  13.805
60287W        W33355  28.438  40.368   3.431
60288W        W33356  29.663  23.958   3.222
60289W        W33357  42.227  28.001   0.825
60290W        W33358  17.044  11.230  13.941
60291W        W33359   8.374   8.664   1.753
60292W        W33360  18.609  38.484   2.451
60293W        W33361   4.330  13.757   4.300
60294W        W33362   9.732  19.184   1.105
60295W        W33363  35.054  41.730   0.966
60296W        W33364  20.905  13.736  14.439
60297W        W33365  34.820  25.108   4.354
60298W        W33366   6.467  42.813   0.909
60299W        W33367   6.684   3.302  11.053
60300W        W33368  36.792   5.924   4.716
60301W        W33369   4.169  16.556   0.756
60302W        W33370  13.682  42.860   0.448
60303W        W33371  25.090  13.875  11.857
60304W        W33372  23.469  12.723   2.713
60305W        W33373  28.951  34.778  12.496
60306W        W33374  31.929  42.807   4.039
60307W        W33375  21.596  43.702   9.834
60308W        W33376  26.439  10.632   0.004
60309W        W33377  31.891  19.675  12.096
60310W        W33378  22.365   8.364  11.433
60311W        W33379  31.497   9.144  13.928
60312W        W33380  16.393   3.816  11.583
60313W        W33381  31.997  20.581   2.287
60314W        W33382  17.766  43.554   0.189
60315W        W33383   9.433   7.210   0.822
60316W        W33384  31.645  36.292  13.705
60317W        W33385  44.528  42.653  13.011
60318W        W33386  17.292  30.884  14.959
60319W        W33387  34.896  33.324  14.934
60320W        W33388  16.858  15.101  11.489
60321W        W33389  34.974  26.600  10.216
60322W        W33390  12.759   7.091  11.588
60323W        W33391  24.456  40.265   3.586
60324W        W33392  25.532  36.076   3.453
60325W        W33393  18.023  27.744  10.715
60326W        W33394  25.031  18.649   0.730
60327W        W33395  10.751  29.432   1.382
60328W        W33396  42.525  28.752   3.249
60329W        W33397  43.781  11.718   4.116
60330W        W33398  20.192  24.057   3.197
60331W        W33399  13.612  37.799  13.735
60332W        W33400  27.172  12.910   0.986
60333W        W33401  34.868  16.094  13.869
60334W        W33402  30.223  22.434  13.405
60335W        W33403  30.449   0.832  12.340
60336W        W33404   9.572  12.962  11.090
60337W        W33405  27.942  31.100  10.607
60338W        W33406  37.917  40.828   3.648
60339W        W33407  35.012  11.826   1.078
60340W        W33408  17.615  13.098  11.593
60341W        W33409   3.318  15.251  13.436
60342W        W33410   9.864  34.022  14.559
60343W        W33411  35.899  36.114   1.272
60344W        W33412  24.575  23.054   3.208
60345W        W33413  20.744  31.131   0.967
60346W        W33414  21.092  24.958  14.994
60347W        W33415  20.239   4.692  10.704
60348W        W33416  38.806  17.334  12.417
60349W        W33417  18.278   4.255   4.536
60350W        W33418  34.062   8.400   3.824
60351W        W33419  33.579   4.912  12.536
60352W        W33420  37.742   3.365  13.034
60353W        W33421   4.973  18.160   4.097
60354W        W33422   5.248  10.630   2.822
60355W        W33423  30.610  12.704  10.580
60356W        W33424   2.364  15.343  11.507
60357W        W33425  25.579  31.751   3.235
60358W        W33426   4.701  17.063  12.499
60359W        W33427  43.712  15.093   1.840
60360W        W33428  24.393  43.404   2.265
60361W        W33429  33.089  24.672  10.854
60362W        W33430  38.029   8.673  13.337
60363W        W33431   2.748  14.113   3.183
60364W        W33432   0.897  12.887  14.050
60365W        W33433  26.486  33.384   2.239
60366W        W33434  21.241   2.396  13.925
60367W        W33435  20.326  39.924   3.306
60368W        W33436  43.171  44.380  11.022
60369W        W33437   7.614  25.536  12.111
60370W        W33438  40.802  10.773   3.393
60371W        W33439  26.430  13.220   4.599
60372W        W33440  37.096  20.540   3.650
60373W        W33441  38.845  39.328  10.445
60374W        W33442  15.080  41.946   3.536
60375W        W33443  11.889  35.964   4.654
60376W        W33444   3.273  17.922   2.351
60377W        W33445  28.770  16.022  12.910
60378W        W33446  41.997  15.599   2.284
60379W        W33447   3.997  23.097  10.473
60380W        W33448   6.183  36.218   4.620
60381W        W33449  39.082  32.853  11.649
60382W        W33450   5.883  10.114   0.885
60383W        W33451   2.334   2.168   4.937
60384W        W33452  28.647   7.978   3.233
60385W        W33453  31.896  16.193  11.479
60386W        W33454  11.322  38.535   1.757
60387W        W33455  14.747  22.734  10.723
60388W        W33456  31.006  39.996   1.915
60389W        W33457  37.195  20.993  12.894
60390W        W33458  40.852  26.367  14.239
60391W        W33459   8.337  31.808   9.998
60392W        W33460  13.837  16.872  11.691
60393W        W33461  21.982  17.142   1.288
60394W        W33462  24.253  21.702  14.996
60395W        W33463  43.543  18.279   0.989
60396W        W33464  22.392  36.535   4.508
60397W        W33465  23.013  18.294   2.696
60398W        W33466  30.940  28.962  12.886
60399W        W33467  36.063  35.803  11.117
60400W        W33468  19.497  34.952   1.972
60401W        W33469  29.069  15.561   3.834
60402W        W33470  12.532  29.715   2.331
60403W        W33471  10.188  17.359  13.011
60404W        W33472  26.853  25.162  14.388
60405W        W33473  25.787  26.565  11.483
60406W        W33474  44.818   7.344   3.795
60407W        W33475   4.975  42.132   3.122
60408W        W33476  11.323  17.168   4.550
60409W        W33477  31.557  27.194  13.450
60410W        W33478  42.387  17.383   3.999
60411W        W33479  19.849   4.400   1.432
60412W        W33480  36.325  11.226  14.674
60413W        W33481   1.641  35.751   1.833
60414W        W33482   5.018   4.729  10.958
60415W        W33483  43.392   4.715  12.859
60416W        W33484  32.833   7.309  10.774
60417W        W33485  18.122  25.284  13.505
60418W        W33486   2.215  20.118   2.440
60419W        W33487  13.593   9.645  13.833
60420W        W33488  20.449  18.722  14.953
60421W        W33489   7.227  31.667   5.165
60422W        W33490  25.789  37.088  12.651
60423W        W33491  37.822  34.872  14.223
60424W        W33492  14.879   7.212  12.119
60425W        W33493  12.054  13.886  10.337
60426W        W33494  35.017   3.578   2.477
60427W        W33495   5.789  21.820  11.716
60428W        W33496   2.868   2.412  12.411
60429W        W33497  44.844   6.851  11.981
60430W        W33498  13.652  11.419   0.817
60431W        W33499  42.623  41.831  11.446
60432W        W33500  26.052  44.896   3.380
60433W        W33501  12.183  25.976  12.476
60434W        W33502   5.172  43.190   0.176
60435W        W33503   5.740  34.421   2.806
60436W        W33504  11.795  30.378  14.381
60437W        W33505  28.233  39.428   3.453
60438W        W33506  32.456  17.836   1.832
60439W        W33507  25.425   1.247  12.033
60440W        W33508  39.898  37.838  12.359
60441W        W33509  36.614  39.364   2.128
60442W        W33510  35.945  28.034   1.726
60443W        W33511  42.783  24.306   4.689
60444W        W33512   9.333  21.599   0.412
60445W        W33513  32.070  22.715  10.504
60446W        W33514  15.248  15.082  13.811
60447W        W33515  15.262  24.863  10.883
60448W        W33516   4.437   4.858  13.319
60449W        W33517  22.019   5.776  11.564
60450W        W33518  14.438  23.419   5.027
60451W        W33519  39.008  34.600  14.215
60452W        W33520  42.959   7.236   1.474
60453W        W33521  27.731  18.067   3.991
60454W        W33522  24.927  21.697   1.617
60455W        W33523   7.928  29.027   3.621
60456W        W33524  24.093   1.826  12.297
60457W        W33525  34.545  13.406   3.369
60458W        W33526  20.305  16.163  13.974
60459W        W33527   4.029   3.362   3.692
60460W        W33528  14.026  29.958   3.308
60461W        W33529  29.609  23.043  12.421
60462W        W33530  38.949  13.193   3.312
60463W        W33531  15.819  28.992   1.021
60464W        W33532  37.165  30.112  12.143
60465W        W33533  41.384  13.762   0.427
60466W        W33534  28.147   8.860   4.618
60467W        W33535  40.780   6.937   2.146
60468W        W33536  37.977  42.238  12.158
60469W        W33537  20.497  22.718   3.282
60470W        W33538   9.372  20.661  12.576
60471W        W33539  10.748  23.502  12.356
60472W        W33540   1.030  35.412   0.999
60473W        W33541  13.107  17.232  12.350
60474W        W33542  32.058  20.422   4.114
60475W        W33543  43.495  25.238   5.005
60476W        W33544   5.332   3.841   0.775
60477W        W33545  27.150  42.848  14.751
60478W        W33546   9.465  38.330  14.490
60479W        W33547  10.467  17.424  10.722
60480W        W33548   5.853  26.235   3.324
60481W        W33549  18.771  36.980  12.854
60482W        W33550  32.467  27.123  13.442
60483W        W33551  42.763   8.813   4.614
60484W        W33552  44.872  34.963   1.814
60485W        W33553  27.172  44.413   1.473
60486W        W33554  25.430  42.485   4.139
60487W        W33555  12.157   3.874  12.544
60488W        W33556   5.951  35.554   4.109
60489W        W33557  35.791  12.259   0.728
60490W        W33558  31.698  19.144  13.077
60491W        W33559   9.560  31.900   4.100
60492W        W33560  13.714   5.458  13.956
60493W        W33561  31.451  39.875  10.649
60494W        W33562  44.724  29.299   4.287
60495W        W33563   9.379  27.855  12.206
60496W        W33564   2.902   0.702  12.025
60497W        W33565  12.691  16.281  13.980
60498W        W33566  34.878  14.724  12.552
60499W        W33567  38.927   0.302   0.668
60500W        W33568  40.584   7.370   3.241
60501W        W33569  38.322   0.763  11.055
60502W        W33570  13.190   0.403   1.290
60503W        W33571  38.554  34.121   0.281
60504W        W33572  25.707  30.237   4.997
60505W        W33573   0.080  21.463  11.540
60506W        W33574  44.451  41.599  12.299
60507W        W33575  30.525  43.644   4.479
60508W        W33576   0.756  39.185   4.499
60509W        W33577  29.645  11.953  14.087
60510W        W33578  24.653  44.744   2.729
60511W        W33579  35.917  22.531   4.290
60512W        W33580  11.984  32.485   3.075
60513W        W33581  33.091  15.293  11.000
60514W        W33582   3.800  36.334  11.157
60515W        W33583  13.594   3.768  12.599
60516W        W33584  36.751  44.108  13.925
60517W        W33585  17.205  39.039  13.899
60518W        W33586   6.274   4.890   4.116
60519W        W33587  38.902  38.227  13.628
60520W        W33588  17.690  21.573   2.113
60521W        W33589  14.208  38.417   1.782
60522W        W33590   4.757  26.031   4.132
60523W        W33591   2.210   8.343   4.147
60524W        W33592  26.432   7.261  14.995
60525W        W33593  33.323  19.818   4.653
60526W        W33594  14.812  18.542   3.708
60527W        W33595  33.935  24.196   1.841
60528W        W33596   7.740  31.082  12.221
60529W        W33597  38.420  16.609  14.566
60530W        W33598  44.908  11.063   0.933
60531W        W33599  24.490  32.896  11.105
60532W        W33600  25.266  26.502  11.478
60533W        W33601  29.898   5.789  10.368
60534W        W33602  22.635  12.318   3.700
60535W        W33603  17.273  18.184   2.790
60536W        W33604  15.722  40.044   3.726
60537W        W33605   8.366  21.152  14.026
60538W        W33606  14.258   8.890   3.562
60539W        W33607  21.196  19.107  10.586
60540W        W33608  23.496  17.211   3.159
60541W        W33609  32.370   1.283  13.751
60542W        W33610  38.440  30.984   4.881
60543W        W33611  41.134   3.278  11.176
60544W        W33612  43.748   4.653   3.778
60545W        W33613  12.772  27.599  14.962
60546W        W33614  37.710   2.823   4.281
60547W        W33615  16.614  35.348  12.523
60548W        W33616   5.176   0.519  14.271
60549W        W33617  22.721   6.112  13.397
60550W        W33618   1.511  32.463   4.954
60551W        W33619   6.893  34.567   0.493
60552W        W33620  19.568  27.044   1.530
60553W        W33621  16.591  26.228   1.794
60554W        W33622  20.270  29.547  11.584
60555W        W33623  10.884  18.815   1.772
60556W        W33624  25.145  13.127  14.787
60557W        W33625  17.963   7.627   4.159
60558W        W33626  32.344  37.375   1.889
60559W        W33627   5.791  10.410  13.335
60560W        W33628  17.429  42.198   2.891
60561W        W33629  40.486  13.584   0.237
60562W        W33630  30.067  38.567  10.925
60563W        W33631  41.454  26.853  14.912
60564W        W33632   8.742  26.832   3.161
60565W        W33633  19.832   0.323  10.192
60566W        W33634  43.304  37.461  14.807
60567W        W33635  18.835  30.424  12.499
60568W        W33636  26.363  34.451  11.805
60569W        W33637   1.808  12.585  14.908
60570W        W33638  22.491  26.022   4.092
60571W        W33639  35.677  14.684  13.912
60572W        W33640  20.252   6.065   2.878
60573W        W33641  43.307  33.452  13.283
60574W        W33642  21.508  32.225   0.630
60575W        W33643   2.018  20.179   1.478
60576W        W33644  39.088  33.817  14.288
60577W        W33645   5.253  15.028  13.086
60578W        W33646   9.159  15.416  11.085
60579W        W33647  25.613  17.080  14.297
60580W        W33648  35.148  29.497   1.975
60581W        W33649   4.403   5.990  10.737
60582W        W33650  44.995  33.476   1.497
60583W        W33651   4.463  27.197   0.888
60584W        W33652  39.332  18.650   1.771
60585W        W33653  34.023  29.024  13.075
60586W        W33654  23.141  25.695   0.480
60587W        W33655  25.926  44.473  11.392
60588W        W33656  29.606  19.525   3.134
60589W        W33657  29.639  11.446  13.867
60590W        W33658   4.714  20.804  14.666
60591W        W33659  31.308  43.675   1.087
60592W        W33660  43.881  25.508  13.868
60593W        W33661  25.007  32.163   1.955
60594W        W33662   5.751  28.986  14.383
60595W        W33663  38.331   0.283   2.457
60596W        W33664  14.674  11.399  12.419
60597W        W33665   2.395  24.608  10.726
60598W        W33666  26.989  22.575   1.178
60599W        W33667  40.417  14.622   2.570
60600W        W33668  27.725  10.840   0.741
60601W        W33669  18.862  23.876  11.041
60602W        W33670  38.202  41.501  12.528
60603W        W33671  29.088   4.973   2.915
60604W        W33672  36.196   9.746  14.798
60605W        W33673  26.803   2.018   5.003
60606W        W33674  36.525  25.551   3.812
60607W        W33675  25.274  25.401   0.836
60608W        W33676  44.105   4.648  13.933
60609W        W33677  20.582  17.808   0.827
60610W        W33678  30.500   5.310   3.765
60611W        W33679   7.344  28.923   3.815
60612W        W33680  35.146  43.916   1.366
60613W        W33681  20.298   8.691   2.159
60614W        W33682  12.862  21.120  11.670
60615W        W33683  12.846  11.683   0.969
60616W        W33684  11.305  30.672  14.862
60617W        W33685  22.912  35.963  12.451
60618W        W33686  37.117  27.378  12.402
60619W        W33687  11.816  10.554   4.146
60620W        W33688  24.716  14.743   4.221
60621W        W33689  44.209  32.212  12.122
60622W        W33690   1.250   9.313   1.437
60623W        W33691  36.126   4.398  11.284
60624W        W33692  28.622  17.521  11.684
60625W        W33693   7.619  34.027   4.257
60626W        W33694  18.774  16.384   1.394
60627W        W33695  19.136   8.070  11.979
60628W        W33696  13.304  11.621   4.488
60629W        W33697  19.671   3.675  12.445
60630W        W33698   5.350   5.861  12.300
60631W        W33699  41.107  20.438   1.422
60632W        W33700   4.505   1.811  14.349
60633W        W33701  42.163   0.897   3.971
60634W        W33702  18.065  41.288  11.927
60635W        W33703   8.623  43.763  14.393
60636W        W33704   6.374   8.713  12.079
60637W        W33705  35.916  12.748   1.800
60638W        W33706  38.853  21.473   4.227
60639W        W33707  29.951  30.480   0.888
60640W        W33708  36.355  10.652   3.166
60641W        W33709  19.530  41.034  12.538
60642W        W33710   0.269  44.569   0.411
60643W        W33711  16.649   4.287  12.692
60644W        W33712  44.120   2.070   5.029
60645W        W33713  20.336  13.181   1.851
60646W        W33714  14.734  39.383  12.817
60647W        W33715   9.367  21.113   4.226
60648W        W33716   8.761  10.732  12.065
60649W        W33717   6.710  14.584   3.142
60650W        W33718  34.880   3.256   3.309
60651W        W33719  42.345  27.190   0.203
60652W        W33720  28.412  34.846   2.489
60653W        W33721  34.138  24.443  10.448
60654W        W33722  41.380  18.149   0.290
60655W        W33723  36.803  28.905   3.278
60656W        W33724  19.209  12.451  13.905
60657W        W33725  19.080  32.918  12.086
60658W        W33726  14.415  32.998   4.179
60659W        W33727   9.057  31.447  11.628
60660W        W33728  19.294  24.143   1.709
60661W        W33729  20.709   1.098  12.998
60662W        W33730  18.183  36.928   4.644
60663W        W33731  24.744   4.010   0.281
60664W        W33732  33.200  31.876  13.043
60665W        W33733  44.569  25.934  11.079
60666W        W33734   8.237  33.045  13.233
60667W        W33735  21.905  15.763   3.251
60668W        W33736   0.131   4.710  13.957
60669W        W33737  15.985  29.414   1.255
60670W        W33738  23.256  26.131  11.197
60671W        W33739  16.769  42.005   2.293
60672W        W33740   3.157  21.678   2.193
60673W        W33741  44.788  18.873  12.016
60674W        W33742  40.933   8.845   4.958
60675W        W33743   2.222   6.195   4.659
60676W        W33744  38.454   8.420   2.710
60677W        W33745   5.412  14.117  13.950
60678W        W33746  41.698   7.044  14.876
60679W        W33747   5.567  42.973  14.854
60680W        W33748  24.472  35.093   4.534
60681W        W33749  23.443   2.340   3.324
60682W        W33750   4.841  22.402  14.797
60683W        W33751  39.091  26.608  13.898
60684W        W33752  38.604  21.364  13.321
60685W        W33753  24.689  29.921   1.426
60686W        W33754  23.106   0.246   4.209
60687W        W33755  18.456  35.788   1.944
60688W        W33756  36.328  28.837   3.787
60689W        W33757  39.774  43.752   0.287
60690W        W33758  24.203  42.597  12.928
60691W        W33759   2.740  37.296   4.359
60692W        W33760  33.063  10.881  14.915
60693W        W33761  14.110  15.128   2.365
60694W        W33762  13.021  33.135  13.769
60695W        W33763  26.668  35.009  13.514
60696W        W33764  25.708   1.347   3.659
60697W        W33765  14.836  36.786   4.258
60698W        W33766   1.008  27.174  12.150
60699W        W33767  40.827  14.745   1.636
60700W        W33768   7.317  32.461   2.307
60701W        W33769   9.317   3.453   1.269
60702W        W33770  19.135  38.408  10.679
60703W        W33771  35.341   2.629   2.002
60704W        W33772  40.870  10.681   3.903
60705W        W33773  31.576   4.856   2.926
60706W        W33774   4.823  33.360   3.159
60707W        W33775  23.910   3.491   2.982
60708W        W33776   2.676   6.569   1.788
60709W        W33777  14.415  37.332  14.077
60710W        W33778  22.576  28.495   3.605
60711W        W33779  28.371  42.905   4.748
60712W        W33780  42.295  16.952  14.672
60713W        W33781   4.422  15.715  10.882
60714W        W33782  37.043   9.409  10.499
60715W        W33783  25.365  28.175  12.943
60716W        W33784  38.088  13.356  14.853
60717W        W33785  17.925  38.876   0.507
60718W        W33786  26.708  17.192   1.362
60719W        W33787  44.652   0.925  11.413
60720W        W33788  27.597  28.146  11.577
60721W        W33789  11.394  36.755   0.488
60722W        W33790  30.547  17.688   3.993
60723W        W33791  42.494  16.117  13.505
60724W        W33792  15.559  43.459   0.768
60725W        W33793  35.758  10.593  14.778
60726W        W33794  32.169  24.604   3.184
60727W        W33795   9.601  36.890   4.709
60728W        W33796  17.440  10.523   3.583
60729W        W33797   9.020   9.652   4.309
60730W        W33798   1.230  18.072   3.777
60731W        W33799  23.609  12.356   4.247
60732W        W33800   2.411  33.902   3.612
60733W        W33801   8.198  22.910  12.847
60734W        W33802  20.269   6.864  13.113
60735W        W33803  26.739   6.241   1.857
60736W        W33804  43.313  13.676   2.879
60737W        W33805  29.158  40.831  11.494
60738W        W33806   0.452   2.527  14.291
60739W        W33807  25.115  28.259   0.833
60740W        W33808  12.295  34.843  11.046
60741W        W33809  29.400  30.737  12.744
60742W        W33810   8.220  26.040  12.556
60743W        W33811  34.552  31.594  14.575
60744W        W33812  31.556  17.675   4.946
60745W        W33813  16.709  42.351  14.004
60746W        W33814  11.366  38.457  12.010
60747W        W33815  28.649  31.858   4.920
60748W        W33816   7.174  43.969  12.596
60749W        W33817  37.588  20.674  13.912
60750W        W33818  40.546  22.247   4.579
60751W        W33819  16.185   8.191  11.112
60752W        W33820  41.385  19.890  12.027
60753W        W33821  11.232  14.028  14.587
60754W        W33822  36.781  15.558   3.845
60755W        W33823   1.390   3.864  13.369
60756W        W33824  29.377  27.025  11.568
60757W        W33825  37.123  23.717   3.597
60758W        W33826  32.443  37.694  11.494
60759W        W33827  37.675  15.560   3.608
60760W        W33828  18.640  21.626   0.745
60761W        W33829  26.619   4.757   2.852
60762W        W33830  40.409   1.463  12.006
60763W        W33831  16.149   8.990  10.405
60764W        W33832  28.897   3.189   1.392
60765W        W33833   9.779  24.366  14.805
60766W        W33834  22.093  13.345  12.890
60767W        W33835  35.853   4.032  11.510
60768W        W33836  33.420  37.376  14.386
60769W        W33837  19.325   4.411   3.285
60770W        W33838  39.005   8.551   3.288
60771W        W33839  25.574  24.065   2.286
60772W        W33840  14.141  17.073  14.881
60773W        W33841  35.069  10.170  11.056
60774W        W33842  21.295  18.749   1.315
60775W        W33843  40.983   1.390   5.191
60776W        W33844  25.513  10.698   0.403
60777W        W33845  39.949   8.659   1.294
60778W        W33846  29.387  43.529  10.656
60779W        W33847  31.069  39.859   2.995
60780W        W33848  37.577   4.424  13.241
60781W        W33849   7.565  17.686  10.473
60782W        W33850  18.982  17.309   1.014
60783W        W33851  33.638  43.051   4.279
60784W        W33852   2.042   6.391   3.616
60785W        W33853   9.934  29.860   1.197
60786W        W33854  13.013  37.070  14.742
60787W        W33855  23.513  35.271  11.458
60788W        W33856  10.262  15.522  14.428
60789W        W33857  23.964  27.648  12.987
60790W        W33858  23.711  14.205   4.583
60791W        W33859  17.492  24.955   1.199
60792W        W33860   7.343  10.507  14.856
60793W        W33861  38.779  28.015   3.356
60794W        W33862  35.662  18.060  11.573
60795W        W33863   4.766   9.389  11.053
60796W        W33864  13.090   2.013   1.840
60797W        W33865  40.552  13.433  14.727
60798W        W33866  29.668   5.303  14.438
60799W        W33867   4.122  33.591   2.741
60800W        W33868  37.374   3.150   5.094
60801W        W33869  21.158   8.548  10.772
60802W        W33870  33.586  40.560   4.743
60803W        W33871  33.409   5.458   2.757
60804W        W33872  26.592  17.772  13.894
60805W        W33873  28.434  37.865   1.504
60806W        W33874  16.677  10.805  13.919
60807W        W33875  30.441   8.506   4.704
60808W        W33876  36.778  40.431   2.427
60809W        W33877  26.151   0.766   3.373
60810W        W33878  27.028  37.995   2.106
60811W        W33879  30.558  28.177  12.084
60812W        W33880  43.517   7.268  14.818
60813W        W33881  17.908  19.200   3.362
60814W        W33882  44.917   6.373   1.357
60815W        W33883  10.747  22.576   1.766
60816W        W33884   6.220   8.116  11.068
60817W        W33885  26.060  38.057  12.194
60818W        W33886   0.754  25.222   1.237
60819W        W33887  16.371   2.505  11.433
60820W        W33888  14.280  40.418   4.156
60821W        W33889  10.904   6.746   4.562
60822W        W33890   0.938   7.687  11.583
60823W        W33891  37.666   5.387  14.372
60824W        W33892  15.567  25.200   2.420
60825W        W33893  22.648  11.275   0.055
60826W        W33894  27.270  15.154  11.115
60827W        W33895  25.012  36.302  11.163
60828W        W33896  15.629  19.044   1.385
60829W        W33897  27.434  38.020   2.457
60830W        W33898  40.356  32.379   0.880
60831W        W33899  15.926  41.689  13.824
60832W        W33900   9.514  27.956  10.949
60833W        W33901   1.393  24.361  14.494
60834W        W33902   6.016  16.156  11.026
60835W        W33903  27.737   5.206  12.957
60836W        W33904  35.830  27.050  13.604
60837W        W33905  34.461  18.571   4.606
60838W        W33906  25.222  26.929   3.983
60839W        W33907   7.381  36.962  14.325
60840W        W33908  34.431  39.951  12.921
60841W        W33909   2.388  38.074   4.349
60842W        W33910  24.185  27.587   3.397
60843W        W33911   4.557  40.435  11.169
60844W        W33912  41.167   7.985   4.527
60845W        W33913   1.500   4.769  11.491
60846W        W33914   5.578  17.566   4.219
60847W        W33915  12.710   2.880   2.172
60848W        W33916  18.665   8.963   0.310
60849W        W33917  29.481  33.768  12.905
60850W        W33918  32.095  10.195  14.350
60851W        W33919  15.784  20.580   3.872
60852W        W33920   9.459  30.292  12.558
60853W        W33921  42.037  41.313   3.328
60854W        W33922   7.572  40.889  14.678
60855W        W33923  27.507   5.005  13.391
60856W        W33924  15.718  22.492  12.187
60857W        W33925   8.483  39.915  12.398
60858W        W33926   3.192  23.739   1.609
60859W        W33927  16.601  20.648  12.894
60860W        W33928  38.905   2.900   3.213
60861W        W33929  35.634  11.573  12.355
60862W        W33930  15.130  11.732   2.742
60863W        W33931  15.849  22.921  14.238
60864W        W33932  15.670   3.902  11.878
60865W        W33933  14.904  26.966   4.387
60866W        W33934  18.631   2.160  10.736
60867W        W33935  18.064  11.212  12.457
60868W        W33936  43.959  18.507  12.178
60869W        W33937  19.524  32.504   1.089
60870W        W33938   4.403  39.138   0.951
60871W        W33939   7.392   3.358  10.503
60872W        W33940  39.683  24.983   1.257
60873W        W33941  40.764   9.275   0.806
60874W        W33942  38.875   6.841  14.439
60875W        W33943  37.133  11.156  14.753
60876W        W33944  16.356  12.647   3.776
60877W        W33945  19.494  41.381  14.327
60878W        W33946  18.637  33.432   1.610
60879W        W33947   0.096  15.773   3.672
60880W        W33948   0.458  15.714  11.595
60881W        W33949  31.597  29.587   1.825
60882W        W33950  42.939  38.613   1.389
60883W        W33951  44.769  31.411   3.628
60884W        W33952   4.354  34.413   2.597
60885W        W33953  24.723  14.566  13.857
60886W        W33954  33.709  43.910   3.120
60887W        W33955  40.521  15.729   0.895
60888W        W33956  18.317  40.348   3.154
60889W        W33957  32.156  26.028  11.117
60890W        W33958  17.853  12.227   3.552
60891W        W33959   8.853  38.979  10.588
60892W        W33960  24.550  43.447  14.938
60893W        W33961  43.187  28.197   3.658
60894W        W33962  24.216  12.620   1.093
60895W        W33963  33.508  36.477  12.323
60896W        W33964  42.773  16.180   3.375
60897W        W33965   9.354  23.420   3.199
60898W        W33966  18.116  21.619   2.409
60899W        W33967  31.447  13.182  10.805
60900W        W33968  31.513   8.812   0.752
60901W        W33969  21.471  39.154  14.095
60902W        W33970   7.066  37.937   2.307
60903W        W33971  10.125   4.861   2.231
60904W        W33972  17.264   2.296   1.219
60905W        W33973  25.875   0.899   0.467
60906W        W33974   3.305  28.389  13.798
60907W        W33975  43.458  44.805   1.284
60908W        W33976   7.498   8.404  10.061
60909W        W33977   5.704   2.965   0.671
60910W        W33978  39.398  30.109   2.273
60911W        W33979  26.221   5.779  11.167
60912W        W33980  42.838  22.516  10.684
60913W        W33981  32.481  40.055  12.899
60914W        W33982   2.377   1.547  14.723
60915W        W33983  15.880  16.545  10.642
60916W        W33984   4.375  25.756   1.706
60917W        W33985  10.207  19.065  11.350
60918W        W33986  18.361   2.168   0.687
60919W        W33987  38.899  10.694   2.604
60920W        W33988  39.571  13.229  13.173
60921W        W33989  27.572   8.053   2.238
60922W        W33990   7.712  13.588   4.648
60923W        W33991  17.620  41.384   3.728
60924W        W33992  23.676  33.456  13.916
60925W        W33993  39.592  15.074  14.741
60926W        W33994  11.621  35.319  11.491
60927W        W33995  42.520   3.470   2.822
60928W        W33996   6.995  18.200   3.363
60929W        W33997  29.750  26.046   1.253
60930W        W33998  31.523  31.424  13.984
60931W        W33999  44.202  33.324  10.332
60932W        W34000  41.170   4.796   3.268
60933W        W34001   9.572   5.736   2.300
60934W        W34002   2.852   2.376   3.247
60935W        W34003  22.503  42.601   0.476
60936W        W34004  30.123  41.083   0.911
60937W        W34005   2.215  34.516  10.590
60938W        W34006  37.236  33.517   5.120
60939W        W34007  14.576  23.579  10.127
60940W        W34008  44.371  17.579  12.532
60941W        W34009  25.156  22.901  13.822
60942W        W34010   8.808   1.548  14.251
60943W        W34011  36.883  22.729   4.780
60944W        W34012   4.740  14.753   4.149
60945W        W34013  29.108  44.310  11.477
60946W        W34014   8.858   5.733  14.405
60947W        W34015  43.341   4.735   4.130
60948W        W34016  17.155   3.805   2.380
60949W        W34017  13.245  42.255  13.417
60950W        W34018  43.955  36.901   4.348
60951W        W34019  10.848  39.650  11.658
60952W        W34020  17.726   3.827  14.852
60953W        W34021  38.913  36.338   3.754
60954W        W34022  21.511  26.544   1.281
60955W        W34023  34.538   7.581   0.501
60956W        W34024  12.327   3.676   0.866
60957W        W34025  17.129  18.862   3.845
60958W        W34026  15.505  42.523  12.023
60959W        W34027  39.389  17.068   0.818
60960W        W34028  14.558  39.815   1.801
60961W        W34029  33.001  27.617   0.323
60962W        W34030  24.606   6.713   4.870
60963W        W34031  10.861  24.173   2.586
60964W        W34032  16.317   6.749  14.057
60965W        W34033  34.150  39.095  14.525
60966W        W34034  36.363  25.595  13.463
60967W        W34035  16.542   7.949   4.463
60968W        W34036  32.041  17.227  13.476
60969W        W34037  25.387  26.669   2.233
60970W        W34038  31.151  36.982  11.084
60971W        W34039  15.796  21.003  11.651
60972W        W34040  14.530  44.605   9.984
60973W        W34041  10.231  18.524  14.260
60974W        W34042  17.600  20.054  11.227
60975W        W34043  35.478  43.038  11.182
60976W        W34044  37.619  37.369  12.376
60977W        W34045  37.639  41.243   1.259
60978W        W34046  38.423  29.592   2.909
60979W        W34047  39.479   0.466  13.006
60980W        W34048   0.925   5.655  14.403
60981W        W34049  44.565  23.071   2.878
60982W        W34050   6.923  33.983  12.026
60983W        W34051  21.264  14.289  10.814
60984W        W34052  41.495  38.445   2.337
60985W        W34053  37.341  24.669  13.563
60986W        W34054   1.115  21.252  12.280
60987W        W34055  30.138  19.061   2.626
60988W        W34056   1.400  29.700  12.923
60989W        W34057  34.543  17.812  11.090
60990W        W34058  27.907  22.739   0.991
60991W        W34059  38.270  37.403   4.413
60992W        W34060  18.687  44.988  10.687
60993W        W34061  31.823   8.437  14.091
60994W        W34062  29.676  28.525   1.693
60995W        W34063   8.463   1.595  14.958
60996W        W34064  37.252  40.936   1.951
60997W        W34065  20.546   1.392   0.536
60998W        W34066  20.570   4.296   0.724
60999W        W34067  44.660  11.099  11.148
61000W        W34068  38.240  22.136  10.674
61001W        W34069  35.587   1.675   0.334
61002W        W34070  18.043  30.377   0.472
61003W        W34071  44.717  10.008   1.004
61004W        W34072  43.357  18.792  11.959
61005W        W34073   2.502  23.229   3.323
61006W        W34074   3.072  35.708   2.776
61007W        W34075  18.785  10.005   0.402
61008W        W34076  12.825  11.079   0.494
61009W        W34077  20.127  31.208  13.185
61010W        W34078  44.505  19.556   2.087
61011W        W34079  17.879  28.132  11.023
61012W        W34080   0.326  41.073  14.483
61013W        W34081  16.083  43.486  10.570
61014W        W34082  24.456  21.680   2.778
61015W        W34083  41.909   6.190   3.745
61016W        W34084  14.655  37.620   4.704
61017W        W34085   0.341   8.056  14.533
61018W        W34086   5.212  33.481   1.696
61019W        W34087  36.199   4.433   3.610
61020W        W34088  18.253  38.506  13.233
61021W        W34089  39.259  23.001  14.360
61022W        W34090   0.329  22.132  11.529
61023W        W34091  40.940  25.271   2.312
61024W        W34092  11.257  44.045  14.936
61025W        W34093  43.285  32.474  14.884
61026W        W34094  44.430  13.194   1.219
61027W        W34095  24.231   9.328   0.578
61028W        W34096  11.734  36.554  13.890
61029W        W34097  31.079  35.623  14.323
61030W        W34098  35.495   3.801   2.314
61031W        W34099   2.798  19.244  14.725
61032W        W34100   9.355  33.400   2.347
61033W        W34101  26.240  20.654  12.949
61034W        W34102  29.171  23.738  11.492
61035W        W34103  11.865  34.154  11.047
61036W        W34104  41.010   9.341  11.590
61037W        W34105  44.491  18.314   4.022
61038W        W34106   6.331  28.641  12.931
61039W        W34107  25.457  25.362  13.292
61040W        W34108  15.019  23.190   2.836
61041W        W34109  17.495   3.642  14.381
61042W        W34110  27.786   7.231   2.715
61043W        W34111  35.779  41.217  12.124
61044W        W34112  39.944  36.445   3.850
61045W        W34113  28.251  19.654   1.704
61046W        W34114  11.815   3.078   3.608
61047W        W34115  17.773  33.129   1.809
61048W        W34116  20.180  35.598  13.085
61049W        W34117  20.013  29.761  13.443
61050W        W34118   3.666  30.002   4.581
61051W        W34119  28.041  22.250   0.912
61052W        W34120   4.300  29.478  10.789
61053W        W34121   0.557  42.950   4.209
61054W        W34122  16.410  13.779  14.384
61055W        W34123  33.941  24.949   0.010
61056W        W34124  22.124   0.360   2.756
61057W        W34125   2.501  13.757  13.481
61058W        W34126   7.494  37.867   2.004
61059W        W34127  28.220   7.922  12.448
61060W        W34128  31.537   8.301   0.810
61061W        W34129  37.978   2.721   2.916
61062W        W34130  15.935  11.780  13.451
61063W        W34131  20.997  10.116   3.707
61064W        W34132   0.867  15.495   4.340
61065W        W34133  42.961  16.590   2.335
61066W        W34134   1.321  20.452  12.031
61067W        W34135  37.114  42.789   2.912
61068W        W34136  13.267   5.639   4.569
61069W        W34137  18.836  18.113   1.965
61070W        W34138  10.705   2.813  10.655
61071W        W34139   4.699  35.541  14.064
61072W        W34140  30.704  32.948  11.685
61073W        W34141  17.061  25.110  14.307
61074W        W34142  43.928  40.423  12.503
61075W        W34143  36.549  16.873   3.239
61076W        W34144  38.300  30.047   3.702
61077W        W34145  38.433  22.639  14.072
61078W        W34146  32.574  23.978   4.567
61079W        W34147  30.851  19.409  14.303
61080W        W34148  30.874  22.462   4.223
61081W        W34149  17.914  42.284  10.545
61082W        W34150  25.893  43.803   3.742
61083W        W34151  15.513   5.204  12.059
61084W        W34152   4.469   0.807   1.400
61085W        W34153  33.870  10.679  11.618
61086W        W34154  42.244  36.158   2.126
61087W        W34155   2.956  23.109  11.373
61088W        W34156  36.117  44.112   3.363
61089W        W34157  18.442   3.254  12.603
61090W        W34158  36.153  17.647   1.562
61091W        W34159   0.905  20.327  13.897
61092W        W34160  25.361  33.967  14.491
61093W        W34161   6.100  24.923  14.435
61094W        W34162   5.561  42.609   1.883
61095W        W34163   1.500  39.446  10.496
61096W        W34164  30.650  24.199  10.993
61097W        W34165  26.502  28.364   2.755
61098W        W34166  21.296  37.947  13.316
61099W        W34167   3.241  19.856  14.734
61100W        W34168  25.365  15.660  10.404
61101W        W34169  23.759   9.944  12.492
61102W        W34170   2.655  33.993   1.375
61103W        W34171  17.066  35.547  11.301
61104W        W34172  32.031  37.570   3.766
61105W        W34173  23.546  10.796   3.564
61106W        W34174  42.842  40.927  11.615
61107W        W34175  16.563  10.030   4.055
61108W        W34176  41.463  24.392  13.904
61109W        W34177  17.711  42.504   1.442
61110W        W34178   3.204  37.760  11.174
61111W        W34179  37.559  22.229  11.425
61112W        W34180  29.794  34.477   2.085
61113W        W34181  13.853  24.165   3.336
61114W        W34182  22.280  21.165  13.769
61115W        W34183  24.612  14.292   4.998
61116W        W34184   1.909  15.714  12.925
61117W        W34185  39.859  33.057  14.763
61118W        W34186   7.591   6.268  10.188
61119W        W34187  17.158   2.089   4.522
61120W        W34188  38.539  44.821  11.143
61121W        W34189  36.639  12.234   2.386
61122W        W34190  15.314   0.224  10.782
61123W        W34191   3.718  12.184   2.140
61124W        W34192   4.509  35.367  14.539
61125W        W34193   2.752  42.394   3.319
61126W        W34194  25.772  30.939  12.493
61127W        W34195  30.721  41.818   4.584
61128W        W34196  19.076   3.814   4.041
61129W        W34197  12.766  27.167   2.433
61130W        W34198  30.560  31.128  14.007
61131W        W34199  39.861  22.957   0.854
61132W        W34200  26.671   0.057   1.159
61133W        W34201  33.383  29.141   0.885
61134W        W34202   8.689  35.697  12.671
61135W        W34203  37.991   5.496  11.444
61136W        W34204  30.384  27.886  13.299
61137W        W34205  15.705  11.166  11.567
61138W        W34206  16.404  36.946  13.942
61139W        W34207   7.677  24.160   4.607
61140W        W34208   1.257   9.598  10.233
61141W        W34209  40.552  40.284  13.490
61142W        W34210  25.490  18.388  12.853
61143W        W34211   3.990   3.061   5.154
61144W        W34212  42.403  40.853   4.797
61145W        W34213   3.345   7.216  13.510
61146W        W34214   2.406  13.273   1.362
61147W        W34215  10.551  42.966   0.650
61148W        W34216  31.670  34.416  11.703
61149W        W34217   9.934   3.070   3.184
61150W        W34218  43.675  28.684   2.651
61151W        W34219   8.706  38.589  13.867
61152W        W34220  16.108  30.966   0.395
61153W        W34221  32.489  11.592  11.567
61154W        W34222  40.408  37.357   0.928
61155W        W34223  24.492  35.342  11.514
61156W        W34224  42.935  35.699   2.960
61157W        W34225  27.925   8.792  11.141
61158W        W34226  29.694  37.866   4.121
61159W        W34227  44.704   5.986  11.437
61160W        W34228  27.884  23.609   2.739
61161W        W34229  23.629  25.129   2.611
61162W        W34230  28.700  15.388  14.781
61163W        W34231  43.644   4.331  14.777
61164W        W34232   1.053   6.715   3.671
61165W        W34233  19.563  19.344  11.984
61166W        W34234  27.483  32.925  10.862
61167W        W34235  29.139  42.185   0.852
61168W        W34236  36.835  38.943  10.778
61169W        W34237  24.939  17.355   0.420
61170W        W34238  38.735  34.988  14.003
61171W        W34239  10.477  18.256  12.082
61172W        W34240  40.528  27.187  10.723
61173W        W34241   6.228  34.446   1.728
61174W        W34242  20.836  17.117  12.878
61175W        W34243  38.241  30.614  11.587
61176W        W34244   7.709  26.568   3.629
61177W        W34245  15.337  19.802   3.696
61178W        W34246  37.357  29.195  11.188
61179W        W34247  25.182   1.910  10.560
61180W        W34248  32.361  38.039   2.274
61181W        W34249  42.148  10.260  13.980
61182W        W34250  21.375  27.195   1.891
61183W        W34251  44.073  40.835  12.967
61184W        W34252  39.874  30.150   2.463
61185W        W34253  26.516  36.416   1.844
61186W        W34254  29.345  18.297   2.195
61187W        W34255  44.111  21.806  12.402
61188W        W34256  10.250  13.092   1.913
61189W        W34257  27.662  15.070   2.337
61190W        W34258  28.798  25.643  12.978
61191W        W34259  18.117  12.159  12.285
61192W        W34260   2.856  13.761   2.357
61193W        W34261  22.703  20.368   4.747
61194W        W34262   5.136  32.210  10.851
61195W        W34263  37.413   0.972  12.612
61196W        W34264  13.625  23.546  11.989
61197W        W34265  26.353  15.572   1.775
61198W        W34266  22.928   7.362   2.601
61199W        W34267  23.177  21.967  14.021
61200W        W34268   8.819   1.212  12.004
61201W        W34269   2.298  11.739  13.487
61202W        W34270  44.634  22.802  13.331
61203W        W34271  44.726  28.195   1.285
61204W        W34272  24.602  15.273  12.092
61205W        W34273  24.653  31.584  14.896
61206W        W34274   7.288  26.074  13.875
61207W        W34275   3.158  24.514  11.152
61208W        W34276  20.603  20.513  11.886
61209W        W34277  24.077  12.250   4.115
61210W        W34278  38.449   0.139   3.689
61211W        W34279  24.515  42.346  12.324
61212W        W34280  26.801   3.832  12.119
61213W        W34281  14.252  19.095   1.395
61214W        W34282  38.399  14.284   0.313
61215W        W34283  14.807  34.896   0.966
61216W        W34284  39.929  17.523   2.869
61217W        W34285  20.527  40.759   1.435
61218W        W34286  26.525  42.735  10.305
61219W        W34287  16.567   6.307  13.364
61220W        W34288  29.057  42.012   1.332
61221W        W34289   4.206  17.506  13.872
61222W        W34290  12.945  35.392  10.906
61223W        W34291  10.477  40.242   4.516
61224W        W34292  24.175  25.119  12.383
61225W        W34293  22.338  40.706   1.252
61226W        W34294   1.971  41.768  13.326
61227W        W34295  41.276   5.941   0.880
61228W        W34296  32.854  23.661   2.249
61229W        W34297  38.578   7.834  14.930
61230W        W34298  13.307  23.091  14.820
61231W        W34299  24.190  20.817   3.868
61232W        W34300  25.457  13.634  14.162
61233W        W34301  32.545  43.900  13.395
61234W        W34302  19.701  10.849   2.952
61235W        W34303  32.168  40.279   1.835
61236W        W34304  39.565  36.571   0.470
61237W        W34305  15.518  29.145  10.648
61238W        W34306  28.233  36.930   3.638
61239W        W34307  32.108  29.494   1.616
61240W        W34308  28.267  13.823   2.313
61241W        W34309  29.150  42.895  14.133
61242W        W34310   4.362  36.198  10.532
61243W        W34311  15.833   2.857  14.777
61244W        W34312  16.971  35.933  14.397
61245W        W34313  41.599  43.596  13.507
61246W        W34314  31.327  34.189  14.654
61247W        W34315   0.743  10.622   0.990
61248W        W34316  26.130  23.130  11.932
61249W        W34317  19.519  12.475  11.761
61250W        W34318  21.204  26.176  11.525
61251W        W34319  31.868  23.281   1.403
61252W        W34320  42.430   6.968   2.720
61253W        W34321  16.377   6.148   1.381
61254W        W34322  35.360   9.154  12.914
61255W        W34323   4.637  35.585  12.915
61256W        W34324  21.985   4.382  13.598
61257W        W34325  10.516  13.460   0.678
61258W        W34326  19.589  23.758   1.929
61259W        W34327  33.083   6.400   1.742
61260W        W34328  10.776   5.151  12.147
61261W        W34329   3.670  12.388   0.845
61262W        W34330  42.135   8.285  12.978
61263W        W34331   6.192  16.178   4.536
61264W        W34332  26.002  19.703  12.026
61265W        W34333   6.290  17.194   1.520
61266W        W34334  18.685  16.520   3.678
61267W        W34335   2.748  38.579  13.776
61268W        W34336  43.411   7.422   2.142
61269W        W34337  41.010   7.744   5.577
61270W        W34338  42.908  28.459   0.042
61271W        W34339  22.077   8.476  14.872
61272W        W34340  18.800  15.106  13.025
61273W        W34341  33.641   6.160  11.123
61274W        W34342  40.545  25.128  13.035
61275W        W34343  33.409  25.697   3.582
61276W        W34344  13.709  27.759  14.515
61277W        W34345  23.975  40.765   0.246
61278W        W34346  44.888  44.807   4.876
61279W        W34347  11.567  23.199   4.015
61280W        W34348  27.543  22.089  14.012
61281W        W34349   0.968  19.729  12.924
61282W        W34350  22.610  20.892  14.096
61283W        W34351   5.000   3.659  14.839
61284W        W34352  36.938  38.380   1.046
61285W        W34353   7.694  20.122  14.344
61286W        W34354  14.884   9.070  11.505
61287W        W34355  17.732  10.822  14.583
61288W        W34356  13.816   0.411  10.690
61289W        W34357  33.478  41.835   0.359
61290W        W34358   9.879  39.794   1.966
61291W        W34359  34.327  39.220  13.380
61292W        W34360  11.788   5.738   4.628
61293W        W34361  24.935  15.293  14.352
61294W        W34362  21.526  24.671   2.784
61295W        W34363  37.591  39.781   1.284
61296W        W34364  19.764  21.984   0.351
61297W        W34365  29.234  18.185   4.905
61298W        W34366   1.258  25.171  14.047
61299W        W34367  23.117  22.638   1.947
61300W        W34368  13.948  19.457  14.924
61301W        W34369  14.854   2.015  12.986
61302W        W34370  19.639  32.646  14.346
61303W        W34371   3.430  14.733   1.968
61304W        W34372  41.495   6.444   1.777
61305W        W34373  36.451  40.509  12.926
61306W        W34374   1.751   7.712   3.155
61307W        W34375  20.179  17.984  10.776
61308W        W34376  40.986  31.379   2.184
61309W        W34377   2.442  11.643   3.308
61310W        W34378   0.294  29.591  14.841
61311W        W34379  24.798   6.159   0.257
61312W        W34380  36.332  25.471  14.338
61313W        W34381  35.675   9.962  13.157
61314W        W34382  25.742  37.850   4.669
61315W        W34383  27.616  33.306   4.373
61316W        W34384  13.533  42.138   1.639
61317W        W34385   3.490  22.421  11.116
61318W        W34386  12.206   8.716  13.243
61319W        W34387   7.185  20.513  14.927
61320W        W34388  42.748   6.799   1.281
61321W        W34389  22.387  19.992  14.823
61322W        W34390  27.504  34.389   3.599
61323W        W34391  21.928   9.613  12.033
61324W        W34392  23.795  16.611   3.998
61325W        W34393  39.926  32.002  12.841
61326W        W34394  26.359   1.768   0.902
61327W        W34395  34.925   7.338  14.879
61328W        W34396  41.079   6.411   3.282
61329W        W34397  33.393  35.058  11.877
61330W        W34398  14.816   5.284  12.869
61331W        W34399  43.427  30.734  13.875
61332W        W34400  33.785   4.021   3.428
61333W        W34401  14.246  35.017  13.127
61334W        W34402  35.647  42.705   4.099
61335W        W34403  12.604  21.646   4.517
61336W        W34404  29.983  23.692  11.445
61337W        W34405  17.314  25.435   0.887
61338W        W34406   1.178  31.244  10.954
61339W        W34407  30.104   1.968   0.788
61340W        W34408  21.064  43.756  12.434
61341W        W34409  31.396  22.176  14.314
61342W        W34410  19.393  25.160  14.405
61343W        W34411  11.615  30.493  10.542
61344W        W34412  33.956  37.318  10.161
61345W        W34413  19.476  41.486   3.651
61346W        W34414  29.060  21.673   4.151
61347W        W34415   6.319  39.492   2.393
61348W        W34416  36.103  16.210   3.661
61349W        W34417  24.686  21.151  11.560
61350W        W34418  40.041  16.767   4.083
61351W        W34419  43.431   1.367   3.492
61352W        W34420  39.465   1.981  11.564
61353W        W34421   0.351  15.106   4.104
61354W        W34422   3.935  37.110  11.966
61355W        W34423  40.076  29.066  14.038
61356W        W34424  43.757  20.120   2.366
61357W        W34425  37.893  44.738  13.002
61358W        W34426  22.523  21.580  10.524
61359W        W34427   5.707  30.481  12.886
61360W        W34428  21.829  16.706   0.466
61361W        W34429  44.462  19.083  14.423
61362W        W34430  32.350  39.308  13.494
61363W        W34431  42.378   2.957  13.930
61364W        W34432  40.190  39.822  11.031
61365W        W34433  32.415  12.344  13.913
61366W        W34434   5.671  22.127   1.850
61367W        W34435  30.891  14.747   3.700
61368W        W34436  21.763  43.514  10.624
61369W        W34437  28.648  39.529  13.071
61370W        W34438  35.378  12.032  12.397
61371W        W34439  32.883  18.249  11.029
61372W        W34440   1.369   6.933  14.540
61373W        W34441  27.941  19.510  13.471
61374W        W34442  12.258  30.495  12.878
61375W        W34443  23.762  25.170  12.085
61376W        W34444   6.419  18.622   4.595
61377W        W34445   6.372  36.783   3.949
61378W        W34446  31.320  26.039   2.338
61379W        W34447  39.540  41.144  12.362
61380W        W34448  22.994   1.754   0.980
61381W        W34449  18.767  17.254  11.578
61382W        W34450  35.075  37.284  10.961
61383W        W34451  20.171  42.787   2.268
61384W        W34452  35.738  14.057   1.831
61385W        W34453  16.145  43.207  12.376
61386W        W34454  40.463  27.019   2.191
61387W        W34455  22.328   3.091  10.807
61388W        W34456  15.563  22.048   4.050
61389W        W34457  21.710   7.310   0.215
61390W        W34458   8.459  30.264   1.124
61391W        W34459  13.480  11.849  10.755
61392W        W34460  22.722  28.785   1.212
61393W        W34461  27.554  20.816  14.983
61394W        W34462   5.162   2.902  13.001
61395W        W34463  42.741  20.810   2.778
61396W        W34464  36.502   3.017  11.874
61397W        W34465  13.425  12.113   1.335
61398W        W34466  33.072   1.533  10.599
61399W        W34467  39.904  32.593  11.564
61400W        W34468  30.462  24.062   1.313
61401W        W34469   3.621  14.211   5.063
61402W        W34470   4.534  34.392  13.555
61403W        W34471  33.094  41.796  14.891
61404W        W34472  25.911  10.370  11.348
61405W        W34473  40.415  23.714  11.589
61406W        W34474  15.393  18.718  11.211
61407W        W34475  39.215  17.650  12.411
61408W        W34476  36.988   0.697   4.775
61409W        W34477  35.662  34.255   1.381
61410W        W34478  28.133   4.573   4.659
61411W        W34479   7.891  14.301  10.631
61412W        W34480   7.276  18.197   1.662
61413W        W34481  43.322  12.883   1.899
61414W        W34482  34.076   5.235  10.428
61415W        W34483  13.838  38.757   3.653
61416W        W34484  25.002   3.245  11.929
61417W        W34485  15.078   0.754   1.404
61418W        W34486   9.839  36.653  13.973
61419W        W34487  22.695  35.774  12.010
61420W        W34488  34.072  12.504  11.987
61421W        W34489  19.099  39.255   3.232
61422W        W34490   9.689  12.276   4.294
61423W        W34491  28.555  41.813   1.375
61424W        W34492  43.615   1.365   0.390
61425W        W34493  18.700  10.919  13.177
61426W        W34494  29.546  35.882  10.741
61427W        W34495  42.081   6.180  13.397
61428W        W34496  11.223   5.464  11.594
61429W        W34497   3.839  10.676   0.445
61430W        W34498   2.333  37.405  11.582
61431W        W34499  35.711   8.051  11.976
61432W        W34500  20.593   9.726   0.286
61433W        W34501  21.525  10.910  13.226
61434W        W34502  30.135  22.181   4.371
61435W        W34503  25.528  39.072  11.708
61436W        W34504  17.448  27.695   2.324
61437W        W34505  40.167  20.129   2.663
61438W        W34506  31.221  32.954   0.349
61439W        W34507   8.901  36.899   2.292
61440W        W34508  17.759  37.384  14.428
61441W        W34509   4.840  23.593  13.066
61442W        W34510  37.262  11.647  14.332
61443W        W34511  44.448  17.384   3.293
61444W        W34512  41.618   2.553   2.305
61445W        W34513  27.149  13.235  13.935
61446W        W34514   7.805  18.343   3.690
61447W        W34515   7.665  15.141   3.576
61448W        W34516   3.405  10.739  14.038
61449W        W34517  34.773   9.679  12.971
61450W        W34518  23.895   4.349   2.420
61451W        W34519  22.986  19.555   0.540
61452W        W34520  43.828  22.911   3.566
61453W        W34521  11.090  27.125  14.770
61454W        W34522  15.656   4.727  14.669
61455W        W34523  44.896  26.614  13.735
61456W        W34524   4.668   6.232   0.420
61457W        W34525  28.511   0.930  14.316
61458W        W34526  12.827  18.072   0.946
61459W        W34527  39.625  40.443   0.790
61460W        W34528   8.481  30.665   0.427
61461W        W34529   6.250   9.756   2.682
61462W        W34530  35.666  44.920   2.220
61463W        W34531  21.660  29.796  12.992
61464W        W34532   9.826  18.251  13.329
61465W        W34533   9.126  38.844  13.354
61466W        W34534   9.799  23.262  13.842
61467W        W34535   0.384  10.961  12.092
61468W        W34536  15.760  18.214   2.752
61469W        W34537   8.152  20.506  11.826
61470W        W34538  41.726  19.423  10.007
61471W        W34539  29.947  42.776   2.828
61472W        W34540  41.536  34.821  14.572
61473W        W34541  37.094   5.836  11.156
61474W        W34542   8.081  34.058  11.434
61475W        W34543  17.527  13.330   2.294
61476W        W34544  40.576  29.482   4.785
61477W        W34545  10.929  40.436   4.698
61478W        W34546   2.029  40.284  14.931
61479W        W34547  10.566   8.284   1.453
61480W        W34548  34.916   9.274  12.002
61481W        W34549  38.040  29.656   0.655
61482W        W34550  35.127  13.727  13.891
61483W        W34551   3.943  16.075   2.888
61484W        W34552  19.215  14.820   1.647
61485W        W34553  18.721  34.167  10.497
61486W        W34554  22.303  25.547  12.861
61487W        W34555  31.668  41.249  11.121
61488W        W34556  38.983  34.166  13.923
61489W        W34557  36.454  39.064  12.573
61490W        W34558  21.986  26.000   2.289
61491W        W34559  20.009  28.727  14.857
61492W        W34560  33.893  17.970   3.802
61493W        W34561   0.386  14.555  11.210
61494W        W34562  23.145  44.218  14.319
61495W        W34563  12.831  40.885   1.787
61496W        W34564  18.114  25.545  12.913
61497W        W34565  36.954  14.625   1.909
61498W        W34566  13.032  22.073   3.626
61499W        W34567  26.203  34.991   0.458
61500W        W34568  39.255  18.287   1.374
61501W        W34569  21.866  43.566   2.729
61502W        W34570  41.863  44.004   4.797
61503W        W34571  18.707  13.694   1.046
61504W        W34572   2.227  21.169  11.646
61505W        W34573   4.824   9.558   0.309
61506W        W34574  22.014  32.649   0.657
61507W        W34575  20.941   9.855   3.244
61508W        W34576  14.255  19.577   3.166
61509W        W34577   4.497  11.566  10.664
61510W        W34578  26.317  32.828  12.493
61511W        W34579  15.315   5.661   0.911
61512W        W34580   0.033   5.029  11.542
61513W        W34581  44.875   6.444  13.609
61514W        W34582  17.669  43.772   1.198
61515W        W34583  35.030  20.081   1.823
61516W        W34584  19.556  18.702  14.928
61517W        W34585  20.377  44.645   1.431
61518W        W34586  16.608  10.277   1.998
61519W        W34587  40.514   9.385   3.808
61520W        W34588  27.156   3.704   3.798
61521W        W34589  37.050  14.817  12.919
61522W        W34590  41.028   9.873   2.949
61523W        W34591  41.335  10.881   3.696
61524W        W34592   0.424   9.661   1.345
61525W        W34593   5.529  42.239  11.456
61526W        W34594  15.637  44.503   1.875
61527W        W34595   3.329  33.467   1.203
61528W        W34596  30.555  19.349   2.678
61529W        W34597  41.223   5.937  13.456
61530W        W34598  21.228  24.481  13.594
61531W        W34599  34.161  25.412   2.803
61532W        W34600   7.450  30.526  11.548
61533W        W34601   7.983   7.789   4.557
61534W        W34602   3.352  44.244  14.356
61535W        W34603   8.388   9.813  14.534
61536W        W34604  40.986   6.610  11.107
61537W        W34605  33.644   8.867   1.758
61538W        W34606  22.522  42.035  12.486
61539W        W34607   7.863  10.642  11.946
61540W        W34608  17.206  33.562   0.330
61541W        W34609   8.582  27.125   2.736
61542W        W34610  22.498   3.975   2.805
61543W        W34611  32.344  19.013  13.240
61544W        W34612  44.968   8.078  11.240
61545W        W34613  12.249  27.007   3.242
61546W        W34614  16.711  25.534   4.196
61547W        W34615  23.775  43.997  11.943
61548W        W34616   0.374  26.399  14.679
61549W        W34617   4.568   3.629  12.453
61550W        W34618  28.401  20.193   2.830
61551W        W34619   7.374   3.266  13.829
61552W        W34620  31.649  30.434   2.336
61553W        W34621   3.755  23.516   2.948
61554W        W34622   5.119   6.168  11.491
61555W        W34623  38.872  16.014  11.446
61556W        W34624  23.993  14.567  12.485
61557W        W34625  15.628  41.442   1.825
61558W        W34626  29.133   9.732   3.586
61559W        W34627  21.741   2.513  12.013
61560W        W34628   4.436  31.583   0.799
61561W        W34629  44.587  17.649  13.023
61562W        W34630  17.952  37.333   5.016
61563W        W34631  22.099   1.913   1.142
61564W        W34632  34.852  15.562   2.581
61565W        W34633   2.528  27.715  11.405
61566W        W34634  23.377  40.899   1.279
61567W        W34635  34.334  40.350  14.957
61568W        W34636  39.081   8.955   4.166
61569W        W34637   6.653   5.396  11.127
61570W        W34638   2.695  15.667   2.714
61571W        W34639  14.526  28.444  14.498
61572W        W34640   9.244   1.016   1.872
61573W        W34641   9.911  14.730   3.708
61574W        W34642   4.760  36.928   0.389
61575W        W34643  37.042  13.355  14.187
61576W        W34644   9.316  13.119  14.523
61577W        W34645   3.337  30.084   0.565
61578W        W34646  41.479  13.789  10.874
61579W        W34647  38.314  18.248   0.484
61580W        W34648  44.995  18.823  10.659
61581W        W34649   1.999   1.704  11.552
61582W        W34650  24.573  33.582   3.756
61583W        W34651  16.574  27.538   0.211
61584W        W34652  26.429  17.285  14.836
61585W        W34653   4.857  41.731  13.468
61586W        W34654  18.012  31.533   3.859
61587W        W34655   8.230  15.463  12.657
61588W        W34656  33.528  36.669   1.790
61589W        W34657  22.361   3.733  11.317
61590W        W34658  17.776   5.330   1.921
61591W        W34659  28.578   4.152  12.544
61592W        W34660  21.695  13.168   1.882
61593W        W34661  24.776  22.233   1.756
61594W        W34662  24.187  17.040  11.782
61595W        W34663  34.996  39.999   3.362
61596W        W34664  22.667  44.810   2.257
61597W        W34665  22.166  25.053  12.066
61598W        W34666  19.068  42.263  13.480
61599W        W34667  40.056  34.389   1.296
61600W        W34668   3.655  37.933  10.435
61601W        W34669  42.175  27.787  12.827
61602W        W34670  32.091  11.769  11.870
61603W        W34671  33.876  34.506  11.157
61604W        W34672  38.847  34.518  10.235
61605W        W34673  24.281  17.313   2.835
61606W        W34674   7.295  35.982   2.103
61607W        W34675  23.554  10.420  12.535
61608W        W34676  38.624  38.290  11.936
61609W        W34677  28.889  19.682  13.058
61610W        W34678  32.448  39.297   1.757
61611W        W34679  44.252  14.319  14.983
61612W        W34680  41.716  33.471   3.338
61613W        W34681  19.514  42.176  12.018
61614W        W34682  27.082  24.429   2.424
61615W        W34683  10.707  34.844  13.966
61616W        W34684   7.390  34.952   1.737
61617W        W34685  40.745   8.298   0.994
61618W        W34686   6.919  13.224   1.937
61619W        W34687  34.285  19.146   1.174
61620W        W34688  39.687  42.356  13.406
61621W        W34689  12.648  31.464   0.660
61622W        W34690   4.932  17.632   0.468
61623W        W34691  40.335  12.454   2.715
61624W        W34692  38.011  41.648  14.887
61625W        W34693  16.519  29.908   1.951
61626W        W34694  16.838  41.526  12.385
61627W        W34695  23.715  12.285  11.594
61628W        W34696  37.510   0.961  14.080
61629W        W34697  35.840  26.463   1.354
61630W        W34698  30.925  37.841  12.528
61631W        W34699  17.874  22.599  11.398
61632W        W34700  42.390   6.477  14.970
61633W        W34701   0.494  42.512  14.817
61634W        W34702  31.441  22.046  10.714
61635W        W34703  28.536  11.697  11.784
61636W        W34704  25.524   2.890   0.883
61637W        W34705  14.802  30.393  14.462
61638W        W34706  27.410  14.163   4.591
61639W        W34707   5.301  16.157   0.348
61640W        W34708  39.358  23.335  14.914
61641W        W34709  22.552  14.508   2.828
61642W        W34710  41.201  14.833   4.070
61643W        W34711  36.513  37.651  13.147
61644W        W34712  42.210  34.927  12.463
61645W        W34713  20.138  24.563   1.513
61646W        W34714  37.683  29.661   1.652
61647W        W34715  44.254  19.381   3.149
61648W        W34716  34.029  31.723  11.017
61649W        W34717   7.437   0.949   3.701
61650W        W34718  10.899  15.563   3.564
61651W        W34719  16.806   3.938  11.865
61652W        W34720  15.914  11.175   3.635
61653W        W34721   8.698   9.867   1.375
61654W        W34722  12.815   5.215  11.386
61655W        W34723  32.153  41.959  11.588
61656W        W34724  11.165  20.787   4.080
61657W        W34725  43.282   8.206  12.437
61658W        W34726  39.877  43.417  13.750
61659W        W34727  15.899  38.034   1.469
61660W        W34728  34.410  29.394   0.184
61661W        W34729  26.711  30.166  11.576
61662W        W34730  12.739   5.689  13.326
61663W        W34731  34.336  21.533   2.669
61664W        W34732  15.091   2.430  14.781
61665W        W34733   2.406  31.091  13.466
61666W        W34734  21.139  35.993  11.606
61667W        W34735  34.859   0.433   3.583
61668W        W34736   3.382  41.051   2.476
61669W        W34737  31.303   1.124  10.458
61670W        W34738  38.671  43.051  14.940
61671W        W34739   2.745   8.956  10.797
61672W        W34740  41.019  21.775  12.023
61673W        W34741  40.957  16.658  13.786
61674W        W34742   8.466  30.765  13.925
61675W        W34743   2.738   4.359  12.144
61676W        W34744  18.815   6.082  12.053
61677W        W34745   9.086  33.202  13.564
61678W        W34746  21.241  21.104   3.657
61679W        W34747  31.410  16.114  13.520
61680W        W34748  17.756  26.709   4.288
61681W        W34749  27.929  42.484  14.451
61682W        W34750  24.134  26.083   3.358
61683W        W34751  31.106   5.535  13.338
61684W        W34752  28.933  27.598  10.790
61685W        W34753  41.421  22.242  11.509
61686W        W34754  37.266  40.773  12.924
61687W        W34755  26.364  15.614   4.585
61688W        W34756  20.619  14.644  12.050
61689W        W34757  14.911  26.699   4.838
61690W        W34758   8.886   5.750   0.799
61691W        W34759   7.359  21.721  14.441
61692W        W34760  41.417  17.468  11.629
61693W        W34761  18.846  13.622   2.028
61694W        W34762   7.745  12.331  11.242
61695W        W34763  34.095  33.680  13.996
61696W        W34764   8.978  19.283  10.740
61697W        W34765  21.275   8.925  11.085
61698W        W34766  21.244  30.665  12.342
61699W        W34767  32.612  18.299  14.705
61700W        W34768  23.465  35.611   1.973
61701W        W34769  41.780  39.412  11.537
61702W        W34770  12.897  25.146   0.351
61703W        W34771   4.870   2.913   2.360
61704W        W34772  25.274   1.215   2.261
61705W        W34773  41.724  33.153   1.733
61706W        W34774   9.256  14.267  11.713
61707W        W34775  14.031  24.113  12.604
61708W        W34776  30.470  43.331   1.758
61709W        W34777  14.885  32.519  14.035
61710W        W34778  40.841   4.967  12.582
61711W        W34779  17.745  33.857   4.237
61712W        W34780  15.776  14.651   3.820
61713W        W34781   8.249  18.279  10.947
61714W        W34782  35.116  14.523   2.759
61715W        W34783  25.704   3.765   1.292
61716W        W34784  26.156  15.263   1.362
61717W        W34785  40.649  35.018  14.032
61718W        W34786  26.512   3.033  13.063
61719W        W34787  13.175  35.009  13.855
61720W        W34788  39.062  18.875   2.378
61721W        W34789   6.361  16.505  14.404
61722W        W34790  24.901  10.742  10.008
61723W        W34791  10.675  43.295   0.148
61724W        W34792  14.664   0.155  11.617
61725W        W34793  12.414  17.245   2.893
61726W        W34794   4.864  19.909   4.013
61727W        W34795   0.871  29.649   4.158
61728W        W34796  33.314  43.031   0.476
61729W        W34797  41.943  20.972  12.539
61730W        W34798   1.089   9.206   4.998
61731W        W34799  33.210  37.229   4.528
61732W        W34800   7.334  19.647  11.952
61733W        W34801   5.667   0.884  13.508
61734W        W34802  22.625  22.624   4.052
61735W        W34803  30.556  21.925  10.789
61736W        W34804  25.418  16.514  12.682
61737W        W34805  14.154   0.750   1.891
61738W        W34806   3.872  18.167  11.584
61739W        W34807   7.876  17.840  14.778
61740W        W34808  10.902  38.386  13.516
61741W        W34809  16.114  36.940   0.647
61742W        W34810   0.761  39.706   3.192
61743W        W34811  28.872  22.351  10.668
61744W        W34812  41.212  28.223  13.789
61745W        W34813  36.373   0.399   1.255
61746W        W34814  17.643  20.722  10.654
61747W        W34815  33.146  19.097  10.920
61748W        W34816   5.417   0.670   0.672
61749W        W34817   8.254   3.155  10.883
61750W        W34818  17.122  32.366  13.297
61751W        W34819  16.493  18.865   0.907
61752W        W34820  30.165  23.279  13.424
61753W        W34821  41.803  18.725   3.096
61754W        W34822  37.660  22.092   3.421
61755W        W34823  40.960  42.754   2.878
61756W        W34824  30.682   0.341   1.283
61757W        W34825  44.912  44.901   2.344
61758W        W34826  19.176  24.981  12.519
61759W        W34827   0.744   0.326   4.600
61760W        W34828   7.672  22.798  12.751
61761W        W34829  28.023  39.968  13.415
61762W        W34830   0.305  35.879   0.445
61763W        W34831   4.500  34.471   3.633
61764W        W34832  28.691   0.202  13.627
61765W        W34833  22.539  40.957  11.088
61766W        W34834  32.065  36.321  14.040
61767W        W34835  43.325  20.286  12.384
61768W        W34836   4.740  40.358  13.582
61769W        W34837   1.798  20.143  10.776
61770W        W34838  22.297  39.921  10.354
61771W        W34839  10.239  41.018   2.969
61772W        W34840  37.217  38.786  11.149
61773W        W34841  30.431  33.124  12.111
61774W        W34842  17.550  28.018   4.226
61775W        W34843  38.545  40.603  11.545
61776W        W34844   7.654  43.304   4.051
61777W        W34845  11.175  16.544  14.484
61778W        W34846   8.113  25.028   3.646
61779W        W34847  27.468  31.939   4.321
61780W        W34848   5.428  35.888   3.469
61781W        W34849  26.212  34.307  12.576
61782W        W34850   9.589  15.611   0.807
61783W        W34851  43.491  21.939  11.493
61784W        W34852  15.819  16.643   4.531
61785W        W34853  23.741  31.666   2.284
61786W        W34854  44.869  27.174   0.088
61787W        W34855  29.102  16.096   2.660
61788W        W34856   0.446  17.899  13.987
61789W        W34857   5.425  17.633   1.723
61790W        W34858  20.573  24.562   2.415
61791W        W34859  27.947   5.696   1.552
61792W        W34860  28.955   6.656   2.439
61793W        W34861   8.557  22.459  13.906
61794W        W34862  22.582  40.879  10.223
61795W        W34863  39.040   7.403  11.145
61796W        W34864   3.055  28.878  13.908
61797W        W34865  19.946  43.376   0.947
61798W        W34866  20.289  40.114  14.411
61799W        W34867  26.026  30.404   4.196
61800W        W34868  26.986  22.325  11.095
61801W        W34869  22.574  42.521   1.348
61802W        W34870  40.477  28.935  13.143
61803W        W34871  34.296  19.263  14.907
61804W        W34872  27.152  14.057   4.143
61805W        W34873   1.375  43.027   3.086
61806W        W34874  40.028  33.038  14.263
61807W        W34875  27.521  10.867   2.953
61808W        W34876  23.726  41.313  10.641
61809W        W34877  18.564  38.582   4.995
61810W        W34878   9.833  44.338   1.349
61811W        W34879  24.608  15.730   2.230
61812W        W34880   2.664   0.777   0.306
61813W        W34881  41.959  43.504   4.616
61814W        W34882  21.487  33.664  13.646
61815W        W34883   5.779  33.064   3.448
61816W        W34884   4.678  36.686   2.629
61817W        W34885  21.153   0.089   2.419
61818W        W34886  34.620  18.575   1.677
61819W        W34887  19.162  21.667   0.887
61820W        W34888   4.901   9.624   4.531
61821W        W34889  24.853  34.977  13.933
61822W        W34890  41.411   4.933  10.627
61823W        W34891  22.971  23.676   1.757
61824W        W34892  11.160  39.554   3.939
61825W        W34893  26.472  11.227   1.525
61826W        W34894  37.048  35.614  11.657
61827W        W34895  24.724  14.298   0.656
61828W        W34896  14.039  20.601   0.933
61829W        W34897  41.785   9.806   4.359
61830W        W34898   2.331  22.666  14.886
61831W        W34899  40.789   9.381  12.531
61832W        W34900   9.436  15.108   2.953
61833W        W34901  28.059  14.886  10.806
61834W        W34902   4.628  10.227   2.370
61835W        W34903   6.949  17.547  11.511
61836W        W34904  31.098  30.507   0.676
61837W        W34905   7.702  44.965  14.601
61838W        W34906  18.346  35.580  14.503
61839W        W34907   6.215  34.972  11.490
61840W        W34908  39.524  21.270   1.359
61841W        W34909   6.251   0.307  12.334
61842W        W34910   8.602   4.807  14.964
61843W        W34911  37.538  43.333   0.337
61844W        W34912  40.349  11.903   0.071
61845W        W34913  10.312  17.784  11.042
61846W        W34914  42.394  11.184   4.199
61847W        W34915  30.291  12.372   2.781
61848W        W34916  16.337  30.933  10.934
61849W        W34917  31.947  17.316   3.428
61850W        W34918  15.174  27.318  14.561
61851W        W34919  15.875  19.659   4.905
61852W        W34920  10.688  38.218   0.879
61853W        W34921  15.554  27.906   2.294
61854W        W34922  19.649  30.004   4.721
61855W        W34923   4.706  25.593   0.680
61856W        W34924   7.250  32.962  11.130
61857W        W34925  20.778  12.462   0.373
61858W        W34926  30.523   7.319   1.382
61859W        W34927  42.551   1.901   1.801
61860W        W34928  33.528   8.616  14.942
61861W        W34929  25.519  24.905  12.049
61862W        W34930  17.638  30.513   3.136
61863W        W34931  32.632  36.396   4.544
61864W        W34932   8.761  17.000   4.202
61865W        W34933  43.187  44.357   1.929
61866W        W34934  15.194  20.337   2.307
61867W        W34935  22.131  15.648   0.899
61868W        W34936  15.573  28.491   1.418
61869W        W34937   6.206  33.078  11.226
61870W        W34938   2.399  10.363   2.632
61871W        W34939   9.398  35.400  11.905
61872W        W34940  40.852  27.497   1.273
61873W        W34941  13.505  21.274   1.416
61874W        W34942  12.072  43.301   0.861
61875W        W34943   8.280  38.746   4.151
61876W        W34944  23.399  21.042  13.833
61877W        W34945  39.403  17.887  14.015
61878W        W34946  36.798   8.320  12.210
61879W        W34947  19.743  14.218  11.041
61880W        W34948   6.856  32.936  14.780
61881W        W34949   4.472  11.363  14.269
61882W        W34950  10.757  16.693   5.010
61883W        W34951  22.610  42.500  14.977
61884W        W34952  31.394  21.065  11.142
61885W        W34953  15.003  36.099   4.158
61886W        W34954  11.833   7.338  11.583
61887W        W34955   8.253  43.501   1.406
61888W        W34956   5.160  42.438   4.317
61889W        W34957  22.652  28.720  13.354
61890W        W34958  38.109  41.319   3.349
61891W        W34959  29.556  30.274   9.962
61892W        W34960   7.645  28.613   0.828
61893W        W34961  31.340   5.250   3.708
61894W        W34962  43.193  40.441  10.795
61895W        W34963   0.292   4.322  13.623
61896W        W34964  28.483  37.974   4.795
61897W        W34965  38.313  15.234  11.454
61898W        W34966  35.557  33.118   0.824
61899W        W34967   5.981  20.493   3.830
61900W        W34968   8.445  31.491   2.724
61901W        W34969  33.428   2.679  12.912
61902W        W34970  12.056  16.382  12.373
61903W        W34971  20.178  20.597   4.315
61904W        W34972  16.295  17.743   3.725
61905W        W34973   6.923   7.324   2.314
61906W        W34974  13.643  10.836   4.443
61907W        W34975  13.162   3.647   1.263
61908W        W34976  16.760  22.887   4.875
61909W        W34977   4.887  29.272  12.798
61910W        W34978  23.686   8.113  12.027
61911W        W34979  31.040  22.210  14.923
61912W        W34980  22.765  17.073   4.169
61913W        W34981   1.331  14.103   1.613
61914W        W34982  31.164  10.134   0.744
61915W        W34983  14.864  19.042  14.871
61916W        W34984  31.907  36.935   4.768
61917W        W34985  35.584  24.709  14.915
61918W        W34986  34.992  43.271   3.836
61919W        W34987   6.234  34.652   1.228
61920W        W34988   5.335  26.015   1.724
61921W        W34989  41.405  19.190  10.397
61922W        W34990  11.770  11.776  11.009
61923W        W34991  40.097  40.321  12.111
61924W        W34992  44.992  33.498   0.778
61925W        W34993  35.975  43.904  14.301
61926W        W34994   2.248  34.039  11.147
61927W        W34995  24.584   2.153   3.168
61928W        W34996  26.918  16.712   0.286
61929W        W34997   1.485  12.161  14.300
61930W        W34998  26.715  36.434   3.367
61931W        W34999  30.201  16.545   2.821
61932W        W35000  36.836   6.275  10.413
61933W        W35001   9.796  18.440   4.412
61934W        W35002  32.634   6.177  11.182
61935W        W35003  18.898  29.554   4.962
61936W        W35004  27.407  14.707  13.025
61937W        W35005   6.769  38.837   2.002
61938W        W35006  22.654  33.590   1.770
61939W        W35007   6.540  37.025   4.799
61940W        W35008  28.688   9.574  14.962
61941W        W35009  18.308  13.311   0.000
61942W        W35010  36.968  42.441   4.167
61943W        W35011  19.350  20.441  11.424
61944W        W35012  37.354  26.986  11.812
61945W        W35013  32.616  37.990   3.319
61946W        W35014   3.383  15.520  11.867
61947W        W35015  27.371  43.550   4.882
61948W        W35016  22.489  20.102   4.074
61949W        W35017  28.281  30.426  11.136
61950W        W35018  40.833  10.636   1.494
61951W        W35019  40.240   8.415   5.385
61952W        W35020   0.038  40.583  13.784
61953W        W35021  34.909   6.349  13.738
61954W        W35022  43.602  19.819  11.990
61955W        W35023  30.966  30.932   0.341
61956W        W35024   7.292  27.524  12.641
61957W        W35025  38.889  15.288   4.581
61958W        W35026  14.286   8.901   0.480
61959W        W35027  29.645  22.975   1.653
61960W        W35028  17.216  44.982   3.843
61961W        W35029  23.626  43.786  12.482
61962W        W35030  17.090  35.827   0.757
61963W        W35031  30.695  26.184  12.039
61964W        W35032  13.289  35.114   3.281
61965W        W35033  10.204  21.100  13.557
61966W        W35034  12.835   3.973   2.217
61967W        W35035  40.862  25.550  11.694
61968W        W35036  20.568  17.081   2.694
61969W        W35037  10.332  38.467  12.075
61970W        W35038   6.899  18.602  10.766
61971W        W35039  36.861  33.967   9.701
61972W        W35040   9.108  26.565  10.525
61973W        W35041  37.334  15.792  11.167
61974W        W35042  14.787  29.513  14.628
61975W        W35043  36.045  35.583  10.362
61976W        W35044  34.062  33.558   2.364
61977W        W35045  19.527  44.770   3.567
61978W        W35046   2.507   8.733  13.065
61979W        W35047  34.158  36.099  13.104
61980W        W35048  29.036  44.257   4.641
61981W        W35049   0.752  44.314  13.367
61982W        W35050  37.747  22.223  12.441
61983W        W35051  28.625  21.237  13.906
61984W        W35052  37.548  28.227   2.786
61985W        W35053  39.298  31.030  13.317
61986W        W35054  34.817  29.033   0.142
61987W        W35055  41.062  40.370  14.877
61988W        W35056  37.873  19.261  11.547
61989W        W35057  42.672  44.588   5.019
61990W        W35058  22.977  32.514  12.652
61991W        W35059  43.954  35.967  13.283
61992W        W35060  44.213   1.706   2.505
61993W        W35061  31.386  37.452   4.101
61994W        W35062  34.389  14.788  12.308
61995W        W35063  13.915  27.889   0.851
61996W        W35064  17.449  13.444  12.313
61997W        W35065  10.334  42.885  14.680
61998W        W35066  28.596  10.941   4.032
61999W        W35067  43.823  39.728   4.366
62000W        W35068  41.801  18.110  13.885
62001W        W35069   4.932  30.458   4.200
62002W        W35070  23.283  34.387  10.695
62003W        W35071  20.848  37.806   4.135
62004W        W35072  13.000  25.508   1.837
62005W        W35073  27.282   1.403  14.299
62006W        W35074  10.321  12.977  13.610
62007W        W35075   6.415  44.390  10.737
62008W        W35076  34.686  10.147   3.687
62009W        W35077  19.128  31.382  12.064
62010W        W35078   6.390  44.986  11.936
62011W        W35079  37.453  36.211   0.383
62012W        W35080  24.005   8.893   0.373
62013W        W35081   9.382  19.902  11.974
62014W        W35082  41.401   6.684   4.256
62015W        W35083  19.957  24.111  13.894
62016W        W35084   9.068  22.516  13.788
62017W        W35085  17.669  29.061  10.453
62018W        W35086  13.418  41.587   3.299
62019W        W35087  37.496   6.906  13.046
62020W        W35088  14.127  33.445   0.755
62021W        W35089  17.251   9.667   2.426
62022W        W35090  29.573  30.449  11.538
62023W        W35091   4.230  42.581   0.621
62024W        W35092   6.558   5.883   9.950
62025W        W35093  10.236   2.417  13.349
62026W        W35094  28.308  28.768  11.638
62027W        W35095  22.137  13.332   4.013
62028W        W35096  32.404  44.775   1.795
62029W        W35097  16.039   0.490   3.181
62030W        W35098  18.177  38.330   1.631
62031W        W35099  31.407  21.443   4.580
62032W        W35100  23.517   8.295  10.819
62033W        W35101   3.163   0.617   0.416
62034W        W35102  18.559  42.397   2.686
62035W        W35103  35.020  28.677   4.287
62036W        W35104  33.174  40.886   4.242
62037W        W35105  43.871  22.231   4.862
62038W        W35106  25.577  37.096   0.044
62039W        W35107  41.999   1.294  14.242
62040W        W35108  18.402  16.058   0.391
62041W        W35109  40.882  18.334  14.732
62042W        W35110   9.142  12.845   3.720
62043W        W35111  41.885  43.194   4.196
62044W        W35112  39.330   7.958  13.161
62045W        W35113  33.150  42.799   4.297
62046W        W35114   0.142  13.686   0.377
62047W        W35115  36.459  20.677  14.804
62048W        W35116   1.806  41.315  13.050
62049W        W35117  36.782  33.091  13.012
62050W        W35118  19.699  35.547  13.991
62051W        W35119  31.984   3.217  11.625
62052W        W35120  23.600   6.920  14.390
62053W        W35121  10.491  25.100   5.118
62054W        W35122  32.805  11.542   3.152
62055W        W35123   9.653  36.419   3.001
62056W        W35124  44.980  38.379   2.839
62057W        W35125  27.847  12.782  10.011
62058W        W35126  16.145  29.657   0.805
62059W        W35127  35.534  37.510  11.102
62060W        W35128  14.315  10.290  12.472
62061W        W35129  16.229   0.268   0.964
62062W        W35130  40.580  43.737   3.747
62063W        W35131   2.903  30.932  12.861
62064W        W35132  42.792  15.715  14.499
62065W        W35133  10.815  18.848   3.832
62066W        W35134  20.207   8.718  14.292
62067W        W35135   2.581  39.486  11.647
62068W        W35136  25.896  33.860   0.750
62069W        W35137  11.200  38.870  11.329
62070W        W35138  16.165  18.375  11.679
62071W        W35139  13.679   3.463   4.595
62072W        W35140  39.902  33.935  12.746
62073W        W35141  15.283  22.844   1.407
62074W        W35142   8.407  41.337   1.551
62075W        W35143  29.426  40.364   0.893
62076W        W35144  35.500   1.001  13.554
62077W        W35145  23.447   2.330  13.354
62078W        W35146  21.959  28.448   1.358
62079W        W35147   5.272  19.744   2.390
62080W        W35148  29.050  29.833  11.179
62081W        W35149  23.868  30.517   4.142
62082W        W35150  20.945   3.345  12.537
62083W        W35151   8.833  11.749  10.690
62084W        W35152  34.926  21.118   3.675
62085W        W35153  26.352  42.264   4.137
62086W        W35154  15.738  27.423   0.800
62087W        W35155  38.235  34.137  14.348
62088W        W35156  19.580   3.708  13.981
62089W        W35157   9.289   2.604  11.698
62090W        W35158  29.471  34.219   0.742
62091W        W35159   0.399  44.889  12.858
62092W        W35160  11.132  30.632  11.540
62093W        W35161  29.956  23.995  14.482
62094W        W35162   2.203  39.453  11.266
62095W        W35163  35.012  44.286   3.695
62096W        W35164  40.345  26.528  14.289
62097W        W35165   0.488  29.894   2.801
62098W        W35166   8.462   2.181  13.874
62099W        W35167  27.268  40.536   4.389
62100W        W35168  44.793  40.571  12.357
62101W        W35169  31.586   2.828  13.778
62102W        W35170  16.570  21.467  14.876
62103W        W35171  38.600   5.203   4.861
62104W        W35172  34.137  40.798  14.775
62105W        W35173  20.521   3.740  11.630
62106W        W35174  34.041  12.529   0.764
62107W        W35175  20.087  38.820  11.615
62108W        W35176  38.894  16.066   4.148
62109W        W35177  42.395  32.648  13.529
62110W        W35178  25.469  23.947  13.475
62111W        W35179   9.444  39.297  10.100
62112W        W35180  35.514  13.900  14.926
62113W        W35181  17.842  21.330  14.839
62114W        W35182  17.238  33.078   2.329
62115W        W35183  11.258  12.188   0.434
62116W        W35184  10.763  33.480   2.217
62117W        W35185  28.889  31.018  13.608
62118W        W35186  31.618  31.619   2.692
62119W        W35187   4.978  32.505  13.088
62120W        W35188  19.715  44.514  14.291
62121W        W35189  39.188  25.943   9.794
62122W        W35190  15.594  12.682  13.088
62123W        W35191  43.534  19.044   1.708
62124W        W35192  42.989  38.496   0.193
62125W        W35193   0.830  13.391  14.072
62126W        W35194  37.392   7.417  12.216
62127W        W35195   4.789  24.563   1.588
62128W        W35196  15.552  13.748   4.589
62129W        W35197  39.343  39.632   2.789
62130W        W35198  31.350  40.885   3.773
62131W        W35199   7.302  12.734  11.595
62132W        W35200  41.049  35.569  14.853
62133W        W35201  19.657  21.299  14.874
62134W        W35202   2.868  13.405  13.448
62135W        W35203   0.742  24.549  13.474
62136W        W35204  37.336  10.671   5.040
62137W        W35205  39.142  12.123   1.320
62138W        W35206  25.510  31.146  12.927
62139W        W35207  29.037  26.508   0.699
62140W        W35208  35.956  35.075   2.384
62141W        W35209   7.816  29.686  11.987
62142W        W35210   5.390   7.401   1.666
62143W        W35211  39.601  28.677  13.478
62144W        W35212  12.405   5.255   2.969
62145W        W35213  10.099   8.647  12.596
62146W        W35214  17.372   1.394   2.765
62147W        W35215  20.205  23.093   1.474
62148W        W35216  26.987  31.193   3.820
62149W        W35217  16.782  38.595   0.937
62150W        W35218  33.695  29.600  11.165
62151W        W35219  15.044   5.865  13.448
62152W        W35220  27.363  16.594   3.294
62153W        W35221  42.438  19.215   1.529
62154W        W35222   2.510  26.122  11.138
62155W        W35223  25.310  31.321  12.422
62156W        W35224  34.341  40.829   1.247
62157W        W35225  22.042  26.818  12.896
62158W        W35226  34.417  36.541  12.389
62159W        W35227   3.855  19.779   4.997
62160W        W35228  34.476  24.616  14.838
62161W        W35229  38.843  42.002   1.884
62162W        W35230   2.360  34.954  13.359
62163W        W35231  32.137  32.911   1.918
62164W        W35232  30.565  26.542  10.734
62165W        W35233  18.341  41.776  12.611
62166W        W35234   3.808   1.986  11.604
62167W        W35235  37.973  33.844   2.251
62168W        W35236  16.657  38.094   0.916
62169W        W35237  20.759  35.060   4.031
62170W        W35238  43.998  22.631   2.334
62171W        W35239  14.692   8.621  12.979
62172W        W35240  29.012  28.082   3.263
62173W        W35241  14.103  39.891  13.586
62174W        W35242  38.437  17.619   2.768
62175W        W35243  32.532  11.076   1.261
62176W        W35244  39.241  36.649   0.863
62177W        W35245  14.749  15.637   0.803
62178W        W35246  23.814  10.627   1.267
62179W        W35247   8.657  37.928   2.366
62180W        W35248  18.352  37.183  13.083
62181W        W35249  10.733  16.131  11.433
62182W        W35250  16.678   2.285   4.634
62183W        W35251  44.875  30.959  14.011
62184W        W35252   6.069   0.950   2.846
62185W        W35253   3.438  37.373  14.340
62186W        W35254  27.471  24.553   0.738
62187W        W35255  16.595  18.662  11.889
62188W        W35256  18.489  20.780  12.236
62189W        W35257   6.839   6.874   4.517
62190W        W35258  41.126  30.055   0.455
62191W        W35259  19.594  39.744   2.730
62192W        W35260  30.086  30.312  11.467
62193W        W35261  14.743  34.741   3.273
62194W        W35262   7.651  38.242   3.691
62195W        W35263  21.730   6.744  14.569
62196W        W35264  36.833  30.588  11.006
62197W        W35265  43.495  39.858   3.184
62198W        W35266  29.794   7.932   4.940
62199W        W35267  20.086  39.550  13.555
62200W        W35268  37.538  20.157  10.747
62201W        W35269   5.395  23.970  14.034
62202W        W35270  32.810  31.613   3.570
62203W        W35271  37.571  44.394   1.782
62204W        W35272   5.449  44.927  12.074
62205W        W35273  24.450  13.075   2.366
62206W        W35274  23.052  24.664  12.173
62207W        W35275   4.743  16.511  11.654
62208W        W35276   5.333  29.602   1.691
62209W        W35277  29.784  36.392   4.767
62210W        W35278  18.031   1.760  10.672
62211W        W35279  28.737  17.046  10.777
62212W        W35280   9.070  32.639   0.961
62213W        W35281   4.171   6.860   0.756
62214W        W35282  35.361  37.586  12.486
62215W        W35283   7.711  16.093   3.219
62216W        W35284  27.075  37.958   4.212
62217W        W35285  14.209  10.866   3.247
62218W        W35286  30.531   9.891  13.786
62219W        W35287  37.806  33.403   1.048
62220W        W35288   5.298   3.370   1.835
62221W        W35289  22.136  41.782   2.305
62222W        W35290   9.215  17.635   0.862
62223W        W35291  39.623   1.543   1.814
62224W        W35292  38.915   8.784   1.892
62225W        W35293  41.311  16.696   2.907
62226W        W35294  18.197  10.323   2.337
62227W        W35295  23.046  29.878   2.649
62228W        W35296  35.676  19.783   2.740
62229W        W35297  31.083  36.583  12.974
62230W        W35298  41.014   5.426  10.877
62231W        W35299  25.831   6.309  14.923
62232W        W35300   1.667  27.576   2.836
62233W        W35301  41.221  30.697   1.884
62234W        W35302  39.056  32.684  10.587
62235W        W35303  33.143   5.621   1.287
62236W        W35304   3.970  12.305  14.362
62237W        W35305  39.471   5.084   2.868
62238W        W35306  20.188  28.104  10.754
62239W        W35307   9.787  29.916  12.377
62240W        W35308  21.503  21.301   1.468
62241W        W35309  18.590  21.167   1.213
62242W        W35310  32.524  31.476  11.218
62243W        W35311   5.365  32.077  14.876
62244W        W35312  44.568   6.022   3.611
62245W        W35313  16.404   9.658   2.183
62246W        W35314  42.330  27.508   2.330
62247W        W35315  41.229  15.300  14.435
62248W        W35316  42.951  17.055  10.731
62249W        W35317  35.812  42.080  14.875
62250W        W35318  26.077  26.244   4.546
62251W        W35319  28.005   7.509   4.145
62252W        W35320  28.042  22.308   0.389
62253W        W35321   2.367   3.048  13.448
62254W        W35322   8.219  40.790   3.235
62255W        W35323  15.307  30.504   1.294
62256W        W35324  34.433  40.807  10.606
62257W        W35325  24.744  40.399  10.225
62258W        W35326  13.915  21.549   3.363
62259W        W35327  27.526  36.783  11.167
62260W        W35328  23.236  21.072   3.193
62261W        W35329  39.924  11.262  14.366
62262W        W35330  31.861  40.497  14.027
62263W        W35331  23.191  15.111  12.055
62264W        W35332  34.431  41.778  11.688
62265W        W35333  22.566  13.163   4.854
62266W        W35334  22.101  30.026   1.193
62267W        W35335   4.609  16.749   0.959
62268W        W35336   5.313  27.183   2.149
62269W        W35337   9.346   6.731  13.439
62270W        W35338   8.781  32.184   2.401
62271W        W35339  24.433  34.543   1.435
62272W        W35340  15.692   7.383   1.448
62273W        W35341   1.672  32.543  12.566
62274W        W35342  28.533  21.986  13.262
62275W        W35343  28.078  24.672  13.413
62276W        W35344  34.976  10.177   4.490
62277W        W35345  19.953  35.790  10.969
62278W        W35346  43.120   3.865   1.535
62279W        W35347  22.239  26.738   1.760
62280W        W35348  12.343   8.352   3.285
62281W        W35349  35.646  30.929  13.957
62282W        W35350  28.387  40.932  11.178
62283W        W35351  28.925   2.310  14.380
62284W        W35352   4.882  20.484   2.810
62285W        W35353  39.141  12.365   2.683
62286W        W35354   8.655  35.138  14.335
62287W        W35355  23.273  39.436  12.381
62288W        W35356  36.373  33.974  14.393
62289W        W35357  22.074   8.644   1.723
62290W        W35358  28.269  11.168  11.559
62291W        W35359  15.852  32.639  14.919
62292W        W35360  16.365   4.199   1.851
62293W        W35361  44.846  17.957  14.835
62294W        W35362  17.605  31.588   3.155
62295W        W35363  19.289  40.041   1.822
62296W        W35364  15.069   3.968  11.153
62297W        W35365  28.480  22.566   4.879
62298W        W35366  38.829  10.512   2.104
62299W        W35367  24.246  38.111  10.276
62300W        W35368   0.783  16.139  11.668
62301W        W35369   9.161  40.485   3.666
62302W        W35370  11.170  38.724   3.328
62303W        W35371  35.869   4.892   2.230
62304W        W35372  31.848  34.526  12.554
62305W        W35373   6.888  12.646   2.665
62306W        W35374  31.915  25.078   3.304
62307W        W35375  40.329   0.679  12.955
62308W        W35376  36.075   7.184   3.636
62309W        W35377   4.499  14.788   1.874
62310W        W35378  37.797  32.611  13.559
62311W        W35379   1.604  26.243  14.851
62312W        W35380  44.375  16.336   4.283
62313W        W35381  22.372  28.987  12.121
62314W        W35382   3.623   2.862  13.948
62315W        W35383  17.817  27.624   4.411
62316W        W35384  19.242  43.325  11.910
62317W        W35385   1.514  30.402   3.225
62318W        W35386  17.788  21.139  12.945
62319W        W35387  34.979   2.242   3.167
62320W        W35388   7.708  11.555  12.383
62321W        W35389   9.694  18.115   0.342
62322W        W35390   0.487  38.659   1.366
62323W        W35391  26.043  35.916   2.322
62324W        W35392  14.866   6.365  10.719
62325W        W35393  15.403  12.427   1.763
62326W        W35394  25.664   3.220   3.195
62327W        W35395  15.972  27.578   2.297
62328W        W35396  42.219  40.507   4.080
62329W        W35397   2.130   8.870  14.933
62330W        W35398  44.195  13.702  11.553
62331W        W35399   3.976  11.561  12.904
62332W        W35400   2.479  10.040  11.569
62333W        W35401   9.830   6.933   0.996
62334W        W35402   4.743  27.023  10.632
62335W        W35403  11.362   2.063  11.237
62336W        W35404  33.491  42.776   1.746
62337W        W35405  39.999  13.550   0.461
62338W        W35406  40.596   8.001   1.406
62339W        W35407  24.227  31.556   3.298
62340W        W35408  40.105   2.059   3.872
62341W        W35409  13.306  21.270   2.621
62342W        W35410   1.812  12.216  13.859
62343W        W35411  36.146   5.665  11.569
62344W        W35412  40.998   4.617  14.882
62345W        W35413  36.896   5.338  13.991
62346W        W35414  40.305  37.661  10.601
62347W        W35415   3.454  39.543  14.346
62348W        W35416   6.226  24.363   2.673
62349W        W35417  24.653  33.142   0.770
62350W        W35418  20.235  41.862   4.834
62351W        W35419  32.836   6.855   2.285
62352W        W35420  29.681   8.606   1.367
62353W        W35421  42.052  41.503   0.262
62354W        W35422  17.857  37.536   1.711
62355W        W35423   9.097  41.978  12.237
62356W        W35424   0.003  26.236   2.681
62357W        W35425  25.750  20.035  14.391
62358W        W35426   0.128  43.869   4.176
62359W        W35427  20.717  22.065   0.410
62360W        W35428  17.262   4.861  13.266
62361W        W35429  27.001   2.745   4.511
62362W        W35430  23.051   0.713   2.837
62363W        W35431  25.483  36.498  10.407
62364W        W35432  17.735  43.307   1.407
62365W        W35433  41.383  22.542   2.390
62366W        W35434  33.886  14.479   5.087
62367W        W35435   0.889   6.986   1.929
62368W        W35436   6.821   3.343   1.199
62369W        W35437  22.519  29.075  10.651
62370W        W35438  18.203  17.735   3.241
62371W        W35439   5.995  16.816   1.794
62372W        W35440  32.853  44.437   4.183
62373W        W35441  38.448  39.535  14.020
62374W        W35442   9.264   8.823  10.634
62375W        W35443   8.383  22.229   2.219
62376W        W35444  30.715   8.901   4.868
62377W        W35445   6.676   1.789   0.021
62378W        W35446  26.693  39.425   3.140
62379W        W35447  10.258  13.505  14.427
62380W        W35448  21.670   8.424   3.729
62381W        W35449  21.665  38.277  11.872
62382W        W35450  28.408  35.838   2.256
62383W        W35451  41.859  32.071   1.373
62384W        W35452  38.565  33.293   1.790
62385W        W35453  37.197   7.699   0.980
62386W        W35454  24.167  32.140   4.508
62387W        W35455  18.823  22.552  13.581
62388W        W35456  41.805   1.465  13.370
62389W        W35457  42.088  10.769  13.036
62390W        W35458   1.432  18.025  11.891
62391W        W35459   6.379  22.495   3.244
62392W        W35460   5.508   2.485  12.068
62393W        W35461  36.706  32.407  14.794
62394W        W35462  29.376  32.526  11.847
62395W        W35463  12.393   8.235  13.394
62396W        W35464  12.637   2.450   1.905
62397W        W35465   0.044  34.496   2.815
62398W        W35466  41.805   6.821   4.542
62399W        W35467  39.486  40.481  10.479
62400W        W35468  33.477  18.783  10.680
62401W        W35469   4.490  33.119  14.351
62402W        W35470   2.293  26.077   1.388
62403W        W35471  21.210  19.398  13.263
62404W        W35472   8.751  39.921  10.894
62405W        W35473  14.760   2.762   0.472
62406W        W35474  35.654  19.128   1.281
62407W        W35475  24.071  11.076  13.313
62408W        W35476  31.398  37.427   3.057
62409W        W35477  28.292   2.302   2.550
62410W        W35478   0.784  12.048   1.290
62411W        W35479  38.592   5.383  10.557
62412W        W35480  14.803  42.114  10.666
62413W        W35481  37.334  37.112   3.470
62414W        W35482  38.418  30.395  13.081
62415W        W35483  14.439   3.346  13.376
62416W        W35484  18.116  20.942  11.219
62417W        W35485  13.257  33.999   0.383
62418W        W35486  22.463  31.879   0.767
62419W        W35487  28.974  39.969   4.603
62420W        W35488  29.248  18.108  14.850
62421W        W35489   0.484   0.845   3.776
62422W        W35490  33.922   4.324  10.587
62423W        W35491  28.010  13.752  11.490
62424W        W35492  21.559  11.139   2.885
62425W        W35493  13.612  24.633   3.299
62426W        W35494  11.683  13.273   4.577
62427W        W35495   7.023  24.961  11.963
62428W        W35496  14.101  26.114  12.526
62429W        W35497   2.493  40.959  12.422
62430W        W35498  10.747  43.400  11.992
62431W        W35499  42.237  27.489  11.595
62432W        W35500   6.459   1.053   2.289
62433W        W35501  36.588  11.545  14.975
62434W        W35502  43.389  18.966  14.242
62435W        W35503  40.897   9.096  11.136
62436W        W35504  24.554  40.207  12.329
62437W        W35505  21.137  20.266   2.777
62438W        W35506  37.844  26.938  11.941
62439W        W35507   0.459   0.588  11.845
62440W        W35508  27.719  13.153   2.146
62441W        W35509   0.287  12.395   0.649
62442W        W35510  18.329  29.058   1.423
62443W        W35511   0.352   6.117   0.257
62444W        W35512   7.263  27.395  11.025
62445W        W35513  28.881  32.374  11.924
62446W        W35514  26.004  37.540  13.097
62447W        W35515  11.505  36.165   3.869
62448W        W35516  14.109  40.790   1.295
62449W        W35517  13.306  39.527   3.660
62450W        W35518  40.893  36.956  14.380
62451W        W35519  27.082  41.328   1.339
62452W        W35520  14.102   7.934  13.815
62453W        W35521  13.207  12.863  14.496
62454W        W35522  28.976  11.836   0.185
62455W        W35523  31.379   1.416  14.885
62456W        W35524   2.391  22.738   1.403
62457W        W35525  44.351  28.487  11.663
62458W        W35526  39.504  36.997  14.935
62459W        W35527  34.990  29.073  12.912
62460W        W35528  42.725  31.627   3.059
62461W        W35529  12.576   7.647  13.889
62462W        W35530  14.272  10.339  11.602
62463W        W35531  29.139  41.813  12.623
62464W        W35532   1.352  38.840   0.323
62465W        W35533  17.691  19.943   4.577
62466W        W35534   7.803   4.509   1.826
62467W        W35535  27.367  33.798  10.970
62468W        W35536  34.268  13.216   1.269
62469W        W35537   0.706  40.236   3.229
62470W        W35538   6.795  12.347   4.674
62471W        W35539   7.353  40.462  13.031
62472W        W35540  33.009  11.893   2.274
62473W        W35541  11.379  24.190   2.648
62474W        W35542  28.168  13.457   4.571
62475W        W35543  30.086  10.837  12.956
62476W        W35544   9.753   4.875  12.854
62477W        W35545   8.397  12.186  13.358
62478W        W35546   0.856  19.800  13.879
62479W        W35547  12.177  34.660   1.777
62480W        W35548  10.202   3.499   3.318
62481W        W35549  36.398  39.529   3.593
62482W        W35550  22.037  37.059   0.889
62483W        W35551   5.218   4.315  11.153
62484W        W35552  42.990  36.071   4.498
62485W        W35553  16.721  29.492   0.724
62486W        W35554  28.810   8.175   4.749
62487W        W35555  32.479   4.922  12.904
62488W        W35556  20.187   7.700  14.360
62489W        W35557   2.963  22.263  13.553
62490W        W35558   4.430   2.704  12.511
62491W        W35559  44.341   7.683   1.465
62492W        W35560  12.174  13.981  11.670
62493W        W35561  41.782  26.073   3.334
62494W        W35562   5.756  44.139   0.783
62495W        W35563   0.593  40.282   4.541
62496W        W35564  42.708  16.323  13.947
62497W        W35565  29.195   9.120   4.662
62498W        W35566  40.112  30.522   2.736
62499W        W35567  38.089  34.971   1.223
62500W        W35568  25.656  24.417  13.531
62501W        W35569  42.759   0.879  11.506
62502W        W35570  16.704  41.625   3.352
62503W        W35571  14.308  39.347  11.926
62504W        W35572   4.688  41.775   1.838
62505W        W35573  16.350  41.355   3.034
62506W        W35574  10.666   5.851   3.170
62507W        W35575  28.084   4.849   1.018
62508W        W35576  19.205  31.440  14.243
62509W        W35577  10.176   5.088   4.311
62510W        W35578  31.374  44.906   1.713
62511W        W35579  31.134  30.045   1.440
62512W        W35580  29.505  21.040  10.712
62513W        W35581  41.401  34.451   1.425
62514W        W35582  42.233  13.516   0.386
62515W        W35583  37.592  39.825   2.257
62516W        W35584   7.939   2.181   3.953
62517W        W35585  24.729  17.254   9.959
62518W        W35586  40.430   0.053   1.517
62519W        W35587   6.318  40.663   1.811
62520W        W35588   1.253  41.590   0.732
62521W        W35589  30.291  33.886   1.426
62522W        W35590  40.836  15.053   0.295
62523W        W35591  11.953  41.256  14.082
62524W        W35592  33.960  10.726  11.119
62525W        W35593  24.556  14.312  14.270
62526W        W35594  26.656   8.919  11.530
62527W        W35595  39.168   3.773   4.114
62528W        W35596  30.973  44.941   0.810
62529W        W35597   7.708  19.217  11.492
62530W        W35598  44.747  42.333  14.447
62531W        W35599  43.007   4.661   3.333
62532W        W35600  18.849  21.204  12.822
62533W        W35601  24.909  36.409   0.667
62534W        W35602  13.030  37.831   0.976
62535W        W35603  13.217  35.985   1.179
62536W        W35604  15.113   2.775  12.398
62537W        W35605   1.479  42.956   4.041
62538W        W35606  37.508  20.092   1.596
62539W        W35607  18.747   8.364  12.170
62540W        W35608   1.763   5.264  14.001
62541W        W35609  29.887  23.150   2.885
62542W        W35610  40.082  15.407  13.884
62543W        W35611   1.545  37.919  12.463
62544W        W35612   3.422  30.839  12.931
62545W        W35613  10.801  15.584   0.034
62546W        W35614  29.597  28.225   3.693
62547W        W35615   2.797  32.929   4.446
62548W        W35616   9.940  25.787   3.677
62549W        W35617  36.434  31.583   3.891
62550W        W35618  22.845  42.125   1.657
62551W        W35619   9.245  21.109  14.451
62552W        W35620  42.210   9.266  10.582
62553W        W35621  35.162   4.672   1.567
62554W        W35622  38.579  43.073   3.290
62555W        W35623  42.404   3.977   2.856
62556W        W35624   3.837   0.005  10.957
62557W        W35625  44.675  30.201   1.866
62558W        W35626  32.963   3.107  11.537
62559W        W35627  14.135  17.344   1.665
62560W        W35628   3.969  25.126   1.261
62561W        W35629  17.572  18.681   4.067
62562W        W35630  17.277  13.325   3.788
62563W        W35631   7.872  21.320   4.442
62564W        W35632   7.115  29.914  12.870
62565W        W35633  10.564  17.989  12.501
62566W        W35634  16.063  10.262   0.799
62567W        W35635  40.492  11.368   4.212
62568W        W35636  31.540  16.078   1.667
62569W        W35637  24.471  25.889   0.807
62570W        W35638  35.363  35.960  10.523
62571W        W35639  37.826  23.407   3.881
62572W        W35640  34.514  37.251  14.299
62573W        W35641  13.000  10.657  12.544
62574W        W35642   9.928  14.409  12.984
62575W        W35643   3.796  14.425   0.090
62576W        W35644  44.269  15.127   0.979
62577W        W35645  19.485  11.994  11.623
62578W        W35646  23.713  15.593  11.027
62579W        W35647  37.125  38.839   1.208
62580W        W35648  41.362  15.755   0.450
62581W        W35649  34.738  22.287   0.932
62582W        W35650  31.019  25.981   3.662
62583W        W35651  39.907  12.258  10.352
62584W        W35652   3.007  32.636  14.340
62585W        W35653   3.783   8.147   2.819
62586W        W35654  37.221  43.839  12.187
62587W        W35655  41.799  17.090   0.819
62588W        W35656  30.063  11.302   1.954
62589W        W35657   8.370  14.249  11.323
62590W        W35658  32.468   9.004  13.861
62591W        W35659  13.531  34.425   3.224
62592W        W35660   8.241  23.629  10.656
62593W        W35661   0.300  18.115   1.402
62594W        W35662   7.349  21.754  11.981
62595W        W35663   2.564  27.248   2.762
62596W        W35664  40.891   6.135   3.713
62597W        W35665  31.157   5.287   1.229
62598W        W35666  40.102  21.832  12.009
62599W        W35667   7.426  19.099   2.038
62600W        W35668  23.449  28.059   0.493
62601W        W35669  13.096   5.412  12.718
62602W        W35670  10.439  27.654   9.883
62603W        W35671  24.811  32.493  12.843
62604W        W35672  41.460  35.166   2.246
62605W        W35673  25.576  26.088  11.430
62606W        W35674  36.341  39.236  11.870
62607W        W35675  27.923  38.360  11.151
62608W        W35676  29.483  24.130  14.022
62609W        W35677  39.365  14.689   3.498
62610W        W35678  39.606   9.299   2.187
62611W        W35679  21.811  10.191  13.563
62612W        W35680   9.333  40.508   2.315
62613W        W35681   5.942   2.370   2.590
62614W        W35682  20.732  26.561   4.911
62615W        W35683   0.484  36.175  12.570
62616W        W35684   8.646  23.153   0.348
62617W        W35685  42.481  18.302  11.968
62618W        W35686  27.939  11.819  14.536
62619W        W35687  18.280  27.574   4.230
62620W        W35688  23.867   7.462   3.317
62621W        W35689   5.926  43.464  11.491
62622W        W35690   6.271  15.905   4.105
62623W        W35691  22.805   0.166   1.502
62624W        W35692  29.237  22.513  13.357
62625W        W35693  24.069  43.889   2.754
62626W        W35694   8.871  26.403  12.897
62627W        W35695  28.102   2.902   4.346
62628W        W35696  26.553  31.194  13.124
62629W        W35697  11.614  10.560  13.422
62630W        W35698   1.036  13.748  12.279
62631W        W35699   2.934   8.729  11.890
62632W        W35700  42.357  22.011   2.300
62633W        W35701  29.117   8.255   3.894
62634W        W35702  40.335  24.454   3.985
62635W        W35703  31.932   4.270   3.145
62636W        W35704  19.768  31.067   4.658
62637W        W35705   7.182  44.484   4.439
62638W        W35706  15.279  11.097   1.430
62639W        W35707  22.993  38.069   1.254
62640W        W35708  26.614  34.953   1.399
62641W        W35709  42.240   6.827  11.565
62642W        W35710  30.191  43.814   2.968
62643W        W35711  17.112  11.850   3.101
62644W        W35712   5.236   7.300  11.219
62645W        W35713  30.011  32.414   1.648
62646W        W35714  15.271  22.082   0.930
62647W        W35715  28.122  26.163  14.908
62648W        W35716   5.673   5.788   0.911
62649W        W35717  31.537  33.648   0.978
62650W        W35718   1.438   1.506  13.943
62651W        W35719   3.482  40.067  13.144
62652W        W35720  11.319  38.003   4.296
62653W        W35721  13.908  31.047   0.875
62654W        W35722  40.408  32.624  12.511
62655W        W35723  39.844   8.268  11.147
62656W        W35724  11.761  24.280  13.944
62657W        W35725  29.268  43.015  10.254
62658W        W35726   0.379  10.544  13.799
62659W        W35727  19.776   3.176   3.842
62660W        W35728  43.278  25.409  12.410
62661W        W35729   5.340  39.992   2.973
62662W        W35730  26.851   9.315   2.717
62663W        W35731  12.305  27.897  14.310
62664W        W35732  21.412   7.312  10.241
62665W        W35733  34.053   6.263  13.779
62666W        W35734   9.736  43.331  11.015
62667W        W35735   3.025   8.822  12.856
62668W        W35736  19.801  20.619   3.054
62669W        W35737   9.308  33.603  11.604
62670W        W35738  14.584  22.709   4.890
62671W        W35739   1.634  39.883  10.732
62672W        W35740  20.146  18.890  14.541
62673W        W35741  29.360  17.285   2.135
62674W        W35742  30.504  12.841   0.445
62675W        W35743  25.933  29.604  14.504
62676W        W35744  43.418   0.474  12.105
62677W        W35745  16.550  22.700  10.991
62678W        W35746  20.529  24.984  11.630
62679W        W35747   3.059   5.787   0.994
62680W        W35748   3.710  41.043   1.859
62681W        W35749  35.106  28.993   2.065
62682W        W35750  16.222   8.901  11.828
62683W        W35751  40.566  39.429   4.518
62684W        W35752  40.937   9.200   1.780
62685W        W35753   7.826  30.941   2.947
62686W        W35754   7.111  31.110  12.404
62687W        W35755  37.146  12.247   2.266
62688W        W35756  22.426  19.257   1.244
62689W        W35757  17.734   4.029   3.327
62690W        W35758  24.465  31.939   4.128
62691W        W35759  21.560   3.400   0.792
62692W        W35760  37.350  24.115  11.696
62693W        W35761   8.202  35.615  11.076
62694W        W35762  38.435  40.744   0.645
62695W        W35763  31.069  44.485   1.738
62696W        W35764  20.741  21.619   3.069
62697W        W35765  19.339  24.165  11.410
62698W        W35766  13.217  16.797  14.971
62699W        W35767  23.385  43.852  12.993
62700W        W35768  40.367  42.841  14.089
62701W        W35769  26.623   4.645  14.951
62702W        W35770  20.920  44.993  12.669
62703W        W35771   1.242   4.000   0.294
62704W        W35772  42.546  20.980   2.328
62705W        W35773  26.661  41.839   2.174
62706W        W35774  21.056   8.254   0.337
62707W        W35775  32.577  38.791   4.625
62708W        W35776  24.383  27.151   3.620
62709W        W35777   4.185   1.168   4.579
62710W        W35778  18.576  24.635   4.532
62711W        W35779  10.463  18.249   3.244
62712W        W35780  34.225  27.136   3.621
62713W        W35781   3.702  20.235   3.316
62714W        W35782  38.423   1.152  10.669
62715W        W35783   0.811  33.638  14.689
62716W        W35784  26.909   3.722  13.536
62717W        W35785   9.162  34.543   1.607
62718W        W35786  25.924  43.340   1.911
62719W        W35787  36.522  11.112   0.977
62720W        W35788   6.976   0.868   1.948
62721W        W35789  17.374  38.720  14.287
62722W        W35790  26.549  26.047  10.637
62723W        W35791  43.723  41.979   3.222
62724W        W35792  19.632  28.238   2.324
62725W        W35793  13.111   5.239  14.412
62726W        W35794   8.691  20.340  11.608
62727W        W35795  11.080  11.113   2.854
62728W        W35796   6.359   0.456  12.813
62729W        W35797   8.742  15.587   1.917
62730W        W35798  35.820  32.422   5.289
62731W        W35799   0.681  43.039   4.693
62732W        W35800  23.930  13.677   2.631
62733W        W35801   2.882  26.196   4.560
62734W        W35802  34.514   2.246   3.389
62735W        W35803  13.137  27.466   0.922
62736W        W35804  43.189   8.699  14.042
62737W        W35805  20.821   9.145  14.605
62738W        W35806  33.936  35.405   4.345
62739W        W35807  33.984  24.433  14.755
62740W        W35808  17.314  32.932  10.954
62741W        W35809  11.375  24.914   3.255
62742W        W35810  11.705  27.176   2.321
62743W        W35811   7.665  22.668   3.652
62744W        W35812  44.720  23.808  13.826
62745W        W35813  22.847  34.442   0.234
62746W        W35814   3.869  36.591  10.707
62747W        W35815  20.753   6.382   0.529
62748W        W35816  40.340  11.227   3.721
62749W        W35817  21.901  44.749   4.485
62750W        W35818  21.443   2.707   3.294
62751W        W35819  26.420   1.252  11.211
62752W        W35820  19.558  25.425   1.287
62753W        W35821   8.633  15.651   4.642
62754W        W35822   3.825  26.263   3.881
62755W        W35823   2.696  37.125  13.951
62756W        W35824  16.572  36.577  11.198
62757W        W35825   4.463   5.223  11.959
62758W        W35826  14.107  29.136  13.413
62759W        W35827  20.500  33.104  11.976
62760W        W35828  32.115  29.426  11.179
62761W        W35829  27.703  24.220  12.002
62762W        W35830   0.825  20.147   3.639
62763W        W35831   2.429  42.531  11.957
62764W        W35832  20.766  12.878   1.896
62765W        W35833  36.071  24.546  14.027
62766W        W35834  30.281  42.117  12.035
62767W        W35835  16.478   7.231  13.839
62768W        W35836  19.749  37.005  14.382
62769W        W35837  25.876  19.896   0.713
62770W        W35838  34.159  16.631  13.808
62771W        W35839   2.398  35.903  12.379
62772W        W35840   1.024   5.697  10.321
62773W        W35841  18.658  13.151   2.808
62774W        W35842  29.518  28.763  12.194
62775W        W35843  15.237  40.354   3.250
62776W        W35844   3.883  16.822   2.579
62777W        W35845  44.543  26.294   0.020
62778W        W35846   0.733  42.261  12.571
62779W        W35847   9.360  31.880   9.998
62780W        W35848  29.638  41.045   3.239
62781W        W35849  39.867  11.287   2.315
62782W        W35850  36.080  37.385   0.819
62783W        W35851  39.660  33.818  14.059
62784W        W35852   7.232  37.448   3.630
62785W        W35853  24.045   9.307  14.590
62786W        W35854   6.569  33.856  11.671
62787W        W35855  24.420   1.448  11.953
62788W        W35856  33.365   3.929  10.765
62789W        W35857  11.844  34.052   2.693
62790W        W35858  16.623  39.091   1.888
62791W        W35859  31.962  20.596  10.813
62792W        W35860  39.407  25.442  11.868
62793W        W35861  18.285  15.190   4.837
62794W        W35862  39.593  42.557  12.934
62795W        W35863  40.541  40.716   4.571
62796W        W35864  10.571  34.173  14.825
62797W        W35865  11.813   0.910   1.796
62798W        W35866  24.243  40.915   1.194
62799W        W35867   1.799  13.650   3.330
62800W        W35868  41.144  29.591  13.600
62801W        W35869  16.211  43.820  13.592
62802W        W35870  39.255   7.358  10.661
62803W        W35871  21.648  28.488  13.754
62804W        W35872  32.452  24.642  10.802
62805W        W35873   5.142  34.003  11.471
62806W        W35874  19.680  31.230   2.386
62807W        W35875  23.610  33.578  10.540
62808W        W35876  18.733  12.716  13.958
62809W        W35877  34.584  36.457  13.805
62810W        W35878   8.259   6.607  14.558
62811W        W35879  34.364   7.844   2.460
62812W        W35880  15.263  15.226  12.375
62813W        W35881  24.555  28.049   4.401
62814W        W35882  35.198  29.510  11.161
62815W        W35883  38.021  28.458   2.928
62816W        W35884   8.440  44.134   2.845
62817W        W35885  22.570  16.907   0.817
62818W        W35886  22.315  16.853  13.461
62819W        W35887  28.686  13.350   3.107
62820W        W35888  22.551  22.457   1.482
62821W        W35889  11.253   8.408   1.835
62822W        W35890   0.458  37.917  14.104
62823W        W35891  24.080  10.922   2.706
62824W        W35892  21.650  27.019   4.027
62825W        W35893  24.711  14.125  12.894
62826W        W35894  27.259  16.709  11.882
62827W        W35895  34.048   7.988  14.295
62828W        W35896  20.014  35.518   1.720
62829W        W35897  44.394  23.679   1.286
62830W        W35898  22.276  29.959   2.293
62831W        W35899  27.534  38.450   4.647
62832W        W35900  44.182   6.404   1.905
62833W        W35901  29.629  20.582   2.278
62834W        W35902  11.443   9.719  13.431
62835W        W35903  34.223  24.691   3.263
62836W        W35904  32.602   5.804   4.707
62837W        W35905  38.854  37.152   4.060
62838W        W35906  25.400  17.677  11.561
62839W        W35907   8.859  38.025  13.495
62840W        W35908  30.754  32.297  13.345
62841W        W35909  41.289  15.699  10.391
62842W        W35910  28.273  29.344  14.307
62843W        W35911  24.806  28.108   4.883
62844W        W35912  15.900  22.718   0.512
62845W        W35913  28.548  10.042   1.278
62846W        W35914  16.735  38.073   3.766
62847W        W35915  30.276  43.282   3.713
62848W        W35916  24.657   3.770  11.002
62849W        W35917  25.980  32.811  14.777
62850W        W35918  22.977   2.307   4.954
62851W        W35919  39.521  35.845   3.240
62852W        W35920  42.384  26.946  14.432
62853W        W35921  39.123  15.312  14.850
62854W        W35922   1.923  43.817   1.051
62855W        W35923  38.130  31.625   4.948
62856W        W35924  35.200  12.160   1.984
62857W        W35925   6.916   6.315  12.838
62858W        W35926  38.328   5.932  12.687
62859W        W35927  40.359  17.502  13.462
62860W        W35928  25.692   2.674  12.552
62861W        W35929  11.252  38.261   0.364
62862W        W35930  11.288  27.974   2.312
62863W        W35931  25.535  26.176   0.401
62864W        W35932   8.723   8.151  12.141
62865W        W35933  31.695  20.541   1.575
62866W        W35934  17.609  36.495   4.552
62867W        W35935  19.035  12.827   4.579
62868W        W35936  34.646  35.963   2.855
62869W        W35937  30.454  34.430   2.699
62870W        W35938  39.921  13.696   4.789
62871W        W35939  44.971   0.152  12.968
62872W        W35940  28.393  26.138  14.471
62873W        W35941   9.749  16.385   0.052
62874W        W35942  11.565   8.047   4.536
62875W        W35943  23.671  18.239   3.229
62876W        W35944  18.089   4.254  10.693
62877W        W35945   7.496  18.863  12.589
62878W        W35946   7.893   3.340   1.076
62879W        W35947  28.782  42.267   1.843
62880W        W35948  38.458   1.983   3.132
62881W        W35949  41.805  14.556  10.811
62882W        W35950  43.824  41.890  10.727
62883W        W35951  27.686  18.298   9.960
62884W        W35952  10.935  42.587  13.042
62885W        W35953  35.089  25.064  14.491
62886W        W35954  41.341  39.365   1.955
62887W        W35955  25.566  40.362   0.734
62888W        W35956   8.922  42.757   1.660
62889W        W35957   8.198   3.275  10.395
62890W        W35958  44.923  11.884   3.657
62891W        W35959  14.886  32.342  11.941
62892W        W35960  23.210  29.443  12.420
62893W        W35961  12.378   4.221   2.179
62894W        W35962  30.852  20.206  11.117
62895W        W35963  26.185  20.388   2.239
62896W        W35964  24.481  27.758   2.136
62897W        W35965   6.348  32.338  13.023
62898W        W35966  10.674   0.860   0.482
62899W        W35967   5.199  26.476  13.393
62900W        W35968  41.178  28.046   0.702
62901W        W35969   3.398  23.196   3.130
62902W        W35970  13.742  36.739  13.072
62903W        W35971  36.122   8.869  11.998
62904W        W35972  41.781  16.003   0.232
62905W        W35973  40.827  33.963   2.793
62906W        W35974  15.000  33.826  10.742
62907W        W35975  34.609  32.583  12.001
62908W        W35976  37.598  18.700  14.889
62909W        W35977  17.119  13.655   4.254
62910W        W35978  39.983   6.407  10.380
62911W        W35979  19.309  29.196  13.457
62912W        W35980  18.884   0.380  11.405
62913W        W35981  21.830  19.240   5.031
62914W        W35982  22.741  25.842  10.177
62915W        W35983  23.518  27.965  13.031
62916W        W35984  13.116   0.921   4.633
62917W        W35985  11.767  25.790  14.973
62918W        W35986  10.653  22.665  11.613
62919W        W35987   4.768   7.386  11.371
62920W        W35988   1.603  21.183  12.405
62921W        W35989   9.353  28.433  12.087
62922W        W35990   5.274  30.710  12.112
62923W        W35991  30.849   1.282  11.639
62924W        W35992  25.482  38.615  11.928
62925W        W35993  16.969  30.037  14.715
62926W        W35994  34.070   2.440  10.712
62927W        W35995  12.946  13.302  11.047
62928W        W35996   0.934  13.384  11.942
62929W        W35997  32.790  37.501   3.219
62930W        W35998  42.889   7.827   2.848
62931W        W35999  10.751  36.487  12.576
62932W        W36000  39.621  28.014  12.387
62933W        W36001  30.976  10.864  11.515
62934W        W36002  28.063  31.996  14.707
62935W        W36003  10.764  36.496  13.917
62936W        W36004  39.995  20.571   3.372
62937W        W36005  40.133  43.745  14.361
62938W        W36006   8.284  18.379   4.116
62939W        W36007  37.429  31.721  10.331
62940W        W36008  29.185  13.350   4.997
62941W        W36009  28.907  40.004  14.747
62942W        W36010  23.577  35.063   4.381
62943W        W36011   8.818  37.531   4.184
62944W        W36012  43.533  12.768  14.961
62945W        W36013   8.378   1.944  14.560
62946W        W36014   9.000  18.348  10.743
62947W        W36015   9.127  44.361  10.315
62948W        W36016  26.008   2.970   2.230
62949W        W36017  44.250  10.897  12.428
62950W        W36018  37.461  33.461  10.004
62951W        W36019  10.268  24.176   3.958
62952W        W36020  36.564   0.738  12.668
62953W        W36021   0.932  31.863   4.137
62954W        W36022   9.253   2.759  14.007
62955W        W36023  19.044  37.919   4.919
62956W        W36024  43.288   4.852  13.354
62957W        W36025  12.364  30.247   4.915
62958W        W36026  18.524  18.645   4.627
62959W        W36027  10.880  33.836  11.035
62960W        W36028  14.500  28.024   3.148
62961W        W36029   5.351  14.863  14.346
62962W        W36030   1.721  40.442   2.665
62963W        W36031  14.098  17.846  12.152
62964W        W36032  20.327  35.419  11.740
62965W        W36033  22.240  43.744   5.057
62966W        W36034   0.354  26.207  10.699
62967W        W36035  37.625  14.517  10.224
62968W        W36036  40.932  32.339  11.849
62969W        W36037  37.521  22.362  14.845
62970W        W36038  11.676  29.724   3.310
62971W        W36039  44.708  21.080  10.680
62972W        W36040  26.002   6.044  12.426
62973W        W36041  37.960  14.063   3.444
62974W        W36042   4.159  27.030   0.457
62975W        W36043  41.095   0.689  10.297
62976W        W36044  27.202  34.693   4.308
62977W        W36045  44.866  31.125   2.634
62978W        W36046   9.699  34.975   1.885
62979W        W36047  42.176  41.972  14.989
62980W        W36048  18.838   7.652  14.259
62981W        W36049  16.583   0.946   0.426
62982W        W36050  20.307  21.245   2.927
62983W        W36051  12.867  36.140  11.611
62984W        W36052  26.133  15.749  12.900
62985W        W36053   5.737  18.002  13.092
62986W        W36054  29.176  25.735   2.824
62987W        W36055  24.449  11.309   4.151
62988W        W36056   0.222  27.933  11.934
62989W        W36057  44.805  17.760  13.489
62990W        W36058  19.144  12.475  14.835
62991W        W36059  15.560  13.125   3.732
62992W        W36060  34.838  39.089   4.214
62993W        W36061   7.878  37.573  12.848
62994W        W36062  21.263  17.607   2.213
62995W        W36063  41.491  38.680   1.193
62996W        W36064  41.863  43.571   3.244
62997W        W36065  28.145   9.804  10.206
62998W        W36066   1.757  32.448   0.326
62999W        W36067  38.549  17.410   4.287
63000W        W36068  42.658  16.053   1.851
63001W        W36069  38.496  13.202  11.990
63002W        W36070  43.168  34.161   1.714
63003W        W36071   7.618  38.026  12.962
63004W        W36072  43.842   9.892  13.761
63005W        W36073  44.975  42.377  13.986
63006W        W36074   5.731   2.998   4.406
63007W        W36075  41.868  25.918  12.977
63008W        W36076   6.870  19.316  13.121
63009W        W36077   4.323   1.656   2.796
63010W        W36078  22.132   0.582  13.924
63011W        W36079  13.796  16.234   0.113
63012W        W36080  38.648  26.659  11.034
63013W        W36081  33.812  14.016   0.766
63014W        W36082  24.081  33.135   1.464
63015W        W36083  29.876  21.536  11.140
63016W        W36084   2.454   4.178  12.521
63017W        W36085  31.991  16.088  10.661
63018W        W36086   0.410   6.354   4.486
63019W        W36087  19.675   4.008  12.010
63020W        W36088  41.077  12.185   0.322
63021W        W36089  33.326  37.844  10.670
63022W        W36090  38.015  38.465   2.856
63023W        W36091  24.372  35.421   4.921
63024W        W36092  16.051   6.469  12.477
63025W        W36093   4.200  17.807   1.369
63026W        W36094  31.187  34.310  11.983
63027W        W36095   8.949   5.207   3.787
63028W        W36096  16.305  18.578   0.494
63029W        W36097  28.896  17.454   1.957
63030W        W36098  40.489   2.550   2.066
63031W        W36099   1.184  10.443   0.751
63032W        W36100  23.090  19.210   9.993
63033W        W36101  41.582   3.229   3.217
63034W        W36102   8.307  23.067  12.346
63035W        W36103  26.486  15.684   1.263
63036W        W36104  31.074  13.069   3.806
63037W        W36105  10.632  20.411  12.163
63038W        W36106  31.176  16.353  13.922
63039W        W36107  30.881   8.803   1.248
63040W        W36108   8.670  42.923  10.101
63041W        W36109   2.751  37.393  13.460
63042W        W36110  18.196  38.035   2.902
63043W        W36111  12.873   7.319   0.972
63044W        W36112  15.937  35.203  13.580
63045W        W36113  15.739   0.760   4.545
63046W        W36114  24.477  32.320  14.459
63047W        W36115  28.765   9.897  10.831
63048W        W36116  32.545  34.612   1.242
63049W        W36117  30.714  37.971   3.037
63050W        W36118   0.376  19.694  13.743
63051W        W36119  22.594   4.662   2.136
63052W        W36120   0.941   6.322  12.485
63053W        W36121   5.214  43.391  12.837
63054W        W36122   1.453  40.841  14.077
63055W        W36123  39.443  44.179   1.885
63056W        W36124  11.873  14.190   1.801
63057W        W36125  20.622   0.764  11.131
63058W        W36126  27.162  14.339  14.849
63059W        W36127  17.227   1.925  14.396
63060W        W36128   2.028  42.048  14.530
63061W        W36129   6.882  19.257   3.298
63062W        W36130  33.617  11.121  11.612
63063W        W36131   7.578  13.139   0.796
63064W        W36132  19.289  15.284  13.933
63065W        W36133  37.578  20.123   3.661
63066W        W36134  30.221  10.130  14.748
63067W        W36135  17.069   6.893   1.398
63068W        W36136  42.922   4.856   1.205
63069W        W36137  44.210  21.804   1.824
63070W        W36138  10.385  20.874   3.236
63071W        W36139  17.220  30.334   4.985
63072W        W36140  21.008   9.648   0.617
63073W        W36141  44.937   4.345   3.631
63074W        W36142  36.506   9.910  12.343
63075W        W36143   4.313  44.045   2.347
63076W        W36144  32.181   3.414   0.782
63077W        W36145  40.034  18.628   1.390
63078W        W36146  16.553   7.364  10.788
63079W        W36147   1.712   3.957   1.274
63080W        W36148  13.510  17.545   0.221
63081W        W36149   5.258  34.003  12.311
63082W        W36150   0.344  21.609   2.262
63083W        W36151  43.527  37.468  11.480
63084W        W36152  41.569   2.910  11.881
63085W        W36153  38.246  31.159   0.902
63086W        W36154  39.064  28.411  14.385
63087W        W36155  29.517  23.967   2.042
63088W        W36156  23.446   2.756   4.084
63089W        W36157  39.057  26.980  12.527
63090W        W36158  14.899   4.400  11.984
63091W        W36159  32.374  28.264   4.100
63092W        W36160   3.584  36.359  14.290
63093W        W36161  25.000   5.999   3.359
63094W        W36162  10.233  24.957  11.561
63095W        W36163   6.153  33.940  11.386
63096W        W36164   0.503  11.780  12.835
63097W        W36165  13.151  42.756   2.362
63098W        W36166   0.252  34.183  11.965
63099W        W36167  35.520  11.584  13.325
63100W        W36168   2.427   5.770  13.783
63101W        W36169  20.355  43.980  10.710
63102W        W36170  32.967  14.304   2.254
63103W        W36171  23.510  26.075  12.187
63104W        W36172  37.478   0.053  10.067
63105W        W36173  26.851  33.757  12.901
63106W        W36174  24.957   5.241  12.882
63107W        W36175  17.278  15.381  10.312
63108W        W36176  17.923   7.687  12.521
63109W        W36177  30.307  26.135   2.395
63110W        W36178  20.135  39.487   1.668
63111W        W36179  29.564  37.874  12.445
63112W        W36180  17.709  44.425   2.263
63113W        W36181  35.015   0.017  11.173
63114W        W36182  11.020  31.723  10.680
63115W        W36183  22.749  36.901   4.627
63116W        W36184  16.840  22.926   3.180
63117W        W36185  23.128  44.264   9.858
63118W        W36186  11.872  44.766  13.572
63119W        W36187  26.687  30.450  11.147
63120W        W36188  34.161   0.289  10.623
63121W        W36189   1.762  12.946   2.208
63122W        W36190  16.305  11.900  11.509
63123W        W36191   8.450  24.991   3.267
63124W        W36192  29.504  32.782  13.167
63125W        W36193  31.056  24.362  10.723
63126W        W36194  18.454   2.837  13.554
63127W        W36195  26.565  16.125   4.526
63128W        W36196  34.842   9.254  13.760
63129W        W36197  28.040  42.577  13.550
63130W        W36198  35.823  27.519  11.134
63131W        W36199  39.357  35.733  14.406
63132W        W36200  28.066   8.086  11.618
63133W        W36201  42.503   7.887   1.808
63134W        W36202  27.163  11.827  11.246
63135W        W36203  19.607   6.231  14.930
63136W        W36204  23.648  33.875   2.353
63137W        W36205  20.657  20.782   4.213
63138W        W36206  41.961   8.399   4.684
63139W        W36207  11.698  11.695  13.344
63140W        W36208   3.405  23.364  14.326
63141W        W36209  19.703  12.955  10.480
63142W        W36210  29.557   9.773  13.097
63143W        W36211  34.970   9.625   0.232
63144W        W36212  13.205  10.058   1.257
63145W        W36213  42.275  34.922   1.931
63146W        W36214  25.115  44.259   3.366
63147W        W36215   6.876  22.805  13.108
63148W        W36216  11.231  17.676   3.663
63149W        W36217  23.257  35.115   3.650
63150W        W36218   8.334   4.676  13.937
63151W        W36219  41.241  31.141   3.134
63152W        W36220  11.718  33.439   0.308
63153W        W36221  13.877   2.258  12.568
63154W        W36222  33.857  32.073  14.972
63155W        W36223  14.183   2.339   0.517
63156W        W36224  26.967  17.077   3.195
63157W        W36225  13.414  17.146  13.218
63158W        W36226  14.819  43.466   2.235
63159W        W36227  26.057  41.179  12.107
63160W        W36228  36.635  34.760  14.089
63161W        W36229  35.848   3.881  13.391
63162W        W36230   8.777  10.920  13.952
63163W        W36231  37.705   5.669   5.493
63164W        W36232   5.486   3.466   3.582
63165W        W36233  16.073  43.235   0.808
63166W        W36234  27.463   5.832   0.806
63167W        W36235  25.266  12.683   2.182
63168W        W36236   3.956  18.296   4.390
63169W        W36237   6.722  32.461  10.727
63170W        W36238   0.836  18.131   1.293
63171W        W36239   1.201   0.733  11.452
63172W        W36240   9.803  22.172  10.386
63173W        W36241  25.698  31.351  12.089
63174W        W36242   9.684  25.162   4.704
63175W        W36243  40.243   7.232   9.850
63176W        W36244   8.602  40.320   2.814
63177W        W36245  11.120  39.395  12.054
63178W        W36246  24.609  42.819   4.574
63179W        W36247  32.625  42.197  12.332
63180W        W36248  10.779  37.793  11.131
63181W        W36249  44.035  14.393  14.495
63182W        W36250  31.137  44.295  12.007
63183W        W36251  39.580  22.141   4.505
63184W        W36252  44.461  37.803   0.278
63185W        W36253  40.865  15.332   0.758
63186W        W36254   8.183   3.467   3.566
63187W        W36255  41.555   8.079   4.857
63188W        W36256  33.868  41.418  12.250
63189W        W36257   9.831  24.794  13.787
63190W        W36258  38.244   5.614   3.557
63191W        W36259  39.700  44.539   3.189
63192W        W36260   2.297  41.206  13.853
63193W        W36261  36.528   1.339  10.669
63194W        W36262   5.449   2.218   3.903
63195W        W36263  14.702  33.059   3.721
63196W        W36264  43.361  44.320  11.491
63197W        W36265  16.823  41.829   3.983
63198W        W36266  22.654   9.608  11.003
63199W        W36267  24.685  28.737  14.803
63200W        W36268   8.831  28.554   0.028
63201W        W36269   6.834  18.048   1.402
63202W        W36270  32.213  41.940   4.938
63203W        W36271  33.868  11.641   1.801
63204W        W36272  10.637   8.721  10.620
63205W        W36273  11.673  43.068  10.689
63206W        W36274   8.230  16.604  10.563
63207W        W36275   3.797  43.047   0.108
63208W        W36276   1.441  28.360   1.306
63209W        W36277  19.577  28.476  14.937
63210W        W36278  42.999  31.591  14.521
63211W        W36279  25.696  14.603  10.643
63212W        W36280  38.481  20.514  11.181
63213W        W36281   9.250  29.673  11.169
63214W        W36282   5.248   8.841  10.418
63215W        W36283  28.161   1.283  14.461
63216W        W36284  16.127   2.835   3.147
63217W        W36285  42.942  15.192  13.097
63218W        W36286  37.258  15.380  14.346
63219W        W36287   1.375   8.180  12.990
63220W        W36288  37.914   3.361   1.883
63221W        W36289  33.607  32.612  14.367
63222W        W36290  25.551  19.302   3.745
63223W        W36291   1.400  16.954   3.047
63224W        W36292  16.091  39.522  12.455
63225W        W36293  44.312  16.339   3.171
63226W        W36294  27.863  12.377   3.250
63227W        W36295   6.589  15.125   1.491
63228W        W36296   6.772  36.496  12.909
63229W        W36297  25.198  12.996   1.363
63230W        W36298  39.469   7.117  11.065
63231W        W36299   8.338  13.339  12.022
63232W        W36300  32.459   9.214   0.518
63233W        W36301  37.848  25.742   3.698
63234W        W36302  41.535   0.035   1.771
63235W        W36303  16.332  34.947  13.311
63236W        W36304  15.953  16.217  11.134
63237W        W36305  27.142  42.873  12.039
63238W        W36306   0.849  25.594   3.867
63239W        W36307  38.747   5.462   3.640
63240W        W36308  18.265  16.502   1.341
63241W        W36309  28.404  30.935  13.418
63242W        W36310  17.763   8.970   2.255
63243W        W36311  43.369  30.154  14.370
63244W        W36312  14.534   0.186   4.056
63245W        W36313  29.606  12.170  11.420
63246W        W36314  23.175  28.154  14.559
63247W        W36315  43.508  42.059  11.676
63248W        W36316  21.443  17.957  13.806
63249W        W36317  36.490   7.178  11.605
63250W        W36318  38.275   9.460   1.148
63251W        W36319   6.434  40.975   4.203
63252W        W36320  30.026   9.225   4.197
63253W        W36321  31.414   6.369  10.746
63254W        W36322  19.537   6.364   1.313
63255W        W36323   0.214  33.414  13.459
63256W        W36324  17.331  27.255  13.920
63257W        W36325  33.159  14.724   0.951
63258W        W36326  30.039   8.653   4.306
63259W        W36327   1.361  37.387   2.229
63260W        W36328   2.232  43.895  12.220
63261W        W36329  27.378  32.536  13.104
63262W        W36330  37.087  44.925   3.742
63263W        W36331  32.290  37.500   3.341
63264W        W36332  28.655  26.698  10.745
63265W        W36333  37.548  22.569   3.737
63266W        W36334  28.978  23.137   4.187
63267W        W36335  28.540  35.971   4.502
63268W        W36336  24.762  35.963   1.683
63269W        W36337  16.437  38.550  12.208
63270W        W36338  12.964   9.672  12.557
63271W        W36339   8.822   3.196   2.938
63272W        W36340   2.305  23.522   1.991
63273W        W36341   1.879  33.204   3.327
63274W        W36342  17.045  10.806   0.796
63275W        W36343   6.932   8.804   1.721
63276W        W36344   1.560  28.816   4.077
63277W        W36345  18.647  23.314   3.053
63278W        W36346  42.369  16.113  11.186
63279W        W36347  15.186  33.951   4.322
63280W        W36348  34.886  18.782  11.514
63281W        W36349  28.779  25.474  13.487
63282W        W36350  27.982  39.481  11.928
63283W        W36351  40.548  20.276  13.422
63284W        W36352  35.141  23.721  12.046
63285W        W36353   5.211  30.058  11.686
63286W        W36354  14.493  40.415   1.143
63287W        W36355  14.669  43.452  12.976
63288W        W36356   7.754  44.009  14.917
63289W        W36357  33.734  25.708   5.205
63290W        W36358  33.628  20.718   3.078
63291W        W36359  33.498   8.410  10.936
63292W        W36360  43.032  15.657   2.232
63293W        W36361   5.929  27.450  10.980
63294W        W36362   6.791  12.443  11.567
63295W        W36363  25.380  32.653   3.919
63296W        W36364  33.453  43.033  12.628
63297W        W36365   0.913  26.325   4.599
63298W        W36366  12.653  13.236  10.610
63299W        W36367  30.091  27.353   3.616
63300W        W36368  24.582   2.392  11.719
63301W        W36369  12.305   5.213   2.038
63302W        W36370  34.520   2.183   0.630
63303W        W36371   3.438  28.882  12.465
63304W        W36372   9.271  29.586   3.138
63305W        W36373  22.242  18.612   0.285
63306W        W36374   2.301  18.112  12.125
63307W        W36375  32.110  41.025  11.657
63308W        W36376  38.622   0.914  12.182
63309W        W36377  32.142  20.463   0.420
63310W        W36378  31.515   3.337  13.887
63311W        W36379   5.673  33.430   1.422
63312W        W36380  31.078  24.700   3.854
63313W        W36381   2.872   9.235  11.586
63314W        W36382   5.729   8.219  14.044
63315W        W36383   0.481   8.778   4.617
63316W        W36384  34.031  25.905   2.680
63317W        W36385  27.530  38.825   3.240
63318W        W36386   9.310   8.641  14.076
63319W        W36387   0.972  25.397   0.410
63320W        W36388  21.011   1.781   0.770
63321W        W36389  18.122  28.596   1.196
63322W        W36390   8.189  32.095  13.524
63323W        W36391  12.853  43.543  11.195
63324W        W36392   2.927  20.699   4.886
63325W        W36393   4.174   1.193  13.911
63326W        W36394  15.860  32.120   0.651
63327W        W36395  27.612  11.838  14.129
63328W        W36396  19.566  43.582  12.213
63329W        W36397  18.231  42.887   4.436
63330W        W36398  18.593  14.632  13.944
63331W        W36399  28.537   0.300  11.698
63332W        W36400  23.954  19.634   5.507
63333W        W36401  22.586  10.241   2.153
63334W        W36402  10.243  26.277  11.020
63335W        W36403  41.731  44.969  10.891
63336W        W36404   1.043  14.998  13.676
63337W        W36405   9.810  32.712   4.271
63338W        W36406  13.695  23.464   2.855
63339W        W36407  17.115  16.038   3.555
63340W        W36408  19.733  13.976  13.408
63341W        W36409   7.923  15.869  14.402
63342W        W36410  43.737  44.208  12.476
63343W        W36411  39.536   9.151   4.042
63344W        W36412  37.355  38.870  10.184
63345W        W36413  42.458  29.560  13.186
63346W        W36414  44.922   9.665   4.099
63347W        W36415  13.057  37.830  12.107
63348W        W36416  17.518  29.016  12.863
63349W        W36417  33.638   7.258  14.402
63350W        W36418  33.297  22.814   3.270
63351W        W36419  14.051   6.655   0.493
63352W        W36420  13.230  34.413   4.488
63353W        W36421  10.855  34.129   3.758
63354W        W36422  32.854   0.416   3.270
63355W        W36423  38.922   5.598   4.703
63356W        W36424  43.526   5.421  11.925
63357W        W36425  23.610  19.517   3.713
63358W        W36426  15.628   7.523  13.649
63359W        W36427  21.166   2.108  10.249
63360W        W36428  30.587  18.615   0.760
63361W        W36429  15.074  39.240  10.528
63362W        W36430  22.762  39.027  11.113
63363W        W36431  37.786   7.162   4.155
63364W        W36432  35.905  33.463  11.549
63365W        W36433  15.356  41.023  12.347
63366W        W36434   6.208  24.609  14.914
63367W        W36435  42.391  35.048   0.854
63368W        W36436  23.526  34.918   3.241
63369W        W36437  39.018  38.389  14.103
63370W        W36438  25.245   7.643   3.236
63371W        W36439  43.021  43.848   1.199
63372W        W36440  32.389  19.632   2.441
63373W        W36441   8.425  15.936  14.337
63374W        W36442  35.829  21.196   3.357
63375W        W36443  10.874  11.863  12.077
63376W        W36444  41.773  19.718  12.919
63377W        W36445  25.594  43.036   0.679
63378W        W36446  44.001  13.721  14.905
63379W        W36447  11.583  20.581   2.769
63380W        W36448  10.273  22.175  13.812
63381W        W36449   7.614  42.951  12.485
63382W        W36450  38.788  30.234   0.894
63383W        W36451  12.044   3.531   0.433
63384W        W36452  18.499  38.844   3.772
63385W        W36453  18.154   4.401  11.191
63386W        W36454  13.679   0.018   2.818
63387W        W36455  22.824  41.342   1.064
63388W        W36456   9.373  39.050   1.328
63389W        W36457  44.963  21.238   0.403
63390W        W36458  22.754  10.833  10.753
63391W        W36459  24.036  35.049  11.272
63392W        W36460  39.420  13.868   0.647
63393W        W36461  36.197  26.039   1.297
63394W        W36462  10.232   5.110  12.972
63395W        W36463  22.742  30.995   4.716
63396W        W36464  36.522  17.618   1.913
63397W        W36465  18.149   0.721  11.406
63398W        W36466   4.821  28.074  10.964
63399W        W36467  30.765  31.389  12.696
63400W        W36468  25.533  14.790   1.844
63401W        W36469  11.706   0.297   3.420
63402W        W36470  19.703  23.203   1.362
63403W        W36471  26.930   1.992  13.861
63404W        W36472  18.124  15.153  11.814
63405W        W36473  31.440  12.766  13.781
63406W        W36474   8.343  34.922  14.871
63407W        W36475  24.003  26.982   1.871
63408W        W36476  23.625  21.482  13.653
63409W        W36477   3.096  19.685  14.262
63410W        W36478  17.603  42.684   2.786
63411W        W36479  32.004  42.465   3.663
63412W        W36480  23.801  28.389   3.131
63413W        W36481  39.859   0.214   2.392
63414W        W36482  35.512   3.769  10.781
63415W        W36483  44.907   5.352   0.997
63416W        W36484   3.457  18.814   1.811
63417W        W36485  10.882  35.495  14.906
63418W        W36486  10.482  21.875   3.565
63419W        W36487  37.871   3.971   1.219
63420W        W36488  38.971  24.738   1.126
63421W        W36489  28.749  13.631   0.437
63422W        W36490   8.356  37.518   0.681
63423W        W36491  28.059  36.424   3.697
63424W        W36492  22.198  36.783   1.812
63425W        W36493  22.196   7.723   0.408
63426W        W36494  23.602  36.898   3.580
63427W        W36495   5.500  36.112  12.902
63428W        W36496  18.513  31.027  11.504
63429W        W36497  14.261  44.865  13.293
63430W        W36498   8.448  44.174   0.371
63431W        W36499  31.652  41.095  14.891
63432W        W36500  44.595  18.424   2.760
63433W        W36501  40.357  44.252   0.865
63434W        W36502  44.741  34.100   3.182
63435W        W36503  24.205   8.385   3.592
63436W        W36504  38.435  19.122   3.633
63437W        W36505  33.337  25.797  12.352
63438W        W36506  14.772  21.247  10.393
63439W        W36507  14.751  12.620   0.737
63440W        W36508  26.805  38.352   3.957
63441W        W36509  28.586  24.656  13.295
63442W        W36510  23.047  30.117   4.076
63443W        W36511  29.538   5.183   0.861
63444W        W36512   5.700   3.616  11.093
63445W        W36513  22.183  22.985   1.697
63446W        W36514  24.950   0.851   3.932
63447W        W36515  12.209   0.488   2.485
63448W        W36516  21.258  13.413  12.586
63449W        W36517   6.660  37.516   3.275
63450W        W36518  34.970  37.570   3.620
63451W        W36519   4.374   8.962  10.716
63452W        W36520  20.073  39.874   3.743
63453W        W36521  42.460  11.325   3.237
63454W        W36522  38.277  25.705   3.385
63455W        W36523  16.642  32.868   3.766
63456W        W36524  43.518  31.430  14.719
63457W        W36525   5.317  26.372   2.685
63458W        W36526  12.409  26.046   3.871
63459W        W36527  38.885   4.833   2.138
63460W        W36528  39.380   2.538   5.312
63461W        W36529  39.545  19.996  13.609
63462W        W36530  39.872  37.855  11.575
63463W        W36531  41.733   9.274   1.142
63464W        W36532  32.849  38.126   4.068
63465W        W36533  14.989   2.447  12.016
63466W        W36534  41.741  41.403  12.892
63467W        W36535  17.565  27.964  14.533
63468W        W36536  41.853  14.616   0.831
63469W        W36537  24.739  18.146  13.326
63470W        W36538  28.663   2.503   0.897
63471W        W36539  30.460  12.071  11.336
63472W        W36540  19.722  31.733   2.334
63473W        W36541   9.327  26.026  13.439
63474W        W36542  37.779  39.906   3.160
63475W        W36543  15.638   7.776  11.743
63476W        W36544  21.481  39.111  11.718
63477W        W36545  22.498  18.737  13.476
63478W        W36546  29.110  40.419  10.219
63479W        W36547  29.561   0.278   1.066
63480W        W36548  15.661  10.750   0.741
63481W        W36549  23.734  26.194  14.925
63482W        W36550  43.338  20.861  14.179
63483W        W36551  24.553  34.595   4.631
63484W        W36552  32.939  27.958  13.919
63485W        W36553  21.944  16.287   0.753
63486W        W36554  44.942  34.683  14.013
63487W        W36555  35.556  29.151   2.727
63488W        W36556  30.151  31.040   0.761
63489W        W36557  28.042  33.199   0.839
63490W        W36558  26.959  38.325  14.001
63491W        W36559  40.972  18.245  14.243
63492W        W36560  25.482  13.255  13.821
63493W        W36561  41.152  36.439  12.338
63494W        W36562   1.824  33.882  12.820
63495W        W36563   0.224  34.076   1.334
63496W        W36564  39.033  38.917   0.028
63497W        W36565   3.325  28.522   2.490
63498W        W36566  23.934  37.703  10.237
63499W        W36567   5.942  34.842  14.906
63500W        W36568  13.748  28.930   0.686
63501W        W36569   6.598  20.194   0.899
63502W        W36570   1.904   2.281   2.147
63503W        W36571  13.285  28.110   1.540
63504W        W36572  38.886  26.537  12.342
63505W        W36573  12.785   0.729   1.295
63506W        W36574  12.703  15.815  11.957
63507W        W36575  14.240  38.358  14.300
63508W        W36576  23.445  20.894  10.781
63509W        W36577  41.770  14.672  13.159
63510W        W36578  20.635   7.837   2.537
63511W        W36579  41.725  41.956   0.911
63512W        W36580  34.991  43.620  10.573
63513W        W36581   7.659  27.020   2.661
63514W        W36582  44.447  35.120  13.248
63515W        W36583  21.016  41.479   3.653
63516W        W36584  22.969  38.477   4.256
63517W        W36585  22.669  38.160  11.008
63518W        W36586  20.605  10.887   4.842
63519W        W36587  16.242  39.721   1.190
63520W        W36588  37.043   6.644  11.229
63521W        W36589  37.481  20.327  12.478
63522W        W36590  36.997   6.660   3.696
63523W        W36591  22.249  33.200   4.384
63524W        W36592  19.633  34.215   2.095
63525W        W36593  15.275  42.072  14.350
63526W        W36594   6.199  32.368  11.616
63527W        W36595   4.399  32.223   4.142
63528W        W36596   5.893  39.465  13.668
63529W        W36597  38.514  38.283   2.778
63530W        W36598   9.206   6.851   2.940
63531W        W36599  30.857  19.310   3.867
63532W        W36600  30.192   6.284   2.729
63533W        W36601  43.793   8.842  12.972
63534W        W36602   3.442  15.206   3.075
63535W        W36603  12.223  35.747  12.964
63536W        W36604  12.369   4.976  10.205
63537W        W36605  12.074  17.365   3.266
63538W        W36606  34.361  15.821  12.166
63539W        W36607  16.105  31.628   0.055
63540W        W36608  24.669  30.500   3.744
63541W        W36609  42.913  19.230   4.110
63542W        W36610  20.002  30.105  12.483
63543W        W36611  21.093  29.687  14.467
63544W        W36612  31.966  43.262   4.273
63545W        W36613  32.389  19.735   4.613
63546W        W36614   7.776  24.553  13.561
63547W        W36615  34.975  18.985   3.767
63548W        W36616   0.485  21.008   0.275
63549W        W36617  10.026  32.807   1.974
63550W        W36618  22.226  26.743   0.859
63551W        W36619  30.014  17.739  14.007
63552W        W36620  30.752  42.687   4.315
63553W        W36621  34.855  11.740  11.657
63554W        W36622  34.042   1.748   2.780
63555W        W36623  18.607  33.537  10.179
63556W        W36624  15.277  33.076   2.261
63557W        W36625  36.360  40.039  13.860
63558W        W36626  35.821   5.946   4.079
63559W        W36627  22.189  17.516  11.229
63560W        W36628  19.224  24.225  10.916
63561W        W36629   4.796  28.924   2.489
63562W        W36630  23.012  17.054   2.861
63563W        W36631  23.019  10.752   1.767
63564W        W36632   7.424  22.096   1.323
63565W        W36633  39.261   9.283  14.906
63566W        W36634  19.242  18.125  13.826
63567W        W36635   0.053  41.501   2.579
63568W        W36636   3.359  37.506  10.728
63569W        W36637  31.607  35.428  13.314
63570W        W36638  30.521  11.363   1.720
63571W        W36639  28.072   4.154  12.025
63572W        W36640  18.295  22.583   3.705
63573W        W36641   9.349  43.370  14.331
63574W        W36642  20.804  19.731   2.336
63575W        W36643  30.890   1.694  10.724
63576W        W36644  12.082  33.048  14.170
63577W        W36645  36.555  31.852  13.282
63578W        W36646  30.631  43.017  13.338
63579W        W36647  10.157  23.641  13.905
63580W        W36648   8.872  21.764   0.224
63581W        W36649  21.557  10.267  11.041
63582W        W36650  35.075  24.833   2.616
63583W        W36651  27.682   8.797  12.359
63584W        W36652   6.070  41.652   1.683
63585W        W36653  17.266  25.063   3.557
63586W        W36654   2.240   7.649  12.053
63587W        W36655  32.898   9.778   3.943
63588W        W36656  25.127  29.126   1.367
63589W        W36657  37.298  37.149  14.279
63590W        W36658   7.451  31.490  12.353
63591W        W36659  31.822  16.810   4.284
63592W        W36660   0.940  17.521   4.718
63593W        W36661  30.179  31.367   0.310
63594W        W36662  39.017  20.490  10.632
63595W        W36663   2.616   7.340   4.895
63596W        W36664  10.253   3.470   1.808
63597W        W36665  28.872  21.008  13.013
63598W        W36666   5.727  39.921  14.475
63599W        W36667   4.554  13.313  11.190
63600W        W36668  16.339  29.501   0.357
63601W        W36669  20.693  27.486   2.902
63602W        W36670  31.646  30.495  13.425
63603W        W36671  21.215  41.404  14.531
63604W        W36672  21.438  37.513   3.251
63605W        W36673   8.843  14.092  11.168
63606W        W36674   4.978  27.158   2.553
63607W        W36675  10.296  39.915   4.134
63608W        W36676   8.708   9.029  11.950
63609W        W36677  13.637  18.311  13.123
63610W        W36678   9.314  43.846   2.359
63611W        W36679   5.533  44.719   2.737
63612W        W36680  33.985   1.298  10.661
63613W        W36681  25.600  27.378  14.857
63614W        W36682   4.641   1.053   3.527
63615W        W36683   9.548  26.301   2.271
63616W        W36684  39.331  44.678   4.661
63617W        W36685  17.533  11.799  14.388
63618W        W36686  43.346  27.064   3.084
63619W        W36687   2.836  31.112  13.872
63620W        W36688  25.715   8.811  13.904
63621W        W36689  31.344   9.833  12.373
63622W        W36690  36.844  41.318  12.008
63623W        W36691  10.291  26.512  14.576
63624W        W36692   6.655  28.640   0.970
63625W        W36693  12.866  31.577  11.970
63626W        W36694  35.958  26.227  11.513
63627W        W36695   8.719  23.541  14.999
63628W        W36696  44.985  25.161  13.625
63629W        W36697  33.982  17.981   1.706
63630W        W36698  11.222   0.495   2.401
63631W        W36699  32.431   6.974   1.964
63632W        W36700  13.510  41.523  11.028
63633W        W36701   1.792  15.235  13.944
63634W        W36702   7.657   2.348  11.234
63635W        W36703   2.332  31.695   0.808
63636W        W36704  35.064  41.566   3.099
63637W        W36705   5.999  25.123   2.070
63638W        W36706  11.774   6.858   3.395
63639W        W36707   2.216   4.347  13.826
63640W        W36708  25.089  21.100   3.357
63641W        W36709  31.569  39.923  12.362
63642W        W36710  33.543  43.033   2.715
63643W        W36711   7.348  16.980  10.915
63644W        W36712  35.241   4.788  11.619
63645W        W36713  12.003   7.191   2.100
63646W        W36714  13.268  12.177  14.881
63647W        W36715  43.547  16.728  11.799
63648W        W36716  29.686  25.144  12.166
63649W        W36717  42.965  22.102   4.381
63650W        W36718  20.467   1.405  10.916
63651W        W36719   5.764  30.261   2.291
63652W        W36720  38.915  10.332  10.220
63653W        W36721  22.477  31.468  14.771
63654W        W36722   1.390  19.245  12.505
63655W        W36723   9.721  12.847   4.353
63656W        W36724  14.442  24.517   0.429
63657W        W36725  36.073   7.180  14.156
63658W        W36726  36.589  43.072  12.033
63659W        W36727  28.989  10.101  11.684
63660W        W36728   2.681  23.124   0.534
63661W        W36729  11.719  21.703  12.719
63662W        W36730  25.511  35.583   3.721
63663W        W36731  27.095   6.465  10.667
63664W        W36732   9.449   6.979  11.060
63665W        W36733  23.681  34.434   3.246
63666W        W36734  24.769  31.247   1.704
63667W        W36735  18.032   0.999  12.299
63668W        W36736   5.420  11.128   0.682
63669W        W36737  13.522  44.317   3.205
63670W        W36738  39.456  33.578   0.343
63671W        W36739  40.877   9.636  11.184
63672W        W36740  25.153  11.774  11.010
63673W        W36741  39.335  44.989   2.369
63674W        W36742   0.798  11.693   3.217
63675W        W36743  30.150  18.032   4.669
63676W        W36744  44.168  17.758  10.441
63677W        W36745  43.982  40.795  14.245
63678W        W36746  41.033  42.043   1.464
63679W        W36747  26.287   0.372  13.396
63680W        W36748   8.262  43.867   2.385
63681W        W36749  15.351   0.524  12.983
63682W        W36750  10.291  44.680  12.638
63683W        W36751   2.124  28.205  12.003
63684W        W36752  38.397  25.765   0.769
63685W        W36753  44.282   4.739   4.647
63686W        W36754  43.964  34.410   4.229
63687W        W36755   4.333  42.927   2.879
63688W        W36756  11.883  16.641  11.088
63689W        W36757  18.321   9.128  13.467
63690W        W36758  26.548  20.296   0.417
63691W        W36759  42.172  22.655   1.812
63692W        W36760  32.660   0.770  14.970
63693W        W36761   4.520   8.832  12.541
63694W        W36762  16.582  36.530   2.718
63695W        W36763   8.273  17.173  12.297
63696W        W36764  25.411  39.423   0.239
63697W        W36765  38.066   7.371   2.213
63698W        W36766  25.659  34.826   3.110
63699W        W36767   9.682  17.764  12.531
63700W        W36768  44.790  22.566  12.511
63701W        W36769  22.165  27.134  13.741
63702W        W36770  11.023  35.892  11.857
63703W        W36771  44.054  19.064   1.746
63704W        W36772  18.805  17.351  12.474
63705W        W36773  14.692   2.271  11.627
63706W        W36774  39.824  30.842   4.476
63707W        W36775  13.103  33.464  10.694
63708W        W36776  23.766  11.394  10.475
63709W        W36777   5.515  22.071   0.385
63710W        W36778  33.417  13.541  10.644
63711W        W36779  36.884  33.668   0.418
63712W        W36780  20.518  34.324  11.059
63713W        W36781  41.533  21.664  10.668
63714W        W36782   0.005  30.100   0.947
63715W        W36783   7.841  36.453  10.581
63716W        W36784  43.629  30.721   0.982
63717W        W36785   2.714  27.058  12.540
63718W        W36786  21.026  28.063   2.228
63719W        W36787   0.305  13.741   4.235
63720W        W36788  31.630  24.067  10.304
63721W        W36789  20.696  19.623  12.970
63722W        W36790  18.865  30.097   1.739
63723W        W36791  38.315   4.442  10.941
63724W        W36792  14.284  12.108   0.253
63725W        W36793  38.183  12.290   4.112
63726W        W36794   0.840  18.133   2.251
63727W        W36795  22.763  30.952   3.393
63728W        W36796   7.660  24.446  12.592
63729W        W36797  25.663   3.782   3.727
63730W        W36798  10.187   5.948  14.982
63731W        W36799  40.819  36.509   2.151
63732W        W36800  25.666  43.170  10.288
63733W        W36801  33.839  21.647   2.622
63734W        W36802  37.616  37.566  14.224
63735W        W36803   8.078  33.944  14.881
63736W        W36804  13.059  40.873  14.414
63737W        W36805  24.493   5.243  12.002
63738W        W36806   4.217  14.591  11.519
63739W        W36807  39.498  21.607   0.798
63740W        W36808  20.302   9.682  12.602
63741W        W36809  32.073  30.188   2.213
63742W        W36810  41.364  24.567  14.396
63743W        W36811  38.705  30.911  11.843
63744W        W36812  44.735  17.789   0.391
63745W        W36813   1.469  15.128   4.861
63746W        W36814  33.671  37.982   2.713
63747W        W36815  16.212  43.427  11.924
63748W        W36816  11.796  15.023   1.369
63749W        W36817  18.951  28.219   1.671
63750W        W36818  28.652  40.819   0.724
63751W        W36819  39.835  28.630  14.820
63752W        W36820  25.685  36.095  14.142
63753W        W36821  36.661   5.518  14.478
63754W        W36822  13.171  22.619  10.698
63755W        W36823  22.603   7.479   5.016
63756W        W36824  35.484  36.801   0.404
63757W        W36825  17.204  43.835   0.273
63758W        W36826  21.116  36.946  11.666
63759W        W36827  30.454  24.061   2.039
63760W        W36828  29.896  35.520  14.869
63761W        W36829  34.982  29.014  11.985
63762W        W36830  27.127   9.228   0.683
63763W        W36831  43.098  11.407   9.967
63764W        W36832   0.296  30.093  14.490
63765W        W36833   8.932  22.440  12.836
63766W        W36834  13.869   4.725   0.294
63767W        W36835  29.934  24.537  12.023
63768W        W36836  13.029  12.684   2.009
63769W        W36837   5.395  40.869  12.234
63770W        W36838  12.166  20.212  13.048
63771W        W36839  33.028  19.440   4.033
63772W        W36840  37.046  14.252   2.904
63773W        W36841  28.023   6.335   2.143
63774W        W36842  15.833  42.907  12.102
63775W        W36843  44.784  39.860   1.821
63776W        W36844   6.641  33.308  11.606
63777W        W36845  15.158  22.637  14.897
63778W        W36846  16.898  32.443  11.087
63779W        W36847   6.678   2.616   1.875
63780W        W36848  42.366  39.276   0.426
63781W        W36849  41.475  31.987   2.286
63782W        W36850  11.719  40.682  10.529
63783W        W36851  39.298  27.131   3.286
63784W        W36852  42.108  41.313   2.217
63785W        W36853   2.019  30.964   3.651
63786W        W36854  38.007  20.115   4.852
63787W        W36855   8.797  10.782  10.672
63788W        W36856  43.783  27.623   0.292
63789W        W36857  16.090  12.124   4.535
63790W        W36858   9.313  13.675  11.989
63791W        W36859   9.285   0.016  13.436
63792W        W36860  36.260   1.324   4.155
63793W        W36861  22.194  13.255   2.663
63794W        W36862  43.748  38.949  12.017
63795W        W36863   7.355  19.968   1.831
63796W        W36864  26.391  12.292   0.322
63797W        W36865  32.858   1.263  14.918
63798W        W36866  37.810   9.371   0.871
63799W        W36867   4.844  14.087   0.046
63800W        W36868  43.469  16.688   3.327
63801W        W36869  15.976  15.926   1.647
63802W        W36870   9.421  24.106   4.277
63803W        W36871  39.408  22.654  12.411
63804W        W36872  12.122  32.605  13.028
63805W        W36873  33.524  27.115  13.565
63806W        W36874  14.666  24.229   4.220
63807W        W36875  10.380  31.965   0.941
63808W        W36876   5.412  32.611   0.766
63809W        W36877  23.795  18.697  14.777
63810W        W36878   9.556  36.383   2.494
63811W        W36879  18.132   3.346   4.065
63812W        W36880   1.071   5.357   3.528
63813W        W36881   9.411  22.538  14.204
63814W        W36882  40.125  23.250  10.994
63815W        W36883  15.437   4.622   1.827
63816W        W36884  44.899  33.980   4.149
63817W        W36885   4.722   5.561   9.907
63818W        W36886  32.404  35.796  10.092
63819W        W36887  19.994  16.234   3.166
63820W        W36888  35.979  19.980   4.350
63821W        W36889  17.231  40.256   0.403
63822W        W36890  37.407   6.692  11.596
63823W        W36891  19.192  22.205   1.005
63824W        W36892  44.943  20.743  11.015
63825W        W36893  20.221  38.401   4.809
63826W        W36894  27.140  28.794   4.553
63827W        W36895  19.319   2.953   1.281
63828W        W36896  21.130  12.888   1.518
63829W        W36897  27.120  30.417  12.915
63830W        W36898  39.397  32.063   4.751
63831W        W36899   6.535  32.047  14.298
63832W        W36900  11.595  44.547  12.812
63833W        W36901  15.467  38.516   0.835
63834W        W36902  16.705  20.463   0.279
63835W        W36903  37.102   9.512   2.266
63836W        W36904  44.188   9.225   2.391
63837W        W36905   2.409  11.135   4.662
63838W        W36906   2.843  15.264   3.491
63839W        W36907  41.986  27.036   1.140
63840W        W36908  34.411  27.118   1.037
63841W        W36909  11.706  40.486  13.347
63842W        W36910  23.191  43.359  12.992
63843W        W36911  14.831  19.123   1.834
63844W        W36912  23.622   3.354   2.566
63845W        W36913  23.082  17.788   1.530
63846W        W36914  21.120   7.873   4.862
63847W        W36915  24.142  21.200   1.673
63848W        W36916  11.950  20.089   2.700
63849W        W36917  11.673  42.034   3.762
63850W        W36918  43.238  19.138   0.969
63851W        W36919  17.511  40.027  10.966
63852W        W36920  36.139  31.717  13.001
63853W        W36921  29.531  43.420   3.245
63854W        W36922  32.046  19.286   1.078
63855W        W36923   0.931   2.419  14.425
63856W        W36924  39.980   8.756  11.028
63857W        W36925  14.740  39.595  13.300
63858W        W36926  24.024  16.775  10.560
63859W        W36927  21.956  13.570  14.299
63860W        W36928   9.813  14.734   0.284
63861W        W36929  23.440  14.597   0.856
63862W        W36930  19.024  29.365  14.893
63863W        W36931  39.061  28.660  12.179
63864W        W36932  33.475   4.183  14.347
63865W        W36933  32.976  18.334   1.385
63866W        W36934   8.976  40.220   1.983
63867W        W36935  20.677  11.921   5.054
63868W        W36936   4.017  24.664  12.920
63869W        W36937  32.605  28.154   1.694
63870W        W36938  26.629  41.973  13.802
63871W        W36939  35.547  15.329   0.084
63872W        W36940   4.670  21.835   0.851
63873W        W36941  19.515   2.752  10.911
63874W        W36942  31.924   7.586   0.791
63875W        W36943   8.954  44.004   0.384
63876W        W36944  29.066  25.247  13.851
63877W        W36945  36.372  22.283   1.313
63878W        W36946  33.916  31.393  12.587
63879W        W36947  14.537   3.385  13.967
63880W        W36948  44.073  32.050   3.653
63881W        W36949  14.737  14.551   1.713
63882W        W36950   9.160  41.895  12.750
63883W        W36951  39.605  14.242  14.910
63884W        W36952  35.017   2.762  13.289
63885W        W36953  28.534   5.411  14.286
63886W        W36954  38.916  17.108   0.156
63887W        W36955  41.253  17.285   4.665
63888W        W36956  18.317  10.917   0.254
63889W        W36957  29.945  18.270  13.861
63890W        W36958   1.706   4.229   0.111
63891W        W36959  29.041  33.635  13.172
63892W        W36960  32.679   4.055  14.277
63893W        W36961  19.749  29.639  11.759
63894W        W36962   7.244   2.391   4.178
63895W        W36963  10.323  28.146  12.312
63896W        W36964  21.178  16.935   1.062
63897W        W36965  24.381  30.562  14.301
63898W        W36966  40.868  11.390  10.725
63899W        W36967  31.125  31.997   1.680
63900W        W36968   5.743  40.871  10.742
63901W        W36969  20.475   1.427   4.572
63902W        W36970  11.365  42.435  14.292
63903W        W36971  12.586  10.475   1.058
63904W        W36972   6.647  40.754   2.634
63905W        W36973  25.302   8.169  11.500
63906W        W36974  36.481   4.636   3.118
63907W        W36975  37.955  14.840   2.358
63908W        W36976   4.375   9.342   0.494
63909W        W36977  10.195  39.390   4.923
63910W        W36978   4.232  25.943   4.621
63911W        W36979   0.061  16.102  10.804
63912W        W36980   4.321  21.722  11.128
63913W        W36981  34.366  40.409   0.893
63914W        W36982  25.920  14.685   2.622
63915W        W36983   6.167  38.103  10.189
63916W        W36984  13.303  23.528   0.571
63917W        W36985  19.664  28.125   5.033
63918W        W36986  15.617  39.837   1.743
63919W        W36987   2.170  22.684  10.211
63920W        W36988  22.297  34.977  12.026
63921W        W36989  35.667   7.320   3.344
63922W        W36990  22.964   2.259  10.645
63923W        W36991  22.622  28.111  13.967
63924W        W36992   4.511  21.146   2.254
63925W        W36993   2.394  28.375   0.797
63926W        W36994  25.452   2.875  14.900
63927W        W36995  36.909  29.390   1.483
63928W        W36996  44.045  33.396   4.144
63929W        W36997  31.452  22.201  11.202
63930W        W36998  19.528  31.640  10.475
63931W        W36999  41.463   9.610  11.589
63932W        W37000  22.830  25.729   2.642
63933W        W37001  19.766  16.638   4.084
63934W        W37002  37.933  23.767  12.999
63935W        W37003  17.650  25.247   4.286
63936W        W37004  17.378  35.465  13.235
63937W        W37005  23.956  25.040  13.849
63938W        W37006  37.276  25.100   0.359
63939W        W37007  18.060  42.449  13.870
63940W        W37008  10.777   3.271   4.241
63941W        W37009   0.185  12.363  11.568
63942W        W37010  24.599  13.504  10.708
63943W        W37011   4.526  33.048   2.838
63944W        W37012   2.038  30.066   3.549
63945W        W37013  42.221  24.216  14.610
63946W        W37014  23.712  40.871  13.694
63947W        W37015  36.333   7.227   0.789
63948W        W37016  35.995   7.418  13.167
63949W        W37017  27.927   3.711   4.490
63950W        W37018  21.024  31.690  14.695
63951W        W37019  13.623  11.740   4.079
63952W        W37020  22.569   2.931   0.646
63953W        W37021  23.771  10.119  13.562
63954W        W37022  34.334  41.245  12.551
63955W        W37023  35.413  22.987  14.582
63956W        W37024  33.046  38.029   4.560
63957W        W37025  44.589   5.175   4.584
63958W        W37026  16.298  26.197   2.231
63959W        W37027   7.170   1.237   1.315
63960W        W37028   8.440   1.740  11.048
63961W        W37029  20.850   7.505   4.602
63962W        W37030   4.543  24.703  14.137
63963W        W37031  32.170  12.114   4.720
63964W        W37032  33.015  13.013   4.382
63965W        W37033  33.537   3.793   4.284
63966W        W37034  11.351  17.728  13.960
63967W        W37035   8.611  29.572   2.944
63968W        W37036   1.212   0.962  10.575
63969W        W37037  30.522   7.827   1.301
63970W        W37038  26.969  37.455   4.326
63971W        W37039  37.537  20.015  12.908
63972W        W37040  15.815   2.898  11.868
63973W        W37041  15.730   7.653  14.519
63974W        W37042  12.301  44.285   4.113
63975W        W37043  13.731   8.345   1.357
63976W        W37044   0.256  14.624  14.791
63977W        W37045  11.534  29.582   0.728
63978W        W37046  22.201  43.254   1.551
63979W        W37047  21.743  26.008   2.825
63980W        W37048  21.229   9.407   3.157
63981W        W37049  38.628  25.704  13.908
63982W        W37050  15.656  21.496  14.317
63983W        W37051  35.059  30.511   1.763
63984W        W37052  41.418  23.461   2.216
63985W        W37053  33.289  25.764  11.744
63986W        W37054  14.132  18.797  14.869
63987W        W37055   0.012  25.187   4.574
63988W        W37056   4.922   5.442  13.746
63989W        W37057  15.737   1.004  12.429
63990W        W37058  13.375   3.433   4.165
63991W        W37059  13.363   3.481  10.782
63992W        W37060  20.742  33.356  11.136
63993W        W37061   6.864  14.370  11.433
63994W        W37062  21.816  21.199   4.729
63995W        W37063  32.059  40.766  14.960
63996W        W37064  37.422  38.873   3.505
63997W        W37065   0.007   4.173   3.148
63998W        W37066  31.251   4.993  10.551
63999W        W37067   9.810  14.306   1.967
64000W        W37068  16.242   8.178   2.307
64001W        W37069  40.496   7.386  11.938
64002W        W37070  25.517  19.146  11.569
64003W        W37071  36.156   2.668   1.782
64004W        W37072   2.503  27.542   3.183
64005W        W37073   5.752  11.243   0.272
64006W        W37074   0.948  37.353   4.943
64007W        W37075  17.110   0.906   0.395
64008W        W37076  24.408   3.949   2.622
64009W        W37077   4.394   9.426   4.524
64010W        W37078  17.031  39.915   2.235
64011W        W37079   9.855  40.017  11.379
64012W        W37080  34.543  42.913   0.810
64013W        W37081   5.711  44.222  12.123
64014W        W37082  29.503  10.897   3.330
64015W        W37083  15.528  26.048  14.390
64016W        W37084  40.509  27.561  13.354
64017W        W37085   7.295   6.360  10.617
64018W        W37086  12.047   2.397  11.644
64019W        W37087  43.286  36.173  12.029
64020W        W37088  23.675  26.884  10.735
64021W        W37089  23.078   4.326   4.845
64022W        W37090   0.048  38.995  10.754
64023W        W37091  40.448  21.256   3.177
64024W        W37092  28.580   5.642   2.371
64025W        W37093  40.309   3.845  14.045
64026W        W37094   8.396  43.394  14.770
64027W        W37095  37.663  19.355   2.683
64028W        W37096  22.268  15.173   4.463
64029W        W37097  23.824  25.303  13.056
64030W        W37098  20.946   8.129  12.532
64031W        W37099  30.674  27.215  14.622
64032W        W37100  35.833  24.973  13.808
64033W        W37101  19.796   8.534  14.586
64034W        W37102   1.040  20.551  13.428
64035W        W37103  36.269  25.774   0.846
64036W        W37104  23.225  16.848   4.102
64037W        W37105  26.694  43.048   2.801
64038W        W37106  13.366  16.300  14.831
64039W        W37107  29.138   5.265   4.064
64040W        W37108   5.348   6.007  10.768
64041W        W37109  34.833  33.558   4.989
64042W        W37110  39.419  11.940  14.889
64043W        W37111   4.216   6.780   4.399
64044W        W37112  39.882  32.372  12.069
64045W        W37113   6.268  33.636   3.199
64046W        W37114  25.095  13.208   1.866
64047W        W37115   6.421  31.595  13.542
64048W        W37116  12.940  25.195  13.595
64049W        W37117  15.828  16.176   2.345
64050W        W37118  30.687  10.181   2.307
64051W        W37119  17.904  35.572   0.790
64052W        W37120   8.013  40.997  13.853
64053W        W37121   9.932   4.436  10.951
64054W        W37122  18.928  30.376   2.840
64055W        W37123  13.352  39.474   0.471
64056W        W37124  29.192  42.503   4.830
64057W        W37125   9.793  34.829   2.391
64058W        W37126   3.362  20.308   1.797
64059W        W37127  35.795  32.071   4.507
64060W        W37128  31.981  25.144   4.757
64061W        W37129  19.791  22.799  13.357
64062W        W37130  30.156  41.554   1.808
64063W        W37131  29.943  15.600   4.027
64064W        W37132  14.756   6.664  11.431
64065W        W37133  21.496  26.757  10.926
64066W        W37134  38.284  40.544   0.194
64067W        W37135   9.410  42.933   0.241
64068W        W37136  16.272  19.944   0.930
64069W        W37137  13.633  23.704  10.924
64070W        W37138  16.596  14.118  11.588
64071W        W37139  25.098  16.337   1.261
64072W        W37140  41.529  25.487   2.819
64073W        W37141   3.392  40.926   4.245
64074W        W37142  25.767  40.001  10.674
64075W        W37143  36.623  33.652   3.763
64076W        W37144  44.271  37.498  12.547
64077W        W37145   5.769  30.442  12.015
64078W        W37146  35.894  39.992  11.631
64079W        W37147   4.857  10.296   2.833
64080W        W37148  29.660  15.141  13.572
64081W        W37149  28.215  23.924   4.236
64082W        W37150  32.792  27.126  11.974
64083W        W37151  38.267   4.000  11.198
64084W        W37152  19.253  31.995  11.206
64085W        W37153  29.415  35.595   2.277
64086W        W37154  44.380  37.924   3.142
64087W        W37155  38.386  27.088  11.135
64088W        W37156  23.192  37.900   3.299
64089W        W37157  25.582   8.621  13.419
64090W        W37158   0.666  16.485   4.095
64091W        W37159  19.084  42.266   2.805
64092W        W37160  11.417  35.464  14.814
64093W        W37161  14.404  27.039  14.333
64094W        W37162  43.845   8.858  13.928
64095W        W37163   3.846  22.638  10.226
64096W        W37164  11.473  42.672  11.613
64097W        W37165  40.433  35.358  12.926
64098W        W37166  37.119  41.834  12.857
64099W        W37167  10.425   4.798  14.156
64100W        W37168  16.816  12.812   1.116
64101W        W37169  38.455   2.181  10.757
64102W        W37170  21.756   4.436  11.487
64103W        W37171  18.600  40.657   4.153
64104W        W37172  30.347  44.840   2.870
64105W        W37173  15.793   5.303  14.535
64106W        W37174   1.781  26.879   4.071
64107W        W37175  19.491  23.256  10.793
64108W        W37176  27.986  37.041   4.468
64109W        W37177  23.117  28.796   2.724
64110W        W37178  40.270  31.003   4.273
64111W        W37179  12.196   5.743  13.452
64112W        W37180  35.262   2.016  13.749
64113W        W37181  11.406  39.958  13.928
64114W        W37182   6.676   0.407   4.613
64115W        W37183  35.378  24.390   1.351
64116W        W37184   2.476  40.572   2.137
64117W        W37185  17.145  40.262   3.189
64118W        W37186  43.801   8.205   1.882
64119W        W37187  29.724  38.656   4.705
64120W        W37188  11.390  10.862   3.937
64121W        W37189   5.436  12.521  11.354
64122W        W37190  43.842  41.145  14.981
64123W        W37191   3.854  13.161   0.463
64124W        W37192   1.258  18.772   1.789
64125W        W37193   5.910  19.109   3.221
64126W        W37194  11.706  17.025   0.153
64127W        W37195  25.191  31.879  11.673
64128W        W37196  44.947  14.271  11.640
64129W        W37197   4.969  26.409   1.823
64130W        W37198  10.585  30.568   1.776
64131W        W37199  34.160   5.287  12.562
64132W        W37200  20.780  36.710  14.388
64133W        W37201  44.447  37.061  12.799
64134W        W37202  11.896  11.119  11.096
64135W        W37203   9.988   6.308  11.539
64136W        W37204  18.321  24.718   3.237
64137W        W37205  25.832   0.845   3.752
64138W        W37206   4.288  11.412   0.363
64139W        W37207  13.611   1.803  12.533
64140W        W37208   5.679  27.697   4.895
64141W        W37209   1.983   3.813   2.844
64142W        W37210  29.167  15.197   1.865
64143W        W37211  16.128  30.148   3.612
64144W        W37212  22.061  23.578  10.609
64145W        W37213   5.781   6.293   1.070
64146W        W37214  36.569   1.853   3.130
64147W        W37215  27.480  39.591  12.985
64148W        W37216  41.467   8.753   1.652
64149W        W37217  15.625  21.679   3.066
64150W        W37218  24.129  39.691   0.183
64151W        W37219  26.696  34.221  11.410
64152W        W37220  19.999   9.322  14.882
64153W        W37221  29.034  14.580  14.019
64154W        W37222   9.296   2.172   1.105
64155W        W37223  24.191  29.154   2.354
64156W        W37224   2.617  19.692  13.996
64157W        W37225  12.416  28.619  12.905
64158W        W37226  41.327   1.713  10.624
64159W        W37227   0.059  19.174  13.009
64160W        W37228  25.131  23.069   1.645
64161W        W37229  24.101  41.004  13.342
64162W        W37230  11.448  16.660   9.918
64163W        W37231   9.675   1.836   2.949
64164W        W37232   2.883  11.149  11.847
64165W        W37233   9.905  26.118   3.246
64166W        W37234   5.823  18.221   2.414
64167W        W37235   7.766  29.861  10.733
64168W        W37236  11.538  34.955  13.014
64169W        W37237  39.531   8.688   2.727
64170W        W37238  11.250  10.105  14.880
64171W        W37239  29.407  40.982   3.694
64172W        W37240  21.620  30.976  12.979
64173W        W37241   7.439  28.002   2.691
64174W        W37242  12.154  24.767  13.045
64175W        W37243  25.616  27.365  12.125
64176W        W37244   0.490  26.063   1.793
64177W        W37245  37.080   3.856   0.005
64178W        W37246  40.332  26.655  11.448
64179W        W37247  34.863   1.993   1.311
64180W        W37248  35.777   8.293  13.166
64181W        W37249   8.853  16.049  11.631
64182W        W37250  34.239  32.771   5.200
64183W        W37251  21.806   8.782   2.593
64184W        W37252  14.149  41.391   4.922
64185W        W37253  35.417  15.827   2.334
64186W        W37254  20.694  44.447   0.944
64187W        W37255  15.660  37.407   0.796
64188W        W37256   0.869  18.237   9.965
64189W        W37257  41.971   9.389   2.324
64190W        W37258  34.888  40.401   0.885
64191W        W37259   4.793   2.736  14.583
64192W        W37260  18.514  14.989  10.870
64193W        W37261  24.977  13.491  11.065
64194W        W37262   9.186  24.746   3.867
64195W        W37263  11.263   4.884   0.219
64196W        W37264   7.313  43.992   4.623
64197W        W37265  39.391   9.249  14.009
64198W        W37266  44.362  28.069  13.946
64199W        W37267  30.122  27.606  13.823
64200W        W37268  36.949  35.596   2.123
64201W        W37269  20.552   9.025   1.406
64202W        W37270  20.206  44.219  10.268
64203W        W37271  33.940  28.407  13.177
64204W        W37272  23.504  20.587   1.979
64205W        W37273  41.023  18.654   4.805
64206W        W37274  15.779  44.464  12.662
64207W        W37275  25.640  23.542   3.309
64208W        W37276  39.962   0.862   3.293
64209W        W37277  35.579  20.310  11.025
64210W        W37278   8.379   4.100  12.720
64211W        W37279   2.958   6.128  13.380
64212W        W37280  19.318  37.492  10.702
64213W        W37281  20.759  29.452   4.244
64214W        W37282  19.755  29.525   4.044
64215W        W37283  25.041  29.036  11.107
64216W        W37284   6.376  26.736  11.112
64217W        W37285   6.257  13.321   0.665
64218W        W37286  28.684  41.017   2.165
64219W        W37287  23.094   9.814   4.037
64220W        W37288  23.850  16.143   4.359
64221W        W37289  18.769  21.683   4.644
64222W        W37290  41.245   8.278   0.074
64223W        W37291  40.824  18.018  13.795
64224W        W37292  15.216  25.580   3.069
64225W        W37293  19.162  26.585   4.046
64226W        W37294   5.378  13.388  14.472
64227W        W37295  43.570  25.593   4.639
64228W        W37296   0.221  14.723   2.787
64229W        W37297   0.517  18.255   2.633
64230W        W37298  12.309  23.093   2.181
64231W        W37299  36.730  28.792   0.164
64232W        W37300   2.613  24.938   1.888
64233W        W37301  27.221  39.080  12.913
64234W        W37302   1.443  39.700  13.163
64235W        W37303  17.699  38.908   4.285
64236W        W37304  33.532  35.206   2.287
64237W        W37305  27.487  10.353   2.822
64238W        W37306   8.866   1.360  12.841
64239W        W37307  40.406   9.099  10.421
64240W        W37308  26.405  25.463   3.935
64241W        W37309  16.668  27.444  10.399
64242W        W37310  38.084  17.258   1.517
64243W        W37311  13.488   8.752  11.283
64244W        W37312  41.499  20.153   1.228
64245W        W37313   4.979  12.347  12.518
64246W        W37314  38.836  23.985  11.631
64247W        W37315  13.513  13.931  10.700
64248W        W37316  19.625  38.361  11.097
64249W        W37317  39.516   7.270  12.059
64250W        W37318  28.732   6.780  13.058
64251W        W37319  28.470  35.374  14.960
64252W        W37320  38.496  20.517  12.149
64253W        W37321  42.433  42.761  14.984
64254W        W37322  28.840  25.968  13.389
64255W        W37323  43.311  41.808  10.836
64256W        W37324  20.378   0.760   3.146
64257W        W37325   0.228  23.561  11.701
64258W        W37326  42.018  15.044   2.738
64259W        W37327   6.876  44.067  11.077
64260W        W37328  37.199   3.827  10.405
64261W        W37329  24.394  10.248   2.789
64262W        W37330  25.520   3.290   2.419
64263W        W37331  11.426  30.178  10.909
64264W        W37332   2.227   9.318   1.154
64265W        W37333  12.806  24.473  11.446
64266W        W37334  40.299  34.525   3.262
64267W        W37335  13.195  33.780  10.281
64268W        W37336  14.918   7.122  12.983
64269W        W37337  34.886   9.138   2.766
64270W        W37338  15.268   9.394  11.575
64271W        W37339  16.237  25.499   2.761
64272W        W37340  32.438   4.227  10.680
64273W        W37341  23.095  16.641   3.169
64274W        W37342  35.159  36.967   4.277
64275W        W37343  36.033  18.112   4.571
64276W        W37344  40.144  23.920  13.215
64277W        W37345  35.883   2.887   4.144
64278W        W37346   2.375  20.175  12.026
64279W        W37347  33.196  23.711   3.499
64280W        W37348  25.943  20.236  11.407
64281W        W37349   7.389  11.690   4.150
64282W        W37350  26.631  15.950   4.047
64283W        W37351  20.903  40.540  14.931
64284W        W37352  31.055  24.384  14.277
64285W        W37353  23.738  21.260  12.749
64286W        W37354   9.967  18.484   3.534
64287W        W37355  17.554  25.598  13.779
64288W        W37356  41.622   6.722  12.161
64289W        W37357  39.275   9.808   1.441
64290W        W37358  42.878   6.758  13.489
64291W        W37359  40.684  16.038  11.412
64292W        W37360  19.666  17.363   4.561
64293W        W37361   3.132  39.951  14.325
64294W        W37362  41.521  32.150  14.823
64295W        W37363  21.138  30.590   2.573
64296W        W37364  13.805  16.337   2.746
64297W        W37365  15.087  36.858  11.202
64298W        W37366   6.426  16.118   1.425
64299W        W37367  37.953  38.994   3.610
64300W        W37368  41.567  42.395  11.160
64301W        W37369  14.227  22.505  10.711
64302W        W37370   4.195   3.894  12.923
64303W        W37371  31.985  27.355   4.674
64304W        W37372   5.884   7.196   0.210
64305W        W37373  18.061   3.203  10.754
64306W        W37374  34.546  16.566  10.676
64307W        W37375  14.793  40.338  11.607
64308W        W37376   3.907  22.510   3.950
64309W        W37377   8.599   2.130   4.036
64310W        W37378   9.865  11.658  10.592
64311W        W37379   4.515   0.964   0.319
64312W        W37380  18.396  37.543   1.232
64313W        W37381   8.192  42.371   4.269
64314W        W37382  15.149  39.066  11.677
64315W        W37383   4.417  37.352   0.386
64316W        W37384   4.184  18.841   1.306
64317W        W37385   7.925  14.644  13.758
64318W        W37386  40.256  39.575  12.318
64319W        W37387  14.276  43.904   2.364
64320W        W37388  30.892   5.745   2.449
64321W        W37389  37.138  24.625  11.705
64322W        W37390   9.591  16.135  10.802
64323W        W37391  17.997  34.820  14.576
64324W        W37392   1.496  20.534   4.171
64325W        W37393  14.685  41.431  13.772
64326W        W37394  38.479  20.120   3.525
64327W        W37395   1.700   0.721  11.371
64328W        W37396   2.166  24.631  11.615
64329W        W37397  39.169   2.926  11.549
64330W        W37398  14.494  42.508   0.882
64331W        W37399  16.881   2.294  14.317
64332W        W37400  27.094  37.292  13.800
64333W        W37401  24.210  20.037  14.400
64334W        W37402   5.743  34.620   1.403
64335W        W37403   7.720  16.006   2.700
64336W        W37404   3.408  26.232   5.076
64337W        W37405   9.156  24.571  10.757
64338W        W37406   9.168  38.257  14.053
64339W        W37407  30.926  18.821   1.587
64340W        W37408  28.952  36.974   2.429
64341W        W37409  17.145  44.203  11.583
64342W        W37410  25.267  28.585  11.191
64343W        W37411   1.926  14.586   0.013
64344W        W37412  22.210  32.589  12.188
64345W        W37413   3.019  18.177  11.510
64346W        W37414  10.642  15.984   3.454
64347W        W37415   4.655  19.184   5.219
64348W        W37416  33.901  35.684  11.818
64349W        W37417  19.166  39.008  12.558
64350W        W37418  25.484  27.367   3.835
64351W        W37419   5.467   0.318  11.718
64352W        W37420  36.539  11.644  10.260
64353W        W37421  16.157  14.754  13.802
64354W        W37422   2.978   9.364   3.341
64355W        W37423  33.446  32.601  11.609
64356W        W37424  25.009  15.352  10.624
64357W        W37425   8.395  21.668   4.562
64358W        W37426  26.558   7.170  13.061
64359W        W37427  24.065  10.901   3.605
64360W        W37428  14.039   5.779  14.942
64361W        W37429  10.884   9.807   3.730
64362W        W37430  11.035  13.224  11.989
64363W        W37431   4.813  37.544   0.831
64364W        W37432  27.540  22.193   0.829
64365W        W37433  31.529  10.676  11.528
64366W        W37434  44.879  32.915   3.914
64367W        W37435  34.054   0.758   4.289
64368W        W37436  32.471  26.732  10.700
64369W        W37437  40.034  34.115   3.110
64370W        W37438  19.072   7.756   2.314
64371W        W37439   3.226   4.384   4.124
64372W        W37440  23.964   1.693  11.816
64373W        W37441   5.266  26.166  12.986
64374W        W37442  36.488  33.940  10.894
64375W        W37443  42.265  27.948   3.771
64376W        W37444  12.334  20.230   0.479
64377W        W37445  12.732  22.031  11.601
64378W        W37446  15.280  20.745   4.688
64379W        W37447  17.241  30.314  12.865
64380W        W37448  34.772  17.263  13.560
64381W        W37449  42.572  39.957   4.757
64382W        W37450  24.692  44.184   1.253
64383W        W37451  13.799   2.318   3.129
64384W        W37452  25.578   3.740  11.462
64385W        W37453   6.278  25.941   2.344
64386W        W37454  34.318  33.615  10.573
64387W        W37455  42.513  40.481  11.642
64388W        W37456   6.671   2.786  11.984
64389W        W37457  22.609   2.980  13.918
64390W        W37458  31.805  26.119  13.136
64391W        W37459  12.400  28.701   0.823
64392W        W37460  31.366  15.401  13.853
64393W        W37461  43.701  24.617  10.782
64394W        W37462  14.635   1.473  11.206
64395W        W37463  39.830   5.854   4.629
64396W        W37464  10.307   5.626   4.423
64397W        W37465   1.844  20.133  14.032
64398W        W37466  23.010  10.418  11.124
64399W        W37467  10.429   1.251  13.463
64400W        W37468  21.960  44.885   2.720
64401W        W37469   9.357  17.694  14.889
64402W        W37470  22.571   9.640  12.591
64403W        W37471  13.853  43.393  12.314
64404W        W37472   5.454  30.188  10.870
64405W        W37473  42.510  42.277  14.721
64406W        W37474   5.578  43.726   3.146
64407W        W37475  11.321  13.531   3.235
64408W        W37476  20.002   9.027   0.674
64409W        W37477   8.865  43.308  14.565
64410W        W37478  24.295  31.954  12.542
64411W        W37479  20.573  32.249  14.142
64412W        W37480  40.244  11.824  10.667
64413W        W37481  32.990  13.256   2.769
64414W        W37482  21.588  44.887  11.391
64415W        W37483  37.921   9.853   1.067
64416W        W37484  21.783   0.893   1.217
64417W        W37485  40.472  30.420  14.389
64418W        W37486  31.132  30.501   1.693
64419W        W37487  34.347   3.480   1.279
64420W        W37488   8.318   8.934  13.490
64421W        W37489   8.124   5.344   0.513
64422W        W37490  11.300  38.504   4.400
64423W        W37491  20.693  42.009   4.628
64424W        W37492   2.905  37.966   2.559
64425W        W37493  19.441  11.006  14.490
64426W        W37494   8.313  14.133   0.251
64427W        W37495   9.824  28.665  12.056
64428W        W37496  12.542  12.790   3.367
64429W        W37497   6.500  40.882  14.817
64430W        W37498  43.202  37.090   0.651
64431W        W37499  23.796  37.133  11.592
64432W        W37500  41.143  13.079  14.539
64433W        W37501  38.508  25.299  11.641
64434W        W37502  30.412  36.712  14.917
64435W        W37503   8.194  43.888   3.282
64436W        W37504  30.584   8.670  14.081
64437W        W37505   9.625  11.558   3.711
64438W        W37506  43.010   0.193  12.915
64439W        W37507  12.172  14.152   3.180
64440W        W37508  32.023  31.572  14.018
64441W        W37509   5.145  18.316   1.195
64442W        W37510  33.193   5.555   0.430
64443W        W37511  38.964  16.588   3.231
64444W        W37512   5.651  41.362   1.894
64445W        W37513   0.295  14.108  13.906
64446W        W37514  38.956  29.771  12.536
64447W        W37515  15.223  23.458   2.078
64448W        W37516  31.853   3.922  13.531
64449W        W37517  11.250  24.938  13.073
64450W        W37518   6.366  42.867   3.630
64451W        W37519  26.110   3.292   0.414
64452W        W37520   5.638  10.415  11.634
64453W        W37521  20.403  13.757  12.075
64454W        W37522  26.495  22.603  11.084
64455W        W37523  39.255  30.893  12.762
64456W        W37524  14.415  18.673   4.019
64457W        W37525  36.006   3.955  13.890
64458W        W37526  21.796   7.339   4.646
64459W        W37527  15.761  44.277   0.430
64460W        W37528   8.697   5.530   2.808
64461W        W37529  29.973  10.242   3.745
64462W        W37530  28.931  38.022  11.605
64463W        W37531  11.802  41.544   2.700
64464W        W37532  13.237  29.426  13.882
64465W        W37533  18.763  19.686   0.906
64466W        W37534  10.196   9.305  14.049
64467W        W37535  17.745   0.348   4.634
64468W        W37536  17.051   6.717  10.538
64469W        W37537  19.598  35.070   0.361
64470W        W37538   0.902  24.491  12.040
64471W        W37539  14.720  29.547   3.570
64472W        W37540  17.218   7.753  11.990
64473W        W37541  38.108  15.563  11.935
64474W        W37542  20.101  20.535  11.975
64475W        W37543   8.665  22.785  13.540
64476W        W37544  21.531  16.887   4.718
64477W        W37545   7.823  41.797  13.146
64478W        W37546  20.300   3.345  11.937
64479W        W37547  38.847   9.691   4.567
64480W        W37548   9.477  25.082  12.060
64481W        W37549  34.593  16.508  12.494
64482W        W37550   0.726  13.579  10.626
64483W        W37551  17.294   9.147   2.407
64484W        W37552  18.541  29.542   1.371
64485W        W37553  20.769  31.355  12.538
64486W        W37554  36.083  30.127  13.966
64487W        W37555  32.899  25.809   4.085
64488W        W37556  33.765  10.852  12.106
64489W        W37557  20.932  33.373  12.495
64490W        W37558  21.800  40.327   0.091
64491W        W37559  13.268  12.718   0.009
64492W        W37560  13.112   2.889   2.961
64493W        W37561  13.420   9.390   4.154
64494W        W37562  22.831  11.084   0.911
64495W        W37563  35.406   5.140   0.785
64496W        W37564  43.859  13.644   2.885
64497W        W37565  26.174  17.106   3.759
64498W        W37566  10.230  19.799   4.096
64499W        W37567  36.426  17.789  14.317
64500W        W37568   6.104  42.583   1.859
64501W        W37569  34.786  31.922  11.942
64502W        W37570   8.549  36.038   3.895
64503W        W37571  17.871  33.283  12.474
64504W        W37572  17.293   3.196   2.795
64505W        W37573  29.544  20.693  13.295
64506W        W37574  24.984  41.936   4.645
64507W        W37575  37.852   7.244  14.952
64508W        W37576   0.957  34.516   3.293
64509W        W37577   2.997  35.234  11.574
64510W        W37578  36.084  35.184   3.326
64511W        W37579  39.555  30.043  11.949
64512W        W37580  31.601  38.777  12.044
64513W        W37581   5.485  40.354  14.327
64514W        W37582   1.277  26.028  12.987
64515W        W37583  24.974  11.735   2.060
64516W        W37584  31.661  34.046   0.035
64517W        W37585   8.949  36.498   5.114
64518W        W37586   5.628   0.811   3.760
64519W        W37587  29.580  32.823   3.278
64520W        W37588  39.653   1.585   4.623
64521W        W37589   3.019  27.680  11.952
64522W        W37590  22.505  28.543  11.944
64523W        W37591  17.426  39.806   3.160
64524W        W37592  28.010   3.186   2.309
64525W        W37593  42.839  41.559   4.587
64526W        W37594  15.206  28.437   2.751
64527W        W37595   8.966  39.509  14.846
64528W        W37596  16.236   7.264  13.366
64529W        W37597  14.522   5.362  11.871
64530W        W37598  35.472  44.799  11.188
64531W        W37599   6.892  16.512   0.413
64532W        W37600  25.631  39.553   2.957
64533W        W37601  44.276   7.165  10.214
64534W        W37602   6.248  30.157  14.512
64535W        W37603  43.042  19.769   2.783
64536W        W37604  25.307  15.803   4.431
64537W        W37605  42.957  24.995  12.438
64538W        W37606  31.481  13.152   3.189
64539W        W37607  42.307  24.578  14.226
64540W        W37608  40.349  23.183   3.591
64541W        W37609  31.454  16.322  10.701
64542W        W37610  43.364  11.493  11.519
64543W        W37611  44.839  24.128  11.159
64544W        W37612  36.668   0.806   1.355
64545W        W37613  20.083  14.746  12.145
64546W        W37614  19.856  16.752  11.173
64547W        W37615  19.185   7.282   0.684
64548W        W37616  32.914  38.487   4.922
64549W        W37617   1.431  14.215  13.410
64550W        W37618  10.186  34.610  12.891
64551W        W37619  34.694  27.939  14.324
64552W        W37620   4.685  43.891   5.288
64553W        W37621  26.987   4.541   4.144
64554W        W37622  28.159  38.473  11.596
64555W        W37623  12.537  21.273   1.210
64556W        W37624  19.237  27.111   4.065
64557W        W37625  29.055  24.179   1.934
64558W        W37626  34.149  17.561   3.652
64559W        W37627   8.567   7.193  13.526
64560W        W37628  32.523  23.563   2.742
64561W        W37629  41.839  37.450   2.200
64562W        W37630  11.696  14.076   0.379
64563W        W37631   8.723  36.667  10.722
64564W        W37632  20.957  17.899  14.486
64565W        W37633  14.703  29.627   2.593
64566W        W37634  39.403  20.771  10.383
64567W        W37635  44.959  32.838  12.145
64568W        W37636  13.219  39.477  10.602
64569W        W37637  22.952   0.266  13.363
64570W        W37638  21.549  24.645  11.999
64571W        W37639   5.519   6.310  14.214
64572W        W37640   5.824  44.722   3.160
64573W        W37641  33.608  41.058   1.016
64574W        W37642  10.723  21.167   1.811
64575W        W37643   2.906  24.687  10.743
64576W        W37644  36.995  44.398  10.391
64577W        W37645  16.144  24.214   1.254
64578W        W37646  12.963   0.383  11.008
64579W        W37647  37.576  37.927  11.213
64580W        W37648  28.540  31.868   2.899
64581W        W37649  13.833  23.046   4.126
64582W        W37650   8.619  25.505   4.152
64583W        W37651  43.918   2.725  11.611
64584W        W37652  22.144  34.461   3.374
64585W        W37653   0.867   5.981  12.053
64586W        W37654  42.798  23.092  11.521
64587W        W37655  18.240  39.625  14.204
64588W        W37656  32.303  41.444  11.884
64589W        W37657  12.825  40.228   4.230
64590W        W37658  22.174  26.990   3.836
64591W        W37659  33.791  44.213   4.082
64592W        W37660  37.013  30.911  12.546
64593W        W37661  27.474  13.644  13.957
64594W        W37662  14.606  21.843   0.251
64595W        W37663  41.803   3.853   0.375
64596W        W37664  30.662  22.970   4.254
64597W        W37665  14.216  44.451   4.928
64598W        W37666  45.000  30.339   2.277
64599W        W37667  26.662  36.081  10.757
64600W        W37668  17.186   7.257   3.171
64601W        W37669  17.124  10.413  14.568
64602W        W37670  13.924   4.428  12.033
64603W        W37671   5.164  24.563  13.406
64604W        W37672  44.335  15.539  13.843
64605W        W37673   5.703  19.067   1.444
64606W        W37674  30.477  14.791   2.755
64607W        W37675   9.659   1.507  14.211
64608W        W37676   1.535  20.648  11.611
64609W        W37677   7.315  41.784   3.646
64610W        W37678  44.081  43.878   0.217
64611W        W37679  33.390   2.832  11.472
64612W        W37680   8.216  26.634  15.000
64613W        W37681  43.911  30.404   1.357
64614W        W37682  17.468  26.979  13.453
64615W        W37683  29.937  40.979  11.329
64616W        W37684  22.645  18.272   3.784
64617W        W37685  19.107  35.537   1.911
64618W        W37686  34.512  38.775  12.487
64619W        W37687   8.171  28.587   3.714
64620W        W37688  12.126  17.219   1.007
64621W        W37689  14.840   4.439  13.524
64622W        W37690  36.016   3.930   3.172
64623W        W37691   6.207   7.727  10.647
64624W        W37692   8.111  44.288   0.756
64625W        W37693  37.551  41.757   1.395
64626W        W37694  13.740  44.805  13.985
64627W        W37695   3.150  38.422   3.457
64628W        W37696   2.780  23.263  13.564
64629W        W37697  20.686  35.572   3.257
64630W        W37698   9.790  38.563   4.556
64631W        W37699  12.008   4.790  12.538
64632W        W37700  41.552  43.486   0.270
64633W        W37701  36.482  32.888   2.643
64634W        W37702  12.371  17.749  13.932
64635W        W37703  34.239   0.826  14.914
64636W        W37704  31.063  37.809   2.299
64637W        W37705  10.907   9.812   2.667
64638W        W37706  17.770  43.533  14.169
64639W        W37707  42.873  30.924   2.377
64640W        W37708  37.771   3.104  13.974
64641W        W37709  23.755  32.485   0.873
64642W        W37710  25.554  27.664  10.829
64643W        W37711   2.352  21.628  12.169
64644W        W37712  15.073   4.097   3.745
64645W        W37713   8.906  13.157   0.718
64646W        W37714   3.522  39.484  10.763
64647W        W37715  18.086  40.846   2.417
64648W        W37716  10.743  42.455  11.618
64649W        W37717  27.164  36.681   2.642
64650W        W37718   6.446  20.975  12.429
64651W        W37719  33.141  16.209  10.121
64652W        W37720  11.652  17.631   2.970
64653W        W37721  13.721  17.171   3.216
64654W        W37722  28.612  43.748   3.731
64655W        W37723  10.334  39.814  11.517
64656W        W37724  15.779  16.397  14.964
64657W        W37725  14.723  32.854   0.710
64658W        W37726  21.110   3.651   5.001
64659W        W37727  10.108  16.345  13.012
64660W        W37728   1.872  13.947  13.616
64661W        W37729  38.580  24.485   1.863
64662W        W37730  13.126  23.720   1.477
64663W        W37731   8.440  39.378   2.417
64664W        W37732  38.098  38.829  11.288
64665W        W37733   2.354  19.712   3.130
64666W        W37734   3.313   7.178  11.206
64667W        W37735  31.718  36.510   0.486
64668W        W37736  40.110  34.150  10.952
64669W        W37737   0.816  18.091  10.536
64670W        W37738  43.479  20.682   3.127
64671W        W37739   3.318  22.719  11.491
64672W        W37740  35.547  42.301  14.493
64673W        W37741  38.086  20.515  13.920
64674W        W37742   3.715   8.303  11.984
64675W        W37743  10.685   3.041  12.873
64676W        W37744  20.501   2.885  10.630
64677W        W37745  25.399   6.104  10.175
64678W        W37746  12.040   1.339   2.195
64679W        W37747  26.979  23.790  11.062
64680W        W37748  25.997  29.120  11.124
64681W        W37749  20.757  12.963   0.185
64682W        W37750   2.698   9.439   2.923
64683W        W37751  19.193  41.141  11.539
64684W        W37752  37.503  18.130   1.983
64685W        W37753   1.256   3.920  11.999
64686W        W37754   4.378  36.883  13.902
64687W        W37755  32.471   0.575  13.273
64688W        W37756  11.662  44.487   1.888
64689W        W37757   0.916  33.546   4.816
64690W        W37758  32.188  26.603   0.889
64691W        W37759   1.853  15.665   4.214
64692W        W37760  12.897  36.513  13.822
64693W        W37761   9.277  16.174   3.280
64694W        W37762   4.931  30.143   0.865
64695W        W37763   8.454  42.386  11.542
64696W        W37764  21.506   4.135   1.776
64697W        W37765  37.873  24.670  14.536
64698W        W37766  37.352   0.351   3.504
64699W        W37767  22.175  38.796   4.707
64700W        W37768  11.116   4.933   4.835
64701W        W37769  28.691  39.223  13.487
64702W        W37770  30.148  29.577   3.331
64703W        W37771  28.054  25.192  12.577
64704W        W37772   7.447   5.098   2.645
64705W        W37773  18.012  12.423   3.078
64706W        W37774  38.810  28.521  11.200
64707W        W37775  44.823  34.860   4.629
64708W        W37776  34.193  44.663  11.431
64709W        W37777   6.406  33.122   3.320
64710W        W37778  36.584  23.629  13.276
64711W        W37779  37.547  13.808   3.204
64712W        W37780  25.252  14.623   2.353
64713W        W37781  39.618  32.205  13.950
64714W        W37782  38.751  34.168  14.410
64715W        W37783  40.317  12.989   1.602
64716W        W37784  31.249  10.196   4.163
64717W        W37785  21.781  17.744   2.888
64718W        W37786  32.177  22.825   1.486
64719W        W37787  35.401  43.004   0.472
64720W        W37788   6.908  17.165  11.115
64721W        W37789  41.647   1.319  13.866
64722W        W37790  24.303  15.480  12.943
64723W        W37791  17.495   5.313  10.601
64724W        W37792  30.455  36.011  10.768
64725W        W37793  40.003  32.339   3.597
64726W        W37794  30.988  40.564  14.440
64727W        W37795   3.055  37.929  14.443
64728W        W37796  12.059   5.822  11.782
64729W        W37797  15.572  32.705  14.461
64730W        W37798   8.237   1.275  13.508
64731W        W37799  22.034  15.981  11.062
64732W        W37800  31.499  17.117   2.165
64733W        W37801  23.252  26.079  14.034
64734W        W37802  43.964  42.411  12.529
64735W        W37803  25.162  11.210  14.218
64736W        W37804  33.075  39.484  14.714
64737W        W37805  10.543   1.800   0.891
64738W        W37806   0.448  39.430   2.392
64739W        W37807   2.358  26.321   0.872
64740W        W37808  34.005  32.668   0.913
64741W        W37809   2.265  31.408   2.362
64742W        W37810  37.061  37.009  14.773
64743W        W37811  37.531  13.301   4.293
64744W        W37812  10.308  38.051   0.012
64745W        W37813  38.706  22.487   3.336
64746W        W37814  12.229  15.866  13.253
64747W        W37815  19.633  16.583   3.231
64748W        W37816  35.452  44.494  14.750
64749W        W37817  27.878  41.707  10.868
64750W        W37818  28.955  14.788   1.610
64751W        W37819  41.248  39.552   0.688
64752W        W37820  38.470  20.837  14.041
64753W        W37821  11.381  35.003   1.140
64754W        W37822  17.067  24.679   1.303
64755W        W37823  18.781   4.918   0.264
64756W        W37824  37.533   9.969   0.334
64757W        W37825  12.506  32.166  13.920
64758W        W37826  13.148  15.090  14.068
64759W        W37827  19.873  28.882  11.100
64760W        W37828  23.035  22.018   2.238
64761W        W37829   9.654  28.725  14.481
64762W        W37830  17.709  13.867   2.997
64763W        W37831  38.035   7.301   3.200
64764W        W37832  22.761  26.590  13.467
64765W        W37833   0.870   5.278   1.412
64766W        W37834   8.720  37.125   0.921
64767W        W37835  15.167  36.628   0.888
64768W        W37836   4.280  26.949  11.342
64769W        W37837  28.976   8.412  12.254
64770W        W37838  31.707  38.065   1.921
64771W        W37839  10.791  25.641  14.386
64772W        W37840   7.848   3.229   3.230
64773W        W37841  12.140  29.934  14.863
64774W        W37842   5.747  31.735  12.595
64775W        W37843  28.504  39.480   2.167
64776W        W37844  22.480  27.141  12.894
64777W        W37845  25.590  25.593  12.846
64778W        W37846  38.960  21.966   0.936
64779W        W37847  13.080  13.372   3.720
64780W        W37848   5.005  18.653  11.460
64781W        W37849  33.724   3.966   1.422
64782W        W37850  36.673  23.236  12.668
64783W        W37851  43.749   9.969   0.866
64784W        W37852  14.553  19.201   0.925
64785W        W37853  10.584   4.931   5.082
64786W        W37854  44.307  11.719   1.163
64787W        W37855  26.833   6.832   0.664
64788W        W37856  40.498  20.140   4.189
64789W        W37857  32.389  20.625  10.521
64790W        W37858  13.765   3.776   0.801
64791W        W37859  39.420  30.668  10.745
64792W        W37860   6.426  23.083  13.113
64793W        W37861  25.970   5.310  12.006
64794W        W37862  41.159  10.350  13.995
64795W        W37863  26.955  26.543   3.990
64796W        W37864  24.999  31.009  10.665
64797W        W37865  21.221  18.583   4.589
64798W        W37866  29.534  31.781  14.735
64799W        W37867  24.398  32.010  10.934
64800W        W37868   4.137  13.082  14.990
64801W        W37869  36.558  16.208  12.984
64802W        W37870  15.002   2.001   4.067
64803W        W37871  20.166   8.929  11.916
64804W        W37872   6.193  26.104   0.500
64805W        W37873  41.408  17.793  10.661
64806W        W37874  28.756  34.410  11.998
64807W        W37875  33.335  26.827  10.513
64808W        W37876  17.843  12.675   4.315
64809W        W37877   6.588   1.827  10.844
64810W        W37878  18.643  25.644  12.916
64811W        W37879  15.306  43.442  11.057
64812W        W37880  39.407  16.299   0.362
64813W        W37881  43.848  43.986   2.263
64814W        W37882  37.856  16.201  14.141
64815W        W37883  11.240  17.035   2.227
64816W        W37884  27.988  34.122  14.199
64817W        W37885   5.811  30.119  13.874
64818W        W37886  30.551  38.396  14.919
64819W        W37887  41.807  16.244   9.799
64820W        W37888  35.617  10.242  10.390
64821W        W37889  25.128  16.595  13.088
64822W        W37890  21.980  25.496  12.346
64823W        W37891  27.447  26.565  14.333
64824W        W37892  35.583  12.103   0.255
64825W        W37893   1.852  32.181  10.654
64826W        W37894  30.615  33.431  14.261
64827W        W37895  39.299  31.520  12.069
64828W        W37896  40.064   7.388   3.394
64829W        W37897  43.376   3.939   4.103
64830W        W37898  10.588  10.342  12.098
64831W        W37899  36.157  36.027   3.750
64832W        W37900  44.346  35.490   3.608
64833W        W37901   5.872   0.624  11.130
64834W        W37902  21.542  26.273  10.728
64835W        W37903  31.115  21.205   2.292
64836W        W37904  39.330  36.971   4.192
64837W        W37905   0.470   9.832  11.476
64838W        W37906   4.015  28.565   2.107
64839W        W37907   0.881  43.352   4.258
64840W        W37908   2.948  44.042  14.851
64841W        W37909  36.991  29.547  12.891
64842W        W37910  44.811   5.012  12.860
64843W        W37911  15.766  32.487   1.756
64844W        W37912  19.228   1.397   2.901
64845W        W37913  27.152  36.540   4.653
64846W        W37914  33.339  28.739  13.499
64847W        W37915  33.508  38.290  14.807
64848W        W37916  26.490  12.609   2.599
64849W        W37917  40.080  22.758   3.776
64850W        W37918  19.087  43.541  10.571
64851W        W37919  19.251  32.041   2.238
64852W        W37920  28.470  32.665  11.803
64853W        W37921  44.814   2.813  10.739
64854W        W37922   3.454  12.740   0.505
64855W        W37923  29.142   1.334   2.900
64856W        W37924   0.972  41.520   2.784
64857W        W37925  22.167  22.014   2.707
64858W        W37926  40.395   8.144  12.411
64859W        W37927   3.325  16.289  13.338
64860W        W37928  44.911  25.928  10.679
64861W        W37929  42.557  21.348   4.824
64862W        W37930   4.040  15.212  14.471
64863W        W37931  31.572   8.363   4.418
64864W        W37932   7.176  22.209   4.143
64865W        W37933   8.857   8.403  13.994
64866W        W37934  40.816  34.811   0.810
64867W        W37935   3.269  35.416  13.922
64868W        W37936   2.481  22.715   3.358
64869W        W37937  34.469  31.947  11.145
64870W        W37938  15.120  28.232  12.176
64871W        W37939   1.237  23.223   4.644
64872W        W37940  34.517  40.968  12.983
64873W        W37941  36.144   6.486  13.632
64874W        W37942   8.952  32.891  13.983
64875W        W37943   1.707  14.636  10.716
64876W        W37944   0.515  32.329   1.868
64877W        W37945  29.992  37.553  14.010
64878W        W37946   0.743  14.101  12.038
64879W        W37947  28.552  38.460   0.653
64880W        W37948   4.230  27.243  10.846
64881W        W37949  22.207  15.713   1.409
64882W        W37950  36.838   4.442   4.173
64883W        W37951  23.532  32.926  12.122
64884W        W37952  14.067  44.911  10.358
64885W        W37953  15.171  33.454  13.806
64886W        W37954  37.416   4.217   1.273
64887W        W37955  40.547   9.565   4.303
64888W        W37956  39.110  33.197   2.822
64889W        W37957   3.719  17.759   2.606
64890W        W37958  18.388  19.091   3.167
64891W        W37959  12.109  38.503  11.568
64892W        W37960  44.079  25.046   2.884
64893W        W37961  12.610  15.814   1.704
64894W        W37962   3.822  13.167  12.121
64895W        W37963   0.031   5.168  14.909
64896W        W37964   1.987  32.025  11.964
64897W        W37965   8.807  26.970   1.824
64898W        W37966  31.926  25.607   1.166
64899W        W37967  29.879   2.666   1.696
64900W        W37968  14.333   9.344  11.551
64901W        W37969  34.773  12.159  14.914
64902W        W37970   7.212  41.720   0.786
64903W        W37971  42.651   3.861   4.853
64904W        W37972  17.909  22.155   3.377
64905W        W37973  16.832   6.615   3.175
64906W        W37974  31.937  23.210   4.675
64907W        W37975  25.132  40.553   4.538
64908W        W37976  23.561  11.743  12.936
64909W        W37977  27.540  38.475   2.212
64910W        W37978  15.685  18.721   2.727
64911W        W37979  20.221  13.209   4.588
64912W        W37980  11.403  23.742  11.064
64913W        W37981  28.897  39.299   0.206
64914W        W37982  12.544  12.790   2.113
64915W        W37983  42.895  28.010  13.863
64916W        W37984  29.373  21.763  11.212
64917W        W37985  26.437  24.633  14.817
64918W        W37986   7.664  31.201  11.013
64919W        W37987  34.939   9.928   3.198
64920W        W37988  10.400  14.059   2.690
64921W        W37989  11.161   4.314  12.545
64922W        W37990  19.230  16.516   1.672
64923W        W37991  35.039   0.484  13.800
64924W        W37992   2.241  42.530  11.090
64925W        W37993  43.785   4.763   4.798
64926W        W37994  12.435  33.415  11.365
64927W        W37995  41.810  28.557   4.327
64928W        W37996  32.911   0.064  13.909
64929W        W37997   4.037  39.316  10.796
64930W        W37998   6.222  17.048  14.355
64931W        W37999  18.249  40.734   0.718
64932W        W38000  11.220  43.756  13.486
64933W        W38001  29.411  38.803  13.456
64934W        W38002   8.283  22.556  13.254
64935W        W38003  25.711  40.361   2.722
64936W        W38004  19.078   2.507  10.737
64937W        W38005  39.779   8.792   0.788
64938W        W38006  19.311  39.056   0.821
64939W        W38007  27.440  32.099  10.538
64940W        W38008   1.991   6.971   0.871
64941W        W38009   3.830  26.730   3.679
64942W        W38010  42.751  43.328  10.516
64943W        W38011  13.806   3.418   3.218
64944W        W38012  21.264  23.105  14.354
64945W        W38013   6.028  19.213  12.808
64946W        W38014  43.362  40.852  12.449
64947W        W38015  25.595  23.763   3.761
64948W        W38016   6.411  32.899  13.950
64949W        W38017   4.460  41.822  13.872
64950W        W38018   9.413   5.963  14.048
64951W        W38019  41.033  39.839  10.701
64952W        W38020  24.164  27.225   4.100
64953W        W38021  15.917  43.023  10.806
64954W        W38022  33.699  43.353  13.043
64955W        W38023  26.141  22.966  10.401
64956W        W38024  31.115  38.819   2.184
64957W        W38025   5.219  29.859  11.215
64958W        W38026  21.324  18.167  12.519
64959W        W38027  11.237  25.745  11.950
64960W        W38028  31.950  41.681   3.028
64961W        W38029  43.527   0.721   2.861
64962W        W38030  36.865   6.234   3.120
64963W        W38031  12.549  23.626   2.353
64964W        W38032   2.878  43.054   2.640
64965W        W38033  10.239   4.907  11.463
64966W        W38034  31.538  31.615  14.859
64967W        W38035   6.756  40.799   2.079
64968W        W38036   1.605  39.359   0.871
64969W        W38037  36.269  20.744   4.210
64970W        W38038  15.801  35.831   1.799
64971W        W38039   6.765  24.486   2.166
64972W        W38040   7.328  27.016  11.905
64973W        W38041  36.479  16.401   1.049
64974W        W38042   2.439  23.153  13.961
64975W        W38043  19.023   3.866   3.540
64976W        W38044  12.698   5.932  14.284
64977W        W38045  42.593  23.366  11.905
64978W        W38046   2.384  23.292   4.618
64979W        W38047  11.854  42.851   0.188
64980W        W38048  21.015  44.169   4.881
64981W        W38049   6.139  25.186   0.376
64982W        W38050   3.301  13.588  13.635
64983W        W38051   3.282  12.646  14.056
64984W        W38052  36.520  16.318   0.018
64985W        W38053   8.036  25.196  14.843
64986W        W38054  28.597   6.531   1.682
64987W        W38055  36.091   1.954  11.498
64988W        W38056  29.919   9.126  11.578
64989W        W38057  14.576  31.044  10.951
64990W        W38058  40.876  25.161  13.864
64991W        W38059  26.879  33.509   4.877
64992W        W38060  28.257  36.106  11.555
64993W        W38061  27.898  22.528  13.935
64994W        W38062   8.707   6.463   1.309
64995W        W38063   8.281  26.826  13.338
64996W        W38064  39.488   3.460   0.997
64997W        W38065  34.775  16.648  11.530
64998W        W38066  40.982  34.517  12.367
64999W        W38067   6.388   3.904   2.972
65000W        W38068  11.126   2.379   1.105
65001W        W38069   4.674  40.767   2.788
65002W        W38070   4.656  22.523  10.566
65003W        W38071  38.545  28.951   3.499
65004W        W38072  11.607  19.737   3.620
65005W        W38073  44.364  11.795  10.286
65006W        W38074  26.935  20.074  11.184
65007W        W38075  12.422   1.836  14.023
65008W        W38076   7.118  44.567   0.870
65009W        W38077  23.464  42.126  11.839
65010W        W38078   9.456  20.791   1.975
65011W        W38079  16.661  19.523   2.786
65012W        W38080  44.731  25.737   3.814
65013W        W38081   1.887  30.541  14.978
65014W        W38082   3.791  12.671   3.581
65015W        W38083  42.011  43.010  10.144
65016W        W38084  34.097  28.683   1.449
65017W        W38085  31.424  41.429  13.391
65018W        W38086  36.642  11.973   1.232
65019W        W38087  15.684  17.911  11.158
65020W        W38088   3.781  12.433   4.930
65021W        W38089  30.295   3.665  14.015
65022W        W38090  14.385   3.709   3.281
65023W        W38091  37.781  36.390   0.792
65024W        W38092  21.722   5.944  14.761
65025W        W38093  19.761  24.805  11.174
65026W        W38094  44.653  23.787   2.613
65027W        W38095  12.455  18.497   0.301
65028W        W38096   3.220  40.929   1.492
65029W        W38097  32.430  11.833  14.956
65030W        W38098  43.747  37.578  11.970
65031W        W38099  26.934  13.236  11.838
65032W        W38100  31.032  17.670  10.583
65033W        W38101  10.714  40.262  12.460
65034W        W38102   4.762   2.292  11.648
65035W        W38103  40.853   6.346   2.302
65036W        W38104  36.007  34.041   2.521
65037W        W38105  20.908   5.930   4.620
65038W        W38106   5.913  30.937   0.365
65039W        W38107  43.940  37.221  12.868
65040W        W38108  11.266  44.873  11.042
65041W        W38109  33.925  32.650   3.909
65042W        W38110   2.678   2.021  12.136
65043W        W38111  28.894  43.512  14.434
65044W        W38112  41.325  43.435   2.074
65045W        W38113  36.150  12.055   2.391
65046W        W38114   0.487  16.333  14.893
65047W        W38115  39.834  39.502   0.015
65048W        W38116  17.690  42.458  13.483
65049W        W38117  32.931  17.863  10.697
65050W        W38118  22.479  30.180  11.141
65051W        W38119  43.296  37.007  14.016
65052W        W38120  10.836  11.802   2.721
65053W        W38121  13.615  43.182  14.927
65054W        W38122   3.281  20.288   4.128
65055W        W38123  30.903   9.210  12.046
65056W        W38124  38.026   7.809   3.364
65057W        W38125  34.808   4.424  12.415
65058W        W38126   0.709   0.858  11.481
65059W        W38127  21.632   7.747   4.917
65060W        W38128   5.118  42.302  12.368
65061W        W38129  41.598   5.736  14.195
65062W        W38130  12.178   7.068   1.632
65063W        W38131  41.545  25.262   0.830
65064W        W38132   1.002  22.627  12.438
65065W        W38133   5.316  36.639   3.810
65066W        W38134   9.253  11.907   2.757
65067W        W38135  38.543  14.893  13.674
65068W        W38136  25.729  40.396  10.996
65069W        W38137  35.192  35.498  12.659
65070W        W38138  38.585  32.891   1.465
65071W        W38139  24.371  15.225  13.399
65072W        W38140   5.021   9.836   3.204
65073W        W38141   6.651  35.262  11.491
65074W        W38142  24.957  34.666   1.428
65075W        W38143  34.897  34.346  14.773
65076W        W38144  14.356  20.747   3.627
65077W        W38145  15.801  32.330   2.704
65078W        W38146  31.453  10.185   4.668
65079W        W38147  36.947  32.242   0.250
65080W        W38148  17.260  36.410  12.797
65081W        W38149  28.909  40.204  12.145
65082W        W38150  21.055  39.481   1.471
65083W        W38151   6.863  25.527  11.510
65084W        W38152  22.573  26.372  14.783
65085W        W38153  34.376  10.882   1.832
65086W        W38154  39.301  20.215  11.648
65087W        W38155   6.462  23.079   1.101
65088W        W38156  40.310  44.596  11.592
65089W        W38157  43.510  10.904   2.128
65090W        W38158  40.466  30.982  14.940
65091W        W38159  21.455  15.688  14.291
65092W        W38160  37.379  31.169   3.997
65093W        W38161  38.499  33.090   3.911
65094W        W38162  19.791  21.071   1.852
65095W        W38163  30.206   1.979  11.418
65096W        W38164   9.783  41.772   1.434
65097W        W38165   4.232   2.316   2.656
65098W        W38166  32.360  17.098  11.752
65099W        W38167  11.753  14.630  13.103
65100W        W38168  16.750   6.838  10.955
65101W        W38169  21.200   7.633   2.290
65102W        W38170   8.405  42.116  10.315
65103W        W38171  31.214  26.613  11.351
65104W        W38172  32.424  41.789  10.672
65105W        W38173  41.849   8.506  10.945
65106W        W38174  29.564  22.783  13.906
65107W        W38175   7.785  23.183   3.641
65108W        W38176  14.794  35.436  13.328
65109W        W38177  10.800   2.412   3.405
65110W        W38178  35.572  44.048   0.007
65111W        W38179  36.410   0.624  13.963
65112W        W38180  22.800   7.338  11.338
65113W        W38181  35.600  28.202   0.946
65114W        W38182  17.312  43.994  11.152
65115W        W38183  22.538  43.241  13.825
65116W        W38184  17.220  43.102   2.794
65117W        W38185  21.054  16.008  14.382
65118W        W38186   5.428  38.044  11.085
65119W        W38187  10.697  41.073  14.704
65120W        W38188  19.749   0.457  12.449
65121W        W38189   4.244  29.021  14.527
65122W        W38190  24.642   9.121   3.757
65123W        W38191   4.425  14.970   2.351
65124W        W38192  11.224  17.390  11.119
65125W        W38193  31.599  12.395   0.713
65126W        W38194  38.438  24.924  14.592
65127W        W38195  20.197  22.527  13.249
65128W        W38196   4.319  44.229  14.853
65129W        W38197  17.681  16.825   3.048
65130W        W38198  20.177  19.115  12.401
65131W        W38199  29.053  22.156   4.297
65132W        W38200  18.518  37.952   1.602
65133W        W38201  44.988  17.327   0.417
65134W        W38202  15.114   8.484   0.961
65135W        W38203  29.190  40.722   3.183
65136W        W38204  13.212  24.991  14.475
65137W        W38205   0.714   1.852   4.663
65138W        W38206  36.429  32.605   1.684
65139W        W38207  22.163  32.682   4.416
65140W        W38208  36.084  13.237   1.717
65141W        W38209   1.670  23.000  14.456
65142W        W38210   0.411   4.705   0.779
65143W        W38211   0.924  25.481  10.670
65144W        W38212  27.727  18.353  13.853
65145W        W38213  34.485  36.294   3.850
65146W        W38214  38.639   3.718   4.166
65147W        W38215  25.149  20.117   0.417
65148W        W38216  20.642  35.933   1.432
65149W        W38217  34.031  18.289  14.871
65150W        W38218  24.234  30.562   1.586
65151W        W38219  26.021   4.083  13.280
65152W        W38220  37.488   1.732   2.218
65153W        W38221  34.569  37.822   3.389
65154W        W38222  36.799   5.255   3.103
65155W        W38223  25.452  17.011  12.566
65156W        W38224  11.887  12.326  14.880
65157W        W38225  44.644  17.666   3.683
65158W        W38226  33.940  40.102  10.700
65159W        W38227  38.811  26.115  12.626
65160W        W38228   4.824  36.513  13.707
65161W        W38229  32.208  32.337  11.071
65162W        W38230  32.931   4.987   3.734
65163W        W38231  24.254  34.643  10.923
65164W        W38232   9.270   8.621  12.560
65165W        W38233  26.745   6.183   2.882
65166W        W38234  22.082   3.716  13.302
65167W        W38235  38.543  12.981  11.533
65168W        W38236  25.821  15.387  12.123
65169W        W38237  35.036  29.950   0.307
65170W        W38238  19.333   6.416  11.277
65171W        W38239  22.598  35.134   1.821
65172W        W38240   7.988  37.670  11.058
65173W        W38241  25.702  40.300   0.245
65174W        W38242   4.889  15.955  11.718
65175W        W38243  20.331  30.994   0.712
65176W        W38244  10.264  32.166   2.259
65177W        W38245   6.891  29.031  10.916
65178W        W38246  41.364  23.406  13.923
65179W        W38247  15.093  35.857   2.646
65180W        W38248  17.599  42.277   4.669
65181W        W38249  12.697  35.424  12.193
65182W        W38250  14.394  23.909  14.311
65183W        W38251  28.864  36.100   2.188
65184W        W38252  24.659  30.417  13.868
65185W        W38253  35.542  38.813  10.533
65186W        W38254  24.910  25.717  11.963
65187W        W38255  30.961   2.749   4.882
65188W        W38256   1.834  20.508   4.579
65189W        W38257  37.542  35.923   3.792
65190W        W38258  20.301  44.008   1.676
65191W        W38259  31.768  42.833   2.805
65192W        W38260  26.039  30.453  12.525
65193W        W38261  27.627   7.890  14.656
65194W        W38262  43.148  33.532  11.231
65195W        W38263  23.242  18.037  11.991
65196W        W38264  15.598   6.679   0.312
65197W        W38265   0.329  34.111   4.394
65198W        W38266  11.189   0.311   1.017
65199W        W38267  28.888  30.097  12.500
65200W        W38268  18.046  30.812   3.113
65201W        W38269  36.054  19.256  10.945
65202W        W38270  30.882   2.896  13.349
65203W        W38271  39.289  43.777   2.642
65204W        W38272  38.481   1.834  13.079
65205W        W38273  37.840  18.770  11.456
65206W        W38274  28.115  19.228   0.968
65207W        W38275  32.592  31.448   0.721
65208W        W38276  23.426  22.560  12.552
65209W        W38277  24.130  37.955  11.993
65210W        W38278   0.011  22.282   1.871
65211W        W38279   9.951   7.014  14.387
65212W        W38280  39.816  15.078   4.131
65213W        W38281   3.333  22.658  13.613
65214W        W38282  42.515  35.853   4.323
65215W        W38283  21.830  19.175  11.467
65216W        W38284  38.409  10.884  14.409
65217W        W38285  43.517  10.586   1.683
65218W        W38286   7.768  27.908   0.248
65219W        W38287  39.341  23.632   0.781
65220W        W38288  36.341  24.195   5.053
65221W        W38289   9.785  39.127   3.188
65222W        W38290   9.299   8.718   2.244
65223W        W38291  22.149  42.307   2.243
65224W        W38292  13.704   1.402   1.931
65225W        W38293  15.289  24.468   1.992
65226W        W38294  25.471  34.994  11.510
65227W        W38295  32.708  43.700  14.322
65228W        W38296  44.410  21.081   2.236
65229W        W38297   2.182  26.896  13.340
65230W        W38298  35.466  11.258   2.915
65231W        W38299  16.645  36.549  14.995
65232W        W38300   8.158  11.710   0.040
65233W        W38301  29.312  14.451  11.050
65234W        W38302  25.713  41.435  13.085
65235W        W38303   0.007   4.406   0.822
65236W        W38304  21.930  22.241  13.720
65237W        W38305  33.904  41.123  10.667
65238W        W38306  40.030  41.237   0.163
65239W        W38307  26.877   6.141  10.982
65240W        W38308   7.634  40.773  12.478
65241W        W38309  11.319  36.058  14.525
65242W        W38310  24.515   5.768   4.428
65243W        W38311  18.213  23.658   0.285
65244W        W38312   0.846   6.595  11.171
65245W        W38313  18.010  35.954  12.956
65246W        W38314   5.185  39.277  12.486
65247W        W38315  40.362   6.223   3.820
65248W        W38316   5.787  17.174  10.604
65249W        W38317  36.613  31.800  11.559
65250W        W38318  22.707  29.123   2.710
65251W        W38319  36.108  42.284   4.660
65252W        W38320  22.385  26.043  12.916
65253W        W38321  34.044  12.412  13.797
65254W        W38322  29.011   7.324   4.127
65255W        W38323  32.647  40.096   2.431
65256W        W38324   6.959  34.099   1.329
65257W        W38325   5.292  36.575  10.710
65258W        W38326  36.370   3.847  11.482
65259W        W38327  29.379  27.681  14.864
65260W        W38328  12.679  25.461  13.003
65261W        W38329  21.149  18.528   2.123
65262W        W38330  33.508  21.546   4.558
65263W        W38331  43.024   5.423   1.427
65264W        W38332  17.012  13.662  12.133
65265W        W38333  44.453  15.146   3.702
65266W        W38334  23.639  15.268   4.533
65267W        W38335  31.201  35.138  12.949
65268W        W38336  25.975  37.852  10.176
65269W        W38337   0.515   2.409  12.889
65270W        W38338  38.578  20.714   3.364
65271W        W38339  10.439   9.701  14.343
65272W        W38340  11.121  18.064   1.335
65273W        W38341  16.835   9.106   1.361
65274W        W38342   9.883  15.176   0.900
65275W        W38343  33.501  27.619  13.416
65276W        W38344  18.109   7.946  14.403
65277W        W38345  37.993  30.352   3.359
65278W        W38346  10.104  21.116  12.621
65279W        W38347   4.920  34.909   0.819
65280W        W38348  33.667  44.582  12.531
65281W        W38349   1.497   9.810  11.353
65282W        W38350  16.630   8.607   0.348
65283W        W38351  39.796   2.224  14.867
65284W        W38352  24.067   9.303  14.050
65285W        W38353   5.367  10.350  10.333
65286W        W38354   1.340  28.154   0.819
65287W        W38355  38.578  43.409  10.340
65288W        W38356  37.861  19.740   0.515
65289W        W38357  41.335  34.050   2.741
65290W        W38358   0.762  24.097   1.873
65291W        W38359   9.277  34.108  13.599
65292W        W38360  35.623  34.133  10.493
65293W        W38361  13.640  25.192  12.481
65294W        W38362  29.622  27.691   1.169
65295W        W38363   3.160  41.544  11.064
65296W        W38364   3.800  42.771  14.252
65297W        W38365   5.930  11.156  11.170
65298W        W38366   7.421  13.274   2.213
65299W        W38367  42.054  32.343   3.235
65300W        W38368   7.342  43.603   3.706
65301W        W38369   3.840  29.210  12.422
65302W        W38370   6.915  35.411   0.984
65303W        W38371  18.739   5.568  12.078
65304W        W38372   5.666  12.554  12.967
65305W        W38373  43.157  13.355   2.055
65306W        W38374  19.333  10.115  11.103
65307W        W38375  31.205  19.144  14.009
65308W        W38376  43.186  33.933   0.785
65309W        W38377  43.989  10.575   1.928
65310W        W38378  14.833   5.026   3.789
65311W        W38379  25.237  11.668   2.911
65312W        W38380  11.981   5.722  14.332
65313W        W38381  10.076  35.846   5.087
65314W        W38382  39.830  32.343  10.580
65315W        W38383  38.913  35.382  10.693
65316W        W38384   7.627  16.839  12.879
65317W        W38385  36.834   5.180  14.849
65318W        W38386  27.084  36.072   3.550
65319W        W38387  35.597  36.053  12.028
65320W        W38388  42.912  12.722  14.743
65321W        W38389  11.304  38.173   1.402
65322W        W38390  25.889   4.620   3.338
65323W        W38391  18.059   2.504  13.576
65324W        W38392  15.871  11.383   4.097
65325W        W38393  43.209  25.746  11.142
65326W        W38394  26.044  35.853  14.882
65327W        W38395  36.004  29.167  14.096
65328W        W38396   4.802  10.083   0.339
65329W        W38397  27.754   5.357   0.832
65330W        W38398  14.807  28.621   2.454
65331W        W38399  41.888  22.775  12.051
65332W        W38400   6.939   8.279  11.599
65333W        W38401   7.800  34.978  12.176
65334W        W38402  26.562  23.986   4.275
65335W        W38403   6.464  32.269  12.058
65336W        W38404  19.702  11.265  13.040
65337W        W38405  10.283   3.388  14.314
65338W        W38406  12.656  25.959  13.136
65339W        W38407  38.528   7.775  12.386
65340W        W38408  38.825   2.217  11.106
65341W        W38409  42.417   5.489   3.791
65342W        W38410  30.911   1.782   2.842
65343W        W38411  12.005  35.629   1.778
65344W        W38412  14.752  24.994   2.869
65345W        W38413  21.606  14.359   0.950
65346W        W38414  42.867  32.390   4.995
65347W        W38415  32.982   1.015   2.084
65348W        W38416  32.217  30.486  10.486
65349W        W38417  12.229  25.096  14.041
65350W        W38418  12.255  12.346   1.302
65351W        W38419  27.716  17.590  11.854
65352W        W38420  34.004   6.920   3.818
65353W        W38421  36.433   6.477  11.177
65354W        W38422  29.019   4.881   1.526
65355W        W38423  34.078  31.073   4.930
65356W        W38424  25.052   2.416  14.436
65357W        W38425  32.445  38.606   2.387
65358W        W38426   9.764  16.415   4.201
65359W        W38427  41.924  35.386  11.901
65360W        W38428  37.300   5.304   1.150
65361W        W38429  39.000  38.823   2.055
65362W        W38430   3.188  41.774   1.917
65363W        W38431   6.135  42.548   3.978
65364W        W38432  19.557  42.981  13.502
65365W        W38433  16.056   9.380   4.450
65366W        W38434   0.773  43.938  11.654
65367W        W38435   2.874  33.491   3.130
65368W        W38436  17.214  13.314   4.684
65369W        W38437  22.343  19.660  12.180
65370W        W38438  39.475  24.100   0.561
65371W        W38439  11.783  37.126   0.433
65372W        W38440   2.976  14.035  14.391
65373W        W38441  13.456  25.181   0.444
65374W        W38442  20.966  34.867  12.315
65375W        W38443  20.614  19.635   3.776
65376W        W38444  35.581  41.983   0.345
65377W        W38445  24.112  23.570   3.303
65378W        W38446  25.953  29.620   0.050
65379W        W38447  20.097  37.491  11.269
65380W        W38448  19.293  12.199   4.636
65381W        W38449  20.125  27.080   0.916
65382W        W38450  14.953  21.919  12.079
65383W        W38451   3.674  29.664   0.600
65384W        W38452  26.493  37.651  13.027
65385W        W38453  34.991  39.939   4.901
65386W        W38454  40.564  43.296   3.504
65387W        W38455  14.742  29.170  11.046
65388W        W38456  19.169   3.263   0.899
65389W        W38457  22.601  14.358   1.915
65390W        W38458  39.618  25.101  13.400
65391W        W38459  12.941  26.317   0.846
65392W        W38460   0.789   0.266   3.186
65393W        W38461  25.761  18.099   4.244
65394W        W38462   5.655  10.952   2.874
65395W        W38463  32.050  18.999   0.081
65396W        W38464  35.045  27.192   2.168
65397W        W38465  22.943  17.189   1.244
65398W        W38466  21.636  31.340  14.304
65399W        W38467  28.752  33.254   3.365
65400W        W38468  36.513   7.515  11.995
65401W        W38469  10.074  10.257  11.958
65402W        W38470   1.264  31.485  13.555
65403W        W38471   8.832   5.675   4.497
65404W        W38472  16.231  43.714  13.091
65405W        W38473  42.236   0.912   3.433
65406W        W38474   8.351  14.140   1.721
65407W        W38475  12.810  39.832  12.986
65408W        W38476  15.190  28.963   3.075
65409W        W38477  14.486  36.627   0.171
65410W        W38478  37.652   5.258  12.497
65411W        W38479  26.617   9.888  10.962
65412W        W38480  22.476  37.915   3.767
65413W        W38481  34.945   9.841  10.584
65414W        W38482  44.732  25.263  14.116
65415W        W38483  41.142  44.920  11.904
65416W        W38484   7.452   8.432  13.611
65417W        W38485  22.746  29.182  12.436
65418W        W38486  28.470  37.403  13.876
65419W        W38487  27.520   5.231  14.055
65420W        W38488  16.116  13.379  11.167
65421W        W38489  12.376  31.944   0.907
65422W        W38490  14.268  19.861  13.941
65423W        W38491  38.835  37.331  14.126
65424W        W38492  10.227  15.335  11.635
65425W        W38493  11.182   3.337   1.427
65426W        W38494  24.088  42.087   2.185
65427W        W38495   0.539  30.416  11.987
65428W        W38496   7.508  37.280  11.032
65429W        W38497   1.703  36.454  14.785
65430W        W38498  37.012   5.886   4.241
65431W        W38499  37.161  22.215   3.704
65432W        W38500  44.992  24.116  12.543
65433W        W38501  42.337  29.718  14.033
65434W        W38502   2.734   6.377   0.888
65435W        W38503  30.926  24.721  14.743
65436W        W38504  30.612  31.809  12.437
65437W        W38505  43.770  43.920   0.646
65438W        W38506  27.887  27.529  13.911
65439W        W38507  35.335  34.059   1.755
65440W        W38508  33.754  19.717  10.960
65441W        W38509  37.185  26.739  12.980
65442W        W38510  40.490  42.240   4.773
65443W        W38511   8.215  32.498   1.226
65444W        W38512  22.254   1.312   2.421
65445W        W38513  32.544  19.643  11.564
65446W        W38514  29.724  10.478  11.658
65447W        W38515   4.926  44.360  11.673
65448W        W38516   3.994  23.455  13.282
65449W        W38517   8.176  27.341  13.404
65450W        W38518  43.506  10.443   0.782
65451W        W38519   9.175  41.055   3.768
65452W        W38520  19.462  32.416   2.742
65453W        W38521  40.022  13.872  14.297
65454W        W38522  20.358   9.527   1.392
65455W        W38523  29.119  34.815  14.835
65456W        W38524  15.509  24.416  10.964
65457W        W38525  11.552  35.827   4.264
65458W        W38526  40.323   5.807   4.803
65459W        W38527  21.158  24.030   4.399
65460W        W38528  37.724   8.457   2.821
65461W        W38529  11.122  32.538  12.929
65462W        W38530  44.285  40.860   3.704
65463W        W38531   8.209   7.285   0.190
65464W        W38532   8.116  29.147  13.515
65465W        W38533  10.032  18.899   4.505
65466W        W38534   9.605  38.930  12.578
65467W        W38535  14.726   9.009   4.140
65468W        W38536   7.165  39.644  13.363
65469W        W38537  17.906   0.292  11.684
65470W        W38538  27.483  28.707  14.107
65471W        W38539  42.490   7.818   4.643
65472W        W38540  27.489  28.058   1.493
65473W        W38541  43.036  27.110  10.638
65474W        W38542  24.534  44.895   4.210
65475W        W38543  43.965   0.506  11.380
65476W        W38544  25.094  35.944   3.704
65477W        W38545   8.767  43.736   2.281
65478W        W38546  32.003  15.350   3.131
65479W        W38547  37.536  37.514   5.017
65480W        W38548  39.253  29.165  11.032
65481W        W38549  15.308  13.841   0.935
65482W        W38550   4.842  18.052  13.365
65483W        W38551  40.947  36.840  11.447
65484W        W38552  28.618  29.670  13.404
65485W        W38553  18.670  40.659   5.015
65486W        W38554  18.029  29.123  11.992
65487W        W38555  40.346  11.497   2.324
65488W        W38556  44.440  24.303   3.323
65489W        W38557  21.919  15.348   0.443
65490W        W38558  24.701  23.175  11.596
65491W        W38559  10.169  43.993   1.155
65492W        W38560  26.835  20.096   2.007
65493W        W38561   9.048   3.898   1.202
65494W        W38562  37.855  11.303   3.726
65495W        W38563   1.394  30.261   1.007
65496W        W38564  42.016  19.126  14.029
65497W        W38565  16.774  44.979   2.332
65498W        W38566  17.868   7.404  12.950
65499W        W38567  21.765  35.433  11.130
65500W        W38568  30.665  28.401   1.848
65501W        W38569  36.994   9.409  13.535
65502W        W38570  12.477   0.505   2.994
65503W        W38571  15.144  24.031   0.658
65504W        W38572  35.088   4.708   0.173
65505W        W38573  26.157  20.159  13.165
65506W        W38574  18.808   9.753   1.883
65507W        W38575  35.730  20.387  12.887
65508W        W38576  33.875   1.942   2.327
65509W        W38577  12.910  17.934   3.287
65510W        W38578  33.524  18.281  13.083
65511W        W38579   6.262  19.466   3.095
65512W        W38580   8.234   2.285   2.209
65513W        W38581   0.407  20.774  12.268
65514W        W38582  19.742  12.670  13.799
65515W        W38583  23.583  23.330  12.902
65516W        W38584  17.648  30.976   1.355
65517W        W38585  19.569  14.679   4.550
65518W        W38586   0.698  42.840   0.138
65519W        W38587  31.862  19.235   3.802
65520W        W38588  15.146  28.789   1.701
65521W        W38589  12.409  11.327  13.676
65522W        W38590  39.585   2.045   1.724
65523W        W38591  41.834  14.202   2.305
65524W        W38592   9.245  17.771   4.122
65525W        W38593  11.991  40.312  14.820
65526W        W38594  44.292  40.378   3.211
65527W        W38595  32.564   1.285  12.498
65528W        W38596  17.003  27.220  13.528
65529W        W38597   7.345  38.376   0.277
65530W        W38598  24.159   7.129   0.820
65531W        W38599  10.012  18.681   5.359
65532W        W38600  16.113  18.779   1.310
65533W        W38601  26.530  41.295   3.251
65534W        W38602   0.092  39.298  13.385
65535W        W38603  11.885   7.389  10.827
65536W        W38604  26.754   0.539  13.467
65537W        W38605  12.108  17.825   2.891
65538W        W38606  20.804  31.144  14.926
65539W        W38607   4.431  15.994  13.855
65540W        W38608  14.218   2.437   0.009
65541W        W38609  24.957  10.851  13.427
65542W        W38610   3.329  26.140  11.676
65543W        W38611  44.504   1.501   0.269
65544W        W38612  24.195  44.557  14.606
65545W        W38613  29.412   4.872  12.436
65546W        W38614  41.912  32.091  11.239
65547W        W38615   9.117  10.199  13.401
65548W        W38616  18.202  31.941  14.061
65549W        W38617  30.998  23.228  12.308
65550W        W38618  39.307  13.553   2.844
65551W        W38619  39.558  21.283   3.103
65552W        W38620  35.141  29.731  12.474
65553W        W38621  20.341  43.443  12.860
65554W        W38622  28.714   0.791   3.821
65555W        W38623  25.908  35.800  12.582
65556W        W38624  13.440   4.305  12.109
65557W        W38625  37.902   3.666  14.400
65558W        W38626   5.058  17.243   4.956
65559W        W38627   7.937  26.297   3.199
65560W        W38628   1.401   0.546   1.665
65561W        W38629  41.372  26.424   3.335
65562W        W38630  43.263  21.663  13.763
65563W        W38631   5.261  24.117  10.748
65564W        W38632  28.629  39.605  11.647
65565W        W38633  21.224  15.339  11.056
65566W        W38634  25.500  21.559   2.680
65567W        W38635  39.028  22.576  11.438
65568W        W38636  24.706  34.620  11.180
65569W        W38637  43.190  27.934   1.381
65570W        W38638  23.126  24.212   2.865
65571W        W38639   7.218  29.502   2.602
65572W        W38640   3.320  39.289   3.370
65573W        W38641  16.299  23.446   3.270
65574W        W38642  17.314  31.326  10.244
65575W        W38643  21.711  33.515  14.096
65576W        W38644  43.428   6.344   3.370
65577W        W38645  14.363  22.483   1.885
65578W        W38646   7.187   3.352   1.969
65579W        W38647   0.297  21.199   1.266
65580W        W38648  41.425  21.993   1.242
65581W        W38649  37.656  26.030   2.786
65582W        W38650   5.422  28.739  11.940
65583W        W38651  14.203  20.178   2.142
65584W        W38652   7.249  27.006   3.421
65585W        W38653  17.301  28.635  12.562
65586W        W38654  29.557   3.854  10.720
65587W        W38655  19.490  14.352   1.588
65588W        W38656   9.753  39.034   4.288
65589W        W38657   5.308  23.399   4.624
65590W        W38658   3.664  35.012  12.014
65591W        W38659  14.262  15.527  14.902
65592W        W38660   6.108  42.864  12.991
65593W        W38661   1.369  44.016  10.966
65594W        W38662  43.354  22.623   0.476
65595W        W38663  37.084  42.357  11.235
65596W        W38664  24.033  39.476  13.299
65597W        W38665  19.021  30.841   0.284
65598W        W38666   3.808   5.223   2.665
65599W        W38667   2.518  27.019  10.352
65600W        W38668   2.921  22.245  13.047
65601W        W38669   2.176   0.666  10.781
65602W        W38670  17.994  20.100  12.575
65603W        W38671  32.597   2.490   1.335
65604W        W38672  21.746  32.092  14.805
65605W        W38673  30.342  36.055  11.750
65606W        W38674  25.502  20.496  14.263
65607W        W38675  18.192  21.467   4.319
65608W        W38676  14.220  13.804  11.509
65609W        W38677   5.151  22.131   1.747
65610W        W38678  38.827  20.774  14.459
65611W        W38679  35.552   8.323   3.725
65612W        W38680   6.441   1.345   3.894
65613W        W38681  29.830   4.787  14.276
65614W        W38682  34.882  15.330   4.396
65615W        W38683  23.099  19.615  14.352
65616W        W38684   0.106   9.029  13.792
65617W        W38685  15.727   5.187  12.536
65618W        W38686   1.170   3.297  14.434
65619W        W38687  37.171   5.280   2.689
65620W        W38688   1.741  35.542  11.367
65621W        W38689  43.495  36.839  11.173
65622W        W38690   1.984  32.116   1.754
65623W        W38691  42.505  28.905   3.803
65624W        W38692  31.966   6.416   4.558
65625W        W38693  36.424  30.289   0.231
65626W        W38694  24.431  32.058  13.563
65627W        W38695  16.795   7.914   1.886
65628W        W38696  32.947  15.631  13.843
65629W        W38697  11.946   1.339  13.246
65630W        W38698  18.673  17.569  14.286
65631W        W38699  19.126  31.832   0.180
65632W        W38700  44.570  16.079  14.954
65633W        W38701  33.703  32.619  11.166
65634W        W38702  10.646  35.708   3.734
65635W        W38703   2.813  37.451  11.352
65636W        W38704  29.427  12.317   2.730
65637W        W38705  22.391  31.942   4.752
65638W        W38706  43.681  28.588  14.211
65639W        W38707   3.507  41.581   1.145
65640W        W38708  14.980  42.695   2.351
65641W        W38709  24.810  43.813  14.208
65642W        W38710  26.878  14.067  12.116
65643W        W38711  17.360  41.816   4.708
65644W        W38712  28.416  43.419  12.117
65645W        W38713  17.868  23.484  13.891
65646W        W38714  34.016  20.884  14.716
65647W        W38715  39.320  39.790  11.015
65648W        W38716   4.897  11.989  12.111
65649W        W38717  11.702   5.494   2.347
65650W        W38718   0.240  41.571  14.560
65651W        W38719  31.728   6.963  13.053
65652W        W38720  32.816  18.836   2.417
65653W        W38721  23.206  25.640   4.110
65654W        W38722  20.023  19.719   4.559
65655W        W38723  22.985  35.965  14.426
65656W        W38724  33.363  38.985   2.467
65657W        W38725  17.465  44.483  14.382
65658W        W38726  15.743  40.795   2.343
65659W        W38727  43.400  15.327  12.866
65660W        W38728  20.296  10.120  11.175
65661W        W38729  14.020  15.010  14.986
65662W        W38730  13.367   2.271  12.574
65663W        W38731  33.151  28.083  11.909
65664W        W38732  25.466  38.544   0.541
65665W        W38733  19.330   6.102  12.784
65666W        W38734  35.919   0.413   1.519
65667W        W38735  42.474  33.618  13.561
65668W        W38736  42.918  12.091  12.958
65669W        W38737  25.082  42.436   2.868
65670W        W38738  14.502  41.379  11.176
65671W        W38739  24.677  22.315  12.057
65672W        W38740  25.534  26.192   4.662
65673W        W38741   9.834  33.317   2.175
65674W        W38742  19.611   1.709   0.796
65675W        W38743  13.718  18.524   0.030
65676W        W38744  24.258  19.771  10.875
65677W        W38745   5.726  39.547  11.052
65678W        W38746  11.180  16.040  14.387
65679W        W38747  17.121  32.698   3.696
65680W        W38748  37.067  37.081   0.821
65681W        W38749  27.428  17.696   4.555
65682W        W38750  36.795  38.925   1.885
65683W        W38751  43.507  26.176  11.972
65684W        W38752  31.675  40.487   4.545
65685W        W38753  15.554  43.360  10.615
65686W        W38754   4.473  44.398   0.323
65687W        W38755  27.024  32.421  13.466
65688W        W38756  28.929   9.432  10.605
65689W        W38757  41.712  20.213   3.253
65690W        W38758   8.721  32.023  14.256
65691W        W38759   6.818  24.904   3.136
65692W        W38760  20.716  28.952  14.997
65693W        W38761   8.824   7.237  11.716
65694W        W38762  44.810  38.996  12.065
65695W        W38763  20.015  26.537  14.052
65696W        W38764   5.786  35.942  13.734
65697W        W38765  17.007  14.765  11.129
65698W        W38766   8.718  23.523   3.893
65699W        W38767  39.621  31.420  13.930
65700W        W38768   5.432  10.115  13.929
65701W        W38769  26.472  25.065  13.597
65702W        W38770  31.610  12.656  10.705
65703W        W38771  18.991  23.522   2.737
65704W        W38772  35.458   2.457   3.888
65705W        W38773  39.989   9.950  11.248
65706W        W38774  29.556  12.670   1.732
65707W        W38775  18.371  31.510   4.813
65708W        W38776  36.672  33.029  14.020
65709W        W38777  44.969  16.097   4.500
65710W        W38778  28.188  23.425  12.831
65711W        W38779   1.383  13.594   4.866
65712W        W38780   2.640   4.452  13.448
65713W        W38781  13.615  23.460  13.753
65714W        W38782  23.100  16.594  14.472
65715W        W38783  32.221  36.549   0.422
65716W        W38784  38.744  13.110   0.417
65717W        W38785  28.547  30.560   0.435
65718W        W38786  41.124  38.309  10.777
65719W        W38787  38.372  30.472  13.995
65720W        W38788  14.347  37.694   2.381
65721W        W38789  38.584  33.885   3.136
65722W        W38790   8.875  10.384   0.635
65723W        W38791  26.113  22.197  14.237
65724W        W38792   9.845   5.433   4.135
65725W        W38793  36.535  15.702   4.836
65726W        W38794  14.353  11.252   4.144
65727W        W38795  26.631  35.207   2.149
65728W        W38796  44.074  29.632  13.415
65729W        W38797  14.977  14.077   2.139
65730W        W38798   7.390  32.490   2.822
65731W        W38799   6.494   3.409   0.722
65732W        W38800  13.695  19.695   1.258
65733W        W38801  42.734  35.729  11.557
65734W        W38802  11.360  36.056  10.568
65735W        W38803   4.009  34.048  14.355
65736W        W38804  10.029  44.833  14.622
65737W        W38805  27.725  26.818  12.794
65738W        W38806  41.948  23.028  10.719
65739W        W38807  19.301  25.667   0.822
65740W        W38808  14.189  33.409   1.295
65741W        W38809  13.599  12.246   3.940
65742W        W38810  23.510  23.703   4.598
65743W        W38811  17.836  44.949   0.197
65744W        W38812   2.845  30.592   2.134
65745W        W38813  14.060   9.659   2.726
65746W        W38814  34.543   1.451  11.552
65747W        W38815  11.235  18.632   1.337
65748W        W38816  16.228   2.337  10.615
65749W        W38817  14.123   2.015  14.180
65750W        W38818  13.574  28.204   1.115
65751W        W38819  27.208   2.486  14.717
65752W        W38820   5.523   8.695   4.569
65753W        W38821  11.381  26.691   2.697
65754W        W38822  18.807   2.374   0.465
65755W        W38823  29.352  29.605  10.524
65756W        W38824  40.686  28.193  12.394
65757W        W38825   2.432  11.240  13.640
65758W        W38826  24.020  20.687   2.857
65759W        W38827  34.408   6.386   1.309
65760W        W38828  15.520  27.974   1.489
65761W        W38829  36.145  17.334   4.130
65762W        W38830  24.076  10.319  12.635
65763W        W38831  16.654  29.760  11.054
65764W        W38832  20.143  41.983   1.814
65765W        W38833  37.399  32.633  11.213
65766W        W38834  31.935  35.897  14.325
65767W        W38835  43.401  16.617   1.240
65768W        W38836  23.091  26.586   3.732
65769W        W38837  17.646  15.179   2.245
65770W        W38838  39.576  13.108   2.760
65771W        W38839  27.961   1.970   3.333
65772W        W38840  24.707   0.846   4.792
65773W        W38841  39.064  33.764   3.857
65774W        W38842   7.363  18.698   1.728
65775W        W38843  18.044   0.254   3.260
65776W        W38844  23.416  26.233  14.514
65777W        W38845  39.143   0.904  11.055
65778W        W38846   6.166   2.134  12.174
65779W        W38847  29.841   0.622  11.647
65780W        W38848  37.332  32.911  11.968
65781W        W38849  17.507   9.692  14.334
65782W        W38850  44.178   2.825  13.802
65783W        W38851  16.514  23.381  14.924
65784W        W38852  34.666   4.733   1.681
65785W        W38853  24.292   5.750   1.589
65786W        W38854   2.171  11.330  14.423
65787W        W38855  34.115  40.339   1.395
65788W        W38856   5.234  42.732  13.166
65789W        W38857  38.576  30.786   2.654
65790W        W38858  30.521  25.435   4.141
65791W        W38859  22.870   6.179   0.413
65792W        W38860   4.885  32.062  13.346
65793W        W38861   9.655   0.287  13.805
65794W        W38862  24.595  16.242  14.336
65795W        W38863  20.023   4.446   2.294
65796W        W38864   8.178  34.112   0.723
65797W        W38865  27.696  42.595   1.983
65798W        W38866  20.002  43.742   1.322
65799W        W38867  27.057  24.647   1.936
65800W        W38868  14.257  12.726  12.576
65801W        W38869   1.660  24.701  12.554
65802W        W38870   9.139  18.147  14.914
65803W        W38871   2.899   4.928  13.865
65804W        W38872   8.884   9.734  14.334
65805W        W38873   3.206   7.883   3.615
65806W        W38874   2.356   0.709  13.691
65807W        W38875  30.368  11.832  14.789
65808W        W38876  18.247  22.751   4.827
65809W        W38877  12.118  17.152  12.000
65810W        W38878   6.422  29.292  14.803
65811W        W38879  11.186  41.465   3.369
65812W        W38880   6.511   9.572   1.085
65813W        W38881   5.171  11.329  13.525
65814W        W38882   3.294  19.296   4.147
65815W        W38883  22.592   4.878  10.273
65816W        W38884  43.123   2.264   0.502
65817W        W38885  23.237  19.179   1.730
65818W        W38886   2.402  15.996  14.298
65819W        W38887  44.277  37.422   2.369
65820W        W38888  41.240  19.080  14.404
65821W        W38889  21.930  30.418   3.306
65822W        W38890   8.209  27.539  11.615
65823W        W38891  41.137   8.320  11.600
65824W        W38892   7.316  39.092  11.660
65825W        W38893  15.108  13.153   4.409
65826W        W38894  34.834  43.447  14.778
65827W        W38895  14.700  33.437  14.992
65828W        W38896  19.574  41.198  10.691
65829W        W38897  26.276   7.260   5.188
65830W        W38898   2.548  27.605   4.070
65831W        W38899  23.571  15.717   4.273
65832W        W38900  24.765   1.139   2.139
65833W        W38901   0.993  26.633  12.877
65834W        W38902  43.838  20.259  14.567
65835W        W38903  42.506  43.220   0.194
65836W        W38904   8.621  30.011  12.905
65837W        W38905  44.788  33.161   0.443
65838W        W38906  33.177   2.082  12.280
65839W        W38907  15.633  37.139  13.442
65840W        W38908  24.540  22.911  13.298
65841W        W38909  24.588   6.975   1.948
65842W        W38910  34.189  13.702   3.129
65843W        W38911  23.723  44.188  11.454
65844W        W38912  24.629  18.481  10.649
65845W        W38913   9.640  41.543  10.680
65846W        W38914   6.985  29.052   3.243
65847W        W38915  34.617  26.447   2.285
65848W        W38916  44.880   9.151   4.060
65849W        W38917  43.771  39.012   3.731
65850W        W38918  17.020  15.558  13.075
65851W        W38919  44.212  13.430   1.993
65852W        W38920  21.743  43.395   3.289
65853W        W38921  37.881  35.989  14.065
65854W        W38922  24.976  17.867   0.217
65855W        W38923   7.871  19.592  11.195
65856W        W38924  12.984  32.731   3.178
65857W        W38925   3.331  22.058  10.802
65858W        W38926  39.022  40.280  10.307
65859W        W38927  28.812  15.053  13.933
65860W        W38928  44.024  25.785   1.768
65861W        W38929  13.162  25.180   4.082
65862W        W38930  42.734  24.714  14.469
65863W        W38931  36.536  25.137   2.478
65864W        W38932  10.063  29.563   2.816
65865W        W38933  34.819  39.395  13.382
65866W        W38934  11.964  13.890   0.948
65867W        W38935  25.666  22.716   0.983
65868W        W38936   4.803  38.951  12.131
65869W        W38937  42.746  23.612   1.949
65870W        W38938  32.960  21.265   2.710
65871W        W38939  28.489  40.806  10.681
65872W        W38940  30.566  23.042   4.771
65873W        W38941  17.661  19.264  13.395
65874W        W38942  41.819  28.955   3.286
65875W        W38943  25.136  30.560   2.379
65876W        W38944  19.704  26.884   2.717
65877W        W38945  39.731   2.210   4.206
65878W        W38946  29.559  23.134   1.155
65879W        W38947  34.119  38.461   1.882
65880W        W38948  26.348  34.881   1.872
65881W        W38949  22.423  13.702   3.808
65882W        W38950  24.183  39.203   0.417
65883W        W38951  43.100  44.008  10.251
65884W        W38952  16.297  36.578  14.287
65885W        W38953   2.820  12.829   3.663
65886W        W38954  30.376  29.460  13.914
65887W        W38955  20.388  38.322  11.608
65888W        W38956  23.711  30.891   4.795
65889W        W38957  23.447   4.926  11.548
65890W        W38958   3.724  17.564  10.779
65891W        W38959  15.682  33.199  12.093
65892W        W38960  20.143  17.574   4.572
65893W        W38961  16.695   9.656  13.333
65894W        W38962  23.233  31.098   4.583
65895W        W38963   1.284   0.735   2.352
65896W        W38964  10.646   4.891   1.501
65897W        W38965  44.409   4.429   4.243
65898W        W38966  17.693  35.654  14.021
65899W        W38967   3.523   5.438   3.238
65900W        W38968  21.068  18.398  14.393
65901W        W38969   2.713  35.194   3.130
65902W        W38970  17.324  31.896   2.417
65903W        W38971  36.449  22.241   2.375
65904W        W38972   8.100  15.625   4.567
65905W        W38973  27.177  14.876   2.294
65906W        W38974  36.738  14.056  12.456
65907W        W38975  17.989  21.501  10.979
65908W        W38976   3.097  25.548  13.739
65909W        W38977  36.537  20.199   1.027
65910W        W38978  20.595  20.332   3.964
65911W        W38979   4.356  26.716   2.165
65912W        W38980  15.569  37.632  10.668
65913W        W38981  26.005  19.577   2.107
65914W        W38982   6.902  14.183   2.915
65915W        W38983  19.819   0.999  12.066
65916W        W38984  42.800  24.068  12.397
65917W        W38985  37.047   9.885  11.601
65918W        W38986  44.299  31.382  14.079
65919W        W38987  37.315  32.031   2.376
65920W        W38988  23.950   8.295  12.439
65921W        W38989  23.013  29.564   3.291
65922W        W38990  15.121  41.969   4.539
65923W        W38991  27.585  15.065   1.205
65924W        W38992  42.794  25.147  10.581
65925W        W38993  43.827  42.565  11.017
65926W        W38994  39.763  10.873  10.689
65927W        W38995  30.853  42.367  12.926
65928W        W38996   2.531   6.300   2.238
65929W        W38997  28.881  27.580   3.420
65930W        W38998  39.373   1.043  13.983
65931W        W38999  43.498  14.673   2.073
65932W        W39000  33.702  26.890  11.093
65933W        W39001  18.091  37.261  10.225
65934W        W39002  19.153  37.111  13.180
65935W        W39003  12.656  16.141   2.382
65936W        W39004   7.355   2.404   2.689
65937W        W39005  31.707  25.570   4.595
65938W        W39006   8.252  39.517   4.596
65939W        W39007   6.600   3.341  13.433
65940W        W39008  10.248  12.251  14.976
65941W        W39009  22.246  12.357   3.348
65942W        W39010  24.010  37.166   4.295
65943W        W39011  20.071  40.621  11.583
65944W        W39012  43.011  32.566   3.445
65945W        W39013  15.634  42.791   1.293
65946W        W39014  25.583  21.261  10.685
65947W        W39015  39.239  19.782   0.844
65948W        W39016  41.590  25.749  13.377
65949W        W39017   5.715  35.959   4.595
65950W        W39018  43.164  23.914   0.734
65951W        W39019  10.906  15.934   0.975
65952W        W39020  11.243   5.799  13.506
65953W        W39021   3.570  17.185  10.453
65954W        W39022  19.193  16.164  13.003
65955W        W39023   1.436  44.516  13.938
65956W        W39024  39.106  26.198   0.367
65957W        W39025   3.369  13.968   2.403
65958W        W39026  29.200  19.114   4.312
65959W        W39027  11.739  20.272   1.832
65960W        W39028  26.864  29.074   3.213
65961W        W39029  41.983  35.050  11.500
65962W        W39030  13.322   6.423  13.853
65963W        W39031  39.436   6.691   0.339
65964W        W39032  23.616  21.912   2.747
65965W        W39033  38.801  16.112  12.940
65966W        W39034  32.459  34.870   4.470
65967W        W39035  32.541  44.480  11.739
65968W        W39036  43.724   4.466   2.772
65969W        W39037  30.400  28.945  12.549
65970W        W39038  26.152   2.299   0.012
65971W        W39039   4.992  40.359   1.336
65972W        W39040  10.238  20.811   0.012
65973W        W39041   1.386  13.368  13.109
65974W        W39042  42.316  11.635   4.535
65975W        W39043  18.063  29.286  10.734
65976W        W39044  32.962  12.757  12.539
65977W        W39045  16.281  39.452   3.154
65978W        W39046   3.216  43.860   2.874
65979W        W39047  40.346  35.641   1.100
65980W        W39048  31.840  27.592   3.199
65981W        W39049  36.039  23.412   4.606
65982W        W39050  44.475  32.111   5.246
65983W        W39051  41.676  42.973  10.563
65984W        W39052   6.268  27.936   2.648
65985W        W39053  14.559  26.242   2.298
65986W        W39054   6.996  10.723   4.123
65987W        W39055  42.235  27.595   0.506
65988W        W39056  29.718   6.269  13.509
65989W        W39057  31.253  16.598  13.378
65990W        W39058  39.523   2.447  10.130
65991W        W39059  24.555  24.785   4.038
65992W        W39060  30.562  17.431   3.545
65993W        W39061  11.638  43.259  12.377
65994W        W39062  23.503  29.049  13.155
65995W        W39063   1.958   2.719  13.727
65996W        W39064  12.310  10.265   4.209
65997W        W39065  32.517  35.137   3.266
65998W        W39066  15.661  31.626   2.327
65999W        W39067   8.440  28.967   0.755
66000W        W39068  22.591  44.024  14.795
66001W        W39069  39.777  35.366   3.337
66002W        W39070  33.373   4.812  13.436
66003W        W39071  27.936  35.637   2.356
66004W        W39072   9.888  37.095  14.276
66005W        W39073  18.630  38.469   1.429
66006W        W39074  16.560  12.095   0.791
66007W        W39075  25.915  39.092  14.787
66008W        W39076   2.594  26.742  12.114
66009W        W39077   7.857  32.182   4.191
66010W        W39078  25.027  16.031   0.861
66011W        W39079   1.281  21.344   0.949
66012W        W39080  22.538  20.037  12.523
66013W        W39081   4.522  14.164  11.529
66014W        W39082  30.451  15.131   1.378
66015W        W39083   1.348  43.559   4.159
66016W        W39084  43.550  12.970   4.847
66017W        W39085   5.420   1.351  10.526
66018W        W39086   0.503  24.130  12.484
66019W        W39087  40.762   3.856   1.467
66020W        W39088  15.338  18.994   1.828
66021W        W39089   0.901  21.238  14.993
66022W        W39090  25.471  21.712   0.376
66023W        W39091  38.560   8.273   3.205
66024W        W39092  33.884  20.864  10.851
66025W        W39093   5.215  25.135   3.086
66026W        W39094  42.436  28.094   0.337
66027W        W39095   4.053  18.770   0.370
66028W        W39096   0.758  15.367   2.389
66029W        W39097  33.329   5.332  14.988
66030W        W39098   8.798  25.538  13.020
66031W        W39099  41.565  39.903   3.742
66032W        W39100   3.179  37.511  13.162
66033W        W39101  36.254  29.875  14.417
66034W        W39102  37.993   2.382  10.662
66035W        W39103   9.814  42.286   1.359
66036W        W39104  28.746  25.666   0.181
66037W        W39105  34.028  34.297  13.044
66038W        W39106  11.166  13.356   4.555
66039W        W39107  18.239  27.567  13.446
66040W        W39108  32.931  44.450  11.360
66041W        W39109  21.539   3.390   4.225
66042W        W39110  24.522  28.376  12.081
66043W        W39111  19.586   8.321  14.163
66044W        W39112  32.703  17.252   0.539
66045W        W39113  24.216  41.536  12.089
66046W        W39114   2.043  29.058   1.256
66047W        W39115  23.994   3.840  14.279
66048W        W39116  39.823  34.577  10.936
66049W        W39117  36.904  35.246  14.842
66050W        W39118  38.797   3.832   3.159
66051W        W39119   8.363  21.187   4.276
66052W        W39120   4.462  17.683  14.312
66053W        W39121   7.199  21.792  11.127
66054W        W39122   2.402  28.498   1.673
66055W        W39123  37.055  13.032   3.146
66056W        W39124  26.997  17.625   0.227
66057W        W39125  34.076  18.109   0.826
66058W        W39126  32.565   2.593  12.402
66059W        W39127   3.355   9.052  13.576
66060W        W39128  27.478  28.700   4.105
66061W        W39129  36.398  15.405   0.857
66062W        W39130  29.206  10.280  13.831
66063W        W39131  30.132   2.851  12.836
66064W        W39132  33.929  35.404  10.945
66065W        W39133  20.727   1.202  11.893
66066W        W39134  21.705  17.186  11.482
66067W        W39135   0.295   9.189   4.368
66068W        W39136  28.613  37.538   0.774
66069W        W39137  42.869  10.692   4.674
66070W        W39138   8.839   1.378   0.688
66071W        W39139  16.501  42.119   3.098
66072W        W39140  27.696  22.613   2.232
66073W        W39141   9.332  27.333  12.952
66074W        W39142  17.142  37.650   4.032
66075W        W39143  11.684  35.965   2.425
66076W        W39144  23.022  13.728  12.119
66077W        W39145  17.749  26.268  10.450
66078W        W39146  12.127  20.185  10.493
66079W        W39147  12.630  27.968  11.122
66080W        W39148  22.707  35.282  12.187
66081W        W39149  34.013  23.207   4.073
66082W        W39150  16.150  23.987  13.321
66083W        W39151  38.049  21.441  14.097
66084W        W39152  20.034  15.411   0.314
66085W        W39153  29.193  44.334  13.903
66086W        W39154   9.810  23.568  14.286
66087W        W39155  20.743   4.312  14.431
66088W        W39156  19.174  39.294  12.985
66089W        W39157  41.572   6.460  10.446
66090W        W39158  14.142  22.681   2.800
66091W        W39159  34.556  19.686  10.625
66092W        W39160  15.332  43.252   2.792
66093W        W39161  32.884  38.583  10.612
66094W        W39162  33.645  31.884   3.638
66095W        W39163  16.797   0.500   2.280
66096W        W39164  17.556  10.951   1.311
66097W        W39165  10.573  31.911  12.513
66098W        W39166  12.369  18.078   0.658
66099W        W39167  17.608  35.582  12.147
66100W        W39168   9.581  16.403   2.930
66101W        W39169  25.211  19.659  12.416
66102W        W39170  38.419  28.979   1.987
66103W        W39171  37.272  17.629   1.282
66104W        W39172  30.930  41.519  14.059
66105W        W39173  44.994  43.829  12.022
66106W        W39174  29.999  42.459  11.766
66107W        W39175   3.875  22.031   2.695
66108W        W39176   6.460  17.737   3.262
66109W        W39177   2.259  22.580   2.046
66110W        W39178  32.184  11.709   2.460
66111W        W39179  41.526  40.039   3.229
66112W        W39180  10.115  36.524  13.097
66113W        W39181  35.898   0.832   1.831
66114W        W39182  17.764  32.065  14.314
66115W        W39183  30.664  39.356   3.727
66116W        W39184   7.824  39.549   4.112
66117W        W39185  15.155  40.051  14.378
66118W        W39186  11.620  10.333  12.153
66119W        W39187  24.804   1.314  13.718
66120W        W39188  43.089  11.299   3.912
66121W        W39189  33.914  27.060   1.220
66122W        W39190  15.118  14.168   4.189
66123W        W39191  31.002  30.862  13.922
66124W        W39192  21.215  41.865  13.137
66125W        W39193  12.607   2.286  10.775
66126W        W39194  39.335  12.827   0.867
66127W        W39195  21.655  21.930   3.709
66128W        W39196  29.040  12.560  12.036
66129W        W39197  18.919  37.814  12.236
66130W        W39198   2.210   2.484   2.965
66131W        W39199  43.685  19.125   0.650
66132W        W39200  21.387  26.338  12.007
66133W        W39201   8.226  16.102   1.986
66134W        W39202  34.441  19.840   3.777
66135W        W39203  32.839  26.911  13.900
66136W        W39204  20.207  29.616  12.524
66137W        W39205  17.514   1.742   3.147
66138W        W39206  33.090  32.668   1.372
66139W        W39207  21.570  18.814   4.143
66140W        W39208  30.138  29.574  14.392
66141W        W39209  22.646  32.570   1.843
66142W        W39210  15.229   4.844   4.080
66143W        W39211   6.432  34.378   0.247
66144W        W39212  34.464  21.855   0.860
66145W        W39213  14.614   9.786  14.429
66146W        W39214  44.710  21.119  11.620
66147W        W39215  14.277   2.633   5.059
66148W        W39216   8.941   7.905  13.897
66149W        W39217  24.385  33.898   4.148
66150W        W39218  39.764  17.225  12.525
66151W        W39219  34.382  19.027   1.688
66152W        W39220   2.304  42.861   2.293
66153W        W39221  11.877   2.277   0.758
66154W        W39222  16.793  15.156  12.898
66155W        W39223  23.478  33.980   0.034
66156W        W39224  24.442  14.598  12.733
66157W        W39225  21.461  37.221  10.227
66158W        W39226  43.773  18.078  13.037
66159W        W39227  31.374  30.603  10.960
66160W        W39228  13.281  40.277  13.700
66161W        W39229  43.374  29.205  11.200
66162W        W39230   3.131  26.052   1.144
66163W        W39231   5.690  42.529  12.975
66164W        W39232  29.406  14.829   1.357
66165W        W39233  26.154  31.427   4.192
66166W        W39234  13.581  35.113   1.388
66167W        W39235  34.824  18.073  14.490
66168W        W39236  18.576   1.532  14.292
66169W        W39237   3.892   4.865  12.425
66170W        W39238   9.547  32.441   0.941
66171W        W39239  34.772  26.641  11.177
66172W        W39240  28.081   4.881  14.987
66173W        W39241  24.714  24.492   3.631
66174W        W39242   0.769  40.585  10.291
66175W        W39243   8.245  44.903  12.555
66176W        W39244  10.249  35.701   4.287
66177W        W39245  36.543   5.969   3.463
66178W        W39246  29.045  10.726   1.156
66179W        W39247  43.251   8.569   0.524
66180W        W39248   9.906  40.446  12.563
66181W        W39249  13.562  21.569   2.994
66182W        W39250   5.189  13.650   4.418
66183W        W39251  44.508  18.811   4.043
66184W        W39252   9.567  29.622   2.720
66185W        W39253  38.967  32.325  11.609
66186W        W39254   4.951  44.708   1.940
66187W        W39255  11.353  31.054   3.572
66188W        W39256  28.522  30.314   3.767
66189W        W39257  43.886  34.442   0.722
66190W        W39258  12.556  29.421   0.353
66191W        W39259  31.128  34.945   1.375
66192W        W39260  18.877   1.495   0.122
66193W        W39261   3.633  18.055  12.124
66194W        W39262   3.256  44.198  11.973
66195W        W39263  43.162  22.150   0.963
66196W        W39264   2.366  43.957  10.745
66197W        W39265  37.795  42.683   3.607
66198W        W39266  12.901   8.816  10.635
66199W        W39267  43.504  29.669   4.571
66200W        W39268  13.183   1.718  10.748
66201W        W39269  11.615  40.903  14.239
66202W        W39270  11.562  19.470   4.068
66203W        W39271  37.351  37.303  10.972
66204W        W39272  33.507   6.530   4.516
66205W        W39273  39.783  32.118   2.212
66206W        W39274  42.974  40.439   2.857
66207W        W39275   0.413   2.204   0.890
66208W        W39276  26.133  41.735  10.674
66209W        W39277  25.454   1.198  11.044
66210W        W39278   2.822  29.992   0.409
66211W        W39279  38.551  34.998   3.815
66212W        W39280  42.015  12.555   4.113
66213W        W39281  28.443  18.681   1.324
66214W        W39282  30.519   3.764  13.353
66215W        W39283  43.720   0.746   2.359
66216W        W39284   9.911   9.302   1.100
66217W        W39285  25.308  33.641  12.769
66218W        W39286  25.605  21.187   3.247
66219W        W39287  32.730  35.425   1.699
66220W        W39288  17.062  31.217   1.860
66221W        W39289  42.773  34.042   0.408
66222W        W39290  12.595  41.560  14.825
66223W        W39291  16.610  33.916   1.698
66224W        W39292  37.148  29.203   4.175
66225W        W39293   0.484  26.408   0.849
66226W        W39294   7.854  11.372  14.801
66227W        W39295  15.797  27.113  10.694
66228W        W39296  14.207   3.833  13.392
66229W        W39297  40.780  34.536   4.199
66230W        W39298  37.375  42.707   5.028
66231W        W39299  27.362  28.197   1.969
66232W        W39300  26.733  37.360  14.366
66233W        W39301  22.711   8.431   0.544
66234W        W39302  24.270  43.953   4.676
66235W        W39303  11.173  25.418   4.579
66236W        W39304  32.141  40.018  14.520
66237W        W39305  39.999  37.826  13.678
66238W        W39306  22.288  13.848  14.818
66239W        W39307  13.841  37.951  12.515
66240W        W39308  17.316  16.691  14.348
66241W        W39309   6.600  37.800   0.479
66242W        W39310  11.747  22.347   3.742
66243W        W39311   4.161  22.926  11.942
66244W        W39312  36.480  42.584  14.833
66245W        W39313  15.276  35.311  12.535
66246W        W39314   8.705   2.455  10.591
66247W        W39315  20.967  24.240   2.602
66248W        W39316   9.297  35.159  12.401
66249W        W39317  33.659  21.207   3.251
66250W        W39318  20.663  29.015  10.932
66251W        W39319  36.429  33.381   2.165
66252W        W39320  30.689  41.937   2.294
66253W        W39321   2.764  42.859  10.719
66254W        W39322  33.782  39.837   0.578
66255W        W39323  35.868  12.604  12.537
66256W        W39324  15.207  34.286  11.624
66257W        W39325  43.511   5.874   2.603
66258W        W39326  28.980  29.590  12.505
66259W        W39327  18.586  18.561   1.900
66260W        W39328  14.442   6.164  11.935
66261W        W39329  34.430  31.841   0.943
66262W        W39330   1.826  37.121  14.152
66263W        W39331  20.770  42.431   0.096
66264W        W39332  31.672   2.637   2.343
66265W        W39333  35.423  43.307  10.355
66266W        W39334   6.976  10.508  14.236
66267W        W39335   0.074  40.969  12.811
66268W        W39336  23.262  44.326   4.626
66269W        W39337  18.104  13.610   3.750
66270W        W39338  43.193  35.864   4.057
66271W        W39339   3.001  27.199  14.731
66272W        W39340   9.664   6.508   2.708
66273W        W39341  27.708  11.323   4.556
66274W        W39342  31.379  19.776   2.060
66275W        W39343  39.498  33.558  11.934
66276W        W39344   5.349  31.596   2.361
66277W        W39345   6.274   0.608  14.933
66278W        W39346  21.566   3.887  12.035
66279W        W39347  38.864  21.709  12.987
66280W        W39348   7.623  41.625   1.918
66281W        W39349  33.173  23.258   2.210
66282W        W39350  15.779  25.376  13.689
66283W        W39351  11.602  30.632   0.897
66284W        W39352  23.332  25.754   2.520
66285W        W39353  31.823  26.044   2.380
66286W        W39354  12.595  13.641  10.952
66287W        W39355   4.356   5.486  10.699
66288W        W39356  17.287  23.525   0.705
66289W        W39357  23.130   9.244  12.587
66290W        W39358   2.914  42.864  11.258
66291W        W39359   1.874   5.214  12.964
66292W        W39360  13.618  31.496  13.772
66293W        W39361   2.344  27.433   1.839
66294W        W39362  42.485  12.822  10.886
66295W        W39363   9.920  42.025  12.602
66296W        W39364  43.048  38.274  12.099
66297W        W39365  43.881  26.909  14.928
66298W        W39366  14.609  28.085   1.179
66299W        W39367  24.549  16.993   3.856
66300W        W39368  13.731  12.723  10.789
66301W        W39369   6.442  29.132   1.888
66302W        W39370   7.329   7.247  13.095
66303W        W39371  39.025  14.819  13.894
66304W        W39372  13.232  11.420  12.076
66305W        W39373   6.880  38.760  14.443
66306W        W39374  18.995  27.491  10.683
66307W        W39375   9.900   8.090  12.787
66308W        W39376  26.635  33.208  11.623
66309W        W39377  17.610  40.813  10.630
66310W        W39378  18.970  33.756  11.116
66311W        W39379   3.890  22.160  13.580
66312W        W39380  19.968  16.569  13.988
66313W        W39381  22.238  18.890   2.685
66314W        W39382   2.215   8.746   9.935
66315W        W39383  40.272  16.010   2.265
66316W        W39384  25.659   3.804   1.835
66317W        W39385   6.914  24.793  14.136
66318W        W39386  32.578  11.838  11.118
66319W        W39387  18.853  18.077  11.059
66320W        W39388  10.867  36.772   1.821
66321W        W39389   5.697  24.133   1.402
66322W        W39390  20.720  24.215  12.133
66323W        W39391  37.096  39.568  12.200
66324W        W39392  27.334  13.875   1.620
66325W        W39393  24.463  12.205   4.473
66326W        W39394   0.754  17.624  13.320
66327W        W39395  14.543  21.606   0.777
66328W        W39396  13.327   3.023   0.583
66329W        W39397   4.204  22.425   2.196
66330W        W39398  27.895   7.454  13.890
66331W        W39399  32.117  34.626   2.263
66332W        W39400  30.502  42.304   4.546
66333W        W39401   1.924   5.671  11.513
66334W        W39402   8.723   5.055  11.535
66335W        W39403   1.736  14.782   2.676
66336W        W39404  32.321   3.308  13.479
66337W        W39405  42.296  26.337   1.155
66338W        W39406  36.605  29.076  13.049
66339W        W39407  25.278   8.812  14.193
66340W        W39408  23.702  26.563   2.872
66341W        W39409   7.452  30.226   3.164
66342W        W39410  33.064  20.502   1.835
66343W        W39411  33.104  16.045  14.132
66344W        W39412  32.190  35.526   4.698
66345W        W39413   4.318  13.664   0.816
66346W        W39414  10.195  17.137   2.366
66347W        W39415  16.783  20.597   3.707
66348W        W39416  24.048  19.903   5.058
66349W        W39417  41.548   9.095   3.402
66350W        W39418   3.230  26.721  10.505
66351W        W39419   0.261   1.875   4.909
66352W        W39420   9.470   9.739  10.721
66353W        W39421  42.976  23.012  10.685
66354W        W39422  25.769  37.025   4.861
66355W        W39423   0.249  24.576  13.317
66356W        W39424  36.099  19.107   4.382
66357W        W39425  36.458  21.986   1.902
66358W        W39426   5.316  44.166  12.457
66359W        W39427   6.699  41.175   3.818
66360W        W39428  10.464  17.645   2.386
66361W        W39429  14.266   9.690   0.737
66362W        W39430   9.669  40.485   4.172
66363W        W39431   4.236  28.163  12.222
66364W        W39432  44.973   8.100   0.902
66365W        W39433   6.864  36.020   2.403
66366W        W39434  30.191  20.213  12.711
66367W        W39435  33.190  10.158  11.993
66368W        W39436   3.266   9.846  10.644
66369W        W39437   0.645  23.831  13.944
66370W        W39438  32.339  11.882   4.184
66371W        W39439  28.105  24.981  13.891
66372W        W39440  26.750  35.999   0.935
66373W        W39441   6.466  24.520   4.187
66374W        W39442  41.381  41.088   0.855
66375W        W39443  10.449  24.041   4.441
66376W        W39444  42.439  24.992  12.474
66377W        W39445  10.831   1.998   0.238
66378W        W39446  35.632  19.545   2.275
66379W        W39447  16.469  34.162  12.820
66380W        W39448  38.904  21.786   2.833
66381W        W39449  10.093  44.308   2.353
66382W        W39450  15.785   8.169  14.454
66383W        W39451   9.342  30.958  14.560
66384W        W39452  22.672  31.454   2.330
66385W        W39453  37.369  35.946  11.438
66386W        W39454  33.256  10.325  11.488
66387W        W39455  32.966  24.013   1.884
66388W        W39456  33.902  36.759   1.374
66389W        W39457  26.580  10.288   9.828
66390W        W39458  22.524   8.267  14.708
66391W        W39459  14.744   6.668   4.097
66392W        W39460  39.509  18.585   2.263
66393W        W39461  21.094  20.459  13.430
66394W        W39462  20.609  42.243  11.152
66395W        W39463  28.994   2.995   1.917
66396W        W39464  19.197  23.928  12.363
66397W        W39465   8.822   7.904  11.049
66398W        W39466   7.410   8.883   1.233
66399W        W39467  29.588   7.259   2.385
66400W        W39468  11.288  19.956  13.428
66401W        W39469  12.302  30.580  12.381
66402W        W39470  40.468  42.261  12.943
66403W        W39471  18.588  14.312   1.594
66404W        W39472  23.337  33.509   0.363
66405W        W39473  30.996  38.298  12.291
66406W        W39474  17.701   3.624   4.235
66407W        W39475  29.444  13.812  11.569
66408W        W39476   5.358  44.802   1.018
66409W        W39477  29.775  22.416   4.618
66410W        W39478  41.800  28.477   1.803
66411W        W39479  16.245  10.379  14.356
66412W        W39480  15.330  29.707  13.977
66413W        W39481  29.531  26.726  14.864
66414W        W39482  26.706  30.150  13.014
66415W        W39483  20.973   1.463  11.025
66416W        W39484   5.989  10.534   1.757
66417W        W39485   3.297  35.525   4.041
66418W        W39486  42.426  24.480   3.812
66419W        W39487  44.175   6.370   3.719
66420W        W39488  12.067   0.040   0.284
66421W        W39489   8.915  38.589  14.352
66422W        W39490  32.592  23.678   1.790
66423W        W39491   2.838  21.615  12.927
66424W        W39492  29.471   2.465   2.589
66425W        W39493  19.760  21.529   1.572
66426W        W39494   0.969  19.318   0.264
66427W        W39495   3.773   4.781  10.630
66428W        W39496   4.408  16.166   2.671
66429W        W39497  28.673   5.382  12.932
66430W        W39498  36.930   7.224  12.949
66431W        W39499  28.558  26.204  12.501
66432W        W39500  43.395  24.703   3.856
66433W        W39501   5.642  33.415   1.952
66434W        W39502  40.713  38.825  10.329
66435W        W39503  11.420  18.050  10.261
66436W        W39504  25.096  28.462  14.945
66437W        W39505  36.259  31.982   1.007
66438W        W39506   9.868  35.060   2.851
66439W        W39507  35.736  33.701   5.344
66440W        W39508  24.738   1.350  14.229
66441W        W39509  34.925  44.430  12.481
66442W        W39510  41.750  11.329   2.185
66443W        W39511   7.834  44.450   0.299
66444W        W39512  13.147   0.171  11.517
66445W        W39513  33.901  22.155   0.279
66446W        W39514  24.762  12.860  14.949
66447W        W39515  28.630  24.421  11.561
66448W        W39516   0.930  16.272  12.664
66449W        W39517   8.440   2.021  12.431
66450W        W39518  31.885  18.815   1.227
66451W        W39519   3.440   2.840   4.356
66452W        W39520  38.963  11.240   4.624
66453W        W39521   7.261   1.918   2.964
66454W        W39522  28.543   9.222   4.721
66455W        W39523  30.970  41.364   3.198
66456W        W39524   5.701   8.729  14.950
66457W        W39525   8.813  40.493   2.376
66458W        W39526  24.150  13.502  13.010
66459W        W39527  18.204  22.447  12.388
66460W        W39528  40.790  36.320  10.928
66461W        W39529  37.667   5.281   4.926
66462W        W39530   3.820  39.270  13.023
66463W        W39531  39.510   7.811  11.372
66464W        W39532   2.525  11.403  10.230
66465W        W39533  37.336  27.742  13.254
66466W        W39534  38.126  41.803   3.109
66467W        W39535  42.767   9.729   2.867
66468W        W39536  31.917  27.718  13.910
66469W        W39537  39.978   3.628   0.841
66470W        W39538   7.838   6.982   1.356
66471W        W39539  34.132  38.031   2.452
66472W        W39540  12.698  37.293  12.898
66473W        W39541   4.480  12.176   3.752
66474W        W39542  11.537  36.989  14.130
66475W        W39543  38.082  32.987   0.881
66476W        W39544  11.604  43.504  10.947
66477W        W39545  20.331  24.774   1.981
66478W        W39546  10.623  16.184   2.152
66479W        W39547  14.204  32.108   2.189
66480W        W39548   1.801   8.480  14.804
66481W        W39549  10.353  34.609   2.385
66482W        W39550  28.981  20.918   0.450
66483W        W39551   9.332  12.119  14.934
66484W        W39552  10.655  35.859   0.342
66485W        W39553  37.568  30.974  11.183
66486W        W39554  44.892  41.213  13.395
66487W        W39555  12.266  40.412  10.646
66488W        W39556  27.902  31.230   0.407
66489W        W39557   4.658  29.831   2.873
66490W        W39558  28.498  37.033  11.165
66491W        W39559  35.415  14.279   2.386
66492W        W39560  27.164  44.836   3.264
66493W        W39561  23.243   1.482   3.695
66494W        W39562  15.550   2.046   2.403
66495W        W39563  27.534  44.755   3.984
66496W        W39564   3.414  26.909  14.864
66497W        W39565   5.903   2.498   0.792
66498W        W39566   0.918   6.356   2.183
66499W        W39567   1.337  44.703   0.267
66500W        W39568   3.528  39.391  14.829
66501W        W39569  23.111  16.308   0.324
66502W        W39570  40.889  23.613  11.384
66503W        W39571  30.943  40.926   3.467
66504W        W39572  11.082  26.891   1.421
66505W        W39573  31.536  10.842  12.883
66506W        W39574  25.025  28.357  11.598
66507W        W39575   1.892  19.489  11.543
66508W        W39576   6.225  36.516  12.054
66509W        W39577  25.016  16.399  10.722
66510W        W39578  22.217  28.910  12.608
66511W        W39579  23.741  39.512  14.306
66512W        W39580  38.983  14.350   1.688
66513W        W39581  20.034  27.099  11.993
66514W        W39582  33.951  38.456   0.042
66515W        W39583  36.425  26.522  10.444
66516W        W39584  24.751  41.458   4.323
66517W        W39585  23.119   0.591   5.152
66518W        W39586  34.025  19.014   2.839
66519W        W39587  22.288  17.917   3.936
66520W        W39588  10.376  39.256  13.065
66521W        W39589  31.522   1.226  12.584
66522W        W39590   2.179   3.515   4.566
66523W        W39591   1.605   6.184   0.946
66524W        W39592  10.812   8.547   2.351
66525W        W39593  23.417  33.404  14.395
66526W        W39594  31.878  30.052  11.774
66527W        W39595  12.931  26.553   0.389
66528W        W39596  41.516  44.006   0.290
66529W        W39597  16.251  29.574  11.310
66530W        W39598  40.561  29.559   1.266
66531W        W39599  28.042  33.021  12.113
66532W        W39600  21.613  18.262  14.238
66533W        W39601  13.716  18.431   1.354
66534W        W39602   6.441  23.970   0.882
66535W        W39603   0.596  32.664  12.140
66536W        W39604  25.287  23.617   2.269
66537W        W39605  36.793  14.651   0.988
66538W        W39606  13.781  15.067  11.321
66539W        W39607  11.442  16.323   1.771
66540W        W39608  19.140  41.033  13.898
66541W        W39609  11.668  15.146  13.022
66542W        W39610  30.997  18.521  12.477
66543W        W39611  32.485  10.735  11.513
66544W        W39612   3.964  41.811   2.304
66545W        W39613  37.668  32.726   0.006
66546W        W39614  29.438  15.056  11.906
66547W        W39615  32.397   0.386   2.677
66548W        W39616  36.346  20.607   2.812
66549W        W39617   2.345  10.311  12.963
66550W        W39618   7.636  21.917   4.121
66551W        W39619  36.834  17.559  13.927
66552W        W39620  29.594  35.167  12.979
66553W        W39621  19.602  19.865  13.307
66554W        W39622   4.674  32.531   2.836
66555W        W39623  26.439  27.844  13.854
66556W        W39624  17.973   3.912  11.058
66557W        W39625  22.719  31.534  13.801
66558W        W39626  37.887  28.887  12.045
66559W        W39627   2.512   8.504   2.753
66560W        W39628  34.377  32.717   4.680
66561W        W39629  30.669  40.449   4.625
66562W        W39630  29.228  20.220   2.119
66563W        W39631  40.460   8.492   1.378
66564W        W39632  20.318   8.304  13.452
66565W        W39633  41.825  26.595  12.489
66566W        W39634   1.859   8.263   1.664
66567W        W39635  21.728  16.165   4.173
66568W        W39636  24.695  25.123   1.489
66569W        W39637  20.284  18.169  11.387
66570W        W39638  37.747  14.647  13.447
66571W        W39639  40.979  35.820  13.517
66572W        W39640  11.390  15.961   5.041
66573W        W39641   4.883  16.810  12.078
66574W        W39642  37.733  40.790  12.073
66575W        W39643  38.567   8.791   3.072
66576W        W39644   0.421  10.901  12.963
66577W        W39645  42.019  30.903  13.857
66578W        W39646  42.004  40.636   5.052
66579W        W39647  23.910  25.454   1.718
66580W        W39648  38.409  42.903   5.069
66581W        W39649   5.368  11.094   4.543
66582W        W39650  31.373  36.323   3.568
66583W        W39651  25.770  37.473   5.576
66584W        W39652  22.339  10.707  12.935
66585W        W39653  27.149  25.428   2.221
66586W        W39654  22.994  39.441   1.161
66587W        W39655   9.326  21.749   0.972
66588W        W39656  22.466  34.433  10.247
66589W        W39657  18.322   5.825  11.957
66590W        W39658   5.339  18.617   3.442
66591W        W39659  24.987   0.440  12.314
66592W        W39660  18.456  11.975  11.596
66593W        W39661  34.974  21.432  10.311
66594W        W39662  28.699  25.601   4.162
66595W        W39663   3.037  21.707   3.830
66596W        W39664  14.738  16.353   1.448
66597W        W39665  26.440  29.910   3.813
66598W        W39666  16.874  18.784   1.753
66599W        W39667  44.594  22.467  12.046
66600W        W39668   5.314   4.385   1.765
66601W        W39669  40.093   8.138   1.272
66602W        W39670  25.987  40.080  11.509
66603W        W39671  15.720  22.170  12.569
66604W        W39672  18.273   2.445  13.032
66605W        W39673  25.571  10.583   2.289
66606W        W39674  32.097  15.589   3.679
66607W        W39675   1.195  27.975  12.214
66608W        W39676  44.235  29.383  10.447
66609W        W39677  39.438  35.628  10.588
66610W        W39678  26.606   1.304  13.212
66611W        W39679  33.544  42.669  10.492
66612W        W39680   0.418  19.575  14.297
66613W        W39681   9.852  20.345  10.704
66614W        W39682  30.785  18.373  12.031
66615W        W39683  32.448  38.795  13.608
66616W        W39684  11.593  33.840  13.992
66617W        W39685   4.753  35.582   1.878
66618W        W39686   4.184  20.499  11.859
66619W        W39687  30.168   5.402   0.341
66620W        W39688   6.204   4.256  13.340
66621W        W39689  30.550  13.099  14.044
66622W        W39690  41.386   6.179   1.333
66623W        W39691   8.475  28.506   1.168
66624W        W39692  14.879  14.942  12.570
66625W        W39693  32.091   0.937   3.239
66626W        W39694   4.433  25.398   1.347
66627W        W39695  31.868   1.203  11.662
66628W        W39696  27.700  17.315  10.615
66629W        W39697  29.423  34.666   2.406
66630W        W39698  31.693  37.682   1.581
66631W        W39699  32.569  30.948  13.412
66632W        W39700   1.229  38.953  14.832
66633W        W39701  36.014  18.648   2.422
66634W        W39702  12.540  17.794   5.016
66635W        W39703   0.499  20.668  10.513
66636W        W39704  17.779  35.980   4.533
66637W        W39705   0.342  30.247  13.474
66638W        W39706  28.681   5.346   4.890
66639W        W39707  21.832   2.939  13.520
66640W        W39708  28.120  31.909   1.433
66641W        W39709  34.540  12.367  12.154
66642W        W39710   4.709  37.489  11.022
66643W        W39711  41.377  40.806  13.914
66644W        W39712  38.999  42.155   1.362
66645W        W39713  43.807  38.408  12.525
66646W        W39714   7.846  26.952  13.614
66647W        W39715  19.327  14.754  14.541
66648W        W39716  30.874  27.648   3.614
66649W        W39717  12.985  15.179  12.900
66650W        W39718  25.453  18.040  11.103
66651W        W39719  22.085  16.557   1.380
66652W        W39720  38.262   9.160   0.719
66653W        W39721  10.215  10.699   0.914
66654W        W39722  11.766  30.025   2.655
66655W        W39723  36.914  15.142  10.709
66656W        W39724  16.092  31.634  11.595
66657W        W39725  25.183  23.995  14.406
66658W        W39726  37.570   7.880   3.702
66659W        W39727  26.432  18.845  13.015
66660W        W39728   6.398  28.500  14.827
66661W        W39729  29.023   8.173   0.709
66662W        W39730  38.850  38.550  13.152
66663W        W39731  17.739  26.760   0.906
66664W        W39732  44.395  10.447   4.089
66665W        W39733  17.731  26.180  10.958
66666W        W39734  18.611  20.751  12.729
66667W        W39735  20.366  36.011  12.833
66668W        W39736  11.889   4.981   3.622
66669W        W39737  15.728  34.945   4.730
66670W        W39738   8.658  44.763  12.863
66671W        W39739   1.717  24.386  11.706
66672W        W39740   2.345  43.488  12.630
66673W        W39741   2.585  24.641  13.852
66674W        W39742  17.090  43.725   2.451
66675W        W39743  32.993  27.372   0.784
66676W        W39744  23.431   6.308  11.200
66677W        W39745  30.522  26.591   2.229
66678W        W39746  21.741  39.989  14.664
66679W        W39747  24.221  29.636  13.412
66680W        W39748   3.353  36.709   0.872
66681W        W39749   6.766  14.024  10.521
66682W        W39750  18.362  24.289  11.193
66683W        W39751   4.196  28.557  13.623
66684W        W39752  24.182  11.616  10.746
66685W        W39753   1.855  21.700  11.055
66686W        W39754   7.629  36.541   2.431
66687W        W39755   3.687  17.109   4.562
66688W        W39756  12.326   9.647   0.310
66689W        W39757  15.261  33.942   1.820
66690W        W39758   8.419  14.724   2.655
66691W        W39759   7.697  13.095   2.673
66692W        W39760  43.507  13.528   2.391
66693W        W39761  17.600   2.328  12.143
66694W        W39762  12.075  15.139  10.526
66695W        W39763  31.966  44.412   5.037
66696W        W39764  32.168  10.659   0.279
66697W        W39765  43.890  28.161  10.632
66698W        W39766  28.249  25.070  12.129
66699W        W39767   6.334  34.946  11.975
66700W        W39768  44.040  11.776   5.262
66701W        W39769  37.228  41.470  11.085
66702W        W39770  43.419   4.565   0.353
66703W        W39771   0.748  19.098  12.189
66704W        W39772   2.485  29.080   0.331
66705W        W39773  13.624   9.654  11.147
66706W        W39774   6.933  24.554   1.313
66707W        W39775  23.772  25.958  13.991
66708W        W39776  11.747  15.535  10.300
66709W        W39777  41.923   4.254   3.740
66710W        W39778  22.987   6.217   1.860
66711W        W39779  12.196   2.259   4.636
66712W        W39780  13.213   4.825   3.320
66713W        W39781  29.122  32.984   3.107
66714W        W39782  10.029  33.689   4.103
66715W        W39783  36.788  36.938  11.435
66716W        W39784  38.772  14.239   4.586
66717W        W39785  42.001  24.750   3.504
66718W        W39786  12.663   3.203   2.941
66719W        W39787  11.334   3.545   1.879
66720W        W39788  27.443  12.727  10.384
66721W        W39789   6.934  27.419   0.770
66722W        W39790  21.621   6.507  13.073
66723W        W39791  33.722  14.687  11.318
66724W        W39792  43.843  12.712  14.502
66725W        W39793  17.060  15.128  13.399
66726W        W39794  37.696  41.344  13.169
66727W        W39795  21.577  18.655   0.882
66728W        W39796  18.563  29.177  15.000
66729W        W39797   7.563  27.993   3.693
66730W        W39798   7.891  10.334   1.832
66731W        W39799  24.173  10.009  11.676
66732W        W39800  10.782  15.304  12.082
66733W        W39801  35.494  33.863  10.899
66734W        W39802  40.660  27.486   4.682
66735W        W39803   4.037  41.959   3.182
66736W        W39804  23.633   0.859   0.238
66737W        W39805  10.221  16.201   3.272
66738W        W39806  27.511  44.645  14.714
66739W        W39807  36.447  40.879   3.859
66740W        W39808  13.775   7.291   3.093
66741W        W39809  17.750   1.399   0.931
66742W        W39810  17.272  28.712   3.402
66743W        W39811  16.641  43.563   3.734
66744W        W39812  12.694  25.934   2.937
66745W        W39813  24.922   3.508   1.248
66746W        W39814  24.483  36.980   4.232
66747W        W39815  26.172   1.472  10.736
66748W        W39816   8.426  37.276  10.497
66749W        W39817  19.025  13.339   2.476
66750W        W39818  39.625  38.002  11.120
66751W        W39819  27.723  14.054   2.358
66752W        W39820   8.863  17.601  11.204
66753W        W39821  23.579   1.437   2.701
66754W        W39822  29.092  18.762   3.325
66755W        W39823  42.910  41.477  10.832
66756W        W39824  29.840  10.607  10.571
66757W        W39825  12.783   9.650   1.406
66758W        W39826  25.915  38.990   5.000
66759W        W39827  10.319  29.487  13.365
66760W        W39828   2.249  31.854   1.373
66761W        W39829  26.170  10.597  12.759
66762W        W39830  29.507   8.182  14.083
66763W        W39831  12.282   3.444  13.362
66764W        W39832  12.673  24.948  12.856
66765W        W39833   5.056  32.667   1.379
66766W        W39834  24.106   0.918  10.931
66767W        W39835   8.153  28.523   0.748
66768W        W39836   1.495   8.873   1.144
66769W        W39837   4.848  38.057  13.734
66770W        W39838  23.221  29.409  13.470
66771W        W39839  22.863  10.599  12.944
66772W        W39840  34.551  39.478   0.219
66773W        W39841  26.727   8.631   3.207
66774W        W39842  10.366   7.093  12.637
66775W        W39843  30.426  24.234  14.549
66776W        W39844  44.510  21.021  13.779
66777W        W39845  17.235  40.873  11.872
66778W        W39846  24.029  38.049   5.000
66779W        W39847  31.648  12.668   4.363
66780W        W39848   9.645  15.097   4.682
66781W        W39849   5.666   7.820   2.381
66782W        W39850  16.578  30.001  11.538
66783W        W39851   0.646   2.521   3.401
66784W        W39852  16.927  21.504   0.301
66785W        W39853   7.124  10.726  11.525
66786W        W39854  25.220  36.002   0.764
66787W        W39855  24.487   4.463   4.065
66788W        W39856  44.192  31.964   1.777
66789W        W39857   1.012  23.951  11.585
66790W        W39858  43.694  40.939  13.823
66791W        W39859  23.759  25.074   1.410
66792W        W39860  39.941  30.916   2.426
66793W        W39861  15.648  16.084  10.749
66794W        W39862   7.660  42.498   3.360
66795W        W39863   4.783  43.906   1.496
66796W        W39864  43.781  21.805  11.944
66797W        W39865  28.988   8.262  11.252
66798W        W39866  32.051   4.767  11.146
66799W        W39867  26.130  32.957   3.399
66800W        W39868  33.531  24.087   3.317
66801W        W39869  16.896  43.002  10.642
66802W        W39870  16.813  42.289   4.191
66803W        W39871   8.471  29.866   0.750
66804W        W39872  19.075  44.911   1.791
66805W        W39873  21.190   9.300  12.841
66806W        W39874  23.596  16.353   0.514
66807W        W39875   3.400  28.098   4.791
66808W        W39876  32.429  15.817   1.997
66809W        W39877  44.741  40.597   3.043
66810W        W39878  42.515  10.803  14.930
66811W        W39879   4.916   1.806   1.361
66812W        W39880   1.231  34.896  13.480
66813W        W39881  31.915  19.630  10.772
66814W        W39882  23.558  40.729  14.924
66815W        W39883  25.900  38.263  11.097
66816W        W39884  11.377  20.096   1.370
66817W        W39885   7.242  20.235  12.631
66818W        W39886  14.145  16.061   0.938
66819W        W39887  14.049  43.388   3.291
66820W        W39888  13.582  31.394   2.600
66821W        W39889  16.566  20.038  11.421
66822W        W39890   6.381   4.215  14.534
66823W        W39891   7.585  19.363   3.728
66824W        W39892   4.384  28.554   1.125
66825W        W39893   1.768  30.022  11.277
66826W        W39894  22.170  38.558   3.740
66827W        W39895  44.503   9.967   4.665
66828W        W39896   1.777  23.647   0.937
66829W        W39897  23.694  35.584   1.506
66830W        W39898   0.373   6.017  14.050
66831W        W39899  16.499  11.351  13.948
66832W        W39900  25.195   7.469  14.089
66833W        W39901   7.297  28.760   1.785
66834W        W39902  13.781   1.055   1.536
66835W        W39903  35.117  25.215  11.080
66836W        W39904  12.808  19.291   0.447
66837W        W39905  17.555   4.371   4.735
66838W        W39906  20.304  19.404  10.387
66839W        W39907   0.704  16.634  12.346
66840W        W39908  41.866  39.474   1.251
66841W        W39909  17.581  14.365   1.689
66842W        W39910  24.766  21.578  13.796
66843W        W39911  34.343  18.629   4.099
66844W        W39912  31.521  21.202   4.113
66845W        W39913   9.794  29.653  12.852
66846W        W39914  16.205  31.702   4.611
66847W        W39915  43.205  27.194   3.569
66848W        W39916  43.245  40.087  11.168
66849W        W39917  42.475   0.374  13.830
66850W        W39918  35.266  21.083  14.978
66851W        W39919  22.023  44.285   3.272
66852W        W39920  31.506  24.141   1.388
66853W        W39921  29.987  36.877   1.233
66854W        W39922  39.300  44.212  13.412
66855W        W39923  33.885  14.680  12.543
66856W        W39924  36.068  24.162  14.473
66857W        W39925  32.116  29.931  14.953
66858W        W39926  30.653  39.496  14.922
66859W        W39927  44.076   6.921   2.038
66860W        W39928  29.953   0.843  13.785
66861W        W39929  14.961  39.092  11.202
66862W        W39930  24.481   8.607  14.455
66863W        W39931  24.655  43.461   0.940
66864W        W39932   7.463   3.145  11.434
66865W        W39933  40.761   5.207   3.718
66866W        W39934   4.270  24.953  12.555
66867W        W39935  12.730  39.869   1.825
66868W        W39936  37.145  10.781   4.284
66869W        W39937  14.295   4.349   1.157
66870W        W39938  13.715  33.071   0.825
66871W        W39939  43.866  12.450  13.030
66872W        W39940   5.828  14.175  14.762
66873W        W39941   3.878  28.422   1.196
66874W        W39942  24.946  41.641  14.876
66875W        W39943  35.305  17.967  13.293
66876W        W39944  18.350  33.003   4.094
66877W        W39945  25.527  15.827   1.832
66878W        W39946  42.883   9.404  12.055
66879W        W39947   3.963  39.590  14.389
66880W        W39948  35.889  37.540  10.699
66881W        W39949  27.461  39.921  12.537
66882W        W39950  25.969  29.030  13.035
66883W        W39951  31.514  42.401   0.417
66884W        W39952  12.626  27.917   4.703
66885W        W39953  17.046  28.304   5.028
66886W        W39954  37.539  34.572   1.854
66887W        W39955  30.370  44.305  14.861
66888W        W39956  34.829  35.931   2.261
66889W        W39957  24.920  20.204  10.725
66890W        W39958  36.983  25.233   2.725
66891W        W39959  10.222  33.832  10.747
66892W        W39960   3.047   4.789   2.747
66893W        W39961  20.007  33.495   3.602
66894W        W39962  33.489  34.177  12.327
66895W        W39963   7.934  22.177   1.364
66896W        W39964  24.501  28.498   3.615
66897W        W39965  23.172   4.425   3.307
66898W        W39966   5.730  31.670  13.959
66899W        W39967   2.288  35.122  14.641
66900W        W39968  31.535   2.694  12.518
66901W        W39969   2.449  30.397   4.193
66902W        W39970  30.715  31.655   2.821
66903W        W39971  14.666   7.723  12.113
66904W        W39972  37.788  25.049  12.359
66905W        W39973  44.554  17.535  11.655
66906W        W39974  32.022  31.953   0.921
66907W        W39975  43.774  36.284  14.911
66908W        W39976  42.661  27.557  12.962
66909W        W39977   3.446  24.647   1.799
66910W        W39978  44.965   7.860   4.639
66911W        W39979  30.292  30.100   1.726
66912W        W39980   6.135   8.066   2.386
66913W        W39981  35.276  34.318   2.209
66914W        W39982  42.506  15.286  12.813
66915W        W39983  24.774   2.859   3.684
66916W        W39984  42.536  29.888  11.681
66917W        W39985  30.449  40.488  11.114
66918W        W39986  41.636  42.197  14.091
66919W        W39987  21.688  34.337  14.457
66920W        W39988  26.084  42.269   0.914
66921W        W39989   5.765  40.369  11.605
66922W        W39990  15.356  17.359   3.604
66923W        W39991  38.517   0.506  12.936
66924W        W39992  41.334  26.846   4.711
66925W        W39993  31.726   8.908  11.942
66926W        W39994  39.021  18.489  11.337
66927W        W39995  43.036  16.165   4.812
66928W        W39996  25.972   6.333  11.077
66929W        W39997  30.542   1.735  13.870
66930W        W39998  11.309   9.865  11.495
66931W        W39999  23.720  22.723  11.216
66932W        W40000  11.693   4.593   2.551
66933W        W40001  31.216  24.261  12.992
66934W        W40002  14.251   0.022   0.781
66935W        W40003   2.410  15.239   2.731
66936W        W40004   3.807  42.565   0.284
66937W        W40005  13.346  10.351  12.084
66938W        W40006  43.531  37.871   0.710
66939W        W40007  13.609  33.324  10.740
66940W        W40008   6.992  21.513   0.262
66941W        W40009  41.349  26.259   5.385
66942W        W40010  42.394   7.407   0.744
66943W        W40011  29.912  36.501  14.822
66944W        W40012  37.041  29.068  11.706
66945W        W40013  33.509  44.347   1.759
66946W        W40014  33.087  27.740   2.298
66947W        W40015  28.480  35.436   4.439
66948W        W40016  21.599  43.942  11.539
66949W        W40017  36.378  24.147  12.631
66950W        W40018  44.508  19.542   3.579
66951W        W40019  28.606  23.460   3.247
66952W        W40020  11.619  12.345   4.377
66953W        W40021  43.456   8.130   3.849
66954W        W40022  10.165  21.483   1.428
66955W        W40023  37.093  30.391  12.565
66956W        W40024  35.872  14.425  12.478
66957W        W40025  31.801   1.288  11.136
66958W        W40026  44.678  40.823  10.595
66959W        W40027  40.533   1.044   1.700
66960W        W40028  15.597  17.991   3.282
66961W        W40029  28.515  28.991  13.035
66962W        W40030  30.985   5.300  14.800
66963W        W40031  39.361  33.387   0.818
66964W        W40032  37.403   5.159  13.953
66965W        W40033  27.425  23.468   1.391
66966W        W40034   7.651   9.153  11.638
66967W        W40035  26.324   6.252  12.090
66968W        W40036  24.960  12.945   3.640
66969W        W40037  22.459  21.343   0.045
66970W        W40038  28.986  15.969   2.177
66971W        W40039  38.639  41.559  11.462
66972W        W40040  10.289  16.236   4.888
66973W        W40041  14.452  36.418  10.852
66974W        W40042  28.990  12.972   0.884
66975W        W40043  18.950  26.042  11.621
66976W        W40044   2.802  23.135  12.496
66977W        W40045  40.755   2.234  13.818
66978W        W40046  41.693  19.207  11.225
66979W        W40047  18.042  39.444  10.747
66980W        W40048   2.205  36.001   2.656
66981W        W40049   4.260   3.131   0.801
66982W        W40050  26.211  41.441  14.328
66983W        W40051  13.413  18.282   3.837
66984W        W40052  39.526   6.333   4.221
66985W        W40053  30.225  39.385  12.156
66986W        W40054   1.840  29.719   2.922
66987W        W40055  33.158   4.853  14.837
66988W        W40056   2.090  38.113   1.482
66989W        W40057   8.249   5.240   3.131
66990W        W40058  19.871  29.181  11.527
66991W        W40059  16.669  14.138  13.447
66992W        W40060  25.738  28.417  14.080
66993W        W40061  25.626  42.397  11.160
66994W        W40062  40.245  19.770   0.895
66995W        W40063   7.201   9.208  12.962
66996W        W40064  34.586  10.584  13.912
66997W        W40065  37.949  12.722   0.434
66998W        W40066  30.502  14.691   1.696
66999W        W40067   0.914  10.235   2.335
67000W        W40068  25.123  40.715  13.947
67001W        W40069   4.717  14.400  12.483
67002W        W40070  13.774  23.151  10.592
67003W        W40071  34.783  36.929  11.231
67004W        W40072  38.622  28.960  13.932
67005W        W40073   6.652  16.688  13.002
67006W        W40074   7.232  11.383   0.021
67007W        W40075  12.577  43.226  14.012
67008W        W40076  19.608  40.062   0.339
67009W        W40077  35.470  22.039   1.616
67010W        W40078  21.296  27.264  13.421
67011W        W40079  22.803  11.926   1.822
67012W        W40080   1.145  26.746  10.743
67013W        W40081  37.378  36.962  13.372
67014W        W40082  18.733  37.416   0.877
67015W        W40083  41.693  10.444  10.488
67016W        W40084  17.178  18.261   0.989
67017W        W40085  25.505  28.612  12.673
67018W        W40086  25.715   2.165  12.379
67019W        W40087  23.376  40.098  13.567
67020W        W40088  40.005  14.190   3.577
67021W        W40089  12.126   1.932  11.404
67022W        W40090   1.404  17.251  13.596
67023W        W40091  23.776  33.479   4.734
67024W        W40092  39.949   7.278  13.413
67025W        W40093  33.749   6.360   3.131
67026W        W40094  32.579  44.038   3.336
67027W        W40095  35.157  20.522  13.926
67028W        W40096  39.233  16.237  13.900
67029W        W40097  35.391   9.024   2.225
67030W        W40098  39.614  32.111  10.973
67031W        W40099   7.619  38.599  11.994
67032W        W40100  33.604   5.385   1.324
67033W        W40101  40.291  35.294  13.781
67034W        W40102  28.693  19.726   3.051
67035W        W40103   1.355   9.425  12.049
67036W        W40104  10.430  34.091  11.150
67037W        W40105   4.785  23.779   3.907
67038W        W40106  15.837   1.191  11.820
67039W        W40107  12.978  22.911  13.521
67040W        W40108   7.672  13.045   3.851
67041W        W40109   8.732   1.793   1.761
67042W        W40110  39.113  11.844   1.799
67043W        W40111  23.570   8.618   1.349
67044W        W40112  29.619   1.507   1.480
67045W        W40113  38.748   9.328  14.822
67046W        W40114  25.147  15.751   3.937
67047W        W40115  23.212   1.790   2.737
67048W        W40116  32.617  15.929  12.523
67049W        W40117  18.767  34.178  12.102
67050W        W40118   0.253  32.430  13.621
67051W        W40119  21.800   1.912  14.361
67052W        W40120  32.976  19.038  14.821
67053W        W40121  27.196  39.787  11.984
67054W        W40122  16.148  39.920  12.019
67055W        W40123  40.541   4.910  11.292
67056W        W40124  41.127  24.600   1.258
67057W        W40125  42.373  23.551   4.276
67058W        W40126  24.882  30.895  13.000
67059W        W40127   1.898   6.665   4.090
67060W        W40128  30.655  41.977  13.420
67061W        W40129  43.047   9.764   4.325
67062W        W40130   4.448  24.605  11.542
67063W        W40131  43.943   3.287  13.814
67064W        W40132  24.002  28.152   1.319
67065W        W40133  18.276   4.391   1.307
67066W        W40134   7.661  37.737   2.900
67067W        W40135  19.876   9.713   1.414
67068W        W40136  28.710  26.595   3.755
67069W        W40137  31.256  25.450   2.771
67070W        W40138  36.477  32.264  10.224
67071W        W40139   8.369  12.081  10.624
67072W        W40140  33.978   7.797  11.588
67073W        W40141   5.804  39.765   3.104
67074W        W40142   9.371   3.980   3.663
67075W        W40143  29.403  43.571  14.340
67076W        W40144  10.904  30.020  14.006
67077W        W40145  17.637   1.903  13.392
67078W        W40146  25.142  11.599   1.582
67079W        W40147   4.196  37.740   3.205
67080W        W40148   9.854   5.644   3.632
67081W        W40149  38.931  19.521  10.700
67082W        W40150  26.600  19.109   1.451
67083W        W40151  42.865  15.220   4.240
67084W        W40152  33.307  23.700  11.047
67085W        W40153  16.753   4.357   4.108
67086W        W40154  38.860  34.504   3.645
67087W        W40155  20.900  12.985  12.436
67088W        W40156  41.871  25.899   2.846
67089W        W40157  25.557  25.952   1.724
67090W        W40158  29.577   9.791   4.750
67091W        W40159   3.662  17.691  14.724
67092W        W40160  30.415  20.527  14.872
67093W        W40161  27.405  38.350  11.127
67094W        W40162  38.376  38.838  13.393
67095W        W40163  26.714  18.127  12.561
67096W        W40164  17.042  18.857   2.228
67097W        W40165   4.054  12.435  12.355
67098W        W40166   6.946  25.666   2.693
67099W        W40167   5.820  44.141  10.823
67100W        W40168  38.496  25.360  13.518
67101W        W40169  12.319   7.537  13.450
67102W        W40170  30.463   0.828  13.537
67103W        W40171  34.388   8.828   1.144
67104W        W40172  23.039  22.656   1.440
67105W        W40173  10.901   1.440   2.799
67106W        W40174  30.834   1.284  14.783
67107W        W40175  28.417   8.147  14.949
67108W        W40176  23.222  13.200   4.596
67109W        W40177   8.858  37.544  10.430
67110W        W40178  32.153  38.838  11.115
67111W        W40179  32.449  10.374  13.503
67112W        W40180  43.881  32.114  14.882
67113W        W40181  16.210   7.707   0.332
67114W        W40182  31.862  32.506   1.735
67115W        W40183  25.223  11.112   2.863
67116W        W40184  27.728  14.636  13.546
67117W        W40185  44.454  44.394   9.827
67118W        W40186  31.162  35.535   9.954
67119W        W40187  14.547  41.579   1.021
67120W        W40188  15.291  33.593   0.440
67121W        W40189  39.079  11.635  14.507
67122W        W40190   5.021  38.641   2.303
67123W        W40191   5.397   7.351  14.998
67124W        W40192  42.310  39.600   0.007
67125W        W40193   7.358   4.341  13.361
67126W        W40194  27.227  12.190  12.431
67127W        W40195  30.562  40.514   1.190
67128W        W40196   5.798  13.710   2.174
67129W        W40197  34.941   5.413   3.190
67130W        W40198  11.270  37.252   0.493
67131W        W40199  26.645  29.726   0.262
67132W        W40200  24.016  22.531  10.635
67133W        W40201  19.703  16.887   1.212
67134W        W40202  40.552  12.537  14.498
67135W        W40203  35.001  17.628  13.881
67136W        W40204   6.125  42.012  14.952
67137W        W40205  40.014  41.365  14.675
67138W        W40206  15.667  39.730  13.486
67139W        W40207  39.419  31.150   3.735
67140W        W40208  34.655  26.529  14.101
67141W        W40209  21.294  43.556  11.354
67142W        W40210  38.784  43.237  12.589
67143W        W40211  28.893  43.625  13.509
67144W        W40212  43.921  13.778  10.990
67145W        W40213  21.811  40.983   2.123
67146W        W40214  38.429   1.958  14.958
67147W        W40215  14.134  13.288   3.682
67148W        W40216  17.919   3.350  11.985
67149W        W40217  16.311   4.610  11.142
67150W        W40218   3.498  44.273  11.110
67151W        W40219  36.414  26.649   0.470
67152W        W40220  16.373  41.705   2.196
67153W        W40221  28.362  26.039   0.358
67154W        W40222  28.894  34.685   2.322
67155W        W40223  16.521  42.032  13.116
67156W        W40224  44.338  10.134   5.123
67157W        W40225  18.035  27.562  14.499
67158W        W40226  11.362  43.855   4.840
67159W        W40227  28.027  23.473   4.103
67160W        W40228   3.793  33.868   4.584
67161W        W40229  26.910  22.680  10.732
67162W        W40230  31.361  12.224   1.435
67163W        W40231   2.745  13.152   4.078
67164W        W40232  29.438   1.729   3.307
67165W        W40233  41.740  31.169  14.669
67166W        W40234   8.740  38.528  11.318
67167W        W40235   8.911  16.617  13.778
67168W        W40236  23.648  39.478  11.560
67169W        W40237  28.334   3.421   4.228
67170W        W40238  30.021  12.281  10.644
67171W        W40239  15.146  29.415   2.809
67172W        W40240  39.342  21.735   1.273
67173W        W40241   4.223  12.423  10.742
67174W        W40242  33.526  17.612  11.348
67175W        W40243  10.485  33.585  12.943
67176W        W40244  43.945  43.310  11.557
67177W        W40245   1.471  17.663   0.960
67178W        W40246  18.175  24.529  12.973
67179W        W40247  36.423  14.327  13.559
67180W        W40248  31.432  26.027   1.050
67181W        W40249  36.965  17.845   3.209
67182W        W40250   6.145  39.589   0.526
67183W        W40251  27.949  37.370   1.469
67184W        W40252   5.150  17.595  12.612
67185W        W40253  29.231  30.260   4.151
67186W        W40254  32.160   6.142   0.770
67187W        W40255  32.890   7.286  11.268
67188W        W40256  21.492  22.953  12.561
67189W        W40257  30.528  11.215   3.420
67190W        W40258  18.779  37.044   0.389
67191W        W40259  19.303  14.293   2.673
67192W        W40260   1.927  26.257  10.520
67193W        W40261   3.645  21.491  10.589
67194W        W40262  40.485  14.655  14.230
67195W        W40263  23.782  44.965  10.751
67196W        W40264  21.786  15.107  12.614
67197W        W40265  31.879  44.550   4.533
67198W        W40266  38.749   8.291  14.730
67199W        W40267   3.467  41.997   3.946
67200W        W40268  29.012  33.330  13.592
67201W        W40269   7.460   6.045   1.488
67202W        W40270  23.785   7.214  11.142
67203W        W40271  19.248  14.560  12.476
67204W        W40272  34.337  43.528  14.812
67205W        W40273  26.488   5.916   1.118
67206W        W40274  12.616  23.658  12.449
67207W        W40275   3.154  35.752  13.522
67208W        W40276  37.502  18.202  14.008
67209W        W40277   2.521   0.671  12.387
67210W        W40278  16.634  20.262   0.757
67211W        W40279  18.056  26.126  13.329
67212W        W40280  32.077   3.912   2.132
67213W        W40281  39.436  44.801   4.150
67214W        W40282  38.958  41.994  11.184
67215W        W40283  33.668  12.773   0.500
67216W        W40284  32.388  14.308   1.215
67217W        W40285  18.192  14.051   1.332
67218W        W40286  24.043  17.754   0.277
67219W        W40287  36.539  20.856   3.800
67220W        W40288  38.573  19.745   1.331
67221W        W40289  22.763  41.763   0.138
67222W        W40290  11.693  22.652  12.342
67223W        W40291  18.736  23.691  12.339
67224W        W40292   2.859  31.091   1.919
67225W        W40293  29.990  11.742   2.405
67226W        W40294  18.077  24.556  11.559
67227W        W40295  11.804  33.017  13.229
67228W        W40296   7.966  36.390  11.465
67229W        W40297  15.812  23.837  14.542
67230W        W40298  31.741  11.270   2.085
67231W        W40299  44.103   9.889   3.776
67232W        W40300  21.940  25.692   4.937
67233W        W40301  23.285  23.776  14.324
67234W        W40302  39.002  35.923   1.305
67235W        W40303   1.954  29.227   4.570
67236W        W40304   9.937  18.496   1.686
67237W        W40305  28.848  39.966  10.377
67238W        W40306  38.940  38.678  10.199
67239W        W40307  34.615  34.678  11.707
67240W        W40308  18.771  12.274   3.730
67241W        W40309   6.017  10.254  12.822
67242W        W40310  43.253  43.245  10.499
67243W        W40311  12.308  27.543   0.696
67244W        W40312  10.208  18.797  12.887
67245W        W40313  19.725  28.829   2.966
67246W        W40314  29.661  22.267   0.283
67247W        W40315  37.421  35.949   4.305
67248W        W40316  15.720  24.294   3.195
67249W        W40317  14.898  14.078  10.820
67250W        W40318  30.884   3.407   1.289
67251W        W40319  12.638  26.297  11.293
67252W        W40320  29.876  19.077   3.817
67253W        W40321   1.527  43.482   2.416
67254W        W40322  24.017  18.215   3.668
67255W        W40323  28.595  29.091   4.141
67256W        W40324  29.430  42.823   3.857
67257W        W40325  41.941  17.119   4.121
67258W        W40326  21.088   8.729   3.253
67259W        W40327  12.589  37.544   0.776
67260W        W40328  36.018  23.500  11.105
67261W        W40329  32.045  33.689   0.259
67262W        W40330  44.814  16.590   4.338
67263W        W40331  11.822  13.625  11.598
67264W        W40332  15.998  30.869  13.349
67265W        W40333  15.609   2.182  10.694
67266W        W40334  28.904  34.780  10.583
67267W        W40335   2.764   7.960   4.594
67268W        W40336  15.701   7.823   1.716
67269W        W40337  17.218  40.523  14.099
67270W        W40338  30.657  15.157   1.873
67271W        W40339  41.108   0.539  12.592
67272W        W40340  33.337   5.073  12.995
67273W        W40341  41.864   8.644   4.220
67274W        W40342  11.896  38.867   0.751
67275W        W40343  27.392  22.570  13.793
67276W        W40344  39.388  41.582   4.082
67277W        W40345  22.191  34.485  14.592
67278W        W40346   0.870   3.169   2.141
67279W        W40347  20.080  16.301  11.203
67280W        W40348  38.432  27.138  13.833
67281W        W40349  12.165  16.874   4.108
67282W        W40350  28.888   6.102   1.712
67283W        W40351  21.331  23.744   0.360
67284W        W40352  17.546   8.158   1.744
67285W        W40353  39.460  29.535  12.087
67286W        W40354  20.148  42.796   1.328
67287W        W40355  28.026  15.636  11.175
67288W        W40356  39.026  38.333  12.675
67289W        W40357  11.739  25.466   3.829
67290W        W40358  41.239  24.580   2.639
67291W        W40359  43.523  28.714  11.158
67292W        W40360  14.471  41.332   3.421
67293W        W40361  12.227  43.502  11.745
67294W        W40362   7.412  35.103  14.843
67295W        W40363  37.539   2.329   3.746
67296W        W40364  17.683  44.941   2.270
67297W        W40365  15.317  20.561  12.343
67298W        W40366  16.666  28.213   2.335
67299W        W40367   1.474  11.115  13.360
67300W        W40368   0.100   4.763  11.128
67301W        W40369  35.426  40.409   0.919
67302W        W40370  27.231  23.640   0.359
67303W        W40371   7.359  17.880   2.420
67304W        W40372  37.902  26.761  14.429
67305W        W40373  37.912  22.939   3.700
67306W        W40374  18.337   4.880   0.531
67307W        W40375  44.705  29.974   0.532
67308W        W40376  13.057  39.753   4.088
67309W        W40377   0.546  26.743   3.301
67310W        W40378  33.681  32.044  12.956
67311W        W40379  41.942  11.098   1.705
67312W        W40380  19.341  36.447   0.522
67313W        W40381  31.705  23.797  11.925
67314W        W40382  25.492  35.145  14.849
67315W        W40383  30.397  23.534  11.717
67316W        W40384  40.813  25.429  14.605
67317W        W40385  28.685  44.415   1.992
67318W        W40386  31.638   9.040   2.782
67319W        W40387  17.227  22.874  14.871
67320W        W40388   9.445   7.363  12.296
67321W        W40389   9.227   5.310   0.782
67322W        W40390  30.140  29.778  10.406
67323W        W40391   7.158  26.678   4.215
67324W        W40392  29.695  44.705   2.401
67325W        W40393   1.350  17.458   3.084
67326W        W40394  13.848  32.310   2.923
67327W        W40395   2.565   8.096  10.944
67328W        W40396   0.214   4.364   2.697
67329W        W40397  39.263  18.699  10.889
67330W        W40398   0.443  33.856   0.028
67331W        W40399  28.521   8.509  11.944
67332W        W40400  41.291  11.050   2.226
67333W        W40401  10.080   0.740   4.599
67334W        W40402  35.333  16.496   3.571
67335W        W40403  40.122  42.553   3.366
67336W        W40404  13.405   6.361  12.931
67337W        W40405  27.595  12.393  14.231
67338W        W40406  25.562   0.721  10.522
67339W        W40407  36.304  16.478  12.639
67340W        W40408  42.450  16.302   0.798
67341W        W40409  37.042  26.966   0.365
67342W        W40410  26.651   8.853  12.442
67343W        W40411  20.233  33.607  11.995
67344W        W40412  23.302  21.547  11.255
67345W        W40413  44.232  28.057   3.602
67346W        W40414   6.676  17.618  12.433
67347W        W40415  31.195  15.181   3.696
67348W        W40416   6.687  22.966   1.934
67349W        W40417  26.629  44.864   3.092
67350W        W40418   6.166   3.132  13.270
67351W        W40419  13.478   6.450  12.013
67352W        W40420  16.233  32.954  12.690
67353W        W40421  10.008  10.339   4.894
67354W        W40422   6.186  24.418   0.832
67355W        W40423  26.040  41.831   0.127
67356W        W40424   4.492  23.409  12.530
67357W        W40425  19.427   6.317   1.850
67358W        W40426  43.813  28.164   1.906
67359W        W40427  31.929  42.796  13.522
67360W        W40428   0.829  21.100   3.227
67361W        W40429  23.168   2.386   1.928
67362W        W40430  42.530   4.327   4.157
67363W        W40431  43.520  15.060  14.743
67364W        W40432  35.086   7.648  11.300
67365W        W40433   3.708  18.667   1.370
67366W        W40434  28.963  38.430   3.151
67367W        W40435  36.149  37.993  14.431
67368W        W40436  19.791  40.000   3.299
67369W        W40437  13.253   7.483   0.643
67370W        W40438  25.506  31.337  14.794
67371W        W40439  44.526  18.967   1.320
67372W        W40440   1.290  15.157   4.355
67373W        W40441  14.373  26.649   2.874
67374W        W40442  30.362  26.862  12.385
67375W        W40443  39.860  22.768  11.022
67376W        W40444  38.149  18.717  14.179
67377W        W40445   3.921  12.360   2.619
67378W        W40446  18.059  15.161   1.841
67379W        W40447  11.745  16.070  10.184
67380W        W40448   3.308   0.850   4.555
67381W        W40449  13.921  13.098   1.827
67382W        W40450  22.014  20.228  13.267
67383W        W40451   2.854  10.723  11.572
67384W        W40452   6.704  24.613  12.232
67385W        W40453  29.164   0.722  11.125
67386W        W40454  18.995  37.375  13.585
67387W        W40455   1.847  20.570   3.230
67388W        W40456  32.368  42.145   3.262
67389W        W40457   8.311  16.595   2.151
67390W        W40458  13.089  25.090   2.695
67391W        W40459  34.422   0.777   4.709
67392W        W40460  16.267   7.281  14.789
67393W        W40461  26.552  37.765   2.241
67394W        W40462  43.849   7.424   4.751
67395W        W40463  15.565  35.914  14.459
67396W        W40464  28.568  11.212  11.995
67397W        W40465  34.174  36.324   1.299
67398W        W40466  22.010  11.416  13.890
67399W        W40467  22.136   3.879   2.277
67400W        W40468  18.723   6.560   0.154
67401W        W40469  12.352   0.049   2.721
67402W        W40470  21.563  29.057   0.495
67403W        W40471  23.674  29.521   2.911
67404W        W40472  21.434  40.966   3.078
67405W        W40473  42.706  10.129   1.380
67406W        W40474  32.964  32.023   4.191
67407W        W40475  23.224   9.195  12.049
67408W        W40476  25.506  43.506   1.673
67409W        W40477  34.053  29.635   3.424
67410W        W40478  44.995  11.286  13.509
67411W        W40479  15.155  13.599   0.015
67412W        W40480   1.530  37.415   3.500
67413W        W40481  28.102  16.163   1.883
67414W        W40482  30.616  13.536   3.133
67415W        W40483  22.854   0.181   3.624
67416W        W40484  31.976  37.988   0.840
67417W        W40485  36.768  16.166   3.711
67418W        W40486  15.535  28.610  14.375
67419W        W40487  41.284  13.715   2.858
67420W        W40488  18.231  38.897   4.530
67421W        W40489  18.216  25.887  14.268
67422W        W40490  21.969  11.264   3.192
67423W        W40491  43.873  31.646  13.930
67424W        W40492  23.795   7.767   4.513
67425W        W40493  18.328   0.965  10.338
67426W        W40494  16.669  37.840   1.392
67427W        W40495   5.217  15.388  11.691
67428W        W40496  13.396  43.074   1.675
67429W        W40497  25.788  40.915  10.557
67430W        W40498   0.322  30.987  14.315
67431W        W40499  35.541  37.904   1.270
67432W        W40500  20.598  16.624  14.781
67433W        W40501   8.418   2.675  10.940
67434W        W40502   7.978   3.730  11.419
67435W        W40503   9.743  40.073  10.594
67436W        W40504  40.415  18.049   4.137
67437W        W40505  25.011  16.388  12.389
67438W        W40506  34.926  43.266  13.988
67439W        W40507  19.078  12.614  12.991
67440W        W40508  21.690   6.401  12.248
67441W        W40509  11.663   1.305   4.301
67442W        W40510  41.925  39.924  13.878
67443W        W40511  43.555  41.304  13.440
67444W        W40512  40.517   1.659  14.491
67445W        W40513  14.674  25.433   3.755
67446W        W40514  14.488  20.337  11.519
67447W        W40515  20.532  22.502  14.408
67448W        W40516  43.032  41.463   1.050
67449W        W40517  14.674  23.641   4.220
67450W        W40518   0.226   3.526   5.095
67451W        W40519  38.991  19.177  14.339
67452W        W40520  34.443   7.706  10.650
67453W        W40521  39.591  37.448   0.452
67454W        W40522  24.068  40.073   4.582
67455W        W40523   4.873  18.568  12.449
67456W        W40524  22.385  26.429  14.296
67457W        W40525  12.738  11.709  12.757
67458W        W40526  18.687  15.492   2.368
67459W        W40527  40.187  27.922  11.103
67460W        W40528  30.449  26.065  14.128
67461W        W40529   5.381  39.009   4.626
67462W        W40530  29.889  30.890   0.343
67463W        W40531  20.083   9.992   1.030
67464W        W40532  22.222  18.757   3.219
67465W        W40533   1.350  13.726   2.489
67466W        W40534  22.681   6.883  12.954
67467W        W40535   0.971  13.314   3.598
67468W        W40536  23.308  40.194  11.909
67469W        W40537  21.260  12.148  12.081
67470W        W40538  32.124   9.246  10.720
67471W        W40539  44.333  15.619  12.826
67472W        W40540  37.318  43.471   3.526
67473W        W40541  17.718  12.584  12.520
67474W        W40542  33.104  41.333   2.329
67475W        W40543  43.384   2.894  14.322
67476W        W40544  17.883  15.662   1.858
67477W        W40545  31.554   0.486  12.087
67478W        W40546  20.054  15.642  10.765
67479W        W40547   3.958   9.759  10.571
67480W        W40548  26.496  17.662   1.213
67481W        W40549   8.368  12.604  10.701
67482W        W40550   9.437  11.128   3.211
67483W        W40551  25.109  34.341  11.054
67484W        W40552  21.057  14.769  13.857
67485W        W40553  32.833  26.154   2.200
67486W        W40554  35.666   7.118  12.500
67487W        W40555  34.395  23.918   2.874
67488W        W40556  29.221   3.837  11.609
67489W        W40557   5.301  38.221  13.955
67490W        W40558  11.489  33.971  10.233
67491W        W40559  26.029  13.875   0.418
67492W        W40560   6.932   5.389  12.066
67493W        W40561   9.403  20.015  10.662
67494W        W40562  29.252  43.776  14.876
67495W        W40563  17.478  33.006  11.529
67496W        W40564  11.702  18.986   4.149
67497W        W40565  10.281  18.824   9.976
67498W        W40566  33.667  14.325   2.796
67499W        W40567  37.307  29.639   2.496
67500W        W40568  10.524  28.874  10.410
67501W        W40569  40.092  43.458  11.488
67502W        W40570  15.523   4.988  14.202
67503W        W40571  29.136  21.258  12.586
67504W        W40572  32.819   6.357   3.971
67505W        W40573  30.500  30.082   0.611
67506W        W40574  12.782  31.045   2.011
67507W        W40575  17.033  25.578  12.908
67508W        W40576  23.661  27.501   4.625
67509W        W40577   3.116   5.368  11.093
67510W        W40578   6.876  19.717  14.112
67511W        W40579  17.994   6.271   4.160
67512W        W40580  34.436   4.989  14.256
67513W        W40581   1.753   0.095  13.569
67514W        W40582  25.793   6.305   0.471
67515W        W40583   1.105  17.012  10.327
67516W        W40584  23.994  43.506   1.371
67517W        W40585  26.667   4.963  13.813
67518W        W40586   5.733   8.306   2.657
67519W        W40587  21.679  17.051   1.700
67520W        W40588   1.093  36.984   4.211
67521W        W40589  23.179  36.018  14.915
67522W        W40590  37.503  19.014   3.671
67523W        W40591  23.345  34.364   0.359
67524W        W40592   1.918  33.024   4.142
67525W        W40593   9.443  22.937   1.416
67526W        W40594   5.900   0.480   0.729
67527W        W40595   5.403   0.531  10.900
67528W        W40596  36.003   4.864  11.981
67529W        W40597  27.742  18.187   4.503
67530W        W40598  41.728   8.879   4.654
67531W        W40599  20.249  37.269   2.638
67532W        W40600  18.694  34.666   1.154
67533W        W40601   6.803  30.048   2.215
67534W        W40602  42.300  31.537  12.464
67535W        W40603  37.520  17.452  12.907
67536W        W40604  42.987  23.541   1.508
67537W        W40605   7.848  42.171  14.456
67538W        W40606  30.984  21.687   2.379
67539W        W40607   2.520  37.869  12.075
67540W        W40608   6.667  30.429   0.290
67541W        W40609  24.962  20.286  14.896
67542W        W40610  26.193   8.137   4.146
67543W        W40611  19.097  34.005  12.560
67544W        W40612  34.356   6.431  12.409
67545W        W40613   1.196   6.980   1.210
67546W        W40614   8.264  24.502  11.611
67547W        W40615  32.032  42.846   4.553
67548W        W40616  27.672  13.882   2.839
67549W        W40617  43.290   5.736  11.539
67550W        W40618  39.282  17.190   3.698
67551W        W40619   9.652  23.756  13.821
67552W        W40620  11.848  39.057   0.245
67553W        W40621   1.241   3.160   3.472
67554W        W40622   5.119  10.442  11.682
67555W        W40623  30.598  39.995   1.230
67556W        W40624  17.739   5.732  14.979
67557W        W40625  21.200  17.734   1.348
67558W        W40626  15.744  44.754  11.885
67559W        W40627  17.320  38.208  13.347
67560W        W40628  12.898  26.569   4.317
67561W        W40629  20.628  25.871  14.720
67562W        W40630   5.186  40.419   0.853
67563W        W40631  12.893   0.199  12.839
67564W        W40632  17.817  22.025   4.579
67565W        W40633   1.971  30.704  12.322
67566W        W40634  39.519  41.563  11.636
67567W        W40635  30.380  44.069   1.751
67568W        W40636  27.031  16.725   4.304
67569W        W40637  13.626  36.480   0.653
67570W        W40638  23.220  12.296   2.478
67571W        W40639  22.973  11.283  14.064
67572W        W40640   2.962   0.467   0.864
67573W        W40641  34.511  36.502   0.940
67574W        W40642  42.223  24.212  11.844
67575W        W40643  32.805   0.234  10.671
67576W        W40644  44.432   4.690  12.109
67577W        W40645   5.906  13.339  14.362
67578W        W40646   4.416  32.113   1.207
67579W        W40647  14.194   0.238   1.716
67580W        W40648  29.491   0.427  14.296
67581W        W40649  32.432  15.510  13.868
67582W        W40650  22.657  43.595  10.951
67583W        W40651  26.547   1.229   3.304
67584W        W40652  38.657  42.736  12.088
67585W        W40653   7.920  21.535   2.704
67586W        W40654  24.730  29.692  13.451
67587W        W40655  19.642  43.061   2.748
67588W        W40656  42.876  21.805  12.939
67589W        W40657  20.059  14.510  14.929
67590W        W40658  23.297   5.695   2.562
67591W        W40659   8.679  25.740   0.930
67592W        W40660  41.834  25.210   2.383
67593W        W40661  20.066   3.700   2.682
67594W        W40662  26.686  24.201  11.947
67595W        W40663  37.416  41.602   2.196
67596W        W40664  23.096   3.881   4.567
67597W        W40665  17.595   4.338   2.919
67598W        W40666  10.237  14.021  14.629
67599W        W40667  19.056   4.493  11.740
67600W        W40668  19.165   1.703   2.395
67601W        W40669  20.183  43.041  13.902
67602W        W40670  34.878   0.205   0.252
67603W        W40671  24.837  41.764  11.062
67604W        W40672  43.857  15.825   3.677
67605W        W40673  33.044  22.607  13.606
67606W        W40674   0.803  35.599   4.925
67607W        W40675  25.704   9.289   3.550
67608W        W40676  16.550   6.797  11.451
67609W        W40677  36.918   3.005   2.351
67610W        W40678  14.296   0.862  14.336
67611W        W40679  13.744  42.540   2.449
67612W        W40680  43.360  21.573   0.238
67613W        W40681   7.550  36.017   3.607
67614W        W40682  17.029  20.823   4.585
67615W        W40683  19.110  30.100   0.288
67616W        W40684   0.795  42.511   4.650
67617W        W40685   7.674  25.922   0.680
67618W        W40686  41.752  10.214  12.562
67619W        W40687   8.013  35.887  12.728
67620W        W40688  27.911  41.009   4.834
67621W        W40689  17.396   3.847   4.602
67622W        W40690   1.441  23.722   4.532
67623W        W40691   5.494  22.666  14.120
67624W        W40692  22.576  28.272   1.199
67625W        W40693   8.672  19.549  14.915
67626W        W40694  42.578  39.672   1.422
67627W        W40695  11.319  39.039   1.557
67628W        W40696  15.122   0.059  13.057
67629W        W40697   5.869  37.328   0.800
67630W        W40698  42.423  44.951  12.391
67631W        W40699   3.749  19.205   3.967
67632W        W40700  25.307   4.816  14.020
67633W        W40701  44.700  25.042   1.354
67634W        W40702  18.790   0.837   2.189
67635W        W40703  32.151  42.830  14.853
67636W        W40704  40.517  15.163   1.725
67637W        W40705   2.289  33.478   2.798
67638W        W40706  38.108  42.353  14.278
67639W        W40707   4.865  11.119  14.469
67640W        W40708  23.883  24.923  11.549
67641W        W40709  37.461  36.355   1.433
67642W        W40710  18.121  20.575  10.812
67643W        W40711   6.330  31.572   3.644
67644W        W40712  33.292  32.920   5.298
67645W        W40713   0.422  34.635  14.705
67646W        W40714  41.968  20.287  14.725
67647W        W40715  33.808  40.985  14.380
67648W        W40716  16.899   1.332   1.371
67649W        W40717  23.032  23.534   0.838
67650W        W40718  35.923  28.686   3.405
67651W        W40719   0.785   2.250  10.539
67652W        W40720  23.110  39.033  10.177
67653W        W40721  42.498  31.640  11.962
67654W        W40722  30.371  18.168  12.967
67655W        W40723  36.100  41.369  13.412
67656W        W40724   0.664  41.087  11.025
67657W        W40725  30.043  15.066  12.547
67658W        W40726  26.442   4.990   1.386
67659W        W40727  13.757  30.919  12.554
67660W        W40728  13.583   8.123   0.441
67661W        W40729  43.274  24.018  14.929
67662W        W40730  11.656  17.299  13.822
67663W        W40731  25.702   6.776   1.204
67664W        W40732  38.320  20.831   0.077
67665W        W40733   0.730   5.262   2.776
67666W        W40734  16.044  34.451  11.126
67667W        W40735   7.167  24.740   1.875
67668W        W40736  41.159  44.416  13.269
67669W        W40737  22.225  32.163  12.481
67670W        W40738   9.297   7.126   4.706
67671W        W40739  41.728  30.498  13.728
67672W        W40740  38.022  21.161  12.542
67673W        W40741  25.739  40.218  14.247
67674W        W40742  15.447   3.317  13.164
67675W        W40743   6.850  15.798  10.539
67676W        W40744  28.711  19.171   1.118
67677W        W40745  37.166  16.074   2.813
67678W        W40746  29.531  12.135   0.852
67679W        W40747  10.045   2.460  10.646
67680W        W40748  20.185   6.922  12.189
67681W        W40749  44.229  43.817   4.545
67682W        W40750   9.214  17.230   2.245
67683W        W40751  17.020   8.458   0.671
67684W        W40752  43.803   5.444  13.929
67685W        W40753  34.027   5.800  12.452
67686W        W40754  33.158   3.419  10.872
67687W        W40755  23.617   7.100   0.282
67688W        W40756  20.352  19.177   3.642
67689W        W40757  29.219  21.573  13.375
67690W        W40758  10.812  43.970   0.611
67691W        W40759  31.475   4.439   4.033
67692W        W40760  34.419  23.562  13.816
67693W        W40761   8.089  40.520   0.996
67694W        W40762  41.857  24.302   4.879
67695W        W40763  39.315  42.021  10.411
67696W        W40764  41.077  22.640  13.382
67697W        W40765  22.539  33.358  14.422
67698W        W40766   5.130  16.015  10.992
67699W        W40767   4.869  40.280  13.063
67700W        W40768  15.897  27.110   4.086
67701W        W40769  13.699   0.484  11.530
67702W        W40770  42.988  20.254  13.017
67703W        W40771   8.405  25.198  11.697
67704W        W40772  16.595  28.823  14.459
67705W        W40773   9.053  39.723  10.103
67706W        W40774  38.262   3.816  11.677
67707W        W40775  18.835  25.269  11.015
67708W        W40776   1.051  15.370   3.409
67709W        W40777  11.062   8.797  13.568
67710W        W40778  41.085  33.028  12.357
67711W        W40779  22.853  27.600   2.753
67712W        W40780  19.310  29.377  11.671
67713W        W40781  36.100   5.836   3.226
67714W        W40782  14.120  43.652   1.938
67715W        W40783   4.790  15.688   0.187
67716W        W40784   0.237   5.629   1.294
67717W        W40785   0.821  30.937  11.501
67718W        W40786  37.449  42.088   0.968
67719W        W40787  26.667  40.312   3.094
67720W        W40788  18.787   3.544  10.288
67721W        W40789  22.285  43.700  14.518
67722W        W40790  33.081  41.758  13.826
67723W        W40791  26.883  15.304   3.644
67724W        W40792  33.061   8.850   0.900
67725W        W40793  28.515  37.925  13.951
67726W        W40794  42.925  11.370   1.778
67727W        W40795  30.036  23.192  11.479
67728W        W40796  17.276  37.400   4.493
67729W        W40797   3.255  43.833  11.233
67730W        W40798  14.174  36.312   0.439
67731W        W40799  12.617  37.570  12.000
67732W        W40800   1.031  21.668  11.488
67733W        W40801  35.870  16.297  12.394
67734W        W40802  23.460  13.159   0.899
67735W        W40803  10.903   7.499   2.807
67736W        W40804  13.690  26.455   4.862
67737W        W40805   7.392  20.221   2.633
67738W        W40806  21.615  28.019   4.685
67739W        W40807   9.189  44.347  13.995
67740W        W40808  39.271  14.384   4.716
67741W        W40809  19.768  13.204  14.846
67742W        W40810  29.409  15.923   9.981
67743W        W40811   8.960  44.947  10.385
67744W        W40812  39.628  35.481  13.429
67745W        W40813  29.545  29.689  12.967
67746W        W40814  34.933  28.770  12.435
67747W        W40815  15.339  44.581   4.094
67748W        W40816  43.474  22.677   2.365
67749W        W40817   7.366   6.041  12.814
67750W        W40818  26.167  36.044   4.107
67751W        W40819   5.949  44.358  13.362
67752W        W40820  12.576  20.771  14.440
67753W        W40821   4.775  10.634  11.316
67754W        W40822  24.161  13.038  12.054
67755W        W40823  42.285   5.019   0.804
67756W        W40824  11.086   7.389  12.991
67757W        W40825  20.223  34.961  14.343
67758W        W40826  40.565  15.701  11.869
67759W        W40827   0.014  29.019  10.594
67760W        W40828  13.258  32.449  11.715
67761W        W40829  16.698  13.268   1.331
67762W        W40830  15.188  29.607   3.801
67763W        W40831   6.970  35.107  14.096
67764W        W40832  10.222  25.020   4.673
67765W        W40833  21.585   3.921  10.758
67766W        W40834  17.017  33.206   2.807
67767W        W40835  29.188  16.029  10.682
67768W        W40836  28.587  31.401   0.003
67769W        W40837   4.825  41.760  11.031
67770W        W40838  29.104  32.959   3.612
67771W        W40839  25.784  25.087  12.952
67772W        W40840  31.452   7.366  10.642
67773W        W40841  25.111  44.804   3.331
67774W        W40842  13.087  19.879   3.174
67775W        W40843  44.185  37.617  14.406
67776W        W40844  39.348   1.552   5.041
67777W        W40845   4.182  16.031   4.625
67778W        W40846  12.195   7.214  12.960
67779W        W40847  43.773  30.677   1.874
67780W        W40848  35.410  30.170  12.508
67781W        W40849  12.496   9.800  12.758
67782W        W40850  37.814   4.255   4.118
67783W        W40851  39.849   3.991  10.614
67784W        W40852  40.253  34.038   2.180
67785W        W40853  38.862  41.518   4.113
67786W        W40854  11.581  29.576   0.219
67787W        W40855  12.702  33.680  10.457
67788W        W40856  19.987  18.579   1.929
67789W        W40857  20.175  22.440  14.803
67790W        W40858   0.398  14.698  13.130
67791W        W40859  42.837   6.286  14.527
67792W        W40860  40.963  16.985  12.865
67793W        W40861  12.145   7.217   2.636
67794W        W40862  28.061  12.138   4.142
67795W        W40863  10.225  38.901  10.595
67796W        W40864  14.302  10.808   0.856
67797W        W40865  19.407  12.587  13.406
67798W        W40866  41.942  27.906   0.200
67799W        W40867   1.731  10.721   1.238
67800W        W40868   2.288   1.665   4.712
67801W        W40869   1.889  15.762  11.559
67802W        W40870  40.328   4.802  12.486
67803W        W40871  29.132  29.767   4.215
67804W        W40872  43.368  36.550  14.708
67805W        W40873  12.574  29.999   3.710
67806W        W40874   9.409   5.359  13.433
67807W        W40875  26.482   1.553   0.388
67808W        W40876  16.069  21.222  12.083
67809W        W40877  31.197  41.550   1.875
67810W        W40878   7.459  26.615  14.375
67811W        W40879  24.563  32.084  12.095
67812W        W40880  14.720   9.098  14.257
67813W        W40881  39.126  32.506   2.324
67814W        W40882  16.918  30.501  12.475
67815W        W40883  35.892  17.675  14.072
67816W        W40884  29.239  12.758   4.210
67817W        W40885  15.735  43.310   1.250
67818W        W40886  28.888  24.797  13.705
67819W        W40887  17.090   0.917   4.542
67820W        W40888  36.928  18.729   0.366
67821W        W40889  11.870  39.388  14.425
67822W        W40890  37.461  24.021   4.569
67823W        W40891   1.426   4.853  12.487
67824W        W40892  44.557   9.335   3.300
67825W        W40893  34.851  15.623   1.655
67826W        W40894   8.275  33.680   1.020
67827W        W40895  32.572  12.289   0.840
67828W        W40896  21.689  41.304  13.035
67829W        W40897  27.755   6.726  12.194
67830W        W40898  29.479  13.038  10.199
67831W        W40899  34.562   6.715   1.693
67832W        W40900  16.866  23.507  13.753
67833W        W40901  23.089  29.238  12.882
67834W        W40902  44.832  28.062  12.634
67835W        W40903  43.413   0.299   1.127
67836W        W40904  25.510   4.022  11.027
67837W        W40905   6.617  34.380  11.949
67838W        W40906  22.505   7.177  12.516
67839W        W40907  23.361   2.291   0.517
67840W        W40908  13.094  27.530   4.110
67841W        W40909  30.670  15.216   3.640
67842W        W40910   2.739  14.671  10.673
67843W        W40911  40.795  24.809   2.485
67844W        W40912  30.877  26.537   4.493
67845W        W40913  16.129   2.363   1.301
67846W        W40914  40.996  13.546   0.156
67847W        W40915  15.323  11.346   2.434
67848W        W40916  21.698  37.781  12.027
67849W        W40917  43.114  33.674  12.863
67850W        W40918  33.749   7.221  13.406
67851W        W40919  38.411  25.673  11.213
67852W        W40920  18.085  33.328   0.467
67853W        W40921   4.355  21.838   3.599
67854W        W40922  40.892  41.520  12.881
67855W        W40923  29.442  13.796  14.508
67856W        W40924  40.999   0.867   0.352
67857W        W40925  35.483  22.227  11.029
67858W        W40926  29.726  16.875   0.462
67859W        W40927   0.762  30.395   3.672
67860W        W40928   7.438  19.312  10.994
67861W        W40929  24.717   4.241  11.421
67862W        W40930  11.872  16.360   3.294
67863W        W40931  35.111  25.649  13.848
67864W        W40932  22.037   2.112   0.335
67865W        W40933  21.132   9.844  10.108
67866W        W40934   5.333   5.149  13.589
67867W        W40935  27.151  19.489  11.635
67868W        W40936   1.519  21.232   4.328
67869W        W40937  22.538  17.800   0.634
67870W        W40938  35.505  43.264   2.713
67871W        W40939  40.399   5.856   3.445
67872W        W40940  30.986   3.747   4.090
67873W        W40941  33.515   2.426   4.666
67874W        W40942  39.028   7.165  11.940
67875W        W40943   8.196  16.740   0.408
67876W        W40944  35.135  30.598  12.501
67877W        W40945  26.959  42.000   3.664
67878W        W40946  32.291  25.043  13.936
67879W        W40947   1.726   8.148  10.662
67880W        W40948   5.954   1.189   2.408
67881W        W40949  22.643  24.473  14.237
67882W        W40950   7.279   8.962  11.959
67883W        W40951  20.117  23.541   3.295
67884W        W40952   6.353   0.422  10.457
67885W        W40953  15.525  29.403  10.185
67886W        W40954  40.773  15.078  14.355
67887W        W40955   6.594  12.918   0.592
67888W        W40956  28.000  30.671   0.417
67889W        W40957  31.766   9.772   0.234
67890W        W40958  40.347   6.313   1.300
67891W        W40959  38.992  25.744   4.559
67892W        W40960   6.105   5.133   1.224
67893W        W40961  38.274  25.180   3.275
67894W        W40962  19.742  11.332   4.607
67895W        W40963  36.830  41.260   3.727
67896W        W40964  42.781   8.354   2.853
67897W        W40965  26.721  22.679  12.111
67898W        W40966   1.626  28.025  11.882
67899W        W40967  12.601   3.729   1.326
67900W        W40968  23.663  18.362  12.537
67901W        W40969  41.959  37.677  10.709
67902W        W40970  40.423  18.201  14.877
67903W        W40971  16.698  44.233  13.814
67904W        W40972  39.941  18.893  11.135
67905W        W40973  14.267  12.346  13.332
67906W        W40974  11.901  34.584   4.413
67907W        W40975  24.326   5.452   0.289
67908W        W40976   1.673  27.669   4.507
67909W        W40977  18.978  41.617  11.398
67910W        W40978  32.421  25.496   1.131
67911W        W40979   7.889  37.979   3.310
67912W        W40980  12.111  42.783   3.832
67913W        W40981  31.438  35.428   2.246
67914W        W40982  42.444  40.787  12.463
67915W        W40983   2.650  24.125  12.854
67916W        W40984  28.231  19.693  10.959
67917W        W40985  38.113  12.319  11.079
67918W        W40986  25.933  25.184   2.773
67919W        W40987  19.572  26.521  11.540
67920W        W40988  39.951  28.492  11.631
67921W        W40989  26.052  37.592   1.419
67922W        W40990  27.104   3.350  12.953
67923W        W40991  40.933  34.906   3.872
67924W        W40992   5.026  24.191  11.204
67925W        W40993  12.427  20.591   1.776
67926W        W40994  32.674  29.139  11.603
67927W        W40995   3.791   4.307  12.410
67928W        W40996   6.204  11.364  13.471
67929W        W40997  29.962  24.837  12.457
67930W        W40998  33.614  23.406  10.728
67931W        W40999   6.900  37.061   3.175
67932W        W41000  19.899  20.105   4.946
67933W        W41001   3.826  13.917  14.929
67934W        W41002  40.914  26.645   3.211
67935W        W41003  15.532  37.836  14.407
67936W        W41004   7.961   6.793  11.027
67937W        W41005  40.157  39.821  12.843
67938W        W41006  15.152  39.009   2.174
67939W        W41007  37.534   8.749  13.179
67940W        W41008  42.994   7.345  12.208
67941W        W41009   1.955   1.081  13.505
67942W        W41010  20.011  11.624  11.421
67943W        W41011  22.040  44.657   1.512
67944W        W41012  34.460  14.309  10.785
67945W        W41013  31.926  25.263  10.724
67946W        W41014  26.473   2.107   3.302
67947W        W41015  38.018  23.056  13.540
67948W        W41016  37.437  21.573   1.216
67949W        W41017  18.091  28.078   4.281
67950W        W41018  11.470  29.094  10.742
67951W        W41019  37.180   8.997  10.185
67952W        W41020  33.951  20.660   2.672
67953W        W41021  18.656   0.651   0.263
67954W        W41022  38.047   6.538  14.133
67955W        W41023  31.785  25.130   1.312
67956W        W41024  19.257  28.084  11.227
67957W        W41025  33.891   0.994   0.770
67958W        W41026   8.150   8.070  14.708
67959W        W41027  33.355  30.505   4.627
67960W        W41028  11.052  31.680  13.951
67961W        W41029   9.811  18.873   2.064
67962W        W41030  41.594   0.315   0.024
67963W        W41031  19.763  24.976  12.038
67964W        W41032  39.940  31.807   1.355
67965W        W41033  33.989  17.006  14.148
67966W        W41034   7.455  44.382   1.240
67967W        W41035  36.070  32.570  13.576
67968W        W41036  11.794  18.336   4.795
67969W        W41037  12.716  15.753  13.930
67970W        W41038  10.616  29.475  10.592
67971W        W41039   9.203  28.571  11.602
67972W        W41040  38.379  39.804  13.576
67973W        W41041  21.699  29.293   2.237
67974W        W41042   4.387  28.608  10.566
67975W        W41043  25.522  19.638   4.146
67976W        W41044  30.143  43.766   1.421
67977W        W41045  21.616  13.150  12.905
67978W        W41046  25.416  22.219   4.792
67979W        W41047   5.029  33.322   4.170
67980W        W41048  11.093  37.078   3.894
67981W        W41049  33.098   7.403  12.644
67982W        W41050  12.383  26.078  13.813
67983W        W41051  34.072  17.743  14.865
67984W        W41052  20.064  31.755   0.319
67985W        W41053   9.836  33.080   4.651
67986W        W41054  18.494  12.207  10.684
67987W        W41055   1.414  11.911   3.956
67988W        W41056  40.708  42.025   0.104
67989W        W41057   0.286   0.390  12.631
67990W        W41058   3.535  40.053  10.556
67991W        W41059  14.661   8.633   0.724
67992W        W41060  34.387  27.968   4.261
67993W        W41061  43.012  31.144  14.829
67994W        W41062  44.362  32.891  10.724
67995W        W41063  21.565  41.468   3.661
67996W        W41064  39.136  17.043  11.081
67997W        W41065  43.051  22.127  13.793
67998W        W41066  14.972  10.715  14.754
67999W        W41067  10.089   4.024   3.290
68000W        W41068   1.063  28.659   4.050
68001W        W41069   6.067  29.921   2.789
68002W        W41070   4.412  18.225   4.124
68003W        W41071  21.696  38.487  12.817
68004W        W41072   7.272  29.521  13.416
68005W        W41073  29.694  37.070   3.631
68006W        W41074  27.152  36.789   1.116
68007W        W41075  14.241  21.818  12.969
68008W        W41076  10.877  17.523  13.026
68009W        W41077   9.216  19.085   2.875
68010W        W41078  21.050  18.569  12.678
68011W        W41079  19.640  33.893   3.566
68012W        W41080  21.722  14.781   0.329
68013W        W41081   6.140  32.998  12.469
68014W        W41082  37.245  42.476   1.798
68015W        W41083   1.106  27.975  13.506
68016W        W41084  40.286  42.176  10.792
68017W        W41085  14.083   0.849  10.596
68018W        W41086  39.852   2.421   5.092
68019W        W41087  20.773  37.048  10.788
68020W        W41088  18.479   9.532   3.282
68021W        W41089  38.108  31.361  13.409
68022W        W41090   5.193   8.244  10.936
68023W        W41091   4.194  24.318   0.433
68024W        W41092  10.723  25.539   2.409
68025W        W41093  28.976  17.300   2.980
68026W        W41094   4.656  39.970  12.066
68027W        W41095   0.690  27.438  11.145
68028W        W41096  12.785  24.897  14.898
68029W        W41097  31.441  33.150   4.578
68030W        W41098  19.211   1.368   3.480
68031W        W41099  41.553  26.163   0.719
68032W        W41100  40.356   1.363  14.885
68033W        W41101  21.052  41.988   3.339
68034W        W41102  43.885  12.872   1.282
68035W        W41103  36.831  21.910  10.632
68036W        W41104  44.014  44.206  12.018
68037W        W41105   9.084  32.116   3.904
68038W        W41106  30.639   8.257   2.346
68039W        W41107  14.722  41.131   3.012
68040W        W41108  21.255   0.712   2.902
68041W        W41109  10.407  27.588  10.644
68042W        W41110  32.353  24.456   3.656
68043W        W41111   7.161   3.457   4.901
68044W        W41112  17.279  26.496  13.366
68045W        W41113  43.544  19.950   4.146
68046W        W41114  26.728  17.245  11.392
68047W        W41115  15.262  31.687   3.670
68048W        W41116  40.043  12.687   0.290
68049W        W41117  13.484  38.579   3.296
68050W        W41118   4.818  27.693   4.881
68051W        W41119  34.146  34.057   2.763
68052W        W41120  39.306  22.117   1.939
68053W        W41121  19.513  21.132   4.187
68054W        W41122  22.526  16.991   2.684
68055W        W41123  19.249  17.446  13.903
68056W        W41124  12.078  13.645  14.959
68057W        W41125  21.659  36.976  11.542
68058W        W41126  22.608  32.465   4.599
68059W        W41127  43.095   9.355   3.109
68060W        W41128  20.790  18.607  13.974
68061W        W41129  10.405  23.555   4.618
68062W        W41130  40.766  29.484  11.101
68063W        W41131  26.102  12.490   5.097
68064W        W41132   2.957  26.159   3.698
68065W        W41133  39.794  42.319   4.311
68066W        W41134  25.622  17.028   4.210
68067W        W41135  10.273  21.649   0.474
68068W        W41136  19.260   8.149   0.121
68069W        W41137  30.095  18.282   1.808
68070W        W41138  14.273  28.772   0.684
68071W        W41139  34.426   2.724  12.521
68072W        W41140  16.680  32.650   2.377
68073W        W41141  44.425  26.130  10.634
68074W        W41142  30.436  24.473  11.917
68075W        W41143  37.338  23.313  14.789
68076W        W41144  39.446  15.813  12.348
68077W        W41145   2.882  39.532   3.607
68078W        W41146  27.864  27.071   2.643
68079W        W41147  26.996  32.401   2.932
68080W        W41148  38.124  28.047  13.959
68081W        W41149  17.588   8.951  14.950
68082W        W41150   8.335   8.890   1.292
68083W        W41151   5.944  24.154  14.976
68084W        W41152  24.755  12.638   3.243
68085W        W41153  16.090  37.240   2.905
68086W        W41154  19.012  40.802  11.966
68087W        W41155  40.273  18.161   1.364
68088W        W41156  36.558  16.581   1.526
68089W        W41157   5.959  20.267   2.710
68090W        W41158  42.983  21.501  10.730
68091W        W41159  43.019  30.585  11.062
68092W        W41160  18.776   7.179   1.984
68093W        W41161  25.532  34.300   4.620
68094W        W41162  33.768  18.193   4.933
68095W        W41163  34.143  21.210   1.376
68096W        W41164   4.997  42.457  10.684
68097W        W41165  17.632  27.271   0.922
68098W        W41166  38.028  33.035   3.672
68099W        W41167   8.438  19.570   1.221
68100W        W41168  34.671  23.638  14.264
68101W        W41169  32.239  18.602   3.270
68102W        W41170  13.639  18.448   9.658
68103W        W41171  29.825  42.809   1.419
68104W        W41172  19.516  22.287   3.189
68105W        W41173  35.181  19.337   1.243
68106W        W41174  35.386  12.058  13.368
68107W        W41175  19.684  39.586   4.293
68108W        W41176   6.900  31.449  14.428
68109W        W41177   0.969  38.375  12.530
68110W        W41178  25.956  36.403  14.852
68111W        W41179  11.357  29.952   2.943
68112W        W41180  23.058  36.531   2.820
68113W        W41181  33.901  44.691   0.925
68114W        W41182  26.920  20.468  11.597
68115W        W41183  23.207  26.271   0.381
68116W        W41184  19.118   6.268   3.421
68117W        W41185   4.411   7.894  14.418
68118W        W41186  33.288  37.432   3.131
68119W        W41187   7.353  18.628   4.593
68120W        W41188  32.442   6.309  13.525
68121W        W41189  33.483  32.489   1.687
68122W        W41190  17.726  26.740   4.813
68123W        W41191  21.706  43.110   0.722
68124W        W41192   0.380  10.873   0.240
68125W        W41193  35.666  14.304   3.747
68126W        W41194  22.280  24.541   1.069
68127W        W41195  29.647  15.468   5.035
68128W        W41196  13.608  11.334   2.772
68129W        W41197  37.484  41.579  10.658
68130W        W41198  37.615  30.113  14.012
68131W        W41199   1.049  16.572  11.967
68132W        W41200  36.118  16.789   1.792
68133W        W41201   4.975   4.166  14.938
68134W        W41202   0.354  41.880  11.910
68135W        W41203  10.628  36.526  13.087
68136W        W41204  21.087   2.202   0.451
68137W        W41205  34.466   6.062  14.945
68138W        W41206  26.194  26.937  12.963
68139W        W41207  25.335  37.026   1.239
68140W        W41208   0.405  22.184   0.757
68141W        W41209  33.174  31.589  14.503
68142W        W41210  34.724  30.829  13.855
68143W        W41211  10.964  17.990   2.238
68144W        W41212   9.618  38.815  13.504
68145W        W41213  20.678  23.533  12.361
68146W        W41214  37.703  39.500  13.322
68147W        W41215  13.221   8.750  14.898
68148W        W41216  38.070  15.894   2.774
68149W        W41217   8.806  43.104  10.570
68150W        W41218   4.406  27.231   2.284
68151W        W41219   0.554  29.886   0.908
68152W        W41220  16.631  12.664  13.727
68153W        W41221  34.839  22.407  14.128
68154W        W41222  42.773   5.734  13.129
68155W        W41223  25.689  43.893  12.095
68156W        W41224  11.124  18.341   4.499
68157W        W41225   4.223   0.055  11.630
68158W        W41226  39.899   5.709   3.375
68159W        W41227  18.183   2.294  11.046
68160W        W41228  31.231   9.659   2.143
68161W        W41229  28.494  39.977  11.214
68162W        W41230   1.666  19.693   0.726
68163W        W41231  28.961   2.680  13.149
68164W        W41232   7.386  24.143  11.663
68165W        W41233  43.446   6.640  11.208
68166W        W41234   5.862  18.185  14.091
68167W        W41235  40.118  31.430   2.353
68168W        W41236  32.379  35.758   5.127
68169W        W41237  20.845   2.315   4.717
68170W        W41238  23.262  40.463  14.590
68171W        W41239  29.026  31.078   2.766
68172W        W41240  40.225  25.340  12.219
68173W        W41241   3.311  32.859   3.691
68174W        W41242  42.114  12.223   0.881
68175W        W41243  14.716  22.147   2.133
68176W        W41244  13.925   3.504  14.614
68177W        W41245  18.190   5.630   2.794
68178W        W41246  44.679  33.200   1.179
68179W        W41247   7.868  38.993   5.000
68180W        W41248  12.270  19.750   4.102
68181W        W41249  44.518   3.141   4.659
68182W        W41250   5.889  22.709   3.151
68183W        W41251   0.512   4.458  14.591
68184W        W41252  37.867  12.639   3.103
68185W        W41253  43.456  17.764   1.135
68186W        W41254   1.998  26.670   4.544
68187W        W41255  30.460  15.328  10.705
68188W        W41256   8.450  26.451  14.571
68189W        W41257  17.738  33.088  14.047
68190W        W41258  35.907  32.022   3.597
68191W        W41259  15.527   0.491   3.312
68192W        W41260  12.691  26.094   4.359
68193W        W41261  13.713  23.548   4.304
68194W        W41262  44.945  22.793  13.761
68195W        W41263   0.967  23.971   0.932
68196W        W41264  30.762   0.379   4.683
68197W        W41265  20.759  33.145  10.669
68198W        W41266   7.386  44.171   0.254
68199W        W41267   6.662  33.552  12.082
68200W        W41268  43.045   8.187  13.868
68201W        W41269  38.016   5.856   2.275
68202W        W41270   2.295  18.051   0.455
68203W        W41271  28.081  19.022  13.491
68204W        W41272   9.649  17.976   3.568
68205W        W41273  12.252   7.446  12.405
68206W        W41274  17.052  27.741  14.527
68207W        W41275  44.650  41.427  11.233
68208W        W41276  19.486  43.952  12.583
68209W        W41277  32.115  15.993  12.714
68210W        W41278   9.972  38.762   0.182
68211W        W41279   9.305   2.802  14.937
68212W        W41280  13.021  27.680   1.385
68213W        W41281  32.192  19.545   1.954
68214W        W41282  19.105  19.106  12.172
68215W        W41283  21.854  22.199  10.454
68216W        W41284  41.514  10.746   4.209
68217W        W41285  22.718  10.336   5.030
68218W        W41286  24.470  16.967  10.304
68219W        W41287  30.978  40.064   0.835
68220W        W41288  23.274  44.385  11.322
68221W        W41289  34.364  10.389   2.744
68222W        W41290   6.493  24.025   4.063
68223W        W41291  16.397   7.533  12.935
68224W        W41292  40.485  19.380  13.914
68225W        W41293  18.706  30.496   0.992
68226W        W41294  41.130  30.693  12.564
68227W        W41295  18.536  11.589  14.676
68228W        W41296   0.788  21.139   1.910
68229W        W41297   0.483  32.397  14.467
68230W        W41298  20.586  15.180   1.843
68231W        W41299  23.245  21.746   0.994
68232W        W41300   8.368   5.602  14.445
68233W        W41301  33.451  29.959  11.494
68234W        W41302  32.127   6.916  11.632
68235W        W41303  23.290   4.764   2.591
68236W        W41304  15.849   0.818  11.429
68237W        W41305  10.408   4.402  14.478
68238W        W41306  41.023  32.164  14.719
68239W        W41307  16.210   5.787  14.520
68240W        W41308  12.953  44.375   1.383
68241W        W41309   1.331   0.420  13.619
68242W        W41310  26.442  18.290  13.928
68243W        W41311  32.871   3.732  10.577
68244W        W41312  43.485   5.323  13.524
68245W        W41313  31.870  26.413  10.031
68246W        W41314  43.367  33.843  13.601
68247W        W41315  28.665  25.683   1.625
68248W        W41316  35.516  29.232   2.227
68249W        W41317  37.943  39.999  10.723
68250W        W41318  10.243   1.986  13.052
68251W        W41319  39.789  40.874   0.479
68252W        W41320  29.056   6.167   2.276
68253W        W41321   6.040  39.951  10.953
68254W        W41322  37.031  11.929   0.923
68255W        W41323  18.126  33.264  12.921
68256W        W41324  34.096  20.354  14.861
68257W        W41325  32.159  20.097  10.668
68258W        W41326   0.908   8.664  11.783
68259W        W41327  19.395   7.156   0.252
68260W        W41328  21.036  11.865  11.672
68261W        W41329  37.955  25.253   3.733
68262W        W41330  41.829  32.695  13.384
68263W        W41331  41.746  33.933   2.100
68264W        W41332  33.555   8.679   0.465
68265W        W41333  19.734   0.841  11.196
68266W        W41334  31.169   5.341   0.299
68267W        W41335  33.539   9.443  10.925
68268W        W41336  28.696  38.904   4.442
68269W        W41337  26.395  14.679  12.920
68270W        W41338  25.356  42.065   0.891
68271W        W41339   9.434  14.805  12.480
68272W        W41340   1.858  30.422   2.239
68273W        W41341   6.471  36.903  11.552
68274W        W41342   2.433   1.439   0.255
68275W        W41343  30.154  24.100  11.678
68276W        W41344  44.411   8.756  14.159
68277W        W41345  17.219  11.224  14.496
68278W        W41346  10.882   7.248   1.347
68279W        W41347   5.995  28.002  13.500
68280W        W41348  17.209  42.431  13.742
68281W        W41349   3.207  35.870  12.514
68282W        W41350  17.822  22.544   1.548
68283W        W41351  28.926  17.661  14.754
68284W        W41352  15.359  32.536  12.064
68285W        W41353   6.686   9.391   3.905
68286W        W41354   0.887  15.640  13.872
68287W        W41355  21.096  35.412  13.094
68288W        W41356  13.070  32.596  12.694
68289W        W41357   4.493  22.074   1.298
68290W        W41358   0.165  14.097  11.200
68291W        W41359  18.519  13.369  12.732
68292W        W41360   9.854  15.614   0.327
68293W        W41361  33.103  30.592   2.327
68294W        W41362  20.112   1.903   5.076
68295W        W41363   3.354  29.409  12.552
68296W        W41364  39.489   7.655  10.032
68297W        W41365  20.873   0.407   0.968
68298W        W41366   0.757  10.392   0.020
68299W        W41367  17.076  38.896   1.673
68300W        W41368  37.425   7.024  13.588
68301W        W41369   6.639  23.484  12.401
68302W        W41370  23.958   4.716   1.655
68303W        W41371  44.061  30.118  11.559
68304W        W41372  29.536  17.277   0.204
68305W        W41373  29.104   0.312   1.462
68306W        W41374  14.287  27.980  13.073
68307W        W41375  34.957  12.796  13.422
68308W        W41376  19.387  23.689  13.006
68309W        W41377   7.990   2.903  12.656
68310W        W41378  40.790  18.216  11.129
68311W        W41379  38.504   4.234  13.928
68312W        W41380   3.718  26.222  12.575
68313W        W41381  44.415   4.000  11.598
68314W        W41382   1.952  19.630  12.835
68315W        W41383  24.829  32.545   0.415
68316W        W41384   6.148  22.491   4.635
68317W        W41385   7.272  29.112   2.250
68318W        W41386  32.134   9.892  11.956
68319W        W41387  44.585  28.382  10.207
68320W        W41388  26.750   2.940  10.506
68321W        W41389  43.378   0.872   3.761
68322W        W41390  20.191  22.935  14.565
68323W        W41391  20.793  28.046  12.365
68324W        W41392  22.420  14.389  11.699
68325W        W41393  29.287  41.104   1.202
68326W        W41394  29.444  36.992   1.057
68327W        W41395   5.785  20.465  14.834
68328W        W41396  12.113  10.362  10.736
68329W        W41397   4.430  39.654   1.249
68330W        W41398  25.350   2.405  10.548
68331W        W41399   5.340   6.776  14.359
68332W        W41400  11.222   9.855   4.170
68333W        W41401  21.733  30.694   0.761
68334W        W41402  24.053  34.509  11.357
68335W        W41403  40.453  39.656  11.464
68336W        W41404   9.336  15.985   4.657
68337W        W41405  25.095   3.993   3.230
68338W        W41406  36.613  10.731  11.254
68339W        W41407   6.216  12.053   0.999
68340W        W41408   1.042  18.027  13.473
68341W        W41409  19.764  19.745   4.113
68342W        W41410   4.448   5.950   4.114
68343W        W41411  25.900   7.855   4.493
68344W        W41412  13.882  11.221   2.353
68345W        W41413  16.852   0.614  13.580
68346W        W41414  34.355   5.669   1.858
68347W        W41415  10.204  12.441  14.442
68348W        W41416  32.254  39.360  11.429
68349W        W41417  18.785  22.043  11.075
68350W        W41418  37.567  35.358   0.724
68351W        W41419  24.614  11.303   4.640
68352W        W41420   9.131   6.377  14.842
68353W        W41421  27.102  21.017  13.344
68354W        W41422  41.513   8.168  11.908
68355W        W41423  30.165   3.809  12.494
68356W        W41424  29.816   6.234  10.670
68357W        W41425  24.691   1.035   0.919
68358W        W41426  40.623  26.685  13.884
68359W        W41427  17.530  15.792  13.903
68360W        W41428  41.307  19.104  10.889
68361W        W41429  44.299  22.971   0.767
68362W        W41430  20.043  14.618   0.810
68363W        W41431   7.777   0.146  12.479
68364W        W41432  40.854  19.808  14.003
68365W        W41433  12.654  23.546  11.422
68366W        W41434  26.900  14.262   2.835
68367W        W41435  10.661  15.211   2.119
68368W        W41436   8.627   3.483  10.752
68369W        W41437   3.618  37.182   3.846
68370W        W41438  40.816  30.583   4.340
68371W        W41439   3.687  33.522   1.932
68372W        W41440  26.747   0.774  12.037
68373W        W41441  11.293  12.506   4.730
68374W        W41442  20.842  14.045   2.775
68375W        W41443  38.837  16.356   3.690
68376W        W41444  24.817  40.544   2.809
68377W        W41445  38.761  25.144   1.374
68378W        W41446  32.893  16.788   2.355
68379W        W41447  33.836  20.323   1.424
68380W        W41448  19.540  42.688  14.495
68381W        W41449   4.491  19.732   1.293
68382W        W41450  11.157  32.121   2.271
68383W        W41451  23.651   9.246  13.743
68384W        W41452  11.386  33.004  12.885
68385W        W41453  28.640  41.082   4.167
68386W        W41454  19.358  12.005  14.908
68387W        W41455  18.957   6.155  11.037
68388W        W41456  31.645  18.033   2.137
68389W        W41457  15.637  10.333   0.399
68390W        W41458  23.985  34.009  14.893
68391W        W41459  11.758  42.988   3.519
68392W        W41460  12.399  36.039   4.838
68393W        W41461  29.589  41.420   3.966
68394W        W41462  41.188  34.055  13.139
68395W        W41463   7.264  43.224  14.890
68396W        W41464  26.134  42.819   4.681
68397W        W41465  43.501  24.180   1.583
68398W        W41466  25.608  13.109  12.147
68399W        W41467  30.687  10.701   3.760
68400W        W41468  42.525   9.866  14.155
68401W        W41469  33.996  22.121  11.977
68402W        W41470  26.532  31.624  11.610
68403W        W41471   1.405  36.438  11.195
68404W        W41472  14.067  42.988   0.115
68405W        W41473  13.223   7.190  14.404
68406W        W41474   2.741  28.378  11.233
68407W        W41475  43.065  29.994  13.984
68408W        W41476  41.502  23.827  12.431
68409W        W41477  29.426  37.043  12.115
68410W        W41478   5.382  21.483  12.468
68411W        W41479  23.891  30.281  13.285
68412W        W41480  20.461   4.352  12.905
68413W        W41481   3.387  32.483   3.362
68414W        W41482  22.024   8.207  14.437
68415W        W41483  32.381  14.800   0.488
68416W        W41484  26.111   3.859  14.493
68417W        W41485  19.780  39.982   1.706
68418W        W41486  38.299  41.383  11.122
68419W        W41487   2.052   7.477  14.672
68420W        W41488  30.637  10.644  11.826
68421W        W41489  20.642  26.700  11.885
68422W        W41490   6.422  20.595   4.560
68423W        W41491   2.402   9.620   0.783
68424W        W41492   2.770  20.156   4.741
68425W        W41493  16.268   9.873  14.442
68426W        W41494  18.695  42.276   2.182
68427W        W41495   0.426  15.422  14.419
68428W        W41496  15.047   1.634  10.836
68429W        W41497  38.486  20.575   0.611
68430W        W41498  22.733  25.979   3.123
68431W        W41499  31.124  37.420  12.794
68432W        W41500  42.069  30.880   0.755
68433W        W41501   6.881   9.249   2.883
68434W        W41502  33.111  13.715   0.187
68435W        W41503  27.529  23.064   0.064
68436W        W41504  29.883  35.143   5.018
68437W        W41505  38.947  11.339  10.506
68438W        W41506  36.624  44.354   2.799
68439W        W41507  25.084  25.669   4.222
68440W        W41508   6.448  26.204   0.951
68441W        W41509   8.755  41.414  14.262
68442W        W41510   6.312   9.122   1.272
68443W        W41511   7.825  39.345   1.862
68444W        W41512  30.540  29.218  12.139
68445W        W41513  37.839  19.587   4.621
68446W        W41514  44.492  24.578   1.241
68447W        W41515  40.416  41.167  10.674
68448W        W41516  13.036   0.781  10.414
68449W        W41517  29.569  20.532   4.672
68450W        W41518  24.247   6.517  13.365
68451W        W41519  11.188  41.367   4.377
68452W        W41520  18.491  42.528   3.591
68453W        W41521  34.139  38.398   3.276
68454W        W41522  26.786  16.007   0.751
68455W        W41523  25.803  40.154   5.385
68456W        W41524  14.274  18.646   5.077
68457W        W41525   7.788  41.586   3.215
68458W        W41526   7.259   3.879   1.897
68459W        W41527  10.398  41.501   2.844
68460W        W41528  28.064  14.818   2.166
68461W        W41529  40.422  38.348   4.706
68462W        W41530  29.957  43.670   3.850
68463W        W41531  18.789   6.547   1.172
68464W        W41532  41.093  42.327  13.364
68465W        W41533  23.482  26.249   0.834
68466W        W41534  33.573  37.166   1.591
68467W        W41535  15.288  36.532   4.235
68468W        W41536  26.898  17.001  13.469
68469W        W41537   0.702  16.697   1.266
68470W        W41538  26.545   6.719   1.762
68471W        W41539  14.255  26.996  11.329
68472W        W41540   4.432  35.134  11.496
68473W        W41541  29.388  26.013  14.569
68474W        W41542  21.298  35.779  12.046
68475W        W41543  21.627  34.830  14.510
68476W        W41544   8.992  35.943  13.016
68477W        W41545  33.334  12.449  11.246
68478W        W41546  38.798  14.789  12.486
68479W        W41547  21.594  11.752  13.800
68480W        W41548   6.261   9.068  12.458
68481W        W41549   4.863  28.144  14.037
68482W        W41550  44.479  17.318  11.122
68483W        W41551  19.080  10.912  10.822
68484W        W41552  29.216  15.795   1.295
68485W        W41553  39.922   5.677   5.117
68486W        W41554  38.810  44.228  13.034
68487W        W41555   9.183  11.345  14.393
68488W        W41556  33.736   0.846  13.542
68489W        W41557  18.753  41.525   2.937
68490W        W41558  30.892  30.762  12.923
68491W        W41559  23.627   2.669  10.797
68492W        W41560   0.842  38.386  14.398
68493W        W41561  43.891  24.082  14.107
68494W        W41562  19.916  22.183  11.542
68495W        W41563  38.102  44.046   1.329
68496W        W41564  40.977  18.616  12.145
68497W        W41565  15.728  20.637  13.472
68498W        W41566   3.835  16.780  12.890
68499W        W41567  18.470  24.199  10.349
68500W        W41568  18.157   2.817  12.684
68501W        W41569   1.694  10.310  14.877
68502W        W41570   4.128   8.262   0.112
68503W        W41571   5.834   1.779  14.349
68504W        W41572  11.691  44.782   1.453
68505W        W41573  13.895   9.003   3.211
68506W        W41574  43.958   1.523   0.981
68507W        W41575  11.849   9.437   2.359
68508W        W41576  19.634  30.568  11.909
68509W        W41577  40.865   7.058  12.824
68510W        W41578   3.428  38.476   0.952
68511W        W41579   9.343  20.070  12.914
68512W        W41580  24.267  39.542  11.395
68513W        W41581  25.601   0.763   2.419
68514W        W41582  32.428  10.694   2.210
68515W        W41583  42.432  10.688  13.939
68516W        W41584  27.074  43.540   2.887
68517W        W41585  37.306   8.277  12.997
68518W        W41586  34.381  11.339   1.499
68519W        W41587  34.438  36.126  14.921
68520W        W41588   7.145  21.030  14.766
68521W        W41589  31.060  17.870   0.835
68522W        W41590   2.148  11.893   1.645
68523W        W41591  18.848  10.409   0.706
68524W        W41592  16.207  21.825   1.241
68525W        W41593   9.657  35.350  13.495
68526W        W41594   7.403  18.761   3.293
68527W        W41595  14.782   0.004   0.887
68528W        W41596  36.531   6.428   3.689
68529W        W41597   2.766  29.496   0.184
68530W        W41598  30.113  13.399   4.749
68531W        W41599  14.891   8.402  12.573
68532W        W41600  21.762  40.828  10.664
68533W        W41601   9.975  33.611   3.562
68534W        W41602  22.910   7.532   1.751
68535W        W41603  23.484  28.526  14.861
68536W        W41604  35.849  12.262  13.425
68537W        W41605  32.554  43.710  12.379
68538W        W41606  28.069  39.559  11.006
68539W        W41607   6.054  25.849   4.074
68540W        W41608  36.031  40.951   2.155
68541W        W41609  41.261   5.018   3.771
68542W        W41610  24.147  20.104  10.251
68543W        W41611  25.461  44.281   1.217
68544W        W41612  23.501  18.108   0.402
68545W        W41613  32.650  12.677  10.747
68546W        W41614  15.814   5.780   3.697
68547W        W41615  27.967  36.834  14.853
68548W        W41616  18.335  39.129  13.065
68549W        W41617  30.082  19.076  14.961
68550W        W41618  14.730  12.548  10.626
68551W        W41619   2.456  38.470   0.858
68552W        W41620  14.578  38.774   1.628
68553W        W41621  10.741  17.273   3.118
68554W        W41622  23.012  18.134  13.899
68555W        W41623  39.523   4.995   1.952
68556W        W41624  21.597   8.893   1.723
68557W        W41625  12.377  16.616  12.867
68558W        W41626  44.343  26.245   4.619
68559W        W41627  43.200  14.173   0.727
68560W        W41628  16.796  20.277  14.388
68561W        W41629  29.735  15.758   1.261
68562W        W41630  13.613  41.724   0.335
68563W        W41631  25.744  21.495  13.147
68564W        W41632   9.260  32.007  11.532
68565W        W41633  29.093  41.218   1.759
68566W        W41634  20.625  25.571  12.584
68567W        W41635   9.965  39.515  12.901
68568W        W41636  31.717  26.660  11.250
68569W        W41637  39.133  34.852   4.997
68570W        W41638  34.105  44.262  10.596
68571W        W41639   0.881  32.838   2.501
68572W        W41640  13.995  16.663   2.278
68573W        W41641  44.014  19.329   0.291
68574W        W41642  37.281  34.140  14.325
68575W        W41643  25.032  40.833   2.396
68576W        W41644  23.104  17.571  12.514
68577W        W41645  43.000  17.764   1.749
68578W        W41646  36.486   0.826  12.182
68579W        W41647  43.048  26.236  11.137
68580W        W41648  15.928  14.699  14.270
68581W        W41649  15.957  19.150   4.987
68582W        W41650  30.148   7.789   3.701
68583W        W41651  34.650  44.928  11.590
68584W        W41652  40.825   3.378   1.693
68585W        W41653  40.978  22.274  13.016
68586W        W41654  34.262  33.048   2.272
68587W        W41655  17.723   8.702   1.263
68588W        W41656  18.773  17.834   4.129
68589W        W41657  15.724   0.862  12.954
68590W        W41658  15.570  37.646   4.531
68591W        W41659  17.319  23.725  14.679
68592W        W41660  16.202  35.769  14.996
68593W        W41661  25.434   7.619   1.259
68594W        W41662  14.207  39.285  14.350
68595W        W41663  32.626  35.129  11.449
68596W        W41664  13.782  24.090   4.253
68597W        W41665  13.563   5.180   1.884
68598W        W41666  35.968  16.030   4.717
68599W        W41667  12.736  22.620  12.432
68600W        W41668   3.361  31.004  11.610
68601W        W41669  33.431  39.996  11.433
68602W        W41670  13.205  23.586   0.013
68603W        W41671  17.200  12.218  12.044
68604W        W41672   3.337   6.782  12.492
68605W        W41673   6.947  12.406   3.797
68606W        W41674  23.618  28.461   4.646
68607W        W41675   8.644   4.239   4.276
68608W        W41676  25.228  26.623   2.737
68609W        W41677  36.495  38.770  11.698
68610W        W41678  14.239  41.350  12.989
68611W        W41679  37.131  34.453   4.876
68612W        W41680  20.341  11.747  14.724
68613W        W41681  35.758  15.168   4.712
68614W        W41682  12.869  12.636   2.499
68615W        W41683  34.389   9.881   2.794
68616W        W41684   3.855  28.228  12.604
68617W        W41685  14.769  41.392   4.117
68618W        W41686   9.149  22.589  13.278
68619W        W41687  26.046   6.241  14.029
68620W        W41688   0.785  32.584  14.857
68621W        W41689  42.309  40.825  10.911
68622W        W41690  38.065  28.170   3.868
68623W        W41691   9.326  14.751   0.048
68624W        W41692  31.436   1.723   0.855
68625W        W41693   6.173  40.992   4.635
68626W        W41694  39.027  27.090   0.253
68627W        W41695  41.028  21.605   4.415
68628W        W41696  17.440  33.959  12.979
68629W        W41697  43.166   3.724  13.790
68630W        W41698  42.466   1.670  13.386
68631W        W41699  14.311  37.266  13.291
68632W        W41700  14.589  43.464   3.281
68633W        W41701  22.868  16.528   2.677
68634W        W41702  18.654  27.703   0.799
68635W        W41703  12.770  31.379  14.273
68636W        W41704  28.822  28.715  11.586
68637W        W41705  41.107  34.617  14.896
68638W        W41706  26.658  19.924   3.009
68639W        W41707  21.313  44.451  11.483
68640W        W41708  32.847  32.008   3.229
68641W        W41709   9.150   4.941  13.588
68642W        W41710  16.505  43.546  12.552
68643W        W41711  25.062  38.541  13.646
68644W        W41712  23.489  24.246  14.477
68645W        W41713  26.226  25.872   4.209
68646W        W41714  37.184  36.981  10.496
68647W        W41715  11.627  19.080  13.534
68648W        W41716  32.953  28.233  13.452
68649W        W41717  30.198  10.264   3.287
68650W        W41718  37.120   1.404  12.519
68651W        W41719  24.716  39.379  10.242
68652W        W41720  14.882  22.204  14.839
68653W        W41721  18.493  11.887  14.229
68654W        W41722  33.502  32.493   0.740
68655W        W41723  33.610  40.224  11.888
68656W        W41724   8.157  43.363  13.352
68657W        W41725  13.103  36.545  14.744
68658W        W41726  43.282  38.394  12.523
68659W        W41727  36.505  20.674   3.313
68660W        W41728  17.036  22.794  14.270
68661W        W41729  22.250  27.747  10.730
68662W        W41730  16.866  26.789   4.156
68663W        W41731  28.621  32.758   2.235
68664W        W41732  42.537  26.793  14.924
68665W        W41733  37.594  11.110   4.125
68666W        W41734  36.839   5.724  12.610
68667W        W41735  38.925  28.520   4.570
68668W        W41736  19.720   9.957   3.721
68669W        W41737  36.585  13.199  14.362
68670W        W41738  42.964  28.720   2.327
68671W        W41739  32.798  44.877   3.368
68672W        W41740  33.945  29.602   1.475
68673W        W41741  30.507  25.710   0.023
68674W        W41742  31.416  22.798   0.961
68675W        W41743  20.024   9.390  12.062
68676W        W41744  34.556  34.797   1.317
68677W        W41745  41.455  31.013   2.681
68678W        W41746  17.710  33.933   4.908
68679W        W41747  35.639  12.783  12.985
68680W        W41748  14.689  37.405   2.722
68681W        W41749  42.512   1.910  14.468
68682W        W41750  21.812   8.345  11.461
68683W        W41751  28.685  10.094  13.029
68684W        W41752  29.486  33.942  10.563
68685W        W41753  33.984  44.880  12.972
68686W        W41754   6.250  41.651   5.217
68687W        W41755  23.490  21.646   3.808
68688W        W41756  30.704  42.885  13.837
68689W        W41757  14.218   8.129   1.208
68690W        W41758  34.846  40.874   1.408
68691W        W41759  28.987  27.644  13.995
68692W        W41760  19.692  14.318   1.072
68693W        W41761  42.981   7.637   1.877
68694W        W41762  34.781   7.482   2.363
68695W        W41763  26.894  25.135   1.833
68696W        W41764  21.439   2.335   1.517
68697W        W41765  19.562  32.027  13.425
68698W        W41766  37.509  10.639   2.675
68699W        W41767  14.576   4.088   3.594
68700W        W41768  19.265  11.253   1.671
68701W        W41769  12.665  24.426  11.985
68702W        W41770  24.235  11.717  12.648
68703W        W41771  21.265   2.797   1.653
68704W        W41772  12.343  43.537  11.260
68705W        W41773  26.205  23.103  13.902
68706W        W41774  41.582  10.704  13.119
68707W        W41775  11.433   8.924   0.349
68708W        W41776  43.379  21.295  10.410
68709W        W41777   1.851  21.213  13.379
68710W        W41778   9.155  44.418   4.660
68711W        W41779  34.837  40.303  14.887
68712W        W41780   7.873   2.946  12.160
68713W        W41781  37.321  39.789  10.020
68714W        W41782   0.941  14.546  13.355
68715W        W41783   1.238  28.490  13.554
68716W        W41784  28.467  13.176  11.264
68717W        W41785  37.801  38.062  12.880
68718W        W41786  28.437  36.635   0.054
68719W        W41787  44.336  12.804   3.970
68720W        W41788   1.993  31.659  10.689
68721W        W41789   4.302   8.776  11.600
68722W        W41790  43.780   5.413   2.530
68723W        W41791  13.112   6.307  10.045
68724W        W41792  34.292  22.648   3.421
68725W        W41793  31.174   1.320   3.238
68726W        W41794   1.192  12.157  14.770
68727W        W41795  12.730  40.177  10.565
68728W        W41796   1.899  33.325  13.830
68729W        W41797  39.762  19.784   4.049
68730W        W41798   6.777   6.782  13.090
68731W        W41799  28.049  25.222   3.575
68732W        W41800  37.259  40.208  12.741
68733W        W41801   2.454   9.865  12.397
68734W        W41802  30.125   8.113   2.259
68735W        W41803  37.322  33.022  13.087
68736W        W41804  41.427  39.587   1.485
68737W        W41805  25.617  40.869  13.897
68738W        W41806  24.180   5.519  12.508
68739W        W41807  39.927  20.543   2.869
68740W        W41808  15.329   3.185   2.771
68741W        W41809  30.129  20.154   0.480
68742W        W41810  38.930  22.189   0.014
68743W        W41811  29.604   3.672   2.867
68744W        W41812  34.882  19.751   2.267
68745W        W41813  36.385  37.041  14.417
68746W        W41814  26.690   0.249  13.884
68747W        W41815  12.434  16.806   1.153
68748W        W41816  43.417   6.913   4.267
68749W        W41817  18.982  36.517   0.889
68750W        W41818  21.391  25.471   3.115
68751W        W41819  29.783   6.313  11.583
68752W        W41820  11.641  44.056   1.585
68753W        W41821  27.431  11.194  13.475
68754W        W41822  43.428  26.772   3.774
68755W        W41823  15.288   4.156  13.457
68756W        W41824  28.214  12.767   3.288
68757W        W41825  13.050  17.449   4.120
68758W        W41826  24.939  24.932  14.404
68759W        W41827  18.339   9.484   1.207
68760W        W41828   3.320  39.775   1.259
68761W        W41829  32.132  12.656   0.011
68762W        W41830  14.402  12.270  12.821
68763W        W41831   9.405  30.299  14.058
68764W        W41832  18.185  27.254  13.859
68765W        W41833   2.897   8.365   2.436
68766W        W41834  42.770  16.572  13.469
68767W        W41835  42.767  21.693  13.947
68768W        W41836  24.562  36.520   3.989
68769W        W41837  34.044   3.673  13.852
68770W        W41838  12.788  42.848  10.668
68771W        W41839  40.154  17.899   3.610
68772W        W41840  11.887   7.832  10.555
68773W        W41841  15.252   7.962  12.860
68774W        W41842  23.462   4.308  13.994
68775W        W41843  22.539  17.303  13.573
68776W        W41844  43.340  42.590  10.393
68777W        W41845  16.332   3.880  12.534
68778W        W41846  28.677  15.746   1.324
68779W        W41847  21.067   6.847   4.985
68780W        W41848  32.491  21.004  12.356
68781W        W41849  27.941  17.726   3.635
68782W        W41850  35.988   7.472  12.670
68783W        W41851  35.959  37.856  14.892
68784W        W41852  32.907   3.540  12.881
68785W        W41853  18.016   1.659   3.248
68786W        W41854  24.655  14.080   4.489
68787W        W41855  22.070  42.372  10.687
68788W        W41856  26.337  16.991   1.711
68789W        W41857  37.554  18.010   1.493
68790W        W41858  38.406  41.294   4.313
68791W        W41859  15.645  15.716   2.554
68792W        W41860  39.488  42.297   4.770
68793W        W41861  26.182  24.649  14.373
68794W        W41862  15.676   1.733   1.575
68795W        W41863  21.435   8.684   0.378
68796W        W41864  16.488  31.332   0.332
68797W        W41865  30.302  42.108   0.930
68798W        W41866  42.914   2.969   0.746
68799W        W41867  41.398  15.281   3.883
68800W        W41868  26.577   9.713   0.393
68801W        W41869  34.877  44.264   0.493
68802W        W41870  42.083  28.508   3.322
68803W        W41871  10.221  31.325  14.571
68804W        W41872  31.849  36.018   2.719
68805W        W41873  13.874  27.068  12.808
68806W        W41874  17.593   2.985  10.917
68807W        W41875  39.438  11.706  11.909
68808W        W41876  13.080   6.004   4.225
68809W        W41877  26.152   2.594  11.216
68810W        W41878  24.857   6.380  14.811
68811W        W41879  22.148  20.306  12.775
68812W        W41880  14.977  11.243   3.293
68813W        W41881   1.038  25.238  11.621
68814W        W41882  37.011  22.691   3.847
68815W        W41883  34.330  40.989  14.322
68816W        W41884  37.562  25.630   1.369
68817W        W41885  28.784  15.126   4.614
68818W        W41886   2.856   6.543  14.789
68819W        W41887  30.909  24.521   0.783
68820W        W41888  36.106  34.102   0.268
68821W        W41889  25.170  44.518   3.795
68822W        W41890   3.247  11.792   5.092
68823W        W41891  24.517  24.651  14.566
68824W        W41892  37.968  17.759   1.769
68825W        W41893  38.074  25.776  12.992
68826W        W41894   6.770  20.761   3.253
68827W        W41895  17.070  33.035   0.011
68828W        W41896   5.364  10.178   0.998
68829W        W41897  26.670  41.397  11.159
68830W        W41898  34.641  13.521  12.936
68831W        W41899  14.135  25.150   1.157
68832W        W41900  12.648   2.288   2.399
68833W        W41901  22.977  26.751   0.303
68834W        W41902  31.676  18.137   0.029
68835W        W41903  33.591  32.060  14.490
68836W        W41904  16.145  18.310  13.943
68837W        W41905  43.589  29.503  14.472
68838W        W41906  26.064  17.042  10.687
68839W        W41907  30.844  42.043   0.431
68840W        W41908  41.573  17.217  14.318
68841W        W41909  21.972  37.376   3.246
68842W        W41910   4.658  10.389  10.878
68843W        W41911  34.662  19.959   0.882
68844W        W41912  32.860   3.894   2.604
68845W        W41913  30.939   9.607   4.503
68846W        W41914  40.850   5.603  12.041
68847W        W41915   0.854  42.990  12.619
68848W        W41916  43.928  14.369   0.863
68849W        W41917  23.689  30.706  11.569
68850W        W41918  26.907  38.889  11.636
68851W        W41919   1.929  15.240  12.392
68852W        W41920   6.727  35.609  14.981
68853W        W41921  15.672  35.573   4.703
68854W        W41922  40.152  30.572  14.784
68855W        W41923   9.697   2.379  11.476
68856W        W41924  16.129  39.192  12.847
68857W        W41925  38.051  22.180   1.361
68858W        W41926  41.863  40.825  13.768
68859W        W41927  23.792  22.519   0.923
68860W        W41928  41.233  36.623   2.466
68861W        W41929  30.932  36.846   0.765
68862W        W41930  41.984  25.213  10.989
68863W        W41931   4.997  14.259   2.650
68864W        W41932   8.282  14.765  13.395
68865W        W41933  18.215  10.973  11.076
68866W        W41934  18.102  38.957   3.454
68867W        W41935  14.741   0.695  14.589
68868W        W41936   9.358  41.883   3.255
68869W        W41937  20.898  32.451  12.481
68870W        W41938  10.820  32.079   1.877
68871W        W41939  38.736   7.305  13.127
68872W        W41940  44.014  25.984   0.888
68873W        W41941  41.368  24.043   0.470
68874W        W41942  29.062  15.729  14.589
68875W        W41943  20.428  13.821  14.265
68876W        W41944  43.036  19.747   4.110
68877W        W41945   0.341  25.183   3.160
68878W        W41946  40.573  35.777  14.295
68879W        W41947  13.837   9.155   0.943
68880W        W41948  43.494  42.551  12.362
68881W        W41949  34.763  20.810   2.311
68882W        W41950  13.904  41.743  14.866
68883W        W41951  15.559  36.004  11.174
68884W        W41952  33.624  40.373   1.247
68885W        W41953   6.935  35.803   2.881
68886W        W41954  37.894  36.540  11.213
68887W        W41955  39.817  25.507  13.115
68888W        W41956  18.810  19.895   4.238
68889W        W41957  29.069  38.748  14.334
68890W        W41958   9.698  22.489   4.111
68891W        W41959  32.342   3.266  14.961
68892W        W41960   1.371   6.445   0.370
68893W        W41961   2.506  15.627   1.679
68894W        W41962  24.657  40.718   4.697
68895W        W41963  15.702   9.764   4.518
68896W        W41964   1.436   1.429   4.331
68897W        W41965  13.467  14.731   3.446
68898W        W41966  41.479   3.335  10.775
68899W        W41967  15.045  29.093   0.369
68900W        W41968  12.621  16.147   3.754
68901W        W41969  36.324  18.140   2.640
68902W        W41970   2.401   8.438  12.583
68903W        W41971  33.387  20.975   2.687
68904W        W41972  34.841  41.505   1.800
68905W        W41973  21.061  40.897   0.762
68906W        W41974  27.283  36.439   3.236
68907W        W41975  13.343  12.754   1.054
68908W        W41976   8.083   4.714  14.825
68909W        W41977  16.925   4.990   1.647
68910W        W41978   8.851  24.998  11.907
68911W        W41979   1.372  29.118  10.910
68912W        W41980  20.129   9.911  13.574
68913W        W41981  17.174   0.713  11.459
68914W        W41982  24.091  42.162  12.667
68915W        W41983  37.811  39.548  12.360
68916W        W41984  41.485  18.153  14.294
68917W        W41985  30.988  40.395   2.747
68918W        W41986  36.629  26.003   4.534
68919W        W41987  31.121  13.027  13.339
68920W        W41988   8.183   2.466   1.185
68921W        W41989  42.748  10.112  10.484
68922W        W41990  12.674   6.438  14.460
68923W        W41991  42.819  10.128  14.499
68924W        W41992  33.936   3.551   3.248
68925W        W41993   9.559   8.095  13.161
68926W        W41994   6.329  41.616   0.897
68927W        W41995  22.544  38.718   4.084
68928W        W41996   9.859   5.875  11.815
68929W        W41997  27.024  19.981   1.448
68930W        W41998  37.928  40.397   1.361
68931W        W41999  27.947  40.790   0.869
68932W        W42000   6.684  39.956  13.568
68933W        W42001  34.334  28.907   0.280
68934W        W42002  25.845  39.594   4.261
68935W        W42003   6.481   5.294  10.652
68936W        W42004  18.087   5.473   3.294
68937W        W42005  38.117   3.466  13.977
68938W        W42006   5.274  20.035   0.100
68939W        W42007  37.934  31.915  12.084
68940W        W42008   7.961   5.669   3.315
68941W        W42009  31.479   4.840  11.285
68942W        W42010  22.182  10.812   0.384
68943W        W42011  16.255  15.250   3.341
68944W        W42012  39.313  29.102   2.394
68945W        W42013  26.483  18.543  13.463
68946W        W42014  39.010  31.457   3.176
68947W        W42015  20.461  39.035   2.908
68948W        W42016  15.513  20.167  13.490
68949W        W42017   7.206   7.192  11.059
68950W        W42018  40.963  39.887  12.457
68951W        W42019   5.513  21.280   1.777
68952W        W42020  13.079  39.068  11.920
68953W        W42021   1.897  40.848  13.814
68954W        W42022  14.084  13.791  13.708
68955W        W42023  41.356  18.498   1.914
68956W        W42024  34.005  39.928   0.114
68957W        W42025   1.734   5.305   2.724
68958W        W42026  13.324  23.241   2.417
68959W        W42027  30.279  14.848   2.234
68960W        W42028  21.300  12.814  11.637
68961W        W42029  37.038   0.135   0.477
68962W        W42030  39.017  10.592  14.871
68963W        W42031  23.736   7.365  13.386
68964W        W42032  44.886  27.528   0.475
68965W        W42033   0.248  13.788  11.597
68966W        W42034  27.159   1.420   2.542
68967W        W42035  11.837  31.441  11.989
68968W        W42036   7.127   1.824   0.237
68969W        W42037   3.671   9.577  10.174
68970W        W42038  22.779   1.912  10.306
68971W        W42039  24.661  22.819  11.989
68972W        W42040  32.056  38.095   4.158
68973W        W42041   4.714  28.629  13.926
68974W        W42042  33.396  23.293   1.333
68975W        W42043  43.853  39.531   0.406
68976W        W42044  18.287   9.917   0.338
68977W        W42045   1.387  43.687  11.382
68978W        W42046  20.131  22.672  10.900
68979W        W42047  26.040  17.515  10.485
68980W        W42048  26.412  38.878   0.947
68981W        W42049  18.248  36.522   4.007
68982W        W42050  34.255   2.800  13.980
68983W        W42051  26.633   0.839  14.239
68984W        W42052  31.368  16.228   3.682
68985W        W42053  10.914  17.576   1.462
68986W        W42054  29.489   6.953  12.594
68987W        W42055  15.121  22.831   3.177
68988W        W42056  37.129   7.731  12.925
68989W        W42057   6.866  32.891  13.374
68990W        W42058  42.764  20.172   1.872
68991W        W42059  29.453   2.890  13.024
68992W        W42060  24.801  39.918  10.874
68993W        W42061  37.595  25.249  14.394
68994W        W42062  31.379  42.369   0.978
68995W        W42063  20.135  15.179  11.561
68996W        W42064   0.816  22.130  10.680
68997W        W42065   9.198   8.865   3.600
68998W        W42066  15.272   9.221   3.333
68999W        W42067   5.726  30.916   2.004
69000W        W42068  42.065  14.683   2.295
69001W        W42069  28.117  34.822   1.276
69002W        W42070  21.771  20.626  12.988
69003W        W42071  37.112   9.952  10.606
69004W        W42072  22.816  24.810   3.621
69005W        W42073  23.176  20.002  11.128
69006W        W42074  22.819  42.510  12.278
69007W        W42075  41.961   0.794   5.054
69008W        W42076   4.426  44.747  11.111
69009W        W42077  44.292  31.108   4.373
69010W        W42078  30.640  20.768  11.719
69011W        W42079  24.081  25.770  13.074
69012W        W42080  21.208  31.357   3.742
69013W        W42081  34.484  27.735  12.055
69014W        W42082  22.834  33.407   0.395
69015W        W42083  39.862  30.988   3.954
69016W        W42084   3.133  44.984  12.455
69017W        W42085   6.157  15.020   1.226
69018W        W42086  21.635  41.424   0.235
69019W        W42087  41.003   1.865  13.561
69020W        W42088  18.584   7.465   1.003
69021W        W42089  28.475  16.598   2.398
69022W        W42090  16.612  31.556  14.890
69023W        W42091  30.623   2.487   4.569
69024W        W42092  21.785  28.920   1.283
69025W        W42093   3.312   4.113  11.492
69026W        W42094   7.754  26.118  12.320
69027W        W42095  34.048  33.683  10.996
69028W        W42096  11.761  38.385   1.463
69029W        W42097   8.857  40.778   2.790
69030W        W42098  24.087  15.380  10.674
69031W        W42099  41.473  34.393  12.400
69032W        W42100  34.641  14.796  13.762
69033W        W42101  32.471   1.776   4.614
69034W        W42102  25.161  36.946   0.740
69035W        W42103  42.285  12.246  11.557
69036W        W42104  33.063  27.729  14.800
69037W        W42105  34.991  43.242   2.166
69038W        W42106  38.592  21.786  14.919
69039W        W42107   5.349  18.177  10.892
69040W        W42108  32.644   3.934  12.409
69041W        W42109  32.658  23.106   3.413
69042W        W42110   8.975  28.614   4.531
69043W        W42111  24.105  31.536   1.434
69044W        W42112  29.147  34.488   3.155
69045W        W42113   9.280  12.816   2.381
69046W        W42114   5.249  33.116  14.887
69047W        W42115  12.872   0.754  14.095
69048W        W42116  32.671  19.755   1.282
69049W        W42117   1.719  42.232  11.602
69050W        W42118  20.160  44.073  14.907
69051W        W42119  17.614  14.677   4.887
69052W        W42120  24.970  34.487   3.787
69053W        W42121  25.292  10.231   0.496
69054W        W42122  36.058  43.953  14.832
69055W        W42123  33.539  44.654   4.415
69056W        W42124  25.514  15.662   4.918
69057W        W42125  30.543  35.092   4.183
69058W        W42126  27.953  44.101  13.320
69059W        W42127  40.849  12.429  10.737
69060W        W42128  32.528  44.414   2.135
69061W        W42129  40.420  43.002   1.745
69062W        W42130   9.694  17.916   4.319
69063W        W42131  31.068  17.183  14.431
69064W        W42132   8.356  44.990   3.552
69065W        W42133  31.069  28.220   2.140
69066W        W42134   2.214   6.319   1.774
69067W        W42135   5.146  23.915   4.737
69068W        W42136  22.105  34.374   2.816
69069W        W42137  32.637  11.276   4.873
69070W        W42138  17.338   8.127  13.367
69071W        W42139  19.012   1.393   4.571
69072W        W42140  29.143   8.850  10.588
69073W        W42141   9.675  34.653   4.627
69074W        W42142  27.929  20.214   4.342
69075W        W42143   8.781  43.433   4.351
69076W        W42144  19.251  19.551   0.789
69077W        W42145   3.979  10.400   1.853
69078W        W42146   6.290   9.204   0.728
69079W        W42147  26.553  34.403  13.465
69080W        W42148   2.234  11.617   4.544
69081W        W42149  16.800  30.581  13.371
69082W        W42150  19.800  43.336  11.489
69083W        W42151  33.510  16.790  14.465
69084W        W42152  22.870  40.310  12.137
69085W        W42153  21.183  31.078  12.671
69086W        W42154   4.649  32.862  10.955
69087W        W42155  35.941   1.236   2.215
69088W        W42156   9.137  24.034  11.643
69089W        W42157  14.135  42.980  12.432
69090W        W42158  18.125  42.208  12.456
69091W        W42159  35.324  13.745  10.562
69092W        W42160  38.278  38.739   4.929
69093W        W42161  24.693  15.585  14.702
69094W        W42162  34.436  15.799   2.835
69095W        W42163   9.688  17.854   0.819
69096W        W42164  10.200  18.003   3.632
69097W        W42165  42.922  15.157  13.618
69098W        W42166  42.241  16.077   2.285
69099W        W42167  33.854  39.512   1.866
69100W        W42168  40.839  28.831  14.482
69101W        W42169  15.818  18.566  13.576
69102W        W42170  42.926  39.393   4.319
69103W        W42171  10.718  14.075   1.332
69104W        W42172  25.914  11.210   4.182
69105W        W42173  22.070  20.790  12.596
69106W        W42174   5.497  13.023  13.056
69107W        W42175  23.458  38.809  13.957
69108W        W42176   7.971   5.030  11.195
69109W        W42177  24.084  35.547   0.684
69110W        W42178  32.919   5.835   4.272
69111W        W42179  27.052  40.344  14.114
69112W        W42180   9.284  37.851   0.823
69113W        W42181   7.384  31.108   1.662
69114W        W42182  28.427   8.955  11.182
69115W        W42183  19.505  42.417   3.689
69116W        W42184  33.448  27.517  13.920
69117W        W42185  34.992  29.049   0.642
69118W        W42186  32.727  42.562   4.183
69119W        W42187  28.912  43.472  11.975
69120W        W42188   2.194  18.666   2.303
69121W        W42189  12.595  44.005  11.067
69122W        W42190  16.549   1.025  13.587
69123W        W42191   2.423   8.204   2.313
69124W        W42192  16.220  40.777  12.952
69125W        W42193  21.691  21.864   1.394
69126W        W42194  25.585   3.186   4.941
69127W        W42195  38.440  27.410  10.736
69128W        W42196  28.200   0.860   4.169
69129W        W42197  13.445  26.905   1.419
69130W        W42198  17.617   5.526  13.912
69131W        W42199  15.607  41.756   0.392
69132W        W42200  15.521  10.078  12.143
69133W        W42201  10.135  37.387  14.679
69134W        W42202  16.685  37.065   0.009
69135W        W42203   0.788  26.589  13.358
69136W        W42204  41.179  31.421   0.453
69137W        W42205  34.062  15.085  13.627
69138W        W42206  39.208   7.783   4.704
69139W        W42207  28.068  28.418  12.545
69140W        W42208   3.826  12.020  12.167
69141W        W42209  42.521  39.651   4.069
69142W        W42210  23.366  16.244  10.127
69143W        W42211   4.804  21.162   3.176
69144W        W42212  43.353  42.276   4.916
69145W        W42213   2.601  17.231   0.396
69146W        W42214  37.958  28.915   3.221
69147W        W42215  15.843  18.772   1.791
69148W        W42216  44.624  44.018   3.245
69149W        W42217  19.303  24.036   3.856
69150W        W42218   1.329  44.855   2.571
69151W        W42219  23.458   3.320   1.763
69152W        W42220  23.435   6.204  11.706
69153W        W42221  31.648  14.474   2.990
69154W        W42222  24.921   7.450   1.339
69155W        W42223   6.403  13.562  13.060
69156W        W42224  35.437  28.443  11.300
69157W        W42225  22.556  42.844  13.080
69158W        W42226  21.078   9.148   3.567
69159W        W42227  27.419  11.673  13.290
69160W        W42228  42.747  18.595  11.627
69161W        W42229  38.464  15.168  10.957
69162W        W42230  32.142  36.432   2.735
69163W        W42231  10.317   1.819   2.222
69164W        W42232   9.812  14.705  10.623
69165W        W42233  44.233  42.269  14.463
69166W        W42234   1.644   0.365  13.132
69167W        W42235  25.742  19.045  12.423
69168W        W42236   2.762   8.171   0.015
69169W        W42237  16.088  14.704   2.613
69170W        W42238   3.179   4.005   3.174
69171W        W42239  32.078   0.242  12.522
69172W        W42240  16.022   7.770   1.292
69173W        W42241  44.861  12.907   4.154
69174W        W42242   9.148  20.212   4.197
69175W        W42243  35.872  44.477   4.915
69176W        W42244  21.716  21.727  14.395
69177W        W42245  29.944  35.422   2.237
69178W        W42246  20.785  33.907   1.145
69179W        W42247  16.576  13.796  13.062
69180W        W42248  31.388  18.235  14.056
69181W        W42249  35.200  37.149  14.908
69182W        W42250  32.395  12.104  11.581
69183W        W42251  39.852  31.064   3.434
69184W        W42252  28.179  36.893   1.754
69185W        W42253   4.473  44.456  14.416
69186W        W42254   7.653  32.158  10.743
69187W        W42255  11.044  14.812   0.368
69188W        W42256   5.013  39.046  13.909
69189W        W42257   1.917  38.919   3.046
69190W        W42258   3.531  32.934  13.040
69191W        W42259  41.412  17.511   2.453
69192W        W42260   3.405  22.722   0.873
69193W        W42261   2.468  24.238   3.210
69194W        W42262  26.475   6.600   4.607
69195W        W42263  26.678  11.356   4.550
69196W        W42264  17.326  32.922   4.107
69197W        W42265  11.393  13.428   2.038
69198W        W42266  10.902  40.372   1.865
69199W        W42267  14.767  23.243   3.277
69200W        W42268  41.400  19.979  13.976
69201W        W42269  30.915  39.800  12.799
69202W        W42270  26.600  18.021  14.350
69203W        W42271   2.387   9.811  14.493
69204W        W42272  23.988  24.084   5.311
69205W        W42273  21.572  13.140   0.520
69206W        W42274  18.655  37.001  13.440
69207W        W42275  35.652  18.814  13.780
69208W        W42276  43.768  22.174  10.645
69209W        W42277  33.086   7.238   3.208
69210W        W42278  35.253  20.153  13.061
69211W        W42279  12.370   1.354  12.080
69212W        W42280  26.809   7.880  11.642
69213W        W42281  16.916  26.401   4.515
69214W        W42282  24.491  27.235  14.397
69215W        W42283  43.531  40.857   4.869
69216W        W42284  32.076  19.666   3.620
69217W        W42285  32.384   3.838   2.795
69218W        W42286  12.595  27.165  12.358
69219W        W42287  24.763   9.146   1.503
69220W        W42288  27.982  17.135   2.900
69221W        W42289  34.023   7.836   5.069
69222W        W42290   7.697  10.331   4.005
69223W        W42291  15.254  33.893   4.848
69224W        W42292  38.265   7.162  14.051
69225W        W42293  43.734  36.563   1.207
69226W        W42294  24.733   7.790   4.479
69227W        W42295  42.183  14.320   1.875
69228W        W42296  32.705  18.812  11.141
69229W        W42297  35.908  43.503   1.888
69230W        W42298   4.280  10.325  14.421
69231W        W42299  27.229  37.109   1.510
69232W        W42300  28.351  42.004  13.887
69233W        W42301   5.028  37.043  12.859
69234W        W42302  26.927  39.573   1.884
69235W        W42303  23.596   7.097  12.146
69236W        W42304  23.038   4.934   2.179
69237W        W42305  37.138   5.189  12.551
69238W        W42306  17.883  22.786   2.696
69239W        W42307  28.034  29.721   4.557
69240W        W42308  32.784  19.225  13.474
69241W        W42309  30.857   7.790   0.171
69242W        W42310   9.887  18.999   9.689
69243W        W42311   8.381   9.168  13.962
69244W        W42312  28.737  34.247  14.039
69245W        W42313   5.673  23.295  11.150
69246W        W42314   7.201  22.770   0.828
69247W        W42315  20.543  29.130   3.847
69248W        W42316   5.214  26.693   2.282
69249W        W42317  23.545  31.557  11.566
69250W        W42318   3.097  13.228  11.523
69251W        W42319  32.614  20.025   3.330
69252W        W42320  12.292  27.722  13.793
69253W        W42321  41.914   2.714   4.600
69254W        W42322  26.757  31.545   1.300
69255W        W42323  42.942  32.642  10.708
69256W        W42324  34.433  15.711  11.673
69257W        W42325  10.352  43.601   1.442
69258W        W42326  10.948  29.092  10.689
69259W        W42327   9.733  17.279  12.757
69260W        W42328  21.411  10.177  10.542
69261W        W42329   9.681  14.866  12.921
69262W        W42330  10.761  12.039   4.208
69263W        W42331  29.922  13.639   1.603
69264W        W42332  21.216  36.454  14.284
69265W        W42333  16.435  40.737   4.635
69266W        W42334  17.300  15.695  14.370
69267W        W42335  14.935  40.486   3.702
69268W        W42336  13.251   9.598   1.685
69269W        W42337  39.502   1.091   0.263
69270W        W42338  16.832  23.599   0.308
69271W        W42339  18.315  26.779  10.592
69272W        W42340  28.518   9.606   3.733
69273W        W42341  29.592  17.711  14.327
69274W        W42342  10.780   4.636  11.988
69275W        W42343  14.837   7.137   1.966
69276W        W42344  23.626  20.081   1.259
69277W        W42345  39.050  11.589  13.579
69278W        W42346  13.280  42.333  11.196
69279W        W42347  31.514  44.994  14.824
69280W        W42348  41.419  37.499   1.902
69281W        W42349  10.349  26.001  11.466
69282W        W42350  40.361   1.861   1.314
69283W        W42351  12.614   6.749   3.739
69284W        W42352   1.919  29.858  11.730
69285W        W42353   7.853  29.415   0.375
69286W        W42354   6.254  42.407   1.384
69287W        W42355  31.812  23.461   0.471
69288W        W42356  22.592  39.947  11.586
69289W        W42357  41.812  23.521  11.598
69290W        W42358  17.783  12.925  11.111
69291W        W42359   9.528   5.347  12.541
69292W        W42360   1.517   8.975   2.185
69293W        W42361   0.023  10.845   4.612
69294W        W42362  44.082  27.145  11.476
69295W        W42363  35.705   8.750   1.510
69296W        W42364  37.394  13.051  14.428
69297W        W42365  33.009  40.369  11.916
69298W        W42366  12.706  25.206   1.297
69299W        W42367  34.405  42.886   4.623
69300W        W42368  30.092   5.227   3.127
69301W        W42369  23.279  23.613  13.282
69302W        W42370   4.903   6.352   3.681
69303W        W42371  10.622  32.571  14.343
69304W        W42372  31.869  13.028  11.571
69305W        W42373   8.117  38.097  12.795
69306W        W42374  43.301   9.682   0.962
69307W        W42375  38.116  13.066  11.201
69308W        W42376   5.793  24.856  12.572
69309W        W42377  34.852  30.912  10.932
69310W        W42378  26.505  21.167   9.983
69311W        W42379  17.815  44.306   4.074
69312W        W42380  41.299  29.374   3.813
69313W        W42381  31.491  43.066  13.442
69314W        W42382   5.142   4.870  12.817
69315W        W42383  23.706  28.659  11.639
69316W        W42384  32.019  35.003  13.324
69317W        W42385  21.689   1.317   5.127
69318W        W42386  23.602  30.546   3.704
69319W        W42387  12.078  28.180   1.678
69320W        W42388  17.199   8.447  11.430
69321W        W42389  43.811  10.336   2.890
69322W        W42390  30.521   0.383   1.781
69323W        W42391  26.025  38.591  14.640
69324W        W42392  41.905  29.881   0.841
69325W        W42393  32.253  38.987  10.002
69326W        W42394   5.807   6.357   4.479
69327W        W42395  29.425  29.926   3.824
69328W        W42396  40.499  15.727  13.904
69329W        W42397  15.765  36.346   4.165
69330W        W42398   7.492  35.503   4.785
69331W        W42399   0.868  15.741  10.827
69332W        W42400   1.665  44.658  12.646
69333W        W42401  30.441  17.625  11.799
69334W        W42402  40.456  18.237  12.942
69335W        W42403   1.774  35.940   4.616
69336W        W42404  41.199   5.905  12.470
69337W        W42405  25.728  26.657   2.634
69338W        W42406  36.605  29.222   1.877
69339W        W42407  33.798  22.361   1.847
69340W        W42408  19.451  12.105  13.590
69341W        W42409  40.659  24.545   4.379
69342W        W42410  34.220  34.390   4.571
69343W        W42411  25.617   6.483   1.917
69344W        W42412  39.593  19.707  12.408
69345W        W42413  12.677  15.661   3.112
69346W        W42414  28.956  22.409   2.379
69347W        W42415  13.666   6.809  14.987
69348W        W42416   1.096  43.854  12.666
69349W        W42417  11.545   9.405   0.498
69350W        W42418   1.815  43.707  12.460
69351W        W42419   8.909  34.533  11.508
69352W        W42420  40.799   5.710   1.902
69353W        W42421  25.037   5.037  11.164
69354W        W42422  32.522   3.455   3.224
69355W        W42423  26.850  17.131   1.891
69356W        W42424  26.006  39.075  11.417
69357W        W42425  35.680  26.046   0.418
69358W        W42426  10.036  33.461   1.728
69359W        W42427  10.774  29.649  11.070
69360W        W42428  21.141  34.405   1.895
69361W        W42429  35.559  39.419  10.739
69362W        W42430   7.015  17.081   4.192
69363W        W42431  29.965  24.850  14.918
69364W        W42432  44.921  36.511  11.969
69365W        W42433   2.838  44.409  12.163
69366W        W42434  16.916  28.970   0.285
69367W        W42435  44.773  40.565   4.788
69368W        W42436  21.291  44.297  10.641
69369W        W42437  27.654  31.162   1.249
69370W        W42438  34.153  31.581  13.822
69371W        W42439  18.611  35.118   4.092
69372W        W42440  31.371  35.602  11.772
69373W        W42441   0.766  44.055  14.583
69374W        W42442  17.613  20.328  13.362
69375W        W42443  27.495  15.301   1.676
69376W        W42444  39.592   4.401   0.491
69377W        W42445  35.529   6.442   2.787
69378W        W42446  27.776  40.479   0.481
69379W        W42447  34.565  30.183   0.012
69380W        W42448  20.570  36.900  13.943
69381W        W42449   8.385  44.042   1.532
69382W        W42450   5.649  14.063  11.102
69383W        W42451  32.562  39.814   4.527
69384W        W42452  11.160  24.595   2.894
69385W        W42453   7.098  34.201  14.713
69386W        W42454  23.382   3.998  13.443
69387W        W42455   3.496  32.902  14.433
69388W        W42456  27.524  44.994  13.337
69389W        W42457  31.047  13.633   4.660
69390W        W42458   2.812  28.457   2.378
69391W        W42459  23.104  43.885  14.736
69392W        W42460   8.601  17.545  10.706
69393W        W42461  28.629  21.564   4.443
69394W        W42462  12.043  41.435  11.170
69395W        W42463  28.540   2.810   1.746
69396W        W42464  30.424  26.097  13.056
69397W        W42465  21.044  22.984  13.001
69398W        W42466  22.040  20.752   4.898
69399W        W42467  31.917  41.983   3.455
69400W        W42468  29.009  11.529  11.944
69401W        W42469  15.189   3.167   2.253
69402W        W42470  36.815  15.665   0.740
69403W        W42471  39.719   9.619   0.359
69404W        W42472  38.238   9.360  14.845
69405W        W42473   2.154   6.421  10.855
69406W        W42474  19.798  34.624  14.478
69407W        W42475  28.543  22.971   3.967
69408W        W42476  30.632   2.396  12.526
69409W        W42477  15.129  22.682  13.038
69410W        W42478  44.282  35.583  13.352
69411W        W42479  30.902  24.316   1.292
69412W        W42480  40.038  37.427   3.653
69413W        W42481  39.273  36.814   3.183
69414W        W42482  40.464  37.849   1.576
69415W        W42483   6.788  30.340   3.880
69416W        W42484  39.978  15.557   0.232
69417W        W42485  39.531  14.754  14.086
69418W        W42486  42.192   7.224   0.314
69419W        W42487  38.967  33.100   0.679
69420W        W42488  10.128  22.521   4.727
69421W        W42489  27.162  32.379   4.391
69422W        W42490  19.959   2.539  11.063
69423W        W42491  41.895  42.763   2.822
69424W        W42492   2.147  25.094   1.693
69425W        W42493  16.062  36.386   4.889
69426W        W42494  43.577  17.115  13.488
69427W        W42495  33.535   2.222  12.620
69428W        W42496   0.998  33.575  12.966
69429W        W42497  38.114  23.712   3.528
69430W        W42498  43.021   5.163   2.786
69431W        W42499   8.166   1.275  10.877
69432W        W42500  21.281  38.349   0.963
69433W        W42501  25.523   5.426  10.737
69434W        W42502  38.651  41.658  14.494
69435W        W42503  14.138   8.288  10.767
69436W        W42504  12.983  40.790  13.510
69437W        W42505  41.016  31.765  10.993
69438W        W42506  13.325   2.536  13.425
69439W        W42507  26.220  19.230  14.173
69440W        W42508  41.615  18.114   1.663
69441W        W42509  10.166  43.380   4.549
69442W        W42510  19.234  31.641  13.362
69443W        W42511  29.727   8.638  11.589
69444W        W42512  19.211  13.158  10.455
69445W        W42513  41.786   0.172   5.564
69446W        W42514  26.772   5.216   0.806
69447W        W42515  34.402  17.568  10.664
69448W        W42516   6.590  36.918  13.816
69449W        W42517  14.948  24.178   0.206
69450W        W42518  11.854  19.131  12.144
69451W        W42519  39.849  39.839  14.002
69452W        W42520  34.256  13.589   1.698
69453W        W42521  30.251  23.429  13.924
69454W        W42522  37.155  17.387  11.161
69455W        W42523  13.068  13.693   1.399
69456W        W42524  23.013  20.996  12.041
69457W        W42525  42.415  17.017   1.885
69458W        W42526  39.345  38.909  12.886
69459W        W42527  37.311  39.210   0.708
69460W        W42528  34.831  28.261  10.679
69461W        W42529  27.432  37.531   2.653
69462W        W42530  30.094  24.559   0.313
69463W        W42531  41.553  16.744   0.535
69464W        W42532  20.875  33.980   3.353
69465W        W42533  12.374  41.719  12.330
69466W        W42534   5.463  34.076  11.869
69467W        W42535   6.871  15.174  14.437
69468W        W42536  31.715  15.305  11.308
69469W        W42537  40.867   8.839   4.448
69470W        W42538  26.979   9.092   3.193
69471W        W42539   5.831   5.589  11.103
69472W        W42540  25.685  32.665  10.754
69473W        W42541  22.288  18.603  12.419
69474W        W42542   8.095   8.249   3.858
69475W        W42543   3.751  32.755  12.579
69476W        W42544  31.462  21.518  13.395
69477W        W42545  25.744  17.123   4.700
69478W        W42546  36.397  14.468  12.335
69479W        W42547  33.163   5.940   3.750
69480W        W42548  38.909  44.795  14.889
69481W        W42549  13.319   4.778   0.220
69482W        W42550  35.436  44.518   1.265
69483W        W42551  28.897  43.139  13.325
69484W        W42552  14.183  18.574   3.156
69485W        W42553  31.635  29.537   3.254
69486W        W42554   6.737  33.865  12.501
69487W        W42555  39.927   3.631  11.434
69488W        W42556  12.094   0.231  11.162
69489W        W42557  28.261  44.340   1.679
69490W        W42558   9.113  30.494   3.723
69491W        W42559  43.287  10.575   0.322
69492W        W42560   8.576  36.654   2.644
69493W        W42561   6.721  13.435   0.366
69494W        W42562  37.482   7.149   4.947
69495W        W42563   5.205   5.950  14.817
69496W        W42564  33.006  19.001   4.310
69497W        W42565   3.950  26.548  13.030
69498W        W42566  19.077   8.652  12.970
69499W        W42567   9.679  43.863   1.075
69500W        W42568  38.835  29.110  13.481
69501W        W42569  28.682   5.494   0.407
69502W        W42570  31.675  43.350  10.896
69503W        W42571   1.259  18.265  14.297
69504W        W42572  25.275  38.866   4.176
69505W        W42573  32.978  29.562  11.649
69506W        W42574  16.979   7.745   3.108
69507W        W42575   5.423  30.092   1.792
69508W        W42576  14.772  17.863   2.276
69509W        W42577  15.656  29.329   3.688
69510W        W42578  39.875  26.457   0.216
69511W        W42579   0.015  10.684  11.389
69512W        W42580  26.006  17.251   3.299
69513W        W42581  20.720   2.801   0.892
69514W        W42582  18.488  40.053  10.912
69515W        W42583  26.029  39.080  10.519
69516W        W42584  15.398  21.500   4.148
69517W        W42585  13.243   9.855   0.768
69518W        W42586  31.917  11.267   1.607
69519W        W42587  11.294  13.183   0.057
69520W        W42588  16.014  32.591  11.073
69521W        W42589  33.853  42.332  10.727
69522W        W42590  32.872  40.305   2.884
69523W        W42591  14.564  40.053  12.006
69524W        W42592   4.277  30.664  11.240
69525W        W42593  18.565   4.221  14.795
69526W        W42594  16.906  38.451  13.095
69527W        W42595  44.736  28.183  14.883
69528W        W42596  19.806  32.298  13.826
69529W        W42597   3.414  30.900  14.446
69530W        W42598   4.369  17.099  12.892
69531W        W42599   5.879  39.286   0.893
69532W        W42600  34.009  19.738  14.623
69533W        W42601  17.518   9.177  10.587
69534W        W42602  13.180  19.403   3.320
69535W        W42603  30.500  21.271   3.187
69536W        W42604  21.153  36.560  12.505
69537W        W42605  40.044  16.489   2.827
69538W        W42606  27.529  41.122  11.652
69539W        W42607  36.776   8.425  12.733
69540W        W42608  40.032  43.587   3.238
69541W        W42609  17.341   6.496  13.940
69542W        W42610  39.088   6.978  14.950
69543W        W42611  37.758  44.285   2.266
69544W        W42612  22.635  34.095  12.845
69545W        W42613  37.717  30.643  11.538
69546W        W42614  23.464  13.929   0.272
69547W        W42615   7.884   2.252  11.667
69548W        W42616  38.740  34.853   4.567
69549W        W42617  37.576  38.753  12.395
69550W        W42618  16.185  16.059  14.946
69551W        W42619  35.936  19.822   3.202
69552W        W42620  35.846   6.251   1.470
69553W        W42621  13.791   0.678  13.623
69554W        W42622   6.938  41.522   1.313
69555W        W42623  40.097  17.747  11.878
69556W        W42624  11.441   0.424   4.360
69557W        W42625  23.769  37.674   0.686
69558W        W42626  14.177  38.521  11.904
69559W        W42627  40.014  25.895   2.924
69560W        W42628  12.196  23.706  11.630
69561W        W42629  21.719  33.830  14.507
69562W        W42630  17.839   0.583   2.886
69563W        W42631  19.220  33.992   5.015
69564W        W42632  32.693  36.233   1.290
69565W        W42633  18.511  19.654  10.316
69566W        W42634  20.203   6.919   4.080
69567W        W42635  38.762  15.913   2.274
69568W        W42636  34.193   6.650  12.836
69569W        W42637  19.330   3.441   3.696
69570W        W42638  21.031   4.719   1.910
69571W        W42639  11.237  12.812   1.324
69572W        W42640  26.506  10.210  10.354
69573W        W42641  42.851  34.312   0.875
69574W        W42642  42.420   7.007  13.529
69575W        W42643  15.548  41.575   2.807
69576W        W42644  24.955  22.581   4.185
69577W        W42645  39.541  40.783  11.675
69578W        W42646  39.403  34.311   1.914
69579W        W42647  12.269  40.022   4.526
69580W        W42648  17.784  27.656   1.290
69581W        W42649  27.742  12.854   3.069
69582W        W42650  35.943  26.177   0.863
69583W        W42651  44.152  22.620  13.445
69584W        W42652  25.491   9.928   4.583
69585W        W42653  16.189   3.412  12.635
69586W        W42654  13.841  40.410  14.838
69587W        W42655  37.246  42.620  12.509
69588W        W42656  34.323   6.221  10.158
69589W        W42657  38.029  19.729  10.757
69590W        W42658   7.180  34.028  13.776
69591W        W42659  21.040  11.234  14.146
69592W        W42660   1.631  19.669   3.665
69593W        W42661  12.310  39.830   2.369
69594W        W42662   7.707   4.508  11.135
69595W        W42663  35.563   6.120   0.691
69596W        W42664  30.594  27.533  13.611
69597W        W42665   1.602  24.951   0.817
69598W        W42666   5.277  15.808  11.424
69599W        W42667  25.644  14.860  11.083
69600W        W42668  41.901  11.884  12.056
69601W        W42669   3.662   1.693  14.397
69602W        W42670  31.073  26.091  11.365
69603W        W42671  25.931   1.355  11.157
69604W        W42672  11.780  31.995   3.238
69605W        W42673  35.385  14.755   0.611
69606W        W42674   1.767  10.671   0.334
69607W        W42675  35.162  18.904  14.870
69608W        W42676   3.078  11.614  12.870
69609W        W42677   8.092   3.935  13.623
69610W        W42678  12.614   9.210  12.056
69611W        W42679  11.923  28.389  11.046
69612W        W42680  28.143  22.655   1.444
69613W        W42681  39.148  28.965  13.117
69614W        W42682  26.411  43.365  11.914
69615W        W42683  26.802  15.307  12.356
69616W        W42684  35.052   6.936   1.729
69617W        W42685  13.139  20.583  11.154
69618W        W42686  12.021   3.166  12.004
69619W        W42687  13.212  11.684  12.536
69620W        W42688  18.600  30.406  13.556
69621W        W42689  32.584  26.704  11.206
69622W        W42690  38.492   1.372   4.616
69623W        W42691  42.498   5.788  13.909
69624W        W42692  38.166  16.522  13.892
69625W        W42693  29.409   6.083  10.356
69626W        W42694  41.313   5.342   2.424
69627W        W42695   2.166  14.287   1.258
69628W        W42696  18.661  29.622   3.844
69629W        W42697  18.443  11.403   3.943
69630W        W42698  39.992  42.197  12.053
69631W        W42699   2.255  23.721  14.767
69632W        W42700  28.956  38.867  12.549
69633W        W42701   5.938   9.616  11.507
69634W        W42702  37.773   2.923  11.688
69635W        W42703  31.978   5.996  10.701
69636W        W42704  19.760  23.609  13.935
69637W        W42705  22.208  39.366  11.009
69638W        W42706  15.220  41.354  12.713
69639W        W42707  39.456  10.399  13.865
69640W        W42708   0.902  33.785   0.831
69641W        W42709  19.180  43.275   0.271
69642W        W42710  39.804  19.087  11.594
69643W        W42711  14.623  44.507   0.941
69644W        W42712  20.732  13.115   2.817
69645W        W42713   7.109  31.349  11.947
69646W        W42714   7.130   9.216  10.390
69647W        W42715  28.640   6.882   1.281
69648W        W42716  24.139  33.119   2.374
69649W        W42717  18.828  42.540   3.176
69650W        W42718   3.700  39.841  12.140
69651W        W42719  28.533  28.650  12.547
69652W        W42720  31.120  29.552  14.288
69653W        W42721  24.121  22.731  13.770
69654W        W42722   0.489  31.428  10.675
69655W        W42723  39.274  21.048   1.820
69656W        W42724  10.263   7.852   0.883
69657W        W42725  42.815  29.978   1.891
69658W        W42726  13.259  30.436  14.227
69659W        W42727  33.838  44.973   1.859
69660W        W42728   3.867  34.419   4.269
69661W        W42729  33.838  27.140  11.938
69662W        W42730  15.766  41.951  12.019
69663W        W42731  41.905  44.974  14.745
69664W        W42732  17.222  34.905  10.738
69665W        W42733  26.665  32.152  11.556
69666W        W42734  26.579   0.319   2.852
69667W        W42735  33.959  42.239   2.585
69668W        W42736   0.849  21.790   3.804
69669W        W42737  30.503   8.824  14.564
69670W        W42738  41.302  29.058   4.611
69671W        W42739  28.534  25.221  11.685
69672W        W42740  29.301  18.887  12.030
69673W        W42741  28.376  14.676   4.349
69674W        W42742   0.755  17.674  11.190
69675W        W42743  24.206  29.045  12.440
69676W        W42744  21.791  42.377  12.674
69677W        W42745   2.420  27.685   0.440
69678W        W42746   3.019  43.874  12.856
69679W        W42747   2.223  21.546   2.319
69680W        W42748  17.070   7.244  10.778
69681W        W42749   6.964  23.084   3.670
69682W        W42750  30.641   3.535   3.769
69683W        W42751   3.307   4.435   4.624
69684W        W42752  26.573  25.712  12.955
69685W        W42753  18.768  38.879   4.625
69686W        W42754  10.769  35.033   0.825
69687W        W42755  42.261  22.191   3.720
69688W        W42756  31.455   6.800   1.086
69689W        W42757  35.501   5.616  12.460
69690W        W42758  10.872  11.156   3.333
69691W        W42759  33.558  16.541  10.946
69692W        W42760  14.882  19.665   4.046
69693W        W42761  26.605  44.518  12.433
69694W        W42762  31.500  42.553   2.453
69695W        W42763   1.770  25.084  13.958
69696W        W42764  15.976  37.969  10.604
69697W        W42765  15.551  41.048   2.775
69698W        W42766  37.788   7.801  14.451
69699W        W42767   5.872  14.343  11.483
69700W        W42768  37.048  25.570   1.372
69701W        W42769  33.637  27.226  11.476
69702W        W42770  36.157   8.796  12.830
69703W        W42771  43.087  32.615  13.026
69704W        W42772  12.443  34.303  14.015
69705W        W42773  35.371  41.458  13.684
69706W        W42774  13.136  12.567  13.366
69707W        W42775  12.197  25.087  11.443
69708W        W42776  36.990  38.225   2.741
69709W        W42777  25.906  29.161  14.790
69710W        W42778  25.216  40.174  10.234
69711W        W42779  36.961  17.838  14.374
69712W        W42780  13.844  33.889   4.234
69713W        W42781  43.323   9.174   3.690
69714W        W42782   3.702  12.333  14.802
69715W        W42783  26.963   1.059  10.686
69716W        W42784  32.033  25.600  11.921
69717W        W42785   0.009   4.478  10.698
69718W        W42786  18.530  23.358   2.536
69719W        W42787  23.512  24.003  14.936
69720W        W42788   1.496  44.026  10.373
69721W        W42789  28.669  39.028  12.964
69722W        W42790  18.564  36.237  13.800
69723W        W42791  25.457  30.261  10.308
69724W        W42792  25.639   7.755   0.779
69725W        W42793   0.562   6.921  14.084
69726W        W42794  26.048  31.156   3.762
69727W        W42795  40.471  29.146  10.228
69728W        W42796  40.928  28.651  12.537
69729W        W42797  14.278  21.928  12.447
69730W        W42798  14.767  41.242  11.609
69731W        W42799   9.750  33.056  11.263
69732W        W42800  41.512  11.973   0.744
69733W        W42801  13.358   8.350   2.334
69734W        W42802  35.007  41.474   4.975
69735W        W42803   0.677   7.378   4.999
69736W        W42804  15.896   1.240   2.891
69737W        W42805   6.566  20.460  11.590
69738W        W42806  19.279  18.872   2.281
69739W        W42807  42.012  30.466  12.356
69740W        W42808  20.814  27.179  12.635
69741W        W42809   1.855  35.373  13.821
69742W        W42810  24.565  23.112  14.754
69743W        W42811   0.975  19.810  11.874
69744W        W42812  19.551  13.103  10.960
69745W        W42813  42.005  32.341  11.914
69746W        W42814  30.238  22.232  12.104
69747W        W42815  33.015  31.943  12.491
69748W        W42816  24.082  25.514  13.579
69749W        W42817   5.778  27.942  10.446
69750W        W42818  15.604  39.895  12.004
69751W        W42819   6.845  44.202  12.941
69752W        W42820   2.485  43.496   2.252
69753W        W42821  38.760  29.107  14.424
69754W        W42822  28.726  31.169  11.208
69755W        W42823  36.272   5.852  13.573
69756W        W42824  11.291  40.061   1.778
69757W        W42825  27.486  21.541   3.813
69758W        W42826  33.031   2.936   2.176
69759W        W42827  16.593  19.566  13.874
69760W        W42828   2.284  12.287   1.957
69761W        W42829  32.358   5.869   0.200
69762W        W42830  14.003  38.834  13.075
69763W        W42831  36.941   4.785   3.335
69764W        W42832  15.868   9.122  13.426
69765W        W42833  15.300  40.863  13.694
69766W        W42834  37.086  35.585  14.509
69767W        W42835  12.307   1.082   4.178
69768W        W42836  27.346   6.651   1.767
69769W        W42837  13.559  12.310  14.014
69770W        W42838  29.800   8.199   2.668
69771W        W42839   5.431  27.527  10.950
69772W        W42840  41.438  25.237  13.308
69773W        W42841  25.606  23.517  10.774
69774W        W42842  39.592  24.161   3.228
69775W        W42843   7.458  29.482   1.316
69776W        W42844  40.340  21.248  11.589
69777W        W42845   1.644   9.345   4.722
69778W        W42846   3.061  36.664   3.077
69779W        W42847   3.505   4.005   4.344
69780W        W42848  18.153   2.246  10.539
69781W        W42849  24.688  38.926  13.439
69782W        W42850  26.488  31.594   3.810
69783W        W42851  26.098  18.597   0.328
69784W        W42852   0.217   4.386  12.088
69785W        W42853  25.527  10.846  13.852
69786W        W42854  11.929  39.904   1.205
69787W        W42855  22.702  12.578   3.185
69788W        W42856   8.400  12.313   1.745
69789W        W42857   6.867   8.277   1.225
69790W        W42858  42.633  21.071   3.206
69791W        W42859  13.036   4.277  11.791
69792W        W42860  39.825  19.683   1.783
69793W        W42861  40.323  31.097   3.754
69794W        W42862  42.246  20.667   0.490
69795W        W42863  12.749   3.335   2.421
69796W        W42864  23.525   4.322   4.086
69797W        W42865  30.691   5.855   1.225
69798W        W42866   5.844  37.909  14.284
69799W        W42867  40.950  36.194   2.587
69800W        W42868  13.798   1.440   3.853
69801W        W42869  22.517  23.546   0.872
69802W        W42870   9.747  22.037  13.510
69803W        W42871  16.764   8.099   0.366
69804W        W42872  29.201  24.123   1.433
69805W        W42873  21.892  43.470   4.263
69806W        W42874  30.249  17.182  13.373
69807W        W42875  39.997  16.473  13.643
69808W        W42876  18.418  38.752   0.440
69809W        W42877  43.870   0.221   1.580
69810W        W42878  14.827  44.738  11.916
69811W        W42879   7.810  23.126  12.402
69812W        W42880  13.045   9.162   1.920
69813W        W42881  17.270  35.038   2.364
69814W        W42882   8.327  40.601  12.866
69815W        W42883  38.440   3.380  13.584
69816W        W42884   6.715  26.603   3.945
69817W        W42885  35.823  11.528   3.167
69818W        W42886  19.721   0.229   1.465
69819W        W42887  30.758  43.110   2.788
69820W        W42888   6.153  25.014  11.128
69821W        W42889  44.139  15.261  10.269
69822W        W42890  28.962  22.120   2.849
69823W        W42891  26.126  16.189  13.758
69824W        W42892  19.725  15.818   0.378
69825W        W42893  41.821   7.665  13.832
69826W        W42894  38.272  15.240  14.383
69827W        W42895   7.423  20.785   0.749
69828W        W42896   9.890  25.910  11.844
69829W        W42897   9.104  27.480  12.510
69830W        W42898  28.192  43.476   3.621
69831W        W42899  15.362  24.280  14.384
69832W        W42900  17.098  44.528   4.564
69833W        W42901  32.632  24.310  14.948
69834W        W42902  33.557   0.799   3.687
69835W        W42903  12.783  32.398  14.329
69836W        W42904  25.139  41.845  13.489
69837W        W42905  36.121  41.747  11.199
69838W        W42906  15.676  13.676  10.999
69839W        W42907   5.694  24.622  14.935
69840W        W42908  28.243  15.133   4.593
69841W        W42909  26.208  12.111  12.509
69842W        W42910  21.284  12.870   2.015
69843W        W42911   2.990  13.553  11.146
69844W        W42912   9.510  34.678   2.804
69845W        W42913  18.656   4.224   3.571
69846W        W42914  15.085  23.495  14.002
69847W        W42915  37.584  18.104   3.332
69848W        W42916   7.126  36.594   3.306
69849W        W42917  22.276  42.983  11.733
69850W        W42918  23.064   6.504  10.697
69851W        W42919  20.477   4.324  13.939
69852W        W42920  18.852   6.277   2.532
69853W        W42921  36.606  39.436  12.256
69854W        W42922   3.260  27.002   1.730
69855W        W42923  19.539  19.288   2.500
69856W        W42924   8.615  18.825   2.165
69857W        W42925  24.494  15.526   0.368
69858W        W42926  42.957  31.399  11.976
69859W        W42927  20.370  34.021  10.654
69860W        W42928   0.081   0.316  12.145
69861W        W42929  38.989  14.108  12.853
69862W        W42930  33.913  10.886  14.744
69863W        W42931  17.029  22.940  11.679
69864W        W42932  30.340  35.324  11.019
69865W        W42933  38.448  10.642   3.712
69866W        W42934  25.498   9.305   4.040
69867W        W42935  26.010  14.727   3.112
69868W        W42936  14.702  39.432   2.915
69869W        W42937  30.137  23.984   3.403
69870W        W42938  14.657  36.831  14.014
69871W        W42939   7.809  22.335  12.924
69872W        W42940   1.025  43.436   4.755
69873W        W42941  16.826  22.582   1.484
69874W        W42942   6.174  31.388  13.942
69875W        W42943  19.011   5.291   2.919
69876W        W42944  36.134  29.585  11.541
69877W        W42945  30.096  14.046   2.745
69878W        W42946  28.655  28.528   1.864
69879W        W42947  21.732  13.143  11.576
69880W        W42948  25.228   5.373   0.675
69881W        W42949  25.073  32.096  14.311
69882W        W42950  26.546  32.467   4.612
69883W        W42951  37.780   6.040  10.768
69884W        W42952  14.187   0.312  11.586
69885W        W42953  17.883  22.134   0.801
69886W        W42954  12.415  15.512   2.117
69887W        W42955  41.255  17.715  13.620
69888W        W42956   4.168   7.611   2.236
69889W        W42957   3.541  33.688  12.821
69890W        W42958  29.071  34.635   1.464
69891W        W42959  21.538   2.389  12.497
69892W        W42960  41.376  21.156  14.238
69893W        W42961  36.467  12.250   3.383
69894W        W42962  20.705  25.277  12.035
69895W        W42963   1.735  39.129  12.020
69896W        W42964   2.732  11.892   3.693
69897W        W42965  27.030  12.273  14.726
69898W        W42966  37.547   0.406  14.811
69899W        W42967   8.684  16.670  10.858
69900W        W42968  14.692  28.457  10.514
69901W        W42969  41.983   9.323  13.919
69902W        W42970  32.662   7.624  12.082
69903W        W42971  25.279   2.992   4.540
69904W        W42972  33.831  25.293  12.997
69905W        W42973  20.008   1.275  14.331
69906W        W42974  29.387   6.706  13.917
69907W        W42975  41.931  37.337   2.692
69908W        W42976  14.221  44.690   1.777
69909W        W42977   1.770  40.569   0.280
69910W        W42978  18.208  29.039  13.772
69911W        W42979   8.719   7.347   0.320
69912W        W42980  20.686   4.158   1.198
69913W        W42981   8.602  39.221  12.093
69914W        W42982  35.767  40.086   0.657
69915W        W42983  12.352  38.689  11.962
69916W        W42984  34.542   0.336   1.803
69917W        W42985  29.935  37.014  14.735
69918W        W42986  28.906  37.943  10.695
69919W        W42987  40.987  34.146  11.399
69920W        W42988   6.711   8.178   0.326
69921W        W42989  34.629  16.666   3.683
69922W        W42990  44.219  27.528  13.147
69923W        W42991  23.288  16.257   1.404
69924W        W42992  43.897  30.192  14.313
69925W        W42993  25.972   7.819   2.679
69926W        W42994  41.409  16.785  14.551
69927W        W42995  18.789   8.817   2.834
69928W        W42996  25.315  24.483   2.412
69929W        W42997   5.466   7.643  12.050
69930W        W42998   8.321  27.614  12.106
69931W        W42999   4.871  11.724  14.355
69932W        W43000   1.537  25.141   4.339
69933W        W43001  11.874  14.034   2.749
69934W        W43002  19.600  12.667   2.667
69935W        W43003  28.877  23.779   1.187
69936W        W43004  21.032  30.035  10.488
69937W        W43005  44.767  29.430  11.788
69938W        W43006  43.581  43.872  12.112
69939W        W43007  34.788  31.548  13.421
69940W        W43008  27.786  41.882   0.746
69941W        W43009  37.783  34.346   0.583
69942W        W43010   9.926   4.962  11.024
69943W        W43011  19.186  28.087   2.621
69944W        W43012  25.297  40.310   3.031
69945W        W43013  35.027  24.604   4.215
69946W        W43014  31.411   8.717  12.356
69947W        W43015  34.182   9.715  14.102
69948W        W43016  13.708  11.293  11.958
69949W        W43017  32.968   7.602   2.787
69950W        W43018   6.459   8.931  11.552
69951W        W43019   9.365  38.287   2.071
69952W        W43020  14.359  25.769  14.806
69953W        W43021  29.456  15.641   0.817
69954W        W43022   0.055  26.696  14.377
69955W        W43023  29.898   1.527   4.157
69956W        W43024  38.383   7.268  14.920
69957W        W43025   6.932  14.320  10.929
69958W        W43026  15.639  12.819  12.041
69959W        W43027  21.479  16.545   0.819
69960W        W43028   7.118   6.793   3.725
69961W        W43029  32.898  33.972   2.274
69962W        W43030  17.199  19.550   3.228
69963W        W43031  21.189   4.499   2.351
69964W        W43032  42.809  13.386  12.971
69965W        W43033  22.025  39.572  14.814
69966W        W43034  34.425  12.622  14.810
69967W        W43035  18.571  38.506   4.317
69968W        W43036  15.884  36.867  13.076
69969W        W43037  42.795   7.420  11.277
69970W        W43038  27.607  23.518  14.302
69971W        W43039  22.818  29.128   4.889
69972W        W43040  26.490  12.420  13.799
69973W        W43041  42.902  38.869  10.648
69974W        W43042  17.776  23.880   2.760
69975W        W43043  22.007  10.718   4.641
69976W        W43044  29.459   9.618   2.722
69977W        W43045   6.729  14.642   3.656
69978W        W43046  17.121  25.120  14.830
69979W        W43047  44.478  10.459   0.608
69980W        W43048  28.431  41.870   2.715
69981W        W43049   1.461  18.921   2.684
69982W        W43050  19.739  16.331  12.100
69983W        W43051   2.167  23.806  10.096
69984W        W43052  10.202  14.557   4.212
69985W        W43053  39.291  33.350   4.155
69986W        W43054  43.200  43.878  10.753
69987W        W43055  32.310   9.418   1.920
69988W        W43056  32.155  37.867   1.752
69989W        W43057   0.041   9.647   0.327
69990W        W43058   6.493   5.010   1.549
69991W        W43059  18.473  21.597  13.035
69992W        W43060  12.382  17.185  14.525
69993W        W43061   8.946  33.690  11.166
69994W        W43062  10.392  34.637  12.039
69995W        W43063  16.285  41.983  11.964
69996W        W43064  24.762  15.106   4.921
69997W        W43065   8.927  30.498  13.928
69998W        W43066  27.047   9.212   4.305
69999W        W43067  20.487  13.089  11.135
70000W        W43068  14.045  29.612  12.076
70001W        W43069   8.297  44.252  10.378
70002W        W43070  34.851   6.130  11.597
70003W        W43071   8.916  21.582   2.806
70004W        W43072  29.914  41.402   2.221
70005W        W43073   2.262  32.001   4.089
70006W        W43074  17.986  21.141   2.310
70007W        W43075  36.467  25.240  14.793
70008W        W43076   8.403  20.654   2.670
70009W        W43077  10.434  23.233   2.398
70010W        W43078  37.523  26.736  14.073
70011W        W43079  24.042  33.996  12.776
70012W        W43080  38.023  32.970   5.023
70013W        W43081  37.088  22.199   0.660
70014W        W43082  28.493  18.048   3.188
70015W        W43083  29.113  34.072  11.853
70016W        W43084  15.810  29.398   5.063
70017W        W43085   2.370  25.913   0.460
70018W        W43086  38.869  40.534  11.119
70019W        W43087  35.348  15.279  11.619
70020W        W43088  20.784  26.066   0.170
70021W        W43089   0.538  14.221   1.581
70022W        W43090  38.453  36.576  13.808
70023W        W43091  27.212  38.957   1.314
70024W        W43092  29.605  18.590   2.721
70025W        W43093  16.136  16.277   3.606
70026W        W43094   7.599  26.613   4.537
70027W        W43095  23.057  21.499   4.540
70028W        W43096  34.568  27.446  11.642
70029W        W43097  23.493  42.636  11.582
70030W        W43098  36.356  24.935  11.062
70031W        W43099  36.084   3.047  12.460
70032W        W43100  10.079  23.030  13.383
70033W        W43101  29.520  42.911   3.359
70034W        W43102  32.131  34.343   1.796
70035W        W43103  17.861  25.536  11.064
70036W        W43104  27.044  22.316  11.975
70037W        W43105  28.769  30.107  11.505
70038W        W43106  29.627  35.547  13.889
70039W        W43107  14.353  33.904   4.130
70040W        W43108  14.618   8.159  13.941
70041W        W43109  17.689  33.005   4.524
70042W        W43110   7.255  10.712  13.840
70043W        W43111  37.981  16.831   1.232
70044W        W43112   4.707   1.918  10.737
70045W        W43113  34.550  23.423  12.983
70046W        W43114  44.560  24.074  10.728
70047W        W43115  35.447   0.297  11.366
70048W        W43116   0.067  35.352  11.681
70049W        W43117  36.420  15.929   3.995
70050W        W43118  31.766  40.680  11.851
70051W        W43119   8.856  16.816  12.808
70052W        W43120   5.803  44.450  14.792
70053W        W43121  14.553  40.032  10.487
70054W        W43122  35.434  16.582  14.339
70055W        W43123  41.042  21.080  12.914
70056W        W43124  37.378   7.179  14.080
70057W        W43125  20.543  44.808  14.623
70058W        W43126  19.579  28.658   3.891
70059W        W43127  16.313  15.188  14.029
70060W        W43128  14.753  17.340  12.938
70061W        W43129  35.903  18.173   1.190
70062W        W43130  22.886  23.234   5.033
70063W        W43131  15.825  11.086   4.525
70064W        W43132   6.376  20.812   1.429
70065W        W43133  13.347  16.781   1.226
70066W        W43134  28.728  20.527  12.813
70067W        W43135   8.177  18.775  13.338
70068W        W43136  33.562  12.122  14.401
70069W        W43137  38.480  13.164  12.495
70070W        W43138  31.181  33.173  13.589
70071W        W43139  12.074  23.932  12.498
70072W        W43140  39.359  26.599  14.368
70073W        W43141   0.296  42.924   1.532
70074W        W43142  31.208  32.134  14.450
70075W        W43143  10.477  15.361   3.820
70076W        W43144  41.009   1.736  11.827
70077W        W43145   5.197  16.269  10.557
70078W        W43146  34.992  36.572   2.591
70079W        W43147  12.708  16.269  11.095
70080W        W43148   7.820  22.265  11.577
70081W        W43149  31.868  37.230   2.500
70082W        W43150  15.282  19.356  13.991
70083W        W43151   1.312  36.800  13.500
70084W        W43152  28.035  37.685  13.859
70085W        W43153  34.641   7.769  11.111
70086W        W43154  32.699  41.037   2.233
70087W        W43155   3.396   6.156  10.604
70088W        W43156  16.456   0.497  14.854
70089W        W43157  42.210   0.838   2.884
70090W        W43158  30.552  24.855  11.587
70091W        W43159  32.888  29.512  10.758
70092W        W43160   2.407  31.073  14.986
70093W        W43161  41.743  10.725   0.204
70094W        W43162  20.316  21.119   0.439
70095W        W43163  36.930  16.449  13.335
70096W        W43164  22.499  34.614   3.693
70097W        W43165  43.921  11.779  12.446
70098W        W43166  23.917  32.978   4.709
70099W        W43167   7.156  34.924   0.248
70100W        W43168  17.846  41.692   2.318
70101W        W43169  35.072  11.371   3.296
70102W        W43170  35.102  28.098  14.737
70103W        W43171  21.734  12.144   4.143
70104W        W43172  29.001  27.939  14.605
70105W        W43173  34.499   0.177   0.885
70106W        W43174  35.284  38.433  14.615
70107W        W43175  18.425  20.209   2.263
70108W        W43176  32.800  40.094   1.938
70109W        W43177  28.059  29.954   1.544
70110W        W43178  37.019  37.988  13.097
70111W        W43179  18.801  38.446   3.848
70112W        W43180  28.017  24.550  14.816
70113W        W43181  38.170  38.598   2.362
70114W        W43182   4.318  41.134   3.715
70115W        W43183  13.941  18.713   1.723
70116W        W43184  31.493  33.513   3.191
70117W        W43185  17.916  42.571   0.941
70118W        W43186  21.219  20.515   0.921
70119W        W43187  21.259  32.093  12.522
70120W        W43188  26.354  30.562   1.283
70121W        W43189  40.434  26.916  14.616
70122W        W43190  23.748  19.938  13.496
70123W        W43191  21.935  31.560  10.397
70124W        W43192  16.482  30.052  14.902
70125W        W43193  27.443  11.678   3.468
70126W        W43194  44.062  21.192   3.365
70127W        W43195   7.419  14.743  12.651
70128W        W43196  21.140  10.044   1.451
70129W        W43197   2.109  17.101   0.351
70130W        W43198  28.271  12.100  11.542
70131W        W43199  10.767   7.953   1.098
70132W        W43200   6.209  11.294   1.390
70133W        W43201  26.045  30.921   4.229
70134W        W43202  33.323  12.269   1.223
70135W        W43203  17.651  20.854  14.818
70136W        W43204  22.026  16.289   0.213
70137W        W43205  24.482  32.478   1.391
70138W        W43206  43.980  10.555   2.447
70139W        W43207  16.928  19.244  11.151
70140W        W43208  32.584  15.346  14.336
70141W        W43209  41.313  42.764  13.237
70142W        W43210   3.646   6.641   3.644
70143W        W43211   2.080  12.336  12.516
70144W        W43212  33.467   7.499   1.406
70145W        W43213  37.845  30.915  14.508
70146W        W43214  37.036  42.492  12.029
70147W        W43215  20.599  19.509   1.250
70148W        W43216   1.958  13.158  12.373
70149W        W43217  22.710  26.955   1.801
70150W        W43218  18.497  23.149   4.549
70151W        W43219  30.385   2.969  11.136
70152W        W43220  36.142  42.256   1.222
70153W        W43221  27.494   6.769  11.737
70154W        W43222  41.879  26.038   0.288
70155W        W43223  15.832  20.070   0.677
70156W        W43224   0.908  39.882  12.527
70157W        W43225  31.102  38.494   1.714
70158W        W43226  29.939  21.098   3.753
70159W        W43227  43.506   7.419   4.363
70160W        W43228   6.727  29.997   3.510
70161W        W43229  40.048  40.906  11.011
70162W        W43230  31.863  24.024  13.166
70163W        W43231  22.101  30.691  12.903
70164W        W43232  38.099  15.295   2.111
70165W        W43233  40.524  30.650   2.162
70166W        W43234  18.562  30.911   4.166
70167W        W43235  14.167   2.246   3.828
70168W        W43236  25.213  29.116   2.215
70169W        W43237   2.477   0.169  11.448
70170W        W43238   7.805  17.278  13.645
70171W        W43239   9.652  20.260  11.639
70172W        W43240  33.364  30.473  10.754
70173W        W43241   8.919  22.251  14.946
70174W        W43242  44.880  31.315  11.474
70175W        W43243  20.595  43.027   4.141
70176W        W43244   1.293  36.582   1.705
70177W        W43245  36.863  26.966  13.334
70178W        W43246  11.710   8.567   4.322
70179W        W43247  20.506  34.684   3.773
70180W        W43248   8.837  11.399  13.803
70181W        W43249   6.153   5.797  13.426
70182W        W43250   8.679  29.416   0.570
70183W        W43251   3.737  13.943  11.079
70184W        W43252  35.164  22.261   1.254
70185W        W43253  31.511  20.640   2.652
70186W        W43254  21.536   3.969   2.740
70187W        W43255  42.530  16.251   5.615
70188W        W43256  32.597  29.974   4.206
70189W        W43257  41.308   6.853   0.255
70190W        W43258  19.705  18.064   2.368
70191W        W43259  35.995  23.726   0.664
70192W        W43260  32.134  20.396   1.810
70193W        W43261   7.749   6.216   0.809
70194W        W43262  34.291  38.416  13.418
70195W        W43263   8.691  28.056   0.923
70196W        W43264  43.809   0.228  12.388
70197W        W43265  30.231  31.972   4.288
70198W        W43266   4.933  44.353   1.283
70199W        W43267  23.798  32.134   1.283
70200W        W43268  32.742  27.596   1.207
70201W        W43269  22.663   9.141   1.377
70202W        W43270  40.388  37.347   9.858
70203W        W43271  35.645   8.899   3.120
70204W        W43272  15.201  37.560   3.359
70205W        W43273   2.580   5.305  12.263
70206W        W43274  21.549  33.012   1.303
70207W        W43275  16.710  31.672   1.193
70208W        W43276  32.882  12.852   0.230
70209W        W43277  39.068   3.828  13.998
70210W        W43278  13.088  29.101  14.272
70211W        W43279  39.774  26.619   1.824
70212W        W43280   2.465   7.883   4.172
70213W        W43281  32.587  40.460  11.146
70214W        W43282  39.947  37.324  11.576
70215W        W43283   8.690   0.275  11.662
70216W        W43284  25.088  37.533   1.910
70217W        W43285  20.404   3.735   3.812
70218W        W43286  27.271  40.488   0.419
70219W        W43287  42.639  41.222  12.074
70220W        W43288  30.000  41.433   2.723
70221W        W43289  20.148  10.250   3.825
70222W        W43290  20.003   2.528  14.329
70223W        W43291  22.556  29.650   1.976
70224W        W43292  18.470   3.801  14.041
70225W        W43293  26.557   9.683   5.395
70226W        W43294   2.416  12.166   2.442
70227W        W43295  19.271  23.773   3.126
70228W        W43296  30.532  28.058  14.807
70229W        W43297  15.276  26.552   3.259
70230W        W43298  35.013   5.009   1.940
70231W        W43299   0.812  41.808   1.000
70232W        W43300  15.315   6.167   0.275
70233W        W43301  27.632  19.009   4.103
70234W        W43302  25.434  14.164   2.861
70235W        W43303  34.545  37.038   3.051
70236W        W43304  13.885  22.634  11.082
70237W        W43305  44.810  12.275   0.455
70238W        W43306   7.458  44.302  11.482
70239W        W43307  40.921  12.913  12.031
70240W        W43308  36.311  28.618   1.686
70241W        W43309  39.424   0.492   2.385
70242W        W43310  23.081  30.963  10.588
70243W        W43311  21.295  29.640   2.288
70244W        W43312  31.576  22.442   0.216
70245W        W43313  30.814  36.142   2.755
70246W        W43314  28.048   8.274  11.132
70247W        W43315  32.229  16.378  14.044
70248W        W43316   9.379  31.169   3.637
70249W        W43317  25.725  22.603  10.373
70250W        W43318  31.957   6.243   4.080
70251W        W43319  25.226  19.498   4.579
70252W        W43320  37.933  30.486  14.247
70253W        W43321  10.633  35.500  10.628
70254W        W43322  16.636  24.427   5.047
70255W        W43323   7.266  44.109   3.583
70256W        W43324   0.696  21.003  11.420
70257W        W43325  33.046  32.616   2.880
70258W        W43326  34.927   5.332   0.933
70259W        W43327   0.402   4.402   3.934
70260W        W43328  41.436  31.500  11.627
70261W        W43329  15.237  44.042  14.495
70262W        W43330  27.292  39.784   4.531
70263W        W43331  21.674  42.996   1.211
70264W        W43332  13.336  36.509   3.641
70265W        W43333  38.327  18.653  11.231
70266W        W43334  39.555   0.047   3.191
70267W        W43335   1.548  29.011   1.892
70268W        W43336   4.872  42.760   0.060
70269W        W43337   8.414  21.074  11.133
70270W        W43338   0.418   9.214  11.061
70271W        W43339  41.065  19.778  11.595
70272W        W43340  44.829  37.367  11.159
70273W        W43341  17.047  41.753  14.500
70274W        W43342  11.329  20.029  10.016
70275W        W43343  24.470   9.162  11.479
70276W        W43344  22.807  14.786   1.438
70277W        W43345  18.925   5.340   1.330
70278W        W43346  14.907  37.787  13.770
70279W        W43347   3.717   3.768  13.021
70280W        W43348  44.726  24.141  13.005
70281W        W43349   0.043  16.631  11.620
70282W        W43350  41.134  33.412  13.992
70283W        W43351   9.443   4.367  13.358
70284W        W43352  44.330  36.634  14.095
70285W        W43353   3.590  28.162   3.414
70286W        W43354  34.586  18.212   0.936
70287W        W43355  26.323   8.385   1.883
70288W        W43356  14.348   3.711   4.990
70289W        W43357   2.503   4.455  12.951
70290W        W43358  24.592  44.998   0.820
70291W        W43359  22.958  40.961  13.395
70292W        W43360  34.041   9.772  13.584
70293W        W43361  44.845  12.379   4.718
70294W        W43362   0.919  38.281  11.664
70295W        W43363  24.107  19.233  10.181
70296W        W43364  18.258  14.105   3.893
70297W        W43365  22.062  44.803   4.974
70298W        W43366  19.596  36.954   3.270
70299W        W43367  15.097  33.004  13.308
70300W        W43368  25.331  22.768   3.715
70301W        W43369  15.952   3.715  13.822
70302W        W43370  19.159  36.356   2.175
70303W        W43371  17.386  10.590  12.448
70304W        W43372   0.261  13.218  12.134
70305W        W43373  32.655   8.772   0.282
70306W        W43374  39.686  33.881  11.101
70307W        W43375  16.696   8.133  11.258
70308W        W43376   8.762  37.869   1.442
70309W        W43377  23.777  37.524  12.842
70310W        W43378   4.190  42.391   3.474
70311W        W43379  21.281  35.248   2.279
70312W        W43380   7.141   0.460  10.401
70313W        W43381  40.931  29.019   0.931
70314W        W43382  34.534  32.094   3.706
70315W        W43383  16.722  44.477  11.399
70316W        W43384  15.321  40.521   0.924
70317W        W43385  12.548   8.728  12.317
70318W        W43386  37.759  20.974  12.141
70319W        W43387  40.490  32.096   2.743
70320W        W43388  32.209  35.823  11.872
70321W        W43389  44.326  23.460  14.454
70322W        W43390  25.524  19.395   2.184
70323W        W43391  27.453   2.855  13.044
70324W        W43392  38.457   6.638   5.256
70325W        W43393  12.094   4.858   2.806
70326W        W43394  31.560  33.997   1.810
70327W        W43395  33.248  40.016  10.077
70328W        W43396  10.969  10.306  13.933
70329W        W43397  20.815  23.218   4.344
70330W        W43398   4.627   2.869   2.817
70331W        W43399  41.697   5.769  12.413
70332W        W43400   3.921  40.253  10.832
70333W        W43401   4.805  13.179   3.335
70334W        W43402  44.380  30.661   1.277
70335W        W43403  44.292  39.392  10.637
70336W        W43404   0.073  23.598   0.777
70337W        W43405  24.484  28.925   3.041
70338W        W43406  43.325   9.677  12.017
70339W        W43407  40.204  36.848  13.809
70340W        W43408  29.635  33.442  12.490
70341W        W43409  40.096  42.600  13.153
70342W        W43410  18.140   1.886   4.723
70343W        W43411  23.087  44.412   3.177
70344W        W43412   2.576  38.143  14.452
70345W        W43413  28.865   4.228   2.121
70346W        W43414  40.865  26.148   3.413
70347W        W43415   7.043  44.317  13.416
70348W        W43416   9.787  10.359  13.803
70349W        W43417  32.964  15.119  13.000
70350W        W43418  40.817  28.752   1.817
70351W        W43419  37.582  41.217  14.917
70352W        W43420   2.029  28.460   3.181
70353W        W43421   8.383   5.146  13.693
70354W        W43422   3.256  23.021  12.739
70355W        W43423   0.896  11.149   1.903
70356W        W43424   2.461  16.196   0.714
70357W        W43425  27.328  29.035  13.336
70358W        W43426  31.751  17.894   1.235
70359W        W43427  43.069  40.208   3.684
70360W        W43428  32.569   7.707   2.433
70361W        W43429  15.360   4.895  11.440
70362W        W43430  31.090  32.655  14.336
70363W        W43431  34.997  11.591  11.135
70364W        W43432  21.685   8.012   3.081
70365W        W43433   0.210  15.555   1.656
70366W        W43434  44.774  32.740   3.442
70367W        W43435  27.694  25.238  12.990
70368W        W43436  34.589  33.712  14.268
70369W        W43437   2.498  30.335   4.990
70370W        W43438  29.597  25.561   1.393
70371W        W43439  20.248   0.243  14.596
70372W        W43440  25.649   3.976   4.536
70373W        W43441  37.725  24.449   3.367
70374W        W43442  26.811  28.525   1.073
70375W        W43443  39.128  35.957   4.750
70376W        W43444  15.053  11.016   2.727
70377W        W43445  27.692  40.054  12.078
70378W        W43446  16.313  21.986  10.721
70379W        W43447  31.543  39.919   4.591
70380W        W43448   0.001   5.396   2.474
70381W        W43449  17.013  30.957   2.769
70382W        W43450  17.562  32.606  13.368
70383W        W43451   6.696   4.887  10.354
70384W        W43452  23.773  30.145  10.755
70385W        W43453  39.597  17.039  13.439
70386W        W43454  14.537  18.205  12.874
70387W        W43455  13.574  10.709   2.265
70388W        W43456   0.446  31.051   3.304
70389W        W43457  31.528  14.133   4.174
70390W        W43458   1.841  44.054  11.925
70391W        W43459   1.827  20.313  12.114
70392W        W43460   8.395  39.374  11.607
70393W        W43461  18.260  33.294  14.568
70394W        W43462  44.843  30.218  12.186
70395W        W43463  20.475  25.743   4.358
70396W        W43464  33.499  19.217  11.643
70397W        W43465  22.941  21.178   4.970
70398W        W43466  27.988  28.084  12.151
70399W        W43467   0.469  24.911  12.046
70400W        W43468  29.518  38.955   0.437
70401W        W43469  23.338  44.742   4.903
70402W        W43470   6.718  18.990   2.705
70403W        W43471  20.786   4.099  10.356
70404W        W43472  26.527  22.010   2.452
70405W        W43473  40.982  23.152  11.167
70406W        W43474  14.769  16.676   1.866
70407W        W43475   1.845  11.148   2.188
70408W        W43476   8.255   2.958  11.821
70409W        W43477  15.220  18.849   3.556
70410W        W43478   4.982  28.652  11.576
70411W        W43479  10.396   0.307   0.423
70412W        W43480   2.937  38.280  14.824
70413W        W43481  23.255  37.580   9.988
70414W        W43482  35.585  27.169   1.308
70415W        W43483   8.244  29.593  13.288
70416W        W43484   9.342  43.864  14.162
70417W        W43485   5.402  28.633   3.096
70418W        W43486   2.943  14.395   1.759
70419W        W43487   6.539  25.461  12.306
70420W        W43488  38.027  34.596   2.639
70421W        W43489   2.427   6.067  10.230
70422W        W43490  21.154  22.240   2.898
70423W        W43491   4.689  24.672  14.627
70424W        W43492  28.603  35.896  11.177
70425W        W43493   6.841  34.258   4.513
70426W        W43494  25.572  24.914   1.686
70427W        W43495  40.080  34.981   1.321
70428W        W43496  36.463  30.506   2.782
70429W        W43497  38.890  31.952  13.734
70430W        W43498  36.083   2.293   0.976
70431W        W43499  25.884  29.672   0.953
70432W        W43500  27.941  37.774   0.658
70433W        W43501  35.850   5.303  13.208
70434W        W43502  26.762  20.558  11.121
70435W        W43503  16.179  23.170   1.302
70436W        W43504  19.894   8.919   2.416
70437W        W43505  20.813  17.770   4.028
70438W        W43506  23.190  16.101   0.816
70439W        W43507  29.914  18.751  13.659
70440W        W43508  19.926  26.131  11.565
70441W        W43509  40.436  23.197   2.571
70442W        W43510  39.886   5.710   0.440
70443W        W43511  34.892  41.722  13.827
70444W        W43512   1.341  15.643   3.089
70445W        W43513  11.748  33.174  14.570
70446W        W43514  22.924   2.276   3.230
70447W        W43515  18.070  41.194   1.993
70448W        W43516   0.905  32.944  11.201
70449W        W43517  37.435  28.353  12.363
70450W        W43518  13.601  18.767   2.628
70451W        W43519   3.934  42.773  10.084
70452W        W43520  15.593  24.206   0.814
70453W        W43521  29.519  22.185  13.904
70454W        W43522  14.226   3.983   2.418
70455W        W43523   4.041  44.740  14.468
70456W        W43524  24.370  43.804   3.174
70457W        W43525   2.503  18.740   2.773
70458W        W43526  35.613  31.718   4.176
70459W        W43527  23.273  23.660   1.304
70460W        W43528  44.203  38.839   1.223
70461W        W43529  43.810   4.383   1.150
70462W        W43530  35.524   9.267   0.818
70463W        W43531   8.192  38.599   9.864
70464W        W43532  44.332   8.694   0.778
70465W        W43533  30.078  41.357  13.097
70466W        W43534  34.482   7.784  14.483
70467W        W43535  26.446  39.372  11.460
70468W        W43536   6.384  36.021  14.924
70469W        W43537  36.036  32.926   5.080
70470W        W43538  40.336  40.897  13.918
70471W        W43539  18.532  38.225  13.857
70472W        W43540  16.558  31.384   1.917
70473W        W43541   1.763  25.147   2.042
70474W        W43542  18.976  37.890  10.579
70475W        W43543  30.368   5.680   3.147
70476W        W43544  40.637  14.857   2.169
70477W        W43545  19.623  42.003   4.047
70478W        W43546  28.187  16.925   0.581
70479W        W43547  26.921   3.686  12.601
70480W        W43548  14.540  40.792  11.499
70481W        W43549  41.347  23.488  13.071
70482W        W43550  10.094  41.441  10.877
70483W        W43551  36.399  40.068  11.620
70484W        W43552  24.271  11.786   4.142
70485W        W43553  43.989  39.942   3.390
70486W        W43554  27.975  40.076  12.554
70487W        W43555  36.048  34.427  11.701
70488W        W43556  17.119   6.164  10.621
70489W        W43557  21.724  15.569  11.034
70490W        W43558   5.403  35.341  13.335
70491W        W43559  22.503   4.409   1.709
70492W        W43560   7.830  27.901  10.148
70493W        W43561   8.671  31.908  10.481
70494W        W43562  10.359  14.147   3.193
70495W        W43563   1.550  21.148   2.699
70496W        W43564  36.452  28.587  14.792
70497W        W43565  21.879  43.913  13.087
70498W        W43566  39.612  37.953   0.763
70499W        W43567  14.094  38.008  13.889
70500W        W43568  38.276   7.574  10.826
70501W        W43569  31.790   0.890   1.535
70502W        W43570  16.499  42.799  14.198
70503W        W43571  15.203  37.678   0.955
70504W        W43572   3.134   1.030  10.735
70505W        W43573   6.430  43.037   1.389
70506W        W43574   8.734  13.113  11.693
70507W        W43575  13.412  22.321   2.335
70508W        W43576   3.681  43.957  13.448
70509W        W43577  15.424  39.858   3.311
70510W        W43578  21.085  38.809   0.730
70511W        W43579  28.573  21.574  10.758
70512W        W43580   0.718  33.138  10.774
70513W        W43581  16.769  15.616  14.394
70514W        W43582  39.259  23.146   4.669
70515W        W43583  17.987  31.260   1.675
70516W        W43584  27.875  28.064  10.565
70517W        W43585  42.071  19.642  12.487
70518W        W43586  30.116  18.557   2.665
70519W        W43587  44.227  29.145   5.314
70520W        W43588   5.461  12.266  10.732
70521W        W43589  30.654   4.561   3.882
70522W        W43590  25.754   9.633   0.024
70523W        W43591  29.881  20.543  14.959
70524W        W43592  41.233  31.205   1.764
70525W        W43593  19.736  26.074  13.773
70526W        W43594  12.420   7.039  13.406
70527W        W43595  44.859  36.428  11.467
70528W        W43596   4.780   5.205  10.785
70529W        W43597  25.889  36.925  11.113
70530W        W43598  27.283  43.300   0.102
70531W        W43599  22.698  22.415  11.053
70532W        W43600  41.820   7.594   0.471
70533W        W43601  24.307  23.785  13.369
70534W        W43602   5.660  29.237   3.728
70535W        W43603   5.964  15.273   0.445
70536W        W43604  33.653  13.811  13.924
70537W        W43605  30.357  37.214  13.119
70538W        W43606  32.569  20.502  14.170
70539W        W43607   4.907  43.766  10.775
70540W        W43608  24.932   2.191   2.774
70541W        W43609  38.238   1.366  11.126
70542W        W43610  19.484  33.185   2.231
70543W        W43611   1.594  29.874  12.466
70544W        W43612  31.913  23.966   0.357
70545W        W43613  25.529   0.889  12.966
70546W        W43614   9.619  35.890  13.520
70547W        W43615   2.416  14.256  13.316
70548W        W43616   7.328  22.642   4.725
70549W        W43617  42.982  29.120   3.859
70550W        W43618  41.225  31.178  12.920
70551W        W43619   7.618  39.780   3.687
70552W        W43620  11.043  29.141   4.582
70553W        W43621   4.360  22.298   2.670
70554W        W43622   4.025  30.782   4.971
70555W        W43623   0.784  24.446   0.730
70556W        W43624  44.756  14.585   1.165
70557W        W43625  35.576  10.227  14.454
70558W        W43626  18.177  42.768   0.487
70559W        W43627  43.531  26.088   4.116
70560W        W43628  37.087  24.740   2.694
70561W        W43629  14.754  16.587   0.973
70562W        W43630   5.911  13.392   1.796
70563W        W43631  39.293  30.368   1.838
70564W        W43632  40.745   6.919  13.304
70565W        W43633  30.590  17.072   2.108
70566W        W43634   1.936  26.683   3.613
70567W        W43635   2.954  18.188   0.228
70568W        W43636  37.111  19.791   2.387
70569W        W43637  34.969  38.569   3.562
70570W        W43638  23.983   7.242  14.907
70571W        W43639  12.511  42.043   1.849
70572W        W43640  32.105   9.736   2.801
70573W        W43641  10.744   7.786  13.384
70574W        W43642  39.389  24.959  12.036
70575W        W43643   5.256   5.019  10.619
70576W        W43644  27.187  41.089  14.536
70577W        W43645   0.161   6.767  12.659
70578W        W43646  31.605  15.764  11.519
70579W        W43647  19.152  29.484   4.042
70580W        W43648   7.103  23.895   3.340
70581W        W43649  11.802  38.897   5.018
70582W        W43650  11.210  23.989  11.486
70583W        W43651  42.492  18.505   0.963
70584W        W43652  33.429  22.655  14.782
70585W        W43653  27.660   4.042   2.226
70586W        W43654  18.130  17.011   1.359
70587W        W43655  33.374  43.531   0.372
70588W        W43656  30.156  29.221  13.424
70589W        W43657   1.723  43.390   0.817
70590W        W43658  11.891  27.983  14.029
70591W        W43659  34.591  30.574  12.402
70592W        W43660  42.039  41.793   3.677
70593W        W43661  41.719  33.015  14.753
70594W        W43662  43.909  37.428   1.714
70595W        W43663  18.715   3.365  14.556
70596W        W43664  36.396   3.101   2.335
70597W        W43665  36.120  10.503   1.757
70598W        W43666  24.342   8.379  13.368
70599W        W43667  40.499  10.887  13.588
70600W        W43668  42.231   1.064  14.970
70601W        W43669   5.400  11.566   4.828
70602W        W43670  21.945  43.828  10.237
70603W        W43671  24.161  21.556  11.964
70604W        W43672  25.097  41.261   2.113
70605W        W43673  36.423  15.619  10.968
70606W        W43674   9.653  10.129   2.415
70607W        W43675  43.894  33.354  12.556
70608W        W43676  29.558  43.688  13.835
70609W        W43677   3.778   8.668   4.552
70610W        W43678  28.958   4.242  14.892
70611W        W43679   2.718  13.057  13.064
70612W        W43680  32.819  19.658  14.261
70613W        W43681  17.845  40.134   3.139
70614W        W43682  13.720   6.902  12.092
70615W        W43683   3.154  32.157   0.957
70616W        W43684  19.878  18.913  13.339
70617W        W43685   6.520  27.697  12.020
70618W        W43686  37.596  34.870   1.301
70619W        W43687  29.878  21.055   0.193
70620W        W43688  31.095  38.855   0.332
70621W        W43689  33.427  39.621  12.407
70622W        W43690   7.090  21.242   3.698
70623W        W43691  43.888  42.646  14.394
70624W        W43692  20.025  12.665  14.804
70625W        W43693   1.405  16.805  14.881
70626W        W43694  37.383   9.756   4.053
70627W        W43695  13.652  38.892   1.233
70628W        W43696  38.437  33.941   0.773
70629W        W43697   3.858  26.220   4.805
70630W        W43698  13.261  42.611   1.857
70631W        W43699  38.842  19.876   2.143
70632W        W43700  27.846  16.330  14.269
70633W        W43701  30.978  36.811   2.206
70634W        W43702  42.353  15.639  10.967
70635W        W43703  28.077  24.387  11.644
70636W        W43704  38.801  17.710   0.932
70637W        W43705  22.450  34.032  13.820
70638W        W43706  30.989   0.840   4.533
70639W        W43707  10.305   6.944   0.366
70640W        W43708  18.054  38.852   5.050
70641W        W43709  10.639  24.168   0.505
70642W        W43710  41.754  40.258   4.800
70643W        W43711  34.517  12.118  11.501
70644W        W43712  33.579  20.204  12.576
70645W        W43713  29.543  21.043   4.650
70646W        W43714   5.839  41.270  14.798
70647W        W43715  23.876   6.358  11.503
70648W        W43716  13.044  24.296  12.475
70649W        W43717  36.342  33.974   5.615
70650W        W43718   9.710   0.834   3.232
70651W        W43719  44.571  19.033   1.856
70652W        W43720  17.725  41.674  13.920
70653W        W43721  19.035  38.738   3.269
70654W        W43722  17.496   9.867   4.144
70655W        W43723  31.154   2.009   0.467
70656W        W43724  22.969   9.739  13.996
70657W        W43725   9.359  33.376   0.794
70658W        W43726  16.911  26.127  14.355
70659W        W43727  39.858  36.523  14.086
70660W        W43728   7.603  41.912   2.635
70661W        W43729  13.679  22.526  14.816
70662W        W43730   4.881  10.335  14.892
70663W        W43731  33.703  12.059  13.506
70664W        W43732  34.486   4.868  12.421
70665W        W43733  17.384  38.500  11.888
70666W        W43734  32.310  43.858   1.874
70667W        W43735  19.278  33.375   4.084
70668W        W43736  34.698   9.824   1.897
70669W        W43737   3.378  14.571   2.456
70670W        W43738  35.546  30.162  14.914
70671W        W43739  27.703  21.750   2.482
70672W        W43740  35.002  19.772  12.301
70673W        W43741  41.379  16.996   3.342
70674W        W43742  14.687  43.988   4.220
70675W        W43743  39.237  10.195   2.208
70676W        W43744  32.515  26.715   2.837
70677W        W43745   5.396   4.955  14.945
70678W        W43746  11.388  13.845   2.348
70679W        W43747   2.827  13.758  10.711
70680W        W43748  36.979  29.659  10.999
70681W        W43749   1.497  33.861  14.578
70682W        W43750  20.765   8.349   1.916
70683W        W43751   1.150  33.596  14.307
70684W        W43752  19.215  20.036  10.624
70685W        W43753   4.513  24.214  11.185
70686W        W43754   0.825   2.873   2.596
70687W        W43755   1.227  39.769  13.993
70688W        W43756  36.639   5.899   1.462
70689W        W43757  29.727  25.076   2.670
70690W        W43758  21.172   4.395   1.427
70691W        W43759  10.889  38.291  14.940
70692W        W43760  28.533   4.225  13.931
70693W        W43761  19.633  32.152  14.535
70694W        W43762  39.976  43.568   0.760
70695W        W43763  20.010  23.111   0.954
70696W        W43764  32.255  32.936  12.089
70697W        W43765  36.748  35.975  14.626
70698W        W43766  37.088  24.606   0.000
70699W        W43767  26.152   5.828  12.865
70700W        W43768   9.768  35.238   0.334
70701W        W43769  29.352  40.911  12.139
70702W        W43770  19.162  43.597  12.929
70703W        W43771  38.104  40.985   1.385
70704W        W43772  31.053   1.819   3.875
70705W        W43773  12.504   8.363   1.965
70706W        W43774  39.840  32.097   3.120
70707W        W43775  24.140  16.993   4.179
70708W        W43776  30.384   4.243  10.827
70709W        W43777  11.320   6.118   2.795
70710W        W43778   4.423  41.935   3.513
70711W        W43779  26.624  27.914  11.665
70712W        W43780  33.795  23.692   4.195
70713W        W43781  43.995  11.892   4.768
70714W        W43782  43.831  11.170   4.107
70715W        W43783  18.602   8.502   4.757
70716W        W43784  16.799  33.657  10.998
70717W        W43785  44.298  39.079  12.888
70718W        W43786  30.960   9.733   3.569
70719W        W43787  34.863  33.540   3.722
70720W        W43788  35.981  41.758   4.665
70721W        W43789  18.919   9.827  10.954
70722W        W43790  10.914   5.353   1.438
70723W        W43791  10.450  24.669   2.387
70724W        W43792  26.156  36.147  13.459
70725W        W43793  12.738  32.416  11.858
70726W        W43794   6.311  41.000   2.311
70727W        W43795  24.447  38.331  12.359
70728W        W43796  42.369  33.057   0.311
70729W        W43797   4.966   2.699  12.555
70730W        W43798  17.173  36.864   4.462
70731W        W43799   0.354  38.855   4.602
70732W        W43800   3.887   4.043  11.540
70733W        W43801   0.805  13.638   2.336
70734W        W43802  44.288  33.816  10.518
70735W        W43803  24.730   3.695  13.695
70736W        W43804  39.436  30.729   4.117
70737W        W43805  16.726  39.591   1.009
70738W        W43806  18.759  26.635  14.367
70739W        W43807  36.458  22.831  11.247
70740W        W43808   4.399  12.855   1.265
70741W        W43809   1.595   1.112   3.672
70742W        W43810  40.625  29.616  13.503
70743W        W43811  37.856  42.310   2.464
70744W        W43812  21.616  13.409   3.915
70745W        W43813  34.733  16.854  14.828
70746W        W43814  17.626  25.442   1.306
70747W        W43815  41.779  25.144   3.193
70748W        W43816  22.784  14.252  12.167
70749W        W43817  18.763  32.136   4.114
70750W        W43818   5.584  42.728  11.218
70751W        W43819  44.883  35.541   4.239
70752W        W43820  23.443  18.138  12.959
70753W        W43821   4.174  24.601  11.100
70754W        W43822  10.202  40.494   4.169
70755W        W43823  24.089  44.683  10.273
70756W        W43824  11.076  19.234   2.381
70757W        W43825  43.287  39.353   0.960
70758W        W43826  32.963  20.056  11.549
70759W        W43827  16.630  15.596   2.552
70760W        W43828  24.014  21.758   4.587
70761W        W43829   1.749  20.654   2.705
70762W        W43830  39.022  38.416  11.587
70763W        W43831  19.116   5.662  12.408
70764W        W43832  29.425  39.400  11.915
70765W        W43833  44.812  30.364   4.501
70766W        W43834  41.278  12.461   2.574
70767W        W43835  41.922  41.075  12.518
70768W        W43836  28.624  30.015   0.316
70769W        W43837   2.413  23.192   2.393
70770W        W43838  13.914   4.312   1.527
70771W        W43839  35.169  37.138  12.688
70772W        W43840  20.781  13.978   3.673
70773W        W43841   6.356  32.387  13.937
70774W        W43842   5.388  12.852  14.535
70775W        W43843  20.826  12.306  13.599
70776W        W43844   3.507   1.041   0.459
70777W        W43845  36.879  27.534   0.446
70778W        W43846  41.752  19.717  11.093
70779W        W43847  18.188   3.382   4.604
70780W        W43848   1.860  11.192   3.379
70781W        W43849  30.422  26.823   4.564
70782W        W43850   9.421  26.714   2.768
70783W        W43851  12.744  43.461  13.560
70784W        W43852  26.150  18.050   2.757
70785W        W43853  18.170   8.782  13.122
70786W        W43854  15.678  10.932  11.073
70787W        W43855  15.452  35.955   4.322
70788W        W43856  14.566  14.371  14.416
70789W        W43857  19.157  24.051   4.367
70790W        W43858   0.289  17.533  12.577
70791W        W43859   3.735   4.651  11.995
70792W        W43860  39.391  16.020  14.360
70793W        W43861  33.847  43.749   0.397
70794W        W43862  40.048  26.408   2.816
70795W        W43863  30.024  34.887  11.183
70796W        W43864  23.444  41.886  14.035
70797W        W43865  18.584   4.999  12.889
70798W        W43866   6.835  23.674   4.190
70799W        W43867   9.110  33.546  13.995
70800W        W43868  18.513   4.267  13.314
70801W        W43869  17.093  21.076   3.242
70802W        W43870  40.967  29.906  10.786
70803W        W43871  27.884   4.683  12.989
70804W        W43872   5.383  17.279   2.757
70805W        W43873   5.769  24.119  10.766
70806W        W43874  41.446  31.375   0.889
70807W        W43875  23.218   9.400  13.126
70808W        W43876  31.409  21.108  10.229
70809W        W43877  23.142  36.335  11.644
70810W        W43878  12.153  23.503   2.823
70811W        W43879  32.041  33.461   5.450
70812W        W43880  23.114   2.572   4.485
70813W        W43881  17.050  37.615  12.533
70814W        W43882  16.704  17.521   1.244
70815W        W43883  24.138  27.435  13.426
70816W        W43884   8.888  27.348   3.169
70817W        W43885  22.342  21.922  14.903
70818W        W43886  32.627  16.362   1.193
70819W        W43887   8.419  43.271  14.261
70820W        W43888  29.526  36.123   3.277
70821W        W43889  44.081  37.260   3.708
70822W        W43890  15.154   2.092  11.011
70823W        W43891  34.523  38.916  10.651
70824W        W43892  31.055   0.498  11.128
70825W        W43893  37.438   9.900   5.019
70826W        W43894  43.976  11.363  14.055
70827W        W43895  25.656   5.814  14.871
70828W        W43896  10.345   6.288  13.905
70829W        W43897  23.667  21.492   4.949
70830W        W43898  32.130  12.569  11.483
70831W        W43899  10.299  18.747   3.263
70832W        W43900  37.199  32.542  13.417
70833W        W43901  25.738   7.712  14.815
70834W        W43902  37.869  43.368   2.391
70835W        W43903   3.965  10.532   0.964
70836W        W43904  19.493  37.540  12.659
70837W        W43905   4.820   3.862  11.180
70838W        W43906  39.460  18.323   4.586
70839W        W43907  41.898   1.745   4.435
70840W        W43908  29.698  10.374   2.385
70841W        W43909  15.471  26.188  13.460
70842W        W43910  10.778   9.172  12.816
70843W        W43911  28.623  24.637   2.742
70844W        W43912  15.526  26.914  11.995
70845W        W43913  11.668   1.525  11.499
70846W        W43914  30.440  33.642  13.797
70847W        W43915  22.192   4.676   0.488
70848W        W43916   9.607  25.081  13.384
70849W        W43917  42.384   4.680  11.794
70850W        W43918  36.243   3.137   0.570
70851W        W43919   3.445  40.444  10.899
70852W        W43920  23.724   0.409  13.904
70853W        W43921   2.345   2.443  13.508
70854W        W43922  33.165   7.692   4.770
70855W        W43923  23.743   4.845  12.105
70856W        W43924  31.325  30.171   2.628
70857W        W43925  22.961  21.749  11.634
70858W        W43926  38.513  20.254  13.032
70859W        W43927   3.209  15.089   4.791
70860W        W43928  35.638  33.448   4.113
70861W        W43929  31.283  33.649   3.655
70862W        W43930   5.066   3.668  12.579
70863W        W43931  26.993  14.041   1.949
70864W        W43932   2.498   1.053  14.904
70865W        W43933  37.616  25.019  11.517
70866W        W43934  35.459   9.298   3.386
70867W        W43935   1.911  33.836   3.742
70868W        W43936  11.184   2.392   0.184
70869W        W43937   6.838  10.653  14.894
70870W        W43938  18.195  42.528   0.028
70871W        W43939  38.158   8.239   5.480
70872W        W43940   1.169  33.406   1.875
70873W        W43941   6.791  37.651   3.787
70874W        W43942  18.058   2.876   3.839
70875W        W43943  42.737  43.972   3.635
70876W        W43944  31.189  10.598   4.473
70877W        W43945   6.339  13.824  10.727
70878W        W43946   1.753  15.262  13.386
70879W        W43947  23.914  40.414   0.781
70880W        W43948   8.948  44.498   5.123
70881W        W43949   0.761  29.090   4.061
70882W        W43950   6.440  35.560   1.280
70883W        W43951  20.551  41.991   3.182
70884W        W43952  44.399   0.406   3.159
70885W        W43953  42.341  10.829  12.567
70886W        W43954  41.725  31.937  11.701
70887W        W43955   9.577  29.102  10.410
70888W        W43956  27.981  11.502   0.858
70889W        W43957  11.049  19.093  14.402
70890W        W43958   6.383   1.409  12.903
70891W        W43959  29.590  19.070   4.631
70892W        W43960   0.815  26.671   1.715
70893W        W43961  22.905  37.419   2.076
70894W        W43962  41.087  16.567   3.383
70895W        W43963   3.868  44.818   3.110
70896W        W43964   9.103  29.367  13.834
70897W        W43965   0.899  29.067  14.357
70898W        W43966  40.449  36.370   1.001
70899W        W43967  39.286  37.045   1.837
70900W        W43968   9.361  28.902   0.920
70901W        W43969  31.476  32.732  12.784
70902W        W43970  32.024  17.686   4.633
70903W        W43971   4.680   0.407  14.213
70904W        W43972  23.680  38.199   4.462
70905W        W43973  26.543  19.547  14.483
70906W        W43974   2.243   5.764   1.341
70907W        W43975  28.448  16.206   1.468
70908W        W43976  23.063   6.425   2.382
70909W        W43977  43.487  10.055  13.436
70910W        W43978  21.746  12.602  10.438
70911W        W43979  18.592  17.290   1.370
70912W        W43980  11.871  30.039  10.544
70913W        W43981  27.498  18.904   1.622
70914W        W43982  28.160  17.062  14.819
70915W        W43983  26.324  20.319  11.759
70916W        W43984  10.102   3.872   2.349
70917W        W43985  24.934  16.783   0.347
70918W        W43986  13.712  33.165   1.319
70919W        W43987  40.921  34.260  13.568
70920W        W43988   8.618  20.990   1.714
70921W        W43989   4.204  32.449  11.734
70922W        W43990  34.573   8.123  14.935
70923W        W43991  41.802  18.758   3.634
70924W        W43992  31.770  12.104   3.209
70925W        W43993  30.885  23.926  14.466
70926W        W43994   3.896  15.138   5.047
70927W        W43995   6.182  16.298  14.923
70928W        W43996  22.540  10.197  14.895
70929W        W43997  29.215  20.772   4.300
70930W        W43998  30.089   6.610  13.379
70931W        W43999  25.751   9.768   4.146
70932W        W44000   0.933  39.080  11.208
70933W        W44001   6.401  25.141   0.828
70934W        W44002  22.737  19.737   2.457
70935W        W44003  10.637  43.037   5.097
70936W        W44004  38.348   4.275   3.272
70937W        W44005  43.890  43.081  14.079
70938W        W44006  25.923  35.649   5.376
70939W        W44007   0.854  29.039  13.287
70940W        W44008   5.854  40.934   2.555
70941W        W44009   1.537  22.726   3.543
70942W        W44010  34.211  43.801   3.322
70943W        W44011  11.792  25.539  11.162
70944W        W44012  40.770  38.044  12.072
70945W        W44013  41.345  26.157   0.217
70946W        W44014  35.416  14.597  14.354
70947W        W44015  27.642  12.218  10.640
70948W        W44016  12.142   4.711   0.820
70949W        W44017  33.267  17.185  11.341
70950W        W44018   9.830  32.139   4.911
70951W        W44019  39.144  26.653   4.194
70952W        W44020  10.228  17.704  11.533
70953W        W44021  32.156  41.935   0.969
70954W        W44022  35.905  35.304   2.838
70955W        W44023  14.641  16.796  14.495
70956W        W44024   3.624   7.149  13.075
70957W        W44025  40.535  11.433   0.048
70958W        W44026  38.405   9.836   0.812
70959W        W44027  20.016  26.415   4.109
70960W        W44028  20.612  38.934  12.307
70961W        W44029   0.129   8.933  11.371
70962W        W44030   3.571   1.389   4.049
70963W        W44031  35.377  17.204  11.994
70964W        W44032  24.864  39.524  13.498
70965W        W44033  21.838  32.372   0.252
70966W        W44034  37.276   7.776  14.445
70967W        W44035  12.116   3.796  14.044
70968W        W44036   5.193   1.819   3.651
70969W        W44037   7.731  33.984   0.369
70970W        W44038  21.756   4.899   0.708
70971W        W44039   7.359  23.188   4.955
70972W        W44040   0.747  24.152   4.554
70973W        W44041   8.858  33.527   0.757
70974W        W44042  19.622   6.584   0.838
70975W        W44043  35.942  21.522  14.602
70976W        W44044  33.572  19.295  10.734
70977W        W44045   0.986  20.469  14.859
70978W        W44046  16.582   4.395   2.306
70979W        W44047  23.492  12.659  14.261
70980W        W44048   2.392  25.864   3.716
70981W        W44049   7.834  29.907   0.496
70982W        W44050   7.061   5.198   1.664
70983W        W44051  17.680  36.793  10.985
70984W        W44052  18.179  32.380  14.332
70985W        W44053   2.222  20.963  10.442
70986W        W44054  35.774   4.899  12.880
70987W        W44055  38.431  15.161  14.899
70988W        W44056  42.043  10.235   3.634
70989W        W44057  24.640   9.516  13.566
70990W        W44058  12.144   1.721  14.485
70991W        W44059  29.832  20.593  12.086
70992W        W44060   0.531  29.946   3.834
70993W        W44061  14.357  37.709  11.059
70994W        W44062  10.680   9.917  14.748
70995W        W44063  41.906  10.698   3.817
70996W        W44064  39.259  43.954  10.919
70997W        W44065  24.169  27.999  14.950
70998W        W44066  40.707   0.776   2.221
70999W        W44067  41.048   2.529   2.169
71000W        W44068   6.269  13.136  14.690
71001W        W44069  19.837  29.713   3.119
71002W        W44070   6.863   4.140   1.654
71003W        W44071  28.903  32.341   0.873
71004W        W44072  22.201  36.516  14.768
71005W        W44073  44.904  24.667  14.357
71006W        W44074  38.089  41.503   1.338
71007W        W44075  35.449   9.478   0.356
71008W        W44076   5.918  32.799  11.546
71009W        W44077  23.667  43.330   2.663
71010W        W44078  40.010  33.387  12.852
71011W        W44079   8.209   4.791  12.046
71012W        W44080  24.970  16.702   4.770
71013W        W44081  38.450  23.965   2.018
71014W        W44082   4.121  41.797  11.798
71015W        W44083   3.008   1.162   0.361
71016W        W44084  32.840  13.169   3.858
71017W        W44085  13.185  21.203   0.970
71018W        W44086  25.711  33.467   3.107
71019W        W44087  41.746  38.866  13.976
71020W        W44088  26.120  40.108  14.851
71021W        W44089  36.114  41.738  14.406
71022W        W44090  10.401   6.461   1.721
71023W        W44091  31.315  13.841  12.095
71024W        W44092  42.476  29.149   0.608
71025W        W44093  37.681  18.120   2.557
71026W        W44094   6.665  36.294   2.782
71027W        W44095  31.483   9.681  13.861
71028W        W44096  28.980   9.781   1.567
71029W        W44097  25.010  25.400   2.364
71030W        W44098  43.453  38.901   3.344
71031W        W44099  34.074  31.370   4.157
71032W        W44100   3.525  13.070  10.785
71033W        W44101  10.069   6.037  10.025
71034W        W44102  40.989   1.435  14.350
71035W        W44103  36.449  33.955   2.814
71036W        W44104  26.522  35.862   0.495
71037W        W44105  22.497  44.381   1.013
71038W        W44106  15.984  44.566   3.350
71039W        W44107  28.730  42.958  10.360
71040W        W44108  37.899  44.509   4.235
71041W        W44109  44.740  13.631   1.260
71042W        W44110   6.804  22.065   4.469
71043W        W44111  19.752   2.295   3.791
71044W        W44112   1.042   5.669  13.479
71045W        W44113  16.776  41.939  12.060
71046W        W44114  18.560  24.398  11.662
71047W        W44115   2.874  35.625   1.355
71048W        W44116   4.454  12.840  10.433
71049W        W44117  29.708  38.419  12.651
71050W        W44118  21.451  31.977   2.148
71051W        W44119   3.690   5.964   3.161
71052W        W44120  25.599  29.106   4.212
71053W        W44121  22.489   7.842   1.760
71054W        W44122  21.466  35.298  13.595
71055W        W44123  19.023  22.189   2.374
71056W        W44124  32.572  33.659  13.109
71057W        W44125  37.500   2.373  14.647
71058W        W44126  39.348  22.688  11.040
71059W        W44127  15.313  44.282  10.611
71060W        W44128   7.033   2.883  12.332
71061W        W44129  41.589   4.472   4.621
71062W        W44130   6.905  14.640   4.147
71063W        W44131   5.627  12.114   2.205
71064W        W44132  14.137  25.448  11.615
71065W        W44133   3.340  26.726   0.945
71066W        W44134  34.821   3.951   2.821
71067W        W44135  15.189  38.384  10.527
71068W        W44136   1.325  23.310   0.258
71069W        W44137  41.326   7.710   3.109
71070W        W44138   4.192   1.285   3.601
71071W        W44139   5.093  26.711  14.217
71072W        W44140  22.216   4.780  13.920
71073W        W44141  22.784  44.384  11.514
71074W        W44142  10.275  30.183  13.266
71075W        W44143  38.301   2.488  11.898
71076W        W44144  10.625  37.216   1.766
71077W        W44145  39.087  41.206  10.647
71078W        W44146  32.038  26.207  11.611
71079W        W44147  32.129  21.632  13.737
71080W        W44148  25.962  20.345  14.755
71081W        W44149  30.958   2.478   3.641
71082W        W44150   0.975  11.940   0.805
71083W        W44151  30.558  44.360   4.718
71084W        W44152  41.438  40.929  13.430
71085W        W44153  30.910  12.836   5.025
71086W        W44154   4.493  22.248  13.014
71087W        W44155  34.102  16.312   2.235
71088W        W44156   1.949  28.533  11.070
71089W        W44157  19.046  20.054  11.584
71090W        W44158  40.303  37.519  12.506
71091W        W44159  37.911  20.547  14.827
71092W        W44160  40.822  19.342  13.487
71093W        W44161  24.429  32.946   4.669
71094W        W44162  12.820  32.986  10.641
71095W        W44163  39.989  12.931  12.024
71096W        W44164  40.930  17.170  11.579
71097W        W44165  24.506   3.382   0.944
71098W        W44166   0.039  37.029  12.082
71099W        W44167  20.472   2.090   1.281
71100W        W44168  11.652  37.537   0.758
71101W        W44169  24.664   0.830  13.580
71102W        W44170  34.436  24.794   4.153
71103W        W44171   3.983  13.148  11.160
71104W        W44172  42.720  39.362  12.514
71105W        W44173  40.093  36.452   1.418
71106W        W44174   8.818  38.892   2.160
71107W        W44175  19.451  13.929  13.877
71108W        W44176   5.785   4.939  13.366
71109W        W44177   6.271  30.017   2.299
71110W        W44178  33.580  17.713  12.348
71111W        W44179   1.386  29.501   0.769
71112W        W44180  15.148   0.265  12.566
71113W        W44181  14.234  29.422  12.948
71114W        W44182  25.915   3.284   1.400
71115W        W44183   9.530  13.868   2.194
71116W        W44184  22.180  25.943  12.438
71117W        W44185  22.200  22.493   1.874
71118W        W44186   6.172   6.704  10.537
71119W        W44187   2.928  32.556   1.201
71120W        W44188  18.643  41.979  13.502
71121W        W44189  20.290  37.414  11.769
71122W        W44190  33.615  11.849  13.976
71123W        W44191  36.980  44.221   0.247
71124W        W44192  33.288  16.661  14.938
71125W        W44193  30.597  32.426  11.204
71126W        W44194   1.738  37.975   0.708
71127W        W44195  26.903  32.811   4.433
71128W        W44196  26.452  42.574   3.708
71129W        W44197  26.941  13.073  11.348
71130W        W44198   0.858  14.588   3.297
71131W        W44199  38.098  23.255   0.474
71132W        W44200  40.167  13.307   1.221
71133W        W44201   0.573   4.760  10.286
71134W        W44202  29.091  16.371  11.083
71135W        W44203  41.835  41.592   1.262
71136W        W44204  33.346   2.183  13.087
71137W        W44205   4.812  21.095   1.366
71138W        W44206  23.596  18.187   4.736
71139W        W44207   3.414  23.744  10.527
71140W        W44208  12.012  19.615   1.683
71141W        W44209  42.420  41.296  12.545
71142W        W44210   1.781   6.097   4.959
71143W        W44211   7.310   5.217   3.634
71144W        W44212  22.167  27.487  11.191
71145W        W44213  35.647   2.140  11.666
71146W        W44214  11.662  26.587  11.173
71147W        W44215  15.404  17.976   1.861
71148W        W44216   4.343  37.059  12.936
71149W        W44217  23.295   6.156  13.643
71150W        W44218   5.465   9.167   3.251
71151W        W44219  24.168  38.372   1.842
71152W        W44220  26.721  19.611   0.827
71153W        W44221  16.059  15.099   3.781
71154W        W44222  15.038  31.563   3.174
71155W        W44223  14.734  41.415  14.287
71156W        W44224  37.586  30.087   2.657
71157W        W44225   5.248  13.335   2.163
71158W        W44226   2.043  33.551   4.162
71159W        W44227  18.618  15.613   3.140
71160W        W44228  34.099  33.559   4.249
71161W        W44229  26.404   2.570   1.389
71162W        W44230   0.500   5.430   2.350
71163W        W44231   3.425  40.516  14.681
71164W        W44232  41.529  28.121  14.420
71165W        W44233  40.476  32.562   2.410
71166W        W44234  42.864  42.442  11.965
71167W        W44235   5.945  34.286   4.646
71168W        W44236  38.936   1.298   5.271
71169W        W44237   8.707  35.926  11.586
71170W        W44238   6.740  21.284   2.455
71171W        W44239   3.974   8.758  12.565
71172W        W44240  14.293  25.587  11.161
71173W        W44241  33.139  17.259  14.443
71174W        W44242   4.095  41.637  12.571
71175W        W44243   4.472  23.360   0.551
71176W        W44244  27.454   5.289  14.952
71177W        W44245   5.181  16.033   0.868
71178W        W44246  25.173  26.506   3.693
71179W        W44247  21.802  23.151   2.021
71180W        W44248  27.571  39.583   0.974
71181W        W44249  35.292  35.827   4.246
71182W        W44250  34.905  17.008  11.957
71183W        W44251  39.824  29.164  11.985
71184W        W44252  32.590  27.717  10.287
71185W        W44253  38.398  25.388   4.757
71186W        W44254  33.086   2.715  13.461
71187W        W44255  29.654  42.654  13.373
71188W        W44256   3.133  14.785  13.573
71189W        W44257  15.621  37.852   3.220
71190W        W44258  21.637  40.118  12.515
71191W        W44259  28.054  23.252  13.363
71192W        W44260  37.877  31.432  11.176
71193W        W44261  21.986  32.568  11.707
71194W        W44262  10.680  31.522  14.771
71195W        W44263  31.691   3.914   4.661
71196W        W44264  28.099  44.170  10.771
71197W        W44265  41.444  35.762   0.302
71198W        W44266  32.002  15.293   1.761
71199W        W44267   7.746  26.764   0.963
71200W        W44268  44.807   4.742   4.352
71201W        W44269   4.811  12.605   3.641
71202W        W44270  20.112  17.192  11.160
71203W        W44271  22.632  37.068   2.452
71204W        W44272  42.261  23.748  11.624
71205W        W44273  42.519  42.004   3.716
71206W        W44274  44.584  33.615  13.886
71207W        W44275  26.641  28.262  13.642
71208W        W44276   3.695  33.138   3.947
71209W        W44277  34.591  16.016  12.598
71210W        W44278  15.993  42.383  11.166
71211W        W44279   6.870  43.801  13.522
71212W        W44280  28.959  28.043  13.180
71213W        W44281  42.202  27.577   4.137
71214W        W44282   1.277   4.074   3.247
71215W        W44283  12.650   7.709   0.717
71216W        W44284   4.944   5.244   3.811
71217W        W44285  38.829  34.503   1.230
71218W        W44286  25.164  30.673   3.737
71219W        W44287  32.068  16.738   0.856
71220W        W44288  23.245  14.529  12.041
71221W        W44289  11.354   0.421   1.488
71222W        W44290  15.732   2.673  10.677
71223W        W44291  42.682  19.265   0.557
71224W        W44292  44.566  23.143   1.741
71225W        W44293  31.040   6.389  13.888
71226W        W44294  36.101  18.114   0.728
71227W        W44295  32.634  17.280  14.563
71228W        W44296  40.495  23.253  11.945
71229W        W44297  33.435  37.863  13.180
71230W        W44298   6.950   7.378  11.969
71231W        W44299  23.119  33.554   4.591
71232W        W44300  37.742  16.151  13.635
71233W        W44301   7.934  43.070   2.381
71234W        W44302  12.160  17.201  10.398
71235W        W44303  39.015   7.997   0.719
71236W        W44304  41.036  14.157   2.762
71237W        W44305  37.359  36.226  10.968
71238W        W44306  11.085  16.206  13.181
71239W        W44307   5.015  29.050  14.052
71240W        W44308   1.113  42.890   0.450
71241W        W44309  10.555   0.318  11.251
71242W        W44310  11.619  36.022   0.885
71243W        W44311  18.203  33.690  12.682
71244W        W44312  25.420  18.124   4.656
71245W        W44313  27.490  42.849  12.440
71246W        W44314  31.083  26.412  13.462
71247W        W44315  41.326  13.581   4.635
71248W        W44316  15.863  25.704   3.108
71249W        W44317  10.789   9.236  13.345
71250W        W44318   3.259  29.534  14.416
71251W        W44319   9.110  41.562  13.882
71252W        W44320  22.324   8.377   3.799
71253W        W44321  33.655  16.648  13.952
71254W        W44322   9.172  13.529   2.779
71255W        W44323   5.175  10.401  12.554
71256W        W44324  35.952  11.562   2.293
71257W        W44325  42.095  44.341  13.600
71258W        W44326  38.988  35.551  14.755
71259W        W44327  21.304   6.673   2.295
71260W        W44328  28.861  25.981   2.328
71261W        W44329  42.322  24.209  12.910
71262W        W44330   4.234  28.178   4.189
71263W        W44331  28.076   1.057   0.932
71264W        W44332  12.909  13.030  13.518
71265W        W44333  19.484  19.295   1.181
71266W        W44334  36.610   5.848   0.956
71267W        W44335  28.534  19.687   4.016
71268W        W44336   9.279  31.443  12.943
71269W        W44337  27.548  17.773  10.398
71270W        W44338  33.804  34.050   3.165
71271W        W44339  36.842   7.889  10.667
71272W        W44340   4.904   7.660   3.773
71273W        W44341  22.520  25.956   0.631
71274W        W44342  33.703  42.313   3.111
71275W        W44343  35.437  39.759  12.946
71276W        W44344  33.914  15.577  12.868
71277W        W44345  31.436   3.661  12.388
71278W        W44346  38.127   5.414   4.663
71279W        W44347  11.027   3.362  12.084
71280W        W44348  14.735  38.971   0.203
71281W        W44349  37.380   7.390  13.215
71282W        W44350  37.507  15.863   3.236
71283W        W44351  27.893  12.230  13.857
71284W        W44352  40.387  33.680   2.876
71285W        W44353   2.709  44.420   0.801
71286W        W44354  16.029  43.813  11.627
71287W        W44355  13.095  36.397   3.188
71288W        W44356  15.552  38.147  10.810
71289W        W44357   7.381  39.828   4.995
71290W        W44358  41.924   1.482  10.764
71291W        W44359  36.578  12.211  10.902
71292W        W44360  34.533  14.398  14.245
71293W        W44361  27.733  30.441  11.146
71294W        W44362  21.457   3.436  12.968
71295W        W44363  41.378   8.798  13.205
71296W        W44364  37.931  10.448   4.213
71297W        W44365   9.290  31.476  14.522
71298W        W44366   1.372  12.796  10.475
71299W        W44367  31.165  11.784  10.773
71300W        W44368  16.532  20.081   3.654
71301W        W44369   3.504  15.486   4.946
71302W        W44370  42.997  42.003   1.812
71303W        W44371  37.366  26.653   4.597
71304W        W44372  18.593  25.666   2.128
71305W        W44373  32.840  19.428  11.168
71306W        W44374  25.699  30.383   2.723
71307W        W44375  28.836   8.348   1.170
71308W        W44376  43.873  33.115  10.671
71309W        W44377   4.209  30.153   4.344
71310W        W44378  22.659  40.764  12.018
71311W        W44379   3.381   8.837   2.922
71312W        W44380  16.019  28.340  12.120
71313W        W44381  39.388  33.864   4.255
71314W        W44382  13.325  35.082  12.810
71315W        W44383  30.338  28.042   1.647
71316W        W44384  35.922  30.934  11.981
71317W        W44385  16.331  21.443   1.795
71318W        W44386  29.399  40.277   3.038
71319W        W44387  17.096   8.840  11.091
71320W        W44388  38.535  11.864  12.322
71321W        W44389  28.144  43.574  11.621
71322W        W44390  44.629  42.344   2.120
71323W        W44391  37.359  19.215   2.283
71324W        W44392  26.965  27.952  12.872
71325W        W44393  17.148  40.409   3.688
71326W        W44394  17.513   5.839  11.435
71327W        W44395  43.304  32.745   4.183
71328W        W44396  37.070  32.082   2.845
71329W        W44397  44.985  15.666   4.188
71330W        W44398  30.207  29.738  13.510
71331W        W44399  36.820  16.706   0.217
71332W        W44400   5.877  36.788  14.925
71333W        W44401  27.964   1.680  12.969
71334W        W44402  30.452  18.665  12.830
71335W        W44403  32.767  32.969  12.201
71336W        W44404  19.795  37.531  14.868
71337W        W44405  13.811  24.249  13.398
71338W        W44406  23.634  15.849   1.395
71339W        W44407  37.761  38.048  11.674
71340W        W44408  36.652  22.306   3.850
71341W        W44409  17.073  11.820   3.605
71342W        W44410  15.119  15.355  13.324
71343W        W44411  26.382  18.615   4.928
71344W        W44412   0.822  12.730   4.694
71345W        W44413  18.002   9.831  10.972
71346W        W44414  20.721  10.101  11.984
71347W        W44415  36.616  14.552   2.780
71348W        W44416  27.659  12.324  10.134
71349W        W44417  36.883  24.253   2.755
71350W        W44418  35.509  22.314   3.016
71351W        W44419  13.183  10.887  10.699
71352W        W44420  40.108  38.000  14.806
71353W        W44421  28.067  26.110  12.631
71354W        W44422  13.890   4.973  13.905
71355W        W44423  20.897  24.725  11.375
71356W        W44424  20.511   0.684   4.182
71357W        W44425  19.184  14.846   3.327
71358W        W44426  22.700   6.760   2.490
71359W        W44427  20.302  27.040   3.710
71360W        W44428  18.481  42.014   3.606
71361W        W44429  31.235  22.303   0.761
71362W        W44430  40.702  34.469   2.899
71363W        W44431  15.652   9.124  11.412
71364W        W44432   2.800  34.851  13.616
71365W        W44433  35.841  26.371   4.578
71366W        W44434  41.494  12.833  11.699
71367W        W44435  32.094  12.352  12.569
71368W        W44436   8.333  32.116  11.556
71369W        W44437  23.193   3.494  10.961
71370W        W44438  33.533  40.524   3.794
71371W        W44439   6.602   1.866  13.760
71372W        W44440   6.321  10.819  11.083
71373W        W44441  41.988  23.128   4.677
71374W        W44442  29.621  20.294  12.911
71375W        W44443  33.940  33.134  13.935
71376W        W44444  41.817   7.177  13.979
71377W        W44445   9.914  34.578  10.445
71378W        W44446  14.364  36.509  12.387
71379W        W44447  35.877  15.041  11.604
71380W        W44448  10.698  20.876  12.932
71381W        W44449  37.089  18.367   0.711
71382W        W44450  41.438  12.893   2.345
71383W        W44451  14.359  24.166   3.336
71384W        W44452  23.571  15.379  10.585
71385W        W44453   7.300  16.327   1.926
71386W        W44454  16.674  24.147  14.372
71387W        W44455  18.043  20.219  13.108
71388W        W44456  24.935  12.254   3.589
71389W        W44457  25.004  33.535   2.793
71390W        W44458  19.752  42.808  13.046
71391W        W44459   3.290  26.189   3.241
71392W        W44460  12.998   3.344  14.385
71393W        W44461  35.128  21.210   4.144
71394W        W44462   6.802   7.244  14.037
71395W        W44463   3.460  33.706   0.724
71396W        W44464  19.076  17.069  10.642
71397W        W44465  16.793   9.227  13.595
71398W        W44466   7.237  32.433  11.622
71399W        W44467  37.249  22.187  12.262
71400W        W44468   8.847  21.232   1.262
71401W        W44469  24.411  33.002   2.825
71402W        W44470  44.414   7.911   4.124
71403W        W44471  23.663  25.650   4.398
71404W        W44472   3.767  26.731  12.600
71405W        W44473  15.782   3.490   1.010
71406W        W44474   6.621  26.524  10.728
71407W        W44475  44.258  17.296  12.030
71408W        W44476   3.350   5.631   1.410
71409W        W44477  42.874   1.385   0.699
71410W        W44478  30.717  29.942   4.619
71411W        W44479  40.433   9.425  11.891
71412W        W44480   8.230   2.480   4.252
71413W        W44481  14.160   1.895   3.437
71414W        W44482   2.846  29.569   2.968
71415W        W44483  30.458  34.833  12.476
71416W        W44484  27.273  34.099  12.805
71417W        W44485  28.554  36.884  12.626
71418W        W44486  34.468   8.834   2.757
71419W        W44487  34.899  18.759  13.365
71420W        W44488  24.150  19.583  14.706
71421W        W44489  33.943  34.581  10.454
71422W        W44490  22.230   5.738  12.929
71423W        W44491  26.194  15.621   0.064
71424W        W44492  38.607  33.354   2.642
71425W        W44493   0.160  37.823   4.612
71426W        W44494  34.623   1.536  14.291
71427W        W44495  30.205  35.639   2.658
71428W        W44496  35.272  26.966  14.963
71429W        W44497  44.382  30.565  13.446
71430W        W44498  13.259  24.244   2.847
71431W        W44499  40.082  33.359   1.285
71432W        W44500  33.106  10.254  14.190
71433W        W44501  25.367   6.402  14.698
71434W        W44502  28.650  39.787  13.551
71435W        W44503  15.385  28.598  12.391
71436W        W44504  10.606  15.710  10.224
71437W        W44505  10.661  38.634  10.662
71438W        W44506  28.897  36.529   1.283
71439W        W44507  32.095  40.031  14.009
71440W        W44508  18.664   1.608   3.591
71441W        W44509  43.022   4.275   4.738
71442W        W44510   4.206   7.659   1.292
71443W        W44511  21.279  37.541  12.985
71444W        W44512  44.975  38.338  13.518
71445W        W44513  39.925  20.543  12.589
71446W        W44514  25.047  12.098   1.655
71447W        W44515  26.864   9.741   4.986
71448W        W44516  12.883  29.445  10.650
71449W        W44517  42.540   5.383  13.534
71450W        W44518  10.409  14.727   0.310
71451W        W44519  25.641  15.628  13.889
71452W        W44520   8.750  39.281   0.431
71453W        W44521  19.985   7.259   1.434
71454W        W44522   0.886  27.297   4.317
71455W        W44523  10.675  15.538  11.602
71456W        W44524  15.586  24.147  13.135
71457W        W44525  26.080  11.637  13.738
71458W        W44526  12.639  32.996   2.907
71459W        W44527   5.376  32.576  13.400
71460W        W44528  18.557  17.438  12.022
71461W        W44529  11.897  39.765  11.561
71462W        W44530  27.371  25.598   3.201
71463W        W44531  20.009  17.795   3.679
71464W        W44532  38.063  31.086   2.277
71465W        W44533  34.874  13.093  11.232
71466W        W44534  39.940   9.241   4.996
71467W        W44535   6.475  20.268  11.028
71468W        W44536  39.966   0.353   3.260
71469W        W44537  13.392  40.293  14.198
71470W        W44538  39.142  33.861  10.717
71471W        W44539  34.029   4.735  10.235
71472W        W44540  37.430  44.241   4.177
71473W        W44541  18.117  40.029  14.529
71474W        W44542  38.483  29.065   1.474
71475W        W44543   1.187  10.134  12.523
71476W        W44544  42.406  13.953  11.410
71477W        W44545  11.781  23.041   2.127
71478W        W44546  10.216  24.219   1.779
71479W        W44547  27.392   1.315   4.655
71480W        W44548   0.210  32.616  11.724
71481W        W44549  23.191  37.943  11.767
71482W        W44550   3.916  17.247  11.600
71483W        W44551  36.455  16.105   4.487
71484W        W44552  41.376  29.786   3.497
71485W        W44553  36.998  19.328  14.536
71486W        W44554   3.868  22.843   4.346
71487W        W44555  14.399   0.470  12.058
71488W        W44556  13.284  26.560  13.202
71489W        W44557   1.414  33.046  12.455
71490W        W44558  12.793  13.149  12.564
71491W        W44559   6.443  12.869   2.760
71492W        W44560   2.185   8.723   3.102
71493W        W44561  36.887  13.411  10.572
71494W        W44562   0.369  43.440   4.378
71495W        W44563   4.077  37.356   4.411
71496W        W44564  33.786   5.154   9.985
71497W        W44565  31.711  26.920   1.370
71498W        W44566  33.122  34.800   2.740
71499W        W44567  35.502  43.726   0.866
71500W        W44568  38.352  12.368   3.228
71501W        W44569  23.546  29.584   3.402
71502W        W44570  38.986  10.767   0.907
71503W        W44571  38.471  34.343  14.807
71504W        W44572  42.133  44.273  10.183
71505W        W44573  35.441  16.573   4.857
71506W        W44574  37.366  41.136   2.415
71507W        W44575  17.148  27.465  13.067
71508W        W44576   6.288  34.461  11.576
71509W        W44577  34.625  13.326  12.416
71510W        W44578  14.209  24.982  11.872
71511W        W44579  16.734  27.008   1.295
71512W        W44580  24.669  18.330  12.095
71513W        W44581  33.463  14.244  11.736
71514W        W44582   5.645  38.294   1.778
71515W        W44583   7.614  38.006  13.523
71516W        W44584   5.165   0.248  11.299
71517W        W44585  27.955  24.651   4.349
71518W        W44586   3.698   4.303   2.151
71519W        W44587  41.032  39.313   4.038
71520W        W44588  38.805  41.962   3.824
71521W        W44589   8.310  38.510  13.096
71522W        W44590  10.311  20.262   2.340
71523W        W44591  43.920   1.620   2.071
71524W        W44592  17.735  17.254  13.689
71525W        W44593  41.208   0.305  11.595
71526W        W44594  30.870  23.066   0.341
71527W        W44595  43.400  22.605  14.916
71528W        W44596  13.716  10.325   4.561
71529W        W44597  15.082  15.724  13.919
71530W        W44598  40.387  13.038  13.038
71531W        W44599  33.560  19.236   1.950
71532W        W44600  39.948  18.639  13.943
71533W        W44601  27.112   1.597   1.412
71534W        W44602  35.176  36.121   1.228
71535W        W44603  37.398  16.257  11.389
71536W        W44604  32.076  41.558   4.145
71537W        W44605  27.065   7.951  11.159
71538W        W44606  17.233  16.093  10.592
71539W        W44607   3.299  24.940   1.398
71540W        W44608  39.297  42.556   0.254
71541W        W44609  26.182  26.188   5.038
71542W        W44610  40.832  18.766  14.369
71543W        W44611  21.243  12.783   0.317
71544W        W44612   4.490  41.311   2.910
71545W        W44613   8.858  21.759  13.426
71546W        W44614  23.812   1.559   5.116
71547W        W44615  32.197  33.179   0.329
71548W        W44616   5.568  11.642  12.939
71549W        W44617  37.494   8.988  14.115
71550W        W44618  10.364   7.259  11.671
71551W        W44619  24.013  31.311  13.427
71552W        W44620  14.546   0.544  10.299
71553W        W44621  31.549   1.666   4.049
71554W        W44622  13.368   6.117   1.957
71555W        W44623  39.269  26.416   2.545
71556W        W44624  31.801  19.367  13.949
71557W        W44625   1.958  23.672  12.850
71558W        W44626  28.657  29.418   1.328
71559W        W44627  38.483  25.559   1.245
71560W        W44628  39.037  43.947   0.935
71561W        W44629  28.640   5.616  11.627
71562W        W44630  35.894  30.129   3.810
71563W        W44631  14.589  15.385  14.483
71564W        W44632  44.693  24.197   3.781
71565W        W44633  36.368  33.382  14.238
71566W        W44634  20.016  29.924   3.796
71567W        W44635  43.000  20.047   2.332
71568W        W44636   5.440   1.160   2.259
71569W        W44637  38.866   8.250   4.663
71570W        W44638  17.842  24.974   4.711
71571W        W44639  37.533  31.989   5.437
71572W        W44640  36.825  24.295   4.225
71573W        W44641  42.468  31.366  10.480
71574W        W44642  34.514  24.600   1.187
71575W        W44643  32.454  14.272   4.145
71576W        W44644  33.850  24.420  14.244
71577W        W44645  36.091  27.157  14.038
71578W        W44646  31.188  35.499  11.042
71579W        W44647  26.824  25.975  13.956
71580W        W44648  37.788  30.221   0.928
71581W        W44649  41.280   2.883  10.886
71582W        W44650  24.085  30.355   3.252
71583W        W44651   7.928  42.423  11.459
71584W        W44652  16.952  23.128   4.044
71585W        W44653  16.724  14.828   4.451
71586W        W44654   9.106  36.887   4.695
71587W        W44655  11.249   1.321  12.878
71588W        W44656   4.326  35.076   0.856
71589W        W44657   0.883  32.819   0.327
71590W        W44658  30.589   1.207   0.918
71591W        W44659   7.164  39.896   0.928
71592W        W44660  19.457  36.506  10.755
71593W        W44661   2.236  16.493  14.351
71594W        W44662  12.255  41.093   0.407
71595W        W44663  44.539  21.902  12.698
71596W        W44664  24.634   8.374  14.903
71597W        W44665   2.755   1.961   0.848
71598W        W44666  38.916  44.774   2.154
71599W        W44667  11.122  39.921   0.452
71600W        W44668   0.008   1.711   2.657
71601W        W44669  15.578  26.384   3.662
71602W        W44670  17.492  42.531   1.971
71603W        W44671  33.913   9.878  10.640
71604W        W44672  19.178  24.580   1.009
71605W        W44673   9.292  26.284  11.180
71606W        W44674  39.280  30.909   4.616
71607W        W44675  22.789  41.051  10.663
71608W        W44676  24.062  38.745  11.004
71609W        W44677  38.419  40.672   3.664
71610W        W44678  18.576   2.989  11.131
71611W        W44679  15.573  41.121  14.650
71612W        W44680  20.252  25.050  12.092
71613W        W44681  28.235   7.302   2.168
71614W        W44682  43.039  39.057  11.104
71615W        W44683  40.324  16.988   3.652
71616W        W44684   0.240   2.851   0.444
71617W        W44685  26.838  42.374   4.037
71618W        W44686  43.034  38.518  14.682
71619W        W44687  34.381   5.932  14.382
71620W        W44688  38.732  44.067   4.773
71621W        W44689   4.190  21.188  13.633
71622W        W44690   9.263  10.003  10.343
71623W        W44691  34.398  38.575   0.278
71624W        W44692  16.693  36.826  13.525
71625W        W44693  12.558  35.580   0.700
71626W        W44694  12.694   4.939   4.619
71627W        W44695  17.542  33.556  14.315
71628W        W44696  34.237  10.625  11.977
71629W        W44697   5.970  23.417  13.791
71630W        W44698   7.705  18.107   1.944
71631W        W44699  28.882  11.851   4.324
71632W        W44700  34.627  38.274  12.469
71633W        W44701   9.674  24.156   2.534
71634W        W44702   4.650  36.449  10.131
71635W        W44703   1.466  41.851   4.933
71636W        W44704  32.973  25.263  10.814
71637W        W44705   1.711  42.524   3.834
71638W        W44706  19.795  23.004   0.470
71639W        W44707  32.981  11.371  12.179
71640W        W44708  26.445  43.728   0.696
71641W        W44709  26.754  34.343   0.272
71642W        W44710  40.902   0.522   4.154
71643W        W44711  37.681   3.737  10.611
71644W        W44712  34.911  37.542   4.152
71645W        W44713   7.220  30.351  11.972
71646W        W44714  41.515  14.257   0.322
71647W        W44715   3.201  19.817  11.038
71648W        W44716  22.265  42.438  14.205
71649W        W44717  38.071  42.436   3.961
71650W        W44718  39.949   1.320  12.326
71651W        W44719  43.910  39.886  12.365
71652W        W44720   8.914   1.290   1.189
71653W        W44721  18.096   5.116   4.685
71654W        W44722  27.572   3.133  11.632
71655W        W44723  10.791  30.890  12.469
71656W        W44724  11.587  42.548   2.629
71657W        W44725   7.363  17.268   0.429
71658W        W44726   7.672  42.833   4.595
71659W        W44727   4.542   3.447   0.011
71660W        W44728  13.802  21.281  12.892
71661W        W44729  43.319  18.536   2.620
71662W        W44730  21.081  11.662   4.605
71663W        W44731  29.340   0.718   1.246
71664W        W44732   3.491  25.739   1.345
71665W        W44733  40.300  26.211  10.607
71666W        W44734  31.853  26.586  12.893
71667W        W44735  17.165  43.872   1.741
71668W        W44736  38.544  24.087   1.533
71669W        W44737  23.988  26.049  10.691
71670W        W44738   9.688  37.617  11.990
71671W        W44739  19.663  24.128   0.177
71672W        W44740  25.693  35.351   5.025
71673W        W44741   4.677  12.641  13.839
71674W        W44742  23.082  36.348   0.541
71675W        W44743  18.652   8.073   2.354
71676W        W44744  14.224  22.991   1.843
71677W        W44745  14.308  21.239   2.828
71678W        W44746   3.871  29.638   3.674
71679W        W44747   0.558  41.747   0.216
71680W        W44748  41.504  39.289  14.378
71681W        W44749  29.670  10.290   1.009
71682W        W44750  25.215  36.338  14.526
71683W        W44751   5.095  35.793   2.224
71684W        W44752  16.655  43.890   3.228
71685W        W44753   4.159   5.444  11.575
71686W        W44754  20.519  15.560  12.875
71687W        W44755  39.931  17.282   2.206
71688W        W44756  25.473  15.578   0.229
71689W        W44757  24.286  23.853  12.507
71690W        W44758  43.040  29.055  11.599
71691W        W44759  28.908  16.233  13.348
71692W        W44760  22.149   7.654  14.031
71693W        W44761  14.188  42.271   4.240
71694W        W44762  10.844   5.455  14.565
71695W        W44763  43.278   0.533  12.606
71696W        W44764  24.600  41.090  14.420
71697W        W44765  30.353   5.198   1.933
71698W        W44766  37.815  16.324   1.422
71699W        W44767  40.988  25.702   3.142
71700W        W44768  36.360  42.289   0.722
71701W        W44769   7.533  35.857  12.931
71702W        W44770  27.053   0.343   4.679
71703W        W44771  44.486  13.779   3.117
71704W        W44772  44.384   9.330   1.925
71705W        W44773  35.940  30.591  13.167
71706W        W44774   2.000  10.586   3.842
71707W        W44775  10.895   3.237   1.860
71708W        W44776  26.776   1.377   3.754
71709W        W44777  25.936   5.599  11.583
71710W        W44778  18.881  25.131  13.041
71711W        W44779  12.640  30.084  14.899
71712W        W44780  30.861  39.943  14.792
71713W        W44781  16.707  25.536  14.251
71714W        W44782   9.527  26.610  11.589
71715W        W44783  22.724  35.966   1.668
71716W        W44784  43.303  27.156  11.992
71717W        W44785   3.601  43.212  13.803
71718W        W44786   8.369  21.596  14.348
71719W        W44787  30.673  31.944   0.806
71720W        W44788  27.453  12.668   3.484
71721W        W44789  27.169  38.517   1.825
71722W        W44790  21.110   9.697   1.842
71723W        W44791   6.785  33.543   0.489
71724W        W44792   1.050  15.751  13.395
71725W        W44793  34.456  33.328  13.929
71726W        W44794  31.556  16.555  14.556
71727W        W44795  21.753  33.634   2.159
71728W        W44796  41.174  24.240   0.906
71729W        W44797  44.209  28.134   3.086
71730W        W44798   3.486   2.559   3.479
71731W        W44799  10.775  19.054  11.140
71732W        W44800  14.860  42.872   4.165
71733W        W44801  33.101  22.719   3.730
71734W        W44802  22.107  20.234   2.944
71735W        W44803  42.809  34.939  14.904
71736W        W44804  31.520  20.170  14.726
71737W        W44805  38.254  12.589   1.782
71738W        W44806  30.519  28.169  14.272
71739W        W44807  11.624  28.259   0.332
71740W        W44808  13.213  26.933   2.223
71741W        W44809  44.222  23.758   4.608
71742W        W44810   5.403  43.870  12.875
71743W        W44811  11.970   5.480  11.030
71744W        W44812  10.148  22.531   1.329
71745W        W44813  20.281  44.877   4.122
71746W        W44814  44.443  10.864   0.922
71747W        W44815  17.135  19.263   0.341
71748W        W44816  31.836  35.722   1.329
71749W        W44817  40.127  35.579   3.655
71750W        W44818   8.415   0.774  10.910
71751W        W44819  22.952  40.060  14.422
71752W        W44820  14.630  10.488   3.182
71753W        W44821  16.041  37.624  14.313
71754W        W44822  29.450  21.493   4.887
71755W        W44823  38.475   9.087  13.865
71756W        W44824  41.431  19.014   1.895
71757W        W44825  37.351   8.763  10.640
71758W        W44826  39.464  33.420  11.083
71759W        W44827  11.852   9.935   2.311
71760W        W44828  12.115  34.348   0.806
71761W        W44829  25.141  15.084   0.750
71762W        W44830  13.174  36.260  14.201
71763W        W44831   8.599  10.151  13.370
71764W        W44832  23.317  39.924   1.483
71765W        W44833  21.021  13.538   4.496
71766W        W44834  37.057  32.729  13.883
71767W        W44835   6.166  20.105   4.552
71768W        W44836  23.612   9.389  14.294
71769W        W44837  32.592   7.955   2.892
71770W        W44838  18.718  25.318  11.516
71771W        W44839  20.075   6.875  11.681
71772W        W44840  23.688  12.823  11.507
71773W        W44841  39.551  27.882  11.902
71774W        W44842  36.144  17.107  12.116
71775W        W44843  40.139   2.582   3.762
71776W        W44844  39.458  15.938   4.767
71777W        W44845  14.143  15.675  14.390
71778W        W44846  40.019  18.288   3.942
71779W        W44847  13.170   0.031   0.929
71780W        W44848  34.399  15.775   0.433
71781W        W44849  22.216  42.575  13.432
71782W        W44850  26.120  32.523  14.314
71783W        W44851  40.285  23.280  13.562
71784W        W44852  21.568  21.615  12.700
71785W        W44853  16.672  21.564  13.082
71786W        W44854   2.906  13.027   0.454
71787W        W44855  22.000   0.500   1.812
71788W        W44856  32.846  42.020   3.680
71789W        W44857   7.958  29.002   0.939
71790W        W44858  15.263  32.073  12.420
71791W        W44859  34.384  30.647   2.806
71792W        W44860   8.913  11.246  12.530
71793W        W44861  39.166   1.802   2.636
71794W        W44862  10.814  11.283  11.358
71795W        W44863  10.193  35.389  12.430
71796W        W44864  41.231   1.285  12.529
71797W        W44865  36.563   2.756  14.847
71798W        W44866  28.542  40.465  11.075
71799W        W44867  35.238  32.929  10.243
71800W        W44868  26.607  26.549  11.891
71801W        W44869  29.261  26.240   1.326
71802W        W44870  14.763  36.526   1.665
71803W        W44871   8.374   9.700   3.118
71804W        W44872  37.578  11.589  11.130
71805W        W44873  25.779  19.307  13.318
71806W        W44874  37.678   8.173   3.257
71807W        W44875  39.100  11.197   3.160
71808W        W44876  25.361  11.642  13.419
71809W        W44877   1.367  24.583  10.795
71810W        W44878  44.001  38.381   4.282
71811W        W44879  28.592   0.285   1.299
71812W        W44880  42.384  14.741   0.877
71813W        W44881  10.045   3.774   0.806
71814W        W44882   8.425   8.899   2.217
71815W        W44883  34.449  19.069   3.804
71816W        W44884  12.581  11.735  10.456
71817W        W44885  24.075  25.729  14.514
71818W        W44886   2.064   0.455   4.170
71819W        W44887  17.267  30.984   4.377
71820W        W44888  39.014  37.584  11.183
71821W        W44889  44.802  10.982   3.674
71822W        W44890  44.495  24.422  14.512
71823W        W44891  15.842  43.928   4.080
71824W        W44892  26.383  30.412   3.370
71825W        W44893  25.079  27.977  14.758
71826W        W44894  43.325  16.138   4.106
71827W        W44895  11.646  23.654   1.378
71828W        W44896   8.815  29.715   1.439
71829W        W44897  13.704  27.089   4.387
71830W        W44898  13.267  37.613  11.711
71831W        W44899  16.399  23.990   0.866
71832W        W44900  25.121   1.181  12.869
71833W        W44901  22.189  27.269  14.724
71834W        W44902   4.702   1.956  12.073
71835W        W44903  40.266  40.721   2.180
71836W        W44904  13.875  31.792   2.907
71837W        W44905  43.259  42.458   2.916
71838W        W44906  40.533  10.655   1.932
71839W        W44907  11.640  35.449   0.884
71840W        W44908   8.062  17.211   0.989
71841W        W44909  30.743  17.227  14.860
71842W        W44910  18.057   5.650   1.253
71843W        W44911  35.151  30.059  12.923
71844W        W44912  19.192  12.212  14.382
71845W        W44913  21.759  12.666  13.379
71846W        W44914  28.882  15.585  10.697
71847W        W44915  36.606  29.129  13.919
71848W        W44916  12.741  29.488  14.077
71849W        W44917  34.364  34.323  13.462
71850W        W44918   0.574  30.929   3.784
71851W        W44919  42.416  32.196  13.764
71852W        W44920  38.644  11.698   1.641
71853W        W44921  32.244  15.245  11.244
71854W        W44922  38.599   5.017   0.603
71855W        W44923  21.777  36.886   0.409
71856W        W44924  32.505   4.670  10.399
71857W        W44925  11.879  17.667   1.100
71858W        W44926   5.452  17.510   3.255
71859W        W44927   8.568  17.643  13.354
71860W        W44928  37.467  13.983   2.718
71861W        W44929  43.894  24.107   3.320
71862W        W44930  41.355  21.591   3.113
71863W        W44931  15.470  25.411   0.166
71864W        W44932  12.817  42.763  11.543
71865W        W44933   5.199  41.019  12.682
71866W        W44934  35.930  44.454   1.045
71867W        W44935  27.248  14.005   5.104
71868W        W44936   2.532   6.207   1.368
71869W        W44937  15.079   2.451   0.916
71870W        W44938  34.890  25.472   3.727
71871W        W44939  42.302  13.171  14.572
71872W        W44940  34.527  30.620  13.359
71873W        W44941  43.263  15.755   2.696
71874W        W44942  43.693  13.675  11.461
71875W        W44943  23.730   3.731  11.499
71876W        W44944   9.695  28.536   3.150
71877W        W44945  19.801   9.006   3.656
71878W        W44946   3.883   2.675  14.412
71879W        W44947  32.069  27.574   3.693
71880W        W44948  36.806   4.784  11.669
71881W        W44949  42.886  21.504   1.390
71882W        W44950  14.039  28.842  11.665
71883W        W44951  11.747  31.483   1.461
71884W        W44952  30.593   0.657  11.844
71885W        W44953  17.132  28.629  14.979
71886W        W44954  23.966   4.263  10.958
71887W        W44955  12.808  24.158  13.384
71888W        W44956  25.812   0.484  13.880
71889W        W44957   0.557  19.065   2.715
71890W        W44958  15.620  13.236  11.289
71891W        W44959  21.726   4.398   0.477
71892W        W44960  34.514   5.478  13.511
71893W        W44961  44.509  35.515  13.805
71894W        W44962  18.026  36.245   0.823
71895W        W44963   6.419  37.158   4.299
71896W        W44964  29.951  11.865  12.828
71897W        W44965  36.729  12.270   4.251
71898W        W44966  20.713  39.499   0.595
71899W        W44967  11.829  10.639  12.967
71900W        W44968  21.620  40.511   2.246
71901W        W44969  30.048  30.994  13.904
71902W        W44970  30.324  12.213  13.971
71903W        W44971  13.822  11.186   3.230
71904W        W44972   0.795  13.143   4.369
71905W        W44973   9.509  37.455  13.960
71906W        W44974  20.606  42.923   2.568
71907W        W44975  21.089  27.681  12.609
71908W        W44976  29.630   3.466  10.349
71909W        W44977  42.534   3.835  12.052
71910W        W44978  16.157  36.905  13.500
71911W        W44979  39.755   4.398  11.228
71912W        W44980  40.322  32.053   4.690
71913W        W44981   1.886   4.694  14.393
71914W        W44982  36.763  34.271  11.200
71915W        W44983  20.245  13.688   0.614
71916W        W44984  44.708  32.120   2.871
71917W        W44985  41.627  24.449   1.187
71918W        W44986  18.026  43.777   4.290
71919W        W44987  24.743   1.363  11.561
71920W        W44988  42.247   5.962  10.984
71921W        W44989  26.631  36.789   3.829
71922W        W44990  41.521  17.170  10.910
71923W        W44991  30.391  32.821  12.534
71924W        W44992  32.397  16.539  14.627
71925W        W44993  18.069  37.464  11.166
71926W        W44994  43.699  40.223  14.835
71927W        W44995   8.900  26.959  10.795
71928W        W44996  11.753   6.930  12.459
71929W        W44997  10.832  21.778   3.149
71930W        W44998  44.141   8.150   1.407
71931W        W44999  44.673  11.186   3.208
71932W        W45000   7.920   9.438  13.931
71933W        W45001   7.465  23.209   2.307
71934W        W45002  30.354  11.431  10.681
71935W        W45003  31.505  17.555   1.877
71936W        W45004  33.394  14.539   3.335
71937W        W45005  30.029   8.242   4.604
71938W        W45006  27.239   3.832   1.382
71939W        W45007  12.329  37.941  12.509
71940W        W45008   8.405  16.410   3.402
71941W        W45009  13.584   9.389  10.482
71942W        W45010   7.804  24.596   3.649
71943W        W45011   5.102  30.053   2.965
71944W        W45012  39.802  13.582   0.962
71945W        W45013  17.466  43.243   4.662
71946W        W45014   1.418   9.710   3.704
71947W        W45015  32.133  41.420  12.355
71948W        W45016  34.102  43.771   1.390
71949W        W45017   7.227  21.002  10.643
71950W        W45018  17.511  21.653  14.621
71951W        W45019  35.920   0.957  12.051
71952W        W45020  40.338   2.736  10.506
71953W        W45021  39.543  12.646   0.431
71954W        W45022   4.587  27.785  12.290
71955W        W45023   4.871  38.913   1.104
71956W        W45024  14.186  18.684   2.203
71957W        W45025   8.917  33.909   2.835
71958W        W45026   1.070  30.052   3.905
71959W        W45027  42.796  26.633  13.276
71960W        W45028  20.014  36.998  10.616
71961W        W45029  21.876  41.227  12.167
71962W        W45030   3.015  10.421   4.028
71963W        W45031  30.408  28.118  10.819
71964W        W45032  29.944  25.874   0.789
71965W        W45033   9.078  22.577  11.440
71966W        W45034  10.665  11.792  13.650
71967W        W45035  16.838   7.239  12.933
71968W        W45036  14.880  33.542   3.565
71969W        W45037   8.103  19.502  12.700
71970W        W45038   3.449  41.958   2.357
71971W        W45039  41.928  27.155   2.105
71972W        W45040  21.243  34.575  12.635
71973W        W45041  35.892  42.709  13.415
71974W        W45042  40.393  14.724  14.731
71975W        W45043  40.886  35.508  12.008
71976W        W45044  22.749  39.611   4.037
71977W        W45045  14.415   4.748   0.332
71978W        W45046   3.452  43.456   3.633
71979W        W45047   8.176  13.291   0.783
71980W        W45048   4.915  30.661  11.571
71981W        W45049  18.678  14.505   2.272
71982W        W45050  14.353  12.813   3.676
71983W        W45051   0.226  14.769   0.274
71984W        W45052   1.430   2.424  12.513
71985W        W45053  41.383  44.316   3.111
71986W        W45054  28.966  21.377  14.368
71987W        W45055   9.795   8.464  13.961
71988W        W45056   5.637  34.524   2.306
71989W        W45057  16.392  20.491  11.605
71990W        W45058  23.246  18.598  13.907
71991W        W45059  21.997  27.266   2.913
71992W        W45060  11.206  16.874   0.454
71993W        W45061  19.218  42.557  10.683
71994W        W45062  38.569  40.271  14.880
71995W        W45063  11.633   2.093   2.776
71996W        W45064  26.283   6.774   3.316
71997W        W45065  15.347   4.414   1.374
71998W        W45066  43.737  16.608   4.325
71999W        W45067  37.624   9.687  10.960
72000W        W45068   8.927  10.806  13.453
72001W        W45069  17.088  10.301  12.750
72002W        W45070  18.078  23.222   4.899
72003W        W45071  14.869   1.063   3.299
72004W        W45072  31.714   9.097  13.429
72005W        W45073  18.745   3.949   2.217
72006W        W45074   6.276   9.571  12.449
72007W        W45075   1.289  26.105   1.319
72008W        W45076  26.194  41.611  11.193
72009W        W45077  24.423  21.718   3.977
72010W        W45078   1.981   3.385  11.909
72011W        W45079  23.025  33.379  12.637
72012W        W45080  27.914  41.726  14.005
72013W        W45081  31.085  33.026   4.211
72014W        W45082  25.313  30.601  13.061
72015W        W45083  26.689   3.635   1.791
72016W        W45084  30.580  32.849   4.181
72017W        W45085   3.404  38.847   3.637
72018W        W45086  10.162  38.509  12.568
72019W        W45087  29.270  38.600  12.896
72020W        W45088  21.573  12.901   3.894
72021W        W45089  24.102  22.562  14.745
72022W        W45090   2.132   4.428  13.327
72023W        W45091   3.273  21.958  11.307
72024W        W45092   4.703  11.080   1.389
72025W        W45093  35.030  44.964  14.042
72026W        W45094  15.270  27.208  14.047
72027W        W45095  24.831  44.906  13.520
72028W        W45096  15.609  16.817   1.242
72029W        W45097  33.560   9.622  14.665
72030W        W45098  37.046   7.662  14.906
72031W        W45099  14.227  39.955  14.567
72032W        W45100  37.667  18.592  14.310
72033W        W45101  31.536   9.027  12.829
72034W        W45102  27.685  15.623  12.602
72035W        W45103  39.395  31.658  14.791
72036W        W45104  27.207  29.606   0.988
72037W        W45105   5.111  44.249   4.044
72038W        W45106   1.806  28.706   4.523
72039W        W45107   4.255  32.588   1.856
72040W        W45108  20.075  19.317   2.366
72041W        W45109  44.009  33.077  13.523
72042W        W45110  20.193  20.701  14.404
72043W        W45111  34.525  23.184  11.615
72044W        W45112  30.186  13.403  13.825
72045W        W45113  16.588  28.999  11.514
72046W        W45114  34.582  21.177  13.873
72047W        W45115  25.953  22.303  12.856
72048W        W45116  14.333  14.227   2.903
72049W        W45117  38.559  22.540  10.627
72050W        W45118  39.455  38.940  12.020
72051W        W45119  38.393  16.769   2.418
72052W        W45120  21.739  44.514  12.326
72053W        W45121  28.352  27.445  13.023
72054W        W45122  16.579   8.394   0.916
72055W        W45123   6.003  34.042  10.544
72056W        W45124  36.301  18.811  14.442
72057W        W45125  14.551   5.920  13.614
72058W        W45126   8.504  23.858  13.000
72059W        W45127  41.487  40.763  14.864
72060W        W45128  13.336   0.513  12.835
72061W        W45129  22.255  36.103  12.881
72062W        W45130  36.878  25.020  11.933
72063W        W45131   1.505  35.359   2.304
72064W        W45132  16.522   5.274  11.997
72065W        W45133  21.036   2.995   3.168
72066W        W45134  13.780  40.469  13.766
72067W        W45135  22.730   3.191  13.457
72068W        W45136   2.546  34.457  13.310
72069W        W45137   2.369  12.864  11.219
72070W        W45138  40.792   6.613  13.708
72071W        W45139   9.419  21.060   1.204
72072W        W45140  13.275   4.254   2.340
72073W        W45141   6.391   8.388  10.673
72074W        W45142   8.837  17.805  11.696
72075W        W45143  32.794  14.219   0.856
72076W        W45144   8.833   6.719  14.069
72077W        W45145   8.306   0.018   4.120
72078W        W45146  15.159   8.967  14.486
72079W        W45147  34.312   0.321  12.905
72080W        W45148  25.475  35.121   2.170
72081W        W45149  13.788   4.787   1.336
72082W        W45150  21.133  29.559   3.283
72083W        W45151  13.321  23.689   4.605
72084W        W45152  42.696   8.263   4.906
72085W        W45153   1.290  20.768  12.430
72086W        W45154  18.993   0.754  11.991
72087W        W45155  33.292  43.481   4.299
72088W        W45156  37.040   3.157  14.283
72089W        W45157  37.366   7.477   3.996
72090W        W45158   6.534  12.752   9.769
72091W        W45159   5.280  31.948  13.948
72092W        W45160  30.396  39.992   4.564
72093W        W45161  26.462   1.698  14.482
72094W        W45162  27.964   7.794  10.716
72095W        W45163   2.465   7.710   0.953
72096W        W45164   5.259  44.014   0.448
72097W        W45165   4.155  32.561   4.651
72098W        W45166  20.280  27.162  10.663
72099W        W45167  15.255  31.557  14.460
72100W        W45168  40.290   6.241   2.243
72101W        W45169  11.299  39.522   3.427
72102W        W45170  42.551  20.000  13.128
72103W        W45171  28.540  44.888  11.392
72104W        W45172  18.761  13.249  14.751
72105W        W45173   9.404  43.242  13.368
72106W        W45174  29.433  16.894  11.556
72107W        W45175  26.503   3.322  12.624
72108W        W45176  26.954  27.595   2.670
72109W        W45177  16.738  14.407   5.142
72110W        W45178  23.836  27.600  11.107
72111W        W45179  15.134  31.635   2.306
72112W        W45180  27.774   5.796  11.846
72113W        W45181   9.360  32.550  10.714
72114W        W45182   1.390  35.757  13.184
72115W        W45183  37.932  16.802   1.743
72116W        W45184  36.817  25.201   4.243
72117W        W45185   1.424  17.683   4.802
72118W        W45186  21.549  10.681   1.140
72119W        W45187  39.814  41.462  12.634
72120W        W45188   0.224  26.709   2.854
72121W        W45189  15.050  31.903   4.120
72122W        W45190  18.079  11.723  12.566
72123W        W45191   3.661  27.564   0.786
72124W        W45192  17.721  36.407  14.482
72125W        W45193  25.103  23.129   2.212
72126W        W45194  28.324  14.318  11.913
72127W        W45195  22.686   2.314  11.050
72128W        W45196  39.656  10.731  12.059
72129W        W45197  25.648  31.629  11.647
72130W        W45198  32.419  43.180   0.138
72131W        W45199   3.659  39.571   4.333
72132W        W45200   1.747   7.954   0.820
72133W        W45201   9.876  25.757  14.580
72134W        W45202   3.820  18.762   2.619
72135W        W45203  21.703   3.932  13.562
72136W        W45204  44.516  22.219   1.990
72137W        W45205  30.960  37.508   1.831
72138W        W45206  44.342  29.737  12.124
72139W        W45207  14.800  32.638  11.433
72140W        W45208  22.693  20.582  12.096
72141W        W45209  20.540  23.478   1.618
72142W        W45210   7.351  40.602   2.429
72143W        W45211  26.574  10.437   3.707
72144W        W45212  11.197  33.139   2.172
72145W        W45213  17.564   1.541  14.574
72146W        W45214  34.917  22.479   0.461
72147W        W45215  29.090  28.955   0.884
72148W        W45216  37.312  12.395   0.911
72149W        W45217   4.427  22.796  11.090
72150W        W45218  33.679  42.595  14.316
72151W        W45219  12.792  24.748  12.377
72152W        W45220  18.662  18.835   2.771
72153W        W45221  22.908  26.291  14.383
72154W        W45222  34.646   2.755   3.706
72155W        W45223   3.391  13.727  14.641
72156W        W45224  34.466  17.117   4.840
72157W        W45225  11.878  32.057   0.180
72158W        W45226  23.440  30.562  13.315
72159W        W45227  13.732  15.330   0.275
72160W        W45228   9.692  17.400   4.248
72161W        W45229   3.358  16.940   1.060
72162W        W45230  32.874  44.498  13.771
72163W        W45231  43.535  42.782   4.017
72164W        W45232  37.663  14.104  12.024
72165W        W45233   4.271  12.130   2.318
72166W        W45234  37.005  20.038  14.953
72167W        W45235  32.628  21.225  10.947
72168W        W45236  40.087   0.224  14.316
72169W        W45237  31.448   3.111   5.018
72170W        W45238  41.507  35.789   1.243
72171W        W45239  10.139  34.406  14.309
72172W        W45240  15.779  41.611   4.181
72173W        W45241  16.777  31.895  12.046
72174W        W45242  36.943  42.988   5.072
72175W        W45243  11.769  25.534   0.916
72176W        W45244  24.548  33.290   3.305
72177W        W45245  36.172   7.526  14.914
72178W        W45246  26.265  26.104  11.122
72179W        W45247   4.214   9.159   4.116
72180W        W45248  18.925  10.198  12.920
72181W        W45249  11.587  32.952   3.540
72182W        W45250  33.958   5.854   1.135
72183W        W45251  24.115  15.969   1.230
72184W        W45252  25.680  30.060  14.328
72185W        W45253  13.997  24.904   2.438
72186W        W45254  26.387  32.079   2.432
72187W        W45255   3.330  23.628   4.930
72188W        W45256  12.780  32.800   0.532
72189W        W45257  15.696  30.030  12.955
72190W        W45258   2.020  22.031  12.284
72191W        W45259  33.823   2.370  13.018
72192W        W45260  17.662  22.534  14.056
72193W        W45261  19.018  32.926  11.564
72194W        W45262  12.996  38.068   0.531
72195W        W45263  16.525  15.331   3.776
72196W        W45264  30.691  15.845  11.202
72197W        W45265  27.738  21.096   3.727
72198W        W45266  24.476  43.158  12.497
72199W        W45267   9.850  22.215  13.028
72200W        W45268  40.880  23.286  13.070
72201W        W45269  29.732   6.851   1.266
72202W        W45270  13.337  22.124   0.913
72203W        W45271   2.718  25.979  12.811
72204W        W45272  34.729  34.199  11.558
72205W        W45273  14.151   9.774  14.700
72206W        W45274   4.310  12.680   3.839
72207W        W45275  22.198   1.162  12.561
72208W        W45276  29.176  43.284  14.826
72209W        W45277  19.712  39.009  10.365
72210W        W45278  15.750  43.795  13.309
72211W        W45279  42.031   7.083   4.148
72212W        W45280   8.515  35.641   2.043
72213W        W45281  35.105   5.361   2.296
72214W        W45282  28.694  40.551  12.944
72215W        W45283  16.273  30.896   4.220
72216W        W45284  29.692  21.668   0.894
72217W        W45285  35.118  15.845   4.492
72218W        W45286  22.550  21.006  11.835
72219W        W45287  43.883   6.629   4.208
72220W        W45288  13.752   6.016  11.133
72221W        W45289  44.716   0.724  10.649
72222W        W45290  31.574   9.751   0.780
72223W        W45291  12.650  19.912  13.769
72224W        W45292  16.261  13.729  12.617
72225W        W45293  13.706   5.813  13.294
72226W        W45294  39.045  42.757  13.826
72227W        W45295  21.269  41.438   4.092
72228W        W45296  44.426  18.977  13.510
72229W        W45297  39.900  42.150  11.170
72230W        W45298  31.863  18.144  12.638
72231W        W45299  12.327  13.160  14.838
72232W        W45300  26.361  15.702  12.439
72233W        W45301  26.881  38.796   4.202
72234W        W45302  25.473   0.320   1.219
72235W        W45303  43.658   2.773   4.466
72236W        W45304  15.331  30.439   0.379
72237W        W45305  30.338  31.455  11.149
72238W        W45306  24.610  14.302  11.095
72239W        W45307  24.253  44.921   2.410
72240W        W45308  30.716  35.675  11.037
72241W        W45309  44.934   2.239   2.664
72242W        W45310   6.849   8.187  13.138
72243W        W45311   9.856  11.617   1.136
72244W        W45312  36.942  15.836   1.645
72245W        W45313  25.993  38.594   0.982
72246W        W45314  19.819  11.597   4.152
72247W        W45315   1.258  23.567  13.426
72248W        W45316  20.769  10.219   4.419
72249W        W45317   4.984   2.793   3.236
72250W        W45318  32.583  44.363  12.655
72251W        W45319  22.258  25.083  11.199
72252W        W45320  15.633  44.519  14.990
72253W        W45321  40.868   9.769   4.922
72254W        W45322  39.117  26.040   2.883
72255W        W45323  17.588  28.255   1.938
72256W        W45324  38.745  43.579  14.362
72257W        W45325  28.161  13.244   3.109
72258W        W45326  27.708  35.929   0.022
72259W        W45327  41.468  13.689   1.352
72260W        W45328  41.506  35.450   2.694
72261W        W45329  36.066  33.880  10.301
72262W        W45330  39.584  18.651   0.286
72263W        W45331  28.466  34.341   0.887
72264W        W45332  11.375  44.445   4.207
72265W        W45333  37.764  12.746   4.591
72266W        W45334  19.252   9.726   4.631
72267W        W45335  11.214   1.367  13.805
72268W        W45336  43.349   7.351   1.128
72269W        W45337  27.048  10.363  13.414
72270W        W45338  22.743  34.582  11.588
72271W        W45339  14.161   3.419   1.482
72272W        W45340  29.760  32.921   0.269
72273W        W45341   6.704  40.259   1.884
72274W        W45342  42.429  22.717   0.067
72275W        W45343  29.018  22.634  13.893
72276W        W45344  28.387  27.926   0.414
72277W        W45345  44.531  26.053   0.882
72278W        W45346  28.943   5.743  14.843
72279W        W45347  39.385  40.567  14.216
72280W        W45348   3.444  32.987   3.193
72281W        W45349   6.901   6.504   2.720
72282W        W45350   3.849  14.462  11.196
72283W        W45351   3.860  31.899   2.312
72284W        W45352   0.166  21.550  13.361
72285W        W45353  41.406  16.733  13.026
72286W        W45354  44.704  11.195   4.122
72287W        W45355  14.626  43.530  10.701
72288W        W45356  12.259   4.707  12.985
72289W        W45357  40.835  22.637   0.677
72290W        W45358   0.256  44.009  12.996
72291W        W45359  37.738  38.106   0.378
72292W        W45360   2.247  16.699  13.862
72293W        W45361   7.311  26.180   4.248
72294W        W45362  20.224  12.184   4.531
72295W        W45363  23.995  33.834   0.711
72296W        W45364  13.743   5.418   3.388
72297W        W45365  15.824  44.295   1.410
72298W        W45366   2.739  28.967   2.418
72299W        W45367  23.207  24.119   0.375
72300W        W45368  39.720  43.916  11.113
72301W        W45369   0.005  24.181   2.449
72302W        W45370  14.106  37.510   2.834
72303W        W45371  42.554  15.239   1.889
72304W        W45372  29.102   2.462  11.666
72305W        W45373  11.144  32.336   3.613
72306W        W45374  27.729  41.818   4.126
72307W        W45375   7.272  36.906   4.215
72308W        W45376  12.006  34.011  10.373
72309ION    NA+45377  18.463   6.216  11.118
72310ION    NA+45378  11.407   4.085  14.281
72311ION    NA+45379  10.821  39.758   2.527
72312ION    NA+45380  44.527   6.714   4.684
72313ION    NA+45381   6.559   4.121  12.081
72314ION    NA+45382  41.317  42.972  13.695
72315ION    NA+45383  35.806  17.984  13.314
72316ION    NA+45384  14.290  39.636   2.638
72317ION    NA+45385   6.989  33.331   4.534
72318ION    NA+45386  44.789  15.661  14.735
72319ION    NA+45387  44.049  17.111  14.504
72320ION    NA+45388  33.054   6.709  14.505
72321ION    NA+45389  42.964   6.603  12.934
72322ION    NA+45390  33.333  43.354  14.874
72323ION    NA+45391  25.681  26.470   3.598
72324ION    NA+45392  37.830  36.890   0.986
72325ION    NA+45393   8.140  17.075  10.269
72326ION    NA+45394  34.277  22.179   1.225
72327ION    NA+45395  14.734  42.010   1.776
72328ION    NA+45396  17.051  17.518   3.280
72329ION    NA+45397   5.003  19.279   2.311
72330ION    NA+45398  36.617  42.292   0.254
72331ION    NA+45399  36.277   9.776  10.913
72332ION    NA+45400   8.227  16.274   0.689
72333ION    NA+45401   7.707  27.151   4.574
72334ION    NA+45402   7.139  24.121   2.239
72335ION    NA+45403   5.479   0.098   3.080
72336ION    NA+45404  43.953   3.245   2.614
72337ION    NA+45405  39.347  12.482  13.229
72338ION    NA+45406  25.455  35.051  10.698
72339ION    NA+45407  43.323  10.143  11.127
72340ION    NA+45408  22.039  34.431  11.930
72341ION    NA+45409  36.335  36.508  12.269
72342ION    NA+45410  13.194  36.866  10.725
72343ION    NA+45411  39.507  37.537  11.401
72344ION    NA+45412   5.022  35.552  13.608
72345ION    NA+45413  27.010   9.119   5.618
72346ION    NA+45414  40.188  35.822  11.501
72347ION    NA+45415  43.250  12.578  11.967
72348ION    NA+45416  44.094  30.497   0.876
72349ION    NA+45417  17.159  29.109  12.149
72350ION    NA+45418  35.860   3.891  10.382
72351ION    NA+45419   7.951   0.675  13.572
72352ION    NA+45420  35.109  26.569  13.843
72353ION    NA+45421  33.322  42.024   2.909
72354ION    NA+45422  24.109   4.224   0.881
72355ION    NA+45423  37.675  30.158   4.626
72356ION    NA+45424  35.588  38.891   4.739
72357ION    NA+45425  44.318  14.124  12.879
72358ION    NA+45426  25.190  13.569   2.268
72359ION    NA+45427  26.330   2.391   2.868
72360ION    NA+45428  25.939  19.073   1.994
72361ION    NA+45429  34.366  15.515   1.408
72362ION    NA+45430  20.576   2.926   3.402
72363ION    NA+45431  43.016  26.889   2.698
72364ION    NA+45432   9.634  31.148  11.889
72365ION    NA+45433  25.295  44.002   4.675
72366ION    NA+45434  12.655  36.138   3.909
72367ION    NA+45435  13.176   0.982   5.279
72368ION    NA+45436  21.716  35.345  12.438
72369ION    NA+45437   3.668  31.774  12.904
72370ION    NA+45438  27.159  26.636   5.019
72371ION    NA+45439  29.015  10.179  11.172
72372ION    NA+45440  24.713  11.836  12.521
72373ION    NA+45441  16.967  12.809   4.588
72374ION    NA+45442  24.110  42.110  12.115
72375ION    NA+45443  42.609  35.344   3.180
72376ION    NA+45444  18.045  13.005   2.152
72377ION    NA+45445  31.437  29.156   4.016
72378ION    NA+45446  17.508  13.375  11.152
72379ION    NA+45447   9.624  29.088  14.854
72380ION    NA+45448   4.951  21.988  14.104
72381ION    NA+45449  32.839  36.324  12.090
72382ION    NA+45450  35.549  30.663  13.493
72383ION    NA+45451  11.361  15.852  12.155
72384ION    NA+45452  13.477  10.049  12.485
72385ION    NA+45453  38.592  31.241  13.502
72386ION    NA+45454  11.819  14.157  14.869
72387ION    NA+45455  39.460  39.011  13.881
72388ION    NA+45456   6.907   3.654  14.932
72389ION    NA+45457  34.212  32.739  11.088
72390ION    NA+45458  15.343  44.509   1.380
72391ION    NA+45459  10.410   7.848   4.113
72392ION    NA+45460  24.237  36.101   2.992
72393ION    NA+45461  25.125  25.161   1.768
72394ION    NA+45462  13.790  40.383  13.223
72395ION    NA+45463  29.877  15.816  12.060
72396ION    NA+45464  30.445  14.127   3.566
72397ION    NA+45465  11.601  19.002   1.157
72398ION    NA+45466  43.801  10.383  13.157
72399ION    NA+45467  22.948  12.733  13.501
72400ION    NA+45468  30.549  44.554   1.686
72401ION    NA+45469  19.977  33.164  12.120
72402ION    NA+45470  33.861  12.638   1.820
72403ION    NA+45471   0.890  20.822  12.128
72404ION    NA+45472  40.069  30.631   3.634
72405ION    NA+45473  30.649   9.013  12.776
72406ION    NA+45474  43.713  43.262   4.127
72407ION    NA+45475  31.593  34.262   2.450
72408ION    NA+45476  39.765   8.697   4.526
72409ION    NA+45477  34.861  25.379  13.434
72410ION    NA+45478  26.708  20.210  12.100
72411ION    NA+45479  26.693  34.212  14.779
72412ION    NA+45480  12.419  18.722   1.662
72413ION    NA+45481  34.713   0.697   0.114
72414ION    NA+45482   5.474  23.547  13.733
72415ION    NA+45483  22.637  20.063  11.991
72416ION    NA+45484   0.395  36.681   3.679
72417ION    NA+45485   3.314  16.383  11.507
72418ION    NA+45486   1.024  39.136  12.058
72419ION    NA+45487  18.502   0.737   0.890
72420ION    NA+45488  29.460  23.639   4.517
72421ION    NA+45489  31.643  15.409   9.733
72422ION    NA+45490  43.557  40.747   1.015
72423ION    NA+45491  16.673  32.012  13.849
72424ION    NA+45492  44.211  10.457   4.567
72425ION    NA+45493  36.603  37.604  13.646
72426ION    NA+45494  25.691  14.227   1.576
72427ION    NA+45495  17.693   0.970   1.244
72428ION    NA+45496  13.651   4.862  10.889
72429ION    NA+45497  10.183  40.798  13.965
72430ION    NA+45498  26.122   4.524  14.788
72431ION    NA+45499  18.716   9.830   0.880
72432ION    NA+45500   7.377  36.762  11.993
72433ION    NA+45501  36.616  23.729  12.789
72434ION    NA+45502  10.436  43.910   9.943
72435ION    NA+45503  37.868  19.723  11.759
72436ION    NA+45504  15.955  23.599   3.651
72437ION    NA+45505  10.257  10.153  12.977
72438ION    NA+45506  25.271  26.547   9.786
72439ION    NA+45507   0.566  26.962   4.026
72440ION    NA+45508   4.716  26.371  12.546
72441ION    NA+45509   5.992  26.033   0.021
72442ION    NA+45510  42.649   0.390   3.654
72443ION    NA+45511  43.435  14.506   2.619
72444ION    NA+45512  32.383  17.659  11.570
72445ION    NA+45513  19.515  28.121  14.561
72446ION    NA+45514  43.594  14.912  13.789
72447ION    NA+45515  43.448   4.900  14.953
72448ION    NA+45516  28.260  22.355  14.688
72449ION    NA+45517  28.995  26.752   0.221
72450ION    NA+45518  26.917  16.126   1.942
72451ION    NA+45519  32.892   3.477  12.368
72452ION    NA+45520  17.143  36.842  14.411
72453ION    NA+45521  15.898  32.613   4.671
72454ION    NA+45522  36.812  33.258  14.476
72455ION    NA+45523  37.842  41.765  13.976
72456ION    NA+45524   8.161  40.100  10.508
72457ION    NA+45525  36.016   7.534   0.388
72458ION    NA+45526   7.910  33.147  10.309
72459ION    NA+45527   5.502   2.768   3.121
72460ION    NA+45528   1.835  39.848   0.911
72461ION    NA+45529   6.708  29.883   4.681
72462ION    NA+45530  18.261  26.587  11.089
72463ION    NA+45531  11.466  15.746   3.040
72464ION    NA+45532  35.818   1.460   2.924
72465ION    NA+45533  37.836  44.537   3.324
72466ION    NA+45534  14.322   7.410   3.880
72467ION    NA+45535   3.033  15.455   1.591
72468ION    NA+45536   6.875  16.357  14.469
72469ION    NA+45537  13.421  29.655   2.554
72470ION    NA+45538  17.861  34.566   0.836
72471ION    NA+45539  20.876  13.708   1.272
72472ION    NA+45540  22.608  37.737   0.466
72473ION    NA+45541   6.131  26.398  10.786
72474ION    NA+45542   6.843   4.986  10.834
72475ION    NA+45543  44.412  16.194  11.958
72476ION    NA+45544  27.402  27.392  14.817
72477ION    NA+45545  37.874   0.760   0.047
72478ION    NA+45546   0.032  26.467   0.077
72479ION    NA+45547  41.740   7.229  11.544
72480ION    NA+45548  12.057  11.156   0.139
72481ION    NA+45549  40.657  34.116  12.239
72482ION    NA+45550  35.383   5.043  14.332
72483ION    NA+45551   1.687   2.961  13.343
72484ION    NA+45552   0.852  34.376   2.121
72485ION    NA+45553  19.516  23.149  12.307
72486ION    NA+45554  15.854  33.101   3.266
72487ION    NA+45555   3.403   5.064  14.756
72488ION    NA+45556  15.702  21.621  13.795
72489ION    NA+45557  41.090   8.185   1.360
72490ION    NA+45558   5.665  29.034  12.500
72491ION    NA+45559  36.716  12.141  12.777
72492ION    NA+45560  33.595  44.457   1.258
72493ION    NA+45561  30.263   1.370   2.322
72494ION    NA+45562  40.749  36.532   3.315
72495ION    NA+45563  25.591  18.459   0.238
72496ION    NA+45564  10.826  25.272  12.992
72497ION    NA+45565  37.669   7.954  13.956
72498ION    NA+45566  11.475  27.439   9.668
72499ION    NA+45567  21.155  28.504  13.955
72500ION    NA+45568  24.037  35.093   1.435
72501ION    NA+45569  17.006  22.630  11.251
72502ION    NA+45570  27.682  15.958   2.564
72503ION    NA+45571  14.297  41.081   3.843
72504ION    NA+45572  13.039  42.391  12.481
72505ION    NA+45573  16.370  39.623   1.722
72506ION    NA+45574  41.761  23.502   0.835
72507ION    NA+45575   3.723  36.667   3.721
72508ION    NA+45576  10.053  27.827  10.981
72509ION    NA+45577  38.082  32.214  13.408
72510ION    NA+45578  18.499  18.579   3.254
72511ION    NA+45579  41.532  24.285  10.724
72512ION    NA+45580   5.373  18.806  13.286
72513ION    NA+45581  35.417  16.760  13.124
72514ION    NA+45582  17.974   9.400   3.564
72515ION    NA+45583  44.393  20.457   3.042
72516ION    NA+45584  25.714   7.567  12.625
72517ION    NA+45585  21.955  12.576   3.764
72518ION    NA+45586  36.762  16.659  14.701
72519ION    NA+45587  38.803  36.937   1.370
72520ION    NA+45588  20.030  37.545  13.554
72521ION    NA+45589  42.521  38.296   1.356
72522ION    NA+45590  21.569  37.989  12.886
72523ION    NA+45591  14.867  40.542   2.153
72524ION    NA+45592  11.610   9.369   2.818
72525ION    NA+45593   6.079   3.939   1.453
72526ION    NA+45594  41.783   8.378   0.080
72527ION    NA+45595  26.657   6.404  14.896
72528ION    NA+45596  14.085  25.075  14.069
72529ION    NA+45597   7.909   7.418   2.847
72530ION    NA+45598  42.328   4.822  11.295
72531ION    NA+45599  30.885  36.962  10.640
72532ION    NA+45600   2.939  33.893   3.463
72533ION    NA+45601   7.479  24.932   2.463
72534ION    NA+45602   9.105  33.207  14.404
72535ION    NA+45603  21.604  13.034   2.947
72536ION    NA+45604  27.437  33.178   1.505
72537ION    NA+45605  31.393   9.383   4.757
72538ION    NA+45606  27.389   3.314   1.298
72539ION    NA+45607   9.301   9.829   3.930
72540ION    NA+45608   2.214  20.146   4.816
72541ION    NA+45609  38.049  31.627  10.735
72542ION    NA+45610   2.808  32.460  13.896
72543ION    NA+45611  23.881  15.062   3.683
72544ION    NA+45612  42.486   3.396  14.181
72545ION    NA+45613  14.337   1.188  11.525
72546ION    NA+45614  22.293  13.368   1.250
72547ION    NA+45615  26.628  37.800  10.861
72548ION    NA+45616  19.545  13.872   1.339
72549ION    NA+45617  15.036   9.870  12.093
72550ION    NA+45618  44.166  23.214   9.962
72551ION    NA+45619  12.332  35.265  11.851
72552ION    NA+45620  12.101  21.600  11.406
72553ION    NA+45621  14.904  34.652   1.445
72554ION    NA+45622  21.223   2.365  12.032
72555ION    NA+45623  39.044   2.502   1.348
72556ION    NA+45624   2.926  30.271  11.762
72557ION    NA+45625  23.993   2.615  12.457
72558ION    NA+45626   0.777  32.669  13.053
72559ION    NA+45627   4.042  37.980  11.967
72560ION    NA+45628   4.516  25.971   2.387
72561ION    NA+45629  35.903  38.637  10.927
72562ION    NA+45630  41.879  22.030  11.614
72563ION    NA+45631  26.030  10.573  14.674
72564ION    NA+45632   9.734  28.110   0.229
72565ION    NA+45633  14.460  28.947   2.230
72566ION    NA+45634  43.313  10.110   1.767
72567ION    NA+45635  14.072  33.127  13.221
72568ION    NA+45636  13.447   5.048  11.696
72569ION    NA+45637  39.160  23.100  11.264
72570ION    NA+45638   6.626  27.299   1.906
72571ION    NA+45639  24.724  18.610   0.249
72572ION    NA+45640   8.892   4.951   1.275
72573ION    NA+45641  15.864  36.530  13.879
72574ION    NA+45642  11.349  21.825   2.946
72575ION    NA+45643  43.517  28.486   0.270
72576ION    NA+45644  23.949  19.696   9.978
72577ION    NA+45645  16.776  12.235   2.426
72578ION    NA+45646   1.980  12.633  11.541
72579ION    NA+45647  37.020  20.997   3.883
72580ION    NA+45648  27.925   9.286   2.974
72581ION    NA+45649  10.573  19.540   0.396
72582ION    NA+45650  36.567   4.471   2.643
72583ION    NA+45651  38.505  39.601   3.092
72584ION    NA+45652  37.025  38.427   4.595
72585ION    NA+45653  39.832  33.083   2.238
72586ION    NA+45654  43.028  28.234   2.217
72587ION    NA+45655  27.077   4.448   3.253
72588ION    NA+45656  39.950  27.940   1.389
72589ION    NA+45657  22.265   7.181   4.106
72590ION    NA+45658  34.247  21.044   2.469
72591ION    NA+45659  32.695   1.463  14.104
72592ION    NA+45660  11.749  24.995   2.902
72593ION    NA+45661   4.815  40.088   4.672
72594ION    NA+45662  16.319  44.121   4.151
72595ION    NA+45663  40.095   1.830  12.375
72596ION    NA+45664  38.304  32.896  12.876
72597ION    NA+45665  35.439  42.243  11.729
72598ION    NA+45666  38.240   1.925   1.486
72599ION    NA+45667   4.844  15.890   2.148
72600ION    NA+45668   7.713   6.388   2.661
72601ION    NA+45669  12.706   3.718   2.768
72602ION    NA+45670  14.452   7.634   5.074
72603ION    NA+45671   6.785  11.625   2.740
72604ION    NA+45672  41.903   6.673   0.158
72605ION    NA+45673   1.348   8.767   3.119
72606ION    NA+45674  23.209   8.603   4.148
72607ION    NA+45675  29.124  29.670   9.951
72608ION    NA+45676  15.107   0.971  13.408
72609ION    NA+45677  39.354  37.907   0.320
72610ION    NA+45678  43.932   7.402   2.145
72611ION    NA+45679  44.730  24.277  14.065
72612ION    NA+45680  12.810  36.842   0.166
72613ION    NA+45681  16.342  34.771  14.947
72614ION    NA+45682   0.192  26.958   1.243
72615ION    NA+45683  24.661  36.829   0.836
72616ION    NA+45684  29.698  33.128   2.288
72617ION    NA+45685  38.130   8.799   2.743
72618ION    NA+45686  10.097  34.754   1.601
72619ION    NA+45687  15.586   6.769   2.682
72620ION    NA+45688  27.187  16.643  12.382
72621ION    NA+45689  28.896  37.889   4.439
72622ION    NA+45690  40.831  32.179   4.431
72623ION    NA+45691  38.161  37.096   3.566
72624ION    NA+45692  42.765  17.143  12.106
72625ION    NA+45693   9.842  21.563  12.593
72626ION    NA+45694  24.753  15.774  14.197
72627ION    NA+45695  18.953   6.176   1.983
72628ION    NA+45696  27.717  30.484  11.995
72629ION    NA+45697  12.107  19.930  12.491
72630ION    NA+45698  27.271  11.411  14.170
72631ION    NA+45699  44.300   2.099   3.748
72632ION    NA+45700  22.233  21.538   2.533
72633ION    NA+45701  13.061  30.739   0.595
72634ION    NA+45702  19.266  43.758  14.315
72635ION    NA+45703  22.051  15.359  12.985
72636ION    NA+45704  28.537  14.658   2.364
72637ION    NA+45705  11.451   5.613   2.797
72638ION    NA+45706  11.713  25.213  11.584
72639ION    NA+45707  21.375   5.331  12.906
72640ION    NA+45708  22.566   0.970  12.874
72641ION    NA+45709   6.934  38.507   3.106
72642ION    NA+45710  25.871  28.753   3.243
72643ION    NA+45711  23.870  16.926   5.337
72644ION    NA+45712  23.328  26.485   2.448
72645ION    NA+45713  18.336  23.649   4.752
72646ION    NA+45714  27.960  34.936   1.778
72647ION    NA+45715   2.517  21.794   1.459
72648ION    NA+45716  28.458  26.228  10.791
72649ION    NA+45717   9.180  21.601   4.095
72650ION    NA+45718  24.448  42.061   1.183
72651ION    NA+45719  23.466  38.561   1.172
72652ION    NA+45720  14.605  23.674  12.137
72653ION    NA+45721  15.991  24.233  10.891
72654ION    NA+45722  32.244  14.868  12.083
72655ION    NA+45723  29.200  19.308   1.474
72656ION    NA+45724  18.976   7.810  11.536
72657ION    NA+45725  17.600  22.312  12.040
72658ION    NA+45726  21.449  15.268   1.410
72659ION    NA+45727   7.388  42.870   4.156
72660ION    NA+45728  21.035  28.689  12.974
72661ION    NA+45729  30.422  19.864   2.784
72662ION    NA+45730  24.987  19.628   0.487
72663ION    NA+45731   0.226  36.684   0.895
72664ION    NA+45732  26.114  41.082  11.285
72665ION    NA+45733  32.626  30.985  13.942
72666ION    NA+45734   0.791   6.956  12.058
72667ION    NA+45735  35.441  11.632  14.284
72668ION    NA+45736  19.324   7.289  14.755
72669ION    NA+45737  19.627  26.319   2.866
72670ION    NA+45738  28.556  15.174  10.619
72671ION    NA+45739  34.912  35.027   2.788
72672ION    NA+45740  34.357  32.567  13.052
72673ION    NA+45741   2.980  28.186   2.785
72674ION    NA+45742  12.400  33.884   3.933
72675ION    NA+45743  24.863  40.351   3.281
72676ION    NA+45744  17.716  39.818  12.645
72677ION    NA+45745  30.509  20.173   1.205
72678ION    NA+45746  14.831  38.911  13.990
72679ION    NA+45747  30.078  32.570  11.171
72680ION    NA+45748  34.129  30.516   3.218
72681ION    NA+45749  32.679  44.359   1.555
72682ION    NA+45750  34.259   0.782  13.769
72683ION    NA+45751   4.728  19.068   3.893
72684ION    NA+45752  28.738  34.594   2.829
72685ION    NA+45753  15.135  10.607   1.445
72686ION    NA+45754  43.366  43.014  12.182
72687ION    NA+45755  16.240   5.453  11.577
72688ION    NA+45756  40.735   0.815  13.944
72689ION    NA+45757  19.107  36.831  13.613
72690ION    NA+45758  30.076  24.724   4.490
72691ION    NA+45759  23.486  41.527   4.543
72692ION    NA+45760   0.210  11.073   4.173
72693ION    NA+45761  43.219  13.055   4.417
72694ION    NA+45762   6.865  38.592   1.413
72695ION    NA+45763   7.778   8.373   4.250
72696ION    NA+45764   9.795  27.840   1.239
72697ION    NA+45765  40.430   0.661  10.705
72698ION    NA+45766  20.438   5.203  13.247
72699ION    NA+45767  20.046  27.550  12.413
72700ION    NA+45768  11.057  23.088  14.445
72701ION    NA+45769  18.690  12.441  11.687
72702ION    NA+45770  21.723   4.745  11.067
72703ION    NA+45771  16.282  34.020   0.390
72704ION    NA+45772  21.722  13.085  10.663
72705ION    NA+45773   8.156  39.922   2.314
72706ION    NA+45774  16.046  33.030  13.605
72707ION    NA+45775  24.590  20.212  12.633
72708ION    NA+45776   6.731  39.026  12.296
72709ION    NA+45777  38.081  34.699  10.664
72710ION    NA+45778  42.357   2.435   4.387
72711ION    NA+45779  30.940  17.062   0.330
72712ION    NA+45780   2.372   8.731  12.147
72713ION    NA+45781  40.194   5.735  12.471
72714ION    NA+45782   1.741  17.274  14.001
72715ION    NA+45783  12.664   2.706   3.213
72716ION    NA+45784  42.257  36.067   0.806
72717ION    NA+45785  43.712  25.613  11.151
72718ION    NA+45786  41.946   4.036  11.786
72719ION    NA+45787   4.292  21.074  11.643
72720ION    NA+45788   6.563  23.431   4.574
72721ION    NA+45789  25.933  25.048   0.482
72722ION    NA+45790  12.187  41.497  12.762
72723ION    NA+45791  26.977  39.045   1.779
72724ION    NA+45792   8.782  33.037   3.670
72725ION    NA+45793  12.276  29.736   4.923
72726ION    NA+45794  37.532  36.922   1.944
72727ION    NA+45795  33.189  25.356   4.809
72728ION    NA+45796  38.990  37.010  12.372
72729ION    NA+45797  28.033  39.661  13.875
72730ION    NA+45798   1.278  11.118  10.796
72731ION    NA+45799  34.103   7.272   1.180
72732ION    NA+45800   5.402  25.789   2.498
72733ION    NA+45801  18.662  17.357  10.760
72734ION    NA+45802  17.863   6.234  11.672
72735ION    NA+45803   7.301  12.294  12.773
72736ION    NA+45804  36.648  30.940  12.912
72737ION    NA+45805  33.509  16.740   5.063
72738ION    NA+45806  38.768  33.002  10.868
72739ION    NA+45807  39.119  11.741   4.705
72740ION    NA+45808  42.050   5.075   1.285
72741ION    NA+45809  31.197  16.223   1.298
72742ION    NA+45810  20.533  31.472  13.844
72743ION    NA+45811  39.891  11.297  13.531
72744ION    NA+45812  11.414  15.388  11.270
72745ION    NA+45813   9.094  15.743   0.909
72746ION    NA+45814  27.608   6.987   3.303
72747ION    NA+45815   0.798   2.020   4.173
72748ION    NA+45816   7.404   5.178  13.677
72749ION    NA+45817  28.430  43.873  12.393
72750ION    NA+45818   4.830  42.797   4.159
72751ION    NA+45819  39.789  16.484  13.140
72752ION    NA+45820   8.899  25.096  14.509
72753ION    NA+45821   1.807   5.374  13.491
72754ION    NA+45822  37.439  27.827  12.325
72755ION    NA+45823  39.044   7.058   1.748
72756ION    NA+45824   2.533  29.496  10.682
72757ION    NA+45825  19.166   5.660  13.786
72758ION    NA+45826  37.813   5.370   2.174
72759ION    NA+45827  17.087  33.590  13.064
72760ION    NA+45828  15.279   0.034   0.743
72761ION    NA+45829  14.104  10.751   2.297
72762ION    NA+45830  39.497  15.217   0.229
72763ION    NA+45831  16.063  26.118  12.747
72764ION    NA+45832  33.129  17.558   1.305
72765ION    NA+45833  37.790  34.853   2.218
72766ION    NA+45834  44.558  13.225   3.865
72767ION    NA+45835  15.471  26.797   0.201
72768ION    NA+45836  19.275  22.208  11.064
72769ION    NA+45837  14.342  30.860  11.496
72770ION    NA+45838   3.142   6.744  13.413
72771ION    NA+45839  41.022  29.337   2.987
72772ION    NA+45840  36.775  21.532  14.325
72773ION    NA+45841  18.509  15.872  12.679
72774ION    NA+45842  32.243  32.848  11.131
72775ION    NA+45843  13.027  13.089   0.309
72776ION    NA+45844   8.485  28.664   4.698
72777ION    NA+45845  14.839  19.385   2.283
72778ION    NA+45846  23.243   5.743  11.931
72779ION    NA+45847  10.678  21.665   2.164
72780ION    NA+45848  11.184   4.686  12.954
72781ION    NA+45849   2.790   6.036  14.685
72782ION    NA+45850   7.686  34.926   0.230
72783ION    NA+45851  22.444  41.545   3.955
72784ION    NA+45852  32.849  15.078   4.114
72785ION    NA+45853  16.792  22.079  14.949
72786ION    NA+45854  42.257  43.923  11.026
72787ION    NA+45855  27.202  19.749   1.906
72788ION    NA+45856   4.027  11.650   2.362
72789ION    NA+45857   2.430  36.433  13.646
72790ION    NA+45858  41.177  28.940   2.182
72791ION    NA+45859   8.413   4.145  14.044
72792ION    NA+45860  24.148  40.057  14.814
72793ION    NA+45861  15.795  17.062   2.422
72794ION    NA+45862  29.170  37.854  11.146
72795ION    NA+45863   8.655  29.577   1.942
72796ION    NA+45864  32.872  24.503  14.487
72797ION    NA+45865  16.657   3.865   4.035
72798ION    NA+45866  17.967   6.371  12.593
72799ION    NA+45867  22.955  16.146   3.032
72800ION    NA+45868   3.579  35.472  12.290
72801ION    NA+45869  11.557   6.288   1.969
72802ION    NA+45870   0.758  40.333   2.383
72803ION    NA+45871  21.727  14.023   2.851
72804ION    NA+45872   1.750   0.923  14.697
72805ION    NA+45873  10.453   7.957  12.985
72806ION    NA+45874  38.288   8.224   0.554
72807ION    NA+45875  42.316   8.955   2.890
72808ION    NA+45876  33.925  35.605  13.107
72809ION    NA+45877  18.995  36.020  10.288
72810ION    NA+45878   0.521  10.091   4.386
72811ION    NA+45879  40.834  24.545  11.392
72812ION    NA+45880  31.325   0.153  10.871
72813ION    NA+45881  11.961  24.036   2.183
72814ION    NA+45882  42.791  43.052   3.256
72815ION    NA+45883  18.448  25.183   1.967
72816ION    NA+45884  18.751   2.198   3.460
72817ION    NA+45885  35.122  21.675   3.980
72818ION    NA+45886  28.757  34.268  10.779
72819ION    NA+45887  31.680  37.004   2.991
72820ION    NA+45888  26.769   8.819  10.396
72821ION    NA+45889  29.031   6.468   3.303
72822ION    NA+45890  41.828  23.556  14.839
72823ION    NA+45891  13.088  18.544  11.371
72824ION    NA+45892  44.437  40.425   3.970
72825ION    NA+45893  29.051  36.183   4.487
72826ION    NA+45894  44.872  34.374  13.498
72827ION    NA+45895  16.143  19.144   3.567
72828ION    NA+45896  32.624  25.330   4.106
72829ION    NA+45897   1.076  29.533  13.405
72830ION    NA+45898  27.388  34.792  11.964
72831ION    NA+45899  36.832  16.465   2.695
72832ION    NA+45900   3.144  36.862   1.336
72833ION    NA+45901  15.719  18.738   3.866
72834ION    NA+45902  11.377  33.859   2.834
72835ION    NA+45903  17.848   5.715  11.004
72836ION    NA+45904  32.518  41.011  12.953
72837ION    NA+45905  10.771   7.902  11.228
72838ION    NA+45906  20.439  22.574   0.330
72839ION    NA+45907   3.781  27.902   2.993
72840ION    NA+45908  41.375   6.810  14.465
72841ION    NA+45909  37.668  11.464   1.878
72842ION    NA+45910  23.475  30.155   1.748
72843ION    NA+45911  39.036  16.796  12.371
72844ION    NA+45912  24.232  37.628   4.346
72845ION    NA+45913  21.123  20.102   1.301
72846ION    NA+45914  42.560   6.843  11.122
72847ION    NA+45915  39.995  16.276  12.183
72848ION    NA+45916  29.945  39.614   2.728
72849ION    NA+45917  20.743  10.394   1.744
72850ION    NA+45918  24.331  36.543  14.388
72851ION    NA+45919  17.210   0.733  13.218
72852ION    NA+45920  17.384  18.618  14.988
72853ION    NA+45921  44.668  32.228   4.614
72854ION    NA+45922  36.726  39.760  10.940
72855ION    NA+45923   4.223  27.733  13.313
72856ION    NA+45924   1.215  13.713   3.813
72857ION    NA+45925  38.270  14.675   2.873
72858ION    NA+45926  35.660  36.234   1.962
72859ION    NA+45927  21.088   4.832  14.594
72860ION    NA+45928   0.993  22.211  11.159
72861ION    NA+45929  25.972  36.882  13.943
72862ION    NA+45930   8.753  32.272   4.313
72863ION    NA+45931   8.523  11.735  14.045
72864ION    NA+45932  28.720  41.453  11.980
72865ION    NA+45933   4.184  40.882   2.018
72866ION    NA+45934  24.397  34.743   4.130
72867ION    NA+45935  13.794  37.262   2.150
72868ION    NA+45936   3.674  17.624   4.504
72869ION    NA+45937  16.180   9.754  12.578
72870ION    NA+45938  22.221  23.437  11.450
72871ION    NA+45939   2.131  27.427   0.083
72872ION    NA+45940  33.860  30.052  12.420
72873ION    NA+45941   1.912  16.032  14.490
72874ION    NA+45942  27.527  19.498   9.995
72875ION    NA+45943  12.807   8.618  13.982
72876ION    NA+45944   4.876  33.025  11.396
72877ION    NA+45945  15.658  30.511  13.172
72878ION    NA+45946  30.842  35.379   0.164
72879ION    NA+45947  14.415   4.846  11.656
72880ION    NA+45948  42.422  32.021   3.087
72881ION    NA+45949  31.384   6.979   4.249
72882ION    NA+45950   5.063  20.426  14.737
72883ION    NA+45951  25.574  43.316  13.437
72884ION    NA+45952   3.044  37.874  12.581
72885ION    NA+45953   5.732  30.627  13.849
72886ION    NA+45954  28.321   1.743   0.364
72887ION    NA+45955  14.113  18.824   2.712
72888ION    NA+45956   6.825  29.530  13.095
72889ION    NA+45957  35.175  29.726  13.778
72890ION    NA+45958  19.892  32.605   3.169
72891ION    NA+45959  30.534  44.357   3.749
72892ION    NA+45960  15.390  16.890   0.304
72893ION    NA+45961  12.398  34.970  13.352
72894ION    NA+45962  25.701   4.107   2.815
72895ION    NA+45963   3.383  41.977   1.489
72896ION    NA+45964  18.176  20.240  14.611
72897ION    NA+45965  15.782   4.642  10.406
72898ION    NA+45966  25.556   6.202   3.080
72899ION    NA+45967  27.628  40.907  14.741
72900ION    NA+45968  26.049  25.724  14.326
72901ION    NA+45969   4.517   9.004  13.078
72902ION    NA+45970  34.690  13.973  11.161
72903ION    NA+45971   5.955   4.479   4.088
72904ION    NA+45972  35.389   1.135   3.630
72905ION    NA+45973   8.697  35.608   0.961
72906ION    NA+45974   1.133  33.774   1.512
72907ION    NA+45975   8.873  33.070   1.186
72908ION    NA+45976  39.244  43.314   2.370
72909ION    NA+45977  29.009   4.743   2.032
72910ION    NA+45978  26.345  14.288  11.224
72911ION    NA+45979  39.547  25.958  13.119
72912ION    NA+45980  28.647  14.138  10.681
72913ION    NA+45981  24.827  22.724   2.403
72914ION    NA+45982  31.215   6.114   1.616
72915ION    NA+45983   3.534  28.483  14.833
72916ION    NA+45984  29.515   1.223   3.281
72917ION    NA+45985  18.574   1.698  11.560
72918ION    NA+45986  17.330   9.939   2.861
72919ION    NA+45987  15.832  26.901   4.580
72920ION    NA+45988  18.808   3.970  11.175
72921ION    NA+45989  27.585  12.386   1.753
72922ION    NA+45990  23.064  34.616  11.090
72923ION    NA+45991  29.767  21.266  13.976
72924ION    NA+45992  19.302  39.589   0.969
72925ION    NA+45993  10.094  28.831   4.348
72926ION    NA+45994   6.721   4.973   3.672
72927ION    NA+45995   4.485  40.189   1.348
72928ION    NA+45996  12.978  19.673  11.930
72929ION    NA+45997  36.382  31.677   4.419
72930ION    NA+45998  12.665  18.761  12.099
72931ION    NA+45999  40.896  41.570   1.281
72932ION    NA+46000  32.425  16.575  13.078
72933ION    NA+46001  32.786  10.324  11.329
72934ION    NA+46002   4.911   0.574   9.674
72935ION    NA+46003  41.003  14.181  11.583
72936ION    NA+46004  12.049  35.489   4.585
72937ION    NA+46005   9.039  33.401   2.762
72938ION    NA+46006  28.963   0.261  10.874
72939ION    NA+46007  36.776   7.941   0.732
72940ION    NA+46008  32.694   5.012   0.025
72941ION    NA+46009  18.045  18.599  12.417
72942ION    NA+46010  12.821  41.529  10.660
72943ION    NA+46011  20.910   0.334   3.699
72944ION    NA+46012  25.760  15.521  11.630
72945ION    NA+46013   6.240  37.956   1.888
72946ION    NA+46014  18.565  25.889  10.441
72947ION    NA+46015  10.073   2.093   3.178
72948ION    NA+46016   8.348  14.168   4.195
72949ION    NA+46017  18.072   5.851   3.637
72950ION    NA+46018  33.375  35.720  13.935
72951ION    NA+46019   7.983   4.232   2.240
72952ION    NA+46020   2.639  22.197   0.508
72953ION    NA+46021  16.986   0.399   4.160
72954ION    NA+46022  30.910  44.039   2.783
72955ION    NA+46023  13.823  43.367   0.393
72956ION    NA+46024  36.854   7.949  12.540
72957ION    NA+46025  11.886  42.180  10.777
72958ION    NA+46026  13.596  34.744   4.596
72959ION    NA+46027   7.934   6.533   0.421
72960ION    NA+46028   0.334   1.491  10.656
72961ION    NA+46029  18.096  12.811  14.271
72962ION    NA+46030  33.040  37.031   3.294
72963ION    NA+46031  40.353  37.528   2.335
72964ION    NA+46032  13.573  15.618  14.362
72965ION    NA+46033  38.827   5.830  10.672
72966ION    NA+46034  17.361   3.604   0.878
72967ION    NA+46035  31.413  29.066   3.135
72968ION    NA+46036  12.510  24.612   3.715
72969ION    NA+46037  22.315  43.827  14.018
72970ION    NA+46038   2.266  22.248   3.480
72971ION    NA+46039   5.267  13.214  14.968
72972ION    NA+46040  15.207   5.968  10.648
72973ION    NA+46041  23.488   4.809  12.527
72974ION    NA+46042  42.460  22.462  14.241
72975ION    NA+46043  13.595   0.362  12.419
72976ION    NA+46044  29.600  42.480  11.455
72977ION    NA+46045  23.980  16.367  14.424
72978ION    NA+46046  38.550   1.795   4.301
72979ION    NA+46047  18.557  15.275   1.914
72980ION    NA+46048  29.100  23.326   0.989
72981ION    NA+46049  27.347  10.312   0.341
72982ION    NA+46050   7.306  31.491   4.485
72983ION    NA+46051  41.989  15.493  12.813
72984ION    NA+46052  35.129  33.079  14.172
72985ION    NA+46053  20.186  43.790   9.940
72986ION    NA+46054   7.511  40.247   4.693
72987ION    NA+46055  34.096  19.771  12.610
72988ION    NA+46056  16.627  24.416   2.292
72989ION    NA+46057  31.967   3.919  11.087
72990ION    NA+46058  17.764  21.103   1.849
72991ION    NA+46059  29.725  27.171   0.858
72992ION    NA+46060  24.837  35.440   4.707
72993ION    NA+46061  39.404  17.395   4.622
72994ION    NA+46062  12.291  16.854  10.038
72995ION    NA+46063   2.923  40.013   3.858
72996ION    NA+46064  34.483  20.556   3.334
72997ION    NA+46065  22.598  36.414   1.419
72998ION    NA+46066  13.259   6.954  11.395
72999ION    NA+46067   5.716  14.719  14.731
73000ION    NA+46068  40.764  28.512  13.015
73001ION    NA+46069  13.883  16.769  13.845
73002ION    NA+46070   3.341  10.452   4.980
73003ION    NA+46071  16.605  11.867  11.941
73004ION    NA+46072  43.214  31.128  14.353
73005ION    NA+46073  33.952  40.114   0.952
73006ION    NA+46074  27.620  44.640   3.474
73007ION    NA+46075  23.698  35.666   2.432
73008ION    NA+46076  25.445   4.169   4.101
73009ION    NA+46077  23.534  10.235   2.925
73010ION    NA+46078  14.210  40.376  10.279
73011ION    NA+46079  31.916  41.465   3.556
73012ION    NA+46080  41.576  13.354  13.340
73013ION    NA+46081   2.120  20.972   1.867
73014ION    NA+46082  36.464  24.184   0.033
73015ION    NA+46083   3.100  33.660  13.152
73016ION    NA+46084  37.293  34.157  13.461
73017ION    NA+46085  30.258   5.262  10.910
73018ION    NA+46086   5.086   9.072  13.774
73019ION    NA+46087  16.533   5.315   4.347
73020ION    NA+46088  13.383  14.528  13.396
73021ION    NA+46089  12.930  14.765   3.102
73022ION    NA+46090  29.702  28.620  11.732
73023ION    NA+46091  40.201  41.001   1.374
73024ION    NA+46092   0.757  25.055   2.311
73025ION    NA+46093  30.222  36.358  13.484
73026ION    NA+46094  16.364  36.854   1.120
73027ION    NA+46095  33.640  34.112  14.678
73028ION    NA+46096   8.497  32.601  14.900
73029ION    NA+46097  30.299   2.470   5.008
73030ION    NA+46098  15.665  37.560  14.817
73031ION    NA+46099  23.519  34.932  14.509
73032ION    NA+46100   1.039  38.747   4.474
73033ION    NA+46101  24.408  33.571  14.416
73034ION    NA+46102  29.072  18.208   3.379
73035ION    NA+46103  31.671  27.383   2.607
73036ION    NA+46104  17.692  22.998  13.769
73037ION    NA+46105  37.696  25.090   1.283
73038ION    NA+46106  27.625  42.889   1.465
73039ION    NA+46107  22.882   9.976  14.450
73040ION    NA+46108  22.348   3.880   3.326
73041ION    NA+46109  10.846  35.384   1.808
73042ION    NA+46110  37.294  16.838   4.305
73043ION    NA+46111  41.089   2.114  11.497
73044ION    NA+46112   3.184  26.247   0.649
73045ION    NA+46113   4.976  29.710   4.690
73046ION    NA+46114  20.659  24.250  11.238
73047ION    NA+46115  13.426  30.536   9.990
73048ION    NA+46116   5.743   9.811   2.718
73049ION    NA+46117   9.618  35.870   1.890
73050ION    NA+46118   5.748  32.640  14.301
73051ION    NA+46119  33.743   1.594  14.042
73052ION    NA+46120  41.174   0.599  14.950
73053ION    NA+46121  31.023  41.736  13.119
73054ION    NA+46122  11.673  30.122   3.628
73055ION    NA+46123  42.710  11.620  13.619
73056ION    NA+46124  41.818  44.730  13.754
73057ION    NA+46125  24.601  36.008   3.919
73058ION    NA+46126  29.076  15.787  13.567
73059ION    NA+46127  18.219  21.241  14.478
73060ION    NA+46128   6.421  21.570   3.061
73061ION    NA+46129  26.059   6.985   2.409
73062ION    NA+46130  28.716  40.739  14.364
73063ION    NA+46131   0.758  38.034  12.089
73064ION    NA+46132  37.206  18.786   1.592
73065ION    NA+46133   6.482   7.888   1.766
73066ION    NA+46134   3.815  20.954  12.390
73067ION    NA+46135  43.770  25.544   0.184
73068ION    NA+46136  28.147  24.068   1.028
73069ION    NA+46137   4.554  29.397   2.628
73070ION    NA+46138  18.211  41.700   1.917
73071ION    NA+46139  27.385  19.781   0.009
73072ION    NA+46140  35.842  31.662  13.477
73073ION    NA+46141  44.338   0.405   1.717
73074ION    NA+46142  19.733   4.938   1.445
73075ION    NA+46143  30.580  19.844  14.263
73076ION    NA+46144  34.795  36.583  11.982
73077ION    NA+46145   2.215   3.062  10.970
73078ION    NA+46146  20.703  19.845  12.470
73079ION    NA+46147  15.303  26.019   3.320
73080ION    NA+46148  24.739   7.702   3.123
73081ION    NA+46149  19.275  29.867   2.536
73082ION    NA+46150   4.834  28.908  13.148
73083ION    NA+46151  14.186  14.372  12.404
73084ION    NA+46152  10.177   2.503   0.846
73085ION    NA+46153  11.598  31.383  13.693
73086ION    NA+46154  22.680  15.037   4.187
73087ION    NA+46155  28.878  38.033   3.450
73088ION    NA+46156   3.146   7.993  12.991
73089ION    NA+46157  29.941  41.261  10.634
73090ION    NA+46158  14.472  19.699   3.686
73091ION    NA+46159  27.056  21.766   3.157
73092ION    NA+46160  11.603  12.561   2.886
73093ION    NA+46161   5.278  19.936   3.132
73094ION    NA+46162   4.905   5.575   1.055
73095ION    NA+46163  38.119  16.468  14.951
73096ION    NA+46164  41.242  43.236  10.694
73097ION    NA+46165  15.646  17.663  13.397
73098ION    NA+46166   2.003  32.401   3.805
73099ION    NA+46167  29.397  44.737   0.708
73100ION    NA+46168   6.978   5.306  12.888
73101ION    NA+46169  37.756  22.636  14.471
73102ION    NA+46170  39.902   4.058   1.196
73103ION    NA+46171   0.873   5.930  13.961
73104ION    NA+46172  24.753  41.402   0.780
73105ION    NA+46173   1.855   1.199  12.455
73106ION    NA+46174  16.823  16.286   2.151
73107ION    NA+46175  40.456  38.818   3.256
73108ION    NA+46176  31.100  14.420   4.261
73109ION    NA+46177   7.513   3.474  14.278
73110ION    NA+46178   5.910  12.437  14.294
73111ION    NA+46179  40.558   3.223  13.276
73112ION    NA+46180  41.075  36.483   1.685
73113ION    NA+46181  20.251   1.074   4.976
73114ION    NA+46182   9.147   9.344  10.714
73115ION    NA+46183   4.942   9.464  12.298
73116ION    NA+46184  35.694  18.856  13.233
73117ION    NA+46185  38.419  37.164   5.261
73118ION    NA+46186  13.767  35.077  10.666
73119ION    NA+46187  34.776  17.166   9.734
73120ION    NA+46188  30.252  20.788   3.268
73121ION    NA+46189  39.199  35.005   2.158
73122ION    NA+46190  11.987  16.347  14.109
73123ION    NA+46191   8.913  14.069   0.122
73124ION    NA+46192  37.545  26.017  12.932
73125ION    NA+46193  11.235  36.983  12.808
73126ION    NA+46194  35.543  24.507  13.994
73127ION    NA+46195  40.371   5.678   5.377
73128ION    NA+46196  30.278  26.151   3.123
73129ION    NA+46197  18.901  14.614   2.763
73130ION    NA+46198  36.364  40.518  12.410
73131ION    NA+46199   7.370  32.472  12.575
73132ION    NA+46200  33.499   9.932   4.673
73133ION    NA+46201  18.125  37.917  13.945
73134ION    NA+46202  42.000  33.455   2.898
73135ION    NA+46203  30.102  24.600  11.538
73136ION    NA+46204   4.969  24.874  13.895
73137ION    NA+46205  35.038  34.612   4.575
73138ION    NA+46206  22.974  12.262   4.725
73139ION    NA+46207  41.400  38.795  12.657
73140ION    NA+46208  14.381   8.316   2.321
73141ION    NA+46209  30.378  11.102   2.924
73142ION    NA+46210  29.839  28.696   3.563
73143ION    NA+46211  10.325  10.789  10.222
73144ION    NA+46212  42.521  13.172  11.627
73145ION    NA+46213  37.374  15.984   0.119
73146ION    NA+46214  17.087  12.483  11.319
73147ION    NA+46215   2.408   7.793  14.526
73148ION    NA+46216   9.162  28.193  11.250
73149ION    NA+46217  12.488  22.509  11.656
73150ION    NA+46218  29.913  20.456  14.104
73151ION    NA+46219  14.676   6.271   1.901
73152ION    NA+46220  13.895  40.251  11.418
73153ION    NA+46221  36.354   9.550  14.262
73154ION    NA+46222  18.681   3.664  13.562
73155ION    NA+46223  44.150   2.864   4.414
73156ION    NA+46224  30.000   2.959  11.497
73157ION    NA+46225  44.035  11.949  13.042
73158ION    NA+46226   7.322  24.689   3.939
73159ION    NA+46227   5.507  40.049  10.872
73160ION    NA+46228  31.029   6.968  14.770
73161ION    NA+46229   7.374  14.267  11.562
73162ION    NA+46230  12.484  35.878   2.569
73163ION    NA+46231   4.429  12.739   0.233
73164ION    NA+46232  17.537   5.514   0.396
73165ION    NA+46233  36.756  18.244   0.279
73166ION    NA+46234   9.452  34.247   1.277
73167ION    NA+46235  34.716  35.209  13.573
73168ION    NA+46236  18.061  24.684  12.494
73169ION    NA+46237  25.723  44.352  12.611
73170ION    NA+46238  11.378  31.464   3.876
73171ION    NA+46239  29.904  33.243  12.058
73172ION    NA+46240  38.118  40.259   0.596
73173ION    NA+46241  16.117  16.966  12.566
73174ION    NA+46242  10.472  11.486   0.407
73175ION    NA+46243  42.158  19.699  11.966
73176ION    NA+46244  41.066   7.337   1.888
73177ION    NA+46245  29.945   1.813  14.872
73178ION    NA+46246   5.313  35.327  12.474
73179ION    NA+46247  14.841  41.635   3.146
73180ION    NA+46248  12.644  27.916   5.258
73181ION    NA+46249   8.386  36.985   2.303
73182ION    NA+46250  25.219  39.540   4.910
73183ION    NA+46251   5.513  19.274  11.123
73184ION    NA+46252  20.833   6.496  11.239
73185ION    NA+46253  19.525   7.559  10.738
73186ION    NA+46254  24.679   4.118  13.397
73187ION    NA+46255  31.510  25.926  12.499
73188ION    NA+46256  31.325  42.963  10.245
73189ION    NA+46257   6.822  30.929  10.694
73190ION    NA+46258  11.853  30.888  14.524
73191ION    NA+46259  27.711   4.221   0.383
73192ION    NA+46260  25.549  18.837   3.484
73193ION    NA+46261  37.186  41.196  13.249
73194ION    NA+46262  16.217  19.037   2.086
73195ION    NA+46263  34.058   4.690   0.106
73196ION    NA+46264  31.589  35.315  11.286
73197ION    NA+46265  39.378  41.880   0.249
73198ION    NA+46266  15.651  34.565   3.258
73199ION    NA+46267  25.998  33.871  13.931
73200ION    NA+46268  15.548   4.028  13.903
73201ION    NA+46269   1.976  15.302   2.995
73202ION    NA+46270   1.612  22.715   3.041
73203ION    NA+46271  28.912  31.929   2.553
73204ION    NA+46272  35.829  20.258   3.444
73205ION    NA+46273  10.311  30.855  10.332
73206ION    NA+46274   1.224  24.241   1.300
73207ION    NA+46275   8.946  21.998  10.928
73208ION    NA+46276  43.759  41.095   3.669
73209ION    NA+46277  14.795  15.309   2.172
73210ION    NA+46278  19.530  25.920  12.905
73211ION    NA+46279   9.421  13.474  11.106
73212ION    NA+46280   1.903   6.053  14.479
73213ION    NA+46281  40.573  43.846  14.634
73214ION    NA+46282  13.757  11.266   4.194
73215ION    NA+46283  20.155   8.333  10.809
73216ION    NA+46284  22.643   1.042   0.357
73217ION    NA+46285  20.366  32.437   0.528
73218ION    NA+46286   8.198   7.332  14.334
73219ION    NA+46287  32.975   5.291  12.073
73220ION    NA+46288   6.535   0.985  13.758
73221ION    NA+46289  37.606  14.794   4.629
73222ION    NA+46290   4.163  36.964  12.389
73223ION    NA+46291   3.803  36.070   0.177
73224ION    NA+46292  32.871  36.714   1.475
73225ION    NA+46293  25.589  22.185  14.032
73226ION    NA+46294  28.529   2.907  13.979
73227ION    NA+46295  38.075  33.677  14.543
73228ION    NA+46296  12.081  13.467   3.861
73229ION    NA+46297  31.120   3.095   3.347
73230ION    NA+46298  22.009   1.550  13.954
73231ION    NA+46299  15.814  25.500  14.773
73232ION    NA+46300   9.183  11.628  12.345
73233ION    NA+46301  41.419   6.096  14.892
73234ION    NA+46302  43.127   0.436   0.706
73235ION    NA+46303   9.389  20.064   0.235
73236ION    NA+46304  40.748   8.600  11.714
73237ION    NA+46305  43.742   7.411  14.366
73238ION    NA+46306  28.963  32.537   3.346
73239ION    NA+46307  13.391   3.378  11.750
73240ION    NA+46308  24.128  34.245   3.443
73241ION    NA+46309  22.684  32.621  14.854
73242ION    NA+46310   8.288  38.512  11.581
73243ION    NA+46311  19.795   1.035   4.087
73244ION    NA+46312  37.304  18.091   3.750
73245ION    NA+46313   7.292  29.585   3.112
73246ION    NA+46314  44.646  27.834  13.513
73247ION    NA+46315  43.960  20.830  11.176
73248ION    NA+46316  43.219  35.520  11.608
73249ION    NA+46317  39.348   1.010   2.986
73250ION    NA+46318  18.414  14.166  11.006
73251ION    NA+46319  31.044  25.173   3.613
73252ION    NA+46320   2.069  36.066   2.035
73253ION    NA+46321  11.798   2.898   4.913
73254ION    NA+46322   7.212   3.136   1.471
73255ION    NA+46323  20.618   1.635   1.474
73256ION    NA+46324  32.142  13.914  13.542
73257ION    NA+46325  37.238  24.496   3.133
73258ION    NA+46326   5.875  41.036  12.179
73259ION    NA+46327  25.862  11.562   0.813
73260ION    NA+46328  29.584  14.387   3.045
73261ION    NA+46329  17.411  14.078   3.344
73262ION    NA+46330  41.874   8.752  11.410
73263ION    NA+46331  40.297  36.109  12.453
73264ION    NA+46332   9.277   1.455   1.553
73265ION    NA+46333   7.953   0.011   2.574
73266ION    NA+46334  21.979   1.852   4.530
73267ION    NA+46335   1.278  24.761   3.000
73268ION    NA+46336  41.972  16.817   5.430
73269ION    NA+46337  37.824  32.723   1.772
73270ION    NA+46338  40.608  43.873   1.801
73271ION    NA+46339   8.839   3.477   1.442
73272ION    NA+46340  23.180  19.620   3.398
73273ION    NA+46341  33.728  28.327  14.720
73274ION    NA+46342  38.836  28.396   3.706
73275ION    NA+46343  37.231   9.987  11.128
73276ION    NA+46344  35.171  43.758  14.966
73277ION    NA+46345  19.048  10.280  11.620
73278ION    NA+46346  43.618  10.966   0.709
73279ION    NA+46347  44.155   7.752   3.695
73280ION    NA+46348  30.583  37.200   5.040
73281ION    NA+46349  14.781  39.037  12.044
73282ION    NA+46350  26.199  35.627  13.457
73283ION    NA+46351  32.009  30.874   1.181
73284ION    NA+46352  21.532   5.974  13.843
73285ION    NA+46353   1.912   7.691   1.744
73286ION    NA+46354  14.245  15.284   0.384
73287ION    NA+46355  40.994  37.731  14.947
73288ION    NA+46356  30.388  15.742  14.779
73289ION    NA+46357  40.508   1.760   4.138
73290ION    NA+46358  18.628  20.314   4.505
73291ION    NA+46359  17.987  10.198   4.210
73292ION    NA+46360  12.976   2.427   1.505
73293ION    NA+46361   6.112  12.207   0.514
73294ION    NA+46362  40.306   2.012   5.594
73295ION    NA+46363  21.644  44.439  13.599
73296ION    NA+46364  29.978  35.542  12.961
73297ION    NA+46365  10.367   0.742  12.521
73298ION    NA+46366  23.076  11.767   3.305
73299ION    NA+46367  34.424  32.827   4.179
73300ION    NA+46368  42.836  29.631  10.067
73301ION    NA+46369   4.916  31.351   2.525
73302ION    NA+46370  32.627  34.906   2.805
73303ION    NA+46371  22.321  11.540   4.497
73304ION    NA+46372  32.012  34.123   0.521
73305ION    NA+46373  39.674   3.175   0.594
73306ION    NA+46374  38.446  22.588   1.975
73307ION    NA+46375  42.117   7.144   1.926
73308ION    NA+46376   1.933   2.903   1.791
73309ION    NA+46377   6.373  25.898  12.960
73310ION    NA+46378   2.876  20.947  11.809
73311ION    NA+46379  14.322  36.343   1.972
73312ION    NA+46380  16.025  38.318  12.358
73313ION    NA+46381  13.304  42.497  13.871
73314ION    NA+46382  37.754  32.924  14.498
73315ION    NA+46383   7.972  44.814  13.601
73316ION    NA+46384  32.469  25.167   1.859
73317ION    NA+46385  35.074  23.408  13.306
73318ION    NA+46386  25.867  16.779   0.403
73319ION    NA+46387  34.897  28.702   2.972
73320ION    NA+46388  20.590  34.823  13.103
73321ION    NA+46389   5.143  43.880   2.259
73322ION    NA+46390  15.295  19.219  11.926
73323ION    NA+46391  12.263  34.340   4.678
73324ION    NA+46392  17.901  36.209  13.513
73325ION    NA+46393  35.609  43.987  12.128
73326ION    NA+46394  20.145  40.204  12.918
73327ION    NA+46395  29.131   3.491   1.789
73328ION    NA+46396  44.849  31.133  11.984
73329ION    NA+46397   0.397  18.372  13.799
73330ION    NA+46398  34.102   9.259   0.537
73331ION    NA+46399   5.961  23.325   3.782
73332ION    NA+46400   2.758  20.641   2.838
73333ION    NA+46401  15.538   0.477  11.656
73334ION    NA+46402   8.888  27.556   0.927
73335ION    NA+46403  43.575  43.390  13.796
73336ION    NA+46404  43.571  18.106   2.879
73337ION    NA+46405  22.547   9.866   3.926
73338ION    NA+46406  26.129  10.300  11.826
73339ION    NA+46407  34.448  27.443  12.458
73340ION    NA+46408   5.809  37.539   3.654
73341ION    NA+46409  41.330  25.367  14.030
73342ION    NA+46410  23.627  35.980  10.879
73343ION    NA+46411  25.033  11.581   4.764
73344ION    NA+46412  21.136  22.579  13.312
73345ION    NA+46413  20.084  13.417  11.194
73346ION    NA+46414   4.520   3.021  11.070
73347ION    NA+46415  18.252   6.135   2.695
73348ION    NA+46416   8.658  34.260   3.376
73349ION    NA+46417   4.007  17.122  10.749
73350ION    NA+46418  38.852  39.610  13.323
73351ION    NA+46419   4.761  27.445  14.283
73352ION    NA+46420   9.339  43.735  11.573
73353ION    NA+46421  31.556  33.896  14.311
73354ION    NA+46422  41.854  13.842   4.598
73355ION    NA+46423  23.426  16.341  11.402
73356ION    NA+46424  15.416   0.334   1.480
73357ION    NA+46425  18.481   6.633  13.167
73358ION    NA+46426  34.318  27.186   1.531
73359ION    NA+46427  35.292  37.798   1.703
73360ION    NA+46428  16.740  30.885  11.225
73361ION    NA+46429   1.769  37.076   2.345
73362ION    NA+46430  20.357  10.463  10.614
73363ION    NA+46431  37.508  33.846  10.344
73364ION    NA+46432  21.148  33.602   1.432
73365ION    NA+46433  44.984  40.028   1.362
73366ION    NA+46434  20.798  43.757  10.619
73367ION    NA+46435   8.745  40.096   4.142
73368ION    NA+46436   0.250  15.164  13.305
73369ION    NA+46437  14.877  25.661  13.817
73370ION    NA+46438  26.945   3.242   3.891
73371ION    NA+46439  33.689   9.156   3.108
73372ION    NA+46440  37.497   3.355  14.437
73373ION    NA+46441  15.572  29.683  11.989
73374ION    NA+46442  44.743  19.625   3.072
73375ION    NA+46443  43.776  41.491   4.599
73376ION    NA+46444   5.558  37.492   0.322
73377ION    NA+46445  38.765  18.258  13.461
73378ION    NA+46446  26.472  35.175   0.004
73379ION    NA+46447   6.249  18.975  12.414
73380ION    NA+46448   7.148  19.797   2.428
73381ION    NA+46449   7.273  36.594  14.670
73382ION    NA+46450   0.202   5.769  13.186
73383ION    NA+46451  26.484  36.742   2.272
73384ION    NA+46452  34.477  37.434   0.674
73385ION    NA+46453  37.324  37.486  14.673
73386ION    NA+46454  41.063  26.595   2.689
73387ION    NA+46455   7.887  15.186   2.105
73388ION    NA+46456  27.146  15.572  10.001
73389ION    NA+46457   2.582  34.866  14.973
73390ION    NA+46458  39.753   7.223  10.612
73391ION    NA+46459   8.274  33.166  14.205
73392ION    NA+46460  23.228  23.599   0.322
73393ION    NA+46461  13.271   0.520   0.271
73394ION    NA+46462  24.052   5.692  14.330
73395ION    NA+46463  29.058   2.665   2.346
73396ION    NA+46464  40.808  34.459   0.380
73397ION    NA+46465  27.346  35.212  11.223
73398ION    NA+46466  39.377   1.019   0.771
73399ION    NA+46467  42.445  27.700   2.829
73400ION    NA+46468  23.180  19.076   0.375
73401ION    NA+46469  35.144  19.847   1.106
73402ION    NA+46470  10.574  35.729   5.175
73403ION    NA+46471  43.313  18.457   3.779
73404ION    NA+46472  13.777  16.554   1.438
73405ION    NA+46473  13.619  37.135   3.053
73406ION    NA+46474   3.619   4.004   9.758
73407ION    NA+46475  33.496  18.044   4.104
73408ION    NA+46476  39.743  42.654  14.947
73409ION    NA+46477  14.854  16.559  11.952
73410ION    NA+46478  35.576  10.752   3.022
73411ION    NA+46479  10.838  21.659  12.583
73412ION    NA+46480  16.297  12.241  14.027
73413ION    NA+46481  44.226  16.372   0.233
73414ION    NA+46482  33.287   2.548  11.045
73415ION    NA+46483   9.425  17.171   0.742
73416ION    NA+46484  33.519  37.913  13.672
73417ION    NA+46485  31.950  33.328   3.336
73418ION    NA+46486  39.102  10.226   1.190
73419ION    NA+46487  34.440   5.418  14.535
73420ION    NA+46488  10.466  28.015   4.230
73421ION    NA+46489  24.124  41.790   0.476
73422ION    NA+46490  19.667  14.439  11.497
73423ION    NA+46491  17.714  37.181  12.358
73424ION    NA+46492  30.920  39.399   2.790
73425ION    NA+46493   1.235  19.860  11.359
73426ION    NA+46494   6.778   3.286  12.608
73427ION    NA+46495   3.274  12.840  11.173
73428ION    NA+46496  34.719  42.740  12.887
73429ION    NA+46497  20.227  37.145   3.673
73430ION    NA+46498   9.599  14.819  11.087
73431ION    NA+46499  42.086  28.710  11.382
73432ION    NA+46500  24.046  35.080   0.430
73433ION    NA+46501  29.573  39.074   1.345
73434ION    NA+46502  17.206   3.856  12.954
73435ION    NA+46503  44.928  12.012  14.296
73436ION    NA+46504  20.745  35.095   3.076
73437ION    NA+46505  34.117  17.675  12.862
73438ION    NA+46506  17.141  28.522  13.448
73439ION    NA+46507  16.776  23.265   4.508
73440ION    NA+46508  30.825  11.897   3.043
73441ION    NA+46509  19.529  29.260   3.139
73442ION    NA+46510  30.039  10.756  12.448
73443ION    NA+46511   1.372  33.784   0.075
73444ION    NA+46512  32.384  40.869  14.476
73445ION    NA+46513  19.367  15.803   2.829
73446ION    NA+46514  19.077  44.512   3.247
73447ION    NA+46515   7.899   6.192  14.478
73448ION    NA+46516   4.627  29.783   0.650
73449ION    NA+46517  12.401  28.013  14.818
73450ION    NA+46518   7.372  17.566   2.869
73451ION    NA+46519  31.914  14.034  11.641
73452ION    NA+46520  26.888   5.763   2.618
73453ION    NA+46521  17.895   1.248  13.585
73454ION    NA+46522  33.137  44.700   2.382
73455ION    NA+46523  12.571  40.668  13.210
73456ION    NA+46524  23.982  20.454  14.971
73457ION    NA+46525  43.010  42.056   0.443
73458ION    NA+46526  32.614   2.858   0.150
73459ION    NA+46527  28.240  27.145  10.439
73460ION    NA+46528  16.561  21.553  11.622
73461ION    NA+46529  21.039  31.366  10.539
73462ION    NA+46530   9.394  25.322  11.136
73463ION    NA+46531   1.451  38.471   1.103
73464ION    NA+46532  21.790  40.352   3.165
73465ION    NA+46533   4.483   7.687  13.947
73466ION    NA+46534  35.088  24.395   0.481
73467ION    NA+46535  18.754  33.486  13.774
73468ION    NA+46536  29.830  11.225  10.352
73469ION    NA+46537   6.328   1.806   4.120
73470ION    NA+46538   4.045   7.560  13.057
73471ION    NA+46539  20.291  27.898  13.941
73472ION    NA+46540  37.663  25.525   2.709
73473ION    NA+46541  40.158  24.887   3.817
73474ION    NA+46542  29.129  24.651  13.263
73475ION    NA+46543  36.650  27.042  14.567
73476ION    NA+46544  40.266  29.269   1.935
73477ION    NA+46545   1.965  42.343   0.029
73478ION    NA+46546  18.726  35.824   5.426
73479ION    NA+46547  26.747  35.919   1.769
73480ION    NA+46548  16.475  35.102  14.131
73481ION    NA+46549  18.642  11.275   0.074
73482ION    NA+46550  13.209  16.455  11.101
73483ION    NA+46551   3.060  35.154   3.551
73484ION    NA+46552  18.760  21.671   1.273
73485ION    NA+46553  15.028   5.300  11.996
73486ION    NA+46554   0.133  38.293   1.239
73487ION    NA+46555   6.639  35.568   3.856
73488ION    NA+46556  10.314  29.258   2.491
73489ION    NA+46557  20.744  32.925  10.153
73490ION    NA+46558   4.434  23.197  11.557
73491ION    NA+46559   8.905  16.527   3.397
73492ION    NA+46560  26.173  20.374   2.747
73493ION    NA+46561  18.621   5.910   4.472
73494ION    NA+46562  27.377  29.632   5.111
73495ION    NA+46563  19.516  11.182  10.759
73496ION    NA+46564  21.911  44.905   0.000
73497ION    NA+46565  13.123   9.896  13.865
73498ION    NA+46566  41.512  40.443  14.278
73499ION    NA+46567  12.630  43.870  11.549
73500ION    NA+46568  23.497  27.576  14.837
73501ION    NA+46569   9.798  22.745   1.718
73502ION    NA+46570  39.390  29.936   0.857
73503ION    NA+46571  23.595  32.434  11.523
73504ION    NA+46572  14.244  19.294   0.520
73505ION    NA+46573  34.729  44.183  12.057
73506ION    NA+46574  30.903   5.681  11.549
73507ION    NA+46575  11.147  20.894   2.642
73508ION    NA+46576   0.273  37.378   4.390
73509ION    NA+46577  27.613  11.682   0.422
73510ION    NA+46578  44.533  18.203   1.913
73511ION    NA+46579  22.510  35.228   2.830
73512ION    NA+46580  30.718   6.176   0.750
73513ION    NA+46581  11.711  15.296   0.875
73514ION    NA+46582  35.600  37.780   4.694
73515ION    NA+46583   2.126   6.620  13.262
73516ION    NA+46584  20.017  32.498  14.692
73517ION    NA+46585   1.326  37.108  10.225
73518ION    NA+46586  36.264  34.823   5.272
73519ION    NA+46587  31.318  15.891   4.069
73520ION    NA+46588  18.661  41.649  14.931
73521ION    NA+46589  29.110   2.914   0.972
73522ION    NA+46590   8.401   3.133  13.837
73523ION    NA+46591   5.564  35.834   3.983
73524ION    NA+46592  29.936   9.279  11.084
73525ION    NA+46593  38.008  30.190  12.762
73526ION    NA+46594  30.158  21.930   0.982
73527ION    NA+46595   3.270  12.497   2.079
73528ION    NA+46596  25.691  38.542   4.156
73529ION    NA+46597   9.710  11.042   3.681
73530ION    NA+46598   3.076  12.698  13.154
73531ION    NA+46599  41.587   4.986  12.050
73532ION    NA+46600  24.715   1.907  11.506
73533ION    NA+46601  19.797  29.942   1.398
73534ION    NA+46602  39.939  22.034  11.556
73535ION    NA+46603   2.337  35.525   0.521
73536ION    NA+46604   9.678   2.369   4.032
73537ION    NA+46605  20.249  14.038   4.367
73538ION    NA+46606  28.184  37.445  10.289
73539ION    NA+46607  36.668  31.530  14.733
73540ION    NA+46608  31.750  10.670   4.107
73541ION    NA+46609  18.206   8.970   1.229
73542ION    NA+46610  10.329  32.145  14.893
73543ION    NA+46611  41.847  34.635  12.638
73544ION    NA+46612  41.958  26.525   0.794
73545ION    NA+46613  11.106   3.996   2.010
73546ION    NA+46614  12.862  20.568  10.727
73547ION    NA+46615  17.901   2.796   1.296
73548ION    NA+46616  30.006  15.040  10.718
73549ION    NA+46617  36.618  40.507  11.443
73550ION    NA+46618  19.699  25.538  10.716
73551ION    NA+46619  41.025  22.035   4.706
73552ION    NA+46620   3.057   3.373   3.643
73553ION    NA+46621   4.442   2.895   3.319
73554ION    NA+46622  15.637  28.697   2.861
73555ION    NA+46623  30.499  15.618   5.331
73556ION    NA+46624  39.897  41.960   2.297
73557ION    NA+46625   4.952  21.325  10.901
73558ION    NA+46626  27.613   9.599   3.764
73559ION    NA+46627  35.779  26.786  14.567
73560ION    NA+46628  17.391  13.121  10.172
73561ION    NA+46629  35.335   8.868  11.596
73562ION    NA+46630  31.861  35.623   3.330
73563ION    NA+46631   3.240  18.266   1.113
73564ION    NA+46632  30.888  43.972   4.602
73565ION    NA+46633  28.102  24.429  14.327
73566ION    NA+46634  13.449  44.521  10.951
73567ION    NA+46635  42.915  23.804   3.431
73568ION    NA+46636  28.373  28.987   1.187
73569ION    NA+46637  37.868   2.434  11.600
73570ION    NA+46638  42.327  42.484   1.696
73571ION    NA+46639  25.450  21.787   4.026
73572ION    NA+46640  35.863  13.877   3.507
73573ION    NA+46641  44.377  10.864   5.390
73574ION    NA+46642  33.463  11.724  10.485
73575ION    NA+46643  11.519  22.750  11.599
73576ION    NA+46644  23.833  22.694   2.170
73577ION    NA+46645  19.496  11.813  14.401
73578ION    NA+46646   8.680  29.215  12.377
73579ION    NA+46647  23.740  15.010  12.561
73580ION    NA+46648  36.262  42.110  12.376
73581ION    NA+46649  21.498  26.114  14.525
73582ION    NA+46650  43.702  26.731  13.112
73583ION    NA+46651  21.790  38.299   0.903
73584ION    NA+46652  34.373  12.944  11.198
73585ION    NA+46653  33.762  25.748   3.090
73586ION    NA+46654   8.117  25.870   0.934
73587ION    NA+46655  31.501   7.287   2.898
73588ION    NA+46656  16.240   3.290   4.600
73589ION    NA+46657   1.578  37.811   3.095
73590ION    NA+46658  44.025  41.577  11.984
73591ION    NA+46659  20.987  14.919  12.341
73592ION    NA+46660   8.156  34.837  13.453
73593ION    NA+46661  15.028  12.108   9.845
73594ION    NA+46662   1.888  24.462  14.684
73595ION    NA+46663  14.513  37.730   3.059
73596ION    NA+46664  24.940   7.327  14.947
73597ION    NA+46665  20.262   7.677   4.494
73598ION    NA+46666  22.177  24.321   4.725
73599ION    NA+46667  14.883  14.684   3.373
73600ION    NA+46668  16.736   7.728  11.739
73601ION    NA+46669  17.950  37.762  12.557
73602ION    NA+46670  36.089   3.237  11.105
73603ION    NA+46671  10.817  44.801   2.824
73604ION    NA+46672  35.459   1.492   1.310
73605ION    NA+46673  34.030  24.715  12.005
73606ION    NA+46674  43.027   5.318  11.810
73607ION    NA+46675  44.049   0.918  12.813
73608ION    NA+46676  13.918  33.655   2.837
73609ION    NA+46677  28.584   9.265   0.941
73610ION    NA+46678   2.670  12.086  13.623
73611ION    NA+46679  44.939  20.601  12.388
73612ION    NA+46680  16.195  19.812   2.718
73613ION    NA+46681   3.271  35.751   4.798
73614ION    NA+46682  27.169  12.844  12.083
73615ION    NA+46683  24.241  28.735  14.516
73616ION    NA+46684  39.367  39.714  12.622
73617ION    NA+46685  39.606  17.426  14.674
73618ION    NA+46686  12.753  10.655  14.976
73619ION    NA+46687  27.977   2.848  10.892
73620ION    NA+46688  31.091  27.150   3.790
73621ION    NA+46689  17.186  13.367  12.739
73622ION    NA+46690  25.829  37.690  11.286
73623ION    NA+46691  10.409   1.954   4.063
73624ION    NA+46692  26.041  19.532   3.122
73625ION    NA+46693  44.998  14.480  12.237
73626ION    NA+46694   7.863  19.813   0.706
73627ION    NA+46695  31.509   1.396   1.811
73628ION    NA+46696   7.910  19.176  13.990
73629ION    NA+46697  16.671  41.608  12.871
73630ION    NA+46698  19.297  22.868   0.441
73631ION    NA+46699  27.932  22.512  11.462
73632ION    NA+46700  37.018  28.897  13.692
73633ION    NA+46701  26.800  41.632   2.668
73634ION    NA+46702  11.454  23.084  12.546
73635ION    NA+46703  25.646  15.266  13.135
73636ION    NA+46704   5.066  34.165   3.413
73637ION    NA+46705  22.460  43.334   1.997
73638ION    NA+46706  15.849  24.489  13.423
73639ION    NA+46707   2.589  29.457  11.848
73640ION    NA+46708  39.862  28.518  13.026
73641ION    NA+46709   7.298  38.871   2.127
73642ION    NA+46710  32.312  21.474  14.612
73643ION    NA+46711  34.483  19.025  14.453
73644ION    NA+46712  24.189  19.015  13.576
73645ION    NA+46713   6.472  14.986   2.953
73646ION    NA+46714   0.516  21.179   2.796
73647ION    NA+46715  28.383   5.927   0.395
73648ION    NA+46716  26.000  38.845   1.860
73649ION    NA+46717  35.461  11.765  12.838
73650ION    NA+46718  14.090  14.602  11.136
73651ION    NA+46719  38.104  14.732   3.858
73652ION    NA+46720  22.284  23.666   1.317
73653ION    NA+46721  34.984  15.183  14.507
73654ION    NA+46722   6.931  39.507   3.135
73655ION    NA+46723  19.833  24.487  14.829
73656ION    NA+46724   5.632   6.050   0.070
73657ION    NA+46725  12.176   1.625  13.610
73658ION    NA+46726  34.121  35.011   1.114
73659ION    NA+46727  43.252  19.522  11.446
73660ION    NA+46728  30.073  19.078   4.383
73661ION    NA+46729  18.155  21.550   3.814
73662ION    NA+46730  42.926  16.627   0.031
73663ION    NA+46731  13.738   8.359  12.319
73664ION    NA+46732   5.658  15.708   2.451
73665ION    NA+46733  35.444  40.330   2.452
73666ION    NA+46734  39.361   2.340  11.925
73667ION    NA+46735   7.924  17.653  14.273
73668ION    NA+46736  43.544  18.773   1.227
73669ION    NA+46737   1.809  32.348  11.142
73670ION    NA+46738  39.180  12.848   2.983
73671ION    NA+46739  44.168  28.979   0.578
73672ION    NA+46740  27.664  22.074   1.917
73673ION    NA+46741  19.259  10.440   1.521
73674ION    NA+46742  44.423  41.319  13.657
73675ION    NA+46743  35.065  24.131   4.429
73676ION    NA+46744  26.224  35.998   0.920
73677ION    NA+46745  25.504  33.938   5.029
73678ION    NA+46746  29.055  36.615  11.487
73679ION    NA+46747  16.834  14.023   2.724
73680ION    NA+46748  23.228   8.435   2.320
73681ION    NA+46749  17.719  13.036  13.517
73682ION    NA+46750  11.511  41.413  12.030
73683ION    NA+46751  38.187  29.260   4.167
73684ION    NA+46752  36.019  30.930   1.900
73685ION    NA+46753  39.240  12.374   3.737
73686ION    NA+46754  28.755  22.600   0.394
73687ION    NA+46755  17.697  21.302   0.998
73688ION    NA+46756  18.510  13.295   3.325
73689ION    NA+46757   6.609  21.494  12.439
73690ION    NA+46758  24.516  26.147   3.734
73691ION    NA+46759  35.759  20.907  12.767
73692ION    NA+46760  16.412  41.294   5.189
73693ION    NA+46761  11.788  18.224  12.583
73694ION    NA+46762  26.083  16.144   1.316
73695ION    NA+46763  17.549  21.240   3.082
73696ION    NA+46764  11.332  43.405   4.577
73697ION    NA+46765  28.311  43.023   2.057
73698ION    NA+46766  34.288  24.898  10.648
73699ION    NA+46767  34.459  22.377  12.085
73700ION    NA+46768  40.081  17.408  12.893
73701ION    NA+46769  38.475  41.110  11.631
73702ION    NA+46770  20.472   6.040  13.343
73703ION    NA+46771  16.716  11.566   4.171
73704ION    NA+46772  41.049   7.859  10.711
73705ION    NA+46773  38.485  33.140  14.116
73706ION    NA+46774   0.700   7.354   3.138
73707ION    NA+46775  34.337   9.353  13.740
73708ION    NA+46776  33.541  22.572   0.279
73709ION    NA+46777   0.247  18.830  14.746
73710ION    NA+46778  26.645  42.843  14.567
73711ION    NA+46779  38.838  30.487  10.712
73712ION    NA+46780  41.017  23.668  13.435
73713ION    NA+46781   8.797  12.840   4.104
73714ION    NA+46782  10.294  12.090  12.373
73715ION    NA+46783  16.559  19.514  11.385
73716ION    NA+46784  26.142  32.146  13.113
73717ION    NA+46785  29.085  28.854  10.963
73718ION    NA+46786  19.674  42.578   2.278
73719ION    NA+46787  41.954   8.034  12.097
73720ION    NA+46788   3.115  31.471  12.654
73721ION    NA+46789  20.413  19.016   1.163
73722ION    NA+46790  17.728   9.084  12.397
73723ION    NA+46791   6.759   8.943  13.674
73724ION    NA+46792  41.779   4.701  13.492
73725ION    NA+46793  37.658  24.091   2.321
73726ION    NA+46794   5.440  25.102  12.125
73727ION    NA+46795  37.811  18.305   0.649
73728ION    NA+46796  11.676   3.444   3.234
73729ION    NA+46797  42.168  31.064  14.381
73730ION    NA+46798  28.264  23.888   0.017
73731ION    NA+46799  19.706  41.653   2.707
73732ION    NA+46800  43.229  20.739   2.661
73733ION    NA+46801  37.327  23.609   3.133
73734ION    NA+46802  12.870  38.625  13.140
73735ION    NA+46803   6.647  23.697  14.834
73736ION    NA+46804  33.375  17.135   3.566
73737ION    NA+46805  12.325  19.681  14.278
73738ION    NA+46806  44.153  40.557   1.534
73739ION    NA+46807  41.153   3.509  14.211
73740ION    NA+46808  29.961  11.345  11.644
73741ION    NA+46809  28.408  37.266   2.687
73742ION    NA+46810   0.862  27.747  10.770
73743ION    NA+46811   9.124  17.890   3.286
73744ION    NA+46812  17.700  19.103   2.485
73745ION    NA+46813  19.662   7.224  13.398
73746ION    NA+46814  33.348  30.155   2.216
73747ION    NA+46815  43.947  32.380   2.006
73748ION    NA+46816  12.885  24.728  13.331
73749ION    NA+46817  36.664  44.417   5.137
73750ION    NA+46818   1.311  17.644   0.462
73751ION    NA+46819  27.481  30.591  10.708
73752ION    NA+46820  38.796  14.043   1.291
73753ION    NA+46821  42.530   8.614   0.508
73754ION    NA+46822  31.558  32.386  14.182
73755ION    NA+46823  13.812  13.313  10.742
73756ION    NA+46824  34.023  14.781   4.164
73757ION    NA+46825  42.124  24.226   3.448
73758ION    NA+46826   1.552  36.967  11.351
73759ION    NA+46827  29.894   4.822   1.574
73760ION    NA+46828  42.538   5.373  10.253
73761ION    NA+46829   7.646  40.767  13.437
73762ION    NA+46830  42.023  43.828   9.967
73763ION    NA+46831  27.165  15.603  14.449
73764ION    NA+46832  30.560   4.024   2.800
73765ION    NA+46833  18.342   8.674  10.728
73766ION    NA+46834  20.282  12.462  12.214
73767ION    NA+46835   2.879  31.542  10.357
73768ION    NA+46836  16.552  34.341  14.566
73769ION    NA+46837   3.414   2.937  14.425
73770ION    NA+46838   9.300   5.051  11.413
73771ION    NA+46839   5.519  22.182  13.034
73772ION    NA+46840  37.147   9.115  11.815
73773ION    NA+46841  44.844   0.222  10.743
73774ION    NA+46842  34.068   0.502   0.854
73775ION    NA+46843   6.351  24.949  12.507
73776ION    NA+46844  26.383  35.981  12.539
73777ION    NA+46845   7.352  15.222  14.258
73778ION    NA+46846  34.306   8.875  10.871
73779ION    NA+46847  19.350  43.466   2.604
73780ION    NA+46848  11.869  32.690  14.644
73781ION    NA+46849  39.285  18.189   2.813
73782ION    NA+46850   9.399  12.127  11.167
73783ION    NA+46851  13.074  28.996  10.806
73784ION    NA+46852   6.258   8.734   3.611
73785ION    NA+46853  29.036  32.103   4.659
73786ION    NA+46854  22.983  20.070  10.661
73787ION    NA+46855   0.435  14.951   2.352
73788ION    NA+46856  19.877  12.460  11.398
73789ION    NA+46857  35.911  34.153  14.214
73790ION    NA+46858  13.065  30.119  13.140
73791ION    NA+46859  30.411  20.185  13.338
73792ION    NA+46860   9.846  20.872  10.852
73793ION    NA+46861  13.839  32.956   2.263
73794ION    NA+46862  36.313  43.521   0.695
73795ION    NA+46863  34.558   0.242  11.171
73796ION    NA+46864  19.126   6.752  11.641
73797ION    NA+46865  33.058  44.185   0.658
73798ION    NA+46866   4.217  10.916   0.193
73799ION    NA+46867   4.186  35.765  13.093
73800ION    NA+46868  13.872   1.774   1.035
73801ION    NA+46869  27.896  18.628   3.868
73802ION    NA+46870  29.803  18.811  11.901
73803ION    NA+46871   7.248   3.921   0.852
73804ION    NA+46872   7.096  11.045  14.205
73805ION    NA+46873  18.397   6.350  14.506
73806ION    NA+46874  14.199  44.842  11.360
73807ION    NA+46875  44.915  41.389   0.957
73808ION    NA+46876  24.537  22.613   4.956
73809ION    NA+46877  14.196   3.924  14.846
73810ION    NA+46878  33.851  23.044   1.489
73811ION    NA+46879  39.502  30.139  14.884
73812ION    NA+46880  17.672  25.638   5.531
73813ION    NA+46881  32.768  20.555  11.505
73814ION    NA+46882  44.276  40.371   0.710
73815ION    NA+46883  44.119  24.945   0.095
73816ION    NA+46884   9.074   1.093   2.489
73817ION    NA+46885   0.981  14.376   0.684
73818ION    NA+46886  25.317  43.937   2.985
73819ION    NA+46887  14.207  30.920  12.882
73820ION    NA+46888  44.874   1.829   4.521
73821ION    NA+46889  36.864  13.508   0.572
73822ION    NA+46890  40.033   9.614  14.331
73823ION    NA+46891  24.637  21.210  12.595
73824ION    NA+46892   0.039  44.480  12.843
73825ION    NA+46893   6.798  37.848  14.103
73826ION    NA+46894   8.684   2.141   0.528
73827ION    NA+46895  21.410   2.963   3.762
73828ION    NA+46896  21.966  37.347   1.899
73829ION    NA+46897  43.868   4.895   1.236
73830ION    NA+46898  34.151  15.528  14.405
73831ION    NA+46899  11.549  32.944   4.110
73832ION    NA+46900  35.086  18.128  14.047
73833ION    NA+46901  27.048  20.074   4.733
73834ION    NA+46902  15.267  16.316   3.841
73835ION    NA+46903  33.290  23.063   4.682
73836ION    NA+46904  22.628   3.856   4.286
73837ION    NA+46905   4.867   0.698   3.234
73838ION    NA+46906  19.288  38.923  13.894
73839ION    NA+46907  31.539  40.752   1.592
73840ION    NA+46908  36.384  33.185  11.525
73841ION    NA+46909  24.612  12.367   1.829
73842ION    NA+46910  10.314  30.673  12.447
73843ION    NA+46911  16.845  11.691  13.777
73844ION    NA+46912  11.292  22.780   4.238
73845ION    NA+46913  35.351  22.573  14.247
73846ION    NA+46914   5.222  22.678  14.563
73847ION    NA+46915   0.000  44.331  11.169
73848ION    NA+46916  12.473   4.659   4.237
73849ION    NA+46917  32.639  15.563  11.101
73850ION    NA+46918  27.735  41.455   2.976
73851ION    NA+46919   8.970  31.296   4.353
73852ION    NA+46920   9.242   5.715   1.884
73853ION    NA+46921  17.045   0.449   1.800
73854ION    NA+46922  21.456   4.281  13.268
73855ION    NA+46923  41.509  19.819   2.972
73856ION    NA+46924  17.201   8.689   1.655
73857ION    NA+46925  17.767  39.403  14.374
73858ION    NA+46926  34.180  35.628   1.899
73859ION    NA+46927  16.941  39.353  12.218
73860ION    NA+46928  29.826  29.461  10.674
73861ION    NA+46929  43.283  41.268   2.772
73862ION    NA+46930  11.707  27.813   5.036
73863ION    NA+46931  26.205  13.968  14.805
73864ION    NA+46932  31.800  39.155  11.393
73865ION    NA+46933  28.165  32.156  12.944
73866ION    NA+46934  10.411  37.080   4.669
73867ION    NA+46935   8.709   5.238  10.744
73868ION    NA+46936  26.825  11.866   1.009
73869ION    NA+46937  35.983  19.969  13.032
73870ION    NA+46938  23.461  12.812  12.291
73871ION    NA+46939  20.879  38.057   2.785
73872ION    NA+46940  22.253  29.825   9.699
73873ION    NA+46941  41.080  30.700  13.650
73874ION    NA+46942  18.099  42.994  14.742
73875ION    NA+46943  39.031   7.757   3.816
73876ION    NA+46944   7.520   0.152  13.036
73877ION    NA+46945  41.782  17.890   4.560
73878ION    NA+46946  12.536   0.539  10.387
73879ION    NA+46947  22.488  22.442   0.021
73880ION    NA+46948  35.907  35.072   1.310
73881ION    NA+46949  27.056   6.490   3.798
73882ION    NA+46950   5.659   5.519   4.506
73883ION    NA+46951  13.940  22.096   1.684
73884ION    NA+46952  42.770  37.029  10.888
73885ION    NA+46953  38.065  35.736   0.707
73886ION    NA+46954  10.897   2.923   1.401
73887ION    NA+46955   4.214  43.943   0.331
73888ION    NA+46956  16.240  26.720  10.723
73889ION    NA+46957  20.586   4.859  11.989
73890ION    NA+46958  22.183  12.179  14.376
73891ION    NA+46959  41.398  13.578   5.448
73892ION    NA+46960  16.649  42.945  11.519
73893ION    NA+46961  32.828  34.288   4.506
73894ION    NA+46962  12.325   9.470  13.776
73895ION    NA+46963  34.504  15.676   3.336
73896ION    NA+46964   7.257  16.778   0.163
73897ION    NA+46965  29.528  13.311   2.825
73898ION    NA+46966   1.302  27.572   0.664
73899ION    NA+46967  33.503  36.536  11.373
73900ION    NA+46968  33.464   9.944  10.872
73901ION    NA+46969  27.856  23.959  10.931
73902ION    NA+46970  27.932  44.325  14.747
73903ION    NA+46971  17.814  10.212  13.843
73904ION    NA+46972   5.470   7.777  14.080
73905ION    NA+46973  29.291  17.101   2.615
73906ION    NA+46974  18.223  37.806   0.768
73907ION    NA+46975   9.725  10.333   1.621
73908ION    NA+46976  24.150  16.271  10.715
73909ION    NA+46977  10.953   0.239   4.413
73910ION    NA+46978  27.403  28.334   0.215
73911ION    NA+46979  26.016  43.285   3.928
73912ION    NA+46980   6.301  33.930   4.821
73913ION    NA+46981  22.798  28.200   4.171
73914ION    NA+46982   3.197  41.388   0.702
73915ION    NA+46983  38.605  13.272  14.796
73916ION    NA+46984  40.035  36.915  14.837
73917ION    NA+46985  38.332  25.439   1.971
73918ION    NA+46986   5.285  30.523   3.720
73919ION    NA+46987  30.961  33.119  14.516
73920ION    NA+46988  38.639  19.098  11.934
73921ION    NA+46989  24.755  39.739  12.233
73922ION    NA+46990  31.667  25.727   2.915
73923ION    NA+46991   2.819   4.173  11.678
73924ION    NA+46992  12.254  16.375   4.139
73925ION    NA+46993  32.864  38.770   2.130
73926ION    NA+46994   4.413  16.633   3.380
73927ION    NA+46995   0.863  31.316  13.257
73928ION    NA+46996  37.823   6.888   1.756
73929ION    NA+46997  37.827  20.263   0.572
73930ION    NA+46998   6.179   4.683   3.001
73931ION    NA+46999  10.726  40.514   0.571
73932ION    NA+47000  12.208  42.130  11.989
73933ION    NA+47001  29.225   1.908   0.758
73934ION    NA+47002  33.556  25.910  13.437
73935ION    NA+47003  36.408  38.819  14.045
73936ION    NA+47004   4.750  33.310   0.031
73937ION    NA+47005  32.416  10.642  13.945
73938ION    NA+47006  16.969  42.647  10.276
73939ION    NA+47007   2.856  24.149   2.404
73940ION    NA+47008  17.884  30.808  10.818
73941ION    NA+47009  39.556  31.177  10.619
73942ION    NA+47010  17.205  31.064  12.092
73943ION    NA+47011  36.074  43.611   1.300
73944ION    NA+47012  27.865  38.679  13.961
73945ION    NA+47013   7.908  10.037   0.903
73946ION    NA+47014  13.293   1.435   4.565
73947ION    NA+47015  37.451   3.515  13.451
73948ION    NA+47016  23.805  21.151  12.025
73949ION    NA+47017  17.972  30.626  12.562
73950ION    NA+47018   0.187  40.901   4.152
73951ION    NA+47019  37.372  43.839   3.870
73952ION    NA+47020  24.661  26.391   0.698
73953ION    NA+47021   6.961  39.810   2.182
73954ION    NA+47022  29.227  20.837  14.415
73955ION    NA+47023  40.495  17.506   3.620
73956ION    NA+47024  29.242  19.993   3.795
73957ION    NA+47025   9.399  18.678   0.807
73958ION    NA+47026  38.016  37.922  14.053
73959ION    NA+47027   0.762   4.128  14.913
73960ION    NA+47028  33.332  36.884  12.990
73961ION    NA+47029  37.312  17.081   0.421
73962ION    NA+47030  33.333   5.121   0.685
73963ION    NA+47031  33.019   1.792  13.218
73964ION    NA+47032  31.729  34.802   1.725
73965ION    NA+47033   4.754  31.858   3.263
73966ION    NA+47034   6.899  12.734  11.158
73967ION    NA+47035   7.400  12.223   0.682
73968ION    NA+47036  18.587   4.833   2.887
73969ION    NA+47037  28.793  11.007  11.480
73970ION    NA+47038  15.569  25.646  11.552
73971ION    NA+47039  36.114  19.161   2.718
73972ION    NA+47040  12.208  43.352  13.619
73973ION    NA+47041  20.497  17.656   3.598
73974ION    NA+47042   2.927  42.942  13.069
73975ION    NA+47043  40.461  25.258  13.547
73976ION    NA+47044   2.583   1.302   4.973
73977ION    NA+47045  35.151  13.249  10.649
73978ION    NA+47046  10.586  27.318  12.989
73979ION    NA+47047  25.342  18.184   2.755
73980ION    NA+47048  26.498  11.724   0.059
73981ION    NA+47049   5.483  31.557   3.892
73982ION    NA+47050  30.219  26.298   5.213
73983ION    NA+47051  40.654   5.587   4.422
73984ION    NA+47052  39.229  11.681   0.312
73985ION    NA+47053  19.419  32.603  11.509
73986ION    NA+47054  22.194  43.706  12.655
73987ION    NA+47055  43.493  18.956   2.936
73988ION    NA+47056  38.770   7.436  11.596
73989ION    NA+47057  22.027  21.266  14.228
73990ION    NA+47058  23.529  36.647   0.392
73991ION    NA+47059  40.840  10.311   3.148
73992ION    NA+47060  32.439  17.855   2.896
73993ION    NA+47061  36.647  29.120  12.057
73994ION    NA+47062  33.967   9.144   5.021
73995ION    NA+47063  24.617  10.497  13.900
73996ION    NA+47064  26.496   1.241   5.305
73997ION    NA+47065  41.814  15.217   0.254
73998ION    NA+47066  29.352  34.319  14.248
73999ION    NA+47067  16.059   6.247  13.376
74000ION    NA+47068  43.538  22.799  11.172
74001ION    NA+47069   6.120  18.937  14.160
74002ION    NA+47070  12.620  14.324   4.073
74003ION    NA+47071  18.295   9.655  13.020
74004ION    NA+47072   2.955  27.727   3.477
74005ION    NA+47073   6.269   1.095  14.753
74006ION    NA+47074  37.737   0.554  10.060
74007ION    NA+47075  12.322  44.996  14.347
74008ION    NA+47076  29.629  41.289   1.823
74009ION    NA+47077  15.751  29.488  14.747
74010ION    NA+47078  17.125  12.512  13.898
74011ION    NA+47079  19.703  42.354   0.921
74012ION    NA+47080   2.723  24.775  12.457
74013ION    NA+47081   1.474  44.489   3.877
74014ION    NA+47082   8.876   6.723   0.885
74015ION    NA+47083  24.815  14.454   0.164
74016ION    NA+47084  34.386  26.564   0.440
74017ION    NA+47085  18.544  30.087   4.258
74018ION    NA+47086   2.333   1.506   1.497
74019ION    NA+47087  16.295  26.139   3.136
74020ION    NA+47088   0.234  41.841   1.651
74021ION    NA+47089  37.462  16.698   1.354
74022ION    NA+47090   3.747  20.806  14.774
74023ION    NA+47091  36.031  39.603  13.799
74024ION    NA+47092   2.147  34.826   3.794
74025ION    NA+47093  19.425  17.802   4.668
74026ION    NA+47094  11.556   6.882   2.915
74027ION    NA+47095  43.071  35.183  14.526
74028ION    NA+47096  15.374  15.363  10.829
74029ION    NA+47097  20.601  40.712   2.398
74030ION    NA+47098  33.070  21.053  14.898
74031ION    NA+47099  41.344  12.356   3.519
74032ION    NA+47100   6.428   4.634   1.895
74033ION    NA+47101  43.555  32.958  12.471
74034ION    NA+47102  27.195   1.079  13.915
74035ION    NA+47103  12.935  41.804  14.491
74036ION    NA+47104  34.547  34.408  12.972
74037ION    NA+47105  23.585  18.310   2.334
74038ION    NA+47106  17.215   3.965  13.948
74039ION    NA+47107   7.329   0.583   2.759
74040ION    NA+47108  33.979   2.411   4.937
74041ION    NA+47109  41.429  37.993   0.660
74042ION    NA+47110  10.486  15.629  13.558
74043ION    NA+47111  19.322  42.148  12.803
74044ION    NA+47112  11.614  14.501  12.054
74045ION    NA+47113  40.334  29.257   3.749
74046ION    NA+47114  29.431  30.944   1.536
74047ION    NA+47115   0.035   5.044   2.865
74048ION    NA+47116  30.328  44.927  12.254
74049ION    NA+47117   9.923  10.184   0.214
74050ION    NA+47118   6.880  43.682  14.897
74051ION    NA+47119   5.245  32.958   2.721
74052ION    NA+47120  28.536  39.629   3.838
74053ION    NA+47121  31.442   4.682  14.059
74054ION    NA+47122  23.409  37.503   5.374
74055ION    NA+47123  23.138  44.774  11.626
74056ION    NA+47124  22.361  20.345  14.430
74057ION    NA+47125  16.860  35.587  12.145
74058ION    NA+47126  26.927  12.775  10.414
74059ION    NA+47127  29.747  18.079  14.734
74060ION    NA+47128  30.381  41.263  12.158
74061ION    NA+47129  20.073  30.345  12.022
74062ION    NA+47130  27.684  34.090  14.825
74063ION    NA+47131  24.045  26.024  13.549
74064ION    NA+47132  38.136  27.608   0.429
74065ION    NA+47133  39.181  14.800   2.849
74066ION    NA+47134  15.393  36.463  11.034
74067ION    NA+47135  30.466  30.230  10.671
74068ION    NA+47136  43.220  20.784  10.403
74069ION    NA+47137  35.131  11.815   2.404
74070ION    NA+47138   7.699   2.869   2.662
74071ION    NA+47139  38.993  29.595   1.709
74072ION    NA+47140   2.980  21.505   3.334
74073ION    NA+47141   7.605  30.478   2.727
74074ION    NA+47142  35.215   8.561   1.567
74075ION    NA+47143  15.129  22.846  11.224
74076ION    NA+47144  30.760   2.611  12.046
74077ION    NA+47145  37.931   1.648   4.016
74078ION    NA+47146  29.155  20.094  11.369
74079ION    NA+47147   6.748  18.266  11.616
74080ION    NA+47148  26.393   7.417   1.169
74081ION    NA+47149  44.060   1.981  12.294
74082ION    NA+47150  13.317  21.078  13.436
74083ION    NA+47151   2.479   3.917  10.773
74084ION    NA+47152   0.336  37.975   3.105
74085ION    NA+47153  36.122  24.290  11.401
74086ION    NA+47154  41.861  44.667  10.486
74087ION    NA+47155  22.764   9.295   4.718
74088ION    NA+47156  40.855  41.446   3.762
74089ION    NA+47157   1.451  38.950  13.972
74090ION    NA+47158  22.070   2.759  11.676
74091ION    NA+47159   3.706   0.569   2.725
74092ION    NA+47160  39.952  18.351   3.408
74093ION    NA+47161  15.039   0.733   3.657
74094ION    NA+47162   4.429  44.885   1.897
74095ION    NA+47163  15.737  41.309  11.900
74096ION    NA+47164  16.579  25.955   4.463
74097ION    NA+47165   4.470  28.887   3.821
74098ION    NA+47166  10.249  24.505  13.497
74099ION    NA+47167  32.240   8.247   2.648
74100ION    NA+47168  31.748  42.504   3.220
74101ION    NA+47169  23.698  11.908  14.305
74102ION    NA+47170   4.985  23.761   0.732
74103ION    NA+47171  40.540   5.719   2.884
74104ION    NA+47172  30.084  29.956  11.863
74105ION    NA+47173  24.530  15.615  12.459
74106ION    NA+47174  22.011  28.925  11.166
74107ION    NA+47175  10.181  38.374  10.665
74108ION    NA+47176  36.351  44.464  14.817
74109ION    NA+47177  26.800  41.290  13.480
74110ION    NA+47178  31.870  22.356  14.448
74111ION    NA+47179   7.716  21.366  13.250
74112ION    NA+47180   6.417  36.322   4.168
74113ION    NA+47181  23.873  20.599  10.594
74114ION    NA+47182   6.949  32.936  10.715
74115ION    NA+47183  20.815  30.721  12.610
74116ION    NA+47184  36.525  43.909  10.673
74117ION    NA+47185  42.437  12.195   0.430
74118ION    NA+47186   1.212  38.156   1.883
74119ION    NA+47187  15.086   1.101   4.488
74120ION    NA+47188   0.180  23.141   4.557
74121ION    NA+47189  33.775   0.636  14.632
74122ION    NA+47190   1.241  34.383  12.890
74123ION    NA+47191  22.701  24.980  14.473
74124ION    NA+47192   1.755  22.276   1.027
74125ION    NA+47193  39.126  18.218  14.299
74126ION    NA+47194   0.395  43.008  10.994
74127ION    NA+47195   0.740  18.659   3.254
74128ION    NA+47196  29.255  44.516  14.427
74129ION    NA+47197  21.479  22.908   0.593
74130ION    NA+47198   9.307  41.785   1.745
74131ION    NA+47199  18.239  11.278  10.634
74132ION    NA+47200  26.443  11.010   2.528
74133ION    NA+47201  36.583  18.534   2.332
74134ION    NA+47202  30.043  12.628  11.957
74135ION    NA+47203  30.738  10.568  10.907
74136ION    CL-47204  33.080  41.752   4.069
74137ION    CL-47205  13.637  37.041   3.504
74138ION    CL-47206  42.395  20.549  14.879
74139ION    CL-47207  43.826  23.450   0.398
74140ION    CL-47208  38.943  18.093  13.859
74141ION    CL-47209  28.843  10.561  11.346
74142ION    CL-47210  36.318  26.514   2.855
74143ION    CL-47211  14.038  21.316  11.271
74144ION    CL-47212  18.636  27.653   3.099
74145ION    CL-47213  28.375  44.843  13.423
74146ION    CL-47214  32.240   1.189  12.111
74147ION    CL-47215  23.953  36.304  14.298
74148ION    CL-47216   6.730  15.789  13.252
74149ION    CL-47217  15.761  26.643   4.975
74150ION    CL-47218  32.130  10.992  13.962
74151ION    CL-47219  44.994  11.817  10.618
74152ION    CL-47220  41.814  11.893   1.356
74153ION    CL-47221  43.412  24.199  13.936
74154ION    CL-47222  36.222   6.797   2.334
74155ION    CL-47223   1.943  22.915  12.284
74156ION    CL-47224   4.947  29.937   0.379
74157ION    CL-47225  13.814  22.473   1.906
74158ION    CL-47226  26.353   7.069   0.872
74159ION    CL-47227  41.008  38.895  12.442
74160ION    CL-47228  17.576  37.502  12.659
74161ION    CL-47229  35.164  24.831   0.546
74162ION    CL-47230   1.323   6.401   4.219
74163ION    CL-47231  15.606   6.735  12.490
74164ION    CL-47232   6.576  39.169   5.343
74165ION    CL-47233  24.677  36.829  14.474
74166ION    CL-47234   5.492  32.778   1.653
74167ION    CL-47235  23.935  20.899  14.946
74168ION    CL-47236   3.377  24.032  11.169
74169ION    CL-47237   5.932   6.275  13.911
74170ION    CL-47238  17.756  39.859   1.869
74171ION    CL-47239  41.046  16.334   9.367
74172ION    CL-47240   1.506  24.141   0.967
74173ION    CL-47241  28.983  14.489  14.901
74174ION    CL-47242   4.969  38.583  13.671
74175ION    CL-47243  39.605  31.730  11.627
74176ION    CL-47244  25.547  22.302   1.395
74177ION    CL-47245  41.033   5.557   4.697
74178ION    CL-47246   7.892  39.839   0.358
74179ION    CL-47247  40.926  33.891  10.943
74180ION    CL-47248  14.387  39.860   3.014
74181ION    CL-47249  29.343  20.083  10.966
74182ION    CL-47250  24.242  42.979   3.197
74183ION    CL-47251  39.940  33.603   3.154
74184ION    CL-47252  40.805   0.415  10.695
74185ION    CL-47253  39.470  35.085  10.744
74186ION    CL-47254  19.735   2.294  13.952
74187ION    CL-47255  41.705  38.764  12.998
74188ION    CL-47256   5.950  44.687  12.951
74189ION    CL-47257   7.105   0.059  12.866
74190ION    CL-47258  33.204   7.390  10.426
74191ION    CL-47259  29.487  41.677   2.008
74192ION    CL-47260  15.265  12.501  11.837
74193ION    CL-47261   3.037   4.287   1.412
74194ION    CL-47262  28.245  13.526   0.559
74195ION    CL-47263  30.210  36.932   5.133
74196ION    CL-47264  20.314  15.863   0.242
74197ION    CL-47265  23.228  35.613   0.987
74198ION    CL-47266   5.323  40.932   2.831
74199ION    CL-47267  19.051  19.080   0.881
74200ION    CL-47268  44.131  25.400  14.941
74201ION    CL-47269  19.837  44.327   0.866
74202ION    CL-47270   0.582  26.738   1.236
74203ION    CL-47271  42.445  15.224   3.631
74204ION    CL-47272   1.668  32.061  12.357
74205ION    CL-47273  15.198  25.463  11.719
74206ION    CL-47274   0.608  12.426  13.328
74207ION    CL-47275  40.217   5.635   4.300
74208ION    CL-47276  42.012  42.520  12.069
74209ION    CL-47277  43.317  28.136   0.053
74210ION    CL-47278  18.569  12.852  11.816
74211ION    CL-47279  13.623  37.716  12.924
74212ION    CL-47280  36.425  44.476   0.258
74213ION    CL-47281  11.005   5.584   2.826
74214ION    CL-47282  30.412  44.929   1.487
74215ION    CL-47283  31.361  29.192   3.568
74216ION    CL-47284  30.672   1.756  11.517
74217ION    CL-47285  22.433  26.492   5.123
74218ION    CL-47286  19.673  38.839  14.105
74219ION    CL-47287  16.193  38.970  10.249
74220ION    CL-47288   1.182  14.742   0.522
74221ION    CL-47289  18.598  12.566   4.581
74222ION    CL-47290   5.668  39.991  11.283
74223ION    CL-47291  34.040  21.153  13.889
74224ION    CL-47292  14.759   4.922  11.965
74225ION    CL-47293  10.897  14.569   1.326
74226ION    CL-47294   5.852  14.284  13.071
74227ION    CL-47295   8.961   5.147  11.110
74228ION    CL-47296   7.070  38.492   4.938
74229ION    CL-47297   9.092  15.353   0.690
74230ION    CL-47298  29.737  17.215   2.512
74231ION    CL-47299  42.904  44.805  12.594
74232ION    CL-47300  19.967  32.469   2.752
74233ION    CL-47301  10.940  32.987   0.370
74234ION    CL-47302  36.372  18.454   0.376
74235ION    CL-47303  38.403  15.121   0.976
74236ION    CL-47304  33.446  25.496  13.301
74237ION    CL-47305  37.783  13.388   1.771
74238ION    CL-47306  37.293  38.268   4.269
74239ION    CL-47307  31.743  41.932   4.665
74240ION    CL-47308  42.870  12.301   0.388
74241ION    CL-47309  11.699  25.437   2.855
74242ION    CL-47310  36.895  19.982  13.814
74243ION    CL-47311   7.891  44.907   5.048
74244ION    CL-47312  19.297  31.186  10.439
74245ION    CL-47313  40.582  41.257   1.374
74246ION    CL-47314  40.350  28.865  11.722
74247ION    CL-47315  25.495  43.869   0.240
74248ION    CL-47316  30.575  25.878   5.075
74249ION    CL-47317  40.867  37.438  14.626
74250ION    CL-47318   1.912   0.551  14.491
74251ION    CL-47319  13.074   5.010   2.836
74252ION    CL-47320  40.121  25.131  13.286
74253ION    CL-47321  37.062  13.114   0.641
74254ION    CL-47322  16.237  38.106  12.012
74255ION    CL-47323  29.052  44.894  12.688
74256ION    CL-47324  11.873  16.124   4.191
74257ION    CL-47325  38.791   4.625   0.308
74258ION    CL-47326  19.696  22.724  13.874
74259ION    CL-47327  37.503  14.885  11.135
74260ION    CL-47328  38.893  30.175   5.235
74261ION    CL-47329  13.982  34.802  10.381
74262ION    CL-47330  35.983   6.546   4.980
74263ION    CL-47331  14.180  25.913  12.983
74264ION    CL-47332   9.341  10.426   1.827
74265ION    CL-47333  26.221  37.750  11.062
74266ION    CL-47334  37.460  39.918  12.084
74267ION    CL-47335  20.078  17.747  11.602
74268ION    CL-47336  28.478  40.486   1.846
74269ION    CL-47337   6.205  40.511  13.982
74270ION    CL-47338   8.179  10.266   1.178
74271ION    CL-47339  39.033  26.603   3.325
74272ION    CL-47340  27.516  37.833  12.866
74273ION    CL-47341   6.720  19.541   1.421
74274ION    CL-47342  32.393  32.487   1.730
74275ION    CL-47343  26.435  11.354  11.087
74276ION    CL-47344   4.792  33.328  11.078
74277ION    CL-47345  14.318  20.687  10.218
74278ION    CL-47346   6.728  19.863  14.608
74279ION    CL-47347  27.663  30.895   0.768
74280ION    CL-47348   3.822  36.903   2.175
74281ION    CL-47349   6.224  25.976  14.641
74282ION    CL-47350  13.678   7.958  14.939
74283ION    CL-47351  40.049  20.622   2.380
74284ION    CL-47352  31.439  31.379  10.349
74285ION    CL-47353  34.167  14.066  14.418
74286ION    CL-47354  40.337  24.625   3.501
74287ION    CL-47355  20.436   5.104   0.372
74288ION    CL-47356  29.234  30.927   1.134
74289ION    CL-47357  25.130   9.741  11.526
74290ION    CL-47358  20.221  13.128   2.771
74291ION    CL-47359  26.690  21.967   3.314
74292ION    CL-47360  33.441  13.618  13.458
74293ION    CL-47361  19.841  26.025   1.900
74294ION    CL-47362  29.051  30.415  11.795
74295ION    CL-47363   8.250  37.259   2.626
74296ION    CL-47364  24.687   9.657   2.200
74297ION    CL-47365  15.731  27.645  10.645
74298ION    CL-47366  22.065   0.252   4.677
74299ION    CL-47367  42.223  11.744  11.647
74300ION    CL-47368  30.026  16.821   0.880
74301ION    CL-47369   1.997   8.749  12.389
74302ION    CL-47370  28.463  22.450   0.080
74303ION    CL-47371   8.410  23.925   4.989
74304ION    CL-47372   7.118  16.608  14.764
74305ION    CL-47373   9.088  13.931  14.723
74306ION    CL-47374  19.542  33.457   0.654
74307ION    CL-47375  21.171  25.319  13.358
74308ION    CL-47376  35.056  38.552  12.595
74309ION    CL-47377  29.593  22.522  12.471
74310ION    CL-47378   5.180  31.989  11.328
74311ION    CL-47379  41.556   8.620  11.719
74312ION    CL-47380  34.761  18.902   2.053
74313ION    CL-47381  14.539  17.267  11.096
74314ION    CL-47382  39.877  12.335   1.805
74315ION    CL-47383   1.295   2.436   2.813
74316ION    CL-47384  27.044  23.291  11.979
74317ION    CL-47385  23.226  42.911   4.128
74318ION    CL-47386  17.760  14.343   1.195
74319ION    CL-47387  31.590   8.837  11.465
74320ION    CL-47388  29.632  20.857  14.174
74321ION    CL-47389  34.083   1.986  12.747
74322ION    CL-47390  42.745  23.430  14.078
74323ION    CL-47391  42.413   8.715  12.946
74324ION    CL-47392  17.296  15.423  14.864
74325ION    CL-47393  27.848  10.106  10.501
74326ION    CL-47394  12.618  17.027  12.660
74327ION    CL-47395   2.665  19.989   0.724
74328ION    CL-47396  20.542  11.259  13.952
74329ION    CL-47397  25.716  39.086  13.236
74330ION    CL-47398  24.455  41.767   0.812
74331ION    CL-47399  29.904  40.890   4.511
74332ION    CL-47400  28.245  14.596  13.507
74333ION    CL-47401   8.259   5.877  13.493
74334ION    CL-47402   5.648  32.925   2.937
74335ION    CL-47403  42.051  37.120   1.351
74336ION    CL-47404  13.360  17.084   0.369
74337ION    CL-47405  37.339   7.442  11.718
74338ION    CL-47406  13.760   4.923  12.007
74339ION    CL-47407   3.351  31.179  13.998
74340ION    CL-47408  32.281  23.645  14.548
74341ION    CL-47409  43.825  15.215  13.555
74342ION    CL-47410  15.052   0.879   4.089
74343ION    CL-47411  10.111  14.736   0.730
74344ION    CL-47412  19.294  10.669   3.322
74345ION    CL-47413  36.231  12.566   0.739
74346ION    CL-47414  33.104  29.190   4.417
74347ION    CL-47415   8.495   8.368   2.171
74348ION    CL-47416  18.409   6.427  12.770
74349ION    CL-47417  42.992  19.149  14.551
74350ION    CL-47418  10.768   1.667   1.369
74351ION    CL-47419  15.590   4.479   3.114
74352ION    CL-47420  39.541   5.183  14.953
74353ION    CL-47421  42.446  42.868   1.506
74354ION    CL-47422  38.964  28.469   2.537
74355ION    CL-47423  43.387  39.320  11.955
74356ION    CL-47424  38.894  26.680   5.166
74357ION    CL-47425  37.289  24.051   3.022
74358ION    CL-47426  27.825  24.320   1.218
74359ION    CL-47427   9.426   7.316  13.558
74360ION    CL-47428  29.469   5.891  11.626
74361ION    CL-47429  30.570  43.883   4.924
74362ION    CL-47430   8.805  35.332  12.350
74363ION    CL-47431   8.478   3.380  12.577
74364ION    CL-47432   8.734  31.939   4.625
74365ION    CL-47433   1.331  44.973  12.946
74366ION    CL-47434  14.317  10.464  12.983
74367ION    CL-47435   5.017  24.212   0.783
74368ION    CL-47436  13.693  34.557   0.865
74369ION    CL-47437  15.196   6.893   4.141
74370ION    CL-47438  23.603  36.916   1.746
74371ION    CL-47439  39.329  38.556   1.741
74372ION    CL-47440  35.839  21.339  12.686
74373ION    CL-47441  44.158  35.915  13.763
74374ION    CL-47442  23.282   8.461  14.012
74375ION    CL-47443  30.112  38.291   0.738
74376ION    CL-47444  25.039  23.991   4.125
74377ION    CL-47445  25.009  30.040   0.999
74378ION    CL-47446   6.792  27.161   3.118
74379ION    CL-47447  28.501  25.282   1.339
74380ION    CL-47448  28.729  27.076   0.072
74381ION    CL-47449   8.625  12.089  14.295
74382ION    CL-47450  32.135  42.576  11.457
74383ION    CL-47451  29.237  24.409  13.625
74384ION    CL-47452  16.358   6.290  14.731
74385ION    CL-47453  39.200   1.023   3.410
74386ION    CL-47454  11.392   3.683  14.482
74387ION    CL-47455  36.833  26.674  11.210
74388ION    CL-47456  14.503   7.758   3.667
74389ION    CL-47457  39.594  18.261   3.138
74390ION    CL-47458  10.941   1.314  13.343
74391ION    CL-47459  33.196  44.281   1.095
74392ION    CL-47460  22.776   9.826   3.544
74393ION    CL-47461  44.567  27.385  13.492
74394ION    CL-47462  16.338   9.382  10.068
74395ION    CL-47463   0.296  31.402   3.688
74396ION    CL-47464   9.833  14.606  11.413
74397ION    CL-47465  11.139  30.147   4.713
74398ION    CL-47466  27.970  42.961   1.759
74399ION    CL-47467  17.534  12.706   9.964
74400ION    CL-47468  12.607  27.211   2.919
74401ION    CL-47469   0.595  36.548   1.162
74402ION    CL-47470  24.110  13.315   1.664
74403ION    CL-47471  22.675   2.209   3.667
74404ION    CL-47472  41.337  40.648   2.232
74405ION    CL-47473  30.421   5.801   2.650
74406ION    CL-47474  16.056  41.502  11.647
74407ION    CL-47475  28.662  15.832   2.931
74408ION    CL-47476  42.844  16.559   9.848
74409ION    CL-47477   2.079  18.203  11.142
74410ION    CL-47478   8.589  26.127   4.711
74411ION    CL-47479   1.426  19.617  11.691
74412ION    CL-47480  43.225  44.830   2.217
74413ION    CL-47481  44.093  43.564   2.420
74414ION    CL-47482  19.484  42.431  12.478
74415ION    CL-47483  14.802  20.763   1.334
74416ION    CL-47484  13.894   6.208  14.694
74417ION    CL-47485  36.435  18.928   2.498
74418ION    CL-47486  40.220  20.008  11.703
74419ION    CL-47487   6.860  19.599  10.631
74420ION    CL-47488   1.030  34.143   1.769
74421ION    CL-47489  31.952  39.301  10.990
74422ION    CL-47490   6.347  37.401   5.099
74423ION    CL-47491  23.437  37.988   2.359
74424ION    CL-47492   5.283   2.006   5.139
74425ION    CL-47493  28.669  41.188  14.429
74426ION    CL-47494  20.561   8.849   3.344
74427ION    CL-47495  14.723  12.921  12.565
74428ION    CL-47496  36.445  31.951  14.708
74429ION    CL-47497  12.407  24.091   2.155
74430ION    CL-47498  44.496  24.277   2.437
74431ION    CL-47499  22.412  41.477  14.837
74432ION    CL-47500  27.408  37.259  11.965
74433ION    CL-47501   9.680  29.244  14.440
74434ION    CL-47502   7.552  12.481  12.450
74435ION    CL-47503  32.834  10.499  13.835
74436ION    CL-47504  19.525   1.204  10.883
74437ION    CL-47505  35.414  41.247  10.627
74438ION    CL-47506  13.887  14.709  12.388
74439ION    CL-47507  13.850   9.832  12.363
74440ION    CL-47508  26.533  44.916   2.076
74441ION    CL-47509  29.190   6.794  12.131
74442ION    CL-47510  26.973  11.764  10.351
74443ION    CL-47511  27.620   0.981   1.851
74444ION    CL-47512  29.101  19.237   1.906
74445ION    CL-47513  18.054  11.452  11.014
74446ION    CL-47514   6.462   4.871   3.310
74447ION    CL-47515  30.646   8.568  12.745
74448ION    CL-47516  39.540  17.847  14.521
74449ION    CL-47517  20.331  39.049   3.392
74450ION    CL-47518  31.808   2.540  11.197
74451ION    CL-47519  14.118  24.613   3.237
74452ION    CL-47520  19.932  24.296  14.439
74453ION    CL-47521   2.328  40.779   1.014
74454ION    CL-47522  17.873  42.837   4.056
74455ION    CL-47523  16.321  21.656  11.984
74456ION    CL-47524   7.059  40.862   0.708
74457ION    CL-47525  19.034  43.283  11.017
74458ION    CL-47526  15.419   8.519   1.403
74459ION    CL-47527  33.872  16.416   5.014
74460ION    CL-47528  29.541  28.938   3.335
74461ION    CL-47529  24.553  17.531  10.965
74462ION    CL-47530  18.114   0.856   1.121
74463ION    CL-47531  33.935  25.845   3.491
74464ION    CL-47532  31.706   1.321   3.203
74465ION    CL-47533  15.155  22.311   3.847
74466ION    CL-47534  19.622  41.589   3.142
74467ION    CL-47535  41.212  16.121   5.256
74468ION    CL-47536  12.865  29.718  13.056
74469ION    CL-47537  37.472  21.732  11.460
74470ION    CL-47538   1.567  21.552  14.576
74471ION    CL-47539  10.680  34.121  10.651
74472ION    CL-47540  19.398  11.922   4.165
74473ION    CL-47541   1.225  25.695  13.391
74474ION    CL-47542   9.027  29.504   4.611
74475ION    CL-47543  22.726  21.468  12.023
74476ION    CL-47544  34.317  23.067  10.688
74477ION    CL-47545  35.851  18.429  13.235
74478ION    CL-47546  17.784  26.229   4.058
74479ION    CL-47547  18.513  39.029   1.960
74480ION    CL-47548  26.087  33.013   3.920
74481ION    CL-47549  12.266  31.062  14.525
74482ION    CL-47550  21.442  11.669   5.010
74483ION    CL-47551  34.136  11.483   0.619
74484ION    CL-47552   0.590   7.357  14.867
74485ION    CL-47553   6.963  26.863  14.860
74486ION    CL-47554  35.968   9.414  14.444
74487ION    CL-47555  31.381  19.304  11.083
74488ION    CL-47556  12.703  12.246  14.503
74489ION    CL-47557  37.934   3.695   2.873
74490ION    CL-47558  21.239  15.586   1.645
74491ION    CL-47559  22.672   7.360   4.140
74492ION    CL-47560  14.120  21.080   0.262
74493ION    CL-47561  28.144  37.442   3.002
74494ION    CL-47562   3.542  31.339  12.758
74495ION    CL-47563   8.716  35.642   3.552
74496ION    CL-47564  18.192  28.596   3.292
74497ION    CL-47565  15.362  37.822  11.174
74498ION    CL-47566  22.999  44.236   0.870
74499ION    CL-47567   5.332  30.438   1.400
74500ION    CL-47568  36.926  15.657  10.869
74501ION    CL-47569   9.400  15.072  10.767
74502ION    CL-47570  13.137  10.852  14.827
74503ION    CL-47571  12.358  10.818   0.160
74504ION    CL-47572  22.624  18.180  10.625
74505ION    CL-47573  32.187  26.216  10.618
74506ION    CL-47574  34.156   5.653  14.785
74507ION    CL-47575   9.816  24.464  13.395
74508ION    CL-47576   4.102  27.615   2.862
74509ION    CL-47577  20.314  18.590   1.067
74510ION    CL-47578  14.187   5.651  13.346
74511ION    CL-47579  32.854  16.636  13.256
74512ION    CL-47580  18.297  16.023  13.043
74513ION    CL-47581  40.233  19.493  12.964
74514ION    CL-47582  25.185  27.861  13.395
74515ION    CL-47583  14.915  33.387  12.542
74516ION    CL-47584  37.553  22.631  10.498
74517ION    CL-47585  29.718  41.009   1.480
74518ION    CL-47586  23.660  27.174  14.722
74519ION    CL-47587  12.754  35.547   2.711
74520ION    CL-47588  24.767   9.742  12.485
74521ION    CL-47589  40.584  43.971  14.206
74522ION    CL-47590  14.406  42.673   4.491
74523ION    CL-47591  32.113  16.669   2.827
74524ION    CL-47592  36.841  21.085   3.469
74525ION    CL-47593  26.250   7.362   2.582
74526ION    CL-47594  12.210  32.985  14.723
74527ION    CL-47595  44.960  36.324   1.917
74528ION    CL-47596  39.507  10.249   1.375
74529ION    CL-47597  38.930  26.154   4.234
74530ION    CL-47598  14.396  29.762  12.545
74531ION    CL-47599  24.726   4.538  10.631
74532ION    CL-47600   1.234  36.560  14.578
74533ION    CL-47601  11.768  44.344   3.320
74534ION    CL-47602  44.848  43.873  14.835
74535ION    CL-47603  36.518  32.881   2.116
74536ION    CL-47604  33.481  21.753   4.088
74537ION    CL-47605  27.958  22.145   2.246
74538ION    CL-47606  12.076  23.773   0.039
74539ION    CL-47607  38.808   1.968   4.659
74540ION    CL-47608  18.490  33.445   0.750
74541ION    CL-47609  23.195   6.199   3.340
74542ION    CL-47610   1.716  38.639  13.791
74543ION    CL-47611  43.516  37.034   1.056
74544ION    CL-47612   1.407  24.349  12.860
74545ION    CL-47613  14.428  26.486   3.621
74546ION    CL-47614  22.676  29.020   1.686
74547ION    CL-47615  26.524  27.045  11.371
74548ION    CL-47616  38.885  41.017  13.441
74549ION    CL-47617  18.621  17.517   2.729
74550ION    CL-47618  39.001  18.598  14.539
74551ION    CL-47619  16.192  22.235   2.808
74552ION    CL-47620   1.199  20.236  11.103
74553ION    CL-47621  34.576  15.379  14.473
74554ION    CL-47622  14.936  21.107  10.883
74555ION    CL-47623  35.136  22.311  14.535
74556ION    CL-47624  29.649  41.763  14.910
74557ION    CL-47625  36.182  26.997  14.542
74558ION    CL-47626   2.266  27.265  12.358
74559ION    CL-47627  43.256  10.341  14.326
74560ION    CL-47628  24.523  16.178  10.942
74561ION    CL-47629   9.449   4.790   2.806
74562ION    CL-47630   9.344  17.380  11.084
74563ION    CL-47631  17.697   6.461  12.960
74564ION    CL-47632  12.156  13.664   2.973
74565ION    CL-47633  36.864  22.777  10.061
74566ION    CL-47634  43.508   3.235   0.402
74567ION    CL-47635  38.486  18.788  12.213
74568ION    CL-47636  13.262  17.819   3.668
74569ION    CL-47637  43.982  26.579   3.238
74570ION    CL-47638   1.488  30.327   4.082
74571ION    CL-47639  27.121   8.760  10.701
74572ION    CL-47640  38.411   2.838  14.405
74573ION    CL-47641  38.815   9.157  12.081
74574ION    CL-47642   3.657  37.941  11.742
74575ION    CL-47643  22.118  31.530   2.330
74576ION    CL-47644  18.490   0.946   4.004
74577ION    CL-47645  21.230   1.031  11.936
74578ION    CL-47646  40.311  28.467  13.004
74579ION    CL-47647  35.389  43.421  10.875
74580ION    CL-47648  25.758  19.106   1.586
74581ION    CL-47649  10.445  11.237  10.242
74582ION    CL-47650  18.007  32.654   1.839
74583ION    CL-47651  41.631  27.048   1.683
74584ION    CL-47652  17.363  43.767   3.315
74585ION    CL-47653  39.610   3.291   2.389
74586ION    CL-47654  29.164  33.933  14.116
74587ION    CL-47655   4.990  29.452   2.719
74588ION    CL-47656  41.283  39.833   2.809
74589ION    CL-47657   9.971  43.101   4.156
74590ION    CL-47658  35.487  40.448  13.449
74591ION    CL-47659  26.475  22.589   4.756
74592ION    CL-47660   1.641  15.264  12.849
74593ION    CL-47661  35.598  10.494   0.340
74594ION    CL-47662   0.419  21.574   4.996
74595ION    CL-47663  42.141   7.992  13.581
74596ION    CL-47664  44.292  36.112   2.936
74597ION    CL-47665  31.590  15.857  13.959
74598ION    CL-47666   0.222  13.829   1.410
74599ION    CL-47667  25.700  16.703  10.833
74600ION    CL-47668   2.563  31.228  11.090
74601ION    CL-47669   1.117  21.724  13.342
74602ION    CL-47670  40.457  36.615   3.656
74603ION    CL-47671  27.884  20.990  11.612
74604ION    CL-47672  38.342  12.882   0.737
74605ION    CL-47673  43.883   7.836   3.350
74606ION    CL-47674  37.689   5.223   2.581
74607ION    CL-47675  29.185  36.087   0.056
74608ION    CL-47676  25.138  18.423   0.193
74609ION    CL-47677  30.825   0.449  13.355
74610ION    CL-47678   3.187  27.926   3.118
74611ION    CL-47679  18.919   0.730   0.713
74612ION    CL-47680  36.996  11.932  12.497
74613ION    CL-47681  29.361  13.415   2.417
74614ION    CL-47682  32.815  19.008   0.828
74615ION    CL-47683  41.449   8.806  12.696
74616ION    CL-47684  26.022  31.461   1.771
74617ION    CL-47685  27.293  11.013  13.963
74618ION    CL-47686  12.641  21.395   2.011
74619ION    CL-47687  42.288   8.926   3.338
74620ION    CL-47688   9.592   0.502  14.275
74621ION    CL-47689  41.385   8.607   4.926
74622ION    CL-47690   7.954  26.287   0.925
74623ION    CL-47691   3.507   2.946   4.949
74624ION    CL-47692  40.350  24.202   0.618
74625ION    CL-47693  18.330  30.603  12.293
74626ION    CL-47694  44.349   8.862  12.450
74627ION    CL-47695  38.100  37.406  11.397
74628ION    CL-47696   1.477  43.941  13.794
74629ION    CL-47697  40.530  11.200  12.482
74630ION    CL-47698  14.634   8.660  14.734
74631ION    CL-47699   0.358  35.412   0.228
74632ION    CL-47700  41.051  15.965  13.033
74633ION    CL-47701  13.171  18.151  12.878
74634ION    CL-47702  35.882  35.889  13.916
74635ION    CL-47703  33.308  28.193  14.786
74636ION    CL-47704  38.009  14.395   2.609
74637ION    CL-47705  18.355  11.047  10.241
74638ION    CL-47706  28.560  41.870  11.983
74639ION    CL-47707  12.865  22.284   2.410
74640ION    CL-47708   3.926  31.966  13.250
74641ION    CL-47709  18.023  35.784  13.435
74642ION    CL-47710  21.141  36.221   0.323
74643ION    CL-47711  35.162  10.893   3.121
74644ION    CL-47712   3.356   3.732   4.768
74645ION    CL-47713   7.823   0.566   4.814
74646ION    CL-47714  22.790  22.164  14.840
74647ION    CL-47715  10.276  13.806  12.418
74648ION    CL-47716  35.065  14.647   1.825
74649ION    CL-47717   4.329  44.502   2.105
74650ION    CL-47718  31.186  37.488   0.839
74651ION    CL-47719  16.067  28.629   1.276
74652ION    CL-47720  10.312  44.813  14.194
74653ION    CL-47721   4.947  23.307   0.716
74654ION    CL-47722  31.021  12.177   3.345
74655ION    CL-47723  42.394  44.766   0.442
74656ION    CL-47724  14.004  19.708  12.361
74657ION    CL-47725  20.033  12.529  11.823
74658ION    CL-47726  31.601  12.838  11.971
74659ION    CL-47727  35.445   2.812   0.793
74660ION    CL-47728  15.378   2.303  12.403
74661ION    CL-47729  18.190  39.069  11.991
74662ION    CL-47730  40.666  32.417   4.790
74663ION    CL-47731  39.861   8.806  10.490
74664ION    CL-47732  26.510  12.912  10.292
74665ION    CL-47733  18.079  37.447  12.253
74666ION    CL-47734  36.193  11.281   0.175
74667ION    CL-47735   7.284  43.756  11.180
74668ION    CL-47736  24.189   4.361   2.833
74669ION    CL-47737  36.551  15.159  12.859
74670ION    CL-47738   3.270  31.905  12.669
74671ION    CL-47739   5.252  22.342   3.606
74672ION    CL-47740  21.728  28.479   0.856
74673ION    CL-47741  35.139  25.717  12.033
74674ION    CL-47742  39.182  32.969  11.038
74675ION    CL-47743  31.098  33.077  12.644
74676ION    CL-47744  35.873  38.210  10.801
74677ION    CL-47745   1.111  16.550   2.919
74678ION    CL-47746   7.252   8.661  14.882
74679ION    CL-47747   7.485   8.861  10.313
74680ION    CL-47748  31.796  19.008   3.328
74681ION    CL-47749  29.865  13.081   3.019
74682ION    CL-47750  32.878   9.541  14.118
74683ION    CL-47751  15.123  28.210  11.677
74684ION    CL-47752   6.157  31.457   2.659
74685ION    CL-47753  42.627  20.577   5.105
74686ION    CL-47754  35.900  39.221   4.730
74687ION    CL-47755  35.175   7.813  13.150
74688ION    CL-47756  24.860  10.201  14.151
74689ION    CL-47757  16.348  26.375  12.997
74690ION    CL-47758   0.067  41.725   1.226
74691ION    CL-47759  41.843  17.562  13.009
74692ION    CL-47760  21.183  14.940   9.780
74693ION    CL-47761  14.393  38.442  13.070
74694ION    CL-47762  14.404  15.307   1.955
74695ION    CL-47763  13.606  25.220   9.945
74696ION    CL-47764  14.028  12.599   1.848
74697ION    CL-47765  31.236   0.189  10.414
74698ION    CL-47766  23.633  23.026   1.947
74699ION    CL-47767   4.361  19.034  12.789
74700ION    CL-47768   0.946  16.549  14.950
74701ION    CL-47769  39.634  42.226   0.062
74702ION    CL-47770  37.318  11.759   1.925
74703ION    CL-47771  19.180  26.751  13.956
74704ION    CL-47772  13.263  30.515  13.245
74705ION    CL-47773  36.485  22.057  12.946
74706ION    CL-47774  25.572   0.441   3.975
74707ION    CL-47775  43.044  21.199  14.478
74708ION    CL-47776   8.303  14.190  12.834
74709ION    CL-47777   4.239  25.607  12.103
74710ION    CL-47778   2.310   9.251   3.213
74711ION    CL-47779   7.440  32.084   3.367
74712ION    CL-47780   8.706   9.420  12.551
74713ION    CL-47781   4.846  21.739  11.043
74714ION    CL-47782  13.725  25.021  13.811
74715ION    CL-47783   5.134  42.297   0.884
74716ION    CL-47784  14.353   7.005  14.302
74717ION    CL-47785  20.775  28.607   4.519
74718ION    CL-47786  18.661  14.486  10.808
74719ION    CL-47787  12.605  22.402   4.324
74720ION    CL-47788   9.432  31.030   0.482
74721ION    CL-47789  38.256  39.269  14.740
74722ION    CL-47790  44.328  35.727   1.401
74723ION    CL-47791  44.188  41.197  12.154
74724ION    CL-47792  34.631  17.725   3.683
74725ION    CL-47793   9.457  44.167  11.648
74726ION    CL-47794  25.094  14.780   0.039
74727ION    CL-47795  10.039   2.164   3.824
74728ION    CL-47796   1.814   2.874  11.086
74729ION    CL-47797  37.175  28.980  14.106
74730ION    CL-47798  35.078  42.978   2.860
74731ION    CL-47799  32.074   3.179   9.901
74732ION    CL-47800   1.097  20.094   1.270
74733ION    CL-47801  32.047  21.641  11.490
74734ION    CL-47802  23.437  26.902   2.568
74735ION    CL-47803  22.299  16.417  13.746
74736ION    CL-47804  37.242  42.229   5.132
74737ION    CL-47805  35.062  14.202  12.543
74738ION    CL-47806   0.729  36.600   3.392
74739ION    CL-47807  22.644   9.144  12.441
74740ION    CL-47808   0.533  18.094  13.479
74741ION    CL-47809  12.741  16.179   5.416
74742ION    CL-47810  29.227  23.932  11.993
74743ION    CL-47811  36.230  39.728   2.077
74744ION    CL-47812  36.727  28.565   2.762
74745ION    CL-47813  12.858  43.710  11.894
74746ION    CL-47814   6.870  36.496  14.504
74747ION    CL-47815   1.743  12.185   3.291
74748ION    CL-47816   7.308  24.531   2.336
74749ION    CL-47817   3.067  33.211  13.128
74750ION    CL-47818  22.358  37.420   0.657
74751ION    CL-47819  35.671   1.337   3.338
74752ION    CL-47820  29.401  22.586   4.920
74753ION    CL-47821  12.872  30.706  12.020
74754ION    CL-47822  11.447  32.530  14.574
74755ION    CL-47823  12.667  32.530  10.912
74756ION    CL-47824  36.864  22.924   1.730
74757ION    CL-47825  25.879  36.159  10.393
74758ION    CL-47826   8.268  42.380  10.710
74759ION    CL-47827  27.226  25.655  11.267
74760ION    CL-47828  33.014  10.734   1.492
74761ION    CL-47829  41.287  24.323   5.047
74762ION    CL-47830  44.627  24.962   4.244
74763ION    CL-47831  18.659  16.938  10.915
74764ION    CL-47832  37.729  16.714   4.389
74765ION    CL-47833  43.353  42.291   0.611
74766ION    CL-47834  38.235   0.402   4.069
74767ION    CL-47835  37.086  14.766   2.784
74768ION    CL-47836  36.789  41.077   1.376
74769ION    CL-47837  10.739  20.171   2.038
74770ION    CL-47838  20.492  32.746  10.490
74771ION    CL-47839  36.490   7.878  11.042
74772ION    CL-47840  15.691  19.063   3.544
74773ION    CL-47841   6.361  33.145   2.234
74774ION    CL-47842  36.439   7.711   0.498
74775ION    CL-47843  12.243  12.401  12.888
74776ION    CL-47844  16.229  39.388   2.083
74777ION    CL-47845   3.923  29.771  11.051
74778ION    CL-47846  12.098  11.625   1.743
74779ION    CL-47847  18.440  21.608  14.604
74780ION    CL-47848  41.258  27.647   0.341
74781ION    CL-47849  38.848  16.681   1.205
74782ION    CL-47850  10.429  27.730  12.916
74783ION    CL-47851  14.315  29.348  10.554
74784ION    CL-47852  35.035  17.158   1.813
74785ION    CL-47853  38.623   9.693   3.669
74786ION    CL-47854  33.963  27.418   1.668
74787ION    CL-47855  25.462   1.120   3.249
74788ION    CL-47856  38.843  34.354  11.941
74789ION    CL-47857  19.605  28.752   2.491
74790ION    CL-47858  44.743  12.710   1.664
74791ION    CL-47859  13.785  20.106  10.924
74792ION    CL-47860   3.922   1.800   4.102
74793ION    CL-47861   4.994  20.291  14.309
74794ION    CL-47862  33.155  37.268   3.654
74795ION    CL-47863  36.441  31.126  14.834
74796ION    CL-47864  43.194   8.121   5.057
74797ION    CL-47865   5.901  12.016  14.439
74798ION    CL-47866  38.231  20.094   0.669
74799ION    CL-47867  13.284  27.727  12.420
74800ION    CL-47868  27.981  24.863  14.376
74801ION    CL-47869  42.988  23.778  12.802
74802ION    CL-47870  22.407  42.758   2.843
74803ION    CL-47871  36.618  42.056  12.085
74804ION    CL-47872  39.307  21.164   0.004
74805ION    CL-47873   4.971  22.426  14.278
74806ION    CL-47874  35.427  21.236   1.022
74807ION    CL-47875   0.530  29.452   2.186
74808ION    CL-47876  32.546  35.846   0.491
74809ION    CL-47877  25.020  34.337   2.424
74810ION    CL-47878  38.575   7.727  10.414
74811ION    CL-47879  27.206   8.011   2.732
74812ION    CL-47880  41.077   3.357  14.623
74813ION    CL-47881  16.383   3.621   4.302
74814ION    CL-47882  17.553  25.126  14.564
74815ION    CL-47883  32.057   6.965  13.573
74816ION    CL-47884  31.685  34.453   2.034
74817ION    CL-47885  32.215  16.662  11.509
74818ION    CL-47886  21.734  28.573  11.129
74819ION    CL-47887  40.304  31.591   0.379
74820ION    CL-47888  39.120  42.965   2.622
74821ION    CL-47889  28.661  25.660   2.814
74822ION    CL-47890  27.073  35.529  11.059
74823ION    CL-47891   6.728   4.958   2.007
74824ION    CL-47892   3.038  11.087   3.451
74825ION    CL-47893   4.836  38.588   0.669
74826ION    CL-47894  25.594  29.539  13.624
74827ION    CL-47895  42.699  24.986   1.802
74828ION    CL-47896  33.148  42.967  14.997
74829ION    CL-47897  32.920  34.192   4.076
74830ION    CL-47898  29.814  17.016  12.457
74831ION    CL-47899  32.682  19.170  10.746
74832ION    CL-47900  31.909  37.389   3.001
74833ION    CL-47901   5.145  28.641  13.325
74834ION    CL-47902   3.708  14.279   4.062
74835ION    CL-47903   2.490  21.587  14.019
74836ION    CL-47904   1.762   9.934  13.964
74837ION    CL-47905  25.978  38.203  13.627
74838ION    CL-47906   0.291  41.385  13.047
74839ION    CL-47907   7.723  13.382  14.445
74840ION    CL-47908  35.826  23.613   3.182
74841ION    CL-47909  23.690   5.185   4.181
74842ION    CL-47910   6.302  41.765  13.988
74843ION    CL-47911  44.904  38.493   0.911
74844ION    CL-47912  32.207   4.287  11.153
74845ION    CL-47913  16.547  23.228   2.858
74846ION    CL-47914  16.042   2.012  13.857
74847ION    CL-47915  44.402   7.392  11.533
74848ION    CL-47916  24.444   5.594  14.143
74849ION    CL-47917   0.971   2.072  13.256
74850ION    CL-47918  27.135   8.927  13.910
74851ION    CL-47919  44.948  33.856   2.165
74852ION    CL-47920  32.982  25.383   4.376
74853ION    CL-47921  11.276  33.519  12.754
74854ION    CL-47922  29.925  31.073   4.388
74855ION    CL-47923  11.220  12.431  11.536
74856ION    CL-47924  25.506  31.757   4.040
74857ION    CL-47925  42.609   9.656   4.056
74858ION    CL-47926  27.364  38.993   4.152
74859ION    CL-47927  31.418   8.877  10.295
74860ION    CL-47928  26.675  15.845   2.191
74861ION    CL-47929   4.908  32.794   2.464
74862ION    CL-47930  27.394  20.129   1.770
74863ION    CL-47931   1.592  38.243   3.215
74864ION    CL-47932  37.516  30.019   1.309
74865ION    CL-47933  20.574  43.700  13.242
74866ION    CL-47934  37.876   1.975   1.740
74867ION    CL-47935  30.359  12.591  11.642
74868ION    CL-47936  14.655  18.351   1.431
74869ION    CL-47937  29.223  15.373   4.551
74870ION    CL-47938   4.116  20.983  12.051
74871ION    CL-47939  19.884   0.322   0.950
74872ION    CL-47940  13.049  29.826   2.372
74873ION    CL-47941  14.348   3.011   0.745
74874ION    CL-47942  16.612   0.783   2.690
74875ION    CL-47943  37.225  26.050   0.495
74876ION    CL-47944   5.226   9.412  14.044
74877ION    CL-47945  11.938  42.298   4.153
74878ION    CL-47946  31.373  34.295   2.850
74879ION    CL-47947   8.374  29.433   1.615
74880ION    CL-47948  18.967  14.778   0.798
74881ION    CL-47949  12.094  17.906  12.513
74882ION    CL-47950  29.463   1.453  10.738
74883ION    CL-47951  21.807   7.631  11.117
74884ION    CL-47952  29.147  10.628   1.668
74885ION    CL-47953  19.503  20.256  12.973
74886ION    CL-47954  15.513  22.874  11.450
74887ION    CL-47955  33.397  31.453  13.495
74888ION    CL-47956   2.761  36.482  11.420
74889ION    CL-47957  32.050  43.914  13.565
74890ION    CL-47958  44.805  40.677   4.050
74891ION    CL-47959  12.526  27.423   1.319
74892ION    CL-47960   5.408  36.046  11.369
74893ION    CL-47961  13.501  21.264  13.813
74894ION    CL-47962   1.428   2.297  14.430
74895ION    CL-47963  15.337  10.113   3.738
74896ION    CL-47964  13.043   3.960   2.929
74897ION    CL-47965   2.877  36.570   2.605
74898ION    CL-47966   3.263  35.385  11.988
74899ION    CL-47967  32.723  37.607  11.907
74900ION    CL-47968   8.740  14.129   0.540
74901ION    CL-47969  43.808  21.718   0.777
74902ION    CL-47970  13.598  27.578   4.562
74903ION    CL-47971  34.006  37.550   2.681
74904ION    CL-47972  26.106  20.783   2.558
74905ION    CL-47973   9.837  15.640   2.223
74906ION    CL-47974  11.377  16.125   3.256
74907ION    CL-47975  34.781  10.464  14.763
74908ION    CL-47976  25.150   0.350   1.837
74909ION    CL-47977  11.732  43.453   2.806
74910ION    CL-47978  33.684  19.743  12.782
74911ION    CL-47979  17.864  10.652  12.649
74912ION    CL-47980  40.965  11.273   0.809
74913ION    CL-47981  38.416  14.606  12.178
74914ION    CL-47982  25.438  28.660   3.312
74915ION    CL-47983  17.603  24.673   4.046
74916ION    CL-47984  28.973  17.428   2.488
74917ION    CL-47985   8.179  43.719  14.057
74918ION    CL-47986  19.363  29.625   2.915
74919ION    CL-47987  33.039   5.061   0.342
74920ION    CL-47988  27.195   2.440  13.832
74921ION    CL-47989   1.668  29.030  14.873
74922ION    CL-47990  29.451   5.842   2.409
74923ION    CL-47991  19.376  23.738  11.049
74924ION    CL-47992  23.144   6.099   1.247
74925ION    CL-47993   0.606  25.718  14.177
74926ION    CL-47994   0.382   3.018   2.341
74927ION    CL-47995  20.658  35.115   3.514
74928ION    CL-47996  36.652  28.719  11.840
74929ION    CL-47997  23.966  33.623  13.491
74930ION    CL-47998  42.267   8.686  11.184
74931ION    CL-47999  13.600  29.381  12.076
74932ION    CL-48000  10.035  36.105   2.841
74933ION    CL-48001  36.449  31.713   4.859
74934ION    CL-48002  35.662  42.178  12.111
74935ION    CL-48003  10.728  18.717   2.787
74936ION    CL-48004  20.649   5.871  14.767
74937ION    CL-48005  36.956  38.143  11.889
74938ION    CL-48006   9.103  21.263  13.428
74939ION    CL-48007  38.851  36.148   2.746
74940ION    CL-48008  32.687  21.271  14.772
74941ION    CL-48009  38.591   6.833  12.924
74942ION    CL-48010   4.813  18.719   3.625
74943ION    CL-48011  36.914   8.089   1.140
74944ION    CL-48012  41.200  37.997   0.267
74945ION    CL-48013  25.653  44.823   2.632
74946ION    CL-48014  19.759  43.615   2.695
74947ION    CL-48015   4.821   8.932  13.409
74948ION    CL-48016  30.491   7.594  12.578
74949ION    CL-48017  33.257   9.221   3.196
74950ION    CL-48018   6.366  35.889   4.033
74951ION    CL-48019  44.511  33.181   4.162
74952ION    CL-48020  26.713  12.905  13.900
74953ION    CL-48021  21.269  33.830  13.177
74954ION    CL-48022  19.660  16.096   0.961
74955ION    CL-48023   2.137  32.521   4.214
74956ION    CL-48024  32.188   0.406   5.013
74957ION    CL-48025  29.999  23.818   2.221
74958ION    CL-48026  41.842  39.403  14.805
74959ION    CL-48027  31.477   6.062  13.981
74960ION    CL-48028   0.941  30.920  13.070
74961ION    CL-48029   6.766  44.107  14.985
74962ION    CL-48030  31.827  35.221   1.564
74963ION    CL-48031  40.828  14.559   3.836
74964ION    CL-48032   6.934  22.256  11.179
74965ION    CL-48033  34.804  24.958   1.475
74966ION    CL-48034  34.871   6.336  12.431
74967ION    CL-48035  37.621  33.006   0.626
74968ION    CL-48036  20.511  43.807  10.257
74969ION    CL-48037  43.583  33.754   2.135
74970ION    CL-48038  13.645  37.221   2.585
74971ION    CL-48039  26.199  29.680   0.529
74972ION    CL-48040  21.149   7.918  14.848
74973ION    CL-48041  39.725  14.712   1.350
74974ION    CL-48042  11.813  34.168   4.755
74975ION    CL-48043  35.130  24.047   4.875
74976ION    CL-48044   9.672  20.380   0.094
74977ION    CL-48045   5.250  23.164   4.176
74978ION    CL-48046  35.478  11.737   2.132
74979ION    CL-48047  13.804  33.451  13.367
74980ION    CL-48048   6.661  43.110  10.359
74981ION    CL-48049  41.931  44.740  12.372
74982ION    CL-48050  21.113  21.215  11.997
74983ION    CL-48051   2.815  25.993   0.745
74984ION    CL-48052  16.045  32.164   0.170
74985ION    CL-48053  24.358  39.539  12.282
74986ION    CL-48054  19.185  14.295  14.788
74987ION    CL-48055  19.757  31.613   1.423
74988ION    CL-48056  15.712  24.873  13.601
74989ION    CL-48057  21.327   0.216   3.809
74990ION    CL-48058  44.434  27.996   4.587
74991ION    CL-48059  16.890   0.433  13.093
74992ION    CL-48060  10.280  28.418   4.324
74993ION    CL-48061  39.581  35.128   4.779
74994ION    CL-48062  16.173  32.178   1.816
74995ION    CL-48063   5.591  32.247  14.443
74996ION    CL-48064  34.606  34.709   4.492
74997ION    CL-48065  39.644   4.388   1.040
74998ION    CL-48066   1.093  27.850   0.384
74999ION    CL-48067  20.234  19.593   0.189
75000ION    CL-48068  37.258  15.029   1.821
75001ION    CL-48069   7.346  44.597   3.434
75002ION    CL-48070  14.188  38.621  10.654
75003ION    CL-48071  37.555   4.341  11.804
75004ION    CL-48072  28.857  11.457  11.467
75005ION    CL-48073  42.202   8.407   0.267
75006ION    CL-48074  27.302  28.667   0.495
75007ION    CL-48075  42.002  40.605  11.620
75008ION    CL-48076   0.021  14.909  12.118
75009ION    CL-48077  20.604  40.506   4.876
75010ION    CL-48078  24.650   5.858   4.939
75011ION    CL-48079  30.998  31.511   1.491
75012ION    CL-48080  10.864  18.055   4.840
75013ION    CL-48081   6.637   6.490   1.103
75014ION    CL-48082   9.148  23.287   3.659
75015ION    CL-48083  19.683   3.461   0.437
75016ION    CL-48084   3.722  10.330   1.406
75017ION    CL-48085  19.802  19.128   3.324
75018ION    CL-48086  41.027   4.696   1.836
75019ION    CL-48087  34.062  34.980   0.672
75020ION    CL-48088  39.274   6.321   3.766
75021ION    CL-48089  28.452  10.644   2.387
75022ION    CL-48090   4.421   3.620  13.302
75023ION    CL-48091   3.179  15.385   2.010
75024ION    CL-48092  30.859  14.425  10.333
75025ION    CL-48093  30.685  38.539  13.113
75026ION    CL-48094  44.191   2.380  12.441
75027ION    CL-48095  12.282  10.846  10.651
75028ION    CL-48096  16.380  34.305   0.016
75029ION    CL-48097  21.642  28.475   3.985
75030ION    CL-48098  20.424  37.740   1.852
75031ION    CL-48099  21.248  13.085   4.306
75032ION    CL-48100  13.634   7.917  12.260
75033ION    CL-48101  33.114   0.704  12.070
75034ION    CL-48102  35.564  16.591   4.184
75035ION    CL-48103  23.289   0.138   0.260
75036ION    CL-48104  24.092   1.686   3.942
75037ION    CL-48105  32.136  43.729   3.356
75038ION    CL-48106   2.334  11.776   0.759
75039ION    CL-48107  40.375  12.933  14.816
75040ION    CL-48108  13.085  31.671  12.449
75041ION    CL-48109  16.860  13.827   1.705
75042ION    CL-48110  21.040  32.925  12.733
75043ION    CL-48111  35.061  27.185   2.673
75044ION    CL-48112  23.710  28.012   1.828
75045ION    CL-48113   6.309  12.900  12.397
75046ION    CL-48114  13.352   4.935  11.253
75047ION    CL-48115  19.549   3.783   2.689
75048ION    CL-48116  17.746  44.292  12.117
75049ION    CL-48117  28.062   6.181   4.071
75050ION    CL-48118  17.512  13.613   0.259
75051ION    CL-48119  42.004  15.572   0.043
75052ION    CL-48120  31.521  37.858   4.409
75053ION    CL-48121  28.763  40.285  14.339
75054ION    CL-48122  40.346  27.116   4.940
75055ION    CL-48123  41.331   6.998  14.051
75056ION    CL-48124  10.288  20.106  13.400
75057ION    CL-48125  22.821  31.940   3.105
75058ION    CL-48126  12.599  40.408   1.821
75059ION    CL-48127   5.752  39.808  12.973
75060ION    CL-48128  39.381  10.200   3.169
75061ION    CL-48129  17.844   6.357  12.119
75062ION    CL-48130  44.322   8.726  14.713
75063ION    CL-48131  14.442   4.219   1.663
75064ION    CL-48132  41.091  21.248   2.386
75065ION    CL-48133  34.039  13.411   5.035
75066ION    CL-48134  10.211  11.565   0.761
75067ION    CL-48135   6.337   8.234  11.859
75068ION    CL-48136  28.517  27.569  12.543
75069ION    CL-48137   8.695  19.558   3.811
75070ION    CL-48138  25.653   5.473   1.756
75071ION    CL-48139  30.405  39.832  12.940
75072ION    CL-48140   3.434  22.103   2.314
75073ION    CL-48141   8.800  22.215   1.376
75074ION    CL-48142   4.684  35.163   0.431
75075ION    CL-48143  11.166  13.685  10.801
75076ION    CL-48144  13.300  38.656  13.028
75077ION    CL-48145  39.012  33.579   1.815
75078ION    CL-48146  14.959  36.451  10.929
75079ION    CL-48147   8.065  35.261  13.314
75080ION    CL-48148  43.363   8.705   3.341
75081ION    CL-48149  12.618  16.623   4.013
75082ION    CL-48150   0.685  29.286   4.520
75083ION    CL-48151   2.874  29.836  11.891
75084ION    CL-48152  44.277  40.951  13.865
75085ION    CL-48153  23.100  22.003   3.619
75086ION    CL-48154   9.899  30.024  10.976
75087ION    CL-48155  10.763  44.855  13.302
75088ION    CL-48156  14.791  30.500   0.942
75089ION    CL-48157  20.096  38.829  10.737
75090ION    CL-48158  42.400   3.059  14.462
75091ION    CL-48159  32.025  42.549   1.310
75092ION    CL-48160  43.911  43.215  13.554
75093ION    CL-48161  23.055   7.426  14.023
75094ION    CL-48162  38.123  14.776   3.391
75095ION    CL-48163  29.848  12.667  10.327
75096ION    CL-48164  23.064  43.394  10.296
75097ION    CL-48165  36.978  19.085   3.766
75098ION    CL-48166  21.328  38.556   4.091
75099ION    CL-48167  30.898  18.065   4.116
75100ION    CL-48168   7.854   0.232  13.413
75101ION    CL-48169  39.580  44.868   5.057
75102ION    CL-48170  38.400   8.752   1.716
75103ION    CL-48171  29.341  32.040   5.009
75104ION    CL-48172  17.586   0.971  13.363
75105ION    CL-48173  29.419  36.433   4.431
75106ION    CL-48174  27.063  40.595   1.848
75107ION    CL-48175  20.298  28.490   1.641
75108ION    CL-48176  16.484  34.807  14.496
75109ION    CL-48177  40.729  35.948   5.117
75110ION    CL-48178   6.774  10.308   3.885
75111ION    CL-48179  16.676  18.289  11.046
75112ION    CL-48180  27.196  33.612   4.435
75113ION    CL-48181   1.998  24.159  14.376
75114ION    CL-48182  14.682  21.732  14.752
75115ION    CL-48183  38.915  11.222   2.679
75116ION    CL-48184  34.169  43.938   4.350
75117ION    CL-48185   8.671  12.541  13.027
75118ION    CL-48186  12.479  14.509   4.460
75119ION    CL-48187  31.686  41.291   3.899
75120ION    CL-48188  37.914  14.785   4.286
75121ION    CL-48189  24.250  39.219  10.984
75122ION    CL-48190   8.190  11.524   4.170
75123ION    CL-48191   8.832   9.815   2.447
75124ION    CL-48192   8.278  11.362  11.718
75125ION    CL-48193  16.083  15.251  13.553
75126ION    CL-48194   5.697  32.737  12.439
75127ION    CL-48195   5.032  21.537  14.089
75128ION    CL-48196  27.304  27.960   4.172
75129ION    CL-48197  23.250  10.305   0.629
75130ION    CL-48198  36.214  39.186  13.832
75131ION    CL-48199  42.514   1.476  14.154
75132ION    CL-48200  37.828  35.782   0.319
75133ION    CL-48201  10.773  20.043  10.898
75134ION    CL-48202  23.664  38.077   3.329
75135ION    CL-48203   6.261  40.424  14.977
75136ION    CL-48204   1.474  41.295  11.563
75137ION    CL-48205  22.689  24.819  12.520
75138ION    CL-48206   8.730  22.660   0.246
75139ION    CL-48207  20.195  32.428   0.107
75140ION    CL-48208  37.633  31.645   0.501
75141ION    CL-48209  16.989  18.482   0.150
75142ION    CL-48210  30.754  37.135  12.544
75143ION    CL-48211  13.718   4.866  10.424
75144ION    CL-48212  33.486   3.741   3.751
75145ION    CL-48213  10.908  22.715  14.248
75146ION    CL-48214  40.467  23.859   1.576
75147ION    CL-48215  37.765  16.207   0.062
75148ION    CL-48216  27.050  26.148  14.402
75149ION    CL-48217  19.754  18.258  13.767
75150ION    CL-48218  11.200  39.682   2.753
75151ION    CL-48219  39.212   2.874   4.533
75152ION    CL-48220  36.979  44.716   4.952
75153ION    CL-48221  41.891  41.198  13.412
75154ION    CL-48222  20.834  33.814   1.670
75155ION    CL-48223  41.296  27.036  13.618
75156ION    CL-48224  16.515  12.039   2.734
75157ION    CL-48225  38.729  41.489   3.608
75158ION    CL-48226  13.815  22.673  13.410
75159ION    CL-48227   4.806  31.625   2.873
75160ION    CL-48228   5.276  11.156   2.104
75161ION    CL-48229  25.980   2.554   2.639
75162ION    CL-48230   1.000  26.894   3.961
75163ION    CL-48231  37.859  36.418  11.740
75164ION    CL-48232  14.121  42.850   2.223
75165ION    CL-48233  36.239  42.041  12.834
75166ION    CL-48234   3.232  17.927   0.805
75167ION    CL-48235  15.224  27.150   0.081
75168ION    CL-48236  16.177  18.825   3.902
75169ION    CL-48237  12.338  23.961  12.067
75170ION    CL-48238  12.035  11.555   3.351
75171ION    CL-48239   5.952  22.586   1.785
75172ION    CL-48240   1.034  24.917   2.647
75173ION    CL-48241  42.749  11.653  13.176
75174ION    CL-48242  11.795  35.382   4.224
75175ION    CL-48243  19.751   1.173   3.658
75176ION    CL-48244   3.411  19.701   3.232
75177ION    CL-48245  18.034   6.076  11.236
75178ION    CL-48246  34.015  15.271  11.077
75179ION    CL-48247  38.082  12.257  12.109
75180ION    CL-48248  27.652  43.757  13.892
75181ION    CL-48249  14.682  37.362   3.251
75182ION    CL-48250  20.621   5.620  13.237
75183ION    CL-48251  27.540  14.805   1.892
75184ION    CL-48252  26.325  18.258   9.793
75185ION    CL-48253   0.553   3.733  14.911
75186ION    CL-48254   5.965  10.096   2.982
75187ION    CL-48255  43.437  34.937  14.443
75188ION    CL-48256  39.343  35.029   1.732
75189ION    CL-48257  44.753  32.380  11.352
75190ION    CL-48258  27.909  23.933  11.374
75191ION    CL-48259  20.518  34.973   0.483
75192ION    CL-48260  27.628  16.704  12.383
75193ION    CL-48261  36.095  34.841   0.323
75194ION    CL-48262   1.327  25.326   5.066
75195ION    CL-48263  37.871   7.735  13.623
75196ION    CL-48264  32.676   3.423   2.724
75197ION    CL-48265  24.515  17.101   2.426
75198ION    CL-48266  15.238   2.006   2.828
75199ION    CL-48267  24.742   0.184   3.093
75200ION    CL-48268  38.119  32.554  13.108
75201ION    CL-48269  23.210  13.636   1.958
75202ION    CL-48270  37.563  25.485  10.721
75203ION    CL-48271  26.163  35.612  11.600
75204ION    CL-48272  26.991   6.891  13.787
75205ION    CL-48273   1.421  34.108  12.584
75206ION    CL-48274   9.363  31.334   4.137
75207ION    CL-48275  12.610  19.992   0.892
75208ION    CL-48276   0.772  21.539   2.859
75209ION    CL-48277  30.627  11.484   2.926
75210ION    CL-48278   5.276   5.703   1.267
75211ION    CL-48279  27.068  38.623   0.449
75212ION    CL-48280   8.733  42.960   0.889
75213ION    CL-48281  22.228  39.528   4.059
75214ION    CL-48282  38.344  17.084   1.969
75215ION    CL-48283  30.074  36.579   3.110
75216ION    CL-48284   6.856   7.434   0.858
75217ION    CL-48285  41.803  44.538   3.395
75218ION    CL-48286  33.380  27.675  11.384
75219ION    CL-48287  43.966   0.187   4.073
75220ION    CL-48288  24.269  10.780  13.805
75221ION    CL-48289  41.709  43.092  13.493
75222ION    CL-48290  24.166  14.062   9.876
75223ION    CL-48291   8.773  32.665  10.998
75224ION    CL-48292  13.881  21.771   1.373
75225ION    CL-48293  25.584  16.801   9.523
75226ION    CL-48294  41.876   3.877  11.372
75227ION    CL-48295  36.422  20.790   1.470
75228ION    CL-48296   5.397  11.426   4.128
75229ION    CL-48297  15.842  20.693  10.975
75230ION    CL-48298  38.460  40.080   0.368
75231ION    CL-48299  27.786   9.466   3.367
75232ION    CL-48300  24.502  17.765   1.678
75233ION    CL-48301  31.189  31.971   0.623
75234ION    CL-48302  25.023  20.103  12.635
75235ION    CL-48303  43.096  41.651  10.379
75236ION    CL-48304   1.954  23.075  11.297
75237ION    CL-48305  40.435  16.466   5.204
75238ION    CL-48306   0.622  26.236   5.018
75239ION    CL-48307  21.802  11.203  10.920
75240ION    CL-48308  25.857  15.208  13.527
75241ION    CL-48309   7.479  24.907   4.298
75242ION    CL-48310  26.546  40.240   0.674
75243ION    CL-48311  15.002  33.901   2.311
75244ION    CL-48312  27.028  23.943   0.736
75245ION    CL-48313  30.757  12.835   9.944
75246ION    CL-48314  40.580  20.345  12.572
75247ION    CL-48315   0.617  21.571  14.266
75248ION    CL-48316   9.170   0.129   3.109
75249ION    CL-48317  24.905  32.056  14.781
75250ION    CL-48318   5.044  20.672   0.122
75251ION    CL-48319  39.612  24.432  10.443
75252ION    CL-48320  10.895  28.655  13.014
75253ION    CL-48321  31.367  18.304  11.097
75254ION    CL-48322  41.066  36.519   2.986
75255ION    CL-48323  42.977   4.331   2.450
75256ION    CL-48324  27.696   0.757   5.060
75257ION    CL-48325   1.983  37.862   4.100
75258ION    CL-48326  17.421  25.547   3.423
75259ION    CL-48327  35.867  40.926   0.320
75260ION    CL-48328  40.418   2.790  13.277
75261ION    CL-48329   8.543   7.157  14.092
75262ION    CL-48330  37.521  34.267  13.828
75263ION    CL-48331  14.315  28.127  14.871
75264ION    CL-48332   4.111  25.619   5.027
75265ION    CL-48333  14.677   3.196  11.570
75266ION    CL-48334  44.888  36.592  13.971
75267ION    CL-48335   9.908  32.123  12.843
75268ION    CL-48336  26.277   6.630  14.824
75269ION    CL-48337  44.256  24.507  14.972
75270ION    CL-48338   7.535   0.179   2.644
75271ION    CL-48339  32.055  13.504  13.705
75272ION    CL-48340  30.393  36.050  13.757
75273ION    CL-48341  32.533  41.553   0.866
75274ION    CL-48342  30.351   0.945   2.216
75275ION    CL-48343   8.667  33.050  14.416
75276ION    CL-48344  41.187  18.588   0.514
75277ION    CL-48345  28.761  15.540  13.764
75278ION    CL-48346  10.419  16.413  10.698
75279ION    CL-48347  14.524  39.224  12.357
75280ION    CL-48348   2.472  35.258   0.176
75281ION    CL-48349  15.079  25.709   3.553
75282ION    CL-48350  25.246   4.443   3.809
75283ION    CL-48351  36.916  27.822  10.268
75284ION    CL-48352  19.033  20.610   2.815
75285ION    CL-48353  10.741   0.569   4.194
75286ION    CL-48354  17.514  12.764  13.822
75287ION    CL-48355  10.471   4.342   0.292
75288ION    CL-48356  23.645  29.836   1.480
75289ION    CL-48357  26.568   0.326   3.834
75290ION    CL-48358   6.116  22.896   3.753
75291ION    CL-48359  40.053  40.459  13.988
75292ION    CL-48360   2.314  14.585   3.941
75293ION    CL-48361  31.977  14.749   1.755
75294ION    CL-48362  21.095   3.334  13.549
75295ION    CL-48363  26.698  14.687  13.378
75296ION    CL-48364   5.709  19.131  14.730
75297ION    CL-48365  21.192   5.408   4.062
75298ION    CL-48366  26.111  10.180  14.870
75299ION    CL-48367  10.288   8.383  13.002
75300ION    CL-48368  30.746  30.290  12.997
75301ION    CL-48369  32.803  10.422  11.771
75302ION    CL-48370  26.634   8.735   9.946
75303ION    CL-48371   0.283   5.111   3.229
75304ION    CL-48372  44.468   9.708  14.921
75305ION    CL-48373  22.771   8.578  11.208
75306ION    CL-48374  37.969  44.676   1.929
75307ION    CL-48375   9.265  23.058  14.344
75308ION    CL-48376  20.965   2.960   3.661
75309ION    CL-48377  14.343   4.818  11.202
75310ION    CL-48378  36.981  24.754   4.025
75311ION    CL-48379   1.565  36.838  11.778
75312ION    CL-48380   4.246   7.155   1.165
75313ION    CL-48381  38.953  13.871   0.901
75314ION    CL-48382   4.609  34.308  11.161
75315ION    CL-48383  42.908  10.142  10.965
75316ION    CL-48384  30.597   2.846  13.778
75317ION    CL-48385  36.543  24.981  10.012
75318ION    CL-48386  38.091  22.632  11.535
75319ION    CL-48387  25.801  19.168   3.295
75320ION    CL-48388  27.568  42.738  13.433
75321ION    CL-48389  25.653  12.901   9.892
75322ION    CL-48390   6.941  24.859   5.139
75323ION    CL-48391   9.284  37.360  10.650
75324ION    CL-48392  26.142  10.864   2.824
75325ION    CL-48393  20.575  35.261  13.196
75326ION    CL-48394  13.295  25.994  13.982
75327ION    CL-48395  16.106  19.786  12.975
75328ION    CL-48396  38.237  35.566   1.095
75329ION    CL-48397  37.282   2.668   1.330
75330ION    CL-48398  31.834  41.555   0.150
75331ION    CL-48399  40.996   4.221   4.897
75332ION    CL-48400   4.526  20.494   4.982
75333ION    CL-48401  38.135  33.011   1.909
75334ION    CL-48402   4.099  11.806   1.948
75335ION    CL-48403  21.045  18.187   2.875
75336ION    CL-48404  37.529   1.214   2.287
75337ION    CL-48405  16.549  43.994   0.989
75338ION    CL-48406  24.765  25.187  13.030
75339ION    CL-48407   3.549  26.497   0.532
75340ION    CL-48408  16.381  21.843   4.069
75341ION    CL-48409  33.059  10.912   0.457
75342ION    CL-48410  35.599  26.522  12.406
75343ION    CL-48411  25.623  19.271  10.728
75344ION    CL-48412  38.936  29.980   1.927
75345ION    CL-48413  21.708  24.478  12.453
75346ION    CL-48414  21.262   6.612  11.318
75347ION    CL-48415  13.626  23.805   3.836
75348ION    CL-48416  35.653  29.188   0.014
75349ION    CL-48417  12.577  17.264  14.049
75350ION    CL-48418  43.394  19.450  12.870
75351ION    CL-48419   6.900  40.098   9.892
75352ION    CL-48420   3.174   9.805  11.878
75353ION    CL-48421  38.236   2.008   4.020
75354ION    CL-48422   3.067  20.181  10.690
75355ION    CL-48423  27.953  36.701  14.090
75356ION    CL-48424  21.259  15.859  11.025
75357ION    CL-48425  40.546  40.765  12.915
75358ION    CL-48426  20.983  43.496  10.938
75359ION    CL-48427  36.339  21.874   3.871
75360ION    CL-48428   8.201  34.394  13.554
75361ION    CL-48429  28.669   1.068   4.311
75362ION    CL-48430  31.677  39.215  11.826
75363ION    CL-48431  36.862  16.924   4.178
75364ION    CL-48432  36.197  35.344  10.914
75365ION    CL-48433  41.014  19.933   1.267
75366ION    CL-48434  32.401  12.236  13.016
75367ION    CL-48435  21.515  33.907   4.121
75368ION    CL-48436  43.724  39.778  14.580
75369ION    CL-48437  20.950  30.295  12.629
75370ION    CL-48438   0.076  37.129   0.868
75371ION    CL-48439   8.971  14.054  12.103
75372ION    CL-48440  29.157  42.545  11.473
75373ION    CL-48441  42.733  22.116  13.402
75374ION    CL-48442  40.398  24.831   1.822
75375ION    CL-48443   5.229   8.279   2.331
75376ION    CL-48444   3.397   9.749  13.032
75377ION    CL-48445   7.753   7.741   9.832
75378ION    CL-48446  26.363   7.714   1.514
75379ION    CL-48447  23.862  24.606   5.127
75380ION    CL-48448  37.402  11.551   3.644
75381ION    CL-48449  43.596  21.973  12.901
75382ION    CL-48450  23.767   5.588   2.745
75383ION    CL-48451  14.182  23.881   5.154
75384ION    CL-48452  34.438  39.216   4.574
75385ION    CL-48453  15.353   3.300  12.333
75386ION    CL-48454  30.282  20.151  14.102
75387ION    CL-48455  40.137   8.569   0.402
75388ION    CL-48456  12.726   5.507   2.013
75389ION    CL-48457  28.010  28.278  13.033
75390ION    CL-48458   3.863  22.702  14.937
75391ION    CL-48459  13.419  21.967   3.940
75392ION    CL-48460  38.409  31.021  13.158
75393ION    CL-48461  34.570  22.808  12.018
75394ION    CL-48462  43.475   9.667   0.031
75395ION    CL-48463  36.940   3.389  10.300
75396ION    CL-48464  28.072  41.990  14.410
75397ION    CL-48465   9.565  20.065  14.145
75398ION    CL-48466  31.391  42.489   2.951
75399ION    CL-48467  44.850   3.586   0.607
75400ION    CL-48468  35.467  14.034   3.359
75401ION    CL-48469   5.434   3.372   0.009
75402ION    CL-48470   1.918  24.976  13.448
75403ION    CL-48471   5.353   8.230   1.289
75404ION    CL-48472  20.040  21.981   1.501
75405ION    CL-48473   3.311   2.261   2.007
75406ION    CL-48474  29.576  33.366  11.777
75407ION    CL-48475  15.603  27.191   4.878
75408ION    CL-48476  40.956  42.696  13.744
75409ION    CL-48477  31.682  38.883  12.769
75410ION    CL-48478  12.596  26.430   3.544
75411ION    CL-48479  33.303  26.607   3.632
75412ION    CL-48480  38.010  11.179   1.983
75413ION    CL-48481  31.807  34.255  14.402
75414ION    CL-48482  39.013   5.517   1.452
75415ION    CL-48483   6.723   1.975   1.008
75416ION    CL-48484   9.799  14.298   3.987
75417ION    CL-48485  37.213  14.712   9.961
75418ION    CL-48486  37.090  20.693  12.472
75419ION    CL-48487  17.294   8.382   1.331
75420ION    CL-48488   2.132  35.314  11.095
75421ION    CL-48489  42.056   2.403  13.278
75422ION    CL-48490   2.399   3.478  10.866
75423ION    CL-48491   6.204   1.440   9.941
75424ION    CL-48492  10.119  34.628  13.399
75425ION    CL-48493  43.747  28.811   0.520
75426ION    CL-48494  21.268  11.411  11.740
75427ION    CL-48495  30.097   1.982  13.141
75428ION    CL-48496  18.337  41.211   2.877
75429ION    CL-48497  39.058  26.286  11.049
75430ION    CL-48498  11.230  43.031   4.354
75431ION    CL-48499   1.923  33.693  11.434
75432ION    CL-48500   9.972  25.175   5.191
75433ION    CL-48501  16.077  21.481  13.597
75434ION    CL-48502  44.741  28.276  13.566
75435ION    CL-48503  22.300  38.248   4.122
75436ION    CL-48504  17.753  30.876  10.373
75437ION    CL-48505   5.323   4.712  13.292
75438ION    CL-48506  36.474  25.620   3.293
75439ION    CL-48507   0.014   2.178  12.987
75440ION    CL-48508   0.160  29.581  11.451
75441ION    CL-48509   7.756  18.118   1.404
75442ION    CL-48510   9.035  29.661   2.180
75443ION    CL-48511  12.843  30.150  14.390
75444ION    CL-48512   4.198  10.145  11.736
75445ION    CL-48513  43.715  11.373   0.542
75446ION    CL-48514  10.720  24.490  11.085
75447ION    CL-48515  35.928  43.406   0.915
75448ION    CL-48516  22.132  41.758   2.826
75449ION    CL-48517  34.501  20.112   3.294
75450ION    CL-48518   4.200   3.069  11.379
75451ION    CL-48519  39.047  13.276  12.123
75452ION    CL-48520  13.717   8.800  12.205
75453ION    CL-48521  13.766  39.746   3.789
75454ION    CL-48522  43.544  18.520   3.087
75455ION    CL-48523  37.214  20.893   4.280
75456ION    CL-48524  36.549  21.858  11.098
75457ION    CL-48525  31.436   0.681   3.922
75458ION    CL-48526  35.430  18.783   0.432
75459ION    CL-48527  43.918  10.443  13.582
75460ION    CL-48528   3.779  16.555  13.388
75461ION    CL-48529  15.963  32.321   4.328
75462ION    CL-48530  16.138  34.127  12.056
75463ION    CL-48531  36.717  40.137  11.196
75464ION    CL-48532  15.342  44.952   1.203
75465ION    CL-48533  28.918  32.975  13.972
75466ION    CL-48534  43.526  20.131   0.482
75467ION    CL-48535  17.975   6.402  14.377
75468ION    CL-48536  30.884  30.355  10.766
75469ION    CL-48537  15.548  17.562   4.106
75470ION    CL-48538  39.007  15.809  13.725
75471ION    CL-48539  44.400  11.589   2.788
75472ION    CL-48540  44.940  10.349  13.494
75473ION    CL-48541  16.558   7.324  11.660
75474ION    CL-48542  15.268   5.685  11.996
75475ION    CL-48543   2.273  24.601   4.100
75476ION    CL-48544   8.639  35.767   1.385
75477ION    CL-48545   0.238  38.057  14.922
75478ION    CL-48546  15.303  22.735   0.891
75479ION    CL-48547  35.456   8.607   1.941
75480ION    CL-48548  38.605  13.769   4.743
75481ION    CL-48549  28.033  12.520   0.844
75482ION    CL-48550  10.580   7.520  12.956
75483ION    CL-48551  13.787  14.718  13.383
75484ION    CL-48552   0.341  31.391   2.004
75485ION    CL-48553  17.725  21.321   1.453
75486ION    CL-48554  18.185   7.903   2.043
75487ION    CL-48555  44.942   6.877   4.574
75488ION    CL-48556  29.845  26.052   3.193
75489ION    CL-48557  26.321   8.960  10.413
75490ION    CL-48558   1.914  42.225  13.599
75491ION    CL-48559  38.515  18.512  13.174
75492ION    CL-48560  23.895  35.909   2.762
75493ION    CL-48561   5.273  15.898   2.302
75494ION    CL-48562  19.186  10.514  11.972
75495ION    CL-48563  19.480   3.203  12.552
75496ION    CL-48564  13.850  34.084   1.733
75497ION    CL-48565   2.187  37.423   5.009
75498ION    CL-48566   8.772  19.554  11.140
75499ION    CL-48567   5.086  24.786  14.316
75500ION    CL-48568  25.750  40.910  11.084
75501ION    CL-48569  19.608   8.782  13.902
75502ION    CL-48570  36.134  32.955  11.235
75503ION    CL-48571  39.778  37.447   3.178
75504ION    CL-48572   2.376  35.117  13.844
75505ION    CL-48573  28.118  20.363  13.127
75506ION    CL-48574   6.675   9.019  14.108
75507ION    CL-48575  37.178  40.116   2.365
75508ION    CL-48576   9.939  21.270  13.978
75509ION    CL-48577  23.258  16.596  11.078
75510ION    CL-48578  35.020  29.858  14.177
75511ION    CL-48579   2.782  36.640   1.480
75512ION    CL-48580  38.404  15.870   4.097
75513ION    CL-48581   9.415  13.390   2.357
75514ION    CL-48582  15.853  38.589  12.680
75515ION    CL-48583  39.209  20.219   0.386
75516ION    CL-48584  35.600   1.291  14.966
75517ION    CL-48585  42.077  16.573   5.037
75518ION    CL-48586  25.690  24.218  14.470
75519ION    CL-48587  25.726   6.561   2.872
75520ION    CL-48588  15.618  44.002  14.840
75521ION    CL-48589   7.836  37.622   1.505
75522ION    CL-48590  43.791  25.136   0.394
75523ION    CL-48591  19.483  38.922   3.993
75524ION    CL-48592  43.981  40.543   1.092
75525ION    CL-48593  37.130  31.506  14.642
75526ION    CL-48594  12.358  33.948   4.398
75527ION    CL-48595  38.527  14.093   1.655
75528ION    CL-48596  19.045   3.986  14.871
75529ION    CL-48597  41.536  29.332  10.404
75530ION    CL-48598   2.451  13.716   5.060
75531ION    CL-48599  36.460  36.513  14.511
75532ION    CL-48600  14.596  38.823   3.750
75533ION    CL-48601  33.000  24.606  14.070
75534ION    CL-48602  37.113  36.976   2.095
75535ION    CL-48603  28.702  37.394  12.464
75536ION    CL-48604   6.562   1.016   0.083
75537ION    CL-48605  12.901  20.928  13.313
75538ION    CL-48606  33.598  12.645   3.748
75539ION    CL-48607  20.646   3.223   2.129
75540ION    CL-48608  41.131  25.103  14.333
75541ION    CL-48609  35.904  17.732  14.580
75542ION    CL-48610  32.660  39.583  13.783
75543ION    CL-48611  37.504   1.516   4.132
75544ION    CL-48612  32.417   2.710  14.777
75545ION    CL-48613  34.333  10.337   1.218
75546ION    CL-48614  39.139  39.806  13.007
75547ION    CL-48615   9.816  34.412   1.496
75548ION    CL-48616   5.860  23.761   3.679
75549ION    CL-48617  44.771   4.556   0.377
75550ION    CL-48618  34.232  13.071  14.349
75551ION    CL-48619   6.190  41.271  12.390
75552ION    CL-48620  10.778   1.745   4.229
75553ION    CL-48621  31.542  40.345   1.408
75554ION    CL-48622  36.348   0.811  14.507
75555ION    CL-48623  16.111  10.374  13.378
75556ION    CL-48624  25.310  34.824  11.054
75557ION    CL-48625  11.969  43.024  13.807
75558ION    CL-48626  32.067  10.709   4.434
75559ION    CL-48627  17.164  39.245  12.594
75560ION    CL-48628  10.430  22.734  13.113
75561ION    CL-48629  11.412  31.537  10.327
75562ION    CL-48630  30.586  20.106  10.696
75563ION    CL-48631  23.583  23.780  12.095
75564ION    CL-48632  12.759   4.044  12.353
75565ION    CL-48633  23.281  40.913   3.286
75566ION    CL-48634  19.776  32.855  11.412
75567ION    CL-48635  14.003   0.203   1.212
75568ION    CL-48636   7.438  12.291   0.244
75569ION    CL-48637  38.737  14.764   2.763
75570ION    CL-48638  20.670  13.103  14.052
75571ION    CL-48639  13.249  30.334   0.589
75572ION    CL-48640  15.873  40.493   1.035
75573ION    CL-48641  33.381  44.826  10.797
75574ION    CL-48642  13.910  33.308   2.543
75575ION    CL-48643  36.448  43.756   1.064
75576ION    CL-48644   0.038  24.990   0.928
75577ION    CL-48645  19.145  41.892  13.140
75578ION    CL-48646   6.177   4.265   1.754
75579ION    CL-48647  32.051  16.635  13.363
75580ION    CL-48648  20.972  41.793   9.839
75581ION    CL-48649  12.737   9.670  13.775
75582ION    CL-48650  14.337  22.251   4.810
75583ION    CL-48651  31.277  17.607  11.808
75584ION    CL-48652  43.809  14.391   2.403
75585ION    CL-48653   0.023  14.698   0.737
75586ION    CL-48654  27.176  27.667  12.462
75587ION    CL-48655  42.754  36.060   2.124
75588ION    CL-48656   8.915  35.485   0.582
75589ION    CL-48657  43.495  13.655  14.928
75590ION    CL-48658  44.584  29.639  14.310
75591ION    CL-48659  19.810  16.490  11.614
75592ION    CL-48660  12.469  35.021  11.505
75593ION    CL-48661   6.680  23.654  11.569
75594ION    CL-48662  40.959   9.644  14.951
75595ION    CL-48663   1.849  31.400   2.047
75596ION    CL-48664  38.650  12.890   1.814
75597ION    CL-48665   3.036   1.418   4.915
75598ION    CL-48666   4.805  19.912  12.967
75599ION    CL-48667  32.655   6.560  12.879
75600ION    CL-48668  19.154   4.154  11.386
75601ION    CL-48669   5.885   6.402  14.960
75602ION    CL-48670  17.199  15.590   3.278
75603ION    CL-48671  26.730  44.931  14.281
75604ION    CL-48672  29.032   0.619  13.606
75605ION    CL-48673   0.517  41.859   2.005
75606ION    CL-48674   3.404  36.020   1.957
75607ION    CL-48675  16.981  41.433  14.895
75608ION    CL-48676  10.079   2.074   0.770
75609ION    CL-48677  22.050  26.492  11.512
75610ION    CL-48678  29.728  44.384   5.098
75611ION    CL-48679   5.776  27.951  10.964
75612ION    CL-48680  16.743  30.632  10.854
75613ION    CL-48681  41.083  29.131   2.585
75614ION    CL-48682  36.524  34.086   0.952
75615ION    CL-48683  12.924  18.814  11.723
75616ION    CL-48684  43.751  24.126  11.187
75617ION    CL-48685  11.232   9.219   0.872
75618ION    CL-48686  18.069  30.719  11.225
75619ION    CL-48687  43.045  12.406  12.325
75620ION    CL-48688  39.938  18.212  13.616
75621ION    CL-48689  39.170  12.683   3.409
75622ION    CL-48690  10.115  20.876  11.219
75623ION    CL-48691  12.754   8.765  11.828
75624ION    CL-48692   0.475  34.725   1.175
75625ION    CL-48693  40.369   6.268  10.053
75626ION    CL-48694  11.011  28.686  10.411
75627ION    CL-48695  33.052  23.288   3.090
75628ION    CL-48696  36.657  29.514  12.284
75629ION    CL-48697  28.114  43.032  11.701
75630ION    CL-48698  42.490  23.961   3.498
75631ION    CL-48699  20.226   7.722   1.346
75632ION    CL-48700  43.916   9.161   4.099
75633ION    CL-48701  28.130  17.258  11.718
75634ION    CL-48702   3.298  39.025  11.644
75635ION    CL-48703  21.732   8.202  13.452
75636ION    CL-48704  18.902  44.014  14.355
75637ION    CL-48705   9.457  20.217   3.238
75638ION    CL-48706  30.210  44.788  11.845
75639ION    CL-48707  39.663  16.067   5.293
75640ION    CL-48708  34.682  25.004  10.830
75641ION    CL-48709   1.219  26.671  13.623
75642ION    CL-48710  26.082   6.799   1.988
75643ION    CL-48711  11.144  33.068   4.247
75644ION    CL-48712  37.254  25.048   1.337
75645ION    CL-48713  12.667   9.887   4.115
75646ION    CL-48714  28.617  10.944   0.318
75647ION    CL-48715  30.052  17.230  10.973
75648ION    CL-48716   2.743  12.453  13.345
75649ION    CL-48717  39.809   2.750   0.632
75650ION    CL-48718  27.256   6.777   3.505
75651ION    CL-48719  37.309  22.632   4.278
75652ION    CL-48720  27.292  13.830   0.713
75653ION    CL-48721  17.270  31.377   2.607
75654ION    CL-48722  38.927  20.101  10.993
75655ION    CL-48723  44.037  28.213  14.358
75656ION    CL-48724  37.294  11.114   2.689
75657ION    CL-48725  28.617   3.281   4.954
75658ION    CL-48726  21.911  43.816  11.128
75659ION    CL-48727  17.355  35.924   4.143
75660ION    CL-48728  31.445   6.366   1.905
75661ION    CL-48729   3.729  27.682  11.175
75662ION    CL-48730  15.038  11.217  13.951
75663ION    CL-48731  16.734  12.143  13.893
75664ION    CL-48732  19.586  23.320   3.282
75665ION    CL-48733   9.697   4.236  12.079
75666ION    CL-48734  38.074  37.438   3.290
75667ION    CL-48735   7.231  18.305   0.573
75668ION    CL-48736  26.598  44.487   0.168
75669ION    CL-48737  11.782  39.844  14.797
75670ION    CL-48738  35.410  28.468   1.733
75671ION    CL-48739  19.621  22.804  12.570
75672ION    CL-48740   1.163  22.768   3.099
75673ION    CL-48741  41.054  40.312  11.498
75674ION    CL-48742  33.091  10.142  11.029
75675ION    CL-48743  18.080   0.945  14.388
75676ION    CL-48744  37.326  44.458   0.919
75677ION    CL-48745  33.923  32.436   1.413
75678ION    CL-48746  24.773  25.532  10.692
75679ION    CL-48747  13.518  12.265  10.383
75680ION    CL-48748  21.202  18.527  11.656
75681ION    CL-48749   9.593  30.452   2.677
75682ION    CL-48750   7.216   5.208  13.263
75683ION    CL-48751   9.384  11.614  12.743
75684ION    CL-48752   2.956   4.546  11.475
75685ION    CL-48753   1.987  22.502   3.224
75686ION    CL-48754   9.746   5.043  11.491
75687ION    CL-48755  17.122  38.825   2.186
75688ION    CL-48756  34.583  26.786   3.458
75689ION    CL-48757  12.534  14.590   2.984
75690ION    CL-48758  18.005  27.728   0.349
75691ION    CL-48759   7.855  15.381  11.513
75692ION    CL-48760  30.631   9.251  14.308
75693ION    CL-48761  37.073  41.997   1.648
75694ION    CL-48762  16.353   3.910   0.241
75695ION    CL-48763   3.648  16.010   4.541
75696ION    CL-48764  21.207  31.540   1.702
75697ION    CL-48765  16.215   7.976   3.630
75698ION    CL-48766  27.494  34.910  11.541
75699ION    CL-48767   8.102   7.555  14.720
75700ION    CL-48768   5.620  23.631  11.542
75701ION    CL-48769  30.862  20.263  13.295
75702ION    CL-48770   1.433   5.085   0.058
75703ION    CL-48771  22.409  28.109  10.373
75704ION    CL-48772   1.317  41.361  13.860
75705ION    CL-48773  31.316  27.406   2.334
75706ION    CL-48774  22.108  37.646   1.599
75707ION    CL-48775  17.353  42.847  13.040
75708ION    CL-48776  23.686   7.615   0.185
75709ION    CL-48777   8.403   9.457  13.535
75710ION    CL-48778  16.382   2.805  14.804
75711ION    CL-48779  39.748  14.427  11.079
75712ION    CL-48780   9.902   1.888  12.080
75713ION    CL-48781  14.526   8.751  13.442
75714ION    CL-48782  40.409  32.984  13.457
75715ION    CL-48783   3.781  42.570   4.742
75716ION    CL-48784   8.331  29.497  10.300
75717ION    CL-48785   5.134  38.130   2.316
75718ION    CL-48786  18.223  43.037   3.140
75719ION    CL-48787  37.311   9.228   0.822
75720ION    CL-48788   0.265  44.415   1.306
75721ION    CL-48789   0.017  36.401   0.580
75722ION    CL-48790   0.185   7.851   1.739
75723ION    CL-48791  11.363  33.469   1.530
75724ION    CL-48792   7.374  33.459   4.726
75725ION    CL-48793   8.772  31.084  14.722
75726ION    CL-48794   6.549  19.156  12.692
75727ION    CL-48795  43.378   2.781  13.395
75728ION    CL-48796  10.697  25.678   3.310
75729ION    CL-48797  19.323  25.423  14.892
75730ION    CL-48798  10.030  13.704  14.970
75731ION    CL-48799  38.966   7.394   4.072
75732ION    CL-48800   1.408  38.401   1.550
75733ION    CL-48801   7.968  41.973   1.164
75734ION    CL-48802  27.937  28.844  13.858
75735ION    CL-48803  39.365  32.513   4.471
75736ION    CL-48804  22.055  18.010  11.586
75737ION    CL-48805  42.305  13.703   2.885
75738ION    CL-48806  39.882  36.183  12.606
75739ION    CL-48807  18.259  31.486  14.288
75740ION    CL-48808  13.250  18.241  11.063
75741ION    CL-48809  14.093  34.034  12.608
75742ION    CL-48810  36.045  20.447   4.585
75743ION    CL-48811  42.948  23.045   1.276
75744ION    CL-48812  39.332   3.450   3.724
75745ION    CL-48813  26.133  19.966   2.972
75746ION    CL-48814  27.135   2.988   1.127
75747ION    CL-48815  26.760   7.809  13.431
75748ION    CL-48816  14.562  23.663  11.694
75749ION    CL-48817  26.609   2.202   0.761
75750ION    CL-48818  40.889  32.107  13.419
75751ION    CL-48819  42.680  34.398   2.372
75752ION    CL-48820  29.193  16.662   2.758
75753ION    CL-48821  20.516  12.225  12.525
75754ION    CL-48822  19.824   1.001   4.799
75755ION    CL-48823  39.316  41.477   0.456
75756ION    CL-48824  19.966  36.819   1.752
75757ION    CL-48825   2.331   5.962  14.613
75758ION    CL-48826   3.098  29.586  13.412
75759ION    CL-48827  24.253  34.417   3.846
75760ION    CL-48828  30.849   5.496   4.885
75761ION    CL-48829  32.525  24.723   1.882
75762ION    CL-48830   5.187   0.443   3.037
75763ION    CL-48831  28.670   5.407  12.089
75764ION    CL-48832   7.530  31.350   4.864
75765ION    CL-48833  22.961  37.982  13.859
75766ION    CL-48834  27.591  44.647   3.028
75767ION    CL-48835  26.006  27.198  13.363
75768ION    CL-48836  44.733  12.522   3.856
75769ION    CL-48837   5.267  33.697   1.219
75770ION    CL-48838  43.299  30.365   3.494
75771ION    CL-48839  36.920   0.710  11.043
75772ION    CL-48840   7.258   1.011   2.900
75773ION    CL-48841  11.674  43.055  14.762
75774ION    CL-48842  16.408   6.450   3.614
75775ION    CL-48843  26.690  15.556  12.806
75776ION    CL-48844   4.951  25.854   2.461
75777ION    CL-48845  18.887  22.913   0.267
75778ION    CL-48846  10.309  12.025  12.819
75779ION    CL-48847  33.941  18.250   2.145
75780ION    CL-48848  24.311  16.867   5.424
75781ION    CL-48849  21.232   7.309   3.085
75782ION    CL-48850  43.789  23.093   2.239
75783ION    CL-48851  30.020  20.018  13.160
75784ION    CL-48852   2.361  33.095  12.105
75785ION    CL-48853  35.960   7.214  11.603
75786ION    CL-48854  15.308   8.307   3.891
75787ION    CL-48855  24.355   3.201   3.751
75788ION    CL-48856   9.699  20.942  10.412
75789ION    CL-48857   2.761  11.678  13.806
75790ION    CL-48858  41.475  41.969   2.862
75791ION    CL-48859  29.720   8.401  13.084
75792ION    CL-48860   5.402   8.314  10.454
75793ION    CL-48861  23.310  35.006  14.120
75794ION    CL-48862   0.273   9.495  10.628
75795ION    CL-48863  41.555   6.542  14.858
75796ION    CL-48864   9.312  43.373  11.301
75797ION    CL-48865  27.492  10.290  11.448
75798ION    CL-48866  14.898  20.766   2.351
75799ION    CL-48867  25.684  16.405   2.787
75800ION    CL-48868  28.117  42.640   5.136
75801ION    CL-48869  18.619  28.724  11.181
75802ION    CL-48870  30.875  12.194   1.202
75803ION    CL-48871  32.665  34.629  11.530
75804ION    CL-48872   2.825  31.579   1.687
75805ION    CL-48873  39.875  11.044  13.897
75806ION    CL-48874  44.534   2.156  11.161
75807ION    CL-48875  35.550   2.202  10.798
75808ION    CL-48876  17.401  19.194   4.121
75809ION    CL-48877   3.518  42.408   2.861
75810ION    CL-48878  18.027   1.672  13.704
75811ION    CL-48879  20.317  17.422   0.591
75812ION    CL-48880   2.261  30.507  13.408
75813ION    CL-48881  31.820  44.826   2.625
75814ION    CL-48882  38.806  31.346  12.091
75815ION    CL-48883   9.843  43.934  14.283
75816ION    CL-48884   8.587  27.015  14.879
75817ION    CL-48885  38.315   1.416   4.142
75818ION    CL-48886  17.155   9.062   1.913
75819ION    CL-48887  13.527  26.041   2.244
75820ION    CL-48888  35.986  32.193   2.708
75821ION    CL-48889  37.333  11.093   4.690
75822ION    CL-48890   0.854  40.504   2.784
75823ION    CL-48891   6.873  25.753   3.613
75824ION    CL-48892  35.995   5.680   4.480
75825ION    CL-48893  28.182  24.074  14.613
75826ION    CL-48894  34.045  35.791  12.717
75827ION    CL-48895  20.318   2.925   3.026
75828ION    CL-48896  25.176  17.244  11.703
75829ION    CL-48897  35.546   0.722  12.552
75830ION    CL-48898  26.503  30.579   4.213
75831ION    CL-48899  14.959  17.001   0.355
75832ION    CL-48900  18.993  26.476   0.340
75833ION    CL-48901   9.275   6.051  12.224
75834ION    CL-48902   0.867  35.593   1.488
75835ION    CL-48903  31.193  11.299  13.796
75836ION    CL-48904  30.087   5.674  10.870
75837ION    CL-48905  39.345  12.346  12.802
75838ION    CL-48906  40.429   0.130   4.903
75839ION    CL-48907  33.154  44.021   3.193
75840ION    CL-48908  38.022  34.064  12.433
75841ION    CL-48909  14.719  17.324   3.197
75842ION    CL-48910  38.160  32.707  11.661
75843ION    CL-48911  42.959   0.680   3.510
75844ION    CL-48912   3.188  12.179   1.774
75845ION    CL-48913  18.847  11.251  12.813
75846ION    CL-48914  25.817  42.945  13.500
75847ION    CL-48915  35.703   7.361   0.104
75848ION    CL-48916  44.543  20.029   3.014
75849ION    CL-48917  20.299  29.876   3.357
75850ION    CL-48918  15.391   7.096   2.446
75851ION    CL-48919   2.378  29.092  11.673
75852ION    CL-48920  30.545  38.066  12.243
75853ION    CL-48921  26.446  27.547   3.548
75854ION    CL-48922  34.269  22.053   1.657
75855ION    CL-48923  42.314  28.049   4.313
75856ION    CL-48924  43.535  29.589   1.348
75857ION    CL-48925  37.848   6.150  12.095
75858ION    CL-48926  42.864  35.692   5.041
75859ION    CL-48927  24.646  37.053  13.500
75860ION    CL-48928  32.408  16.409  12.630
75861ION    CL-48929  41.627  14.823   0.396
75862ION    CL-48930  35.032  28.146   4.225
75863ION    CL-48931  32.306   4.848  14.851
75864ION    CL-48932   2.638  15.317  11.052
75865ION    CL-48933   7.184   3.554  14.585
75866ION    CL-48934   4.628  16.564  12.485
75867ION    CL-48935  20.446  38.124   2.877
75868ION    CL-48936  43.849  23.107  11.088
75869ION    CL-48937  24.017  10.852  11.577
75870ION    CL-48938  23.590  36.335   5.091
75871ION    CL-48939   8.910  43.579  10.409
75872ION    CL-48940  31.797  19.842   2.777
75873ION    CL-48941  40.953  14.793  10.283
75874ION    CL-48942   5.204  35.614   3.827
75875ION    CL-48943  25.767  27.006   5.117
75876ION    CL-48944  23.355  16.185   3.231
75877ION    CL-48945   9.750  39.395   1.403
75878ION    CL-48946  36.698  38.749  14.392
75879ION    CL-48947  27.166  13.825   2.788
75880ION    CL-48948   4.708   0.550  11.926
75881ION    CL-48949  17.239  14.096   2.922
75882ION    CL-48950  42.971  40.481  13.094
75883ION    CL-48951   8.380   1.824   0.440
75884ION    CL-48952   0.425  32.845   0.079
75885ION    CL-48953   3.234   6.137  14.641
75886ION    CL-48954  36.436  34.332   3.275
75887ION    CL-48955  24.524  30.995   4.329
75888ION    CL-48956   4.704  19.635  12.012
75889ION    CL-48957  32.248  17.775  11.981
75890ION    CL-48958  30.183  20.724  12.470
75891ION    CL-48959   8.441   8.368   3.466
75892ION    CL-48960   0.867  12.235   4.804
75893ION    CL-48961  36.537  14.103  11.041
75894ION    CL-48962  30.627  17.960  13.383
75895ION    CL-48963   8.395  27.596  10.369
75896ION    CL-48964  18.128  34.312  14.551
75897ION    CL-48965  10.851  39.084  12.996
75898ION    CL-48966  14.191  17.641   0.325
75899ION    CL-48967   8.714  26.237  14.182
75900ION    CL-48968  16.670  39.836   1.452
75901ION    CL-48969   9.308   0.145   1.439
75902ION    CL-48970  37.040  27.069  14.327
75903ION    CL-48971  13.024  33.923   2.272
75904ION    CL-48972  38.102  33.241  14.379
75905ION    CL-48973  35.870   0.381   5.023
75906ION    CL-48974  40.540   3.673  13.186
75907ION    CL-48975  42.346  27.178  12.007
75908ION    CL-48976  42.632  13.998  10.245
75909ION    CL-48977  26.872  27.589   1.277
75910ION    CL-48978  26.351  28.081  12.073
75911ION    CL-48979   6.385  41.952   3.351
75912ION    CL-48980  18.257   2.965   1.084
75913ION    CL-48981  16.046  25.766  12.456
75914ION    CL-48982  41.988  31.403   0.624
75915ION    CL-48983  14.344  43.818  14.348
75916ION    CL-48984  29.859  28.204  11.678
75917ION    CL-48985   9.605  31.448   1.374
75918ION    CL-48986  19.191  44.783  11.822
75919ION    CL-48987   7.859  42.379  12.395
75920ION    CL-48988  42.604  25.679   5.036
75921ION    CL-48989   7.288  30.875  11.893
75922ION    CL-48990   9.118  16.710   3.743
75923ION    CL-48991  13.736  35.876  12.440
75924ION    CL-48992  24.837  33.916  11.099
75925ION    CL-48993  36.832  22.757   0.341
75926ION    CL-48994  23.288   3.909  11.257
75927ION    CL-48995  19.724   1.783   2.656
75928ION    CL-48996  24.211  40.877   1.726
75929ION    CL-48997  16.848  19.046  13.018
75930ION    CL-48998   2.534  14.194  10.760
75931ION    CL-48999  14.261  27.670  13.486
75932ION    CL-49000  22.736  37.615   3.336
75933ION    CL-49001   3.991  40.055   3.232
75934ION    CL-49002  40.792  33.707  12.365
75935ION    CL-49003  41.841  34.787  11.097
75936ION    CL-49004  14.392  22.789   0.481
75937ION    CL-49005   7.176  38.686   1.730
75938ION    CL-49006  24.511  28.172   1.251
75939ION    CL-49007  39.521  42.575   3.848
75940ION    CL-49008   8.068  27.112   4.303
75941ION    CL-49009  39.977  19.583   0.472
75942ION    CL-49010  39.946   2.751  10.134
75943ION    CL-49011  13.810  44.695  11.169
75944ION    CL-49012  26.069  38.749   4.049
75945ION    CL-49013   2.987  17.846  11.944
75946ION    CL-49014  23.754  32.297   3.135
75947ION    CL-49015  41.496  37.476  10.607
75948ION    CL-49016  26.098  20.235  13.670
75949ION    CL-49017  28.040  31.970   3.247
75950ION    CL-49018   3.371   3.678   3.553
75951ION    CL-49019   5.281  24.760  12.363
75952ION    CL-49020  35.153  44.041  12.149
75953ION    CL-49021  32.359   1.214  14.267
75954ION    CL-49022   3.266  18.414   1.541
75955ION    CL-49023   7.121  18.023  11.642
75956ION    CL-49024  39.054  28.466  10.748
75957ION    CL-49025  10.850  41.067   3.645
75958ION    CL-49026   1.516   1.297  14.813
75959ION    CL-49027  44.245  12.264  13.294
75960ION    CL-49028  12.850  23.212   0.686
75961ION    CL-49029  32.529  23.072   3.915
75962ION    CL-49030  17.209  15.626  12.158
  45.00000  45.00000  15.00000
